Protein in INSANE! Membrane UpperLeaflet>POPC=1.0 LowerLeaflet>POPC=1.0
248776
    1AU     AUC    1   7.502  36.213   7.535
    1AU     AUC    2   7.754  36.218   7.369
    1AU     AUC    3   7.743  36.205   7.699
    1AU     AUC    4   7.232  36.221   7.380
    1AU     AUC    5   7.258  36.250   7.705
    1AU     AUC    6   7.341  36.466   7.513
    1AU     AUC    7   7.688  36.478   7.516
    1AU     AUC    8   7.323  35.959   7.543
    1AU     AUC    9   7.654  35.937   7.545
    1AU     AUC   10   7.496  36.053   7.798
    1AU     AUC   11   7.515  36.393   7.779
    1AU     AUC   12   7.489  36.040   7.287
    1AU     AUC   13   7.509  36.346   7.271
    1AU     AUC   14   8.057  36.209   7.204
    1AU     AUC   15   8.065  36.189   7.545
    1AU     AUC   16   8.023  36.176   7.899
    1AU     AUC   17   6.930  36.195   7.228
    1AU     AUC   18   6.929  36.254   7.556
    1AU     AUC   19   6.958  36.293   7.888
    1AU     AUC   20   7.176  36.779   7.474
    1AU     AUC   21   7.536  36.753   7.457
    1AU     AUC   22   7.902  36.741   7.487
    1AU     AUC   23   7.119  35.670   7.548
    1AU     AUC   24   7.470  35.646   7.529
    1AU     AUC   25   7.826  35.635   7.546
    1AU     AUC   26   7.455  35.887   8.101
    1AU     AUC   27   7.492  36.229   8.101
    1AU     AUC   28   7.549  36.593   8.062
    1AU     AUC   29   7.520  35.850   6.997
    1AU     AUC   30   7.468  36.191   6.973
    1AU     AUC   31   7.465  36.514   6.957
    1AU     AUC   32   7.737  35.991   8.012
    1AU     AUC   33   7.793  36.367   7.987
    1AU     AUC   34   7.792  36.053   7.072
    1AU     AUC   35   7.757  36.365   7.079
    1AU     AUC   36   7.203  36.111   8.000
    1AU     AUC   37   7.250  36.461   7.971
    1AU     AUC   38   7.214  36.010   7.103
    1AU     AUC   39   7.168  36.338   7.083
    1AU     AUC   40   7.995  36.481   7.346
    1AU     AUC   41   7.961  36.478   7.705
    1AU     AUC   42   7.036  36.493   7.383
    1AU     AUC   43   7.081  36.559   7.713
    1AU     AUC   44   7.958  35.930   7.407
    1AU     AUC   45   7.906  35.884   7.739
    1AU     AUC   46   7.037  35.907   7.373
    1AU     AUC   47   7.063  35.981   7.716
    1AU     AUC   48   7.401  36.711   7.782
    1AU     AUC   49   7.740  36.666   7.793
    1AU     AUC   50   7.288  35.778   7.817
    1AU     AUC   51   7.606  35.725   7.809
    1AU     AUC   52   7.311  36.644   7.215
    1AU     AUC   53   7.676  36.660   7.226
    1AU     AUC   54   7.342  35.746   7.258
    1AU     AUC   55   7.702  35.791   7.274
    1AU    AUSL   56   8.001  36.081   8.316
    1AU    AUSL   57   7.751  35.708   8.222
    1AU     AUL   58   8.058  35.709   8.389
    1AU    AUSL   59   7.586  36.023   8.460
    1AU    AUSL   60   7.348  36.432   8.451
    1AU     AUL   61   7.584  36.307   8.710
    1AU    AUSL   62   7.685  36.380   8.204
    1AU    AUSL   63   8.136  36.439   8.126
    1AU     AUL   64   7.954  36.404   8.435
    1AU    AUSL   65   7.909  36.241   6.840
    1AU    AUSL   66   7.770  36.637   6.981
    1AU     AUL   67   7.984  36.569   6.681
    1AU    AUSL   68   7.721  35.919   6.612
    1AU    AUSL   69   8.228  35.989   6.982
    1AU     AUL   70   8.096  36.063   6.665
    1AU    AUSL   71   7.553  36.423   6.670
    1AU    AUSL   72   7.375  36.037   6.829
    1AU     AUL   73   7.506  36.116   6.524
    1AU    AUSL   74   6.964  36.394   8.243
    1AU    AUSL   75   7.327  36.703   8.111
    1AU     AUL   76   7.164  36.671   8.412
    1AU    AUSL   77   7.265  36.081   8.191
    1AU    AUSL   78   6.816  36.004   8.105
    1AU     AUL   79   6.873  36.093   8.341
    1AU    AUSL   80   6.939  36.019   6.795
    1AU    AUSL   81   7.188  35.669   6.947
    1AU     AUL   82   7.212  35.755   6.641
    1AU    AUSL   83   7.125  36.387   6.675
    1AU    AUSL   84   6.845  36.368   7.050
    1AU     AUL   85   6.728  36.249   6.776
    1AU    AUSL   86   8.293  36.676   7.476
    1AU    AUSL   87   8.168  36.466   7.096
    1AU     AUL   88   8.463  36.671   7.128
    1AU    AUSL   89   8.458  36.280   7.367
    1AU    AUSL   90   8.407  35.982   7.768
    1AU     AUL   91   8.669  36.066   7.571
    1AU    AUSL   92   8.180  36.335   7.718
    1AU    AUSL   93   8.138  36.779   7.853
    1AU     AUL   94   8.386  36.519   7.878
    1AU    AUSL   95   6.927  36.856   7.522
    1AU    AUSL   96   6.964  36.608   7.878
    1AU     AUL   97   6.655  36.853   7.745
    1AU    AUSL   98   6.726  36.477   7.444
    1AU    AUSL   99   6.879  36.793   7.106
    1AU     AUL  100   6.643  36.718   7.263
    1AU    AUSL  101   6.599  36.399   7.888
    1AU    AUSL  102   6.566  36.093   7.349
    1AU     AUL  103   6.444  36.410   7.590
    1AU    AUSL  104   8.185  35.633   7.615
    1AU    AUSL  105   8.011  35.916   7.925
    1AU     AUL  106   8.318  35.822   8.001
    1AU    AUSL  107   8.143  36.003   7.397
    1AU    AUSL  108   8.133  35.601   7.188
    1AU     AUL  109   8.377  35.811   7.250
    1AU    AUSL  110   6.719  35.714   7.553
    1AU    AUSL  111   6.930  35.924   7.205
    1AU     AUL  112   6.580  35.817   7.213
    1AU    AUSL  113   6.836  36.115   7.694
    1AU    AUSL  114   7.026  35.731   7.849
    1AU     AUL  115   6.645  35.884   7.848
    1AU    AUSL  116   7.568  37.039   7.966
    1AU    AUSL  117   7.113  37.018   7.878
    1AU     AUL  118   7.335  37.063   8.194
    1AU    AUSL  119   7.400  36.894   7.591
    1AU    AUSL  120   7.651  37.027   7.247
    1AU     AUL  121   7.420  37.234   7.554
    1AU    AUSL  122   7.838  36.970   7.623
    1AU    AUSL  123   7.832  36.769   8.153
    1AU     AUL  124   7.951  37.059   7.941
    1AU    AUSL  125   7.426  35.573   7.970
    1AU    AUSL  126   7.850  35.514   7.849
    1AU     AUL  127   7.611  35.452   8.223
    1AU    AUSL  128   7.118  35.351   7.699
    1AU    AUSL  129   7.146  35.688   8.274
    1AU     AUL  130   7.154  35.390   8.050
    1AU    AUSL  131   7.550  35.276   7.667
    1AU    AUSL  132   7.343  35.521   7.362
    1AU     AUL  133   7.226  35.176   7.487
    1AU    AUSL  134   7.478  36.912   6.843
    1AU    AUSL  135   8.050  36.890   7.199
    1AU     AUL  136   7.794  37.000   6.936
    1AU    AUSL  137   7.229  37.006   7.210
    1AU    AUSL  138   7.252  36.595   7.014
    1AU     AUL  139   7.159  36.901   6.856
    1AU    AUSL  140   7.568  35.469   6.981
    1AU    AUSL  141   6.935  35.483   7.258
    1AU     AUL  142   7.231  35.335   7.043
    1AU    AUSL  143   7.775  35.493   7.381
    1AU    AUSL  144   7.798  35.826   7.018
    1AU     AUL  145   7.892  35.453   7.050
    1AU       S  146   8.023  35.258   8.227
    1AU     LIG  147   8.070  35.024   8.352
    1AU     LIG  148   8.192  34.864   8.479
    1AU     LIG  149   8.350  34.687   8.590
    1AU       S  150   8.057  36.048   8.719
    1AU     LIG  151   8.220  36.106   8.921
    1AU     LIG  152   8.310  36.162   9.146
    1AU     LIG  153   8.416  36.129   9.383
    1AU       S  154   7.735  35.855   8.725
    1AU     LIG  155   7.791  35.761   9.005
    1AU     LIG  156   7.957  35.777   9.203
    1AU     LIG  157   8.091  35.732   9.419
    1AU       S  158   7.110  36.345   8.757
    1AU     LIG  159   7.073  36.369   9.059
    1AU     LIG  160   6.955  36.354   9.261
    1AU     LIG  161   6.807  36.331   9.479
    1AU       S  162   7.635  36.779   8.566
    1AU     LIG  163   7.752  36.916   8.771
    1AU     LIG  164   7.965  36.836   8.933
    1AU     LIG  165   8.188  36.710   8.947
    1AU       S  166   8.327  36.671   8.334
    1AU     LIG  167   8.510  36.711   8.555
    1AU     LIG  168   8.650  36.868   8.669
    1AU     LIG  169   8.826  37.044   8.744
    1AU       S  170   7.928  36.300   6.306
    1AU     LIG  171   8.143  36.355   6.093
    1AU     LIG  172   8.277  36.189   5.955
    1AU     LIG  173   8.337  35.998   5.795
    1AU       S  174   8.143  37.000   6.652
    1AU     LIG  175   8.189  37.193   6.462
    1AU     LIG  176   8.352  37.283   6.288
    1AU     LIG  177   8.517  37.374   6.123
    1AU       S  178   8.403  35.711   6.768
    1AU     LIG  179   8.565  35.624   6.527
    1AU     LIG  180   8.579  35.405   6.388
    1AU     LIG  181   8.595  35.150   6.348
    1AU       S  182   7.849  36.005   6.240
    1AU     LIG  183   7.871  35.881   6.011
    1AU     LIG  184   7.858  35.808   5.771
    1AU     LIG  185   7.929  35.788   5.521
    1AU       S  186   7.115  36.065   6.303
    1AU     LIG  187   7.170  36.032   6.024
    1AU     LIG  188   7.176  35.978   5.795
    1AU     LIG  189   7.100  35.937   5.540
    1AU       S  190   7.685  36.446   6.264
    1AU     LIG  191   7.586  36.380   5.973
    1AU     LIG  192   7.728  36.305   5.780
    1AU     LIG  193   7.921  36.297   5.607
    1AU       S  194   6.834  36.433   8.643
    1AU     LIG  195   6.623  36.408   8.819
    1AU     LIG  196   6.569  36.192   8.977
    1AU     LIG  197   6.499  36.060   9.166
    1AU       S  198   6.865  36.991   8.268
    1AU     LIG  199   6.779  37.146   8.501
    1AU     LIG  200   6.638  37.157   8.694
    1AU     LIG  201   6.469  37.246   8.877
    1AU       S  202   6.588  35.725   8.284
    1AU     LIG  203   6.342  35.656   8.381
    1AU     LIG  204   6.197  35.464   8.457
    1AU     LIG  205   6.070  35.282   8.575
    1AU       S  206   7.159  36.053   8.684
    1AU     LIG  207   7.082  35.877   8.887
    1AU     LIG  208   6.969  35.857   9.105
    1AU     LIG  209   6.924  35.843   9.361
    1AU       S  210   6.853  35.977   6.418
    1AU     LIG  211   6.674  35.907   6.208
    1AU     LIG  212   6.663  35.978   5.957
    1AU     LIG  213   6.651  36.088   5.737
    1AU       S  214   6.887  35.429   6.745
    1AU     LIG  215   6.813  35.242   6.540
    1AU     LIG  216   6.655  35.200   6.354
    1AU     LIG  217   6.471  35.151   6.184
    1AU       S  218   6.517  36.655   6.798
    1AU     LIG  219   6.310  36.824   6.744
    1AU     LIG  220   6.258  37.023   6.588
    1AU     LIG  221   6.234  37.146   6.367
    1AU       S  222   7.015  36.333   6.393
    1AU     LIG  223   6.848  36.434   6.139
    1AU     LIG  224   6.931  36.471   5.913
    1AU     LIG  225   7.039  36.451   5.679
    1AU       S  226   8.374  36.814   6.708
    1AU     LIG  227   8.589  36.860   6.537
    1AU     LIG  228   8.746  36.972   6.389
    1AU     LIG  229   8.927  37.091   6.245
    1AU       S  230   8.626  36.790   7.556
    1AU     LIG  231   8.839  36.994   7.540
    1AU     LIG  232   9.083  37.038   7.511
    1AU     LIG  233   9.336  37.101   7.532
    1AU       S  234   8.802  36.491   7.388
    1AU     LIG  235   9.071  36.562   7.293
    1AU     LIG  236   9.311  36.628   7.306
    1AU     LIG  237   9.533  36.742   7.226
    1AU       S  238   8.666  35.612   7.790
    1AU     LIG  239   8.901  35.510   7.920
    1AU     LIG  240   9.154  35.505   7.859
    1AU     LIG  241   9.403  35.473   7.780
    1AU       S  242   8.363  36.919   8.127
    1AU     LIG  243   8.558  37.096   8.210
    1AU     LIG  244   8.603  37.295   8.357
    1AU     LIG  245   8.622  37.474   8.540
    1AU       S  246   8.773  36.523   7.663
    1AU     LIG  247   9.011  36.594   7.814
    1AU     LIG  248   9.248  36.661   7.811
    1AU     LIG  249   9.478  36.751   7.878
    1AU       S  250   6.699  36.768   8.203
    1AU     LIG  251   6.460  36.760   8.380
    1AU     LIG  252   6.274  36.899   8.444
    1AU     LIG  253   6.098  37.018   8.594
    1AU       S  254   6.866  37.192   7.463
    1AU     LIG  255   6.706  37.400   7.335
    1AU     LIG  256   6.460  37.380   7.239
    1AU     LIG  257   6.272  37.223   7.123
    1AU       S  258   6.302  36.411   7.139
    1AU     LIG  259   6.064  36.416   7.071
    1AU     LIG  260   5.809  36.492   7.141
    1AU     LIG  261   5.664  36.705   7.163
    1AU       S  262   6.732  37.065   6.929
    1AU     LIG  263   6.659  37.273   6.787
    1AU     LIG  264   6.517  37.452   6.702
    1AU     LIG  265   6.386  37.607   6.537
    1AU       S  266   6.213  36.007   7.449
    1AU     LIG  267   5.936  35.997   7.337
    1AU     LIG  268   5.693  35.979   7.332
    1AU     LIG  269   5.459  35.858   7.284
    1AU       S  270   6.404  36.326   8.097
    1AU     LIG  271   6.091  36.430   8.182
    1AU     LIG  272   5.974  36.642   8.094
    1AU     LIG  273   5.794  36.789   7.968
    1AU       S  274   8.396  35.442   7.606
    1AU     LIG  275   8.530  35.140   7.622
    1AU     LIG  276   8.758  35.074   7.697
    1AU     LIG  277   9.029  35.060   7.655
    1AU       S  278   8.240  35.381   8.066
    1AU     LIG  279   8.487  35.245   8.105
    1AU     LIG  280   8.617  35.157   8.287
    1AU     LIG  281   8.664  35.087   8.537
    1AU       S  282   8.653  35.592   7.519
    1AU     LIG  283   8.876  35.470   7.383
    1AU     LIG  284   9.117  35.471   7.343
    1AU     LIG  285   9.358  35.399   7.280
    1AU       S  286   8.345  35.449   6.925
    1AU     LIG  287   8.410  35.189   6.822
    1AU     LIG  288   8.283  34.966   6.774
    1AU     LIG  289   8.242  34.747   6.659
    1AU       S  290   6.710  35.624   6.817
    1AU     LIG  291   6.477  35.634   6.620
    1AU     LIG  292   6.300  35.517   6.527
    1AU     LIG  293   6.094  35.359   6.465
    1AU       S  294   6.295  35.716   7.583
    1AU     LIG  295   6.078  35.550   7.588
    1AU     LIG  296   5.851  35.502   7.482
    1AU     LIG  297   5.618  35.398   7.441
    1AU       S  298   6.707  35.495   8.082
    1AU     LIG  299   6.531  35.287   8.068
    1AU     LIG  300   6.411  35.101   8.174
    1AU     LIG  301   6.278  34.915   8.287
    1AU       S  302   6.237  36.011   7.713
    1AU     LIG  303   6.003  35.983   7.888
    1AU     LIG  304   5.764  35.891   7.835
    1AU     LIG  305   5.555  35.756   7.809
    1AU       S  306   6.906  37.210   7.989
    1AU     LIG  307   6.671  37.399   8.062
    1AU     LIG  308   6.446  37.362   8.206
    1AU     LIG  309   6.314  37.439   8.412
    1AU       S  310   7.649  37.396   8.053
    1AU     LIG  311   7.760  37.583   8.255
    1AU     LIG  312   7.648  37.773   8.380
    1AU     LIG  313   7.503  37.974   8.444
    1AU       S  314   7.411  37.531   7.925
    1AU     LIG  315   7.322  37.756   7.968
    1AU     LIG  316   7.296  38.015   7.984
    1AU     LIG  317   7.305  38.266   8.012
    1AU       S  318   7.576  37.374   7.131
    1AU     LIG  319   7.642  37.643   7.146
    1AU     LIG  320   7.676  37.875   7.130
    1AU     LIG  321   7.739  38.118   7.042
    1AU       S  322   8.086  36.886   8.364
    1AU     LIG  323   8.161  37.105   8.543
    1AU     LIG  324   8.262  37.186   8.736
    1AU     LIG  325   8.388  37.204   8.967
    1AU       S  326   7.788  37.447   7.734
    1AU     LIG  327   7.820  37.720   7.718
    1AU     LIG  328   7.795  37.930   7.875
    1AU     LIG  329   7.807  38.114   8.040
    1AU       S  330   7.509  35.037   8.062
    1AU     LIG  331   7.628  34.831   8.213
    1AU     LIG  332   7.616  34.624   8.334
    1AU     LIG  333   7.597  34.387   8.434
    1AU       S  334   7.992  35.270   7.902
    1AU     LIG  335   8.096  34.966   7.827
    1AU     LIG  336   8.256  34.832   7.925
    1AU     LIG  337   8.468  34.732   8.057
    1AU       S  338   7.257  34.951   7.896
    1AU     LIG  339   7.208  34.684   7.918
    1AU     LIG  340   7.230  34.466   8.033
    1AU     LIG  341   7.220  34.228   8.129
    1AU       S  342   6.851  35.577   8.386
    1AU     LIG  343   6.724  35.359   8.570
    1AU     LIG  344   6.587  35.185   8.640
    1AU     LIG  345   6.450  34.991   8.762
    1AU       S  346   7.575  35.047   7.221
    1AU     LIG  347   7.514  34.719   7.210
    1AU     LIG  348   7.499  34.523   7.090
    1AU     LIG  349   7.499  34.256   7.027
    1AU       S  350   7.589  35.000   7.758
    1AU     LIG  351   7.689  34.698   7.712
    1AU     LIG  352   7.702  34.501   7.838
    1AU     LIG  353   7.696  34.255   7.941
    1AU       S  354   7.428  37.294   6.835
    1AU     LIG  355   7.434  37.523   6.681
    1AU     LIG  356   7.557  37.739   6.641
    1AU     LIG  357   7.623  37.973   6.564
    1AU       S  358   8.267  37.070   6.958
    1AU     LIG  359   8.465  37.274   6.901
    1AU     LIG  360   8.624  37.348   6.721
    1AU     LIG  361   8.772  37.470   6.558
    1AU       S  362   7.225  37.315   7.112
    1AU     LIG  363   7.113  37.593   7.085
    1AU     LIG  364   7.170  37.819   6.998
    1AU     LIG  365   7.244  38.044   6.907
    1AU       S  366   6.787  36.725   6.654
    1AU     LIG  367   6.727  36.860   6.415
    1AU     LIG  368   6.737  37.090   6.319
    1AU     LIG  369   6.710  37.329   6.239
    1AU       S  370   6.732  35.393   7.029
    1AU     LIG  371   6.475  35.220   6.950
    1AU     LIG  372   6.388  35.078   6.784
    1AU     LIG  373   6.302  34.905   6.606
    1AU       S  374   7.645  35.086   6.941
    1AU     LIG  375   7.762  34.907   6.769
    1AU     LIG  376   7.735  34.697   6.646
    1AU     LIG  377   7.659  34.459   6.582
    1AU       S  378   7.838  35.087   7.324
    1AU     LIG  379   8.002  34.846   7.293
    1AU     LIG  380   8.009  34.640   7.128
    1AU     LIG  381   7.994  34.423   6.984
    1AU       S  382   8.099  35.596   6.673
    1AU     LIG  383   8.085  35.418   6.470
    1AU     LIG  384   8.075  35.190   6.376
    1AU     LIG  385   8.126  34.987   6.221
    2AU     AUC  386   9.443   7.334   7.535
    2AU     AUC  387   9.695   7.339   7.369
    2AU     AUC  388   9.684   7.326   7.699
    2AU     AUC  389   9.173   7.342   7.380
    2AU     AUC  390   9.199   7.371   7.705
    2AU     AUC  391   9.282   7.587   7.513
    2AU     AUC  392   9.629   7.599   7.516
    2AU     AUC  393   9.264   7.080   7.543
    2AU     AUC  394   9.595   7.058   7.545
    2AU     AUC  395   9.437   7.174   7.798
    2AU     AUC  396   9.456   7.514   7.779
    2AU     AUC  397   9.430   7.161   7.287
    2AU     AUC  398   9.450   7.467   7.271
    2AU     AUC  399   9.998   7.330   7.204
    2AU     AUC  400  10.006   7.310   7.545
    2AU     AUC  401   9.964   7.297   7.899
    2AU     AUC  402   8.871   7.316   7.228
    2AU     AUC  403   8.870   7.375   7.556
    2AU     AUC  404   8.899   7.414   7.888
    2AU     AUC  405   9.117   7.900   7.474
    2AU     AUC  406   9.477   7.874   7.457
    2AU     AUC  407   9.843   7.862   7.487
    2AU     AUC  408   9.060   6.791   7.548
    2AU     AUC  409   9.411   6.767   7.529
    2AU     AUC  410   9.767   6.756   7.546
    2AU     AUC  411   9.396   7.008   8.101
    2AU     AUC  412   9.433   7.350   8.101
    2AU     AUC  413   9.490   7.714   8.062
    2AU     AUC  414   9.461   6.971   6.997
    2AU     AUC  415   9.409   7.312   6.973
    2AU     AUC  416   9.406   7.635   6.957
    2AU     AUC  417   9.678   7.112   8.012
    2AU     AUC  418   9.734   7.488   7.987
    2AU     AUC  419   9.733   7.174   7.072
    2AU     AUC  420   9.698   7.486   7.079
    2AU     AUC  421   9.144   7.232   8.000
    2AU     AUC  422   9.191   7.582   7.971
    2AU     AUC  423   9.155   7.131   7.103
    2AU     AUC  424   9.109   7.459   7.083
    2AU     AUC  425   9.936   7.602   7.346
    2AU     AUC  426   9.902   7.599   7.705
    2AU     AUC  427   8.977   7.614   7.383
    2AU     AUC  428   9.022   7.680   7.713
    2AU     AUC  429   9.899   7.051   7.407
    2AU     AUC  430   9.847   7.005   7.739
    2AU     AUC  431   8.978   7.028   7.373
    2AU     AUC  432   9.004   7.102   7.716
    2AU     AUC  433   9.342   7.832   7.782
    2AU     AUC  434   9.681   7.787   7.793
    2AU     AUC  435   9.229   6.899   7.817
    2AU     AUC  436   9.547   6.846   7.809
    2AU     AUC  437   9.252   7.765   7.215
    2AU     AUC  438   9.617   7.781   7.226
    2AU     AUC  439   9.283   6.867   7.258
    2AU     AUC  440   9.643   6.912   7.274
    2AU    AUSL  441   9.942   7.202   8.316
    2AU    AUSL  442   9.692   6.829   8.222
    2AU     AUL  443   9.999   6.830   8.389
    2AU    AUSL  444   9.527   7.144   8.460
    2AU    AUSL  445   9.289   7.553   8.451
    2AU     AUL  446   9.525   7.428   8.710
    2AU    AUSL  447   9.626   7.501   8.204
    2AU    AUSL  448  10.077   7.560   8.126
    2AU     AUL  449   9.895   7.525   8.435
    2AU    AUSL  450   9.850   7.362   6.840
    2AU    AUSL  451   9.711   7.758   6.981
    2AU     AUL  452   9.925   7.690   6.681
    2AU    AUSL  453   9.662   7.040   6.612
    2AU    AUSL  454  10.169   7.110   6.982
    2AU     AUL  455  10.037   7.184   6.665
    2AU    AUSL  456   9.494   7.544   6.670
    2AU    AUSL  457   9.316   7.158   6.829
    2AU     AUL  458   9.447   7.237   6.524
    2AU    AUSL  459   8.905   7.515   8.243
    2AU    AUSL  460   9.268   7.824   8.111
    2AU     AUL  461   9.105   7.792   8.412
    2AU    AUSL  462   9.206   7.202   8.191
    2AU    AUSL  463   8.757   7.125   8.105
    2AU     AUL  464   8.814   7.214   8.341
    2AU    AUSL  465   8.880   7.140   6.795
    2AU    AUSL  466   9.129   6.790   6.947
    2AU     AUL  467   9.153   6.876   6.641
    2AU    AUSL  468   9.066   7.508   6.675
    2AU    AUSL  469   8.786   7.489   7.050
    2AU     AUL  470   8.669   7.370   6.776
    2AU    AUSL  471  10.234   7.797   7.476
    2AU    AUSL  472  10.109   7.587   7.096
    2AU     AUL  473  10.404   7.792   7.128
    2AU    AUSL  474  10.399   7.401   7.367
    2AU    AUSL  475  10.348   7.103   7.768
    2AU     AUL  476  10.610   7.187   7.571
    2AU    AUSL  477  10.121   7.456   7.718
    2AU    AUSL  478  10.079   7.900   7.853
    2AU     AUL  479  10.327   7.640   7.878
    2AU    AUSL  480   8.868   7.977   7.522
    2AU    AUSL  481   8.905   7.729   7.878
    2AU     AUL  482   8.596   7.974   7.745
    2AU    AUSL  483   8.667   7.598   7.444
    2AU    AUSL  484   8.820   7.914   7.106
    2AU     AUL  485   8.584   7.839   7.263
    2AU    AUSL  486   8.540   7.520   7.888
    2AU    AUSL  487   8.507   7.214   7.349
    2AU     AUL  488   8.385   7.531   7.590
    2AU    AUSL  489  10.126   6.754   7.615
    2AU    AUSL  490   9.952   7.037   7.925
    2AU     AUL  491  10.259   6.943   8.001
    2AU    AUSL  492  10.084   7.124   7.397
    2AU    AUSL  493  10.074   6.722   7.188
    2AU     AUL  494  10.318   6.932   7.250
    2AU    AUSL  495   8.660   6.835   7.553
    2AU    AUSL  496   8.871   7.045   7.205
    2AU     AUL  497   8.521   6.938   7.213
    2AU    AUSL  498   8.777   7.236   7.694
    2AU    AUSL  499   8.967   6.852   7.849
    2AU     AUL  500   8.586   7.005   7.848
    2AU    AUSL  501   9.509   8.160   7.966
    2AU    AUSL  502   9.054   8.139   7.878
    2AU     AUL  503   9.276   8.184   8.194
    2AU    AUSL  504   9.341   8.015   7.591
    2AU    AUSL  505   9.592   8.148   7.247
    2AU     AUL  506   9.361   8.355   7.554
    2AU    AUSL  507   9.779   8.091   7.623
    2AU    AUSL  508   9.773   7.890   8.153
    2AU     AUL  509   9.892   8.180   7.941
    2AU    AUSL  510   9.367   6.694   7.970
    2AU    AUSL  511   9.791   6.635   7.849
    2AU     AUL  512   9.552   6.573   8.223
    2AU    AUSL  513   9.059   6.472   7.699
    2AU    AUSL  514   9.087   6.809   8.274
    2AU     AUL  515   9.095   6.511   8.050
    2AU    AUSL  516   9.491   6.397   7.667
    2AU    AUSL  517   9.284   6.642   7.362
    2AU     AUL  518   9.167   6.297   7.487
    2AU    AUSL  519   9.419   8.033   6.843
    2AU    AUSL  520   9.991   8.011   7.199
    2AU     AUL  521   9.735   8.121   6.936
    2AU    AUSL  522   9.170   8.127   7.210
    2AU    AUSL  523   9.193   7.716   7.014
    2AU     AUL  524   9.100   8.022   6.856
    2AU    AUSL  525   9.509   6.590   6.981
    2AU    AUSL  526   8.876   6.604   7.258
    2AU     AUL  527   9.172   6.456   7.043
    2AU    AUSL  528   9.716   6.614   7.381
    2AU    AUSL  529   9.739   6.947   7.018
    2AU     AUL  530   9.833   6.574   7.050
    2AU       S  531   9.964   6.379   8.227
    2AU     LIG  532  10.011   6.145   8.352
    2AU     LIG  533  10.133   5.985   8.479
    2AU     LIG  534  10.291   5.808   8.590
    2AU       S  535   9.998   7.169   8.719
    2AU     LIG  536  10.161   7.227   8.921
    2AU     LIG  537  10.251   7.283   9.146
    2AU     LIG  538  10.357   7.250   9.383
    2AU       S  539   9.676   6.976   8.725
    2AU     LIG  540   9.732   6.882   9.005
    2AU     LIG  541   9.898   6.898   9.203
    2AU     LIG  542  10.032   6.853   9.419
    2AU       S  543   9.051   7.466   8.757
    2AU     LIG  544   9.014   7.490   9.059
    2AU     LIG  545   8.896   7.475   9.261
    2AU     LIG  546   8.748   7.452   9.479
    2AU       S  547   9.576   7.900   8.566
    2AU     LIG  548   9.693   8.037   8.771
    2AU     LIG  549   9.906   7.957   8.933
    2AU     LIG  550  10.129   7.831   8.947
    2AU       S  551  10.268   7.792   8.334
    2AU     LIG  552  10.451   7.832   8.555
    2AU     LIG  553  10.591   7.989   8.669
    2AU     LIG  554  10.767   8.165   8.744
    2AU       S  555   9.869   7.421   6.306
    2AU     LIG  556  10.084   7.476   6.093
    2AU     LIG  557  10.218   7.310   5.955
    2AU     LIG  558  10.278   7.119   5.795
    2AU       S  559  10.084   8.121   6.652
    2AU     LIG  560  10.130   8.314   6.462
    2AU     LIG  561  10.293   8.404   6.288
    2AU     LIG  562  10.458   8.495   6.123
    2AU       S  563  10.344   6.832   6.768
    2AU     LIG  564  10.506   6.745   6.527
    2AU     LIG  565  10.520   6.526   6.388
    2AU     LIG  566  10.536   6.271   6.348
    2AU       S  567   9.790   7.126   6.240
    2AU     LIG  568   9.812   7.002   6.011
    2AU     LIG  569   9.799   6.929   5.771
    2AU     LIG  570   9.870   6.909   5.521
    2AU       S  571   9.056   7.186   6.303
    2AU     LIG  572   9.111   7.153   6.024
    2AU     LIG  573   9.117   7.099   5.795
    2AU     LIG  574   9.041   7.058   5.540
    2AU       S  575   9.626   7.567   6.264
    2AU     LIG  576   9.527   7.501   5.973
    2AU     LIG  577   9.669   7.426   5.780
    2AU     LIG  578   9.862   7.418   5.607
    2AU       S  579   8.775   7.554   8.643
    2AU     LIG  580   8.564   7.529   8.819
    2AU     LIG  581   8.510   7.313   8.977
    2AU     LIG  582   8.440   7.181   9.166
    2AU       S  583   8.806   8.112   8.268
    2AU     LIG  584   8.720   8.267   8.501
    2AU     LIG  585   8.579   8.278   8.694
    2AU     LIG  586   8.410   8.367   8.877
    2AU       S  587   8.529   6.846   8.284
    2AU     LIG  588   8.283   6.777   8.381
    2AU     LIG  589   8.138   6.585   8.457
    2AU     LIG  590   8.011   6.403   8.575
    2AU       S  591   9.100   7.174   8.684
    2AU     LIG  592   9.023   6.998   8.887
    2AU     LIG  593   8.910   6.978   9.105
    2AU     LIG  594   8.865   6.964   9.361
    2AU       S  595   8.794   7.098   6.418
    2AU     LIG  596   8.615   7.028   6.208
    2AU     LIG  597   8.604   7.099   5.957
    2AU     LIG  598   8.592   7.209   5.737
    2AU       S  599   8.828   6.550   6.745
    2AU     LIG  600   8.754   6.363   6.540
    2AU     LIG  601   8.596   6.321   6.354
    2AU     LIG  602   8.412   6.272   6.184
    2AU       S  603   8.458   7.776   6.798
    2AU     LIG  604   8.251   7.945   6.744
    2AU     LIG  605   8.199   8.144   6.588
    2AU     LIG  606   8.175   8.267   6.367
    2AU       S  607   8.956   7.454   6.393
    2AU     LIG  608   8.789   7.555   6.139
    2AU     LIG  609   8.872   7.592   5.913
    2AU     LIG  610   8.980   7.572   5.679
    2AU       S  611  10.315   7.935   6.708
    2AU     LIG  612  10.530   7.981   6.537
    2AU     LIG  613  10.687   8.093   6.389
    2AU     LIG  614  10.868   8.212   6.245
    2AU       S  615  10.567   7.911   7.556
    2AU     LIG  616  10.780   8.115   7.540
    2AU     LIG  617  11.024   8.159   7.511
    2AU     LIG  618  11.277   8.222   7.532
    2AU       S  619  10.743   7.612   7.388
    2AU     LIG  620  11.012   7.683   7.293
    2AU     LIG  621  11.252   7.749   7.306
    2AU     LIG  622  11.474   7.863   7.226
    2AU       S  623  10.607   6.733   7.790
    2AU     LIG  624  10.842   6.631   7.920
    2AU     LIG  625  11.095   6.626   7.859
    2AU     LIG  626  11.344   6.594   7.780
    2AU       S  627  10.304   8.040   8.127
    2AU     LIG  628  10.499   8.217   8.210
    2AU     LIG  629  10.544   8.416   8.357
    2AU     LIG  630  10.563   8.595   8.540
    2AU       S  631  10.714   7.644   7.663
    2AU     LIG  632  10.952   7.715   7.814
    2AU     LIG  633  11.189   7.782   7.811
    2AU     LIG  634  11.419   7.872   7.878
    2AU       S  635   8.640   7.889   8.203
    2AU     LIG  636   8.401   7.881   8.380
    2AU     LIG  637   8.215   8.020   8.444
    2AU     LIG  638   8.039   8.139   8.594
    2AU       S  639   8.807   8.313   7.463
    2AU     LIG  640   8.647   8.521   7.335
    2AU     LIG  641   8.401   8.501   7.239
    2AU     LIG  642   8.213   8.344   7.123
    2AU       S  643   8.243   7.532   7.139
    2AU     LIG  644   8.005   7.537   7.071
    2AU     LIG  645   7.750   7.613   7.141
    2AU     LIG  646   7.605   7.826   7.163
    2AU       S  647   8.673   8.186   6.929
    2AU     LIG  648   8.600   8.394   6.787
    2AU     LIG  649   8.458   8.573   6.702
    2AU     LIG  650   8.327   8.728   6.537
    2AU       S  651   8.154   7.128   7.449
    2AU     LIG  652   7.877   7.118   7.337
    2AU     LIG  653   7.634   7.100   7.332
    2AU     LIG  654   7.400   6.979   7.284
    2AU       S  655   8.345   7.447   8.097
    2AU     LIG  656   8.032   7.551   8.182
    2AU     LIG  657   7.915   7.763   8.094
    2AU     LIG  658   7.735   7.910   7.968
    2AU       S  659  10.337   6.563   7.606
    2AU     LIG  660  10.471   6.261   7.622
    2AU     LIG  661  10.699   6.195   7.697
    2AU     LIG  662  10.970   6.181   7.655
    2AU       S  663  10.181   6.502   8.066
    2AU     LIG  664  10.428   6.366   8.105
    2AU     LIG  665  10.558   6.278   8.287
    2AU     LIG  666  10.605   6.208   8.537
    2AU       S  667  10.594   6.713   7.519
    2AU     LIG  668  10.817   6.591   7.383
    2AU     LIG  669  11.058   6.592   7.343
    2AU     LIG  670  11.299   6.520   7.280
    2AU       S  671  10.286   6.570   6.925
    2AU     LIG  672  10.351   6.310   6.822
    2AU     LIG  673  10.224   6.087   6.774
    2AU     LIG  674  10.183   5.868   6.659
    2AU       S  675   8.651   6.745   6.817
    2AU     LIG  676   8.418   6.755   6.620
    2AU     LIG  677   8.241   6.638   6.527
    2AU     LIG  678   8.035   6.480   6.465
    2AU       S  679   8.236   6.837   7.583
    2AU     LIG  680   8.019   6.671   7.588
    2AU     LIG  681   7.792   6.623   7.482
    2AU     LIG  682   7.559   6.519   7.441
    2AU       S  683   8.648   6.616   8.082
    2AU     LIG  684   8.472   6.408   8.068
    2AU     LIG  685   8.352   6.222   8.174
    2AU     LIG  686   8.219   6.036   8.287
    2AU       S  687   8.178   7.132   7.713
    2AU     LIG  688   7.944   7.104   7.888
    2AU     LIG  689   7.705   7.012   7.835
    2AU     LIG  690   7.496   6.877   7.809
    2AU       S  691   8.847   8.331   7.989
    2AU     LIG  692   8.612   8.520   8.062
    2AU     LIG  693   8.387   8.483   8.206
    2AU     LIG  694   8.255   8.560   8.412
    2AU       S  695   9.590   8.517   8.053
    2AU     LIG  696   9.701   8.704   8.255
    2AU     LIG  697   9.589   8.894   8.380
    2AU     LIG  698   9.444   9.095   8.444
    2AU       S  699   9.352   8.652   7.925
    2AU     LIG  700   9.263   8.877   7.968
    2AU     LIG  701   9.237   9.136   7.984
    2AU     LIG  702   9.246   9.387   8.012
    2AU       S  703   9.517   8.495   7.131
    2AU     LIG  704   9.583   8.764   7.146
    2AU     LIG  705   9.617   8.996   7.130
    2AU     LIG  706   9.680   9.239   7.042
    2AU       S  707  10.027   8.007   8.364
    2AU     LIG  708  10.102   8.226   8.543
    2AU     LIG  709  10.203   8.307   8.736
    2AU     LIG  710  10.329   8.325   8.967
    2AU       S  711   9.729   8.568   7.734
    2AU     LIG  712   9.761   8.841   7.718
    2AU     LIG  713   9.736   9.051   7.875
    2AU     LIG  714   9.748   9.235   8.040
    2AU       S  715   9.450   6.158   8.062
    2AU     LIG  716   9.569   5.952   8.213
    2AU     LIG  717   9.557   5.745   8.334
    2AU     LIG  718   9.538   5.508   8.434
    2AU       S  719   9.933   6.391   7.902
    2AU     LIG  720  10.037   6.087   7.827
    2AU     LIG  721  10.197   5.953   7.925
    2AU     LIG  722  10.409   5.853   8.057
    2AU       S  723   9.198   6.072   7.896
    2AU     LIG  724   9.149   5.805   7.918
    2AU     LIG  725   9.171   5.587   8.033
    2AU     LIG  726   9.161   5.349   8.129
    2AU       S  727   8.792   6.698   8.386
    2AU     LIG  728   8.665   6.480   8.570
    2AU     LIG  729   8.528   6.306   8.640
    2AU     LIG  730   8.391   6.112   8.762
    2AU       S  731   9.516   6.168   7.221
    2AU     LIG  732   9.455   5.840   7.210
    2AU     LIG  733   9.440   5.644   7.090
    2AU     LIG  734   9.440   5.377   7.027
    2AU       S  735   9.530   6.121   7.758
    2AU     LIG  736   9.630   5.819   7.712
    2AU     LIG  737   9.643   5.622   7.838
    2AU     LIG  738   9.637   5.376   7.941
    2AU       S  739   9.369   8.415   6.835
    2AU     LIG  740   9.375   8.644   6.681
    2AU     LIG  741   9.498   8.860   6.641
    2AU     LIG  742   9.564   9.094   6.564
    2AU       S  743  10.208   8.191   6.958
    2AU     LIG  744  10.406   8.395   6.901
    2AU     LIG  745  10.565   8.469   6.721
    2AU     LIG  746  10.713   8.591   6.558
    2AU       S  747   9.166   8.436   7.112
    2AU     LIG  748   9.054   8.714   7.085
    2AU     LIG  749   9.111   8.940   6.998
    2AU     LIG  750   9.185   9.165   6.907
    2AU       S  751   8.728   7.846   6.654
    2AU     LIG  752   8.668   7.981   6.415
    2AU     LIG  753   8.678   8.211   6.319
    2AU     LIG  754   8.651   8.450   6.239
    2AU       S  755   8.673   6.514   7.029
    2AU     LIG  756   8.416   6.341   6.950
    2AU     LIG  757   8.329   6.199   6.784
    2AU     LIG  758   8.243   6.026   6.606
    2AU       S  759   9.586   6.207   6.941
    2AU     LIG  760   9.703   6.028   6.769
    2AU     LIG  761   9.676   5.818   6.646
    2AU     LIG  762   9.600   5.580   6.582
    2AU       S  763   9.779   6.208   7.324
    2AU     LIG  764   9.943   5.967   7.293
    2AU     LIG  765   9.950   5.761   7.128
    2AU     LIG  766   9.935   5.544   6.984
    2AU       S  767  10.040   6.717   6.673
    2AU     LIG  768  10.026   6.539   6.470
    2AU     LIG  769  10.016   6.311   6.376
    2AU     LIG  770  10.067   6.108   6.221
    3AU     AUC  771  22.904   9.675   7.535
    3AU     AUC  772  23.156   9.680   7.369
    3AU     AUC  773  23.145   9.667   7.699
    3AU     AUC  774  22.634   9.683   7.380
    3AU     AUC  775  22.660   9.712   7.705
    3AU     AUC  776  22.743   9.928   7.513
    3AU     AUC  777  23.090   9.940   7.516
    3AU     AUC  778  22.725   9.421   7.543
    3AU     AUC  779  23.056   9.399   7.545
    3AU     AUC  780  22.898   9.515   7.798
    3AU     AUC  781  22.917   9.855   7.779
    3AU     AUC  782  22.891   9.502   7.287
    3AU     AUC  783  22.911   9.808   7.271
    3AU     AUC  784  23.459   9.671   7.204
    3AU     AUC  785  23.467   9.651   7.545
    3AU     AUC  786  23.425   9.638   7.899
    3AU     AUC  787  22.332   9.657   7.228
    3AU     AUC  788  22.331   9.716   7.556
    3AU     AUC  789  22.360   9.755   7.888
    3AU     AUC  790  22.578  10.241   7.474
    3AU     AUC  791  22.938  10.215   7.457
    3AU     AUC  792  23.304  10.203   7.487
    3AU     AUC  793  22.521   9.132   7.548
    3AU     AUC  794  22.872   9.108   7.529
    3AU     AUC  795  23.228   9.097   7.546
    3AU     AUC  796  22.857   9.349   8.101
    3AU     AUC  797  22.894   9.691   8.101
    3AU     AUC  798  22.951  10.055   8.062
    3AU     AUC  799  22.922   9.312   6.997
    3AU     AUC  800  22.870   9.653   6.973
    3AU     AUC  801  22.867   9.976   6.957
    3AU     AUC  802  23.139   9.453   8.012
    3AU     AUC  803  23.195   9.829   7.987
    3AU     AUC  804  23.194   9.515   7.072
    3AU     AUC  805  23.159   9.827   7.079
    3AU     AUC  806  22.605   9.573   8.000
    3AU     AUC  807  22.652   9.923   7.971
    3AU     AUC  808  22.616   9.472   7.103
    3AU     AUC  809  22.570   9.800   7.083
    3AU     AUC  810  23.397   9.943   7.346
    3AU     AUC  811  23.363   9.940   7.705
    3AU     AUC  812  22.438   9.955   7.383
    3AU     AUC  813  22.483  10.021   7.713
    3AU     AUC  814  23.360   9.392   7.407
    3AU     AUC  815  23.308   9.346   7.739
    3AU     AUC  816  22.439   9.369   7.373
    3AU     AUC  817  22.465   9.443   7.716
    3AU     AUC  818  22.803  10.173   7.782
    3AU     AUC  819  23.142  10.128   7.793
    3AU     AUC  820  22.690   9.240   7.817
    3AU     AUC  821  23.008   9.187   7.809
    3AU     AUC  822  22.713  10.106   7.215
    3AU     AUC  823  23.078  10.122   7.226
    3AU     AUC  824  22.744   9.208   7.258
    3AU     AUC  825  23.104   9.253   7.274
    3AU    AUSL  826  23.403   9.543   8.316
    3AU    AUSL  827  23.153   9.170   8.222
    3AU     AUL  828  23.460   9.171   8.389
    3AU    AUSL  829  22.988   9.485   8.460
    3AU    AUSL  830  22.750   9.894   8.451
    3AU     AUL  831  22.986   9.769   8.710
    3AU    AUSL  832  23.087   9.842   8.204
    3AU    AUSL  833  23.538   9.901   8.126
    3AU     AUL  834  23.356   9.866   8.435
    3AU    AUSL  835  23.311   9.703   6.840
    3AU    AUSL  836  23.172  10.099   6.981
    3AU     AUL  837  23.386  10.031   6.681
    3AU    AUSL  838  23.123   9.381   6.612
    3AU    AUSL  839  23.630   9.451   6.982
    3AU     AUL  840  23.498   9.525   6.665
    3AU    AUSL  841  22.955   9.885   6.670
    3AU    AUSL  842  22.777   9.499   6.829
    3AU     AUL  843  22.908   9.578   6.524
    3AU    AUSL  844  22.366   9.856   8.243
    3AU    AUSL  845  22.729  10.165   8.111
    3AU     AUL  846  22.566  10.133   8.412
    3AU    AUSL  847  22.667   9.543   8.191
    3AU    AUSL  848  22.218   9.466   8.105
    3AU     AUL  849  22.275   9.555   8.341
    3AU    AUSL  850  22.341   9.481   6.795
    3AU    AUSL  851  22.590   9.131   6.947
    3AU     AUL  852  22.614   9.217   6.641
    3AU    AUSL  853  22.527   9.849   6.675
    3AU    AUSL  854  22.247   9.830   7.050
    3AU     AUL  855  22.130   9.711   6.776
    3AU    AUSL  856  23.695  10.138   7.476
    3AU    AUSL  857  23.570   9.928   7.096
    3AU     AUL  858  23.865  10.133   7.128
    3AU    AUSL  859  23.860   9.742   7.367
    3AU    AUSL  860  23.809   9.444   7.768
    3AU     AUL  861  24.071   9.528   7.571
    3AU    AUSL  862  23.582   9.797   7.718
    3AU    AUSL  863  23.540  10.241   7.853
    3AU     AUL  864  23.788   9.981   7.878
    3AU    AUSL  865  22.329  10.318   7.522
    3AU    AUSL  866  22.366  10.070   7.878
    3AU     AUL  867  22.057  10.315   7.745
    3AU    AUSL  868  22.128   9.939   7.444
    3AU    AUSL  869  22.281  10.255   7.106
    3AU     AUL  870  22.045  10.180   7.263
    3AU    AUSL  871  22.001   9.861   7.888
    3AU    AUSL  872  21.968   9.555   7.349
    3AU     AUL  873  21.846   9.872   7.590
    3AU    AUSL  874  23.587   9.095   7.615
    3AU    AUSL  875  23.413   9.378   7.925
    3AU     AUL  876  23.720   9.284   8.001
    3AU    AUSL  877  23.545   9.465   7.397
    3AU    AUSL  878  23.535   9.063   7.188
    3AU     AUL  879  23.779   9.273   7.250
    3AU    AUSL  880  22.121   9.176   7.553
    3AU    AUSL  881  22.332   9.386   7.205
    3AU     AUL  882  21.982   9.279   7.213
    3AU    AUSL  883  22.238   9.577   7.694
    3AU    AUSL  884  22.428   9.193   7.849
    3AU     AUL  885  22.047   9.346   7.848
    3AU    AUSL  886  22.970  10.501   7.966
    3AU    AUSL  887  22.515  10.480   7.878
    3AU     AUL  888  22.737  10.525   8.194
    3AU    AUSL  889  22.802  10.356   7.591
    3AU    AUSL  890  23.053  10.489   7.247
    3AU     AUL  891  22.822  10.696   7.554
    3AU    AUSL  892  23.240  10.432   7.623
    3AU    AUSL  893  23.234  10.231   8.153
    3AU     AUL  894  23.353  10.521   7.941
    3AU    AUSL  895  22.828   9.035   7.970
    3AU    AUSL  896  23.252   8.976   7.849
    3AU     AUL  897  23.013   8.914   8.223
    3AU    AUSL  898  22.520   8.813   7.699
    3AU    AUSL  899  22.548   9.150   8.274
    3AU     AUL  900  22.556   8.852   8.050
    3AU    AUSL  901  22.952   8.738   7.667
    3AU    AUSL  902  22.745   8.983   7.362
    3AU     AUL  903  22.628   8.638   7.487
    3AU    AUSL  904  22.880  10.374   6.843
    3AU    AUSL  905  23.452  10.352   7.199
    3AU     AUL  906  23.196  10.462   6.936
    3AU    AUSL  907  22.631  10.468   7.210
    3AU    AUSL  908  22.654  10.057   7.014
    3AU     AUL  909  22.561  10.363   6.856
    3AU    AUSL  910  22.970   8.931   6.981
    3AU    AUSL  911  22.337   8.945   7.258
    3AU     AUL  912  22.633   8.797   7.043
    3AU    AUSL  913  23.177   8.955   7.381
    3AU    AUSL  914  23.200   9.288   7.018
    3AU     AUL  915  23.294   8.915   7.050
    3AU       S  916  23.425   8.720   8.227
    3AU     LIG  917  23.472   8.486   8.352
    3AU     LIG  918  23.594   8.326   8.479
    3AU     LIG  919  23.752   8.149   8.590
    3AU       S  920  23.459   9.510   8.719
    3AU     LIG  921  23.622   9.568   8.921
    3AU     LIG  922  23.712   9.624   9.146
    3AU     LIG  923  23.818   9.591   9.383
    3AU       S  924  23.137   9.317   8.725
    3AU     LIG  925  23.193   9.223   9.005
    3AU     LIG  926  23.359   9.239   9.203
    3AU     LIG  927  23.493   9.194   9.419
    3AU       S  928  22.512   9.807   8.757
    3AU     LIG  929  22.475   9.831   9.059
    3AU     LIG  930  22.357   9.816   9.261
    3AU     LIG  931  22.209   9.793   9.479
    3AU       S  932  23.037  10.241   8.566
    3AU     LIG  933  23.154  10.378   8.771
    3AU     LIG  934  23.367  10.298   8.933
    3AU     LIG  935  23.590  10.172   8.947
    3AU       S  936  23.729  10.133   8.334
    3AU     LIG  937  23.912  10.173   8.555
    3AU     LIG  938  24.052  10.330   8.669
    3AU     LIG  939  24.228  10.506   8.744
    3AU       S  940  23.330   9.762   6.306
    3AU     LIG  941  23.545   9.817   6.093
    3AU     LIG  942  23.679   9.651   5.955
    3AU     LIG  943  23.739   9.460   5.795
    3AU       S  944  23.545  10.462   6.652
    3AU     LIG  945  23.591  10.655   6.462
    3AU     LIG  946  23.754  10.745   6.288
    3AU     LIG  947  23.919  10.836   6.123
    3AU       S  948  23.805   9.173   6.768
    3AU     LIG  949  23.967   9.086   6.527
    3AU     LIG  950  23.981   8.867   6.388
    3AU     LIG  951  23.997   8.612   6.348
    3AU       S  952  23.251   9.467   6.240
    3AU     LIG  953  23.273   9.343   6.011
    3AU     LIG  954  23.260   9.270   5.771
    3AU     LIG  955  23.331   9.250   5.521
    3AU       S  956  22.517   9.527   6.303
    3AU     LIG  957  22.572   9.494   6.024
    3AU     LIG  958  22.578   9.440   5.795
    3AU     LIG  959  22.502   9.399   5.540
    3AU       S  960  23.087   9.908   6.264
    3AU     LIG  961  22.988   9.842   5.973
    3AU     LIG  962  23.130   9.767   5.780
    3AU     LIG  963  23.323   9.759   5.607
    3AU       S  964  22.236   9.895   8.643
    3AU     LIG  965  22.025   9.870   8.819
    3AU     LIG  966  21.971   9.654   8.977
    3AU     LIG  967  21.901   9.522   9.166
    3AU       S  968  22.267  10.453   8.268
    3AU     LIG  969  22.181  10.608   8.501
    3AU     LIG  970  22.040  10.619   8.694
    3AU     LIG  971  21.871  10.708   8.877
    3AU       S  972  21.990   9.187   8.284
    3AU     LIG  973  21.744   9.118   8.381
    3AU     LIG  974  21.599   8.926   8.457
    3AU     LIG  975  21.472   8.744   8.575
    3AU       S  976  22.561   9.515   8.684
    3AU     LIG  977  22.484   9.339   8.887
    3AU     LIG  978  22.371   9.319   9.105
    3AU     LIG  979  22.326   9.305   9.361
    3AU       S  980  22.255   9.439   6.418
    3AU     LIG  981  22.076   9.369   6.208
    3AU     LIG  982  22.065   9.440   5.957
    3AU     LIG  983  22.053   9.550   5.737
    3AU       S  984  22.289   8.891   6.745
    3AU     LIG  985  22.215   8.704   6.540
    3AU     LIG  986  22.057   8.662   6.354
    3AU     LIG  987  21.873   8.613   6.184
    3AU       S  988  21.919  10.117   6.798
    3AU     LIG  989  21.712  10.286   6.744
    3AU     LIG  990  21.660  10.485   6.588
    3AU     LIG  991  21.636  10.608   6.367
    3AU       S  992  22.417   9.795   6.393
    3AU     LIG  993  22.250   9.896   6.139
    3AU     LIG  994  22.333   9.933   5.913
    3AU     LIG  995  22.441   9.913   5.679
    3AU       S  996  23.776  10.276   6.708
    3AU     LIG  997  23.991  10.322   6.537
    3AU     LIG  998  24.148  10.434   6.389
    3AU     LIG  999  24.329  10.553   6.245
    3AU       S 1000  24.028  10.252   7.556
    3AU     LIG 1001  24.241  10.456   7.540
    3AU     LIG 1002  24.485  10.500   7.511
    3AU     LIG 1003  24.738  10.563   7.532
    3AU       S 1004  24.204   9.953   7.388
    3AU     LIG 1005  24.473  10.024   7.293
    3AU     LIG 1006  24.713  10.090   7.306
    3AU     LIG 1007  24.935  10.204   7.226
    3AU       S 1008  24.068   9.074   7.790
    3AU     LIG 1009  24.303   8.972   7.920
    3AU     LIG 1010  24.556   8.967   7.859
    3AU     LIG 1011  24.805   8.935   7.780
    3AU       S 1012  23.765  10.381   8.127
    3AU     LIG 1013  23.960  10.558   8.210
    3AU     LIG 1014  24.005  10.757   8.357
    3AU     LIG 1015  24.024  10.936   8.540
    3AU       S 1016  24.175   9.985   7.663
    3AU     LIG 1017  24.413  10.056   7.814
    3AU     LIG 1018  24.650  10.123   7.811
    3AU     LIG 1019  24.880  10.213   7.878
    3AU       S 1020  22.101  10.230   8.203
    3AU     LIG 1021  21.862  10.222   8.380
    3AU     LIG 1022  21.676  10.361   8.444
    3AU     LIG 1023  21.500  10.480   8.594
    3AU       S 1024  22.268  10.654   7.463
    3AU     LIG 1025  22.108  10.862   7.335
    3AU     LIG 1026  21.862  10.842   7.239
    3AU     LIG 1027  21.674  10.685   7.123
    3AU       S 1028  21.704   9.873   7.139
    3AU     LIG 1029  21.466   9.878   7.071
    3AU     LIG 1030  21.211   9.954   7.141
    3AU     LIG 1031  21.066  10.167   7.163
    3AU       S 1032  22.134  10.527   6.929
    3AU     LIG 1033  22.061  10.735   6.787
    3AU     LIG 1034  21.919  10.914   6.702
    3AU     LIG 1035  21.788  11.069   6.537
    3AU       S 1036  21.615   9.469   7.449
    3AU     LIG 1037  21.338   9.459   7.337
    3AU     LIG 1038  21.095   9.441   7.332
    3AU     LIG 1039  20.861   9.320   7.284
    3AU       S 1040  21.806   9.788   8.097
    3AU     LIG 1041  21.493   9.892   8.182
    3AU     LIG 1042  21.376  10.104   8.094
    3AU     LIG 1043  21.196  10.251   7.968
    3AU       S 1044  23.798   8.904   7.606
    3AU     LIG 1045  23.932   8.602   7.622
    3AU     LIG 1046  24.160   8.536   7.697
    3AU     LIG 1047  24.431   8.522   7.655
    3AU       S 1048  23.642   8.843   8.066
    3AU     LIG 1049  23.889   8.707   8.105
    3AU     LIG 1050  24.019   8.619   8.287
    3AU     LIG 1051  24.066   8.549   8.537
    3AU       S 1052  24.055   9.054   7.519
    3AU     LIG 1053  24.278   8.932   7.383
    3AU     LIG 1054  24.519   8.933   7.343
    3AU     LIG 1055  24.760   8.861   7.280
    3AU       S 1056  23.747   8.911   6.925
    3AU     LIG 1057  23.812   8.651   6.822
    3AU     LIG 1058  23.685   8.428   6.774
    3AU     LIG 1059  23.644   8.209   6.659
    3AU       S 1060  22.112   9.086   6.817
    3AU     LIG 1061  21.879   9.096   6.620
    3AU     LIG 1062  21.702   8.979   6.527
    3AU     LIG 1063  21.496   8.821   6.465
    3AU       S 1064  21.697   9.178   7.583
    3AU     LIG 1065  21.480   9.012   7.588
    3AU     LIG 1066  21.253   8.964   7.482
    3AU     LIG 1067  21.020   8.860   7.441
    3AU       S 1068  22.109   8.957   8.082
    3AU     LIG 1069  21.933   8.749   8.068
    3AU     LIG 1070  21.813   8.563   8.174
    3AU     LIG 1071  21.680   8.377   8.287
    3AU       S 1072  21.639   9.473   7.713
    3AU     LIG 1073  21.405   9.445   7.888
    3AU     LIG 1074  21.166   9.353   7.835
    3AU     LIG 1075  20.957   9.218   7.809
    3AU       S 1076  22.308  10.672   7.989
    3AU     LIG 1077  22.073  10.861   8.062
    3AU     LIG 1078  21.848  10.824   8.206
    3AU     LIG 1079  21.716  10.901   8.412
    3AU       S 1080  23.051  10.858   8.053
    3AU     LIG 1081  23.162  11.045   8.255
    3AU     LIG 1082  23.050  11.235   8.380
    3AU     LIG 1083  22.905  11.436   8.444
    3AU       S 1084  22.813  10.993   7.925
    3AU     LIG 1085  22.724  11.218   7.968
    3AU     LIG 1086  22.698  11.477   7.984
    3AU     LIG 1087  22.707  11.728   8.012
    3AU       S 1088  22.978  10.836   7.131
    3AU     LIG 1089  23.044  11.105   7.146
    3AU     LIG 1090  23.078  11.337   7.130
    3AU     LIG 1091  23.141  11.580   7.042
    3AU       S 1092  23.488  10.348   8.364
    3AU     LIG 1093  23.563  10.567   8.543
    3AU     LIG 1094  23.664  10.648   8.736
    3AU     LIG 1095  23.790  10.666   8.967
    3AU       S 1096  23.190  10.909   7.734
    3AU     LIG 1097  23.222  11.182   7.718
    3AU     LIG 1098  23.197  11.392   7.875
    3AU     LIG 1099  23.209  11.576   8.040
    3AU       S 1100  22.911   8.499   8.062
    3AU     LIG 1101  23.030   8.293   8.213
    3AU     LIG 1102  23.018   8.086   8.334
    3AU     LIG 1103  22.999   7.849   8.434
    3AU       S 1104  23.394   8.732   7.902
    3AU     LIG 1105  23.498   8.428   7.827
    3AU     LIG 1106  23.658   8.294   7.925
    3AU     LIG 1107  23.870   8.194   8.057
    3AU       S 1108  22.659   8.413   7.896
    3AU     LIG 1109  22.610   8.146   7.918
    3AU     LIG 1110  22.632   7.928   8.033
    3AU     LIG 1111  22.622   7.690   8.129
    3AU       S 1112  22.253   9.039   8.386
    3AU     LIG 1113  22.126   8.821   8.570
    3AU     LIG 1114  21.989   8.647   8.640
    3AU     LIG 1115  21.852   8.453   8.762
    3AU       S 1116  22.977   8.509   7.221
    3AU     LIG 1117  22.916   8.181   7.210
    3AU     LIG 1118  22.901   7.985   7.090
    3AU     LIG 1119  22.901   7.718   7.027
    3AU       S 1120  22.991   8.462   7.758
    3AU     LIG 1121  23.091   8.160   7.712
    3AU     LIG 1122  23.104   7.963   7.838
    3AU     LIG 1123  23.098   7.717   7.941
    3AU       S 1124  22.830  10.756   6.835
    3AU     LIG 1125  22.836  10.985   6.681
    3AU     LIG 1126  22.959  11.201   6.641
    3AU     LIG 1127  23.025  11.435   6.564
    3AU       S 1128  23.669  10.532   6.958
    3AU     LIG 1129  23.867  10.736   6.901
    3AU     LIG 1130  24.026  10.810   6.721
    3AU     LIG 1131  24.174  10.932   6.558
    3AU       S 1132  22.627  10.777   7.112
    3AU     LIG 1133  22.515  11.055   7.085
    3AU     LIG 1134  22.572  11.281   6.998
    3AU     LIG 1135  22.646  11.506   6.907
    3AU       S 1136  22.189  10.187   6.654
    3AU     LIG 1137  22.129  10.322   6.415
    3AU     LIG 1138  22.139  10.552   6.319
    3AU     LIG 1139  22.112  10.791   6.239
    3AU       S 1140  22.134   8.855   7.029
    3AU     LIG 1141  21.877   8.682   6.950
    3AU     LIG 1142  21.790   8.540   6.784
    3AU     LIG 1143  21.704   8.367   6.606
    3AU       S 1144  23.047   8.548   6.941
    3AU     LIG 1145  23.164   8.369   6.769
    3AU     LIG 1146  23.137   8.159   6.646
    3AU     LIG 1147  23.061   7.921   6.582
    3AU       S 1148  23.240   8.549   7.324
    3AU     LIG 1149  23.404   8.308   7.293
    3AU     LIG 1150  23.411   8.102   7.128
    3AU     LIG 1151  23.396   7.885   6.984
    3AU       S 1152  23.501   9.058   6.673
    3AU     LIG 1153  23.487   8.880   6.470
    3AU     LIG 1154  23.477   8.652   6.376
    3AU     LIG 1155  23.528   8.449   6.221
    4AU     AUC 1156  13.567  23.219   7.535
    4AU     AUC 1157  13.819  23.224   7.369
    4AU     AUC 1158  13.808  23.211   7.699
    4AU     AUC 1159  13.297  23.227   7.380
    4AU     AUC 1160  13.323  23.256   7.705
    4AU     AUC 1161  13.406  23.472   7.513
    4AU     AUC 1162  13.753  23.484   7.516
    4AU     AUC 1163  13.388  22.965   7.543
    4AU     AUC 1164  13.719  22.943   7.545
    4AU     AUC 1165  13.561  23.059   7.798
    4AU     AUC 1166  13.580  23.399   7.779
    4AU     AUC 1167  13.554  23.046   7.287
    4AU     AUC 1168  13.574  23.352   7.271
    4AU     AUC 1169  14.122  23.215   7.204
    4AU     AUC 1170  14.130  23.195   7.545
    4AU     AUC 1171  14.088  23.182   7.899
    4AU     AUC 1172  12.995  23.201   7.228
    4AU     AUC 1173  12.994  23.260   7.556
    4AU     AUC 1174  13.023  23.299   7.888
    4AU     AUC 1175  13.241  23.785   7.474
    4AU     AUC 1176  13.601  23.759   7.457
    4AU     AUC 1177  13.967  23.747   7.487
    4AU     AUC 1178  13.184  22.676   7.548
    4AU     AUC 1179  13.535  22.652   7.529
    4AU     AUC 1180  13.891  22.641   7.546
    4AU     AUC 1181  13.520  22.893   8.101
    4AU     AUC 1182  13.557  23.235   8.101
    4AU     AUC 1183  13.614  23.599   8.062
    4AU     AUC 1184  13.585  22.856   6.997
    4AU     AUC 1185  13.533  23.197   6.973
    4AU     AUC 1186  13.530  23.520   6.957
    4AU     AUC 1187  13.802  22.997   8.012
    4AU     AUC 1188  13.858  23.373   7.987
    4AU     AUC 1189  13.857  23.059   7.072
    4AU     AUC 1190  13.822  23.371   7.079
    4AU     AUC 1191  13.268  23.117   8.000
    4AU     AUC 1192  13.315  23.467   7.971
    4AU     AUC 1193  13.279  23.016   7.103
    4AU     AUC 1194  13.233  23.344   7.083
    4AU     AUC 1195  14.060  23.487   7.346
    4AU     AUC 1196  14.026  23.484   7.705
    4AU     AUC 1197  13.101  23.499   7.383
    4AU     AUC 1198  13.146  23.565   7.713
    4AU     AUC 1199  14.023  22.936   7.407
    4AU     AUC 1200  13.971  22.890   7.739
    4AU     AUC 1201  13.102  22.913   7.373
    4AU     AUC 1202  13.128  22.987   7.716
    4AU     AUC 1203  13.466  23.717   7.782
    4AU     AUC 1204  13.805  23.672   7.793
    4AU     AUC 1205  13.353  22.784   7.817
    4AU     AUC 1206  13.671  22.731   7.809
    4AU     AUC 1207  13.376  23.650   7.215
    4AU     AUC 1208  13.741  23.666   7.226
    4AU     AUC 1209  13.407  22.752   7.258
    4AU     AUC 1210  13.767  22.797   7.274
    4AU    AUSL 1211  14.066  23.087   8.316
    4AU    AUSL 1212  13.816  22.714   8.222
    4AU     AUL 1213  14.123  22.715   8.389
    4AU    AUSL 1214  13.651  23.029   8.460
    4AU    AUSL 1215  13.413  23.438   8.451
    4AU     AUL 1216  13.649  23.313   8.710
    4AU    AUSL 1217  13.750  23.386   8.204
    4AU    AUSL 1218  14.201  23.445   8.126
    4AU     AUL 1219  14.019  23.410   8.435
    4AU    AUSL 1220  13.974  23.247   6.840
    4AU    AUSL 1221  13.835  23.643   6.981
    4AU     AUL 1222  14.049  23.575   6.681
    4AU    AUSL 1223  13.786  22.925   6.612
    4AU    AUSL 1224  14.293  22.995   6.982
    4AU     AUL 1225  14.161  23.069   6.665
    4AU    AUSL 1226  13.618  23.429   6.670
    4AU    AUSL 1227  13.440  23.043   6.829
    4AU     AUL 1228  13.571  23.122   6.524
    4AU    AUSL 1229  13.029  23.400   8.243
    4AU    AUSL 1230  13.392  23.709   8.111
    4AU     AUL 1231  13.229  23.677   8.412
    4AU    AUSL 1232  13.330  23.087   8.191
    4AU    AUSL 1233  12.881  23.010   8.105
    4AU     AUL 1234  12.938  23.099   8.341
    4AU    AUSL 1235  13.004  23.025   6.795
    4AU    AUSL 1236  13.253  22.675   6.947
    4AU     AUL 1237  13.277  22.761   6.641
    4AU    AUSL 1238  13.190  23.393   6.675
    4AU    AUSL 1239  12.910  23.374   7.050
    4AU     AUL 1240  12.793  23.255   6.776
    4AU    AUSL 1241  14.358  23.682   7.476
    4AU    AUSL 1242  14.233  23.472   7.096
    4AU     AUL 1243  14.528  23.677   7.128
    4AU    AUSL 1244  14.523  23.286   7.367
    4AU    AUSL 1245  14.472  22.988   7.768
    4AU     AUL 1246  14.734  23.072   7.571
    4AU    AUSL 1247  14.245  23.341   7.718
    4AU    AUSL 1248  14.203  23.785   7.853
    4AU     AUL 1249  14.451  23.525   7.878
    4AU    AUSL 1250  12.992  23.862   7.522
    4AU    AUSL 1251  13.029  23.614   7.878
    4AU     AUL 1252  12.720  23.859   7.745
    4AU    AUSL 1253  12.791  23.483   7.444
    4AU    AUSL 1254  12.944  23.799   7.106
    4AU     AUL 1255  12.708  23.724   7.263
    4AU    AUSL 1256  12.664  23.405   7.888
    4AU    AUSL 1257  12.631  23.099   7.349
    4AU     AUL 1258  12.509  23.416   7.590
    4AU    AUSL 1259  14.250  22.639   7.615
    4AU    AUSL 1260  14.076  22.922   7.925
    4AU     AUL 1261  14.383  22.828   8.001
    4AU    AUSL 1262  14.208  23.009   7.397
    4AU    AUSL 1263  14.198  22.607   7.188
    4AU     AUL 1264  14.442  22.817   7.250
    4AU    AUSL 1265  12.784  22.720   7.553
    4AU    AUSL 1266  12.995  22.930   7.205
    4AU     AUL 1267  12.645  22.823   7.213
    4AU    AUSL 1268  12.901  23.121   7.694
    4AU    AUSL 1269  13.091  22.737   7.849
    4AU     AUL 1270  12.710  22.890   7.848
    4AU    AUSL 1271  13.633  24.045   7.966
    4AU    AUSL 1272  13.178  24.024   7.878
    4AU     AUL 1273  13.400  24.069   8.194
    4AU    AUSL 1274  13.465  23.900   7.591
    4AU    AUSL 1275  13.716  24.033   7.247
    4AU     AUL 1276  13.485  24.240   7.554
    4AU    AUSL 1277  13.903  23.976   7.623
    4AU    AUSL 1278  13.897  23.775   8.153
    4AU     AUL 1279  14.016  24.065   7.941
    4AU    AUSL 1280  13.491  22.579   7.970
    4AU    AUSL 1281  13.915  22.520   7.849
    4AU     AUL 1282  13.676  22.458   8.223
    4AU    AUSL 1283  13.183  22.357   7.699
    4AU    AUSL 1284  13.211  22.694   8.274
    4AU     AUL 1285  13.219  22.396   8.050
    4AU    AUSL 1286  13.615  22.282   7.667
    4AU    AUSL 1287  13.408  22.527   7.362
    4AU     AUL 1288  13.291  22.182   7.487
    4AU    AUSL 1289  13.543  23.918   6.843
    4AU    AUSL 1290  14.115  23.896   7.199
    4AU     AUL 1291  13.859  24.006   6.936
    4AU    AUSL 1292  13.294  24.012   7.210
    4AU    AUSL 1293  13.317  23.601   7.014
    4AU     AUL 1294  13.224  23.907   6.856
    4AU    AUSL 1295  13.633  22.475   6.981
    4AU    AUSL 1296  13.000  22.489   7.258
    4AU     AUL 1297  13.296  22.341   7.043
    4AU    AUSL 1298  13.840  22.499   7.381
    4AU    AUSL 1299  13.863  22.832   7.018
    4AU     AUL 1300  13.957  22.459   7.050
    4AU       S 1301  14.088  22.264   8.227
    4AU     LIG 1302  14.135  22.030   8.352
    4AU     LIG 1303  14.257  21.870   8.479
    4AU     LIG 1304  14.415  21.693   8.590
    4AU       S 1305  14.122  23.054   8.719
    4AU     LIG 1306  14.285  23.112   8.921
    4AU     LIG 1307  14.375  23.168   9.146
    4AU     LIG 1308  14.481  23.135   9.383
    4AU       S 1309  13.800  22.861   8.725
    4AU     LIG 1310  13.856  22.767   9.005
    4AU     LIG 1311  14.022  22.783   9.203
    4AU     LIG 1312  14.156  22.738   9.419
    4AU       S 1313  13.175  23.351   8.757
    4AU     LIG 1314  13.138  23.375   9.059
    4AU     LIG 1315  13.020  23.360   9.261
    4AU     LIG 1316  12.872  23.337   9.479
    4AU       S 1317  13.700  23.785   8.566
    4AU     LIG 1318  13.817  23.922   8.771
    4AU     LIG 1319  14.030  23.842   8.933
    4AU     LIG 1320  14.253  23.716   8.947
    4AU       S 1321  14.392  23.677   8.334
    4AU     LIG 1322  14.575  23.717   8.555
    4AU     LIG 1323  14.715  23.874   8.669
    4AU     LIG 1324  14.891  24.050   8.744
    4AU       S 1325  13.993  23.306   6.306
    4AU     LIG 1326  14.208  23.361   6.093
    4AU     LIG 1327  14.342  23.195   5.955
    4AU     LIG 1328  14.402  23.004   5.795
    4AU       S 1329  14.208  24.006   6.652
    4AU     LIG 1330  14.254  24.199   6.462
    4AU     LIG 1331  14.417  24.289   6.288
    4AU     LIG 1332  14.582  24.380   6.123
    4AU       S 1333  14.468  22.717   6.768
    4AU     LIG 1334  14.630  22.630   6.527
    4AU     LIG 1335  14.644  22.411   6.388
    4AU     LIG 1336  14.660  22.156   6.348
    4AU       S 1337  13.914  23.011   6.240
    4AU     LIG 1338  13.936  22.887   6.011
    4AU     LIG 1339  13.923  22.814   5.771
    4AU     LIG 1340  13.994  22.794   5.521
    4AU       S 1341  13.180  23.071   6.303
    4AU     LIG 1342  13.235  23.038   6.024
    4AU     LIG 1343  13.241  22.984   5.795
    4AU     LIG 1344  13.165  22.943   5.540
    4AU       S 1345  13.750  23.452   6.264
    4AU     LIG 1346  13.651  23.386   5.973
    4AU     LIG 1347  13.793  23.311   5.780
    4AU     LIG 1348  13.986  23.303   5.607
    4AU       S 1349  12.899  23.439   8.643
    4AU     LIG 1350  12.688  23.414   8.819
    4AU     LIG 1351  12.634  23.198   8.977
    4AU     LIG 1352  12.564  23.066   9.166
    4AU       S 1353  12.930  23.997   8.268
    4AU     LIG 1354  12.844  24.152   8.501
    4AU     LIG 1355  12.703  24.163   8.694
    4AU     LIG 1356  12.534  24.252   8.877
    4AU       S 1357  12.653  22.731   8.284
    4AU     LIG 1358  12.407  22.662   8.381
    4AU     LIG 1359  12.262  22.470   8.457
    4AU     LIG 1360  12.135  22.288   8.575
    4AU       S 1361  13.224  23.059   8.684
    4AU     LIG 1362  13.147  22.883   8.887
    4AU     LIG 1363  13.034  22.863   9.105
    4AU     LIG 1364  12.989  22.849   9.361
    4AU       S 1365  12.918  22.983   6.418
    4AU     LIG 1366  12.739  22.913   6.208
    4AU     LIG 1367  12.728  22.984   5.957
    4AU     LIG 1368  12.716  23.094   5.737
    4AU       S 1369  12.952  22.435   6.745
    4AU     LIG 1370  12.878  22.248   6.540
    4AU     LIG 1371  12.720  22.206   6.354
    4AU     LIG 1372  12.536  22.157   6.184
    4AU       S 1373  12.582  23.661   6.798
    4AU     LIG 1374  12.375  23.830   6.744
    4AU     LIG 1375  12.323  24.029   6.588
    4AU     LIG 1376  12.299  24.152   6.367
    4AU       S 1377  13.080  23.339   6.393
    4AU     LIG 1378  12.913  23.440   6.139
    4AU     LIG 1379  12.996  23.477   5.913
    4AU     LIG 1380  13.104  23.457   5.679
    4AU       S 1381  14.439  23.820   6.708
    4AU     LIG 1382  14.654  23.866   6.537
    4AU     LIG 1383  14.811  23.978   6.389
    4AU     LIG 1384  14.992  24.097   6.245
    4AU       S 1385  14.691  23.796   7.556
    4AU     LIG 1386  14.904  24.000   7.540
    4AU     LIG 1387  15.148  24.044   7.511
    4AU     LIG 1388  15.401  24.107   7.532
    4AU       S 1389  14.867  23.497   7.388
    4AU     LIG 1390  15.136  23.568   7.293
    4AU     LIG 1391  15.376  23.634   7.306
    4AU     LIG 1392  15.598  23.748   7.226
    4AU       S 1393  14.731  22.618   7.790
    4AU     LIG 1394  14.966  22.516   7.920
    4AU     LIG 1395  15.219  22.511   7.859
    4AU     LIG 1396  15.468  22.479   7.780
    4AU       S 1397  14.428  23.925   8.127
    4AU     LIG 1398  14.623  24.102   8.210
    4AU     LIG 1399  14.668  24.301   8.357
    4AU     LIG 1400  14.687  24.480   8.540
    4AU       S 1401  14.838  23.529   7.663
    4AU     LIG 1402  15.076  23.600   7.814
    4AU     LIG 1403  15.313  23.667   7.811
    4AU     LIG 1404  15.543  23.757   7.878
    4AU       S 1405  12.764  23.774   8.203
    4AU     LIG 1406  12.525  23.766   8.380
    4AU     LIG 1407  12.339  23.905   8.444
    4AU     LIG 1408  12.163  24.024   8.594
    4AU       S 1409  12.931  24.198   7.463
    4AU     LIG 1410  12.771  24.406   7.335
    4AU     LIG 1411  12.525  24.386   7.239
    4AU     LIG 1412  12.337  24.229   7.123
    4AU       S 1413  12.367  23.417   7.139
    4AU     LIG 1414  12.129  23.422   7.071
    4AU     LIG 1415  11.874  23.498   7.141
    4AU     LIG 1416  11.729  23.711   7.163
    4AU       S 1417  12.797  24.071   6.929
    4AU     LIG 1418  12.724  24.279   6.787
    4AU     LIG 1419  12.582  24.458   6.702
    4AU     LIG 1420  12.451  24.613   6.537
    4AU       S 1421  12.278  23.013   7.449
    4AU     LIG 1422  12.001  23.003   7.337
    4AU     LIG 1423  11.758  22.985   7.332
    4AU     LIG 1424  11.524  22.864   7.284
    4AU       S 1425  12.469  23.332   8.097
    4AU     LIG 1426  12.156  23.436   8.182
    4AU     LIG 1427  12.039  23.648   8.094
    4AU     LIG 1428  11.859  23.795   7.968
    4AU       S 1429  14.461  22.448   7.606
    4AU     LIG 1430  14.595  22.146   7.622
    4AU     LIG 1431  14.823  22.080   7.697
    4AU     LIG 1432  15.094  22.066   7.655
    4AU       S 1433  14.305  22.387   8.066
    4AU     LIG 1434  14.552  22.251   8.105
    4AU     LIG 1435  14.682  22.163   8.287
    4AU     LIG 1436  14.729  22.093   8.537
    4AU       S 1437  14.718  22.598   7.519
    4AU     LIG 1438  14.941  22.476   7.383
    4AU     LIG 1439  15.182  22.477   7.343
    4AU     LIG 1440  15.423  22.405   7.280
    4AU       S 1441  14.410  22.455   6.925
    4AU     LIG 1442  14.475  22.195   6.822
    4AU     LIG 1443  14.348  21.972   6.774
    4AU     LIG 1444  14.307  21.753   6.659
    4AU       S 1445  12.775  22.630   6.817
    4AU     LIG 1446  12.542  22.640   6.620
    4AU     LIG 1447  12.365  22.523   6.527
    4AU     LIG 1448  12.159  22.365   6.465
    4AU       S 1449  12.360  22.722   7.583
    4AU     LIG 1450  12.143  22.556   7.588
    4AU     LIG 1451  11.916  22.508   7.482
    4AU     LIG 1452  11.683  22.404   7.441
    4AU       S 1453  12.772  22.501   8.082
    4AU     LIG 1454  12.596  22.293   8.068
    4AU     LIG 1455  12.476  22.107   8.174
    4AU     LIG 1456  12.343  21.921   8.287
    4AU       S 1457  12.302  23.017   7.713
    4AU     LIG 1458  12.068  22.989   7.888
    4AU     LIG 1459  11.829  22.897   7.835
    4AU     LIG 1460  11.620  22.762   7.809
    4AU       S 1461  12.971  24.216   7.989
    4AU     LIG 1462  12.736  24.405   8.062
    4AU     LIG 1463  12.511  24.368   8.206
    4AU     LIG 1464  12.379  24.445   8.412
    4AU       S 1465  13.714  24.402   8.053
    4AU     LIG 1466  13.825  24.589   8.255
    4AU     LIG 1467  13.713  24.779   8.380
    4AU     LIG 1468  13.568  24.980   8.444
    4AU       S 1469  13.476  24.537   7.925
    4AU     LIG 1470  13.387  24.762   7.968
    4AU     LIG 1471  13.361  25.021   7.984
    4AU     LIG 1472  13.370  25.272   8.012
    4AU       S 1473  13.641  24.380   7.131
    4AU     LIG 1474  13.707  24.649   7.146
    4AU     LIG 1475  13.741  24.881   7.130
    4AU     LIG 1476  13.804  25.124   7.042
    4AU       S 1477  14.151  23.892   8.364
    4AU     LIG 1478  14.226  24.111   8.543
    4AU     LIG 1479  14.327  24.192   8.736
    4AU     LIG 1480  14.453  24.210   8.967
    4AU       S 1481  13.853  24.453   7.734
    4AU     LIG 1482  13.885  24.726   7.718
    4AU     LIG 1483  13.860  24.936   7.875
    4AU     LIG 1484  13.872  25.120   8.040
    4AU       S 1485  13.574  22.043   8.062
    4AU     LIG 1486  13.693  21.837   8.213
    4AU     LIG 1487  13.681  21.630   8.334
    4AU     LIG 1488  13.662  21.393   8.434
    4AU       S 1489  14.057  22.276   7.902
    4AU     LIG 1490  14.161  21.972   7.827
    4AU     LIG 1491  14.321  21.838   7.925
    4AU     LIG 1492  14.533  21.738   8.057
    4AU       S 1493  13.322  21.957   7.896
    4AU     LIG 1494  13.273  21.690   7.918
    4AU     LIG 1495  13.295  21.472   8.033
    4AU     LIG 1496  13.285  21.234   8.129
    4AU       S 1497  12.916  22.583   8.386
    4AU     LIG 1498  12.789  22.365   8.570
    4AU     LIG 1499  12.652  22.191   8.640
    4AU     LIG 1500  12.515  21.997   8.762
    4AU       S 1501  13.640  22.053   7.221
    4AU     LIG 1502  13.579  21.725   7.210
    4AU     LIG 1503  13.564  21.529   7.090
    4AU     LIG 1504  13.564  21.262   7.027
    4AU       S 1505  13.654  22.006   7.758
    4AU     LIG 1506  13.754  21.704   7.712
    4AU     LIG 1507  13.767  21.507   7.838
    4AU     LIG 1508  13.761  21.261   7.941
    4AU       S 1509  13.493  24.300   6.835
    4AU     LIG 1510  13.499  24.529   6.681
    4AU     LIG 1511  13.622  24.745   6.641
    4AU     LIG 1512  13.688  24.979   6.564
    4AU       S 1513  14.332  24.076   6.958
    4AU     LIG 1514  14.530  24.280   6.901
    4AU     LIG 1515  14.689  24.354   6.721
    4AU     LIG 1516  14.837  24.476   6.558
    4AU       S 1517  13.290  24.321   7.112
    4AU     LIG 1518  13.178  24.599   7.085
    4AU     LIG 1519  13.235  24.825   6.998
    4AU     LIG 1520  13.309  25.050   6.907
    4AU       S 1521  12.852  23.731   6.654
    4AU     LIG 1522  12.792  23.866   6.415
    4AU     LIG 1523  12.802  24.096   6.319
    4AU     LIG 1524  12.775  24.335   6.239
    4AU       S 1525  12.797  22.399   7.029
    4AU     LIG 1526  12.540  22.226   6.950
    4AU     LIG 1527  12.453  22.084   6.784
    4AU     LIG 1528  12.367  21.911   6.606
    4AU       S 1529  13.710  22.092   6.941
    4AU     LIG 1530  13.827  21.913   6.769
    4AU     LIG 1531  13.800  21.703   6.646
    4AU     LIG 1532  13.724  21.465   6.582
    4AU       S 1533  13.903  22.093   7.324
    4AU     LIG 1534  14.067  21.852   7.293
    4AU     LIG 1535  14.074  21.646   7.128
    4AU     LIG 1536  14.059  21.429   6.984
    4AU       S 1537  14.164  22.602   6.673
    4AU     LIG 1538  14.150  22.424   6.470
    4AU     LIG 1539  14.140  22.196   6.376
    4AU     LIG 1540  14.191  21.993   6.221
    5AU     AUC 1541  39.635  43.597   7.535
    5AU     AUC 1542  39.887  43.602   7.369
    5AU     AUC 1543  39.876  43.589   7.699
    5AU     AUC 1544  39.365  43.605   7.380
    5AU     AUC 1545  39.391  43.634   7.705
    5AU     AUC 1546  39.474  43.850   7.513
    5AU     AUC 1547  39.821  43.862   7.516
    5AU     AUC 1548  39.456  43.343   7.543
    5AU     AUC 1549  39.787  43.321   7.545
    5AU     AUC 1550  39.629  43.437   7.798
    5AU     AUC 1551  39.648  43.777   7.779
    5AU     AUC 1552  39.622  43.424   7.287
    5AU     AUC 1553  39.642  43.730   7.271
    5AU     AUC 1554  40.190  43.593   7.204
    5AU     AUC 1555  40.198  43.573   7.545
    5AU     AUC 1556  40.156  43.560   7.899
    5AU     AUC 1557  39.063  43.579   7.228
    5AU     AUC 1558  39.062  43.638   7.556
    5AU     AUC 1559  39.091  43.677   7.888
    5AU     AUC 1560  39.309  44.163   7.474
    5AU     AUC 1561  39.669  44.137   7.457
    5AU     AUC 1562  40.035  44.125   7.487
    5AU     AUC 1563  39.252  43.054   7.548
    5AU     AUC 1564  39.603  43.030   7.529
    5AU     AUC 1565  39.959  43.019   7.546
    5AU     AUC 1566  39.588  43.271   8.101
    5AU     AUC 1567  39.625  43.613   8.101
    5AU     AUC 1568  39.682  43.977   8.062
    5AU     AUC 1569  39.653  43.234   6.997
    5AU     AUC 1570  39.601  43.575   6.973
    5AU     AUC 1571  39.598  43.898   6.957
    5AU     AUC 1572  39.870  43.375   8.012
    5AU     AUC 1573  39.926  43.751   7.987
    5AU     AUC 1574  39.925  43.437   7.072
    5AU     AUC 1575  39.890  43.749   7.079
    5AU     AUC 1576  39.336  43.495   8.000
    5AU     AUC 1577  39.383  43.845   7.971
    5AU     AUC 1578  39.347  43.394   7.103
    5AU     AUC 1579  39.301  43.722   7.083
    5AU     AUC 1580  40.128  43.865   7.346
    5AU     AUC 1581  40.094  43.862   7.705
    5AU     AUC 1582  39.169  43.877   7.383
    5AU     AUC 1583  39.214  43.943   7.713
    5AU     AUC 1584  40.091  43.314   7.407
    5AU     AUC 1585  40.039  43.268   7.739
    5AU     AUC 1586  39.170  43.291   7.373
    5AU     AUC 1587  39.196  43.365   7.716
    5AU     AUC 1588  39.534  44.095   7.782
    5AU     AUC 1589  39.873  44.050   7.793
    5AU     AUC 1590  39.421  43.162   7.817
    5AU     AUC 1591  39.739  43.109   7.809
    5AU     AUC 1592  39.444  44.028   7.215
    5AU     AUC 1593  39.809  44.044   7.226
    5AU     AUC 1594  39.475  43.130   7.258
    5AU     AUC 1595  39.835  43.175   7.274
    5AU    AUSL 1596  40.134  43.465   8.316
    5AU    AUSL 1597  39.884  43.092   8.222
    5AU     AUL 1598  40.191  43.093   8.389
    5AU    AUSL 1599  39.719  43.407   8.460
    5AU    AUSL 1600  39.481  43.816   8.451
    5AU     AUL 1601  39.717  43.691   8.710
    5AU    AUSL 1602  39.818  43.764   8.204
    5AU    AUSL 1603  40.269  43.823   8.126
    5AU     AUL 1604  40.087  43.788   8.435
    5AU    AUSL 1605  40.042  43.625   6.840
    5AU    AUSL 1606  39.903  44.021   6.981
    5AU     AUL 1607  40.117  43.953   6.681
    5AU    AUSL 1608  39.854  43.303   6.612
    5AU    AUSL 1609  40.361  43.373   6.982
    5AU     AUL 1610  40.229  43.447   6.665
    5AU    AUSL 1611  39.686  43.807   6.670
    5AU    AUSL 1612  39.508  43.421   6.829
    5AU     AUL 1613  39.639  43.500   6.524
    5AU    AUSL 1614  39.097  43.778   8.243
    5AU    AUSL 1615  39.460  44.087   8.111
    5AU     AUL 1616  39.297  44.055   8.412
    5AU    AUSL 1617  39.398  43.465   8.191
    5AU    AUSL 1618  38.949  43.388   8.105
    5AU     AUL 1619  39.006  43.477   8.341
    5AU    AUSL 1620  39.072  43.403   6.795
    5AU    AUSL 1621  39.321  43.053   6.947
    5AU     AUL 1622  39.345  43.139   6.641
    5AU    AUSL 1623  39.258  43.771   6.675
    5AU    AUSL 1624  38.978  43.752   7.050
    5AU     AUL 1625  38.861  43.633   6.776
    5AU    AUSL 1626  40.426  44.060   7.476
    5AU    AUSL 1627  40.301  43.850   7.096
    5AU     AUL 1628  40.596  44.055   7.128
    5AU    AUSL 1629  40.591  43.664   7.367
    5AU    AUSL 1630  40.540  43.366   7.768
    5AU     AUL 1631  40.802  43.450   7.571
    5AU    AUSL 1632  40.313  43.719   7.718
    5AU    AUSL 1633  40.271  44.163   7.853
    5AU     AUL 1634  40.519  43.903   7.878
    5AU    AUSL 1635  39.060  44.240   7.522
    5AU    AUSL 1636  39.097  43.992   7.878
    5AU     AUL 1637  38.788  44.237   7.745
    5AU    AUSL 1638  38.859  43.861   7.444
    5AU    AUSL 1639  39.012  44.177   7.106
    5AU     AUL 1640  38.776  44.102   7.263
    5AU    AUSL 1641  38.732  43.783   7.888
    5AU    AUSL 1642  38.699  43.477   7.349
    5AU     AUL 1643  38.577  43.794   7.590
    5AU    AUSL 1644  40.318  43.017   7.615
    5AU    AUSL 1645  40.144  43.300   7.925
    5AU     AUL 1646  40.451  43.206   8.001
    5AU    AUSL 1647  40.276  43.387   7.397
    5AU    AUSL 1648  40.266  42.985   7.188
    5AU     AUL 1649  40.510  43.195   7.250
    5AU    AUSL 1650  38.852  43.098   7.553
    5AU    AUSL 1651  39.063  43.308   7.205
    5AU     AUL 1652  38.713  43.201   7.213
    5AU    AUSL 1653  38.969  43.499   7.694
    5AU    AUSL 1654  39.159  43.115   7.849
    5AU     AUL 1655  38.778  43.268   7.848
    5AU    AUSL 1656  39.701  44.423   7.966
    5AU    AUSL 1657  39.246  44.402   7.878
    5AU     AUL 1658  39.468  44.447   8.194
    5AU    AUSL 1659  39.533  44.278   7.591
    5AU    AUSL 1660  39.784  44.411   7.247
    5AU     AUL 1661  39.553  44.618   7.554
    5AU    AUSL 1662  39.971  44.354   7.623
    5AU    AUSL 1663  39.965  44.153   8.153
    5AU     AUL 1664  40.084  44.443   7.941
    5AU    AUSL 1665  39.559  42.957   7.970
    5AU    AUSL 1666  39.983  42.898   7.849
    5AU     AUL 1667  39.744  42.836   8.223
    5AU    AUSL 1668  39.251  42.735   7.699
    5AU    AUSL 1669  39.279  43.072   8.274
    5AU     AUL 1670  39.287  42.774   8.050
    5AU    AUSL 1671  39.683  42.660   7.667
    5AU    AUSL 1672  39.476  42.905   7.362
    5AU     AUL 1673  39.359  42.560   7.487
    5AU    AUSL 1674  39.611  44.296   6.843
    5AU    AUSL 1675  40.183  44.274   7.199
    5AU     AUL 1676  39.927  44.384   6.936
    5AU    AUSL 1677  39.362  44.390   7.210
    5AU    AUSL 1678  39.385  43.979   7.014
    5AU     AUL 1679  39.292  44.285   6.856
    5AU    AUSL 1680  39.701  42.853   6.981
    5AU    AUSL 1681  39.068  42.867   7.258
    5AU     AUL 1682  39.364  42.719   7.043
    5AU    AUSL 1683  39.908  42.877   7.381
    5AU    AUSL 1684  39.931  43.210   7.018
    5AU     AUL 1685  40.025  42.837   7.050
    5AU       S 1686  40.156  42.642   8.227
    5AU     LIG 1687  40.203  42.408   8.352
    5AU     LIG 1688  40.325  42.248   8.479
    5AU     LIG 1689  40.483  42.071   8.590
    5AU       S 1690  40.190  43.432   8.719
    5AU     LIG 1691  40.353  43.490   8.921
    5AU     LIG 1692  40.443  43.546   9.146
    5AU     LIG 1693  40.549  43.513   9.383
    5AU       S 1694  39.868  43.239   8.725
    5AU     LIG 1695  39.924  43.145   9.005
    5AU     LIG 1696  40.090  43.161   9.203
    5AU     LIG 1697  40.224  43.116   9.419
    5AU       S 1698  39.243  43.729   8.757
    5AU     LIG 1699  39.206  43.753   9.059
    5AU     LIG 1700  39.088  43.738   9.261
    5AU     LIG 1701  38.940  43.715   9.479
    5AU       S 1702  39.768  44.163   8.566
    5AU     LIG 1703  39.885  44.300   8.771
    5AU     LIG 1704  40.098  44.220   8.933
    5AU     LIG 1705  40.321  44.094   8.947
    5AU       S 1706  40.460  44.055   8.334
    5AU     LIG 1707  40.643  44.095   8.555
    5AU     LIG 1708  40.783  44.252   8.669
    5AU     LIG 1709  40.959  44.428   8.744
    5AU       S 1710  40.061  43.684   6.306
    5AU     LIG 1711  40.276  43.739   6.093
    5AU     LIG 1712  40.410  43.573   5.955
    5AU     LIG 1713  40.470  43.382   5.795
    5AU       S 1714  40.276  44.384   6.652
    5AU     LIG 1715  40.322  44.577   6.462
    5AU     LIG 1716  40.485  44.667   6.288
    5AU     LIG 1717  40.650  44.758   6.123
    5AU       S 1718  40.536  43.095   6.768
    5AU     LIG 1719  40.698  43.008   6.527
    5AU     LIG 1720  40.712  42.789   6.388
    5AU     LIG 1721  40.728  42.534   6.348
    5AU       S 1722  39.982  43.389   6.240
    5AU     LIG 1723  40.004  43.265   6.011
    5AU     LIG 1724  39.991  43.192   5.771
    5AU     LIG 1725  40.062  43.172   5.521
    5AU       S 1726  39.248  43.449   6.303
    5AU     LIG 1727  39.303  43.416   6.024
    5AU     LIG 1728  39.309  43.362   5.795
    5AU     LIG 1729  39.233  43.321   5.540
    5AU       S 1730  39.818  43.830   6.264
    5AU     LIG 1731  39.719  43.764   5.973
    5AU     LIG 1732  39.861  43.689   5.780
    5AU     LIG 1733  40.054  43.681   5.607
    5AU       S 1734  38.967  43.817   8.643
    5AU     LIG 1735  38.756  43.792   8.819
    5AU     LIG 1736  38.702  43.576   8.977
    5AU     LIG 1737  38.632  43.444   9.166
    5AU       S 1738  38.998  44.375   8.268
    5AU     LIG 1739  38.912  44.530   8.501
    5AU     LIG 1740  38.771  44.541   8.694
    5AU     LIG 1741  38.602  44.630   8.877
    5AU       S 1742  38.721  43.109   8.284
    5AU     LIG 1743  38.475  43.040   8.381
    5AU     LIG 1744  38.330  42.848   8.457
    5AU     LIG 1745  38.203  42.666   8.575
    5AU       S 1746  39.292  43.437   8.684
    5AU     LIG 1747  39.215  43.261   8.887
    5AU     LIG 1748  39.102  43.241   9.105
    5AU     LIG 1749  39.057  43.227   9.361
    5AU       S 1750  38.986  43.361   6.418
    5AU     LIG 1751  38.807  43.291   6.208
    5AU     LIG 1752  38.796  43.362   5.957
    5AU     LIG 1753  38.784  43.472   5.737
    5AU       S 1754  39.020  42.813   6.745
    5AU     LIG 1755  38.946  42.626   6.540
    5AU     LIG 1756  38.788  42.584   6.354
    5AU     LIG 1757  38.604  42.535   6.184
    5AU       S 1758  38.650  44.039   6.798
    5AU     LIG 1759  38.443  44.208   6.744
    5AU     LIG 1760  38.391  44.407   6.588
    5AU     LIG 1761  38.367  44.530   6.367
    5AU       S 1762  39.148  43.717   6.393
    5AU     LIG 1763  38.981  43.818   6.139
    5AU     LIG 1764  39.064  43.855   5.913
    5AU     LIG 1765  39.172  43.835   5.679
    5AU       S 1766  40.507  44.198   6.708
    5AU     LIG 1767  40.722  44.244   6.537
    5AU     LIG 1768  40.879  44.356   6.389
    5AU     LIG 1769  41.060  44.475   6.245
    5AU       S 1770  40.759  44.174   7.556
    5AU     LIG 1771  40.972  44.378   7.540
    5AU     LIG 1772  41.216  44.422   7.511
    5AU     LIG 1773  41.469  44.485   7.532
    5AU       S 1774  40.935  43.875   7.388
    5AU     LIG 1775  41.204  43.946   7.293
    5AU     LIG 1776  41.444  44.012   7.306
    5AU     LIG 1777  41.666  44.126   7.226
    5AU       S 1778  40.799  42.996   7.790
    5AU     LIG 1779  41.034  42.894   7.920
    5AU     LIG 1780  41.287  42.889   7.859
    5AU     LIG 1781  41.536  42.857   7.780
    5AU       S 1782  40.496  44.303   8.127
    5AU     LIG 1783  40.691  44.480   8.210
    5AU     LIG 1784  40.736  44.679   8.357
    5AU     LIG 1785  40.755  44.858   8.540
    5AU       S 1786  40.906  43.907   7.663
    5AU     LIG 1787  41.144  43.978   7.814
    5AU     LIG 1788  41.381  44.045   7.811
    5AU     LIG 1789  41.611  44.135   7.878
    5AU       S 1790  38.832  44.152   8.203
    5AU     LIG 1791  38.593  44.144   8.380
    5AU     LIG 1792  38.407  44.283   8.444
    5AU     LIG 1793  38.231  44.402   8.594
    5AU       S 1794  38.999  44.576   7.463
    5AU     LIG 1795  38.839  44.784   7.335
    5AU     LIG 1796  38.593  44.764   7.239
    5AU     LIG 1797  38.405  44.607   7.123
    5AU       S 1798  38.435  43.795   7.139
    5AU     LIG 1799  38.197  43.800   7.071
    5AU     LIG 1800  37.942  43.876   7.141
    5AU     LIG 1801  37.797  44.089   7.163
    5AU       S 1802  38.865  44.449   6.929
    5AU     LIG 1803  38.792  44.657   6.787
    5AU     LIG 1804  38.650  44.836   6.702
    5AU     LIG 1805  38.519  44.991   6.537
    5AU       S 1806  38.346  43.391   7.449
    5AU     LIG 1807  38.069  43.381   7.337
    5AU     LIG 1808  37.826  43.363   7.332
    5AU     LIG 1809  37.592  43.242   7.284
    5AU       S 1810  38.537  43.710   8.097
    5AU     LIG 1811  38.224  43.814   8.182
    5AU     LIG 1812  38.107  44.026   8.094
    5AU     LIG 1813  37.927  44.173   7.968
    5AU       S 1814  40.529  42.826   7.606
    5AU     LIG 1815  40.663  42.524   7.622
    5AU     LIG 1816  40.891  42.458   7.697
    5AU     LIG 1817  41.162  42.444   7.655
    5AU       S 1818  40.373  42.765   8.066
    5AU     LIG 1819  40.620  42.629   8.105
    5AU     LIG 1820  40.750  42.541   8.287
    5AU     LIG 1821  40.797  42.471   8.537
    5AU       S 1822  40.786  42.976   7.519
    5AU     LIG 1823  41.009  42.854   7.383
    5AU     LIG 1824  41.250  42.855   7.343
    5AU     LIG 1825  41.491  42.783   7.280
    5AU       S 1826  40.478  42.833   6.925
    5AU     LIG 1827  40.543  42.573   6.822
    5AU     LIG 1828  40.416  42.350   6.774
    5AU     LIG 1829  40.375  42.131   6.659
    5AU       S 1830  38.843  43.008   6.817
    5AU     LIG 1831  38.610  43.018   6.620
    5AU     LIG 1832  38.433  42.901   6.527
    5AU     LIG 1833  38.227  42.743   6.465
    5AU       S 1834  38.428  43.100   7.583
    5AU     LIG 1835  38.211  42.934   7.588
    5AU     LIG 1836  37.984  42.886   7.482
    5AU     LIG 1837  37.751  42.782   7.441
    5AU       S 1838  38.840  42.879   8.082
    5AU     LIG 1839  38.664  42.671   8.068
    5AU     LIG 1840  38.544  42.485   8.174
    5AU     LIG 1841  38.411  42.299   8.287
    5AU       S 1842  38.370  43.395   7.713
    5AU     LIG 1843  38.136  43.367   7.888
    5AU     LIG 1844  37.897  43.275   7.835
    5AU     LIG 1845  37.688  43.140   7.809
    5AU       S 1846  39.039  44.594   7.989
    5AU     LIG 1847  38.804  44.783   8.062
    5AU     LIG 1848  38.579  44.746   8.206
    5AU     LIG 1849  38.447  44.823   8.412
    5AU       S 1850  39.782  44.780   8.053
    5AU     LIG 1851  39.893  44.967   8.255
    5AU     LIG 1852  39.781  45.157   8.380
    5AU     LIG 1853  39.636  45.358   8.444
    5AU       S 1854  39.544  44.915   7.925
    5AU     LIG 1855  39.455  45.140   7.968
    5AU     LIG 1856  39.429  45.399   7.984
    5AU     LIG 1857  39.438  45.650   8.012
    5AU       S 1858  39.709  44.758   7.131
    5AU     LIG 1859  39.775  45.027   7.146
    5AU     LIG 1860  39.809  45.259   7.130
    5AU     LIG 1861  39.872  45.502   7.042
    5AU       S 1862  40.219  44.270   8.364
    5AU     LIG 1863  40.294  44.489   8.543
    5AU     LIG 1864  40.395  44.570   8.736
    5AU     LIG 1865  40.521  44.588   8.967
    5AU       S 1866  39.921  44.831   7.734
    5AU     LIG 1867  39.953  45.104   7.718
    5AU     LIG 1868  39.928  45.314   7.875
    5AU     LIG 1869  39.940  45.498   8.040
    5AU       S 1870  39.642  42.421   8.062
    5AU     LIG 1871  39.761  42.215   8.213
    5AU     LIG 1872  39.749  42.008   8.334
    5AU     LIG 1873  39.730  41.771   8.434
    5AU       S 1874  40.125  42.654   7.902
    5AU     LIG 1875  40.229  42.350   7.827
    5AU     LIG 1876  40.389  42.216   7.925
    5AU     LIG 1877  40.601  42.116   8.057
    5AU       S 1878  39.390  42.335   7.896
    5AU     LIG 1879  39.341  42.068   7.918
    5AU     LIG 1880  39.363  41.850   8.033
    5AU     LIG 1881  39.353  41.612   8.129
    5AU       S 1882  38.984  42.961   8.386
    5AU     LIG 1883  38.857  42.743   8.570
    5AU     LIG 1884  38.720  42.569   8.640
    5AU     LIG 1885  38.583  42.375   8.762
    5AU       S 1886  39.708  42.431   7.221
    5AU     LIG 1887  39.647  42.103   7.210
    5AU     LIG 1888  39.632  41.907   7.090
    5AU     LIG 1889  39.632  41.640   7.027
    5AU       S 1890  39.722  42.384   7.758
    5AU     LIG 1891  39.822  42.082   7.712
    5AU     LIG 1892  39.835  41.885   7.838
    5AU     LIG 1893  39.829  41.639   7.941
    5AU       S 1894  39.561  44.678   6.835
    5AU     LIG 1895  39.567  44.907   6.681
    5AU     LIG 1896  39.690  45.123   6.641
    5AU     LIG 1897  39.756  45.357   6.564
    5AU       S 1898  40.400  44.454   6.958
    5AU     LIG 1899  40.598  44.658   6.901
    5AU     LIG 1900  40.757  44.732   6.721
    5AU     LIG 1901  40.905  44.854   6.558
    5AU       S 1902  39.358  44.699   7.112
    5AU     LIG 1903  39.246  44.977   7.085
    5AU     LIG 1904  39.303  45.203   6.998
    5AU     LIG 1905  39.377  45.428   6.907
    5AU       S 1906  38.920  44.109   6.654
    5AU     LIG 1907  38.860  44.244   6.415
    5AU     LIG 1908  38.870  44.474   6.319
    5AU     LIG 1909  38.843  44.713   6.239
    5AU       S 1910  38.865  42.777   7.029
    5AU     LIG 1911  38.608  42.604   6.950
    5AU     LIG 1912  38.521  42.462   6.784
    5AU     LIG 1913  38.435  42.289   6.606
    5AU       S 1914  39.778  42.470   6.941
    5AU     LIG 1915  39.895  42.291   6.769
    5AU     LIG 1916  39.868  42.081   6.646
    5AU     LIG 1917  39.792  41.843   6.582
    5AU       S 1918  39.971  42.471   7.324
    5AU     LIG 1919  40.135  42.230   7.293
    5AU     LIG 1920  40.142  42.024   7.128
    5AU     LIG 1921  40.127  41.807   6.984
    5AU       S 1922  40.232  42.980   6.673
    5AU     LIG 1923  40.218  42.802   6.470
    5AU     LIG 1924  40.208  42.574   6.376
    5AU     LIG 1925  40.259  42.371   6.221
    6AU     AUC 1926  18.312  31.126   7.535
    6AU     AUC 1927  18.564  31.131   7.369
    6AU     AUC 1928  18.553  31.118   7.699
    6AU     AUC 1929  18.042  31.134   7.380
    6AU     AUC 1930  18.068  31.163   7.705
    6AU     AUC 1931  18.151  31.379   7.513
    6AU     AUC 1932  18.498  31.391   7.516
    6AU     AUC 1933  18.133  30.872   7.543
    6AU     AUC 1934  18.464  30.850   7.545
    6AU     AUC 1935  18.306  30.966   7.798
    6AU     AUC 1936  18.325  31.306   7.779
    6AU     AUC 1937  18.299  30.953   7.287
    6AU     AUC 1938  18.319  31.259   7.271
    6AU     AUC 1939  18.867  31.122   7.204
    6AU     AUC 1940  18.875  31.102   7.545
    6AU     AUC 1941  18.833  31.089   7.899
    6AU     AUC 1942  17.740  31.108   7.228
    6AU     AUC 1943  17.739  31.167   7.556
    6AU     AUC 1944  17.768  31.206   7.888
    6AU     AUC 1945  17.986  31.692   7.474
    6AU     AUC 1946  18.346  31.666   7.457
    6AU     AUC 1947  18.712  31.654   7.487
    6AU     AUC 1948  17.929  30.583   7.548
    6AU     AUC 1949  18.280  30.559   7.529
    6AU     AUC 1950  18.636  30.548   7.546
    6AU     AUC 1951  18.265  30.800   8.101
    6AU     AUC 1952  18.302  31.142   8.101
    6AU     AUC 1953  18.359  31.506   8.062
    6AU     AUC 1954  18.330  30.763   6.997
    6AU     AUC 1955  18.278  31.104   6.973
    6AU     AUC 1956  18.275  31.427   6.957
    6AU     AUC 1957  18.547  30.904   8.012
    6AU     AUC 1958  18.603  31.280   7.987
    6AU     AUC 1959  18.602  30.966   7.072
    6AU     AUC 1960  18.567  31.278   7.079
    6AU     AUC 1961  18.013  31.024   8.000
    6AU     AUC 1962  18.060  31.374   7.971
    6AU     AUC 1963  18.024  30.923   7.103
    6AU     AUC 1964  17.978  31.251   7.083
    6AU     AUC 1965  18.805  31.394   7.346
    6AU     AUC 1966  18.771  31.391   7.705
    6AU     AUC 1967  17.846  31.406   7.383
    6AU     AUC 1968  17.891  31.472   7.713
    6AU     AUC 1969  18.768  30.843   7.407
    6AU     AUC 1970  18.716  30.797   7.739
    6AU     AUC 1971  17.847  30.820   7.373
    6AU     AUC 1972  17.873  30.894   7.716
    6AU     AUC 1973  18.211  31.624   7.782
    6AU     AUC 1974  18.550  31.579   7.793
    6AU     AUC 1975  18.098  30.691   7.817
    6AU     AUC 1976  18.416  30.638   7.809
    6AU     AUC 1977  18.121  31.557   7.215
    6AU     AUC 1978  18.486  31.573   7.226
    6AU     AUC 1979  18.152  30.659   7.258
    6AU     AUC 1980  18.512  30.704   7.274
    6AU    AUSL 1981  18.811  30.994   8.316
    6AU    AUSL 1982  18.561  30.621   8.222
    6AU     AUL 1983  18.868  30.622   8.389
    6AU    AUSL 1984  18.396  30.936   8.460
    6AU    AUSL 1985  18.158  31.345   8.451
    6AU     AUL 1986  18.394  31.220   8.710
    6AU    AUSL 1987  18.495  31.293   8.204
    6AU    AUSL 1988  18.946  31.352   8.126
    6AU     AUL 1989  18.764  31.317   8.435
    6AU    AUSL 1990  18.719  31.154   6.840
    6AU    AUSL 1991  18.580  31.550   6.981
    6AU     AUL 1992  18.794  31.482   6.681
    6AU    AUSL 1993  18.531  30.832   6.612
    6AU    AUSL 1994  19.038  30.902   6.982
    6AU     AUL 1995  18.906  30.976   6.665
    6AU    AUSL 1996  18.363  31.336   6.670
    6AU    AUSL 1997  18.185  30.950   6.829
    6AU     AUL 1998  18.316  31.029   6.524
    6AU    AUSL 1999  17.774  31.307   8.243
    6AU    AUSL 2000  18.137  31.616   8.111
    6AU     AUL 2001  17.974  31.584   8.412
    6AU    AUSL 2002  18.075  30.994   8.191
    6AU    AUSL 2003  17.626  30.917   8.105
    6AU     AUL 2004  17.683  31.006   8.341
    6AU    AUSL 2005  17.749  30.932   6.795
    6AU    AUSL 2006  17.998  30.582   6.947
    6AU     AUL 2007  18.022  30.668   6.641
    6AU    AUSL 2008  17.935  31.300   6.675
    6AU    AUSL 2009  17.655  31.281   7.050
    6AU     AUL 2010  17.538  31.162   6.776
    6AU    AUSL 2011  19.103  31.589   7.476
    6AU    AUSL 2012  18.978  31.379   7.096
    6AU     AUL 2013  19.273  31.584   7.128
    6AU    AUSL 2014  19.268  31.193   7.367
    6AU    AUSL 2015  19.217  30.895   7.768
    6AU     AUL 2016  19.479  30.979   7.571
    6AU    AUSL 2017  18.990  31.248   7.718
    6AU    AUSL 2018  18.948  31.692   7.853
    6AU     AUL 2019  19.196  31.432   7.878
    6AU    AUSL 2020  17.737  31.769   7.522
    6AU    AUSL 2021  17.774  31.521   7.878
    6AU     AUL 2022  17.465  31.766   7.745
    6AU    AUSL 2023  17.536  31.390   7.444
    6AU    AUSL 2024  17.689  31.706   7.106
    6AU     AUL 2025  17.453  31.631   7.263
    6AU    AUSL 2026  17.409  31.312   7.888
    6AU    AUSL 2027  17.376  31.006   7.349
    6AU     AUL 2028  17.254  31.323   7.590
    6AU    AUSL 2029  18.995  30.546   7.615
    6AU    AUSL 2030  18.821  30.829   7.925
    6AU     AUL 2031  19.128  30.735   8.001
    6AU    AUSL 2032  18.953  30.916   7.397
    6AU    AUSL 2033  18.943  30.514   7.188
    6AU     AUL 2034  19.187  30.724   7.250
    6AU    AUSL 2035  17.529  30.627   7.553
    6AU    AUSL 2036  17.740  30.837   7.205
    6AU     AUL 2037  17.390  30.730   7.213
    6AU    AUSL 2038  17.646  31.028   7.694
    6AU    AUSL 2039  17.836  30.644   7.849
    6AU     AUL 2040  17.455  30.797   7.848
    6AU    AUSL 2041  18.378  31.952   7.966
    6AU    AUSL 2042  17.923  31.931   7.878
    6AU     AUL 2043  18.145  31.976   8.194
    6AU    AUSL 2044  18.210  31.807   7.591
    6AU    AUSL 2045  18.461  31.940   7.247
    6AU     AUL 2046  18.230  32.147   7.554
    6AU    AUSL 2047  18.648  31.883   7.623
    6AU    AUSL 2048  18.642  31.682   8.153
    6AU     AUL 2049  18.761  31.972   7.941
    6AU    AUSL 2050  18.236  30.486   7.970
    6AU    AUSL 2051  18.660  30.427   7.849
    6AU     AUL 2052  18.421  30.365   8.223
    6AU    AUSL 2053  17.928  30.264   7.699
    6AU    AUSL 2054  17.956  30.601   8.274
    6AU     AUL 2055  17.964  30.303   8.050
    6AU    AUSL 2056  18.360  30.189   7.667
    6AU    AUSL 2057  18.153  30.434   7.362
    6AU     AUL 2058  18.036  30.089   7.487
    6AU    AUSL 2059  18.288  31.825   6.843
    6AU    AUSL 2060  18.860  31.803   7.199
    6AU     AUL 2061  18.604  31.913   6.936
    6AU    AUSL 2062  18.039  31.919   7.210
    6AU    AUSL 2063  18.062  31.508   7.014
    6AU     AUL 2064  17.969  31.814   6.856
    6AU    AUSL 2065  18.378  30.382   6.981
    6AU    AUSL 2066  17.745  30.396   7.258
    6AU     AUL 2067  18.041  30.248   7.043
    6AU    AUSL 2068  18.585  30.406   7.381
    6AU    AUSL 2069  18.608  30.739   7.018
    6AU     AUL 2070  18.702  30.366   7.050
    6AU       S 2071  18.833  30.171   8.227
    6AU     LIG 2072  18.880  29.937   8.352
    6AU     LIG 2073  19.002  29.777   8.479
    6AU     LIG 2074  19.160  29.600   8.590
    6AU       S 2075  18.867  30.961   8.719
    6AU     LIG 2076  19.030  31.019   8.921
    6AU     LIG 2077  19.120  31.075   9.146
    6AU     LIG 2078  19.226  31.042   9.383
    6AU       S 2079  18.545  30.768   8.725
    6AU     LIG 2080  18.601  30.674   9.005
    6AU     LIG 2081  18.767  30.690   9.203
    6AU     LIG 2082  18.901  30.645   9.419
    6AU       S 2083  17.920  31.258   8.757
    6AU     LIG 2084  17.883  31.282   9.059
    6AU     LIG 2085  17.765  31.267   9.261
    6AU     LIG 2086  17.617  31.244   9.479
    6AU       S 2087  18.445  31.692   8.566
    6AU     LIG 2088  18.562  31.829   8.771
    6AU     LIG 2089  18.775  31.749   8.933
    6AU     LIG 2090  18.998  31.623   8.947
    6AU       S 2091  19.137  31.584   8.334
    6AU     LIG 2092  19.320  31.624   8.555
    6AU     LIG 2093  19.460  31.781   8.669
    6AU     LIG 2094  19.636  31.957   8.744
    6AU       S 2095  18.738  31.213   6.306
    6AU     LIG 2096  18.953  31.268   6.093
    6AU     LIG 2097  19.087  31.102   5.955
    6AU     LIG 2098  19.147  30.911   5.795
    6AU       S 2099  18.953  31.913   6.652
    6AU     LIG 2100  18.999  32.106   6.462
    6AU     LIG 2101  19.162  32.196   6.288
    6AU     LIG 2102  19.327  32.287   6.123
    6AU       S 2103  19.213  30.624   6.768
    6AU     LIG 2104  19.375  30.537   6.527
    6AU     LIG 2105  19.389  30.318   6.388
    6AU     LIG 2106  19.405  30.063   6.348
    6AU       S 2107  18.659  30.918   6.240
    6AU     LIG 2108  18.681  30.794   6.011
    6AU     LIG 2109  18.668  30.721   5.771
    6AU     LIG 2110  18.739  30.701   5.521
    6AU       S 2111  17.925  30.978   6.303
    6AU     LIG 2112  17.980  30.945   6.024
    6AU     LIG 2113  17.986  30.891   5.795
    6AU     LIG 2114  17.910  30.850   5.540
    6AU       S 2115  18.495  31.359   6.264
    6AU     LIG 2116  18.396  31.293   5.973
    6AU     LIG 2117  18.538  31.218   5.780
    6AU     LIG 2118  18.731  31.210   5.607
    6AU       S 2119  17.644  31.346   8.643
    6AU     LIG 2120  17.433  31.321   8.819
    6AU     LIG 2121  17.379  31.105   8.977
    6AU     LIG 2122  17.309  30.973   9.166
    6AU       S 2123  17.675  31.904   8.268
    6AU     LIG 2124  17.589  32.059   8.501
    6AU     LIG 2125  17.448  32.070   8.694
    6AU     LIG 2126  17.279  32.159   8.877
    6AU       S 2127  17.398  30.638   8.284
    6AU     LIG 2128  17.152  30.569   8.381
    6AU     LIG 2129  17.007  30.377   8.457
    6AU     LIG 2130  16.880  30.195   8.575
    6AU       S 2131  17.969  30.966   8.684
    6AU     LIG 2132  17.892  30.790   8.887
    6AU     LIG 2133  17.779  30.770   9.105
    6AU     LIG 2134  17.734  30.756   9.361
    6AU       S 2135  17.663  30.890   6.418
    6AU     LIG 2136  17.484  30.820   6.208
    6AU     LIG 2137  17.473  30.891   5.957
    6AU     LIG 2138  17.461  31.001   5.737
    6AU       S 2139  17.697  30.342   6.745
    6AU     LIG 2140  17.623  30.155   6.540
    6AU     LIG 2141  17.465  30.113   6.354
    6AU     LIG 2142  17.281  30.064   6.184
    6AU       S 2143  17.327  31.568   6.798
    6AU     LIG 2144  17.120  31.737   6.744
    6AU     LIG 2145  17.068  31.936   6.588
    6AU     LIG 2146  17.044  32.059   6.367
    6AU       S 2147  17.825  31.246   6.393
    6AU     LIG 2148  17.658  31.347   6.139
    6AU     LIG 2149  17.741  31.384   5.913
    6AU     LIG 2150  17.849  31.364   5.679
    6AU       S 2151  19.184  31.727   6.708
    6AU     LIG 2152  19.399  31.773   6.537
    6AU     LIG 2153  19.556  31.885   6.389
    6AU     LIG 2154  19.737  32.004   6.245
    6AU       S 2155  19.436  31.703   7.556
    6AU     LIG 2156  19.649  31.907   7.540
    6AU     LIG 2157  19.893  31.951   7.511
    6AU     LIG 2158  20.146  32.014   7.532
    6AU       S 2159  19.612  31.404   7.388
    6AU     LIG 2160  19.881  31.475   7.293
    6AU     LIG 2161  20.121  31.541   7.306
    6AU     LIG 2162  20.343  31.655   7.226
    6AU       S 2163  19.476  30.525   7.790
    6AU     LIG 2164  19.711  30.423   7.920
    6AU     LIG 2165  19.964  30.418   7.859
    6AU     LIG 2166  20.213  30.386   7.780
    6AU       S 2167  19.173  31.832   8.127
    6AU     LIG 2168  19.368  32.009   8.210
    6AU     LIG 2169  19.413  32.208   8.357
    6AU     LIG 2170  19.432  32.387   8.540
    6AU       S 2171  19.583  31.436   7.663
    6AU     LIG 2172  19.821  31.507   7.814
    6AU     LIG 2173  20.058  31.574   7.811
    6AU     LIG 2174  20.288  31.664   7.878
    6AU       S 2175  17.509  31.681   8.203
    6AU     LIG 2176  17.270  31.673   8.380
    6AU     LIG 2177  17.084  31.812   8.444
    6AU     LIG 2178  16.908  31.931   8.594
    6AU       S 2179  17.676  32.105   7.463
    6AU     LIG 2180  17.516  32.313   7.335
    6AU     LIG 2181  17.270  32.293   7.239
    6AU     LIG 2182  17.082  32.136   7.123
    6AU       S 2183  17.112  31.324   7.139
    6AU     LIG 2184  16.874  31.329   7.071
    6AU     LIG 2185  16.619  31.405   7.141
    6AU     LIG 2186  16.474  31.618   7.163
    6AU       S 2187  17.542  31.978   6.929
    6AU     LIG 2188  17.469  32.186   6.787
    6AU     LIG 2189  17.327  32.365   6.702
    6AU     LIG 2190  17.196  32.520   6.537
    6AU       S 2191  17.023  30.920   7.449
    6AU     LIG 2192  16.746  30.910   7.337
    6AU     LIG 2193  16.503  30.892   7.332
    6AU     LIG 2194  16.269  30.771   7.284
    6AU       S 2195  17.214  31.239   8.097
    6AU     LIG 2196  16.901  31.343   8.182
    6AU     LIG 2197  16.784  31.555   8.094
    6AU     LIG 2198  16.604  31.702   7.968
    6AU       S 2199  19.206  30.355   7.606
    6AU     LIG 2200  19.340  30.053   7.622
    6AU     LIG 2201  19.568  29.987   7.697
    6AU     LIG 2202  19.839  29.973   7.655
    6AU       S 2203  19.050  30.294   8.066
    6AU     LIG 2204  19.297  30.158   8.105
    6AU     LIG 2205  19.427  30.070   8.287
    6AU     LIG 2206  19.474  30.000   8.537
    6AU       S 2207  19.463  30.505   7.519
    6AU     LIG 2208  19.686  30.383   7.383
    6AU     LIG 2209  19.927  30.384   7.343
    6AU     LIG 2210  20.168  30.312   7.280
    6AU       S 2211  19.155  30.362   6.925
    6AU     LIG 2212  19.220  30.102   6.822
    6AU     LIG 2213  19.093  29.879   6.774
    6AU     LIG 2214  19.052  29.660   6.659
    6AU       S 2215  17.520  30.537   6.817
    6AU     LIG 2216  17.287  30.547   6.620
    6AU     LIG 2217  17.110  30.430   6.527
    6AU     LIG 2218  16.904  30.272   6.465
    6AU       S 2219  17.105  30.629   7.583
    6AU     LIG 2220  16.888  30.463   7.588
    6AU     LIG 2221  16.661  30.415   7.482
    6AU     LIG 2222  16.428  30.311   7.441
    6AU       S 2223  17.517  30.408   8.082
    6AU     LIG 2224  17.341  30.200   8.068
    6AU     LIG 2225  17.221  30.014   8.174
    6AU     LIG 2226  17.088  29.828   8.287
    6AU       S 2227  17.047  30.924   7.713
    6AU     LIG 2228  16.813  30.896   7.888
    6AU     LIG 2229  16.574  30.804   7.835
    6AU     LIG 2230  16.365  30.669   7.809
    6AU       S 2231  17.716  32.123   7.989
    6AU     LIG 2232  17.481  32.312   8.062
    6AU     LIG 2233  17.256  32.275   8.206
    6AU     LIG 2234  17.124  32.352   8.412
    6AU       S 2235  18.459  32.309   8.053
    6AU     LIG 2236  18.570  32.496   8.255
    6AU     LIG 2237  18.458  32.686   8.380
    6AU     LIG 2238  18.313  32.887   8.444
    6AU       S 2239  18.221  32.444   7.925
    6AU     LIG 2240  18.132  32.669   7.968
    6AU     LIG 2241  18.106  32.928   7.984
    6AU     LIG 2242  18.115  33.179   8.012
    6AU       S 2243  18.386  32.287   7.131
    6AU     LIG 2244  18.452  32.556   7.146
    6AU     LIG 2245  18.486  32.788   7.130
    6AU     LIG 2246  18.549  33.031   7.042
    6AU       S 2247  18.896  31.799   8.364
    6AU     LIG 2248  18.971  32.018   8.543
    6AU     LIG 2249  19.072  32.099   8.736
    6AU     LIG 2250  19.198  32.117   8.967
    6AU       S 2251  18.598  32.360   7.734
    6AU     LIG 2252  18.630  32.633   7.718
    6AU     LIG 2253  18.605  32.843   7.875
    6AU     LIG 2254  18.617  33.027   8.040
    6AU       S 2255  18.319  29.950   8.062
    6AU     LIG 2256  18.438  29.744   8.213
    6AU     LIG 2257  18.426  29.537   8.334
    6AU     LIG 2258  18.407  29.300   8.434
    6AU       S 2259  18.802  30.183   7.902
    6AU     LIG 2260  18.906  29.879   7.827
    6AU     LIG 2261  19.066  29.745   7.925
    6AU     LIG 2262  19.278  29.645   8.057
    6AU       S 2263  18.067  29.864   7.896
    6AU     LIG 2264  18.018  29.597   7.918
    6AU     LIG 2265  18.040  29.379   8.033
    6AU     LIG 2266  18.030  29.141   8.129
    6AU       S 2267  17.661  30.490   8.386
    6AU     LIG 2268  17.534  30.272   8.570
    6AU     LIG 2269  17.397  30.098   8.640
    6AU     LIG 2270  17.260  29.904   8.762
    6AU       S 2271  18.385  29.960   7.221
    6AU     LIG 2272  18.324  29.632   7.210
    6AU     LIG 2273  18.309  29.436   7.090
    6AU     LIG 2274  18.309  29.169   7.027
    6AU       S 2275  18.399  29.913   7.758
    6AU     LIG 2276  18.499  29.611   7.712
    6AU     LIG 2277  18.512  29.414   7.838
    6AU     LIG 2278  18.506  29.168   7.941
    6AU       S 2279  18.238  32.207   6.835
    6AU     LIG 2280  18.244  32.436   6.681
    6AU     LIG 2281  18.367  32.652   6.641
    6AU     LIG 2282  18.433  32.886   6.564
    6AU       S 2283  19.077  31.983   6.958
    6AU     LIG 2284  19.275  32.187   6.901
    6AU     LIG 2285  19.434  32.261   6.721
    6AU     LIG 2286  19.582  32.383   6.558
    6AU       S 2287  18.035  32.228   7.112
    6AU     LIG 2288  17.923  32.506   7.085
    6AU     LIG 2289  17.980  32.732   6.998
    6AU     LIG 2290  18.054  32.957   6.907
    6AU       S 2291  17.597  31.638   6.654
    6AU     LIG 2292  17.537  31.773   6.415
    6AU     LIG 2293  17.547  32.003   6.319
    6AU     LIG 2294  17.520  32.242   6.239
    6AU       S 2295  17.542  30.306   7.029
    6AU     LIG 2296  17.285  30.133   6.950
    6AU     LIG 2297  17.198  29.991   6.784
    6AU     LIG 2298  17.112  29.818   6.606
    6AU       S 2299  18.455  29.999   6.941
    6AU     LIG 2300  18.572  29.820   6.769
    6AU     LIG 2301  18.545  29.610   6.646
    6AU     LIG 2302  18.469  29.372   6.582
    6AU       S 2303  18.648  30.000   7.324
    6AU     LIG 2304  18.812  29.759   7.293
    6AU     LIG 2305  18.819  29.553   7.128
    6AU     LIG 2306  18.804  29.336   6.984
    6AU       S 2307  18.909  30.509   6.673
    6AU     LIG 2308  18.895  30.331   6.470
    6AU     LIG 2309  18.885  30.103   6.376
    6AU     LIG 2310  18.936  29.900   6.221
    7AU     AUC 2311  36.810  24.257   7.535
    7AU     AUC 2312  37.062  24.262   7.369
    7AU     AUC 2313  37.051  24.249   7.699
    7AU     AUC 2314  36.540  24.265   7.380
    7AU     AUC 2315  36.566  24.294   7.705
    7AU     AUC 2316  36.649  24.510   7.513
    7AU     AUC 2317  36.996  24.522   7.516
    7AU     AUC 2318  36.631  24.003   7.543
    7AU     AUC 2319  36.962  23.981   7.545
    7AU     AUC 2320  36.804  24.097   7.798
    7AU     AUC 2321  36.823  24.437   7.779
    7AU     AUC 2322  36.797  24.084   7.287
    7AU     AUC 2323  36.817  24.390   7.271
    7AU     AUC 2324  37.365  24.253   7.204
    7AU     AUC 2325  37.373  24.233   7.545
    7AU     AUC 2326  37.331  24.220   7.899
    7AU     AUC 2327  36.238  24.239   7.228
    7AU     AUC 2328  36.237  24.298   7.556
    7AU     AUC 2329  36.266  24.337   7.888
    7AU     AUC 2330  36.484  24.823   7.474
    7AU     AUC 2331  36.844  24.797   7.457
    7AU     AUC 2332  37.210  24.785   7.487
    7AU     AUC 2333  36.427  23.714   7.548
    7AU     AUC 2334  36.778  23.690   7.529
    7AU     AUC 2335  37.134  23.679   7.546
    7AU     AUC 2336  36.763  23.931   8.101
    7AU     AUC 2337  36.800  24.273   8.101
    7AU     AUC 2338  36.857  24.637   8.062
    7AU     AUC 2339  36.828  23.894   6.997
    7AU     AUC 2340  36.776  24.235   6.973
    7AU     AUC 2341  36.773  24.558   6.957
    7AU     AUC 2342  37.045  24.035   8.012
    7AU     AUC 2343  37.101  24.411   7.987
    7AU     AUC 2344  37.100  24.097   7.072
    7AU     AUC 2345  37.065  24.409   7.079
    7AU     AUC 2346  36.511  24.155   8.000
    7AU     AUC 2347  36.558  24.505   7.971
    7AU     AUC 2348  36.522  24.054   7.103
    7AU     AUC 2349  36.476  24.382   7.083
    7AU     AUC 2350  37.303  24.525   7.346
    7AU     AUC 2351  37.269  24.522   7.705
    7AU     AUC 2352  36.344  24.537   7.383
    7AU     AUC 2353  36.389  24.603   7.713
    7AU     AUC 2354  37.266  23.974   7.407
    7AU     AUC 2355  37.214  23.928   7.739
    7AU     AUC 2356  36.345  23.951   7.373
    7AU     AUC 2357  36.371  24.025   7.716
    7AU     AUC 2358  36.709  24.755   7.782
    7AU     AUC 2359  37.048  24.710   7.793
    7AU     AUC 2360  36.596  23.822   7.817
    7AU     AUC 2361  36.914  23.769   7.809
    7AU     AUC 2362  36.619  24.688   7.215
    7AU     AUC 2363  36.984  24.704   7.226
    7AU     AUC 2364  36.650  23.790   7.258
    7AU     AUC 2365  37.010  23.835   7.274
    7AU    AUSL 2366  37.309  24.125   8.316
    7AU    AUSL 2367  37.059  23.752   8.222
    7AU     AUL 2368  37.366  23.753   8.389
    7AU    AUSL 2369  36.894  24.067   8.460
    7AU    AUSL 2370  36.656  24.476   8.451
    7AU     AUL 2371  36.892  24.351   8.710
    7AU    AUSL 2372  36.993  24.424   8.204
    7AU    AUSL 2373  37.444  24.483   8.126
    7AU     AUL 2374  37.262  24.448   8.435
    7AU    AUSL 2375  37.217  24.285   6.840
    7AU    AUSL 2376  37.078  24.681   6.981
    7AU     AUL 2377  37.292  24.613   6.681
    7AU    AUSL 2378  37.029  23.963   6.612
    7AU    AUSL 2379  37.536  24.033   6.982
    7AU     AUL 2380  37.404  24.107   6.665
    7AU    AUSL 2381  36.861  24.467   6.670
    7AU    AUSL 2382  36.683  24.081   6.829
    7AU     AUL 2383  36.814  24.160   6.524
    7AU    AUSL 2384  36.272  24.438   8.243
    7AU    AUSL 2385  36.635  24.747   8.111
    7AU     AUL 2386  36.472  24.715   8.412
    7AU    AUSL 2387  36.573  24.125   8.191
    7AU    AUSL 2388  36.124  24.048   8.105
    7AU     AUL 2389  36.181  24.137   8.341
    7AU    AUSL 2390  36.247  24.063   6.795
    7AU    AUSL 2391  36.496  23.713   6.947
    7AU     AUL 2392  36.520  23.799   6.641
    7AU    AUSL 2393  36.433  24.431   6.675
    7AU    AUSL 2394  36.153  24.412   7.050
    7AU     AUL 2395  36.036  24.293   6.776
    7AU    AUSL 2396  37.601  24.720   7.476
    7AU    AUSL 2397  37.476  24.510   7.096
    7AU     AUL 2398  37.771  24.715   7.128
    7AU    AUSL 2399  37.766  24.324   7.367
    7AU    AUSL 2400  37.715  24.026   7.768
    7AU     AUL 2401  37.977  24.110   7.571
    7AU    AUSL 2402  37.488  24.379   7.718
    7AU    AUSL 2403  37.446  24.823   7.853
    7AU     AUL 2404  37.694  24.563   7.878
    7AU    AUSL 2405  36.235  24.900   7.522
    7AU    AUSL 2406  36.272  24.652   7.878
    7AU     AUL 2407  35.963  24.897   7.745
    7AU    AUSL 2408  36.034  24.521   7.444
    7AU    AUSL 2409  36.187  24.837   7.106
    7AU     AUL 2410  35.951  24.762   7.263
    7AU    AUSL 2411  35.907  24.443   7.888
    7AU    AUSL 2412  35.874  24.137   7.349
    7AU     AUL 2413  35.752  24.454   7.590
    7AU    AUSL 2414  37.493  23.677   7.615
    7AU    AUSL 2415  37.319  23.960   7.925
    7AU     AUL 2416  37.626  23.866   8.001
    7AU    AUSL 2417  37.451  24.047   7.397
    7AU    AUSL 2418  37.441  23.645   7.188
    7AU     AUL 2419  37.685  23.855   7.250
    7AU    AUSL 2420  36.027  23.758   7.553
    7AU    AUSL 2421  36.238  23.968   7.205
    7AU     AUL 2422  35.888  23.861   7.213
    7AU    AUSL 2423  36.144  24.159   7.694
    7AU    AUSL 2424  36.334  23.775   7.849
    7AU     AUL 2425  35.953  23.928   7.848
    7AU    AUSL 2426  36.876  25.083   7.966
    7AU    AUSL 2427  36.421  25.062   7.878
    7AU     AUL 2428  36.643  25.107   8.194
    7AU    AUSL 2429  36.708  24.938   7.591
    7AU    AUSL 2430  36.959  25.071   7.247
    7AU     AUL 2431  36.728  25.278   7.554
    7AU    AUSL 2432  37.146  25.014   7.623
    7AU    AUSL 2433  37.140  24.813   8.153
    7AU     AUL 2434  37.259  25.103   7.941
    7AU    AUSL 2435  36.734  23.617   7.970
    7AU    AUSL 2436  37.158  23.558   7.849
    7AU     AUL 2437  36.919  23.496   8.223
    7AU    AUSL 2438  36.426  23.395   7.699
    7AU    AUSL 2439  36.454  23.732   8.274
    7AU     AUL 2440  36.462  23.434   8.050
    7AU    AUSL 2441  36.858  23.320   7.667
    7AU    AUSL 2442  36.651  23.565   7.362
    7AU     AUL 2443  36.534  23.220   7.487
    7AU    AUSL 2444  36.786  24.956   6.843
    7AU    AUSL 2445  37.358  24.934   7.199
    7AU     AUL 2446  37.102  25.044   6.936
    7AU    AUSL 2447  36.537  25.050   7.210
    7AU    AUSL 2448  36.560  24.639   7.014
    7AU     AUL 2449  36.467  24.945   6.856
    7AU    AUSL 2450  36.876  23.513   6.981
    7AU    AUSL 2451  36.243  23.527   7.258
    7AU     AUL 2452  36.539  23.379   7.043
    7AU    AUSL 2453  37.083  23.537   7.381
    7AU    AUSL 2454  37.106  23.870   7.018
    7AU     AUL 2455  37.200  23.497   7.050
    7AU       S 2456  37.331  23.302   8.227
    7AU     LIG 2457  37.378  23.068   8.352
    7AU     LIG 2458  37.500  22.908   8.479
    7AU     LIG 2459  37.658  22.731   8.590
    7AU       S 2460  37.365  24.092   8.719
    7AU     LIG 2461  37.528  24.150   8.921
    7AU     LIG 2462  37.618  24.206   9.146
    7AU     LIG 2463  37.724  24.173   9.383
    7AU       S 2464  37.043  23.899   8.725
    7AU     LIG 2465  37.099  23.805   9.005
    7AU     LIG 2466  37.265  23.821   9.203
    7AU     LIG 2467  37.399  23.776   9.419
    7AU       S 2468  36.418  24.389   8.757
    7AU     LIG 2469  36.381  24.413   9.059
    7AU     LIG 2470  36.263  24.398   9.261
    7AU     LIG 2471  36.115  24.375   9.479
    7AU       S 2472  36.943  24.823   8.566
    7AU     LIG 2473  37.060  24.960   8.771
    7AU     LIG 2474  37.273  24.880   8.933
    7AU     LIG 2475  37.496  24.754   8.947
    7AU       S 2476  37.635  24.715   8.334
    7AU     LIG 2477  37.818  24.755   8.555
    7AU     LIG 2478  37.958  24.912   8.669
    7AU     LIG 2479  38.134  25.088   8.744
    7AU       S 2480  37.236  24.344   6.306
    7AU     LIG 2481  37.451  24.399   6.093
    7AU     LIG 2482  37.585  24.233   5.955
    7AU     LIG 2483  37.645  24.042   5.795
    7AU       S 2484  37.451  25.044   6.652
    7AU     LIG 2485  37.497  25.237   6.462
    7AU     LIG 2486  37.660  25.327   6.288
    7AU     LIG 2487  37.825  25.418   6.123
    7AU       S 2488  37.711  23.755   6.768
    7AU     LIG 2489  37.873  23.668   6.527
    7AU     LIG 2490  37.887  23.449   6.388
    7AU     LIG 2491  37.903  23.194   6.348
    7AU       S 2492  37.157  24.049   6.240
    7AU     LIG 2493  37.179  23.925   6.011
    7AU     LIG 2494  37.166  23.852   5.771
    7AU     LIG 2495  37.237  23.832   5.521
    7AU       S 2496  36.423  24.109   6.303
    7AU     LIG 2497  36.478  24.076   6.024
    7AU     LIG 2498  36.484  24.022   5.795
    7AU     LIG 2499  36.408  23.981   5.540
    7AU       S 2500  36.993  24.490   6.264
    7AU     LIG 2501  36.894  24.424   5.973
    7AU     LIG 2502  37.036  24.349   5.780
    7AU     LIG 2503  37.229  24.341   5.607
    7AU       S 2504  36.142  24.477   8.643
    7AU     LIG 2505  35.931  24.452   8.819
    7AU     LIG 2506  35.877  24.236   8.977
    7AU     LIG 2507  35.807  24.104   9.166
    7AU       S 2508  36.173  25.035   8.268
    7AU     LIG 2509  36.087  25.190   8.501
    7AU     LIG 2510  35.946  25.201   8.694
    7AU     LIG 2511  35.777  25.290   8.877
    7AU       S 2512  35.896  23.769   8.284
    7AU     LIG 2513  35.650  23.700   8.381
    7AU     LIG 2514  35.505  23.508   8.457
    7AU     LIG 2515  35.378  23.326   8.575
    7AU       S 2516  36.467  24.097   8.684
    7AU     LIG 2517  36.390  23.921   8.887
    7AU     LIG 2518  36.277  23.901   9.105
    7AU     LIG 2519  36.232  23.887   9.361
    7AU       S 2520  36.161  24.021   6.418
    7AU     LIG 2521  35.982  23.951   6.208
    7AU     LIG 2522  35.971  24.022   5.957
    7AU     LIG 2523  35.959  24.132   5.737
    7AU       S 2524  36.195  23.473   6.745
    7AU     LIG 2525  36.121  23.286   6.540
    7AU     LIG 2526  35.963  23.244   6.354
    7AU     LIG 2527  35.779  23.195   6.184
    7AU       S 2528  35.825  24.699   6.798
    7AU     LIG 2529  35.618  24.868   6.744
    7AU     LIG 2530  35.566  25.067   6.588
    7AU     LIG 2531  35.542  25.190   6.367
    7AU       S 2532  36.323  24.377   6.393
    7AU     LIG 2533  36.156  24.478   6.139
    7AU     LIG 2534  36.239  24.515   5.913
    7AU     LIG 2535  36.347  24.495   5.679
    7AU       S 2536  37.682  24.858   6.708
    7AU     LIG 2537  37.897  24.904   6.537
    7AU     LIG 2538  38.054  25.016   6.389
    7AU     LIG 2539  38.235  25.135   6.245
    7AU       S 2540  37.934  24.834   7.556
    7AU     LIG 2541  38.147  25.038   7.540
    7AU     LIG 2542  38.391  25.082   7.511
    7AU     LIG 2543  38.644  25.145   7.532
    7AU       S 2544  38.110  24.535   7.388
    7AU     LIG 2545  38.379  24.606   7.293
    7AU     LIG 2546  38.619  24.672   7.306
    7AU     LIG 2547  38.841  24.786   7.226
    7AU       S 2548  37.974  23.656   7.790
    7AU     LIG 2549  38.209  23.554   7.920
    7AU     LIG 2550  38.462  23.549   7.859
    7AU     LIG 2551  38.711  23.517   7.780
    7AU       S 2552  37.671  24.963   8.127
    7AU     LIG 2553  37.866  25.140   8.210
    7AU     LIG 2554  37.911  25.339   8.357
    7AU     LIG 2555  37.930  25.518   8.540
    7AU       S 2556  38.081  24.567   7.663
    7AU     LIG 2557  38.319  24.638   7.814
    7AU     LIG 2558  38.556  24.705   7.811
    7AU     LIG 2559  38.786  24.795   7.878
    7AU       S 2560  36.007  24.812   8.203
    7AU     LIG 2561  35.768  24.804   8.380
    7AU     LIG 2562  35.582  24.943   8.444
    7AU     LIG 2563  35.406  25.062   8.594
    7AU       S 2564  36.174  25.236   7.463
    7AU     LIG 2565  36.014  25.444   7.335
    7AU     LIG 2566  35.768  25.424   7.239
    7AU     LIG 2567  35.580  25.267   7.123
    7AU       S 2568  35.610  24.455   7.139
    7AU     LIG 2569  35.372  24.460   7.071
    7AU     LIG 2570  35.117  24.536   7.141
    7AU     LIG 2571  34.972  24.749   7.163
    7AU       S 2572  36.040  25.109   6.929
    7AU     LIG 2573  35.967  25.317   6.787
    7AU     LIG 2574  35.825  25.496   6.702
    7AU     LIG 2575  35.694  25.651   6.537
    7AU       S 2576  35.521  24.051   7.449
    7AU     LIG 2577  35.244  24.041   7.337
    7AU     LIG 2578  35.001  24.023   7.332
    7AU     LIG 2579  34.767  23.902   7.284
    7AU       S 2580  35.712  24.370   8.097
    7AU     LIG 2581  35.399  24.474   8.182
    7AU     LIG 2582  35.282  24.686   8.094
    7AU     LIG 2583  35.102  24.833   7.968
    7AU       S 2584  37.704  23.486   7.606
    7AU     LIG 2585  37.838  23.184   7.622
    7AU     LIG 2586  38.066  23.118   7.697
    7AU     LIG 2587  38.337  23.104   7.655
    7AU       S 2588  37.548  23.425   8.066
    7AU     LIG 2589  37.795  23.289   8.105
    7AU     LIG 2590  37.925  23.201   8.287
    7AU     LIG 2591  37.972  23.131   8.537
    7AU       S 2592  37.961  23.636   7.519
    7AU     LIG 2593  38.184  23.514   7.383
    7AU     LIG 2594  38.425  23.515   7.343
    7AU     LIG 2595  38.666  23.443   7.280
    7AU       S 2596  37.653  23.493   6.925
    7AU     LIG 2597  37.718  23.233   6.822
    7AU     LIG 2598  37.591  23.010   6.774
    7AU     LIG 2599  37.550  22.791   6.659
    7AU       S 2600  36.018  23.668   6.817
    7AU     LIG 2601  35.785  23.678   6.620
    7AU     LIG 2602  35.608  23.561   6.527
    7AU     LIG 2603  35.402  23.403   6.465
    7AU       S 2604  35.603  23.760   7.583
    7AU     LIG 2605  35.386  23.594   7.588
    7AU     LIG 2606  35.159  23.546   7.482
    7AU     LIG 2607  34.926  23.442   7.441
    7AU       S 2608  36.015  23.539   8.082
    7AU     LIG 2609  35.839  23.331   8.068
    7AU     LIG 2610  35.719  23.145   8.174
    7AU     LIG 2611  35.586  22.959   8.287
    7AU       S 2612  35.545  24.055   7.713
    7AU     LIG 2613  35.311  24.027   7.888
    7AU     LIG 2614  35.072  23.935   7.835
    7AU     LIG 2615  34.863  23.800   7.809
    7AU       S 2616  36.214  25.254   7.989
    7AU     LIG 2617  35.979  25.443   8.062
    7AU     LIG 2618  35.754  25.406   8.206
    7AU     LIG 2619  35.622  25.483   8.412
    7AU       S 2620  36.957  25.440   8.053
    7AU     LIG 2621  37.068  25.627   8.255
    7AU     LIG 2622  36.956  25.817   8.380
    7AU     LIG 2623  36.811  26.018   8.444
    7AU       S 2624  36.719  25.575   7.925
    7AU     LIG 2625  36.630  25.800   7.968
    7AU     LIG 2626  36.604  26.059   7.984
    7AU     LIG 2627  36.613  26.310   8.012
    7AU       S 2628  36.884  25.418   7.131
    7AU     LIG 2629  36.950  25.687   7.146
    7AU     LIG 2630  36.984  25.919   7.130
    7AU     LIG 2631  37.047  26.162   7.042
    7AU       S 2632  37.394  24.930   8.364
    7AU     LIG 2633  37.469  25.149   8.543
    7AU     LIG 2634  37.570  25.230   8.736
    7AU     LIG 2635  37.696  25.248   8.967
    7AU       S 2636  37.096  25.491   7.734
    7AU     LIG 2637  37.128  25.764   7.718
    7AU     LIG 2638  37.103  25.974   7.875
    7AU     LIG 2639  37.115  26.158   8.040
    7AU       S 2640  36.817  23.081   8.062
    7AU     LIG 2641  36.936  22.875   8.213
    7AU     LIG 2642  36.924  22.668   8.334
    7AU     LIG 2643  36.905  22.431   8.434
    7AU       S 2644  37.300  23.314   7.902
    7AU     LIG 2645  37.404  23.010   7.827
    7AU     LIG 2646  37.564  22.876   7.925
    7AU     LIG 2647  37.776  22.776   8.057
    7AU       S 2648  36.565  22.995   7.896
    7AU     LIG 2649  36.516  22.728   7.918
    7AU     LIG 2650  36.538  22.510   8.033
    7AU     LIG 2651  36.528  22.272   8.129
    7AU       S 2652  36.159  23.621   8.386
    7AU     LIG 2653  36.032  23.403   8.570
    7AU     LIG 2654  35.895  23.229   8.640
    7AU     LIG 2655  35.758  23.035   8.762
    7AU       S 2656  36.883  23.091   7.221
    7AU     LIG 2657  36.822  22.763   7.210
    7AU     LIG 2658  36.807  22.567   7.090
    7AU     LIG 2659  36.807  22.300   7.027
    7AU       S 2660  36.897  23.044   7.758
    7AU     LIG 2661  36.997  22.742   7.712
    7AU     LIG 2662  37.010  22.545   7.838
    7AU     LIG 2663  37.004  22.299   7.941
    7AU       S 2664  36.736  25.338   6.835
    7AU     LIG 2665  36.742  25.567   6.681
    7AU     LIG 2666  36.865  25.783   6.641
    7AU     LIG 2667  36.931  26.017   6.564
    7AU       S 2668  37.575  25.114   6.958
    7AU     LIG 2669  37.773  25.318   6.901
    7AU     LIG 2670  37.932  25.392   6.721
    7AU     LIG 2671  38.080  25.514   6.558
    7AU       S 2672  36.533  25.359   7.112
    7AU     LIG 2673  36.421  25.637   7.085
    7AU     LIG 2674  36.478  25.863   6.998
    7AU     LIG 2675  36.552  26.088   6.907
    7AU       S 2676  36.095  24.769   6.654
    7AU     LIG 2677  36.035  24.904   6.415
    7AU     LIG 2678  36.045  25.134   6.319
    7AU     LIG 2679  36.018  25.373   6.239
    7AU       S 2680  36.040  23.437   7.029
    7AU     LIG 2681  35.783  23.264   6.950
    7AU     LIG 2682  35.696  23.122   6.784
    7AU     LIG 2683  35.610  22.949   6.606
    7AU       S 2684  36.953  23.130   6.941
    7AU     LIG 2685  37.070  22.951   6.769
    7AU     LIG 2686  37.043  22.741   6.646
    7AU     LIG 2687  36.967  22.503   6.582
    7AU       S 2688  37.146  23.131   7.324
    7AU     LIG 2689  37.310  22.890   7.293
    7AU     LIG 2690  37.317  22.684   7.128
    7AU     LIG 2691  37.302  22.467   6.984
    7AU       S 2692  37.407  23.640   6.673
    7AU     LIG 2693  37.393  23.462   6.470
    7AU     LIG 2694  37.383  23.234   6.376
    7AU     LIG 2695  37.434  23.031   6.221
    8AU     AUC 2696  28.087  31.626   7.535
    8AU     AUC 2697  28.339  31.631   7.369
    8AU     AUC 2698  28.328  31.618   7.699
    8AU     AUC 2699  27.817  31.634   7.380
    8AU     AUC 2700  27.843  31.663   7.705
    8AU     AUC 2701  27.926  31.879   7.513
    8AU     AUC 2702  28.273  31.891   7.516
    8AU     AUC 2703  27.908  31.372   7.543
    8AU     AUC 2704  28.239  31.350   7.545
    8AU     AUC 2705  28.081  31.466   7.798
    8AU     AUC 2706  28.100  31.806   7.779
    8AU     AUC 2707  28.074  31.453   7.287
    8AU     AUC 2708  28.094  31.759   7.271
    8AU     AUC 2709  28.642  31.622   7.204
    8AU     AUC 2710  28.650  31.602   7.545
    8AU     AUC 2711  28.608  31.589   7.899
    8AU     AUC 2712  27.515  31.608   7.228
    8AU     AUC 2713  27.514  31.667   7.556
    8AU     AUC 2714  27.543  31.706   7.888
    8AU     AUC 2715  27.761  32.192   7.474
    8AU     AUC 2716  28.121  32.166   7.457
    8AU     AUC 2717  28.487  32.154   7.487
    8AU     AUC 2718  27.704  31.083   7.548
    8AU     AUC 2719  28.055  31.059   7.529
    8AU     AUC 2720  28.411  31.048   7.546
    8AU     AUC 2721  28.040  31.300   8.101
    8AU     AUC 2722  28.077  31.642   8.101
    8AU     AUC 2723  28.134  32.006   8.062
    8AU     AUC 2724  28.105  31.263   6.997
    8AU     AUC 2725  28.053  31.604   6.973
    8AU     AUC 2726  28.050  31.927   6.957
    8AU     AUC 2727  28.322  31.404   8.012
    8AU     AUC 2728  28.378  31.780   7.987
    8AU     AUC 2729  28.377  31.466   7.072
    8AU     AUC 2730  28.342  31.778   7.079
    8AU     AUC 2731  27.788  31.524   8.000
    8AU     AUC 2732  27.835  31.874   7.971
    8AU     AUC 2733  27.799  31.423   7.103
    8AU     AUC 2734  27.753  31.751   7.083
    8AU     AUC 2735  28.580  31.894   7.346
    8AU     AUC 2736  28.546  31.891   7.705
    8AU     AUC 2737  27.621  31.906   7.383
    8AU     AUC 2738  27.666  31.972   7.713
    8AU     AUC 2739  28.543  31.343   7.407
    8AU     AUC 2740  28.491  31.297   7.739
    8AU     AUC 2741  27.622  31.320   7.373
    8AU     AUC 2742  27.648  31.394   7.716
    8AU     AUC 2743  27.986  32.124   7.782
    8AU     AUC 2744  28.325  32.079   7.793
    8AU     AUC 2745  27.873  31.191   7.817
    8AU     AUC 2746  28.191  31.138   7.809
    8AU     AUC 2747  27.896  32.057   7.215
    8AU     AUC 2748  28.261  32.073   7.226
    8AU     AUC 2749  27.927  31.159   7.258
    8AU     AUC 2750  28.287  31.204   7.274
    8AU    AUSL 2751  28.586  31.494   8.316
    8AU    AUSL 2752  28.336  31.121   8.222
    8AU     AUL 2753  28.643  31.122   8.389
    8AU    AUSL 2754  28.171  31.436   8.460
    8AU    AUSL 2755  27.933  31.845   8.451
    8AU     AUL 2756  28.169  31.720   8.710
    8AU    AUSL 2757  28.270  31.793   8.204
    8AU    AUSL 2758  28.721  31.852   8.126
    8AU     AUL 2759  28.539  31.817   8.435
    8AU    AUSL 2760  28.494  31.654   6.840
    8AU    AUSL 2761  28.355  32.050   6.981
    8AU     AUL 2762  28.569  31.982   6.681
    8AU    AUSL 2763  28.306  31.332   6.612
    8AU    AUSL 2764  28.813  31.402   6.982
    8AU     AUL 2765  28.681  31.476   6.665
    8AU    AUSL 2766  28.138  31.836   6.670
    8AU    AUSL 2767  27.960  31.450   6.829
    8AU     AUL 2768  28.091  31.529   6.524
    8AU    AUSL 2769  27.549  31.807   8.243
    8AU    AUSL 2770  27.912  32.116   8.111
    8AU     AUL 2771  27.749  32.084   8.412
    8AU    AUSL 2772  27.850  31.494   8.191
    8AU    AUSL 2773  27.401  31.417   8.105
    8AU     AUL 2774  27.458  31.506   8.341
    8AU    AUSL 2775  27.524  31.432   6.795
    8AU    AUSL 2776  27.773  31.082   6.947
    8AU     AUL 2777  27.797  31.168   6.641
    8AU    AUSL 2778  27.710  31.800   6.675
    8AU    AUSL 2779  27.430  31.781   7.050
    8AU     AUL 2780  27.313  31.662   6.776
    8AU    AUSL 2781  28.878  32.089   7.476
    8AU    AUSL 2782  28.753  31.879   7.096
    8AU     AUL 2783  29.048  32.084   7.128
    8AU    AUSL 2784  29.043  31.693   7.367
    8AU    AUSL 2785  28.992  31.395   7.768
    8AU     AUL 2786  29.254  31.479   7.571
    8AU    AUSL 2787  28.765  31.748   7.718
    8AU    AUSL 2788  28.723  32.192   7.853
    8AU     AUL 2789  28.971  31.932   7.878
    8AU    AUSL 2790  27.512  32.269   7.522
    8AU    AUSL 2791  27.549  32.021   7.878
    8AU     AUL 2792  27.240  32.266   7.745
    8AU    AUSL 2793  27.311  31.890   7.444
    8AU    AUSL 2794  27.464  32.206   7.106
    8AU     AUL 2795  27.228  32.131   7.263
    8AU    AUSL 2796  27.184  31.812   7.888
    8AU    AUSL 2797  27.151  31.506   7.349
    8AU     AUL 2798  27.029  31.823   7.590
    8AU    AUSL 2799  28.770  31.046   7.615
    8AU    AUSL 2800  28.596  31.329   7.925
    8AU     AUL 2801  28.903  31.235   8.001
    8AU    AUSL 2802  28.728  31.416   7.397
    8AU    AUSL 2803  28.718  31.014   7.188
    8AU     AUL 2804  28.962  31.224   7.250
    8AU    AUSL 2805  27.304  31.127   7.553
    8AU    AUSL 2806  27.515  31.337   7.205
    8AU     AUL 2807  27.165  31.230   7.213
    8AU    AUSL 2808  27.421  31.528   7.694
    8AU    AUSL 2809  27.611  31.144   7.849
    8AU     AUL 2810  27.230  31.297   7.848
    8AU    AUSL 2811  28.153  32.452   7.966
    8AU    AUSL 2812  27.698  32.431   7.878
    8AU     AUL 2813  27.920  32.476   8.194
    8AU    AUSL 2814  27.985  32.307   7.591
    8AU    AUSL 2815  28.236  32.440   7.247
    8AU     AUL 2816  28.005  32.647   7.554
    8AU    AUSL 2817  28.423  32.383   7.623
    8AU    AUSL 2818  28.417  32.182   8.153
    8AU     AUL 2819  28.536  32.472   7.941
    8AU    AUSL 2820  28.011  30.986   7.970
    8AU    AUSL 2821  28.435  30.927   7.849
    8AU     AUL 2822  28.196  30.865   8.223
    8AU    AUSL 2823  27.703  30.764   7.699
    8AU    AUSL 2824  27.731  31.101   8.274
    8AU     AUL 2825  27.739  30.803   8.050
    8AU    AUSL 2826  28.135  30.689   7.667
    8AU    AUSL 2827  27.928  30.934   7.362
    8AU     AUL 2828  27.811  30.589   7.487
    8AU    AUSL 2829  28.063  32.325   6.843
    8AU    AUSL 2830  28.635  32.303   7.199
    8AU     AUL 2831  28.379  32.413   6.936
    8AU    AUSL 2832  27.814  32.419   7.210
    8AU    AUSL 2833  27.837  32.008   7.014
    8AU     AUL 2834  27.744  32.314   6.856
    8AU    AUSL 2835  28.153  30.882   6.981
    8AU    AUSL 2836  27.520  30.896   7.258
    8AU     AUL 2837  27.816  30.748   7.043
    8AU    AUSL 2838  28.360  30.906   7.381
    8AU    AUSL 2839  28.383  31.239   7.018
    8AU     AUL 2840  28.477  30.866   7.050
    8AU       S 2841  28.608  30.671   8.227
    8AU     LIG 2842  28.655  30.437   8.352
    8AU     LIG 2843  28.777  30.277   8.479
    8AU     LIG 2844  28.935  30.100   8.590
    8AU       S 2845  28.642  31.461   8.719
    8AU     LIG 2846  28.805  31.519   8.921
    8AU     LIG 2847  28.895  31.575   9.146
    8AU     LIG 2848  29.001  31.542   9.383
    8AU       S 2849  28.320  31.268   8.725
    8AU     LIG 2850  28.376  31.174   9.005
    8AU     LIG 2851  28.542  31.190   9.203
    8AU     LIG 2852  28.676  31.145   9.419
    8AU       S 2853  27.695  31.758   8.757
    8AU     LIG 2854  27.658  31.782   9.059
    8AU     LIG 2855  27.540  31.767   9.261
    8AU     LIG 2856  27.392  31.744   9.479
    8AU       S 2857  28.220  32.192   8.566
    8AU     LIG 2858  28.337  32.329   8.771
    8AU     LIG 2859  28.550  32.249   8.933
    8AU     LIG 2860  28.773  32.123   8.947
    8AU       S 2861  28.912  32.084   8.334
    8AU     LIG 2862  29.095  32.124   8.555
    8AU     LIG 2863  29.235  32.281   8.669
    8AU     LIG 2864  29.411  32.457   8.744
    8AU       S 2865  28.513  31.713   6.306
    8AU     LIG 2866  28.728  31.768   6.093
    8AU     LIG 2867  28.862  31.602   5.955
    8AU     LIG 2868  28.922  31.411   5.795
    8AU       S 2869  28.728  32.413   6.652
    8AU     LIG 2870  28.774  32.606   6.462
    8AU     LIG 2871  28.937  32.696   6.288
    8AU     LIG 2872  29.102  32.787   6.123
    8AU       S 2873  28.988  31.124   6.768
    8AU     LIG 2874  29.150  31.037   6.527
    8AU     LIG 2875  29.164  30.818   6.388
    8AU     LIG 2876  29.180  30.563   6.348
    8AU       S 2877  28.434  31.418   6.240
    8AU     LIG 2878  28.456  31.294   6.011
    8AU     LIG 2879  28.443  31.221   5.771
    8AU     LIG 2880  28.514  31.201   5.521
    8AU       S 2881  27.700  31.478   6.303
    8AU     LIG 2882  27.755  31.445   6.024
    8AU     LIG 2883  27.761  31.391   5.795
    8AU     LIG 2884  27.685  31.350   5.540
    8AU       S 2885  28.270  31.859   6.264
    8AU     LIG 2886  28.171  31.793   5.973
    8AU     LIG 2887  28.313  31.718   5.780
    8AU     LIG 2888  28.506  31.710   5.607
    8AU       S 2889  27.419  31.846   8.643
    8AU     LIG 2890  27.208  31.821   8.819
    8AU     LIG 2891  27.154  31.605   8.977
    8AU     LIG 2892  27.084  31.473   9.166
    8AU       S 2893  27.450  32.404   8.268
    8AU     LIG 2894  27.364  32.559   8.501
    8AU     LIG 2895  27.223  32.570   8.694
    8AU     LIG 2896  27.054  32.659   8.877
    8AU       S 2897  27.173  31.138   8.284
    8AU     LIG 2898  26.927  31.069   8.381
    8AU     LIG 2899  26.782  30.877   8.457
    8AU     LIG 2900  26.655  30.695   8.575
    8AU       S 2901  27.744  31.466   8.684
    8AU     LIG 2902  27.667  31.290   8.887
    8AU     LIG 2903  27.554  31.270   9.105
    8AU     LIG 2904  27.509  31.256   9.361
    8AU       S 2905  27.438  31.390   6.418
    8AU     LIG 2906  27.259  31.320   6.208
    8AU     LIG 2907  27.248  31.391   5.957
    8AU     LIG 2908  27.236  31.501   5.737
    8AU       S 2909  27.472  30.842   6.745
    8AU     LIG 2910  27.398  30.655   6.540
    8AU     LIG 2911  27.240  30.613   6.354
    8AU     LIG 2912  27.056  30.564   6.184
    8AU       S 2913  27.102  32.068   6.798
    8AU     LIG 2914  26.895  32.237   6.744
    8AU     LIG 2915  26.843  32.436   6.588
    8AU     LIG 2916  26.819  32.559   6.367
    8AU       S 2917  27.600  31.746   6.393
    8AU     LIG 2918  27.433  31.847   6.139
    8AU     LIG 2919  27.516  31.884   5.913
    8AU     LIG 2920  27.624  31.864   5.679
    8AU       S 2921  28.959  32.227   6.708
    8AU     LIG 2922  29.174  32.273   6.537
    8AU     LIG 2923  29.331  32.385   6.389
    8AU     LIG 2924  29.512  32.504   6.245
    8AU       S 2925  29.211  32.203   7.556
    8AU     LIG 2926  29.424  32.407   7.540
    8AU     LIG 2927  29.668  32.451   7.511
    8AU     LIG 2928  29.921  32.514   7.532
    8AU       S 2929  29.387  31.904   7.388
    8AU     LIG 2930  29.656  31.975   7.293
    8AU     LIG 2931  29.896  32.041   7.306
    8AU     LIG 2932  30.118  32.155   7.226
    8AU       S 2933  29.251  31.025   7.790
    8AU     LIG 2934  29.486  30.923   7.920
    8AU     LIG 2935  29.739  30.918   7.859
    8AU     LIG 2936  29.988  30.886   7.780
    8AU       S 2937  28.948  32.332   8.127
    8AU     LIG 2938  29.143  32.509   8.210
    8AU     LIG 2939  29.188  32.708   8.357
    8AU     LIG 2940  29.207  32.887   8.540
    8AU       S 2941  29.358  31.936   7.663
    8AU     LIG 2942  29.596  32.007   7.814
    8AU     LIG 2943  29.833  32.074   7.811
    8AU     LIG 2944  30.063  32.164   7.878
    8AU       S 2945  27.284  32.181   8.203
    8AU     LIG 2946  27.045  32.173   8.380
    8AU     LIG 2947  26.859  32.312   8.444
    8AU     LIG 2948  26.683  32.431   8.594
    8AU       S 2949  27.451  32.605   7.463
    8AU     LIG 2950  27.291  32.813   7.335
    8AU     LIG 2951  27.045  32.793   7.239
    8AU     LIG 2952  26.857  32.636   7.123
    8AU       S 2953  26.887  31.824   7.139
    8AU     LIG 2954  26.649  31.829   7.071
    8AU     LIG 2955  26.394  31.905   7.141
    8AU     LIG 2956  26.249  32.118   7.163
    8AU       S 2957  27.317  32.478   6.929
    8AU     LIG 2958  27.244  32.686   6.787
    8AU     LIG 2959  27.102  32.865   6.702
    8AU     LIG 2960  26.971  33.020   6.537
    8AU       S 2961  26.798  31.420   7.449
    8AU     LIG 2962  26.521  31.410   7.337
    8AU     LIG 2963  26.278  31.392   7.332
    8AU     LIG 2964  26.044  31.271   7.284
    8AU       S 2965  26.989  31.739   8.097
    8AU     LIG 2966  26.676  31.843   8.182
    8AU     LIG 2967  26.559  32.055   8.094
    8AU     LIG 2968  26.379  32.202   7.968
    8AU       S 2969  28.981  30.855   7.606
    8AU     LIG 2970  29.115  30.553   7.622
    8AU     LIG 2971  29.343  30.487   7.697
    8AU     LIG 2972  29.614  30.473   7.655
    8AU       S 2973  28.825  30.794   8.066
    8AU     LIG 2974  29.072  30.658   8.105
    8AU     LIG 2975  29.202  30.570   8.287
    8AU     LIG 2976  29.249  30.500   8.537
    8AU       S 2977  29.238  31.005   7.519
    8AU     LIG 2978  29.461  30.883   7.383
    8AU     LIG 2979  29.702  30.884   7.343
    8AU     LIG 2980  29.943  30.812   7.280
    8AU       S 2981  28.930  30.862   6.925
    8AU     LIG 2982  28.995  30.602   6.822
    8AU     LIG 2983  28.868  30.379   6.774
    8AU     LIG 2984  28.827  30.160   6.659
    8AU       S 2985  27.295  31.037   6.817
    8AU     LIG 2986  27.062  31.047   6.620
    8AU     LIG 2987  26.885  30.930   6.527
    8AU     LIG 2988  26.679  30.772   6.465
    8AU       S 2989  26.880  31.129   7.583
    8AU     LIG 2990  26.663  30.963   7.588
    8AU     LIG 2991  26.436  30.915   7.482
    8AU     LIG 2992  26.203  30.811   7.441
    8AU       S 2993  27.292  30.908   8.082
    8AU     LIG 2994  27.116  30.700   8.068
    8AU     LIG 2995  26.996  30.514   8.174
    8AU     LIG 2996  26.863  30.328   8.287
    8AU       S 2997  26.822  31.424   7.713
    8AU     LIG 2998  26.588  31.396   7.888
    8AU     LIG 2999  26.349  31.304   7.835
    8AU     LIG 3000  26.140  31.169   7.809
    8AU       S 3001  27.491  32.623   7.989
    8AU     LIG 3002  27.256  32.812   8.062
    8AU     LIG 3003  27.031  32.775   8.206
    8AU     LIG 3004  26.899  32.852   8.412
    8AU       S 3005  28.234  32.809   8.053
    8AU     LIG 3006  28.345  32.996   8.255
    8AU     LIG 3007  28.233  33.186   8.380
    8AU     LIG 3008  28.088  33.387   8.444
    8AU       S 3009  27.996  32.944   7.925
    8AU     LIG 3010  27.907  33.169   7.968
    8AU     LIG 3011  27.881  33.428   7.984
    8AU     LIG 3012  27.890  33.679   8.012
    8AU       S 3013  28.161  32.787   7.131
    8AU     LIG 3014  28.227  33.056   7.146
    8AU     LIG 3015  28.261  33.288   7.130
    8AU     LIG 3016  28.324  33.531   7.042
    8AU       S 3017  28.671  32.299   8.364
    8AU     LIG 3018  28.746  32.518   8.543
    8AU     LIG 3019  28.847  32.599   8.736
    8AU     LIG 3020  28.973  32.617   8.967
    8AU       S 3021  28.373  32.860   7.734
    8AU     LIG 3022  28.405  33.133   7.718
    8AU     LIG 3023  28.380  33.343   7.875
    8AU     LIG 3024  28.392  33.527   8.040
    8AU       S 3025  28.094  30.450   8.062
    8AU     LIG 3026  28.213  30.244   8.213
    8AU     LIG 3027  28.201  30.037   8.334
    8AU     LIG 3028  28.182  29.800   8.434
    8AU       S 3029  28.577  30.683   7.902
    8AU     LIG 3030  28.681  30.379   7.827
    8AU     LIG 3031  28.841  30.245   7.925
    8AU     LIG 3032  29.053  30.145   8.057
    8AU       S 3033  27.842  30.364   7.896
    8AU     LIG 3034  27.793  30.097   7.918
    8AU     LIG 3035  27.815  29.879   8.033
    8AU     LIG 3036  27.805  29.641   8.129
    8AU       S 3037  27.436  30.990   8.386
    8AU     LIG 3038  27.309  30.772   8.570
    8AU     LIG 3039  27.172  30.598   8.640
    8AU     LIG 3040  27.035  30.404   8.762
    8AU       S 3041  28.160  30.460   7.221
    8AU     LIG 3042  28.099  30.132   7.210
    8AU     LIG 3043  28.084  29.936   7.090
    8AU     LIG 3044  28.084  29.669   7.027
    8AU       S 3045  28.174  30.413   7.758
    8AU     LIG 3046  28.274  30.111   7.712
    8AU     LIG 3047  28.287  29.914   7.838
    8AU     LIG 3048  28.281  29.668   7.941
    8AU       S 3049  28.013  32.707   6.835
    8AU     LIG 3050  28.019  32.936   6.681
    8AU     LIG 3051  28.142  33.152   6.641
    8AU     LIG 3052  28.208  33.386   6.564
    8AU       S 3053  28.852  32.483   6.958
    8AU     LIG 3054  29.050  32.687   6.901
    8AU     LIG 3055  29.209  32.761   6.721
    8AU     LIG 3056  29.357  32.883   6.558
    8AU       S 3057  27.810  32.728   7.112
    8AU     LIG 3058  27.698  33.006   7.085
    8AU     LIG 3059  27.755  33.232   6.998
    8AU     LIG 3060  27.829  33.457   6.907
    8AU       S 3061  27.372  32.138   6.654
    8AU     LIG 3062  27.312  32.273   6.415
    8AU     LIG 3063  27.322  32.503   6.319
    8AU     LIG 3064  27.295  32.742   6.239
    8AU       S 3065  27.317  30.806   7.029
    8AU     LIG 3066  27.060  30.633   6.950
    8AU     LIG 3067  26.973  30.491   6.784
    8AU     LIG 3068  26.887  30.318   6.606
    8AU       S 3069  28.230  30.499   6.941
    8AU     LIG 3070  28.347  30.320   6.769
    8AU     LIG 3071  28.320  30.110   6.646
    8AU     LIG 3072  28.244  29.872   6.582
    8AU       S 3073  28.423  30.500   7.324
    8AU     LIG 3074  28.587  30.259   7.293
    8AU     LIG 3075  28.594  30.053   7.128
    8AU     LIG 3076  28.579  29.836   6.984
    8AU       S 3077  28.684  31.009   6.673
    8AU     LIG 3078  28.670  30.831   6.470
    8AU     LIG 3079  28.660  30.603   6.376
    8AU     LIG 3080  28.711  30.400   6.221
    9AU     AUC 3081  31.538  17.465   7.535
    9AU     AUC 3082  31.790  17.470   7.369
    9AU     AUC 3083  31.779  17.457   7.699
    9AU     AUC 3084  31.268  17.473   7.380
    9AU     AUC 3085  31.294  17.502   7.705
    9AU     AUC 3086  31.377  17.718   7.513
    9AU     AUC 3087  31.724  17.730   7.516
    9AU     AUC 3088  31.359  17.211   7.543
    9AU     AUC 3089  31.690  17.189   7.545
    9AU     AUC 3090  31.532  17.305   7.798
    9AU     AUC 3091  31.551  17.645   7.779
    9AU     AUC 3092  31.525  17.292   7.287
    9AU     AUC 3093  31.545  17.598   7.271
    9AU     AUC 3094  32.093  17.461   7.204
    9AU     AUC 3095  32.101  17.441   7.545
    9AU     AUC 3096  32.059  17.428   7.899
    9AU     AUC 3097  30.966  17.447   7.228
    9AU     AUC 3098  30.965  17.506   7.556
    9AU     AUC 3099  30.994  17.545   7.888
    9AU     AUC 3100  31.212  18.031   7.474
    9AU     AUC 3101  31.572  18.005   7.457
    9AU     AUC 3102  31.938  17.993   7.487
    9AU     AUC 3103  31.155  16.922   7.548
    9AU     AUC 3104  31.506  16.898   7.529
    9AU     AUC 3105  31.862  16.887   7.546
    9AU     AUC 3106  31.491  17.139   8.101
    9AU     AUC 3107  31.528  17.481   8.101
    9AU     AUC 3108  31.585  17.845   8.062
    9AU     AUC 3109  31.556  17.102   6.997
    9AU     AUC 3110  31.504  17.443   6.973
    9AU     AUC 3111  31.501  17.766   6.957
    9AU     AUC 3112  31.773  17.243   8.012
    9AU     AUC 3113  31.829  17.619   7.987
    9AU     AUC 3114  31.828  17.305   7.072
    9AU     AUC 3115  31.793  17.617   7.079
    9AU     AUC 3116  31.239  17.363   8.000
    9AU     AUC 3117  31.286  17.713   7.971
    9AU     AUC 3118  31.250  17.262   7.103
    9AU     AUC 3119  31.204  17.590   7.083
    9AU     AUC 3120  32.031  17.733   7.346
    9AU     AUC 3121  31.997  17.730   7.705
    9AU     AUC 3122  31.072  17.745   7.383
    9AU     AUC 3123  31.117  17.811   7.713
    9AU     AUC 3124  31.994  17.182   7.407
    9AU     AUC 3125  31.942  17.136   7.739
    9AU     AUC 3126  31.073  17.159   7.373
    9AU     AUC 3127  31.099  17.233   7.716
    9AU     AUC 3128  31.437  17.963   7.782
    9AU     AUC 3129  31.776  17.918   7.793
    9AU     AUC 3130  31.324  17.030   7.817
    9AU     AUC 3131  31.642  16.977   7.809
    9AU     AUC 3132  31.347  17.896   7.215
    9AU     AUC 3133  31.712  17.912   7.226
    9AU     AUC 3134  31.378  16.998   7.258
    9AU     AUC 3135  31.738  17.043   7.274
    9AU    AUSL 3136  32.037  17.333   8.316
    9AU    AUSL 3137  31.787  16.960   8.222
    9AU     AUL 3138  32.094  16.961   8.389
    9AU    AUSL 3139  31.622  17.275   8.460
    9AU    AUSL 3140  31.384  17.684   8.451
    9AU     AUL 3141  31.620  17.559   8.710
    9AU    AUSL 3142  31.721  17.632   8.204
    9AU    AUSL 3143  32.172  17.691   8.126
    9AU     AUL 3144  31.990  17.656   8.435
    9AU    AUSL 3145  31.945  17.493   6.840
    9AU    AUSL 3146  31.806  17.889   6.981
    9AU     AUL 3147  32.020  17.821   6.681
    9AU    AUSL 3148  31.757  17.171   6.612
    9AU    AUSL 3149  32.264  17.241   6.982
    9AU     AUL 3150  32.132  17.315   6.665
    9AU    AUSL 3151  31.589  17.675   6.670
    9AU    AUSL 3152  31.411  17.289   6.829
    9AU     AUL 3153  31.542  17.368   6.524
    9AU    AUSL 3154  31.000  17.646   8.243
    9AU    AUSL 3155  31.363  17.955   8.111
    9AU     AUL 3156  31.200  17.923   8.412
    9AU    AUSL 3157  31.301  17.333   8.191
    9AU    AUSL 3158  30.852  17.256   8.105
    9AU     AUL 3159  30.909  17.345   8.341
    9AU    AUSL 3160  30.975  17.271   6.795
    9AU    AUSL 3161  31.224  16.921   6.947
    9AU     AUL 3162  31.248  17.007   6.641
    9AU    AUSL 3163  31.161  17.639   6.675
    9AU    AUSL 3164  30.881  17.620   7.050
    9AU     AUL 3165  30.764  17.501   6.776
    9AU    AUSL 3166  32.329  17.928   7.476
    9AU    AUSL 3167  32.204  17.718   7.096
    9AU     AUL 3168  32.499  17.923   7.128
    9AU    AUSL 3169  32.494  17.532   7.367
    9AU    AUSL 3170  32.443  17.234   7.768
    9AU     AUL 3171  32.705  17.318   7.571
    9AU    AUSL 3172  32.216  17.587   7.718
    9AU    AUSL 3173  32.174  18.031   7.853
    9AU     AUL 3174  32.422  17.771   7.878
    9AU    AUSL 3175  30.963  18.108   7.522
    9AU    AUSL 3176  31.000  17.860   7.878
    9AU     AUL 3177  30.691  18.105   7.745
    9AU    AUSL 3178  30.762  17.729   7.444
    9AU    AUSL 3179  30.915  18.045   7.106
    9AU     AUL 3180  30.679  17.970   7.263
    9AU    AUSL 3181  30.635  17.651   7.888
    9AU    AUSL 3182  30.602  17.345   7.349
    9AU     AUL 3183  30.480  17.662   7.590
    9AU    AUSL 3184  32.221  16.885   7.615
    9AU    AUSL 3185  32.047  17.168   7.925
    9AU     AUL 3186  32.354  17.074   8.001
    9AU    AUSL 3187  32.179  17.255   7.397
    9AU    AUSL 3188  32.169  16.853   7.188
    9AU     AUL 3189  32.413  17.063   7.250
    9AU    AUSL 3190  30.755  16.966   7.553
    9AU    AUSL 3191  30.966  17.176   7.205
    9AU     AUL 3192  30.616  17.069   7.213
    9AU    AUSL 3193  30.872  17.367   7.694
    9AU    AUSL 3194  31.062  16.983   7.849
    9AU     AUL 3195  30.681  17.136   7.848
    9AU    AUSL 3196  31.604  18.291   7.966
    9AU    AUSL 3197  31.149  18.270   7.878
    9AU     AUL 3198  31.371  18.315   8.194
    9AU    AUSL 3199  31.436  18.146   7.591
    9AU    AUSL 3200  31.687  18.279   7.247
    9AU     AUL 3201  31.456  18.486   7.554
    9AU    AUSL 3202  31.874  18.222   7.623
    9AU    AUSL 3203  31.868  18.021   8.153
    9AU     AUL 3204  31.987  18.311   7.941
    9AU    AUSL 3205  31.462  16.825   7.970
    9AU    AUSL 3206  31.886  16.766   7.849
    9AU     AUL 3207  31.647  16.704   8.223
    9AU    AUSL 3208  31.154  16.603   7.699
    9AU    AUSL 3209  31.182  16.940   8.274
    9AU     AUL 3210  31.190  16.642   8.050
    9AU    AUSL 3211  31.586  16.528   7.667
    9AU    AUSL 3212  31.379  16.773   7.362
    9AU     AUL 3213  31.262  16.428   7.487
    9AU    AUSL 3214  31.514  18.164   6.843
    9AU    AUSL 3215  32.086  18.142   7.199
    9AU     AUL 3216  31.830  18.252   6.936
    9AU    AUSL 3217  31.265  18.258   7.210
    9AU    AUSL 3218  31.288  17.847   7.014
    9AU     AUL 3219  31.195  18.153   6.856
    9AU    AUSL 3220  31.604  16.721   6.981
    9AU    AUSL 3221  30.971  16.735   7.258
    9AU     AUL 3222  31.267  16.587   7.043
    9AU    AUSL 3223  31.811  16.745   7.381
    9AU    AUSL 3224  31.834  17.078   7.018
    9AU     AUL 3225  31.928  16.705   7.050
    9AU       S 3226  32.059  16.510   8.227
    9AU     LIG 3227  32.106  16.276   8.352
    9AU     LIG 3228  32.228  16.116   8.479
    9AU     LIG 3229  32.386  15.939   8.590
    9AU       S 3230  32.093  17.300   8.719
    9AU     LIG 3231  32.256  17.358   8.921
    9AU     LIG 3232  32.346  17.414   9.146
    9AU     LIG 3233  32.452  17.381   9.383
    9AU       S 3234  31.771  17.107   8.725
    9AU     LIG 3235  31.827  17.013   9.005
    9AU     LIG 3236  31.993  17.029   9.203
    9AU     LIG 3237  32.127  16.984   9.419
    9AU       S 3238  31.146  17.597   8.757
    9AU     LIG 3239  31.109  17.621   9.059
    9AU     LIG 3240  30.991  17.606   9.261
    9AU     LIG 3241  30.843  17.583   9.479
    9AU       S 3242  31.671  18.031   8.566
    9AU     LIG 3243  31.788  18.168   8.771
    9AU     LIG 3244  32.001  18.088   8.933
    9AU     LIG 3245  32.224  17.962   8.947
    9AU       S 3246  32.363  17.923   8.334
    9AU     LIG 3247  32.546  17.963   8.555
    9AU     LIG 3248  32.686  18.120   8.669
    9AU     LIG 3249  32.862  18.296   8.744
    9AU       S 3250  31.964  17.552   6.306
    9AU     LIG 3251  32.179  17.607   6.093
    9AU     LIG 3252  32.313  17.441   5.955
    9AU     LIG 3253  32.373  17.250   5.795
    9AU       S 3254  32.179  18.252   6.652
    9AU     LIG 3255  32.225  18.445   6.462
    9AU     LIG 3256  32.388  18.535   6.288
    9AU     LIG 3257  32.553  18.626   6.123
    9AU       S 3258  32.439  16.963   6.768
    9AU     LIG 3259  32.601  16.876   6.527
    9AU     LIG 3260  32.615  16.657   6.388
    9AU     LIG 3261  32.631  16.402   6.348
    9AU       S 3262  31.885  17.257   6.240
    9AU     LIG 3263  31.907  17.133   6.011
    9AU     LIG 3264  31.894  17.060   5.771
    9AU     LIG 3265  31.965  17.040   5.521
    9AU       S 3266  31.151  17.317   6.303
    9AU     LIG 3267  31.206  17.284   6.024
    9AU     LIG 3268  31.212  17.230   5.795
    9AU     LIG 3269  31.136  17.189   5.540
    9AU       S 3270  31.721  17.698   6.264
    9AU     LIG 3271  31.622  17.632   5.973
    9AU     LIG 3272  31.764  17.557   5.780
    9AU     LIG 3273  31.957  17.549   5.607
    9AU       S 3274  30.870  17.685   8.643
    9AU     LIG 3275  30.659  17.660   8.819
    9AU     LIG 3276  30.605  17.444   8.977
    9AU     LIG 3277  30.535  17.312   9.166
    9AU       S 3278  30.901  18.243   8.268
    9AU     LIG 3279  30.815  18.398   8.501
    9AU     LIG 3280  30.674  18.409   8.694
    9AU     LIG 3281  30.505  18.498   8.877
    9AU       S 3282  30.624  16.977   8.284
    9AU     LIG 3283  30.378  16.908   8.381
    9AU     LIG 3284  30.233  16.716   8.457
    9AU     LIG 3285  30.106  16.534   8.575
    9AU       S 3286  31.195  17.305   8.684
    9AU     LIG 3287  31.118  17.129   8.887
    9AU     LIG 3288  31.005  17.109   9.105
    9AU     LIG 3289  30.960  17.095   9.361
    9AU       S 3290  30.889  17.229   6.418
    9AU     LIG 3291  30.710  17.159   6.208
    9AU     LIG 3292  30.699  17.230   5.957
    9AU     LIG 3293  30.687  17.340   5.737
    9AU       S 3294  30.923  16.681   6.745
    9AU     LIG 3295  30.849  16.494   6.540
    9AU     LIG 3296  30.691  16.452   6.354
    9AU     LIG 3297  30.507  16.403   6.184
    9AU       S 3298  30.553  17.907   6.798
    9AU     LIG 3299  30.346  18.076   6.744
    9AU     LIG 3300  30.294  18.275   6.588
    9AU     LIG 3301  30.270  18.398   6.367
    9AU       S 3302  31.051  17.585   6.393
    9AU     LIG 3303  30.884  17.686   6.139
    9AU     LIG 3304  30.967  17.723   5.913
    9AU     LIG 3305  31.075  17.703   5.679
    9AU       S 3306  32.410  18.066   6.708
    9AU     LIG 3307  32.625  18.112   6.537
    9AU     LIG 3308  32.782  18.224   6.389
    9AU     LIG 3309  32.963  18.343   6.245
    9AU       S 3310  32.662  18.042   7.556
    9AU     LIG 3311  32.875  18.246   7.540
    9AU     LIG 3312  33.119  18.290   7.511
    9AU     LIG 3313  33.372  18.353   7.532
    9AU       S 3314  32.838  17.743   7.388
    9AU     LIG 3315  33.107  17.814   7.293
    9AU     LIG 3316  33.347  17.880   7.306
    9AU     LIG 3317  33.569  17.994   7.226
    9AU       S 3318  32.702  16.864   7.790
    9AU     LIG 3319  32.937  16.762   7.920
    9AU     LIG 3320  33.190  16.757   7.859
    9AU     LIG 3321  33.439  16.725   7.780
    9AU       S 3322  32.399  18.171   8.127
    9AU     LIG 3323  32.594  18.348   8.210
    9AU     LIG 3324  32.639  18.547   8.357
    9AU     LIG 3325  32.658  18.726   8.540
    9AU       S 3326  32.809  17.775   7.663
    9AU     LIG 3327  33.047  17.846   7.814
    9AU     LIG 3328  33.284  17.913   7.811
    9AU     LIG 3329  33.514  18.003   7.878
    9AU       S 3330  30.735  18.020   8.203
    9AU     LIG 3331  30.496  18.012   8.380
    9AU     LIG 3332  30.310  18.151   8.444
    9AU     LIG 3333  30.134  18.270   8.594
    9AU       S 3334  30.902  18.444   7.463
    9AU     LIG 3335  30.742  18.652   7.335
    9AU     LIG 3336  30.496  18.632   7.239
    9AU     LIG 3337  30.308  18.475   7.123
    9AU       S 3338  30.338  17.663   7.139
    9AU     LIG 3339  30.100  17.668   7.071
    9AU     LIG 3340  29.845  17.744   7.141
    9AU     LIG 3341  29.700  17.957   7.163
    9AU       S 3342  30.768  18.317   6.929
    9AU     LIG 3343  30.695  18.525   6.787
    9AU     LIG 3344  30.553  18.704   6.702
    9AU     LIG 3345  30.422  18.859   6.537
    9AU       S 3346  30.249  17.259   7.449
    9AU     LIG 3347  29.972  17.249   7.337
    9AU     LIG 3348  29.729  17.231   7.332
    9AU     LIG 3349  29.495  17.110   7.284
    9AU       S 3350  30.440  17.578   8.097
    9AU     LIG 3351  30.127  17.682   8.182
    9AU     LIG 3352  30.010  17.894   8.094
    9AU     LIG 3353  29.830  18.041   7.968
    9AU       S 3354  32.432  16.694   7.606
    9AU     LIG 3355  32.566  16.392   7.622
    9AU     LIG 3356  32.794  16.326   7.697
    9AU     LIG 3357  33.065  16.312   7.655
    9AU       S 3358  32.276  16.633   8.066
    9AU     LIG 3359  32.523  16.497   8.105
    9AU     LIG 3360  32.653  16.409   8.287
    9AU     LIG 3361  32.700  16.339   8.537
    9AU       S 3362  32.689  16.844   7.519
    9AU     LIG 3363  32.912  16.722   7.383
    9AU     LIG 3364  33.153  16.723   7.343
    9AU     LIG 3365  33.394  16.651   7.280
    9AU       S 3366  32.381  16.701   6.925
    9AU     LIG 3367  32.446  16.441   6.822
    9AU     LIG 3368  32.319  16.218   6.774
    9AU     LIG 3369  32.278  15.999   6.659
    9AU       S 3370  30.746  16.876   6.817
    9AU     LIG 3371  30.513  16.886   6.620
    9AU     LIG 3372  30.336  16.769   6.527
    9AU     LIG 3373  30.130  16.611   6.465
    9AU       S 3374  30.331  16.968   7.583
    9AU     LIG 3375  30.114  16.802   7.588
    9AU     LIG 3376  29.887  16.754   7.482
    9AU     LIG 3377  29.654  16.650   7.441
    9AU       S 3378  30.743  16.747   8.082
    9AU     LIG 3379  30.567  16.539   8.068
    9AU     LIG 3380  30.447  16.353   8.174
    9AU     LIG 3381  30.314  16.167   8.287
    9AU       S 3382  30.273  17.263   7.713
    9AU     LIG 3383  30.039  17.235   7.888
    9AU     LIG 3384  29.800  17.143   7.835
    9AU     LIG 3385  29.591  17.008   7.809
    9AU       S 3386  30.942  18.462   7.989
    9AU     LIG 3387  30.707  18.651   8.062
    9AU     LIG 3388  30.482  18.614   8.206
    9AU     LIG 3389  30.350  18.691   8.412
    9AU       S 3390  31.685  18.648   8.053
    9AU     LIG 3391  31.796  18.835   8.255
    9AU     LIG 3392  31.684  19.025   8.380
    9AU     LIG 3393  31.539  19.226   8.444
    9AU       S 3394  31.447  18.783   7.925
    9AU     LIG 3395  31.358  19.008   7.968
    9AU     LIG 3396  31.332  19.267   7.984
    9AU     LIG 3397  31.341  19.518   8.012
    9AU       S 3398  31.612  18.626   7.131
    9AU     LIG 3399  31.678  18.895   7.146
    9AU     LIG 3400  31.712  19.127   7.130
    9AU     LIG 3401  31.775  19.370   7.042
    9AU       S 3402  32.122  18.138   8.364
    9AU     LIG 3403  32.197  18.357   8.543
    9AU     LIG 3404  32.298  18.438   8.736
    9AU     LIG 3405  32.424  18.456   8.967
    9AU       S 3406  31.824  18.699   7.734
    9AU     LIG 3407  31.856  18.972   7.718
    9AU     LIG 3408  31.831  19.182   7.875
    9AU     LIG 3409  31.843  19.366   8.040
    9AU       S 3410  31.545  16.289   8.062
    9AU     LIG 3411  31.664  16.083   8.213
    9AU     LIG 3412  31.652  15.876   8.334
    9AU     LIG 3413  31.633  15.639   8.434
    9AU       S 3414  32.028  16.522   7.902
    9AU     LIG 3415  32.132  16.218   7.827
    9AU     LIG 3416  32.292  16.084   7.925
    9AU     LIG 3417  32.504  15.984   8.057
    9AU       S 3418  31.293  16.203   7.896
    9AU     LIG 3419  31.244  15.936   7.918
    9AU     LIG 3420  31.266  15.718   8.033
    9AU     LIG 3421  31.256  15.480   8.129
    9AU       S 3422  30.887  16.829   8.386
    9AU     LIG 3423  30.760  16.611   8.570
    9AU     LIG 3424  30.623  16.437   8.640
    9AU     LIG 3425  30.486  16.243   8.762
    9AU       S 3426  31.611  16.299   7.221
    9AU     LIG 3427  31.550  15.971   7.210
    9AU     LIG 3428  31.535  15.775   7.090
    9AU     LIG 3429  31.535  15.508   7.027
    9AU       S 3430  31.625  16.252   7.758
    9AU     LIG 3431  31.725  15.950   7.712
    9AU     LIG 3432  31.738  15.753   7.838
    9AU     LIG 3433  31.732  15.507   7.941
    9AU       S 3434  31.464  18.546   6.835
    9AU     LIG 3435  31.470  18.775   6.681
    9AU     LIG 3436  31.593  18.991   6.641
    9AU     LIG 3437  31.659  19.225   6.564
    9AU       S 3438  32.303  18.322   6.958
    9AU     LIG 3439  32.501  18.526   6.901
    9AU     LIG 3440  32.660  18.600   6.721
    9AU     LIG 3441  32.808  18.722   6.558
    9AU       S 3442  31.261  18.567   7.112
    9AU     LIG 3443  31.149  18.845   7.085
    9AU     LIG 3444  31.206  19.071   6.998
    9AU     LIG 3445  31.280  19.296   6.907
    9AU       S 3446  30.823  17.977   6.654
    9AU     LIG 3447  30.763  18.112   6.415
    9AU     LIG 3448  30.773  18.342   6.319
    9AU     LIG 3449  30.746  18.581   6.239
    9AU       S 3450  30.768  16.645   7.029
    9AU     LIG 3451  30.511  16.472   6.950
    9AU     LIG 3452  30.424  16.330   6.784
    9AU     LIG 3453  30.338  16.157   6.606
    9AU       S 3454  31.681  16.338   6.941
    9AU     LIG 3455  31.798  16.159   6.769
    9AU     LIG 3456  31.771  15.949   6.646
    9AU     LIG 3457  31.695  15.711   6.582
    9AU       S 3458  31.874  16.339   7.324
    9AU     LIG 3459  32.038  16.098   7.293
    9AU     LIG 3460  32.045  15.892   7.128
    9AU     LIG 3461  32.030  15.675   6.984
    9AU       S 3462  32.135  16.848   6.673
    9AU     LIG 3463  32.121  16.670   6.470
    9AU     LIG 3464  32.111  16.442   6.376
    9AU     LIG 3465  32.162  16.239   6.221
   10AU     AUC 3466  17.298   0.680   7.535
   10AU     AUC 3467  17.550   0.685   7.369
   10AU     AUC 3468  17.539   0.672   7.699
   10AU     AUC 3469  17.028   0.688   7.380
   10AU     AUC 3470  17.054   0.717   7.705
   10AU     AUC 3471  17.137   0.933   7.513
   10AU     AUC 3472  17.484   0.945   7.516
   10AU     AUC 3473  17.119   0.426   7.543
   10AU     AUC 3474  17.450   0.404   7.545
   10AU     AUC 3475  17.292   0.520   7.798
   10AU     AUC 3476  17.311   0.860   7.779
   10AU     AUC 3477  17.285   0.507   7.287
   10AU     AUC 3478  17.305   0.813   7.271
   10AU     AUC 3479  17.853   0.676   7.204
   10AU     AUC 3480  17.861   0.656   7.545
   10AU     AUC 3481  17.819   0.643   7.899
   10AU     AUC 3482  16.726   0.662   7.228
   10AU     AUC 3483  16.725   0.721   7.556
   10AU     AUC 3484  16.754   0.760   7.888
   10AU     AUC 3485  16.972   1.246   7.474
   10AU     AUC 3486  17.332   1.220   7.457
   10AU     AUC 3487  17.698   1.208   7.487
   10AU     AUC 3488  16.915   0.137   7.548
   10AU     AUC 3489  17.266   0.113   7.529
   10AU     AUC 3490  17.622   0.102   7.546
   10AU     AUC 3491  17.251   0.354   8.101
   10AU     AUC 3492  17.288   0.696   8.101
   10AU     AUC 3493  17.345   1.060   8.062
   10AU     AUC 3494  17.316   0.317   6.997
   10AU     AUC 3495  17.264   0.658   6.973
   10AU     AUC 3496  17.261   0.981   6.957
   10AU     AUC 3497  17.533   0.458   8.012
   10AU     AUC 3498  17.589   0.834   7.987
   10AU     AUC 3499  17.588   0.520   7.072
   10AU     AUC 3500  17.553   0.832   7.079
   10AU     AUC 3501  16.999   0.578   8.000
   10AU     AUC 3502  17.046   0.928   7.971
   10AU     AUC 3503  17.010   0.477   7.103
   10AU     AUC 3504  16.964   0.805   7.083
   10AU     AUC 3505  17.791   0.948   7.346
   10AU     AUC 3506  17.757   0.945   7.705
   10AU     AUC 3507  16.832   0.960   7.383
   10AU     AUC 3508  16.877   1.026   7.713
   10AU     AUC 3509  17.754   0.397   7.407
   10AU     AUC 3510  17.702   0.351   7.739
   10AU     AUC 3511  16.833   0.374   7.373
   10AU     AUC 3512  16.859   0.448   7.716
   10AU     AUC 3513  17.197   1.178   7.782
   10AU     AUC 3514  17.536   1.133   7.793
   10AU     AUC 3515  17.084   0.245   7.817
   10AU     AUC 3516  17.402   0.192   7.809
   10AU     AUC 3517  17.107   1.111   7.215
   10AU     AUC 3518  17.472   1.127   7.226
   10AU     AUC 3519  17.138   0.213   7.258
   10AU     AUC 3520  17.498   0.258   7.274
   10AU    AUSL 3521  17.797   0.548   8.316
   10AU    AUSL 3522  17.547   0.175   8.222
   10AU     AUL 3523  17.854   0.176   8.389
   10AU    AUSL 3524  17.382   0.490   8.460
   10AU    AUSL 3525  17.144   0.899   8.451
   10AU     AUL 3526  17.380   0.774   8.710
   10AU    AUSL 3527  17.481   0.847   8.204
   10AU    AUSL 3528  17.932   0.906   8.126
   10AU     AUL 3529  17.750   0.871   8.435
   10AU    AUSL 3530  17.705   0.708   6.840
   10AU    AUSL 3531  17.566   1.104   6.981
   10AU     AUL 3532  17.780   1.036   6.681
   10AU    AUSL 3533  17.517   0.386   6.612
   10AU    AUSL 3534  18.024   0.456   6.982
   10AU     AUL 3535  17.892   0.530   6.665
   10AU    AUSL 3536  17.349   0.890   6.670
   10AU    AUSL 3537  17.171   0.504   6.829
   10AU     AUL 3538  17.302   0.583   6.524
   10AU    AUSL 3539  16.760   0.861   8.243
   10AU    AUSL 3540  17.123   1.170   8.111
   10AU     AUL 3541  16.960   1.138   8.412
   10AU    AUSL 3542  17.061   0.548   8.191
   10AU    AUSL 3543  16.612   0.471   8.105
   10AU     AUL 3544  16.669   0.560   8.341
   10AU    AUSL 3545  16.735   0.486   6.795
   10AU    AUSL 3546  16.984   0.136   6.947
   10AU     AUL 3547  17.008   0.222   6.641
   10AU    AUSL 3548  16.921   0.854   6.675
   10AU    AUSL 3549  16.641   0.835   7.050
   10AU     AUL 3550  16.524   0.716   6.776
   10AU    AUSL 3551  18.089   1.143   7.476
   10AU    AUSL 3552  17.964   0.933   7.096
   10AU     AUL 3553  18.259   1.138   7.128
   10AU    AUSL 3554  18.254   0.747   7.367
   10AU    AUSL 3555  18.203   0.449   7.768
   10AU     AUL 3556  18.465   0.533   7.571
   10AU    AUSL 3557  17.976   0.802   7.718
   10AU    AUSL 3558  17.934   1.246   7.853
   10AU     AUL 3559  18.182   0.986   7.878
   10AU    AUSL 3560  16.723   1.323   7.522
   10AU    AUSL 3561  16.760   1.075   7.878
   10AU     AUL 3562  16.451   1.320   7.745
   10AU    AUSL 3563  16.522   0.944   7.444
   10AU    AUSL 3564  16.675   1.260   7.106
   10AU     AUL 3565  16.439   1.185   7.263
   10AU    AUSL 3566  16.395   0.866   7.888
   10AU    AUSL 3567  16.362   0.560   7.349
   10AU     AUL 3568  16.240   0.877   7.590
   10AU    AUSL 3569  17.981   0.100   7.615
   10AU    AUSL 3570  17.807   0.383   7.925
   10AU     AUL 3571  18.114   0.289   8.001
   10AU    AUSL 3572  17.939   0.470   7.397
   10AU    AUSL 3573  17.929   0.068   7.188
   10AU     AUL 3574  18.173   0.278   7.250
   10AU    AUSL 3575  16.515   0.181   7.553
   10AU    AUSL 3576  16.726   0.391   7.205
   10AU     AUL 3577  16.376   0.284   7.213
   10AU    AUSL 3578  16.632   0.582   7.694
   10AU    AUSL 3579  16.822   0.198   7.849
   10AU     AUL 3580  16.441   0.351   7.848
   10AU    AUSL 3581  17.364   1.506   7.966
   10AU    AUSL 3582  16.909   1.485   7.878
   10AU     AUL 3583  17.131   1.530   8.194
   10AU    AUSL 3584  17.196   1.361   7.591
   10AU    AUSL 3585  17.447   1.494   7.247
   10AU     AUL 3586  17.216   1.701   7.554
   10AU    AUSL 3587  17.634   1.437   7.623
   10AU    AUSL 3588  17.628   1.236   8.153
   10AU     AUL 3589  17.747   1.526   7.941
   10AU    AUSL 3590  17.222   0.040   7.970
   10AU    AUSL 3591  17.646  -0.019   7.849
   10AU     AUL 3592  17.407  -0.081   8.223
   10AU    AUSL 3593  16.914  -0.182   7.699
   10AU    AUSL 3594  16.942   0.155   8.274
   10AU     AUL 3595  16.950  -0.143   8.050
   10AU    AUSL 3596  17.346  -0.257   7.667
   10AU    AUSL 3597  17.139  -0.012   7.362
   10AU     AUL 3598  17.022  -0.357   7.487
   10AU    AUSL 3599  17.274   1.379   6.843
   10AU    AUSL 3600  17.846   1.357   7.199
   10AU     AUL 3601  17.590   1.467   6.936
   10AU    AUSL 3602  17.025   1.473   7.210
   10AU    AUSL 3603  17.048   1.062   7.014
   10AU     AUL 3604  16.955   1.368   6.856
   10AU    AUSL 3605  17.364  -0.064   6.981
   10AU    AUSL 3606  16.731  -0.050   7.258
   10AU     AUL 3607  17.027  -0.198   7.043
   10AU    AUSL 3608  17.571  -0.040   7.381
   10AU    AUSL 3609  17.594   0.293   7.018
   10AU     AUL 3610  17.688  -0.080   7.050
   10AU       S 3611  17.819  -0.275   8.227
   10AU     LIG 3612  17.866  -0.509   8.352
   10AU     LIG 3613  17.988  -0.669   8.479
   10AU     LIG 3614  18.146  -0.846   8.590
   10AU       S 3615  17.853   0.515   8.719
   10AU     LIG 3616  18.016   0.573   8.921
   10AU     LIG 3617  18.106   0.629   9.146
   10AU     LIG 3618  18.212   0.596   9.383
   10AU       S 3619  17.531   0.322   8.725
   10AU     LIG 3620  17.587   0.228   9.005
   10AU     LIG 3621  17.753   0.244   9.203
   10AU     LIG 3622  17.887   0.199   9.419
   10AU       S 3623  16.906   0.812   8.757
   10AU     LIG 3624  16.869   0.836   9.059
   10AU     LIG 3625  16.751   0.821   9.261
   10AU     LIG 3626  16.603   0.798   9.479
   10AU       S 3627  17.431   1.246   8.566
   10AU     LIG 3628  17.548   1.383   8.771
   10AU     LIG 3629  17.761   1.303   8.933
   10AU     LIG 3630  17.984   1.177   8.947
   10AU       S 3631  18.123   1.138   8.334
   10AU     LIG 3632  18.306   1.178   8.555
   10AU     LIG 3633  18.446   1.335   8.669
   10AU     LIG 3634  18.622   1.511   8.744
   10AU       S 3635  17.724   0.767   6.306
   10AU     LIG 3636  17.939   0.822   6.093
   10AU     LIG 3637  18.073   0.656   5.955
   10AU     LIG 3638  18.133   0.465   5.795
   10AU       S 3639  17.939   1.467   6.652
   10AU     LIG 3640  17.985   1.660   6.462
   10AU     LIG 3641  18.148   1.750   6.288
   10AU     LIG 3642  18.313   1.841   6.123
   10AU       S 3643  18.199   0.178   6.768
   10AU     LIG 3644  18.361   0.091   6.527
   10AU     LIG 3645  18.375  -0.128   6.388
   10AU     LIG 3646  18.391  -0.383   6.348
   10AU       S 3647  17.645   0.472   6.240
   10AU     LIG 3648  17.667   0.348   6.011
   10AU     LIG 3649  17.654   0.275   5.771
   10AU     LIG 3650  17.725   0.255   5.521
   10AU       S 3651  16.911   0.532   6.303
   10AU     LIG 3652  16.966   0.499   6.024
   10AU     LIG 3653  16.972   0.445   5.795
   10AU     LIG 3654  16.896   0.404   5.540
   10AU       S 3655  17.481   0.913   6.264
   10AU     LIG 3656  17.382   0.847   5.973
   10AU     LIG 3657  17.524   0.772   5.780
   10AU     LIG 3658  17.717   0.764   5.607
   10AU       S 3659  16.630   0.900   8.643
   10AU     LIG 3660  16.419   0.875   8.819
   10AU     LIG 3661  16.365   0.659   8.977
   10AU     LIG 3662  16.295   0.527   9.166
   10AU       S 3663  16.661   1.458   8.268
   10AU     LIG 3664  16.575   1.613   8.501
   10AU     LIG 3665  16.434   1.624   8.694
   10AU     LIG 3666  16.265   1.713   8.877
   10AU       S 3667  16.384   0.192   8.284
   10AU     LIG 3668  16.138   0.123   8.381
   10AU     LIG 3669  15.993  -0.069   8.457
   10AU     LIG 3670  15.866  -0.251   8.575
   10AU       S 3671  16.955   0.520   8.684
   10AU     LIG 3672  16.878   0.344   8.887
   10AU     LIG 3673  16.765   0.324   9.105
   10AU     LIG 3674  16.720   0.310   9.361
   10AU       S 3675  16.649   0.444   6.418
   10AU     LIG 3676  16.470   0.374   6.208
   10AU     LIG 3677  16.459   0.445   5.957
   10AU     LIG 3678  16.447   0.555   5.737
   10AU       S 3679  16.683  -0.104   6.745
   10AU     LIG 3680  16.609  -0.291   6.540
   10AU     LIG 3681  16.451  -0.333   6.354
   10AU     LIG 3682  16.267  -0.382   6.184
   10AU       S 3683  16.313   1.122   6.798
   10AU     LIG 3684  16.106   1.291   6.744
   10AU     LIG 3685  16.054   1.490   6.588
   10AU     LIG 3686  16.030   1.613   6.367
   10AU       S 3687  16.811   0.800   6.393
   10AU     LIG 3688  16.644   0.901   6.139
   10AU     LIG 3689  16.727   0.938   5.913
   10AU     LIG 3690  16.835   0.918   5.679
   10AU       S 3691  18.170   1.281   6.708
   10AU     LIG 3692  18.385   1.327   6.537
   10AU     LIG 3693  18.542   1.439   6.389
   10AU     LIG 3694  18.723   1.558   6.245
   10AU       S 3695  18.422   1.257   7.556
   10AU     LIG 3696  18.635   1.461   7.540
   10AU     LIG 3697  18.879   1.505   7.511
   10AU     LIG 3698  19.132   1.568   7.532
   10AU       S 3699  18.598   0.958   7.388
   10AU     LIG 3700  18.867   1.029   7.293
   10AU     LIG 3701  19.107   1.095   7.306
   10AU     LIG 3702  19.329   1.209   7.226
   10AU       S 3703  18.462   0.079   7.790
   10AU     LIG 3704  18.697  -0.023   7.920
   10AU     LIG 3705  18.950  -0.028   7.859
   10AU     LIG 3706  19.199  -0.060   7.780
   10AU       S 3707  18.159   1.386   8.127
   10AU     LIG 3708  18.354   1.563   8.210
   10AU     LIG 3709  18.399   1.762   8.357
   10AU     LIG 3710  18.418   1.941   8.540
   10AU       S 3711  18.569   0.990   7.663
   10AU     LIG 3712  18.807   1.061   7.814
   10AU     LIG 3713  19.044   1.128   7.811
   10AU     LIG 3714  19.274   1.218   7.878
   10AU       S 3715  16.495   1.235   8.203
   10AU     LIG 3716  16.256   1.227   8.380
   10AU     LIG 3717  16.070   1.366   8.444
   10AU     LIG 3718  15.894   1.485   8.594
   10AU       S 3719  16.662   1.659   7.463
   10AU     LIG 3720  16.502   1.867   7.335
   10AU     LIG 3721  16.256   1.847   7.239
   10AU     LIG 3722  16.068   1.690   7.123
   10AU       S 3723  16.098   0.878   7.139
   10AU     LIG 3724  15.860   0.883   7.071
   10AU     LIG 3725  15.605   0.959   7.141
   10AU     LIG 3726  15.460   1.172   7.163
   10AU       S 3727  16.528   1.532   6.929
   10AU     LIG 3728  16.455   1.740   6.787
   10AU     LIG 3729  16.313   1.919   6.702
   10AU     LIG 3730  16.182   2.074   6.537
   10AU       S 3731  16.009   0.474   7.449
   10AU     LIG 3732  15.732   0.464   7.337
   10AU     LIG 3733  15.489   0.446   7.332
   10AU     LIG 3734  15.255   0.325   7.284
   10AU       S 3735  16.200   0.793   8.097
   10AU     LIG 3736  15.887   0.897   8.182
   10AU     LIG 3737  15.770   1.109   8.094
   10AU     LIG 3738  15.590   1.256   7.968
   10AU       S 3739  18.192  -0.091   7.606
   10AU     LIG 3740  18.326  -0.393   7.622
   10AU     LIG 3741  18.554  -0.459   7.697
   10AU     LIG 3742  18.825  -0.473   7.655
   10AU       S 3743  18.036  -0.152   8.066
   10AU     LIG 3744  18.283  -0.288   8.105
   10AU     LIG 3745  18.413  -0.376   8.287
   10AU     LIG 3746  18.460  -0.446   8.537
   10AU       S 3747  18.449   0.059   7.519
   10AU     LIG 3748  18.672  -0.063   7.383
   10AU     LIG 3749  18.913  -0.062   7.343
   10AU     LIG 3750  19.154  -0.134   7.280
   10AU       S 3751  18.141  -0.084   6.925
   10AU     LIG 3752  18.206  -0.344   6.822
   10AU     LIG 3753  18.079  -0.567   6.774
   10AU     LIG 3754  18.038  -0.786   6.659
   10AU       S 3755  16.506   0.091   6.817
   10AU     LIG 3756  16.273   0.101   6.620
   10AU     LIG 3757  16.096  -0.016   6.527
   10AU     LIG 3758  15.890  -0.174   6.465
   10AU       S 3759  16.091   0.183   7.583
   10AU     LIG 3760  15.874   0.017   7.588
   10AU     LIG 3761  15.647  -0.031   7.482
   10AU     LIG 3762  15.414  -0.135   7.441
   10AU       S 3763  16.503  -0.038   8.082
   10AU     LIG 3764  16.327  -0.246   8.068
   10AU     LIG 3765  16.207  -0.432   8.174
   10AU     LIG 3766  16.074  -0.618   8.287
   10AU       S 3767  16.033   0.478   7.713
   10AU     LIG 3768  15.799   0.450   7.888
   10AU     LIG 3769  15.560   0.358   7.835
   10AU     LIG 3770  15.351   0.223   7.809
   10AU       S 3771  16.702   1.677   7.989
   10AU     LIG 3772  16.467   1.866   8.062
   10AU     LIG 3773  16.242   1.829   8.206
   10AU     LIG 3774  16.110   1.906   8.412
   10AU       S 3775  17.445   1.863   8.053
   10AU     LIG 3776  17.556   2.050   8.255
   10AU     LIG 3777  17.444   2.240   8.380
   10AU     LIG 3778  17.299   2.441   8.444
   10AU       S 3779  17.207   1.998   7.925
   10AU     LIG 3780  17.118   2.223   7.968
   10AU     LIG 3781  17.092   2.482   7.984
   10AU     LIG 3782  17.101   2.733   8.012
   10AU       S 3783  17.372   1.841   7.131
   10AU     LIG 3784  17.438   2.110   7.146
   10AU     LIG 3785  17.472   2.342   7.130
   10AU     LIG 3786  17.535   2.585   7.042
   10AU       S 3787  17.882   1.353   8.364
   10AU     LIG 3788  17.957   1.572   8.543
   10AU     LIG 3789  18.058   1.653   8.736
   10AU     LIG 3790  18.184   1.671   8.967
   10AU       S 3791  17.584   1.914   7.734
   10AU     LIG 3792  17.616   2.187   7.718
   10AU     LIG 3793  17.591   2.397   7.875
   10AU     LIG 3794  17.603   2.581   8.040
   10AU       S 3795  17.305  -0.496   8.062
   10AU     LIG 3796  17.424  -0.702   8.213
   10AU     LIG 3797  17.412  -0.909   8.334
   10AU     LIG 3798  17.393  -1.146   8.434
   10AU       S 3799  17.788  -0.263   7.902
   10AU     LIG 3800  17.892  -0.567   7.827
   10AU     LIG 3801  18.052  -0.701   7.925
   10AU     LIG 3802  18.264  -0.801   8.057
   10AU       S 3803  17.053  -0.582   7.896
   10AU     LIG 3804  17.004  -0.849   7.918
   10AU     LIG 3805  17.026  -1.067   8.033
   10AU     LIG 3806  17.016  -1.305   8.129
   10AU       S 3807  16.647   0.044   8.386
   10AU     LIG 3808  16.520  -0.174   8.570
   10AU     LIG 3809  16.383  -0.348   8.640
   10AU     LIG 3810  16.246  -0.542   8.762
   10AU       S 3811  17.371  -0.486   7.221
   10AU     LIG 3812  17.310  -0.814   7.210
   10AU     LIG 3813  17.295  -1.010   7.090
   10AU     LIG 3814  17.295  -1.277   7.027
   10AU       S 3815  17.385  -0.533   7.758
   10AU     LIG 3816  17.485  -0.835   7.712
   10AU     LIG 3817  17.498  -1.032   7.838
   10AU     LIG 3818  17.492  -1.278   7.941
   10AU       S 3819  17.224   1.761   6.835
   10AU     LIG 3820  17.230   1.990   6.681
   10AU     LIG 3821  17.353   2.206   6.641
   10AU     LIG 3822  17.419   2.440   6.564
   10AU       S 3823  18.063   1.537   6.958
   10AU     LIG 3824  18.261   1.741   6.901
   10AU     LIG 3825  18.420   1.815   6.721
   10AU     LIG 3826  18.568   1.937   6.558
   10AU       S 3827  17.021   1.782   7.112
   10AU     LIG 3828  16.909   2.060   7.085
   10AU     LIG 3829  16.966   2.286   6.998
   10AU     LIG 3830  17.040   2.511   6.907
   10AU       S 3831  16.583   1.192   6.654
   10AU     LIG 3832  16.523   1.327   6.415
   10AU     LIG 3833  16.533   1.557   6.319
   10AU     LIG 3834  16.506   1.796   6.239
   10AU       S 3835  16.528  -0.140   7.029
   10AU     LIG 3836  16.271  -0.313   6.950
   10AU     LIG 3837  16.184  -0.455   6.784
   10AU     LIG 3838  16.098  -0.628   6.606
   10AU       S 3839  17.441  -0.447   6.941
   10AU     LIG 3840  17.558  -0.626   6.769
   10AU     LIG 3841  17.531  -0.836   6.646
   10AU     LIG 3842  17.455  -1.074   6.582
   10AU       S 3843  17.634  -0.446   7.324
   10AU     LIG 3844  17.798  -0.687   7.293
   10AU     LIG 3845  17.805  -0.893   7.128
   10AU     LIG 3846  17.790  -1.110   6.984
   10AU       S 3847  17.895   0.063   6.673
   10AU     LIG 3848  17.881  -0.115   6.470
   10AU     LIG 3849  17.871  -0.343   6.376
   10AU     LIG 3850  17.922  -0.546   6.221
   11POPC   NC3 3851  43.118  27.576   9.464
   11POPC   PO4 3852  43.061  27.628   9.164
   11POPC   GL1 3853  43.094  27.564   8.864
   11POPC   GL2 3854  43.185  27.468   8.864
   11POPC   C1A 3855  43.089  27.594   8.564
   11POPC   D2A 3856  43.082  27.550   8.264
   11POPC   C3A 3857  43.141  27.556   7.964
   11POPC   C4A 3858  43.086  27.570   7.664
   11POPC   C1B 3859  43.264  27.374   8.564
   11POPC   C2B 3860  43.247  27.382   8.264
   11POPC   C3B 3861  43.256  27.444   7.964
   11POPC   C4B 3862  43.313  27.404   7.664
   12POPC   NC3 3863  18.309  11.280   9.464
   12POPC   PO4 3864  18.241  11.320   9.164
   12POPC   GL1 3865  18.276  11.319   8.864
   12POPC   GL2 3866  18.397  11.285   8.864
   12POPC   C1A 3867  18.259  11.289   8.564
   12POPC   D2A 3868  18.304  11.316   8.264
   12POPC   C3A 3869  18.238  11.327   7.964
   12POPC   C4A 3870  18.235  11.276   7.664
   12POPC   C1B 3871  18.522  11.367   8.564
   12POPC   C2B 3872  18.509  11.282   8.264
   12POPC   C3B 3873  18.493  11.340   7.964
   12POPC   C4B 3874  18.554  11.375   7.664
   13POPC   NC3 3875   0.465  25.274   9.464
   13POPC   PO4 3876   0.480  25.301   9.164
   13POPC   GL1 3877   0.400  25.238   8.864
   13POPC   GL2 3878   0.470  25.375   8.864
   13POPC   C1A 3879   0.414  25.269   8.564
   13POPC   D2A 3880   0.463  25.285   8.264
   13POPC   C3A 3881   0.413  25.310   7.964
   13POPC   C4A 3882   0.484  25.253   7.664
   13POPC   C1B 3883   0.499  25.498   8.564
   13POPC   C2B 3884   0.494  25.526   8.264
   13POPC   C3B 3885   0.446  25.500   7.964
   13POPC   C4B 3886   0.425  25.478   7.664
   14POPC   NC3 3887  43.116   2.026   9.464
   14POPC   PO4 3888  43.081   1.998   9.164
   14POPC   GL1 3889  43.109   1.995   8.864
   14POPC   GL2 3890  43.177   2.081   8.864
   14POPC   C1A 3891  43.113   1.960   8.564
   14POPC   D2A 3892  43.077   1.974   8.264
   14POPC   C3A 3893  43.090   1.984   7.964
   14POPC   C4A 3894  43.136   2.025   7.664
   14POPC   C1B 3895  43.300   2.190   8.564
   14POPC   C2B 3896  43.285   2.158   8.264
   14POPC   C3B 3897  43.271   2.222   7.964
   14POPC   C4B 3898  43.238   2.200   7.664
   15POPC   NC3 3899  40.830   6.624   9.464
   15POPC   PO4 3900  40.805   6.686   9.164
   15POPC   GL1 3901  40.753   6.610   8.864
   15POPC   GL2 3902  40.824   6.696   8.864
   15POPC   C1A 3903  40.748   6.644   8.564
   15POPC   D2A 3904  40.770   6.663   8.264
   15POPC   C3A 3905  40.775   6.628   7.964
   15POPC   C4A 3906  40.778   6.672   7.664
   15POPC   C1B 3907  40.930   6.835   8.564
   15POPC   C2B 3908  40.919   6.858   8.264
   15POPC   C3B 3909  40.964   6.793   7.964
   15POPC   C4B 3910  40.940   6.873   7.664
   16POPC   NC3 3911   2.726  31.450   9.464
   16POPC   PO4 3912   2.739  31.521   9.164
   16POPC   GL1 3913   2.726  31.504   8.864
   16POPC   GL2 3914   2.863  31.426   8.864
   16POPC   C1A 3915   2.732  31.475   8.564
   16POPC   D2A 3916   2.790  31.469   8.264
   16POPC   C3A 3917   2.791  31.503   7.964
   16POPC   C4A 3918   2.780  31.461   7.664
   16POPC   C1B 3919   2.945  31.309   8.564
   16POPC   C2B 3920   2.998  31.348   8.264
   16POPC   C3B 3921   2.993  31.371   7.964
   16POPC   C4B 3922   2.989  31.315   7.664
   17POPC   NC3 3923  41.514  19.874   9.464
   17POPC   PO4 3924  41.582  19.822   9.164
   17POPC   GL1 3925  41.555  19.807   8.864
   17POPC   GL2 3926  41.424  19.844   8.864
   17POPC   C1A 3927  41.546  19.850   8.564
   17POPC   D2A 3928  41.509  19.795   8.264
   17POPC   C3A 3929  41.584  19.794   7.964
   17POPC   C4A 3930  41.531  19.810   7.664
   17POPC   C1B 3931  41.355  19.912   8.564
   17POPC   C2B 3932  41.320  19.933   8.264
   17POPC   C3B 3933  41.323  19.961   7.964
   17POPC   C4B 3934  41.317  19.901   7.664
   18POPC   NC3 3935  40.819  41.595   9.464
   18POPC   PO4 3936  40.782  41.603   9.164
   18POPC   GL1 3937  40.736  41.584   8.864
   18POPC   GL2 3938  40.662  41.446   8.864
   18POPC   C1A 3939  40.740  41.581   8.564
   18POPC   D2A 3940  40.759  41.555   8.264
   18POPC   C3A 3941  40.812  41.598   7.964
   18POPC   C4A 3942  40.801  41.592   7.664
   18POPC   C1B 3943  40.618  41.369   8.564
   18POPC   C2B 3944  40.624  41.350   8.264
   18POPC   C3B 3945  40.648  41.365   7.964
   18POPC   C4B 3946  40.620  41.351   7.664
   19POPC   NC3 3947  29.142   1.261   9.464
   19POPC   PO4 3948  29.187   1.238   9.164
   19POPC   GL1 3949  29.128   1.260   8.864
   19POPC   GL2 3950  29.287   1.196   8.864
   19POPC   C1A 3951  29.106   1.214   8.564
   19POPC   D2A 3952  29.110   1.173   8.264
   19POPC   C3A 3953  29.152   1.174   7.964
   19POPC   C4A 3954  29.112   1.198   7.664
   19POPC   C1B 3955  29.390   1.109   8.564
   19POPC   C2B 3956  29.359   1.148   8.264
   19POPC   C3B 3957  29.364   1.108   7.964
   19POPC   C4B 3958  29.325   1.052   7.664
   20POPC   NC3 3959  12.045  33.784   9.464
   20POPC   PO4 3960  12.053  33.751   9.164
   20POPC   GL1 3961  12.093  33.800   8.864
   20POPC   GL2 3962  11.947  33.785   8.864
   20POPC   C1A 3963  12.097  33.831   8.564
   20POPC   D2A 3964  12.062  33.812   8.264
   20POPC   C3A 3965  12.069  33.826   7.964
   20POPC   C4A 3966  12.084  33.821   7.664
   20POPC   C1B 3967  11.788  33.836   8.564
   20POPC   C2B 3968  11.835  33.819   8.264
   20POPC   C3B 3969  11.794  33.762   7.964
   20POPC   C4B 3970  11.777  33.768   7.664
   21POPC   NC3 3971  38.489  26.865   9.464
   21POPC   PO4 3972  38.477  26.810   9.164
   21POPC   GL1 3973  38.418  26.822   8.864
   21POPC   GL2 3974  38.468  26.718   8.864
   21POPC   C1A 3975  38.453  26.832   8.564
   21POPC   D2A 3976  38.421  26.827   8.264
   21POPC   C3A 3977  38.470  26.816   7.964
   21POPC   C4A 3978  38.505  26.840   7.664
   21POPC   C1B 3979  38.556  26.547   8.564
   21POPC   C2B 3980  38.526  26.594   8.264
   21POPC   C3B 3981  38.533  26.623   7.964
   21POPC   C4B 3982  38.558  26.573   7.664
   22POPC   NC3 3983  37.662  35.372   9.464
   22POPC   PO4 3984  37.649  35.303   9.164
   22POPC   GL1 3985  37.638  35.364   8.864
   22POPC   GL2 3986  37.566  35.267   8.864
   22POPC   C1A 3987  37.711  35.386   8.564
   22POPC   D2A 3988  37.698  35.364   8.264
   22POPC   C3A 3989  37.675  35.341   7.964
   22POPC   C4A 3990  37.680  35.388   7.664
   22POPC   C1B 3991  37.470  35.235   8.564
   22POPC   C2B 3992  37.470  35.242   8.264
   22POPC   C3B 3993  37.483  35.247   7.964
   22POPC   C4B 3994  37.460  35.272   7.664
   23POPC   NC3 3995   9.726  15.150   9.464
   23POPC   PO4 3996   9.785  15.226   9.164
   23POPC   GL1 3997   9.704  15.210   8.864
   23POPC   GL2 3998   9.828  15.277   8.864
   23POPC   C1A 3999   9.780  15.211   8.564
   23POPC   D2A 4000   9.705  15.139   8.264
   23POPC   C3A 4001   9.718  15.156   7.964
   23POPC   C4A 4002   9.740  15.166   7.664
   23POPC   C1B 4003   9.876  15.395   8.564
   23POPC   C2B 4004   9.923  15.353   8.264
   23POPC   C3B 4005   9.926  15.386   7.964
   23POPC   C4B 4006   9.888  15.339   7.664
   24POPC   NC3 4007   1.176  15.154   9.464
   24POPC   PO4 4008   1.204  15.150   9.164
   24POPC   GL1 4009   1.176  15.222   8.864
   24POPC   GL2 4010   1.350  15.097   8.864
   24POPC   C1A 4011   1.206  15.203   8.564
   24POPC   D2A 4012   1.238  15.216   8.264
   24POPC   C3A 4013   1.220  15.182   7.964
   24POPC   C4A 4014   1.167  15.192   7.664
   24POPC   C1B 4015   1.361  15.039   8.564
   24POPC   C2B 4016   1.372  15.005   8.264
   24POPC   C3B 4017   1.418  14.991   7.964
   24POPC   C4B 4018   1.444  14.968   7.664
   25POPC   NC3 4019   2.013  16.755   9.464
   25POPC   PO4 4020   1.979  16.765   9.164
   25POPC   GL1 4021   2.013  16.683   8.864
   25POPC   GL2 4022   1.902  16.770   8.864
   25POPC   C1A 4023   1.951  16.772   8.564
   25POPC   D2A 4024   1.947  16.766   8.264
   25POPC   C3A 4025   2.006  16.715   7.964
   25POPC   C4A 4026   1.995  16.700   7.664
   25POPC   C1B 4027   1.782  16.686   8.564
   25POPC   C2B 4028   1.750  16.772   8.264
   25POPC   C3B 4029   1.727  16.729   7.964
   25POPC   C4B 4030   1.722  16.767   7.664
   26POPC   NC3 4031  41.520  16.720   9.464
   26POPC   PO4 4032  41.581  16.690   9.164
   26POPC   GL1 4033  41.556  16.687   8.864
   26POPC   GL2 4034  41.477  16.634   8.864
   26POPC   C1A 4035  41.595  16.717   8.564
   26POPC   D2A 4036  41.514  16.776   8.264
   26POPC   C3A 4037  41.535  16.693   7.964
   26POPC   C4A 4038  41.561  16.698   7.664
   26POPC   C1B 4039  41.308  16.567   8.564
   26POPC   C2B 4040  41.335  16.554   8.264
   26POPC   C3B 4041  41.371  16.606   7.964
   26POPC   C4B 4042  41.364  16.643   7.664
   27POPC   NC3 4043  32.281  36.112   9.464
   27POPC   PO4 4044  32.259  36.095   9.164
   27POPC   GL1 4045  32.258  36.125   8.864
   27POPC   GL2 4046  32.367  36.036   8.864
   27POPC   C1A 4047  32.221  36.145   8.564
   27POPC   D2A 4048  32.204  36.152   8.264
   27POPC   C3A 4049  32.284  36.092   7.964
   27POPC   C4A 4050  32.222  36.141   7.664
   27POPC   C1B 4051  32.473  36.011   8.564
   27POPC   C2B 4052  32.477  35.996   8.264
   27POPC   C3B 4053  32.438  35.992   7.964
   27POPC   C4B 4054  32.438  35.964   7.664
   28POPC   NC3 4055   4.353  22.164   9.464
   28POPC   PO4 4056   4.273  22.204   9.164
   28POPC   GL1 4057   4.308  22.141   8.864
   28POPC   GL2 4058   4.445  22.031   8.864
   28POPC   C1A 4059   4.318  22.171   8.564
   28POPC   D2A 4060   4.353  22.208   8.264
   28POPC   C3A 4061   4.341  22.138   7.964
   28POPC   C4A 4062   4.356  22.166   7.664
   28POPC   C1B 4063   4.482  22.006   8.564
   28POPC   C2B 4064   4.519  21.939   8.264
   28POPC   C3B 4065   4.425  21.931   7.964
   28POPC   C4B 4066   4.465  21.920   7.664
   29POPC   NC3 4067  41.542  35.353   9.464
   29POPC   PO4 4068  41.578  35.397   9.164
   29POPC   GL1 4069  41.524  35.382   8.864
   29POPC   GL2 4070  41.559  35.273   8.864
   29POPC   C1A 4071  41.570  35.400   8.564
   29POPC   D2A 4072  41.515  35.331   8.264
   29POPC   C3A 4073  41.512  35.340   7.964
   29POPC   C4A 4074  41.532  35.326   7.664
   29POPC   C1B 4075  41.675  35.101   8.564
   29POPC   C2B 4076  41.640  35.101   8.264
   29POPC   C3B 4077  41.660  35.077   7.964
   29POPC   C4B 4078  41.614  35.140   7.664
   30POPC   NC3 4079  22.913  41.566   9.464
   30POPC   PO4 4080  22.917  41.513   9.164
   30POPC   GL1 4081  22.914  41.575   8.864
   30POPC   GL2 4082  22.902  41.445   8.864
   30POPC   C1A 4083  22.940  41.520   8.564
   30POPC   D2A 4084  22.981  41.515   8.264
   30POPC   C3A 4085  22.979  41.529   7.964
   30POPC   C4A 4086  22.902  41.580   7.664
   30POPC   C1B 4087  22.856  41.290   8.564
   30POPC   C2B 4088  22.884  41.352   8.264
   30POPC   C3B 4089  22.926  41.343   7.964
   30POPC   C4B 4090  22.934  41.357   7.664
   31POPC   NC3 4091   1.237   5.893   9.464
   31POPC   PO4 4092   1.203   5.916   9.164
   31POPC   GL1 4093   1.237   5.820   8.864
   31POPC   GL2 4094   1.303   5.976   8.864
   31POPC   C1A 4095   1.228   5.833   8.564
   31POPC   D2A 4096   1.252   5.843   8.264
   31POPC   C3A 4097   1.192   5.906   7.964
   31POPC   C4A 4098   1.178   5.879   7.664
   31POPC   C1B 4099   1.446   6.003   8.564
   31POPC   C2B 4100   1.413   5.997   8.264
   31POPC   C3B 4101   1.451   6.012   7.964
   31POPC   C4B 4102   1.432   6.009   7.664
   32POPC   NC3 4103  43.860   8.950   9.464
   32POPC   PO4 4104  43.874   8.946   9.164
   32POPC   GL1 4105  43.933   8.993   8.864
   32POPC   GL2 4106  43.740   8.952   8.864
   32POPC   C1A 4107  43.845   8.960   8.564
   32POPC   D2A 4108  43.851   9.008   8.264
   32POPC   C3A 4109  43.912   8.949   7.964
   32POPC   C4A 4110  43.849   8.966   7.664
   32POPC   C1B 4111  43.627   8.997   8.564
   32POPC   C2B 4112  43.607   9.012   8.264
   32POPC   C3B 4113  43.663   8.970   7.964
   32POPC   C4B 4114  43.641   8.955   7.664
   33POPC   NC3 4115   8.217  13.608   9.464
   33POPC   PO4 4116   8.170  13.653   9.164
   33POPC   GL1 4117   8.224  13.588   8.864
   33POPC   GL2 4118   8.109  13.547   8.864
   33POPC   C1A 4119   8.168  13.610   8.564
   33POPC   D2A 4120   8.171  13.670   8.264
   33POPC   C3A 4121   8.194  13.662   7.964
   33POPC   C4A 4122   8.187  13.647   7.664
   33POPC   C1B 4123   8.000  13.553   8.564
   33POPC   C2B 4124   7.945  13.578   8.264
   33POPC   C3B 4125   7.992  13.531   7.964
   33POPC   C4B 4126   7.915  13.548   7.664
   34POPC   NC3 4127  40.034   9.791   9.464
   34POPC   PO4 4128  40.025   9.791   9.164
   34POPC   GL1 4129  40.056   9.755   8.864
   34POPC   GL2 4130  40.092   9.764   8.864
   34POPC   C1A 4131  40.047   9.768   8.564
   34POPC   D2A 4132  39.991   9.792   8.264
   34POPC   C3A 4133  39.992   9.751   7.964
   34POPC   C4A 4134  39.961   9.729   7.664
   34POPC   C1B 4135  40.289   9.833   8.564
   34POPC   C2B 4136  40.228   9.820   8.264
   34POPC   C3B 4137  40.223   9.771   7.964
   34POPC   C4B 4138  40.283   9.860   7.664
   35POPC   NC3 4139  42.307  27.619   9.464
   35POPC   PO4 4140  42.303  27.578   9.164
   35POPC   GL1 4141  42.340  27.631   8.864
   35POPC   GL2 4142  42.213  27.585   8.864
   35POPC   C1A 4143  42.291  27.615   8.564
   35POPC   D2A 4144  42.291  27.591   8.264
   35POPC   C3A 4145  42.321  27.632   7.964
   35POPC   C4A 4146  42.372  27.571   7.664
   35POPC   C1B 4147  42.134  27.544   8.564
   35POPC   C2B 4148  42.103  27.504   8.264
   35POPC   C3B 4149  42.092  27.537   7.964
   35POPC   C4B 4150  42.064  27.534   7.664
   36POPC   NC3 4151  25.226  22.987   9.464
   36POPC   PO4 4152  25.224  22.925   9.164
   36POPC   GL1 4153  25.279  22.924   8.864
   36POPC   GL2 4154  25.391  22.962   8.864
   36POPC   C1A 4155  25.314  22.920   8.564
   36POPC   D2A 4156  25.286  22.908   8.264
   36POPC   C3A 4157  25.303  22.974   7.964
   36POPC   C4A 4158  25.275  22.931   7.664
   36POPC   C1B 4159  25.493  22.982   8.564
   36POPC   C2B 4160  25.475  23.005   8.264
   36POPC   C3B 4161  25.547  23.051   7.964
   36POPC   C4B 4162  25.493  23.033   7.664
   37POPC   NC3 4163  12.075  39.965   9.464
   37POPC   PO4 4164  12.091  39.958   9.164
   37POPC   GL1 4165  12.045  39.988   8.864
   37POPC   GL2 4166  12.102  39.891   8.864
   37POPC   C1A 4167  12.116  40.057   8.564
   37POPC   D2A 4168  12.110  40.054   8.264
   37POPC   C3A 4169  12.120  40.031   7.964
   37POPC   C4A 4170  12.052  39.971   7.664
   37POPC   C1B 4171  12.089  39.758   8.564
   37POPC   C2B 4172  12.067  39.800   8.264
   37POPC   C3B 4173  12.120  39.754   7.964
   37POPC   C4B 4174  12.098  39.715   7.664
   38POPC   NC3 4175  10.552  22.903   9.464
   38POPC   PO4 4176  10.508  22.912   9.164
   38POPC   GL1 4177  10.508  22.943   8.864
   38POPC   GL2 4178  10.647  22.878   8.864
   38POPC   C1A 4179  10.530  22.907   8.564
   38POPC   D2A 4180  10.519  22.977   8.264
   38POPC   C3A 4181  10.530  22.956   7.964
   38POPC   C4A 4182  10.567  22.889   7.664
   38POPC   C1B 4183  10.785  22.790   8.564
   38POPC   C2B 4184  10.765  22.798   8.264
   38POPC   C3B 4185  10.777  22.851   7.964
   38POPC   C4B 4186  10.721  22.841   7.664
   39POPC   NC3 4187  27.610  27.642   9.464
   39POPC   PO4 4188  27.640  27.583   9.164
   39POPC   GL1 4189  27.571  27.575   8.864
   39POPC   GL2 4190  27.593  27.478   8.864
   39POPC   C1A 4191  27.566  27.575   8.564
   39POPC   D2A 4192  27.593  27.640   8.264
   39POPC   C3A 4193  27.573  27.580   7.964
   39POPC   C4A 4194  27.629  27.545   7.664
   39POPC   C1B 4195  27.555  27.384   8.564
   39POPC   C2B 4196  27.510  27.357   8.264
   39POPC   C3B 4197  27.517  27.386   7.964
   39POPC   C4B 4198  27.526  27.332   7.664
   40POPC   NC3 4199  32.241  33.018   9.464
   40POPC   PO4 4200  32.221  33.042   9.164
   40POPC   GL1 4201  32.269  33.012   8.864
   40POPC   GL2 4202  32.290  32.914   8.864
   40POPC   C1A 4203  32.212  33.022   8.564
   40POPC   D2A 4204  32.295  32.991   8.264
   40POPC   C3A 4205  32.204  33.046   7.964
   40POPC   C4A 4206  32.295  33.015   7.664
   40POPC   C1B 4207  32.330  32.801   8.564
   40POPC   C2B 4208  32.278  32.771   8.264
   40POPC   C3B 4209  32.372  32.774   7.964
   40POPC   C4B 4210  32.302  32.781   7.664
   41POPC   NC3 4211  24.528  26.075   9.464
   41POPC   PO4 4212  24.448  26.020   9.164
   41POPC   GL1 4213  24.527  26.043   8.864
   41POPC   GL2 4214  24.343  26.021   8.864
   41POPC   C1A 4215  24.473  26.066   8.564
   41POPC   D2A 4216  24.485  26.005   8.264
   41POPC   C3A 4217  24.487  26.041   7.964
   41POPC   C4A 4218  24.530  26.027   7.664
   41POPC   C1B 4219  24.255  25.950   8.564
   41POPC   C2B 4220  24.299  25.967   8.264
   41POPC   C3B 4221  24.256  25.995   7.964
   41POPC   C4B 4222  24.285  25.974   7.664
   42POPC   NC3 4223  12.098  40.779   9.464
   42POPC   PO4 4224  12.123  40.787   9.164
   42POPC   GL1 4225  12.036  40.762   8.864
   42POPC   GL2 4226  12.176  40.858   8.864
   42POPC   C1A 4227  12.068  40.746   8.564
   42POPC   D2A 4228  12.056  40.768   8.264
   42POPC   C3A 4229  12.065  40.786   7.964
   42POPC   C4A 4230  12.049  40.762   7.664
   42POPC   C1B 4231  12.239  40.983   8.564
   42POPC   C2B 4232  12.248  40.996   8.264
   42POPC   C3B 4233  12.203  41.023   7.964
   42POPC   C4B 4234  12.193  40.958   7.664
   43POPC   NC3 4235   8.168   5.102   9.464
   43POPC   PO4 4236   8.170   5.080   9.164
   43POPC   GL1 4237   8.174   5.064   8.864
   43POPC   GL2 4238   8.177   4.988   8.864
   43POPC   C1A 4239   8.160   5.087   8.564
   43POPC   D2A 4240   8.198   5.135   8.264
   43POPC   C3A 4241   8.236   5.118   7.964
   43POPC   C4A 4242   8.206   5.080   7.664
   43POPC   C1B 4243   8.092   4.822   8.564
   43POPC   C2B 4244   8.070   4.823   8.264
   43POPC   C3B 4245   8.134   4.863   7.964
   43POPC   C4B 4246   8.163   4.839   7.664
   44POPC   NC3 4247   8.985  16.742   9.464
   44POPC   PO4 4248   8.944  16.739   9.164
   44POPC   GL1 4249   8.935  16.742   8.864
   44POPC   GL2 4250   8.900  16.707   8.864
   44POPC   C1A 4251   8.985  16.770   8.564
   44POPC   D2A 4252   8.959  16.739   8.264
   44POPC   C3A 4253   8.959  16.712   7.964
   44POPC   C4A 4254   8.977  16.764   7.664
   44POPC   C1B 4255   8.730  16.725   8.564
   44POPC   C2B 4256   8.756  16.657   8.264
   44POPC   C3B 4257   8.772  16.685   7.964
   44POPC   C4B 4258   8.726  16.668   7.664
   45POPC   NC3 4259   8.181  27.549   9.464
   45POPC   PO4 4260   8.228  27.604   9.164
   45POPC   GL1 4261   8.202  27.626   8.864
   45POPC   GL2 4262   8.189  27.668   8.864
   45POPC   C1A 4263   8.199  27.639   8.564
   45POPC   D2A 4264   8.241  27.562   8.264
   45POPC   C3A 4265   8.192  27.615   7.964
   45POPC   C4A 4266   8.225  27.578   7.664
   45POPC   C1B 4267   8.169  27.838   8.564
   45POPC   C2B 4268   8.123  27.791   8.264
   45POPC   C3B 4269   8.107  27.801   7.964
   45POPC   C4B 4270   8.122  27.810   7.664
   46POPC   NC3 4271  27.576  36.078   9.464
   46POPC   PO4 4272  27.614  36.126   9.164
   46POPC   GL1 4273  27.554  36.130   8.864
   46POPC   GL2 4274  27.514  36.288   8.864
   46POPC   C1A 4275  27.612  36.086   8.564
   46POPC   D2A 4276  27.603  36.114   8.264
   46POPC   C3A 4277  27.545  36.100   7.964
   46POPC   C4A 4278  27.543  36.139   7.664
   46POPC   C1B 4279  27.490  36.375   8.564
   46POPC   C2B 4280  27.548  36.408   8.264
   46POPC   C3B 4281  27.546  36.336   7.964
   46POPC   C4B 4282  27.489  36.383   7.664
   47POPC   NC3 4283  22.126  36.943   9.464
   47POPC   PO4 4284  22.149  36.902   9.164
   47POPC   GL1 4285  22.155  36.895   8.864
   47POPC   GL2 4286  22.220  36.735   8.864
   47POPC   C1A 4287  22.131  36.856   8.564
   47POPC   D2A 4288  22.198  36.929   8.264
   47POPC   C3A 4289  22.192  36.952   7.964
   47POPC   C4A 4290  22.187  36.937   7.664
   47POPC   C1B 4291  22.250  36.651   8.564
   47POPC   C2B 4292  22.237  36.695   8.264
   47POPC   C3B 4293  22.166  36.626   7.964
   47POPC   C4B 4294  22.212  36.660   7.664
   48POPC   NC3 4295  41.595  41.567   9.464
   48POPC   PO4 4296  41.573  41.526   9.164
   48POPC   GL1 4297  41.591  41.523   8.864
   48POPC   GL2 4298  41.448  41.564   8.864
   48POPC   C1A 4299  41.589  41.565   8.564
   48POPC   D2A 4300  41.510  41.577   8.264
   48POPC   C3A 4301  41.546  41.561   7.964
   48POPC   C4A 4302  41.527  41.524   7.664
   48POPC   C1B 4303  41.337  41.570   8.564
   48POPC   C2B 4304  41.322  41.554   8.264
   48POPC   C3B 4305  41.284  41.552   7.964
   48POPC   C4B 4306  41.279  41.541   7.664
   49POPC   NC3 4307   2.009  34.542   9.464
   49POPC   PO4 4308   1.980  34.565   9.164
   49POPC   GL1 4309   1.997  34.530   8.864
   49POPC   GL2 4310   2.066  34.607   8.864
   49POPC   C1A 4311   2.035  34.603   8.564
   49POPC   D2A 4312   1.940  34.534   8.264
   49POPC   C3A 4313   2.030  34.589   7.964
   49POPC   C4A 4314   2.015  34.557   7.664
   49POPC   C1B 4315   2.213  34.696   8.564
   49POPC   C2B 4316   2.197  34.705   8.264
   49POPC   C3B 4317   2.202  34.777   7.964
   49POPC   C4B 4318   2.213  34.679   7.664
   50POPC   NC3 4319  11.254  36.924   9.464
   50POPC   PO4 4320  11.335  36.925   9.164
   50POPC   GL1 4321  11.287  36.920   8.864
   50POPC   GL2 4322  11.429  36.955   8.864
   50POPC   C1A 4323  11.296  36.951   8.564
   50POPC   D2A 4324  11.256  36.896   8.264
   50POPC   C3A 4325  11.296  36.862   7.964
   50POPC   C4A 4326  11.333  36.909   7.664
   50POPC   C1B 4327  11.429  37.116   8.564
   50POPC   C2B 4328  11.444  37.068   8.264
   50POPC   C3B 4329  11.457  37.120   7.964
   50POPC   C4B 4330  11.474  37.097   7.664
   51POPC   NC3 4331  35.323  18.269   9.464
   51POPC   PO4 4332  35.363  18.275   9.164
   51POPC   GL1 4333  35.380  18.252   8.864
   51POPC   GL2 4334  35.427  18.331   8.864
   51POPC   C1A 4335  35.316  18.277   8.564
   51POPC   D2A 4336  35.338  18.265   8.264
   51POPC   C3A 4337  35.328  18.264   7.964
   51POPC   C4A 4338  35.380  18.252   7.664
   51POPC   C1B 4339  35.564  18.337   8.564
   51POPC   C2B 4340  35.603  18.322   8.264
   51POPC   C3B 4341  35.623  18.348   7.964
   51POPC   C4B 4342  35.587  18.347   7.664
   52POPC   NC3 4343  13.662  29.126   9.464
   52POPC   PO4 4344  13.634  29.130   9.164
   52POPC   GL1 4345  13.674  29.129   8.864
   52POPC   GL2 4346  13.657  29.274   8.864
   52POPC   C1A 4347  13.583  29.160   8.564
   52POPC   D2A 4348  13.631  29.159   8.264
   52POPC   C3A 4349  13.637  29.108   7.964
   52POPC   C4A 4350  13.620  29.139   7.664
   52POPC   C1B 4351  13.594  29.379   8.564
   52POPC   C2B 4352  13.609  29.405   8.264
   52POPC   C3B 4353  13.562  29.352   7.964
   52POPC   C4B 4354  13.635  29.360   7.664
   53POPC   NC3 4355   2.023  20.605   9.464
   53POPC   PO4 4356   2.035  20.595   9.164
   53POPC   GL1 4357   2.038  20.654   8.864
   53POPC   GL2 4358   1.862  20.645   8.864
   53POPC   C1A 4359   1.978  20.572   8.564
   53POPC   D2A 4360   1.985  20.629   8.264
   53POPC   C3A 4361   1.972  20.605   7.964
   53POPC   C4A 4362   1.957  20.660   7.664
   53POPC   C1B 4363   1.780  20.815   8.564
   53POPC   C2B 4364   1.838  20.727   8.264
   53POPC   C3B 4365   1.813  20.817   7.964
   53POPC   C4B 4366   1.793  20.818   7.664
   54POPC   NC3 4367  43.067  10.490   9.464
   54POPC   PO4 4368  43.128  10.484   9.164
   54POPC   GL1 4369  43.064  10.485   8.864
   54POPC   GL2 4370  43.205  10.388   8.864
   54POPC   C1A 4371  43.147  10.496   8.564
   54POPC   D2A 4372  43.075  10.490   8.264
   54POPC   C3A 4373  43.121  10.486   7.964
   54POPC   C4A 4374  43.062  10.535   7.664
   54POPC   C1B 4375  43.238  10.283   8.564
   54POPC   C2B 4376  43.161  10.277   8.264
   54POPC   C3B 4377  43.197  10.308   7.964
   54POPC   C4B 4378  43.193  10.250   7.664
   55POPC   NC3 4379  43.906  39.192   9.464
   55POPC   PO4 4380  43.892  39.242   9.164
   55POPC   GL1 4381  43.866  39.245   8.864
   55POPC   GL2 4382  43.858  39.144   8.864
   55POPC   C1A 4383  43.908  39.182   8.564
   55POPC   D2A 4384  43.897  39.253   8.264
   55POPC   C3A 4385  43.879  39.276   7.964
   55POPC   C4A 4386  43.918  39.249   7.664
   55POPC   C1B 4387  43.927  39.010   8.564
   55POPC   C2B 4388  43.867  38.964   8.264
   55POPC   C3B 4389  43.954  38.955   7.964
   55POPC   C4B 4390  43.941  39.031   7.664
   56POPC   NC3 4391  32.983  39.958   9.464
   56POPC   PO4 4392  33.024  40.010   9.164
   56POPC   GL1 4393  32.979  40.027   8.864
   56POPC   GL2 4394  33.082  39.946   8.864
   56POPC   C1A 4395  32.990  40.050   8.564
   56POPC   D2A 4396  33.029  40.030   8.264
   56POPC   C3A 4397  32.978  39.983   7.964
   56POPC   C4A 4398  33.031  40.027   7.664
   56POPC   C1B 4399  33.203  39.764   8.564
   56POPC   C2B 4400  33.172  39.825   8.264
   56POPC   C3B 4401  33.189  39.805   7.964
   56POPC   C4B 4402  33.137  39.831   7.664
   57POPC   NC3 4403  42.373  18.272   9.464
   57POPC   PO4 4404  42.380  18.253   9.164
   57POPC   GL1 4405  42.380  18.252   8.864
   57POPC   GL2 4406  42.433  18.381   8.864
   57POPC   C1A 4407  42.352  18.332   8.564
   57POPC   D2A 4408  42.351  18.319   8.264
   57POPC   C3A 4409  42.293  18.297   7.964
   57POPC   C4A 4410  42.371  18.300   7.664
   57POPC   C1B 4411  42.501  18.373   8.564
   57POPC   C2B 4412  42.536  18.411   8.264
   57POPC   C3B 4413  42.574  18.464   7.964
   57POPC   C4B 4414  42.574  18.451   7.664
   58POPC   NC3 4415   7.439  15.949   9.464
   58POPC   PO4 4416   7.388  15.917   9.164
   58POPC   GL1 4417   7.453  15.943   8.864
   58POPC   GL2 4418   7.536  16.015   8.864
   58POPC   C1A 4419   7.450  15.943   8.564
   58POPC   D2A 4420   7.423  15.985   8.264
   58POPC   C3A 4421   7.441  15.971   7.964
   58POPC   C4A 4422   7.386  15.915   7.664
   58POPC   C1B 4423   7.615  16.084   8.564
   58POPC   C2B 4424   7.645  16.144   8.264
   58POPC   C3B 4425   7.588  16.071   7.964
   58POPC   C4B 4426   7.584  16.116   7.664
   59POPC   NC3 4427  28.401   2.766   9.464
   59POPC   PO4 4428  28.379   2.770   9.164
   59POPC   GL1 4429  28.397   2.725   8.864
   59POPC   GL2 4430  28.507   2.860   8.864
   59POPC   C1A 4431  28.353   2.791   8.564
   59POPC   D2A 4432  28.403   2.717   8.264
   59POPC   C3A 4433  28.409   2.730   7.964
   59POPC   C4A 4434  28.394   2.801   7.664
   59POPC   C1B 4435  28.537   2.958   8.564
   59POPC   C2B 4436  28.527   2.948   8.264
   59POPC   C3B 4437  28.619   2.878   7.964
   59POPC   C4B 4438  28.614   2.920   7.664
   60POPC   NC3 4439   2.034  19.875   9.464
   60POPC   PO4 4440   2.039  19.821   9.164
   60POPC   GL1 4441   1.965  19.836   8.864
   60POPC   GL2 4442   1.959  19.746   8.864
   60POPC   C1A 4443   1.943  19.831   8.564
   60POPC   D2A 4444   2.037  19.792   8.264
   60POPC   C3A 4445   2.032  19.836   7.964
   60POPC   C4A 4446   2.012  19.847   7.664
   60POPC   C1B 4447   1.973  19.624   8.564
   60POPC   C2B 4448   2.046  19.631   8.264
   60POPC   C3B 4449   2.011  19.617   7.964
   60POPC   C4B 4450   1.989  19.627   7.664
   61POPC   NC3 4451   8.225   2.747   9.464
   61POPC   PO4 4452   8.216   2.779   9.164
   61POPC   GL1 4453   8.213   2.735   8.864
   61POPC   GL2 4454   8.160   2.877   8.864
   61POPC   C1A 4455   8.231   2.729   8.564
   61POPC   D2A 4456   8.246   2.781   8.264
   61POPC   C3A 4457   8.179   2.745   7.964
   61POPC   C4A 4458   8.186   2.778   7.664
   61POPC   C1B 4459   8.190   2.999   8.564
   61POPC   C2B 4460   8.181   3.013   8.264
   61POPC   C3B 4461   8.154   2.960   7.964
   61POPC   C4B 4462   8.140   2.961   7.664
   62POPC   NC3 4463   5.062  42.341   9.464
   62POPC   PO4 4464   5.136  42.289   9.164
   62POPC   GL1 4465   5.119  42.333   8.864
   62POPC   GL2 4466   5.094  42.464   8.864
   62POPC   C1A 4467   5.047  42.338   8.564
   62POPC   D2A 4468   5.106  42.321   8.264
   62POPC   C3A 4469   5.139  42.329   7.964
   62POPC   C4A 4470   5.082  42.298   7.664
   62POPC   C1B 4471   5.074  42.542   8.564
   62POPC   C2B 4472   5.142  42.591   8.264
   62POPC   C3B 4473   5.051  42.613   7.964
   62POPC   C4B 4474   5.100  42.584   7.664
   63POPC   NC3 4475  37.650   5.911   9.464
   63POPC   PO4 4476  37.649   5.869   9.164
   63POPC   GL1 4477  37.715   5.847   8.864
   63POPC   GL2 4478  37.569   5.768   8.864
   63POPC   C1A 4479  37.662   5.887   8.564
   63POPC   D2A 4480  37.685   5.834   8.264
   63POPC   C3A 4481  37.699   5.884   7.964
   63POPC   C4A 4482  37.702   5.899   7.664
   63POPC   C1B 4483  37.585   5.632   8.564
   63POPC   C2B 4484  37.527   5.660   8.264
   63POPC   C3B 4485  37.510   5.644   7.964
   63POPC   C4B 4486  37.531   5.610   7.664
   64POPC   NC3 4487  30.730  31.520   9.464
   64POPC   PO4 4488  30.683  31.448   9.164
   64POPC   GL1 4489  30.732  31.464   8.864
   64POPC   GL2 4490  30.557  31.456   8.864
   64POPC   C1A 4491  30.746  31.501   8.564
   64POPC   D2A 4492  30.677  31.476   8.264
   64POPC   C3A 4493  30.701  31.459   7.964
   64POPC   C4A 4494  30.656  31.497   7.664
   64POPC   C1B 4495  30.431  31.484   8.564
   64POPC   C2B 4496  30.478  31.559   8.264
   64POPC   C3B 4497  30.480  31.499   7.964
   64POPC   C4B 4498  30.404  31.524   7.664
   65POPC   NC3 4499  29.894  26.779   9.464
   65POPC   PO4 4500  29.943  26.771   9.164
   65POPC   GL1 4501  29.887  26.849   8.864
   65POPC   GL2 4502  29.857  26.746   8.864
   65POPC   C1A 4503  29.956  26.844   8.564
   65POPC   D2A 4504  29.956  26.789   8.264
   65POPC   C3A 4505  29.957  26.797   7.964
   65POPC   C4A 4506  29.924  26.839   7.664
   65POPC   C1B 4507  29.792  26.608   8.564
   65POPC   C2B 4508  29.775  26.655   8.264
   65POPC   C3B 4509  29.741  26.608   7.964
   65POPC   C4B 4510  29.822  26.599   7.664
   66POPC   NC3 4511  42.352   9.712   9.464
   66POPC   PO4 4512  42.329   9.763   9.164
   66POPC   GL1 4513  42.297   9.759   8.864
   66POPC   GL2 4514  42.236   9.680   8.864
   66POPC   C1A 4515  42.360   9.770   8.564
   66POPC   D2A 4516  42.324   9.743   8.264
   66POPC   C3A 4517  42.340   9.743   7.964
   66POPC   C4A 4518  42.372   9.702   7.664
   66POPC   C1B 4519  42.123   9.696   8.564
   66POPC   C2B 4520  42.084   9.681   8.264
   66POPC   C3B 4521  42.065   9.634   7.964
   66POPC   C4B 4522  42.089   9.644   7.664
   67POPC   NC3 4523  37.727  28.349   9.464
   67POPC   PO4 4524  37.633  28.409   9.164
   67POPC   GL1 4525  37.659  28.363   8.864
   67POPC   GL2 4526  37.731  28.510   8.864
   67POPC   C1A 4527  37.674  28.355   8.564
   67POPC   D2A 4528  37.675  28.364   8.264
   67POPC   C3A 4529  37.729  28.335   7.964
   67POPC   C4A 4530  37.712  28.356   7.664
   67POPC   C1B 4531  37.687  28.598   8.564
   67POPC   C2B 4532  37.761  28.624   8.264
   67POPC   C3B 4533  37.721  28.645   7.964
   67POPC   C4B 4534  37.720  28.631   7.664
   68POPC   NC3 4535  13.677   9.004   9.464
   68POPC   PO4 4536  13.617   8.931   9.164
   68POPC   GL1 4537  13.643   8.970   8.864
   68POPC   GL2 4538  13.563   8.880   8.864
   68POPC   C1A 4539  13.671   8.999   8.564
   68POPC   D2A 4540  13.643   9.006   8.264
   68POPC   C3A 4541  13.616   8.962   7.964
   68POPC   C4A 4542  13.628   9.009   7.664
   68POPC   C1B 4543  13.505   8.745   8.564
   68POPC   C2B 4544  13.451   8.805   8.264
   68POPC   C3B 4545  13.467   8.807   7.964
   68POPC   C4B 4546  13.466   8.774   7.664
   69POPC   NC3 4547  42.368  41.529   9.464
   69POPC   PO4 4548  42.298  41.529   9.164
   69POPC   GL1 4549  42.298  41.522   8.864
   69POPC   GL2 4550  42.179  41.574   8.864
   69POPC   C1A 4551  42.331  41.577   8.564
   69POPC   D2A 4552  42.318  41.510   8.264
   69POPC   C3A 4553  42.323  41.526   7.964
   69POPC   C4A 4554  42.327  41.548   7.664
   69POPC   C1B 4555  42.133  41.626   8.564
   69POPC   C2B 4556  42.076  41.548   8.264
   69POPC   C3B 4557  42.113  41.576   7.964
   69POPC   C4B 4558  42.043  41.589   7.664
   70POPC   NC3 4559  33.819  29.145   9.464
   70POPC   PO4 4560  33.789  29.145   9.164
   70POPC   GL1 4561  33.771  29.195   8.864
   70POPC   GL2 4562  33.780  29.278   8.864
   70POPC   C1A 4563  33.801  29.178   8.564
   70POPC   D2A 4564  33.754  29.098   8.264
   70POPC   C3A 4565  33.808  29.121   7.964
   70POPC   C4A 4566  33.765  29.181   7.664
   70POPC   C1B 4567  33.764  29.354   8.564
   70POPC   C2B 4568  33.801  29.437   8.264
   70POPC   C3B 4569  33.810  29.427   7.964
   70POPC   C4B 4570  33.813  29.411   7.664
   71POPC   NC3 4571  18.269  36.878   9.464
   71POPC   PO4 4572  18.251  36.902   9.164
   71POPC   GL1 4573  18.279  36.861   8.864
   71POPC   GL2 4574  18.398  36.857   8.864
   71POPC   C1A 4575  18.314  36.934   8.564
   71POPC   D2A 4576  18.253  36.861   8.264
   71POPC   C3A 4577  18.254  36.878   7.964
   71POPC   C4A 4578  18.234  36.872   7.664
   71POPC   C1B 4579  18.509  36.873   8.564
   71POPC   C2B 4580  18.506  36.886   8.264
   71POPC   C3B 4581  18.511  36.879   7.964
   71POPC   C4B 4582  18.581  36.929   7.664
   72POPC   NC3 4583  13.609  41.578   9.464
   72POPC   PO4 4584  13.625  41.600   9.164
   72POPC   GL1 4585  13.631  41.535   8.864
   72POPC   GL2 4586  13.530  41.477   8.864
   72POPC   C1A 4587  13.581  41.578   8.564
   72POPC   D2A 4588  13.646  41.529   8.264
   72POPC   C3A 4589  13.671  41.579   7.964
   72POPC   C4A 4590  13.629  41.526   7.664
   72POPC   C1B 4591  13.411  41.329   8.564
   72POPC   C2B 4592  13.405  41.382   8.264
   72POPC   C3B 4593  13.449  41.362   7.964
   72POPC   C4B 4594  13.444  41.367   7.664
   73POPC   NC3 4595   7.435  39.269   9.464
   73POPC   PO4 4596   7.412  39.240   9.164
   73POPC   GL1 4597   7.470  39.235   8.864
   73POPC   GL2 4598   7.392  39.067   8.864
   73POPC   C1A 4599   7.459  39.188   8.564
   73POPC   D2A 4600   7.431  39.218   8.264
   73POPC   C3A 4601   7.470  39.272   7.964
   73POPC   C4A 4602   7.400  39.227   7.664
   73POPC   C1B 4603   7.439  39.015   8.564
   73POPC   C2B 4604   7.432  39.016   8.264
   73POPC   C3B 4605   7.404  38.969   7.964
   73POPC   C4B 4606   7.388  38.943   7.664
   74POPC   NC3 4607   5.060  12.808   9.464
   74POPC   PO4 4608   5.143  12.804   9.164
   74POPC   GL1 4609   5.111  12.859   8.864
   74POPC   GL2 4610   4.984  12.762   8.864
   74POPC   C1A 4611   5.143  12.823   8.564
   74POPC   D2A 4612   5.071  12.822   8.264
   74POPC   C3A 4613   5.087  12.876   7.964
   74POPC   C4A 4614   5.143  12.827   7.664
   74POPC   C1B 4615   4.922  12.624   8.564
   74POPC   C2B 4616   4.903  12.644   8.264
   74POPC   C3B 4617   4.996  12.607   7.964
   74POPC   C4B 4618   4.977  12.675   7.664
   75POPC   NC3 4619  30.680  35.337   9.464
   75POPC   PO4 4620  30.653  35.303   9.164
   75POPC   GL1 4621  30.710  35.318   8.864
   75POPC   GL2 4622  30.560  35.461   8.864
   75POPC   C1A 4623  30.670  35.310   8.564
   75POPC   D2A 4624  30.652  35.356   8.264
   75POPC   C3A 4625  30.652  35.336   7.964
   75POPC   C4A 4626  30.713  35.331   7.664
   75POPC   C1B 4627  30.516  35.551   8.564
   75POPC   C2B 4628  30.498  35.466   8.264
   75POPC   C3B 4629  30.538  35.458   7.964
   75POPC   C4B 4630  30.530  35.502   7.664
   76POPC   NC3 4631  12.049  36.865   9.464
   76POPC   PO4 4632  12.075  36.870   9.164
   76POPC   GL1 4633  12.032  36.941   8.864
   76POPC   GL2 4634  12.196  36.888   8.864
   76POPC   C1A 4635  12.112  36.930   8.564
   76POPC   D2A 4636  12.071  36.923   8.264
   76POPC   C3A 4637  12.109  36.856   7.964
   76POPC   C4A 4638  12.119  36.941   7.664
   76POPC   C1B 4639  12.261  36.829   8.564
   76POPC   C2B 4640  12.264  36.792   8.264
   76POPC   C3B 4641  12.298  36.851   7.964
   76POPC   C4B 4642  12.271  36.801   7.664
   77POPC   NC3 4643  15.917  19.107   9.464
   77POPC   PO4 4644  15.977  19.060   9.164
   77POPC   GL1 4645  15.933  19.101   8.864
   77POPC   GL2 4646  16.012  19.181   8.864
   77POPC   C1A 4647  15.974  19.020   8.564
   77POPC   D2A 4648  15.950  19.035   8.264
   77POPC   C3A 4649  16.005  19.036   7.964
   77POPC   C4A 4650  15.973  19.057   7.664
   77POPC   C1B 4651  16.101  19.297   8.564
   77POPC   C2B 4652  16.085  19.319   8.264
   77POPC   C3B 4653  16.042  19.294   7.964
   77POPC   C4B 4654  16.060  19.229   7.664
   78POPC   NC3 4655  22.152  41.564   9.464
   78POPC   PO4 4656  22.175  41.564   9.164
   78POPC   GL1 4657  22.196  41.515   8.864
   78POPC   GL2 4658  22.308  41.529   8.864
   78POPC   C1A 4659  22.115  41.553   8.564
   78POPC   D2A 4660  22.114  41.558   8.264
   78POPC   C3A 4661  22.133  41.550   7.964
   78POPC   C4A 4662  22.177  41.567   7.664
   78POPC   C1B 4663  22.435  41.408   8.564
   78POPC   C2B 4664  22.418  41.432   8.264
   78POPC   C3B 4665  22.402  41.496   7.964
   78POPC   C4B 4666  22.357  41.498   7.664
   79POPC   NC3 4667   1.243  23.674   9.464
   79POPC   PO4 4668   1.211  23.737   9.164
   79POPC   GL1 4669   1.165  23.684   8.864
   79POPC   GL2 4670   1.050  23.709   8.864
   79POPC   C1A 4671   1.170  23.670   8.564
   79POPC   D2A 4672   1.221  23.714   8.264
   79POPC   C3A 4673   1.234  23.702   7.964
   79POPC   C4A 4674   1.170  23.748   7.664
   79POPC   C1B 4675   0.971  23.657   8.564
   79POPC   C2B 4676   0.982  23.679   8.264
   79POPC   C3B 4677   0.991  23.641   7.964
   79POPC   C4B 4678   1.003  23.635   7.664
   80POPC   NC3 4679  19.078  36.879   9.464
   80POPC   PO4 4680  19.077  36.895   9.164
   80POPC   GL1 4681  19.021  36.926   8.864
   80POPC   GL2 4682  18.973  36.819   8.864
   80POPC   C1A 4683  19.045  36.943   8.564
   80POPC   D2A 4684  19.055  36.857   8.264
   80POPC   C3A 4685  19.072  36.898   7.964
   80POPC   C4A 4686  19.086  36.863   7.664
   80POPC   C1B 4687  18.884  36.668   8.564
   80POPC   C2B 4688  18.848  36.736   8.264
   80POPC   C3B 4689  18.932  36.696   7.964
   80POPC   C4B 4690  18.890  36.742   7.664
   81POPC   NC3 4691   1.226  39.210   9.464
   81POPC   PO4 4692   1.207  39.235   9.164
   81POPC   GL1 4693   1.217  39.264   8.864
   81POPC   GL2 4694   1.108  39.235   8.864
   81POPC   C1A 4695   1.193  39.184   8.564
   81POPC   D2A 4696   1.241  39.194   8.264
   81POPC   C3A 4697   1.242  39.267   7.964
   81POPC   C4A 4698   1.261  39.224   7.664
   81POPC   C1B 4699   0.975  39.274   8.564
   81POPC   C2B 4700   0.939  39.289   8.264
   81POPC   C3B 4701   0.945  39.239   7.964
   81POPC   C4B 4702   0.983  39.227   7.664
   82POPC   NC3 4703  29.966  41.578   9.464
   82POPC   PO4 4704  29.962  41.550   9.164
   82POPC   GL1 4705  29.899  41.518   8.864
   82POPC   GL2 4706  30.070  41.627   8.864
   82POPC   C1A 4707  29.878  41.605   8.564
   82POPC   D2A 4708  29.901  41.542   8.264
   82POPC   C3A 4709  29.898  41.587   7.964
   82POPC   C4A 4710  29.912  41.608   7.664
   82POPC   C1B 4711  30.090  41.637   8.564
   82POPC   C2B 4712  30.091  41.650   8.264
   82POPC   C3B 4713  30.162  41.647   7.964
   82POPC   C4B 4714  30.098  41.646   7.664
   83POPC   NC3 4715  41.592  37.723   9.464
   83POPC   PO4 4716  41.561  37.727   9.164
   83POPC   GL1 4717  41.573  37.702   8.864
   83POPC   GL2 4718  41.588  37.518   8.864
   83POPC   C1A 4719  41.605  37.644   8.564
   83POPC   D2A 4720  41.547  37.708   8.264
   83POPC   C3A 4721  41.545  37.667   7.964
   83POPC   C4A 4722  41.547  37.667   7.664
   83POPC   C1B 4723  41.641  37.471   8.564
   83POPC   C2B 4724  41.683  37.412   8.264
   83POPC   C3B 4725  41.632  37.496   7.964
   83POPC   C4B 4726  41.663  37.443   7.664
   84POPC   NC3 4727  33.024   0.408   9.464
   84POPC   PO4 4728  33.063   0.428   9.164
   84POPC   GL1 4729  32.997   0.455   8.864
   84POPC   GL2 4730  33.175   0.536   8.864
   84POPC   C1A 4731  33.004   0.472   8.564
   84POPC   D2A 4732  33.063   0.412   8.264
   84POPC   C3A 4733  32.995   0.398   7.964
   84POPC   C4A 4734  32.975   0.442   7.664
   84POPC   C1B 4735  33.226   0.566   8.564
   84POPC   C2B 4736  33.238   0.503   8.264
   84POPC   C3B 4737  33.259   0.560   7.964
   84POPC   C4B 4738  33.205   0.569   7.664
   85POPC   NC3 4739  20.629  25.994   9.464
   85POPC   PO4 4740  20.613  26.026   9.164
   85POPC   GL1 4741  20.606  26.089   8.864
   85POPC   GL2 4742  20.516  25.988   8.864
   85POPC   C1A 4743  20.608  26.047   8.564
   85POPC   D2A 4744  20.597  26.079   8.264
   85POPC   C3A 4745  20.584  26.027   7.964
   85POPC   C4A 4746  20.600  26.069   7.664
   85POPC   C1B 4747  20.410  25.925   8.564
   85POPC   C2B 4748  20.408  25.936   8.264
   85POPC   C3B 4749  20.327  25.982   7.964
   85POPC   C4B 4750  20.390  25.948   7.664
   86POPC   NC3 4751   8.934   0.391   9.464
   86POPC   PO4 4752   8.923   0.485   9.164
   86POPC   GL1 4753   8.944   0.414   8.864
   86POPC   GL2 4754   8.919   0.343   8.864
   86POPC   C1A 4755   8.984   0.447   8.564
   86POPC   D2A 4756   8.973   0.440   8.264
   86POPC   C3A 4757   9.008   0.456   7.964
   86POPC   C4A 4758   8.952   0.396   7.664
   86POPC   C1B 4759   8.837   0.279   8.564
   86POPC   C2B 4760   8.816   0.288   8.264
   86POPC   C3B 4761   8.839   0.245   7.964
   86POPC   C4B 4762   8.848   0.224   7.664
   87POPC   NC3 4763  12.883  40.758   9.464
   87POPC   PO4 4764  12.822  40.811   9.164
   87POPC   GL1 4765  12.871  40.822   8.864
   87POPC   GL2 4766  12.889  40.643   8.864
   87POPC   C1A 4767  12.802  40.765   8.564
   87POPC   D2A 4768  12.899  40.801   8.264
   87POPC   C3A 4769  12.889  40.749   7.964
   87POPC   C4A 4770  12.854  40.816   7.664
   87POPC   C1B 4771  12.916  40.542   8.564
   87POPC   C2B 4772  12.887  40.540   8.264
   87POPC   C3B 4773  12.875  40.535   7.964
   87POPC   C4B 4774  12.945  40.519   7.664
   88POPC   NC3 4775   4.338   8.934   9.464
   88POPC   PO4 4776   4.297   8.942   9.164
   88POPC   GL1 4777   4.286   8.983   8.864
   88POPC   GL2 4778   4.212   8.847   8.864
   88POPC   C1A 4779   4.360   9.014   8.564
   88POPC   D2A 4780   4.292   8.958   8.264
   88POPC   C3A 4781   4.281   8.986   7.964
   88POPC   C4A 4782   4.319   8.925   7.664
   88POPC   C1B 4783   4.181   8.725   8.564
   88POPC   C2B 4784   4.209   8.765   8.264
   88POPC   C3B 4785   4.209   8.780   7.964
   88POPC   C4B 4786   4.139   8.788   7.664
   89POPC   NC3 4787  23.734   3.501   9.464
   89POPC   PO4 4788  23.763   3.554   9.164
   89POPC   GL1 4789  23.757   3.511   8.864
   89POPC   GL2 4790  23.838   3.650   8.864
   89POPC   C1A 4791  23.711   3.546   8.564
   89POPC   D2A 4792  23.717   3.579   8.264
   89POPC   C3A 4793  23.669   3.570   7.964
   89POPC   C4A 4794  23.749   3.579   7.664
   89POPC   C1B 4795  23.913   3.715   8.564
   89POPC   C2B 4796  23.902   3.683   8.264
   89POPC   C3B 4797  23.851   3.721   7.964
   89POPC   C4B 4798  23.887   3.732   7.664
   90POPC   NC3 4799  35.321  21.400   9.464
   90POPC   PO4 4800  35.330  21.378   9.164
   90POPC   GL1 4801  35.323  21.394   8.864
   90POPC   GL2 4802  35.286  21.279   8.864
   90POPC   C1A 4803  35.309  21.359   8.564
   90POPC   D2A 4804  35.305  21.396   8.264
   90POPC   C3A 4805  35.316  21.368   7.964
   90POPC   C4A 4806  35.358  21.336   7.664
   90POPC   C1B 4807  35.303  21.128   8.564
   90POPC   C2B 4808  35.218  21.195   8.264
   90POPC   C3B 4809  35.222  21.133   7.964
   90POPC   C4B 4810  35.300  21.128   7.664
   91POPC   NC3 4811  23.747  42.353   9.464
   91POPC   PO4 4812  23.669  42.299   9.164
   91POPC   GL1 4813  23.736  42.379   8.864
   91POPC   GL2 4814  23.809  42.316   8.864
   91POPC   C1A 4815  23.742  42.298   8.564
   91POPC   D2A 4816  23.695  42.372   8.264
   91POPC   C3A 4817  23.712  42.379   7.964
   91POPC   C4A 4818  23.731  42.366   7.664
   91POPC   C1B 4819  23.981  42.341   8.564
   91POPC   C2B 4820  23.964  42.395   8.264
   91POPC   C3B 4821  23.951  42.317   7.964
   91POPC   C4B 4822  23.927  42.305   7.664
   92POPC   NC3 4823  19.065  12.067   9.464
   92POPC   PO4 4824  19.094  12.124   9.164
   92POPC   GL1 4825  19.031  12.039   8.864
   92POPC   GL2 4826  19.146  12.144   8.864
   92POPC   C1A 4827  19.094  12.057   8.564
   92POPC   D2A 4828  19.049  12.124   8.264
   92POPC   C3A 4829  19.100  12.053   7.964
   92POPC   C4A 4830  19.094  12.081   7.664
   92POPC   C1B 4831  19.255  12.241   8.564
   92POPC   C2B 4832  19.247  12.252   8.264
   92POPC   C3B 4833  19.217  12.236   7.964
   92POPC   C4B 4834  19.187  12.211   7.664
   93POPC   NC3 4835   6.656   2.019   9.464
   93POPC   PO4 4836   6.645   2.032   9.164
   93POPC   GL1 4837   6.636   1.955   8.864
   93POPC   GL2 4838   6.771   1.977   8.864
   93POPC   C1A 4839   6.666   2.014   8.564
   93POPC   D2A 4840   6.629   2.023   8.264
   93POPC   C3A 4841   6.609   2.032   7.964
   93POPC   C4A 4842   6.672   2.021   7.664
   93POPC   C1B 4843   6.909   1.961   8.564
   93POPC   C2B 4844   6.850   1.920   8.264
   93POPC   C3B 4845   6.858   1.984   7.964
   93POPC   C4B 4846   6.847   1.984   7.664
   94POPC   NC3 4847  33.822  36.160   9.464
   94POPC   PO4 4848  33.776  36.171   9.164
   94POPC   GL1 4849  33.819  36.130   8.864
   94POPC   GL2 4850  33.888  36.036   8.864
   94POPC   C1A 4851  33.764  36.168   8.564
   94POPC   D2A 4852  33.763  36.129   8.264
   94POPC   C3A 4853  33.815  36.160   7.964
   94POPC   C4A 4854  33.777  36.166   7.664
   94POPC   C1B 4855  33.934  35.949   8.564
   94POPC   C2B 4856  34.001  35.939   8.264
   94POPC   C3B 4857  34.017  35.992   7.964
   94POPC   C4B 4858  33.986  35.952   7.664
   95POPC   NC3 4859  18.274   3.531   9.464
   95POPC   PO4 4860  18.290   3.496   9.164
   95POPC   GL1 4861  18.283   3.588   8.864
   95POPC   GL2 4862  18.389   3.608   8.864
   95POPC   C1A 4863  18.292   3.509   8.564
   95POPC   D2A 4864  18.282   3.555   8.264
   95POPC   C3A 4865  18.235   3.562   7.964
   95POPC   C4A 4866  18.278   3.589   7.664
   95POPC   C1B 4867  18.451   3.675   8.564
   95POPC   C2B 4868  18.504   3.707   8.264
   95POPC   C3B 4869  18.483   3.697   7.964
   95POPC   C4B 4870  18.478   3.694   7.664
   96POPC   NC3 4871  12.092  13.609   9.464
   96POPC   PO4 4872  12.071  13.578   9.164
   96POPC   GL1 4873  12.048  13.629   8.864
   96POPC   GL2 4874  12.224  13.670   8.864
   96POPC   C1A 4875  12.037  13.590   8.564
   96POPC   D2A 4876  12.066  13.590   8.264
   96POPC   C3A 4877  12.049  13.591   7.964
   96POPC   C4A 4878  12.064  13.640   7.664
   96POPC   C1B 4879  12.308  13.661   8.564
   96POPC   C2B 4880  12.332  13.638   8.264
   96POPC   C3B 4881  12.318  13.732   7.964
   96POPC   C4B 4882  12.314  13.665   7.664
   97POPC   NC3 4883  20.636   6.610   9.464
   97POPC   PO4 4884  20.589   6.661   9.164
   97POPC   GL1 4885  20.605   6.664   8.864
   97POPC   GL2 4886  20.725   6.752   8.864
   97POPC   C1A 4887  20.630   6.689   8.564
   97POPC   D2A 4888  20.572   6.652   8.264
   97POPC   C3A 4889  20.645   6.663   7.964
   97POPC   C4A 4890  20.623   6.643   7.664
   97POPC   C1B 4891  20.783   6.858   8.564
   97POPC   C2B 4892  20.730   6.844   8.264
   97POPC   C3B 4893  20.744   6.852   7.964
   97POPC   C4B 4894  20.744   6.871   7.664
   98POPC   NC3 4895  36.864   3.497   9.464
   98POPC   PO4 4896  36.919   3.546   9.164
   98POPC   GL1 4897  36.909   3.534   8.864
   98POPC   GL2 4898  36.982   3.408   8.864
   98POPC   C1A 4899  36.886   3.574   8.564
   98POPC   D2A 4900  36.906   3.500   8.264
   98POPC   C3A 4901  36.884   3.560   7.964
   98POPC   C4A 4902  36.919   3.568   7.664
   98POPC   C1B 4903  37.002   3.280   8.564
   98POPC   C2B 4904  37.062   3.303   8.264
   98POPC   C3B 4905  37.014   3.295   7.964
   98POPC   C4B 4906  37.016   3.315   7.664
   99POPC   NC3 4907  32.285  24.463   9.464
   99POPC   PO4 4908  32.265  24.465   9.164
   99POPC   GL1 4909  32.264  24.457   8.864
   99POPC   GL2 4910  32.303  24.608   8.864
   99POPC   C1A 4911  32.278  24.466   8.564
   99POPC   D2A 4912  32.250  24.451   8.264
   99POPC   C3A 4913  32.269  24.537   7.964
   99POPC   C4A 4914  32.199  24.451   7.664
   99POPC   C1B 4915  32.241  24.787   8.564
   99POPC   C2B 4916  32.259  24.771   8.264
   99POPC   C3B 4917  32.243  24.739   7.964
   99POPC   C4B 4918  32.325  24.760   7.664
  100POPC   NC3 4919  38.421   2.777   9.464
  100POPC   PO4 4920  38.414   2.736   9.164
  100POPC   GL1 4921  38.476   2.784   8.864
  100POPC   GL2 4922  38.321   2.699   8.864
  100POPC   C1A 4923  38.471   2.739   8.564
  100POPC   D2A 4924  38.479   2.784   8.264
  100POPC   C3A 4925  38.490   2.810   7.964
  100POPC   C4A 4926  38.493   2.740   7.664
  100POPC   C1B 4927  38.220   2.655   8.564
  100POPC   C2B 4928  38.194   2.655   8.264
  100POPC   C3B 4929  38.254   2.609   7.964
  100POPC   C4B 4930  38.206   2.638   7.664
  101POPC   NC3 4931   1.977  30.708   9.464
  101POPC   PO4 4932   2.039  30.722   9.164
  101POPC   GL1 4933   1.994  30.710   8.864
  101POPC   GL2 4934   1.956  30.857   8.864
  101POPC   C1A 4935   2.002  30.689   8.564
  101POPC   D2A 4936   2.028  30.737   8.264
  101POPC   C3A 4937   2.002  30.685   7.964
  101POPC   C4A 4938   1.970  30.665   7.664
  101POPC   C1B 4939   1.927  30.889   8.564
  101POPC   C2B 4940   1.904  30.979   8.264
  101POPC   C3B 4941   1.947  30.974   7.964
  101POPC   C4B 4942   1.936  30.973   7.664
  102POPC   NC3 4943  19.829  19.105   9.464
  102POPC   PO4 4944  19.791  19.096   9.164
  102POPC   GL1 4945  19.811  19.077   8.864
  102POPC   GL2 4946  19.867  19.111   8.864
  102POPC   C1A 4947  19.823  19.077   8.564
  102POPC   D2A 4948  19.800  19.101   8.264
  102POPC   C3A 4949  19.874  19.016   7.964
  102POPC   C4A 4950  19.786  19.032   7.664
  102POPC   C1B 4951  19.960  19.254   8.564
  102POPC   C2B 4952  19.997  19.292   8.264
  102POPC   C3B 4953  19.943  19.284   7.964
  102POPC   C4B 4954  19.997  19.257   7.664
  103POPC   NC3 4955   0.441  12.037   9.464
  103POPC   PO4 4956   0.400  12.123   9.164
  103POPC   GL1 4957   0.398  12.092   8.864
  103POPC   GL2 4958   0.385  12.180   8.864
  103POPC   C1A 4959   0.445  12.092   8.564
  103POPC   D2A 4960   0.406  12.043   8.264
  103POPC   C3A 4961   0.448  12.124   7.964
  103POPC   C4A 4962   0.406  12.123   7.664
  103POPC   C1B 4963   0.465  12.345   8.564
  103POPC   C2B 4964   0.474  12.322   8.264
  103POPC   C3B 4965   0.411  12.354   7.964
  103POPC   C4B 4966   0.387  12.347   7.664
  104POPC   NC3 4967   0.475   5.901   9.464
  104POPC   PO4 4968   0.480   5.841   9.164
  104POPC   GL1 4969   0.486   5.900   8.864
  104POPC   GL2 4970   0.274   5.888   8.864
  104POPC   C1A 4971   0.391   5.836   8.564
  104POPC   D2A 4972   0.429   5.885   8.264
  104POPC   C3A 4973   0.449   5.862   7.964
  104POPC   C4A 4974   0.425   5.865   7.664
  104POPC   C1B 4975   0.228   5.816   8.564
  104POPC   C2B 4976   0.224   5.799   8.264
  104POPC   C3B 4977   0.202   5.859   7.964
  104POPC   C4B 4978   0.241   5.849   7.664
  105POPC   NC3 4979  16.710  22.917   9.464
  105POPC   PO4 4980  16.754  22.914   9.164
  105POPC   GL1 4981  16.752  22.941   8.864
  105POPC   GL2 4982  16.725  22.800   8.864
  105POPC   C1A 4983  16.724  22.954   8.564
  105POPC   D2A 4984  16.755  22.921   8.264
  105POPC   C3A 4985  16.773  22.967   7.964
  105POPC   C4A 4986  16.726  22.891   7.664
  105POPC   C1B 4987  16.791  22.698   8.564
  105POPC   C2B 4988  16.827  22.655   8.264
  105POPC   C3B 4989  16.769  22.722   7.964
  105POPC   C4B 4990  16.804  22.660   7.664
  106POPC   NC3 4991  27.569  16.744   9.464
  106POPC   PO4 4992  27.556  16.745   9.164
  106POPC   GL1 4993  27.623  16.760   8.864
  106POPC   GL2 4994  27.540  16.810   8.864
  106POPC   C1A 4995  27.639  16.705   8.564
  106POPC   D2A 4996  27.611  16.778   8.264
  106POPC   C3A 4997  27.552  16.709   7.964
  106POPC   C4A 4998  27.611  16.717   7.664
  106POPC   C1B 4999  27.493  16.901   8.564
  106POPC   C2B 5000  27.499  16.911   8.264
  106POPC   C3B 5001  27.504  16.922   7.964
  106POPC   C4B 5002  27.443  16.969   7.664
  107POPC   NC3 5003  42.356  15.979   9.464
  107POPC   PO4 5004  42.307  16.000   9.164
  107POPC   GL1 5005  42.301  15.930   8.864
  107POPC   GL2 5006  42.287  15.905   8.864
  107POPC   C1A 5007  42.380  15.925   8.564
  107POPC   D2A 5008  42.337  15.960   8.264
  107POPC   C3A 5009  42.322  15.999   7.964
  107POPC   C4A 5010  42.289  15.973   7.664
  107POPC   C1B 5011  42.117  15.824   8.564
  107POPC   C2B 5012  42.187  15.826   8.264
  107POPC   C3B 5013  42.149  15.809   7.964
  107POPC   C4B 5014  42.115  15.764   7.664
  108POPC   NC3 5015  38.433  12.842   9.464
  108POPC   PO4 5016  38.479  12.882   9.164
  108POPC   GL1 5017  38.479  12.885   8.864
  108POPC   GL2 5018  38.556  12.871   8.864
  108POPC   C1A 5019  38.501  12.847   8.564
  108POPC   D2A 5020  38.485  12.806   8.264
  108POPC   C3A 5021  38.472  12.834   7.964
  108POPC   C4A 5022  38.453  12.814   7.664
  108POPC   C1B 5023  38.710  13.006   8.564
  108POPC   C2B 5024  38.629  12.984   8.264
  108POPC   C3B 5025  38.632  13.019   7.964
  108POPC   C4B 5026  38.701  12.977   7.664
  109POPC   NC3 5027   5.871  34.601   9.464
  109POPC   PO4 5028   5.909  34.561   9.164
  109POPC   GL1 5029   5.916  34.548   8.864
  109POPC   GL2 5030   5.922  34.456   8.864
  109POPC   C1A 5031   5.894  34.536   8.564
  109POPC   D2A 5032   5.859  34.539   8.264
  109POPC   C3A 5033   5.889  34.530   7.964
  109POPC   C4A 5034   5.845  34.571   7.664
  109POPC   C1B 5035   5.941  34.369   8.564
  109POPC   C2B 5036   5.942  34.346   8.264
  109POPC   C3B 5037   5.961  34.320   7.964
  109POPC   C4B 5038   5.901  34.355   7.664
  110POPC   NC3 5039  25.258  20.657   9.464
  110POPC   PO4 5040  25.283  20.616   9.164
  110POPC   GL1 5041  25.227  20.660   8.864
  110POPC   GL2 5042  25.387  20.702   8.864
  110POPC   C1A 5043  25.256  20.568   8.564
  110POPC   D2A 5044  25.219  20.572   8.264
  110POPC   C3A 5045  25.279  20.634   7.964
  110POPC   C4A 5046  25.250  20.564   7.664
  110POPC   C1B 5047  25.436  20.733   8.564
  110POPC   C2B 5048  25.483  20.740   8.264
  110POPC   C3B 5049  25.474  20.726   7.964
  110POPC   C4B 5050  25.513  20.772   7.664
  111POPC   NC3 5051   8.993  19.811   9.464
  111POPC   PO4 5052   8.964  19.816   9.164
  111POPC   GL1 5053   8.941  19.875   8.864
  111POPC   GL2 5054   8.980  19.999   8.864
  111POPC   C1A 5055   8.943  19.849   8.564
  111POPC   D2A 5056   8.962  19.847   8.264
  111POPC   C3A 5057   8.968  19.849   7.964
  111POPC   C4A 5058   8.959  19.868   7.664
  111POPC   C1B 5059   9.055  20.047   8.564
  111POPC   C2B 5060   9.098  20.075   8.264
  111POPC   C3B 5061   9.038  20.079   7.964
  111POPC   C4B 5062   9.080  20.065   7.664
  112POPC   NC3 5063  29.920  23.725   9.464
  112POPC   PO4 5064  29.946  23.741   9.164
  112POPC   GL1 5065  29.936  23.746   8.864
  112POPC   GL2 5066  29.961  23.791   8.864
  112POPC   C1A 5067  29.952  23.758   8.564
  112POPC   D2A 5068  29.876  23.692   8.264
  112POPC   C3A 5069  29.946  23.726   7.964
  112POPC   C4A 5070  29.925  23.712   7.664
  112POPC   C1B 5071  29.879  23.949   8.564
  112POPC   C2B 5072  29.887  24.001   8.264
  112POPC   C3B 5073  29.956  23.943   7.964
  112POPC   C4B 5074  29.872  23.926   7.664
  113POPC   NC3 5075  10.523  21.435   9.464
  113POPC   PO4 5076  10.570  21.384   9.164
  113POPC   GL1 5077  10.542  21.348   8.864
  113POPC   GL2 5078  10.461  21.268   8.864
  113POPC   C1A 5079  10.569  21.383   8.564
  113POPC   D2A 5080  10.561  21.384   8.264
  113POPC   C3A 5081  10.510  21.394   7.964
  113POPC   C4A 5082  10.545  21.431   7.664
  113POPC   C1B 5083  10.473  21.110   8.564
  113POPC   C2B 5084  10.449  21.177   8.264
  113POPC   C3B 5085  10.524  21.135   7.964
  113POPC   C4B 5086  10.508  21.165   7.664
  114POPC   NC3 5087   8.944   4.342   9.464
  114POPC   PO4 5088   8.977   4.348   9.164
  114POPC   GL1 5089   8.998   4.326   8.864
  114POPC   GL2 5090   9.017   4.185   8.864
  114POPC   C1A 5091   8.943   4.312   8.564
  114POPC   D2A 5092   8.993   4.292   8.264
  114POPC   C3A 5093   9.001   4.272   7.964
  114POPC   C4A 5094   8.956   4.332   7.664
  114POPC   C1B 5095   9.114   4.174   8.564
  114POPC   C2B 5096   9.121   4.106   8.264
  114POPC   C3B 5097   9.189   4.098   7.964
  114POPC   C4B 5098   9.150   4.087   7.664
  115POPC   NC3 5099   2.765  29.191   9.464
  115POPC   PO4 5100   2.757  29.133   9.164
  115POPC   GL1 5101   2.758  29.128   8.864
  115POPC   GL2 5102   2.687  29.030   8.864
  115POPC   C1A 5103   2.757  29.142   8.564
  115POPC   D2A 5104   2.804  29.191   8.264
  115POPC   C3A 5105   2.790  29.111   7.964
  115POPC   C4A 5106   2.734  29.184   7.664
  115POPC   C1B 5107   2.582  28.989   8.564
  115POPC   C2B 5108   2.536  29.027   8.264
  115POPC   C3B 5109   2.527  28.961   7.964
  115POPC   C4B 5110   2.555  28.999   7.664
  116POPC   NC3 5111  44.691  19.813   9.464
  116POPC   PO4 5112  44.665  19.847   9.164
  116POPC   GL1 5113  44.643  19.785   8.864
  116POPC   GL2 5114  44.660  19.664   8.864
  116POPC   C1A 5115  44.616  19.791   8.564
  116POPC   D2A 5116  44.703  19.884   8.264
  116POPC   C3A 5117  44.642  19.853   7.964
  116POPC   C4A 5118  44.668  19.879   7.664
  116POPC   C1B 5119  44.724  19.593   8.564
  116POPC   C2B 5120  44.713  19.586   8.264
  116POPC   C3B 5121  44.671  19.632   7.964
  116POPC   C4B 5122  44.705  19.600   7.664
  117POPC   NC3 5123  32.282  22.196   9.464
  117POPC   PO4 5124  32.289  22.135   9.164
  117POPC   GL1 5125  32.261  22.169   8.864
  117POPC   GL2 5126  32.363  22.052   8.864
  117POPC   C1A 5127  32.222  22.129   8.564
  117POPC   D2A 5128  32.294  22.127   8.264
  117POPC   C3A 5129  32.268  22.160   7.964
  117POPC   C4A 5130  32.199  22.194   7.664
  117POPC   C1B 5131  32.401  21.990   8.564
  117POPC   C2B 5132  32.445  21.980   8.264
  117POPC   C3B 5133  32.389  21.949   7.964
  117POPC   C4B 5134  32.457  21.991   7.664
  118POPC   NC3 5135  42.306  25.250   9.464
  118POPC   PO4 5136  42.352  25.281   9.164
  118POPC   GL1 5137  42.375  25.292   8.864
  118POPC   GL2 5138  42.282  25.140   8.864
  118POPC   C1A 5139  42.307  25.229   8.564
  118POPC   D2A 5140  42.378  25.277   8.264
  118POPC   C3A 5141  42.310  25.249   7.964
  118POPC   C4A 5142  42.349  25.304   7.664
  118POPC   C1B 5143  42.190  25.102   8.564
  118POPC   C2B 5144  42.204  25.045   8.264
  118POPC   C3B 5145  42.206  25.042   7.964
  118POPC   C4B 5146  42.155  25.121   7.664
  119POPC   NC3 5147  15.139  40.002   9.464
  119POPC   PO4 5148  15.135  40.025   9.164
  119POPC   GL1 5149  15.143  39.997   8.864
  119POPC   GL2 5150  15.240  39.855   8.864
  119POPC   C1A 5151  15.188  39.986   8.564
  119POPC   D2A 5152  15.141  40.013   8.264
  119POPC   C3A 5153  15.185  39.998   7.964
  119POPC   C4A 5154  15.184  39.996   7.664
  119POPC   C1B 5155  15.184  39.729   8.564
  119POPC   C2B 5156  15.189  39.730   8.264
  119POPC   C3B 5157  15.187  39.784   7.964
  119POPC   C4B 5158  15.188  39.765   7.664
  120POPC   NC3 5159  19.093  41.568   9.464
  120POPC   PO4 5160  19.105  41.559   9.164
  120POPC   GL1 5161  19.059  41.575   8.864
  120POPC   GL2 5162  19.163  41.592   8.864
  120POPC   C1A 5163  19.019  41.552   8.564
  120POPC   D2A 5164  19.070  41.566   8.264
  120POPC   C3A 5165  19.034  41.532   7.964
  120POPC   C4A 5166  19.072  41.521   7.664
  120POPC   C1B 5167  19.300  41.559   8.564
  120POPC   C2B 5168  19.281  41.588   8.264
  120POPC   C3B 5169  19.296  41.525   7.964
  120POPC   C4B 5170  19.278  41.528   7.664
  121POPC   NC3 5171  21.390   4.348   9.464
  121POPC   PO4 5172  21.426   4.363   9.164
  121POPC   GL1 5173  21.379   4.319   8.864
  121POPC   GL2 5174  21.534   4.295   8.864
  121POPC   C1A 5175  21.380   4.339   8.564
  121POPC   D2A 5176  21.367   4.343   8.264
  121POPC   C3A 5177  21.400   4.274   7.964
  121POPC   C4A 5178  21.382   4.328   7.664
  121POPC   C1B 5179  21.664   4.237   8.564
  121POPC   C2B 5180  21.636   4.261   8.264
  121POPC   C3B 5181  21.575   4.214   7.964
  121POPC   C4B 5182  21.584   4.208   7.664
  122POPC   NC3 5183  34.578  25.222   9.464
  122POPC   PO4 5184  34.611  25.305   9.164
  122POPC   GL1 5185  34.561  25.256   8.864
  122POPC   GL2 5186  34.483  25.172   8.864
  122POPC   C1A 5187  34.588  25.288   8.564
  122POPC   D2A 5188  34.574  25.266   8.264
  122POPC   C3A 5189  34.588  25.299   7.964
  122POPC   C4A 5190  34.605  25.311   7.664
  122POPC   C1B 5191  34.383  25.090   8.564
  122POPC   C2B 5192  34.445  25.067   8.264
  122POPC   C3B 5193  34.467  25.053   7.964
  122POPC   C4B 5194  34.407  25.043   7.664
  123POPC   NC3 5195  37.682  44.652   9.464
  123POPC   PO4 5196  37.646  44.675   9.164
  123POPC   GL1 5197  37.703  44.619   8.864
  123POPC   GL2 5198  37.576  44.773   8.864
  123POPC   C1A 5199  37.688  44.642   8.564
  123POPC   D2A 5200  37.676  44.681   8.264
  123POPC   C3A 5201  37.693  44.702   7.964
  123POPC   C4A 5202  37.705  44.670   7.664
  123POPC   C1B 5203  37.505  44.824   8.564
  123POPC   C2B 5204  37.499  44.889   8.264
  123POPC   C3B 5205  37.558  44.895   7.964
  123POPC   C4B 5206  37.534  44.918   7.664
  124POPC   NC3 5207  33.069  27.545   9.464
  124POPC   PO4 5208  32.988  27.594   9.164
  124POPC   GL1 5209  33.024  27.581   8.864
  124POPC   GL2 5210  33.064  27.750   8.864
  124POPC   C1A 5211  33.023  27.593   8.564
  124POPC   D2A 5212  33.035  27.609   8.264
  124POPC   C3A 5213  33.041  27.623   7.964
  124POPC   C4A 5214  33.022  27.630   7.664
  124POPC   C1B 5215  33.153  27.782   8.564
  124POPC   C2B 5216  33.085  27.793   8.264
  124POPC   C3B 5217  33.141  27.849   7.964
  124POPC   C4B 5218  33.170  27.841   7.664
  125POPC   NC3 5219  26.852   3.571   9.464
  125POPC   PO4 5220  26.850   3.528   9.164
  125POPC   GL1 5221  26.790   3.523   8.864
  125POPC   GL2 5222  26.769   3.428   8.864
  125POPC   C1A 5223  26.856   3.556   8.564
  125POPC   D2A 5224  26.769   3.562   8.264
  125POPC   C3A 5225  26.797   3.516   7.964
  125POPC   C4A 5226  26.833   3.560   7.664
  125POPC   C1B 5227  26.661   3.381   8.564
  125POPC   C2B 5228  26.601   3.343   8.264
  125POPC   C3B 5229  26.592   3.363   7.964
  125POPC   C4B 5230  26.584   3.389   7.664
  126POPC   NC3 5231  33.804   7.402   9.464
  126POPC   PO4 5232  33.778   7.464   9.164
  126POPC   GL1 5233  33.815   7.444   8.864
  126POPC   GL2 5234  33.957   7.390   8.864
  126POPC   C1A 5235  33.844   7.408   8.564
  126POPC   D2A 5236  33.810   7.465   8.264
  126POPC   C3A 5237  33.758   7.452   7.964
  126POPC   C4A 5238  33.843   7.417   7.664
  126POPC   C1B 5239  34.061   7.417   8.564
  126POPC   C2B 5240  34.040   7.444   8.264
  126POPC   C3B 5241  34.090   7.471   7.964
  126POPC   C4B 5242  34.059   7.448   7.664
  127POPC   NC3 5243   1.262  30.705   9.464
  127POPC   PO4 5244   1.202  30.662   9.164
  127POPC   GL1 5245   1.212  30.675   8.864
  127POPC   GL2 5246   1.238  30.787   8.864
  127POPC   C1A 5247   1.184  30.714   8.564
  127POPC   D2A 5248   1.247  30.715   8.264
  127POPC   C3A 5249   1.166  30.743   7.964
  127POPC   C4A 5250   1.186  30.714   7.664
  127POPC   C1B 5251   1.198  30.917   8.564
  127POPC   C2B 5252   1.176  30.921   8.264
  127POPC   C3B 5253   1.203  30.957   7.964
  127POPC   C4B 5254   1.238  30.903   7.664
  128POPC   NC3 5255  33.016  31.499   9.464
  128POPC   PO4 5256  33.043  31.436   9.164
  128POPC   GL1 5257  33.047  31.519   8.864
  128POPC   GL2 5258  33.114  31.561   8.864
  128POPC   C1A 5259  33.042  31.472   8.564
  128POPC   D2A 5260  33.032  31.507   8.264
  128POPC   C3A 5261  33.066  31.484   7.964
  128POPC   C4A 5262  32.994  31.471   7.664
  128POPC   C1B 5263  33.206  31.623   8.564
  128POPC   C2B 5264  33.226  31.669   8.264
  128POPC   C3B 5265  33.231  31.610   7.964
  128POPC   C4B 5266  33.222  31.610   7.664
  129POPC   NC3 5267  19.046  19.020   9.464
  129POPC   PO4 5268  19.033  19.048   9.164
  129POPC   GL1 5269  19.089  19.102   8.864
  129POPC   GL2 5270  19.188  19.152   8.864
  129POPC   C1A 5271  19.026  19.055   8.564
  129POPC   D2A 5272  19.042  19.068   8.264
  129POPC   C3A 5273  19.082  19.022   7.964
  129POPC   C4A 5274  19.048  19.089   7.664
  129POPC   C1B 5275  19.239  19.127   8.564
  129POPC   C2B 5276  19.316  19.150   8.264
  129POPC   C3B 5277  19.322  19.181   7.964
  129POPC   C4B 5278  19.307  19.173   7.664
  130POPC   NC3 5279  14.398   6.649   9.464
  130POPC   PO4 5280  14.403   6.682   9.164
  130POPC   GL1 5281  14.405   6.666   8.864
  130POPC   GL2 5282  14.436   6.480   8.864
  130POPC   C1A 5283  14.399   6.645   8.564
  130POPC   D2A 5284  14.412   6.689   8.264
  130POPC   C3A 5285  14.374   6.617   7.964
  130POPC   C4A 5286  14.443   6.656   7.664
  130POPC   C1B 5287  14.425   6.385   8.564
  130POPC   C2B 5288  14.402   6.397   8.264
  130POPC   C3B 5289  14.410   6.402   7.964
  130POPC   C4B 5290  14.446   6.442   7.664
  131POPC   NC3 5291  13.655  36.101   9.464
  131POPC   PO4 5292  13.607  36.157   9.164
  131POPC   GL1 5293  13.599  36.165   8.864
  131POPC   GL2 5294  13.493  36.210   8.864
  131POPC   C1A 5295  13.588  36.153   8.564
  131POPC   D2A 5296  13.613  36.121   8.264
  131POPC   C3A 5297  13.596  36.154   7.964
  131POPC   C4A 5298  13.664  36.135   7.664
  131POPC   C1B 5299  13.495  36.316   8.564
  131POPC   C2B 5300  13.455  36.282   8.264
  131POPC   C3B 5301  13.422  36.276   7.964
  131POPC   C4B 5302  13.452  36.327   7.664
  132POPC   NC3 5303  16.764  42.362   9.464
  132POPC   PO4 5304  16.743  42.307   9.164
  132POPC   GL1 5305  16.751  42.291   8.864
  132POPC   GL2 5306  16.663  42.200   8.864
  132POPC   C1A 5307  16.745  42.349   8.564
  132POPC   D2A 5308  16.758  42.362   8.264
  132POPC   C3A 5309  16.695  42.379   7.964
  132POPC   C4A 5310  16.761  42.370   7.664
  132POPC   C1B 5311  16.660  42.080   8.564
  132POPC   C2B 5312  16.700  42.063   8.264
  132POPC   C3B 5313  16.611  42.078   7.964
  132POPC   C4B 5314  16.699  42.096   7.664
  133POPC   NC3 5315  31.458   3.565   9.464
  133POPC   PO4 5316  31.456   3.518   9.164
  133POPC   GL1 5317  31.436   3.567   8.864
  133POPC   GL2 5318  31.343   3.606   8.864
  133POPC   C1A 5319  31.505   3.531   8.564
  133POPC   D2A 5320  31.477   3.590   8.264
  133POPC   C3A 5321  31.453   3.540   7.964
  133POPC   C4A 5322  31.500   3.550   7.664
  133POPC   C1B 5323  31.259   3.714   8.564
  133POPC   C2B 5324  31.232   3.670   8.264
  133POPC   C3B 5325  31.266   3.683   7.964
  133POPC   C4B 5326  31.247   3.748   7.664
  134POPC   NC3 5327  40.006  35.338   9.464
  134POPC   PO4 5328  40.015  35.400   9.164
  134POPC   GL1 5329  39.992  35.374   8.864
  134POPC   GL2 5330  40.132  35.366   8.864
  134POPC   C1A 5331  39.986  35.330   8.564
  134POPC   D2A 5332  39.999  35.335   8.264
  134POPC   C3A 5333  40.026  35.337   7.964
  134POPC   C4A 5334  40.030  35.349   7.664
  134POPC   C1B 5335  40.239  35.485   8.564
  134POPC   C2B 5336  40.252  35.445   8.264
  134POPC   C3B 5337  40.240  35.451   7.964
  134POPC   C4B 5338  40.263  35.440   7.664
  135POPC   NC3 5339  15.140  38.433   9.464
  135POPC   PO4 5340  15.188  38.495   9.164
  135POPC   GL1 5341  15.222  38.478   8.864
  135POPC   GL2 5342  15.153  38.286   8.864
  135POPC   C1A 5343  15.228  38.408   8.564
  135POPC   D2A 5344  15.172  38.428   8.264
  135POPC   C3A 5345  15.141  38.421   7.964
  135POPC   C4A 5346  15.162  38.429   7.664
  135POPC   C1B 5347  15.168  38.166   8.564
  135POPC   C2B 5348  15.220  38.211   8.264
  135POPC   C3B 5349  15.240  38.177   7.964
  135POPC   C4B 5350  15.157  38.253   7.664
  136POPC   NC3 5351  25.304  41.534   9.464
  136POPC   PO4 5352  25.243  41.539   9.164
  136POPC   GL1 5353  25.266  41.559   8.864
  136POPC   GL2 5354  25.221  41.417   8.864
  136POPC   C1A 5355  25.232  41.521   8.564
  136POPC   D2A 5356  25.271  41.558   8.264
  136POPC   C3A 5357  25.297  41.545   7.964
  136POPC   C4A 5358  25.234  41.514   7.664
  136POPC   C1B 5359  25.156  41.295   8.564
  136POPC   C2B 5360  25.152  41.282   8.264
  136POPC   C3B 5361  25.186  41.277   7.964
  136POPC   C4B 5362  25.222  41.357   7.664
  137POPC   NC3 5363  11.253  43.883   9.464
  137POPC   PO4 5364  11.259  43.870   9.164
  137POPC   GL1 5365  11.321  43.927   8.864
  137POPC   GL2 5366  11.209  43.961   8.864
  137POPC   C1A 5367  11.307  43.923   8.564
  137POPC   D2A 5368  11.323  43.857   8.264
  137POPC   C3A 5369  11.325  43.924   7.964
  137POPC   C4A 5370  11.344  43.881   7.664
  137POPC   C1B 5371  11.091  43.999   8.564
  137POPC   C2B 5372  11.058  43.951   8.264
  137POPC   C3B 5373  11.098  43.911   7.964
  137POPC   C4B 5374  11.070  43.948   7.664
  138POPC   NC3 5375  24.457  30.668   9.464
  138POPC   PO4 5376  24.520  30.737   9.164
  138POPC   GL1 5377  24.522  30.685   8.864
  138POPC   GL2 5378  24.377  30.702   8.864
  138POPC   C1A 5379  24.528  30.676   8.564
  138POPC   D2A 5380  24.489  30.659   8.264
  138POPC   C3A 5381  24.487  30.721   7.964
  138POPC   C4A 5382  24.535  30.698   7.664
  138POPC   C1B 5383  24.218  30.676   8.564
  138POPC   C2B 5384  24.223  30.613   8.264
  138POPC   C3B 5385  24.206  30.674   7.964
  138POPC   C4B 5386  24.287  30.638   7.664
  139POPC   NC3 5387  15.140  32.245   9.464
  139POPC   PO4 5388  15.182  32.285   9.164
  139POPC   GL1 5389  15.195  32.295   8.864
  139POPC   GL2 5390  15.306  32.168   8.864
  139POPC   C1A 5391  15.160  32.259   8.564
  139POPC   D2A 5392  15.174  32.274   8.264
  139POPC   C3A 5393  15.195  32.275   7.964
  139POPC   C4A 5394  15.227  32.258   7.664
  139POPC   C1B 5395  15.318  32.096   8.564
  139POPC   C2B 5396  15.320  32.077   8.264
  139POPC   C3B 5397  15.331  32.096   7.964
  139POPC   C4B 5398  15.368  32.059   7.664
  140POPC   NC3 5399  38.450  37.723   9.464
  140POPC   PO4 5400  38.465  37.687   9.164
  140POPC   GL1 5401  38.448  37.696   8.864
  140POPC   GL2 5402  38.442  37.798   8.864
  140POPC   C1A 5403  38.484  37.657   8.564
  140POPC   D2A 5404  38.433  37.640   8.264
  140POPC   C3A 5405  38.466  37.674   7.964
  140POPC   C4A 5406  38.495  37.677   7.664
  140POPC   C1B 5407  38.483  37.887   8.564
  140POPC   C2B 5408  38.498  37.888   8.264
  140POPC   C3B 5409  38.467  37.905   7.964
  140POPC   C4B 5410  38.496  37.909   7.664
  141POPC   NC3 5411  15.164  19.871   9.464
  141POPC   PO4 5412  15.150  19.804   9.164
  141POPC   GL1 5413  15.151  19.859   8.864
  141POPC   GL2 5414  15.073  19.825   8.864
  141POPC   C1A 5415  15.188  19.807   8.564
  141POPC   D2A 5416  15.203  19.793   8.264
  141POPC   C3A 5417  15.143  19.871   7.964
  141POPC   C4A 5418  15.212  19.869   7.664
  141POPC   C1B 5419  14.901  19.841   8.564
  141POPC   C2B 5420  14.896  19.906   8.264
  141POPC   C3B 5421  14.902  19.886   7.964
  141POPC   C4B 5422  14.950  19.857   7.664
  142POPC   NC3 5423  26.816  10.483   9.464
  142POPC   PO4 5424  26.855  10.530   9.164
  142POPC   GL1 5425  26.861  10.542   8.864
  142POPC   GL2 5426  26.770  10.650   8.864
  142POPC   C1A 5427  26.788  10.532   8.564
  142POPC   D2A 5428  26.833  10.537   8.264
  142POPC   C3A 5429  26.819  10.560   7.964
  142POPC   C4A 5430  26.793  10.499   7.664
  142POPC   C1B 5431  26.656  10.688   8.564
  142POPC   C2B 5432  26.696  10.732   8.264
  142POPC   C3B 5433  26.686  10.703   7.964
  142POPC   C4B 5434  26.658  10.753   7.664
  143POPC   NC3 5435  35.334  43.877   9.464
  143POPC   PO4 5436  35.378  43.901   9.164
  143POPC   GL1 5437  35.310  43.874   8.864
  143POPC   GL2 5438  35.445  43.738   8.864
  143POPC   C1A 5439  35.399  43.926   8.564
  143POPC   D2A 5440  35.340  43.907   8.264
  143POPC   C3A 5441  35.322  43.850   7.964
  143POPC   C4A 5442  35.376  43.866   7.664
  143POPC   C1B 5443  35.452  43.621   8.564
  143POPC   C2B 5444  35.467  43.702   8.264
  143POPC   C3B 5445  35.415  43.633   7.964
  143POPC   C4B 5446  35.460  43.632   7.664
  144POPC   NC3 5447   5.866  22.902   9.464
  144POPC   PO4 5448   5.864  22.959   9.164
  144POPC   GL1 5449   5.915  22.903   8.864
  144POPC   GL2 5450   5.923  23.043   8.864
  144POPC   C1A 5451   5.894  22.894   8.564
  144POPC   D2A 5452   5.904  22.981   8.264
  144POPC   C3A 5453   5.884  22.968   7.964
  144POPC   C4A 5454   5.862  22.890   7.664
  144POPC   C1B 5455   5.955  23.107   8.564
  144POPC   C2B 5456   5.985  23.152   8.264
  144POPC   C3B 5457   6.014  23.150   7.964
  144POPC   C4B 5458   5.965  23.105   7.664
  145POPC   NC3 5459  22.182  21.336   9.464
  145POPC   PO4 5460  22.170  21.422   9.164
  145POPC   GL1 5461  22.206  21.421   8.864
  145POPC   GL2 5462  22.053  21.420   8.864
  145POPC   C1A 5463  22.135  21.340   8.564
  145POPC   D2A 5464  22.130  21.413   8.264
  145POPC   C3A 5465  22.168  21.404   7.964
  145POPC   C4A 5466  22.128  21.430   7.664
  145POPC   C1B 5467  21.965  21.489   8.564
  145POPC   C2B 5468  21.908  21.490   8.264
  145POPC   C3B 5469  21.984  21.467   7.964
  145POPC   C4B 5470  21.943  21.542   7.664
  146POPC   NC3 5471  43.081  12.810   9.464
  146POPC   PO4 5472  43.061  12.805   9.164
  146POPC   GL1 5473  43.083  12.891   8.864
  146POPC   GL2 5474  43.060  12.759   8.864
  146POPC   C1A 5475  43.073  12.823   8.564
  146POPC   D2A 5476  43.087  12.893   8.264
  146POPC   C3A 5477  43.107  12.813   7.964
  146POPC   C4A 5478  43.065  12.841   7.664
  146POPC   C1B 5479  43.025  12.594   8.564
  146POPC   C2B 5480  43.013  12.619   8.264
  146POPC   C3B 5481  43.009  12.639   7.964
  146POPC   C4B 5482  43.012  12.630   7.664
  147POPC   NC3 5483  21.356  44.622   9.464
  147POPC   PO4 5484  21.365  44.690   9.164
  147POPC   GL1 5485  21.432  44.709   8.864
  147POPC   GL2 5486  21.236  44.720   8.864
  147POPC   C1A 5487  21.424  44.676   8.564
  147POPC   D2A 5488  21.377  44.650   8.264
  147POPC   C3A 5489  21.419  44.627   7.964
  147POPC   C4A 5490  21.343  44.699   7.664
  147POPC   C1B 5491  21.223  44.846   8.564
  147POPC   C2B 5492  21.221  44.754   8.264
  147POPC   C3B 5493  21.174  44.777   7.964
  147POPC   C4B 5494  21.218  44.754   7.664
  148POPC   NC3 5495  37.709  36.159   9.464
  148POPC   PO4 5496  37.729  36.094   9.164
  148POPC   GL1 5497  37.640  36.110   8.864
  148POPC   GL2 5498  37.825  36.045   8.864
  148POPC   C1A 5499  37.712  36.100   8.564
  148POPC   D2A 5500  37.714  36.099   8.264
  148POPC   C3A 5501  37.634  36.109   7.964
  148POPC   C4A 5502  37.673  36.108   7.664
  148POPC   C1B 5503  37.875  35.994   8.564
  148POPC   C2B 5504  37.857  36.004   8.264
  148POPC   C3B 5505  37.919  36.042   7.964
  148POPC   C4B 5506  37.870  35.956   7.664
  149POPC   NC3 5507   7.405  16.731   9.464
  149POPC   PO4 5508   7.421  16.753   9.164
  149POPC   GL1 5509   7.379  16.780   8.864
  149POPC   GL2 5510   7.302  16.698   8.864
  149POPC   C1A 5511   7.462  16.736   8.564
  149POPC   D2A 5512   7.440  16.769   8.264
  149POPC   C3A 5513   7.453  16.690   7.964
  149POPC   C4A 5514   7.374  16.738   7.664
  149POPC   C1B 5515   7.195  16.736   8.564
  149POPC   C2B 5516   7.161  16.690   8.264
  149POPC   C3B 5517   7.176  16.719   7.964
  149POPC   C4B 5518   7.150  16.728   7.664
  150POPC   NC3 5519  36.137  28.332   9.464
  150POPC   PO4 5520  36.087  28.399   9.164
  150POPC   GL1 5521  36.090  28.370   8.864
  150POPC   GL2 5522  36.143  28.486   8.864
  150POPC   C1A 5523  36.175  28.335   8.564
  150POPC   D2A 5524  36.091  28.363   8.264
  150POPC   C3A 5525  36.162  28.394   7.964
  150POPC   C4A 5526  36.083  28.326   7.664
  150POPC   C1B 5527  36.283  28.617   8.564
  150POPC   C2B 5528  36.295  28.635   8.264
  150POPC   C3B 5529  36.296  28.547   7.964
  150POPC   C4B 5530  36.285  28.556   7.664
  151POPC   NC3 5531  11.344  34.622   9.464
  151POPC   PO4 5532  11.342  34.618   9.164
  151POPC   GL1 5533  11.252  34.614   8.864
  151POPC   GL2 5534  11.153  34.605   8.864
  151POPC   C1A 5535  11.263  34.544   8.564
  151POPC   D2A 5536  11.343  34.579   8.264
  151POPC   C3A 5537  11.299  34.560   7.964
  151POPC   C4A 5538  11.292  34.527   7.664
  151POPC   C1B 5539  11.064  34.600   8.564
  151POPC   C2B 5540  11.046  34.545   8.264
  151POPC   C3B 5541  11.094  34.547   7.964
  151POPC   C4B 5542  11.088  34.546   7.664
  152POPC   NC3 5543   2.015  15.132   9.464
  152POPC   PO4 5544   1.980  15.166   9.164
  152POPC   GL1 5545   2.013  15.175   8.864
  152POPC   GL2 5546   2.013  15.324   8.864
  152POPC   C1A 5547   1.945  15.208   8.564
  152POPC   D2A 5548   1.983  15.213   8.264
  152POPC   C3A 5549   2.025  15.228   7.964
  152POPC   C4A 5550   1.951  15.189   7.664
  152POPC   C1B 5551   1.964  15.389   8.564
  152POPC   C2B 5552   1.983  15.456   8.264
  152POPC   C3B 5553   1.941  15.414   7.964
  152POPC   C4B 5554   1.992  15.411   7.664
  153POPC   NC3 5555  28.401  15.148   9.464
  153POPC   PO4 5556  28.339  15.135   9.164
  153POPC   GL1 5557  28.328  15.203   8.864
  153POPC   GL2 5558  28.295  15.187   8.864
  153POPC   C1A 5559  28.369  15.154   8.564
  153POPC   D2A 5560  28.347  15.196   8.264
  153POPC   C3A 5561  28.378  15.199   7.964
  153POPC   C4A 5562  28.393  15.228   7.664
  153POPC   C1B 5563  28.122  15.234   8.564
  153POPC   C2B 5564  28.167  15.265   8.264
  153POPC   C3B 5565  28.134  15.269   7.964
  153POPC   C4B 5566  28.154  15.252   7.664
  154POPC   NC3 5567  39.984  15.137   9.464
  154POPC   PO4 5568  40.010  15.195   9.164
  154POPC   GL1 5569  40.046  15.132   8.864
  154POPC   GL2 5570  40.010  15.042   8.864
  154POPC   C1A 5571  40.035  15.149   8.564
  154POPC   D2A 5572  40.041  15.130   8.264
  154POPC   C3A 5573  39.969  15.178   7.964
  154POPC   C4A 5574  39.977  15.218   7.664
  154POPC   C1B 5575  39.938  14.960   8.564
  154POPC   C2B 5576  39.936  14.938   8.264
  154POPC   C3B 5577  39.948  14.891   7.964
  154POPC   C4B 5578  40.031  14.924   7.664
  155POPC   NC3 5579  11.256  23.696   9.464
  155POPC   PO4 5580  11.324  23.695   9.164
  155POPC   GL1 5581  11.265  23.714   8.864
  155POPC   GL2 5582  11.369  23.623   8.864
  155POPC   C1A 5583  11.258  23.703   8.564
  155POPC   D2A 5584  11.293  23.689   8.264
  155POPC   C3A 5585  11.280  23.705   7.964
  155POPC   C4A 5586  11.312  23.749   7.664
  155POPC   C1B 5587  11.520  23.659   8.564
  155POPC   C2B 5588  11.572  23.665   8.264
  155POPC   C3B 5589  11.521  23.655   7.964
  155POPC   C4B 5590  11.532  23.643   7.664
  156POPC   NC3 5591   3.544  36.158   9.464
  156POPC   PO4 5592   3.533  36.103   9.164
  156POPC   GL1 5593   3.560  36.164   8.864
  156POPC   GL2 5594   3.682  36.048   8.864
  156POPC   C1A 5595   3.505  36.103   8.564
  156POPC   D2A 5596   3.548  36.126   8.264
  156POPC   C3A 5597   3.575  36.153   7.964
  156POPC   C4A 5598   3.523  36.100   7.664
  156POPC   C1B 5599   3.826  36.031   8.564
  156POPC   C2B 5600   3.802  36.032   8.264
  156POPC   C3B 5601   3.821  36.005   7.964
  156POPC   C4B 5602   3.750  36.098   7.664
  157POPC   NC3 5603  21.407  31.475   9.464
  157POPC   PO4 5604  21.375  31.514   9.164
  157POPC   GL1 5605  21.412  31.447   8.864
  157POPC   GL2 5606  21.510  31.547   8.864
  157POPC   C1A 5607  21.371  31.463   8.564
  157POPC   D2A 5608  21.345  31.498   8.264
  157POPC   C3A 5609  21.432  31.473   7.964
  157POPC   C4A 5610  21.371  31.496   7.664
  157POPC   C1B 5611  21.648  31.592   8.564
  157POPC   C2B 5612  21.630  31.573   8.264
  157POPC   C3B 5613  21.592  31.507   7.964
  157POPC   C4B 5614  21.586  31.556   7.664
  158POPC   NC3 5615  38.461  15.177   9.464
  158POPC   PO4 5616  38.447  15.181   9.164
  158POPC   GL1 5617  38.414  15.149   8.864
  158POPC   GL2 5618  38.391  15.120   8.864
  158POPC   C1A 5619  38.476  15.187   8.564
  158POPC   D2A 5620  38.406  15.187   8.264
  158POPC   C3A 5621  38.428  15.143   7.964
  158POPC   C4A 5622  38.411  15.172   7.664
  158POPC   C1B 5623  38.322  14.965   8.564
  158POPC   C2B 5624  38.301  14.947   8.264
  158POPC   C3B 5625  38.293  14.951   7.964
  158POPC   C4B 5626  38.285  14.988   7.664
  159POPC   NC3 5627  39.275  27.639   9.464
  159POPC   PO4 5628  39.274  27.630   9.164
  159POPC   GL1 5629  39.189  27.633   8.864
  159POPC   GL2 5630  39.284  27.752   8.864
  159POPC   C1A 5631  39.195  27.608   8.564
  159POPC   D2A 5632  39.214  27.612   8.264
  159POPC   C3A 5633  39.214  27.592   7.964
  159POPC   C4A 5634  39.262  27.636   7.664
  159POPC   C1B 5635  39.247  27.848   8.564
  159POPC   C2B 5636  39.249  27.887   8.264
  159POPC   C3B 5637  39.253  27.836   7.964
  159POPC   C4B 5638  39.260  27.876   7.664
  160POPC   NC3 5639  26.768  28.338   9.464
  160POPC   PO4 5640  26.800  28.367   9.164
  160POPC   GL1 5641  26.829  28.382   8.864
  160POPC   GL2 5642  26.862  28.474   8.864
  160POPC   C1A 5643  26.810  28.321   8.564
  160POPC   D2A 5644  26.798  28.392   8.264
  160POPC   C3A 5645  26.827  28.388   7.964
  160POPC   C4A 5646  26.781  28.351   7.664
  160POPC   C1B 5647  26.872  28.634   8.564
  160POPC   C2B 5648  26.843  28.658   8.264
  160POPC   C3B 5649  26.879  28.636   7.964
  160POPC   C4B 5650  26.851  28.579   7.664
  161POPC   NC3 5651  23.675  32.208   9.464
  161POPC   PO4 5652  23.724  32.217   9.164
  161POPC   GL1 5653  23.690  32.243   8.864
  161POPC   GL2 5654  23.820  32.224   8.864
  161POPC   C1A 5655  23.743  32.263   8.564
  161POPC   D2A 5656  23.738  32.252   8.264
  161POPC   C3A 5657  23.750  32.222   7.964
  161POPC   C4A 5658  23.680  32.268   7.664
  161POPC   C1B 5659  23.941  32.164   8.564
  161POPC   C2B 5660  23.910  32.152   8.264
  161POPC   C3B 5661  23.964  32.226   7.964
  161POPC   C4B 5662  23.957  32.212   7.664
  162POPC   NC3 5663  41.509  40.010   9.464
  162POPC   PO4 5664  41.531  39.957   9.164
  162POPC   GL1 5665  41.558  40.014   8.864
  162POPC   GL2 5666  41.482  39.865   8.864
  162POPC   C1A 5667  41.599  40.039   8.564
  162POPC   D2A 5668  41.603  39.980   8.264
  162POPC   C3A 5669  41.606  40.054   7.964
  162POPC   C4A 5670  41.515  40.053   7.664
  162POPC   C1B 5671  41.372  39.785   8.564
  162POPC   C2B 5672  41.398  39.805   8.264
  162POPC   C3B 5673  41.352  39.792   7.964
  162POPC   C4B 5674  41.350  39.859   7.664
  163POPC   NC3 5675   4.303  15.168   9.464
  163POPC   PO4 5676   4.315  15.210   9.164
  163POPC   GL1 5677   4.286  15.219   8.864
  163POPC   GL2 5678   4.243  15.136   8.864
  163POPC   C1A 5679   4.365  15.203   8.564
  163POPC   D2A 5680   4.296  15.226   8.264
  163POPC   C3A 5681   4.289  15.222   7.964
  163POPC   C4A 5682   4.339  15.142   7.664
  163POPC   C1B 5683   4.081  15.041   8.564
  163POPC   C2B 5684   4.070  15.123   8.264
  163POPC   C3B 5685   4.069  15.063   7.964
  163POPC   C4B 5686   4.077  15.061   7.664
  164POPC   NC3 5687   8.153  10.559   9.464
  164POPC   PO4 5688   8.202  10.539   9.164
  164POPC   GL1 5689   8.211  10.516   8.864
  164POPC   GL2 5690   8.124  10.563   8.864
  164POPC   C1A 5691   8.245  10.510   8.564
  164POPC   D2A 5692   8.148  10.510   8.264
  164POPC   C3A 5693   8.214  10.529   7.964
  164POPC   C4A 5694   8.151  10.496   7.664
  164POPC   C1B 5695   7.971  10.728   8.564
  164POPC   C2B 5696   8.019  10.722   8.264
  164POPC   C3B 5697   7.977  10.665   7.964
  164POPC   C4B 5698   7.989  10.698   7.664
  165POPC   NC3 5699   1.980  44.641   9.464
  165POPC   PO4 5700   1.977  44.698   9.164
  165POPC   GL1 5701   1.977  44.671   8.864
  165POPC   GL2 5702   1.959  44.830   8.864
  165POPC   C1A 5703   1.977  44.692   8.564
  165POPC   D2A 5704   1.967  44.687   8.264
  165POPC   C3A 5705   1.990  44.618   7.964
  165POPC   C4A 5706   1.995  44.696   7.664
  165POPC   C1B 5707   1.961  44.923   8.564
  165POPC   C2B 5708   1.862  44.860   8.264
  165POPC   C3B 5709   1.960  44.901   7.964
  165POPC   C4B 5710   1.899  44.869   7.664
  166POPC   NC3 5711  40.807  10.559   9.464
  166POPC   PO4 5712  40.831  10.501   9.164
  166POPC   GL1 5713  40.798  10.567   8.864
  166POPC   GL2 5714  40.837  10.426   8.864
  166POPC   C1A 5715  40.748  10.555   8.564
  166POPC   D2A 5716  40.831  10.535   8.264
  166POPC   C3A 5717  40.818  10.486   7.964
  166POPC   C4A 5718  40.821  10.522   7.664
  166POPC   C1B 5719  40.815  10.236   8.564
  166POPC   C2B 5720  40.759  10.283   8.264
  166POPC   C3B 5721  40.776  10.301   7.964
  166POPC   C4B 5722  40.818  10.309   7.664
  167POPC   NC3 5723  35.308  26.829   9.464
  167POPC   PO4 5724  35.376  26.853   9.164
  167POPC   GL1 5725  35.319  26.850   8.864
  167POPC   GL2 5726  35.432  26.810   8.864
  167POPC   C1A 5727  35.307  26.834   8.564
  167POPC   D2A 5728  35.304  26.813   8.264
  167POPC   C3A 5729  35.402  26.850   7.964
  167POPC   C4A 5730  35.378  26.855   7.664
  167POPC   C1B 5731  35.558  26.690   8.564
  167POPC   C2B 5732  35.553  26.713   8.264
  167POPC   C3B 5733  35.569  26.740   7.964
  167POPC   C4B 5734  35.573  26.662   7.664
  168POPC   NC3 5735  11.265  19.878   9.464
  168POPC   PO4 5736  11.319  19.789   9.164
  168POPC   GL1 5737  11.332  19.848   8.864
  168POPC   GL2 5738  11.310  19.936   8.864
  168POPC   C1A 5739  11.259  19.808   8.564
  168POPC   D2A 5740  11.256  19.816   8.264
  168POPC   C3A 5741  11.271  19.836   7.964
  168POPC   C4A 5742  11.303  19.801   7.664
  168POPC   C1B 5743  11.336  20.064   8.564
  168POPC   C2B 5744  11.271  20.068   8.264
  168POPC   C3B 5745  11.277  20.083   7.964
  168POPC   C4B 5746  11.285  20.047   7.664
  169POPC   NC3 5747  37.696   0.461   9.464
  169POPC   PO4 5748  37.657   0.401   9.164
  169POPC   GL1 5749  37.649   0.431   8.864
  169POPC   GL2 5750  37.791   0.397   8.864
  169POPC   C1A 5751  37.647   0.487   8.564
  169POPC   D2A 5752  37.684   0.406   8.264
  169POPC   C3A 5753  37.671   0.475   7.964
  169POPC   C4A 5754  37.664   0.421   7.664
  169POPC   C1B 5755  37.893   0.278   8.564
  169POPC   C2B 5756  37.903   0.262   8.264
  169POPC   C3B 5757  37.889   0.313   7.964
  169POPC   C4B 5758  37.895   0.248   7.664
  170POPC   NC3 5759  33.765  39.251   9.464
  170POPC   PO4 5760  33.824  39.268   9.164
  170POPC   GL1 5761  33.839  39.272   8.864
  170POPC   GL2 5762  33.677  39.252   8.864
  170POPC   C1A 5763  33.840  39.212   8.564
  170POPC   D2A 5764  33.761  39.269   8.264
  170POPC   C3A 5765  33.765  39.243   7.964
  170POPC   C4A 5766  33.810  39.257   7.664
  170POPC   C1B 5767  33.599  39.278   8.564
  170POPC   C2B 5768  33.523  39.230   8.264
  170POPC   C3B 5769  33.597  39.260   7.964
  170POPC   C4B 5770  33.603  39.299   7.664
  171POPC   NC3 5771  43.086  15.923   9.464
  171POPC   PO4 5772  43.095  15.942   9.164
  171POPC   GL1 5773  43.149  15.975   8.864
  171POPC   GL2 5774  43.084  16.116   8.864
  171POPC   C1A 5775  43.103  15.946   8.564
  171POPC   D2A 5776  43.074  15.952   8.264
  171POPC   C3A 5777  43.147  16.003   7.964
  171POPC   C4A 5778  43.064  15.993   7.664
  171POPC   C1B 5779  43.014  16.160   8.564
  171POPC   C2B 5780  43.005  16.222   8.264
  171POPC   C3B 5781  43.084  16.212   7.964
  171POPC   C4B 5782  43.019  16.185   7.664
  172POPC   NC3 5783   7.418   9.719   9.464
  172POPC   PO4 5784   7.455   9.735   9.164
  172POPC   GL1 5785   7.389   9.786   8.864
  172POPC   GL2 5786   7.366   9.825   8.864
  172POPC   C1A 5787   7.449   9.737   8.564
  172POPC   D2A 5788   7.430   9.706   8.264
  172POPC   C3A 5789   7.393   9.778   7.964
  172POPC   C4A 5790   7.453   9.741   7.664
  172POPC   C1B 5791   7.346   9.945   8.564
  172POPC   C2B 5792   7.332  10.005   8.264
  172POPC   C3B 5793   7.360   9.983   7.964
  172POPC   C4B 5794   7.361   9.948   7.664
  173POPC   NC3 5795  30.741  27.568   9.464
  173POPC   PO4 5796  30.715  27.570   9.164
  173POPC   GL1 5797  30.647  27.563   8.864
  173POPC   GL2 5798  30.655  27.726   8.864
  173POPC   C1A 5799  30.667  27.552   8.564
  173POPC   D2A 5800  30.711  27.617   8.264
  173POPC   C3A 5801  30.725  27.554   7.964
  173POPC   C4A 5802  30.746  27.573   7.664
  173POPC   C1B 5803  30.663  27.815   8.564
  173POPC   C2B 5804  30.693  27.884   8.264
  173POPC   C3B 5805  30.726  27.866   7.964
  173POPC   C4B 5806  30.746  27.804   7.664
  174POPC   NC3 5807  16.745  19.048   9.464
  174POPC   PO4 5808  16.719  19.013   9.164
  174POPC   GL1 5809  16.744  19.040   8.864
  174POPC   GL2 5810  16.668  19.143   8.864
  174POPC   C1A 5811  16.746  19.017   8.564
  174POPC   D2A 5812  16.722  19.085   8.264
  174POPC   C3A 5813  16.742  19.015   7.964
  174POPC   C4A 5814  16.690  19.062   7.664
  174POPC   C1B 5815  16.620  19.277   8.564
  174POPC   C2B 5816  16.606  19.257   8.264
  174POPC   C3B 5817  16.608  19.241   7.964
  174POPC   C4B 5818  16.629  19.294   7.664
  175POPC   NC3 5819   1.213  44.684   9.464
  175POPC   PO4 5820   1.209  44.621   9.164
  175POPC   GL1 5821   1.208  44.640   8.864
  175POPC   GL2 5822   1.122  44.707   8.864
  175POPC   C1A 5823   1.222  44.674   8.564
  175POPC   D2A 5824   1.207  44.644   8.264
  175POPC   C3A 5825   1.187  44.659   7.964
  175POPC   C4A 5826   1.223  44.657   7.664
  175POPC   C1B 5827   0.980  44.747   8.564
  175POPC   C2B 5828   1.029  44.832   8.264
  175POPC   C3B 5829   1.032  44.783   7.964
  175POPC   C4B 5830   0.978  44.757   7.664
  176POPC   NC3 5831  43.144  18.261   9.464
  176POPC   PO4 5832  43.099  18.270   9.164
  176POPC   GL1 5833  43.120  18.285   8.864
  176POPC   GL2 5834  43.075  18.157   8.864
  176POPC   C1A 5835  43.068  18.261   8.564
  176POPC   D2A 5836  43.137  18.288   8.264
  176POPC   C3A 5837  43.132  18.278   7.964
  176POPC   C4A 5838  43.061  18.273   7.664
  176POPC   C1B 5839  42.997  18.064   8.564
  176POPC   C2B 5840  42.976  18.042   8.264
  176POPC   C3B 5841  42.981  18.050   7.964
  176POPC   C4B 5842  43.015  18.096   7.664
  177POPC   NC3 5843  43.109  40.803   9.464
  177POPC   PO4 5844  43.076  40.831   9.164
  177POPC   GL1 5845  43.098  40.770   8.864
  177POPC   GL2 5846  43.149  40.729   8.864
  177POPC   C1A 5847  43.155  40.762   8.564
  177POPC   D2A 5848  43.079  40.769   8.264
  177POPC   C3A 5849  43.126  40.744   7.964
  177POPC   C4A 5850  43.089  40.788   7.664
  177POPC   C1B 5851  43.293  40.585   8.564
  177POPC   C2B 5852  43.293  40.573   8.264
  177POPC   C3B 5853  43.266  40.572   7.964
  177POPC   C4B 5854  43.252  40.579   7.664
  178POPC   NC3 5855  13.619  17.508   9.464
  178POPC   PO4 5856  13.651  17.519   9.164
  178POPC   GL1 5857  13.614  17.515   8.864
  178POPC   GL2 5858  13.707  17.417   8.864
  178POPC   C1A 5859  13.644  17.485   8.564
  178POPC   D2A 5860  13.587  17.508   8.264
  178POPC   C3A 5861  13.633  17.505   7.964
  178POPC   C4A 5862  13.602  17.509   7.664
  178POPC   C1B 5863  13.801  17.296   8.564
  178POPC   C2B 5864  13.764  17.329   8.264
  178POPC   C3B 5865  13.783  17.355   7.964
  178POPC   C4B 5866  13.831  17.349   7.664
  179POPC   NC3 5867  29.173   5.855   9.464
  179POPC   PO4 5868  29.108   5.837   9.164
  179POPC   GL1 5869  29.107   5.856   8.864
  179POPC   GL2 5870  29.125   5.996   8.864
  179POPC   C1A 5871  29.151   5.862   8.564
  179POPC   D2A 5872  29.163   5.905   8.264
  179POPC   C3A 5873  29.132   5.855   7.964
  179POPC   C4A 5874  29.159   5.825   7.664
  179POPC   C1B 5875  29.165   6.164   8.564
  179POPC   C2B 5876  29.215   6.113   8.264
  179POPC   C3B 5877  29.136   6.148   7.964
  179POPC   C4B 5878  29.194   6.116   7.664
  180POPC   NC3 5879  43.115  34.567   9.464
  180POPC   PO4 5880  43.159  34.577   9.164
  180POPC   GL1 5881  43.132  34.529   8.864
  180POPC   GL2 5882  43.192  34.508   8.864
  180POPC   C1A 5883  43.092  34.559   8.564
  180POPC   D2A 5884  43.123  34.595   8.264
  180POPC   C3A 5885  43.156  34.549   7.964
  180POPC   C4A 5886  43.123  34.586   7.664
  180POPC   C1B 5887  43.352  34.525   8.564
  180POPC   C2B 5888  43.350  34.449   8.264
  180POPC   C3B 5889  43.333  34.435   7.964
  180POPC   C4B 5890  43.306  34.460   7.664
  181POPC   NC3 5891   6.646  39.240   9.464
  181POPC   PO4 5892   6.646  39.218   9.164
  181POPC   GL1 5893   6.609  39.220   8.864
  181POPC   GL2 5894   6.623  39.102   8.864
  181POPC   C1A 5895   6.604  39.233   8.564
  181POPC   D2A 5896   6.606  39.240   8.264
  181POPC   C3A 5897   6.630  39.261   7.964
  181POPC   C4A 5898   6.678  39.248   7.664
  181POPC   C1B 5899   6.525  38.984   8.564
  181POPC   C2B 5900   6.513  38.963   8.264
  181POPC   C3B 5901   6.519  38.968   7.964
  181POPC   C4B 5902   6.553  38.966   7.664
  182POPC   NC3 5903  18.289   4.324   9.464
  182POPC   PO4 5904  18.295   4.354   9.164
  182POPC   GL1 5905  18.265   4.286   8.864
  182POPC   GL2 5906  18.219   4.232   8.864
  182POPC   C1A 5907  18.271   4.323   8.564
  182POPC   D2A 5908  18.273   4.269   8.264
  182POPC   C3A 5909  18.323   4.298   7.964
  182POPC   C4A 5910  18.251   4.336   7.664
  182POPC   C1B 5911  18.146   4.125   8.564
  182POPC   C2B 5912  18.193   4.061   8.264
  182POPC   C3B 5913  18.122   4.124   7.964
  182POPC   C4B 5914  18.184   4.147   7.664
  183POPC   NC3 5915  15.204   9.719   9.464
  183POPC   PO4 5916  15.184   9.726   9.164
  183POPC   GL1 5917  15.173   9.735   8.864
  183POPC   GL2 5918  15.025   9.708   8.864
  183POPC   C1A 5919  15.150   9.704   8.564
  183POPC   D2A 5920  15.162   9.790   8.264
  183POPC   C3A 5921  15.216   9.708   7.964
  183POPC   C4A 5922  15.209   9.779   7.664
  183POPC   C1B 5923  14.962   9.681   8.564
  183POPC   C2B 5924  14.992   9.668   8.264
  183POPC   C3B 5925  14.997   9.657   7.964
  183POPC   C4B 5926  14.904   9.608   7.664
  184POPC   NC3 5927  19.088  19.882   9.464
  184POPC   PO4 5928  19.013  19.800   9.164
  184POPC   GL1 5929  19.074  19.796   8.864
  184POPC   GL2 5930  19.034  19.662   8.864
  184POPC   C1A 5931  19.024  19.845   8.564
  184POPC   D2A 5932  19.017  19.835   8.264
  184POPC   C3A 5933  19.078  19.851   7.964
  184POPC   C4A 5934  19.087  19.824   7.664
  184POPC   C1B 5935  19.066  19.594   8.564
  184POPC   C2B 5936  19.006  19.593   8.264
  184POPC   C3B 5937  19.018  19.634   7.964
  184POPC   C4B 5938  19.050  19.587   7.664
  185POPC   NC3 5939  28.390  25.264   9.464
  185POPC   PO4 5940  28.327  25.296   9.164
  185POPC   GL1 5941  28.368  25.220   8.864
  185POPC   GL2 5942  28.452  25.246   8.864
  185POPC   C1A 5943  28.374  25.234   8.564
  185POPC   D2A 5944  28.389  25.216   8.264
  185POPC   C3A 5945  28.331  25.293   7.964
  185POPC   C4A 5946  28.411  25.249   7.664
  185POPC   C1B 5947  28.597  25.335   8.564
  185POPC   C2B 5948  28.636  25.274   8.264
  185POPC   C3B 5949  28.629  25.286   7.964
  185POPC   C4B 5950  28.665  25.328   7.664
  186POPC   NC3 5951  32.286  20.614   9.464
  186POPC   PO4 5952  32.208  20.585   9.164
  186POPC   GL1 5953  32.275  20.656   8.864
  186POPC   GL2 5954  32.320  20.547   8.864
  186POPC   C1A 5955  32.288  20.616   8.564
  186POPC   D2A 5956  32.199  20.595   8.264
  186POPC   C3A 5957  32.229  20.621   7.964
  186POPC   C4A 5958  32.238  20.604   7.664
  186POPC   C1B 5959  32.453  20.443   8.564
  186POPC   C2B 5960  32.437  20.480   8.264
  186POPC   C3B 5961  32.393  20.450   7.964
  186POPC   C4B 5962  32.486  20.403   7.664
  187POPC   NC3 5963   2.743  12.850   9.464
  187POPC   PO4 5964   2.793  12.900   9.164
  187POPC   GL1 5965   2.723  12.877   8.864
  187POPC   GL2 5966   2.705  12.724   8.864
  187POPC   C1A 5967   2.799  12.811   8.564
  187POPC   D2A 5968   2.758  12.807   8.264
  187POPC   C3A 5969   2.796  12.814   7.964
  187POPC   C4A 5970   2.795  12.828   7.664
  187POPC   C1B 5971   2.628  12.674   8.564
  187POPC   C2B 5972   2.622  12.619   8.264
  187POPC   C3B 5973   2.655  12.674   7.964
  187POPC   C4B 5974   2.658  12.616   7.664
  188POPC   NC3 5975  34.564  34.619   9.464
  188POPC   PO4 5976  34.571  34.530   9.164
  188POPC   GL1 5977  34.601  34.543   8.864
  188POPC   GL2 5978  34.735  34.600   8.864
  188POPC   C1A 5979  34.554  34.617   8.564
  188POPC   D2A 5980  34.561  34.585   8.264
  188POPC   C3A 5981  34.575  34.544   7.964
  188POPC   C4A 5982  34.540  34.594   7.664
  188POPC   C1B 5983  34.823  34.593   8.564
  188POPC   C2B 5984  34.855  34.581   8.264
  188POPC   C3B 5985  34.868  34.659   7.964
  188POPC   C4B 5986  34.795  34.579   7.664
  189POPC   NC3 5987   6.650   3.533   9.464
  189POPC   PO4 5988   6.599   3.496   9.164
  189POPC   GL1 5989   6.680   3.492   8.864
  189POPC   GL2 5990   6.686   3.429   8.864
  189POPC   C1A 5991   6.676   3.516   8.564
  189POPC   D2A 5992   6.612   3.496   8.264
  189POPC   C3A 5993   6.679   3.495   7.964
  189POPC   C4A 5994   6.595   3.542   7.664
  189POPC   C1B 5995   6.804   3.360   8.564
  189POPC   C2B 5996   6.748   3.345   8.264
  189POPC   C3B 5997   6.763   3.286   7.964
  189POPC   C4B 5998   6.794   3.296   7.664
  190POPC   NC3 5999  28.324  39.202   9.464
  190POPC   PO4 6000  28.332  39.182   9.164
  190POPC   GL1 6001  28.346  39.237   8.864
  190POPC   GL2 6002  28.413  39.383   8.864
  190POPC   C1A 6003  28.369  39.207   8.564
  190POPC   D2A 6004  28.395  39.236   8.264
  190POPC   C3A 6005  28.321  39.228   7.964
  190POPC   C4A 6006  28.395  39.234   7.664
  190POPC   C1B 6007  28.348  39.441   8.564
  190POPC   C2B 6008  28.397  39.442   8.264
  190POPC   C3B 6009  28.408  39.523   7.964
  190POPC   C4B 6010  28.327  39.472   7.664
  191POPC   NC3 6011  15.191  33.847   9.464
  191POPC   PO4 6012  15.212  33.763   9.164
  191POPC   GL1 6013  15.163  33.773   8.864
  191POPC   GL2 6014  15.095  33.862   8.864
  191POPC   C1A 6015  15.201  33.805   8.564
  191POPC   D2A 6016  15.221  33.754   8.264
  191POPC   C3A 6017  15.139  33.757   7.964
  191POPC   C4A 6018  15.134  33.777   7.664
  191POPC   C1B 6019  14.997  33.970   8.564
  191POPC   C2B 6020  15.027  33.953   8.264
  191POPC   C3B 6021  14.964  33.982   7.964
  191POPC   C4B 6022  15.028  33.963   7.664
  192POPC   NC3 6023   9.719  37.648   9.464
  192POPC   PO4 6024   9.765  37.671   9.164
  192POPC   GL1 6025   9.764  37.683   8.864
  192POPC   GL2 6026   9.662  37.543   8.864
  192POPC   C1A 6027   9.790  37.637   8.564
  192POPC   D2A 6028   9.733  37.637   8.264
  192POPC   C3A 6029   9.783  37.665   7.964
  192POPC   C4A 6030   9.720  37.687   7.664
  192POPC   C1B 6031   9.632  37.488   8.564
  192POPC   C2B 6032   9.589  37.467   8.264
  192POPC   C3B 6033   9.633  37.439   7.964
  192POPC   C4B 6034   9.668  37.471   7.664
  193POPC   NC3 6035  41.540  13.633   9.464
  193POPC   PO4 6036  41.529  13.642   9.164
  193POPC   GL1 6037  41.547  13.582   8.864
  193POPC   GL2 6038  41.684  13.648   8.864
  193POPC   C1A 6039  41.540  13.624   8.564
  193POPC   D2A 6040  41.554  13.618   8.264
  193POPC   C3A 6041  41.523  13.588   7.964
  193POPC   C4A 6042  41.558  13.586   7.664
  193POPC   C1B 6043  41.761  13.619   8.564
  193POPC   C2B 6044  41.801  13.578   8.264
  193POPC   C3B 6045  41.775  13.599   7.964
  193POPC   C4B 6046  41.837  13.651   7.664
  194POPC   NC3 6047  39.224  13.631   9.464
  194POPC   PO4 6048  39.212  13.610   9.164
  194POPC   GL1 6049  39.255  13.638   8.864
  194POPC   GL2 6050  39.305  13.646   8.864
  194POPC   C1A 6051  39.254  13.649   8.564
  194POPC   D2A 6052  39.260  13.601   8.264
  194POPC   C3A 6053  39.274  13.658   7.964
  194POPC   C4A 6054  39.248  13.633   7.664
  194POPC   C1B 6055  39.487  13.742   8.564
  194POPC   C2B 6056  39.453  13.727   8.264
  194POPC   C3B 6057  39.423  13.720   7.964
  194POPC   C4B 6058  39.454  13.734   7.664
  195POPC   NC3 6059   0.399   2.743   9.464
  195POPC   PO4 6060   0.451   2.815   9.164
  195POPC   GL1 6061   0.480   2.753   8.864
  195POPC   GL2 6062   0.448   2.882   8.864
  195POPC   C1A 6063   0.487   2.801   8.564
  195POPC   D2A 6064   0.471   2.739   8.264
  195POPC   C3A 6065   0.479   2.744   7.964
  195POPC   C4A 6066   0.472   2.749   7.664
  195POPC   C1B 6067   0.418   3.024   8.564
  195POPC   C2B 6068   0.347   3.000   8.264
  195POPC   C3B 6069   0.376   3.041   7.964
  195POPC   C4B 6070   0.397   2.997   7.664
  196POPC   NC3 6071  25.226  31.495   9.464
  196POPC   PO4 6072  25.222  31.468   9.164
  196POPC   GL1 6073  25.287  31.501   8.864
  196POPC   GL2 6074  25.311  31.643   8.864
  196POPC   C1A 6075  25.222  31.468   8.564
  196POPC   D2A 6076  25.310  31.514   8.264
  196POPC   C3A 6077  25.277  31.515   7.964
  196POPC   C4A 6078  25.234  31.436   7.664
  196POPC   C1B 6079  25.275  31.687   8.564
  196POPC   C2B 6080  25.310  31.686   8.264
  196POPC   C3B 6081  25.313  31.678   7.964
  196POPC   C4B 6082  25.264  31.742   7.664
  197POPC   NC3 6083   8.185   4.293   9.464
  197POPC   PO4 6084   8.175   4.315   9.164
  197POPC   GL1 6085   8.242   4.306   8.864
  197POPC   GL2 6086   8.289   4.377   8.864
  197POPC   C1A 6087   8.203   4.277   8.564
  197POPC   D2A 6088   8.215   4.347   8.264
  197POPC   C3A 6089   8.204   4.280   7.964
  197POPC   C4A 6090   8.194   4.336   7.664
  197POPC   C1B 6091   8.390   4.468   8.564
  197POPC   C2B 6092   8.368   4.469   8.264
  197POPC   C3B 6093   8.382   4.491   7.964
  197POPC   C4B 6094   8.438   4.490   7.664
  198POPC   NC3 6095  27.622  42.369   9.464
  198POPC   PO4 6096  27.626  42.347   9.164
  198POPC   GL1 6097  27.602  42.369   8.864
  198POPC   GL2 6098  27.743  42.305   8.864
  198POPC   C1A 6099  27.570  42.295   8.564
  198POPC   D2A 6100  27.608  42.332   8.264
  198POPC   C3A 6101  27.605  42.379   7.964
  198POPC   C4A 6102  27.546  42.336   7.664
  198POPC   C1B 6103  27.791  42.239   8.564
  198POPC   C2B 6104  27.825  42.247   8.264
  198POPC   C3B 6105  27.809  42.265   7.964
  198POPC   C4B 6106  27.789  42.230   7.664
  199POPC   NC3 6107   5.088   6.649   9.464
  199POPC   PO4 6108   5.122   6.693   9.164
  199POPC   GL1 6109   5.128   6.635   8.864
  199POPC   GL2 6110   5.109   6.744   8.864
  199POPC   C1A 6111   5.059   6.658   8.564
  199POPC   D2A 6112   5.061   6.608   8.264
  199POPC   C3A 6113   5.131   6.638   7.964
  199POPC   C4A 6114   5.064   6.636   7.664
  199POPC   C1B 6115   5.199   6.844   8.564
  199POPC   C2B 6116   5.186   6.863   8.264
  199POPC   C3B 6117   5.148   6.843   7.964
  199POPC   C4B 6118   5.183   6.845   7.664
  200POPC   NC3 6119   9.744   2.017   9.464
  200POPC   PO4 6120   9.701   2.033   9.164
  200POPC   GL1 6121   9.699   2.005   8.864
  200POPC   GL2 6122   9.829   2.016   8.864
  200POPC   C1A 6123   9.742   2.018   8.564
  200POPC   D2A 6124   9.733   1.969   8.264
  200POPC   C3A 6125   9.785   1.993   7.964
  200POPC   C4A 6126   9.743   2.003   7.664
  200POPC   C1B 6127   9.975   1.991   8.564
  200POPC   C2B 6128   9.960   2.069   8.264
  200POPC   C3B 6129  10.030   2.036   7.964
  200POPC   C4B 6130   9.977   2.072   7.664
  201POPC   NC3 6131  31.505  36.879   9.464
  201POPC   PO4 6132  31.521  36.911   9.164
  201POPC   GL1 6133  31.449  36.908   8.864
  201POPC   GL2 6134  31.584  37.014   8.864
  201POPC   C1A 6135  31.483  36.923   8.564
  201POPC   D2A 6136  31.519  36.953   8.264
  201POPC   C3A 6137  31.428  36.881   7.964
  201POPC   C4A 6138  31.477  36.946   7.664
  201POPC   C1B 6139  31.707  37.080   8.564
  201POPC   C2B 6140  31.710  37.026   8.264
  201POPC   C3B 6141  31.675  37.042   7.964
  201POPC   C4B 6142  31.631  37.078   7.664
  202POPC   NC3 6143  37.706   6.688   9.464
  202POPC   PO4 6144  37.641   6.598   9.164
  202POPC   GL1 6145  37.630   6.605   8.864
  202POPC   GL2 6146  37.791   6.674   8.864
  202POPC   C1A 6147  37.674   6.666   8.564
  202POPC   D2A 6148  37.651   6.602   8.264
  202POPC   C3A 6149  37.709   6.687   7.964
  202POPC   C4A 6150  37.690   6.639   7.664
  202POPC   C1B 6151  37.882   6.851   8.564
  202POPC   C2B 6152  37.905   6.849   8.264
  202POPC   C3B 6153  37.919   6.816   7.964
  202POPC   C4B 6154  37.866   6.823   7.664
  203POPC   NC3 6155  41.607  29.901   9.464
  203POPC   PO4 6156  41.577  29.919   9.164
  203POPC   GL1 6157  41.577  29.967   8.864
  203POPC   GL2 6158  41.414  29.920   8.864
  203POPC   C1A 6159  41.539  29.938   8.564
  203POPC   D2A 6160  41.590  29.896   8.264
  203POPC   C3A 6161  41.597  29.916   7.964
  203POPC   C4A 6162  41.539  29.893   7.664
  203POPC   C1B 6163  41.333  29.966   8.564
  203POPC   C2B 6164  41.348  29.933   8.264
  203POPC   C3B 6165  41.319  29.927   7.964
  203POPC   C4B 6166  41.310  29.970   7.664
  204POPC   NC3 6167  33.027   8.240   9.464
  204POPC   PO4 6168  33.049   8.195   9.164
  204POPC   GL1 6169  32.987   8.171   8.864
  204POPC   GL2 6170  33.081   8.074   8.864
  204POPC   C1A 6171  33.032   8.163   8.564
  204POPC   D2A 6172  33.017   8.233   8.264
  204POPC   C3A 6173  33.027   8.199   7.964
  204POPC   C4A 6174  33.010   8.192   7.664
  204POPC   C1B 6175  33.042   7.941   8.564
  204POPC   C2B 6176  33.118   7.911   8.264
  204POPC   C3B 6177  33.108   7.943   7.964
  204POPC   C4B 6178  33.098   7.945   7.664
  205POPC   NC3 6179   2.717  29.889   9.464
  205POPC   PO4 6180   2.782  29.903   9.164
  205POPC   GL1 6181   2.798  29.954   8.864
  205POPC   GL2 6182   2.683  29.898   8.864
  205POPC   C1A 6183   2.806  29.899   8.564
  205POPC   D2A 6184   2.750  29.902   8.264
  205POPC   C3A 6185   2.806  29.893   7.964
  205POPC   C4A 6186   2.784  29.948   7.664
  205POPC   C1B 6187   2.490  29.994   8.564
  205POPC   C2B 6188   2.541  29.935   8.264
  205POPC   C3B 6189   2.529  30.021   7.964
  205POPC   C4B 6190   2.556  29.978   7.664
  206POPC   NC3 6191  25.217   2.766   9.464
  206POPC   PO4 6192  25.239   2.794   9.164
  206POPC   GL1 6193  25.230   2.778   8.864
  206POPC   GL2 6194  25.188   2.664   8.864
  206POPC   C1A 6195  25.227   2.798   8.564
  206POPC   D2A 6196  25.241   2.790   8.264
  206POPC   C3A 6197  25.219   2.720   7.964
  206POPC   C4A 6198  25.240   2.796   7.664
  206POPC   C1B 6199  25.165   2.578   8.564
  206POPC   C2B 6200  25.153   2.592   8.264
  206POPC   C3B 6201  25.110   2.584   7.964
  206POPC   C4B 6202  25.152   2.525   7.664
  207POPC   NC3 6203  21.371   3.585   9.464
  207POPC   PO4 6204  21.342   3.501   9.164
  207POPC   GL1 6205  21.375   3.518   8.864
  207POPC   GL2 6206  21.489   3.665   8.864
  207POPC   C1A 6207  21.410   3.563   8.564
  207POPC   D2A 6208  21.428   3.507   8.264
  207POPC   C3A 6209  21.428   3.526   7.964
  207POPC   C4A 6210  21.367   3.576   7.664
  207POPC   C1B 6211  21.455   3.771   8.564
  207POPC   C2B 6212  21.547   3.780   8.264
  207POPC   C3B 6213  21.520   3.805   7.964
  207POPC   C4B 6214  21.501   3.766   7.664
  208POPC   NC3 6215  41.550  12.082   9.464
  208POPC   PO4 6216  41.554  12.094   9.164
  208POPC   GL1 6217  41.556  12.070   8.864
  208POPC   GL2 6218  41.705  12.168   8.864
  208POPC   C1A 6219  41.539  12.114   8.564
  208POPC   D2A 6220  41.543  12.028   8.264
  208POPC   C3A 6221  41.593  12.085   7.964
  208POPC   C4A 6222  41.546  12.084   7.664
  208POPC   C1B 6223  41.748  12.213   8.564
  208POPC   C2B 6224  41.704  12.216   8.264
  208POPC   C3B 6225  41.714  12.188   7.964
  208POPC   C4B 6226  41.719  12.257   7.664
  209POPC   NC3 6227  35.316  34.526   9.464
  209POPC   PO4 6228  35.365  34.535   9.164
  209POPC   GL1 6229  35.394  34.539   8.864
  209POPC   GL2 6230  35.455  34.715   8.864
  209POPC   C1A 6231  35.393  34.574   8.564
  209POPC   D2A 6232  35.398  34.572   8.264
  209POPC   C3A 6233  35.366  34.545   7.964
  209POPC   C4A 6234  35.353  34.622   7.664
  209POPC   C1B 6235  35.455  34.836   8.564
  209POPC   C2B 6236  35.428  34.750   8.264
  209POPC   C3B 6237  35.448  34.810   7.964
  209POPC   C4B 6238  35.489  34.747   7.664
  210POPC   NC3 6239   8.245  40.800   9.464
  210POPC   PO4 6240   8.211  40.833   9.164
  210POPC   GL1 6241   8.162  40.773   8.864
  210POPC   GL2 6242   8.359  40.756   8.864
  210POPC   C1A 6243   8.173  40.779   8.564
  210POPC   D2A 6244   8.227  40.821   8.264
  210POPC   C3A 6245   8.226  40.793   7.964
  210POPC   C4A 6246   8.230  40.744   7.664
  210POPC   C1B 6247   8.471  40.727   8.564
  210POPC   C2B 6248   8.468  40.779   8.264
  210POPC   C3B 6249   8.457  40.744   7.964
  210POPC   C4B 6250   8.474  40.793   7.664
  211POPC   NC3 6251  27.601  29.179   9.464
  211POPC   PO4 6252  27.578  29.187   9.164
  211POPC   GL1 6253  27.615  29.139   8.864
  211POPC   GL2 6254  27.565  29.249   8.864
  211POPC   C1A 6255  27.589  29.104   8.564
  211POPC   D2A 6256  27.587  29.142   8.264
  211POPC   C3A 6257  27.567  29.141   7.964
  211POPC   C4A 6258  27.584  29.099   7.664
  211POPC   C1B 6259  27.501  29.436   8.564
  211POPC   C2B 6260  27.499  29.352   8.264
  211POPC   C3B 6261  27.509  29.433   7.964
  211POPC   C4B 6262  27.505  29.382   7.664
  212POPC   NC3 6263  21.405  19.098   9.464
  212POPC   PO4 6264  21.426  19.067   9.164
  212POPC   GL1 6265  21.378  19.037   8.864
  212POPC   GL2 6266  21.312  18.916   8.864
  212POPC   C1A 6267  21.408  19.081   8.564
  212POPC   D2A 6268  21.420  19.086   8.264
  212POPC   C3A 6269  21.355  19.035   7.964
  212POPC   C4A 6270  21.338  19.088   7.664
  212POPC   C1B 6271  21.202  18.861   8.564
  212POPC   C2B 6272  21.278  18.862   8.264
  212POPC   C3B 6273  21.235  18.898   7.964
  212POPC   C4B 6274  21.209  18.865   7.664
  213POPC   NC3 6275  30.723  12.113   9.464
  213POPC   PO4 6276  30.678  12.112   9.164
  213POPC   GL1 6277  30.705  12.040   8.864
  213POPC   GL2 6278  30.555  12.060   8.864
  213POPC   C1A 6279  30.706  12.031   8.564
  213POPC   D2A 6280  30.693  12.043   8.264
  213POPC   C3A 6281  30.698  12.069   7.964
  213POPC   C4A 6282  30.688  12.032   7.664
  213POPC   C1B 6283  30.485  12.050   8.564
  213POPC   C2B 6284  30.466  11.979   8.264
  213POPC   C3B 6285  30.444  12.038   7.964
  213POPC   C4B 6286  30.495  12.054   7.664
  214POPC   NC3 6287  42.347  36.139   9.464
  214POPC   PO4 6288  42.286  36.104   9.164
  214POPC   GL1 6289  42.348  36.107   8.864
  214POPC   GL2 6290  42.258  36.047   8.864
  214POPC   C1A 6291  42.336  36.149   8.564
  214POPC   D2A 6292  42.334  36.102   8.264
  214POPC   C3A 6293  42.326  36.129   7.964
  214POPC   C4A 6294  42.307  36.117   7.664
  214POPC   C1B 6295  42.145  36.014   8.564
  214POPC   C2B 6296  42.151  35.988   8.264
  214POPC   C3B 6297  42.102  35.956   7.964
  214POPC   C4B 6298  42.117  35.948   7.664
  215POPC   NC3 6299  39.193  32.219   9.464
  215POPC   PO4 6300  39.208  32.223   9.164
  215POPC   GL1 6301  39.277  32.249   8.864
  215POPC   GL2 6302  39.304  32.335   8.864
  215POPC   C1A 6303  39.196  32.261   8.564
  215POPC   D2A 6304  39.277  32.200   8.264
  215POPC   C3A 6305  39.202  32.242   7.964
  215POPC   C4A 6306  39.202  32.284   7.664
  215POPC   C1B 6307  39.400  32.401   8.564
  215POPC   C2B 6308  39.415  32.429   8.264
  215POPC   C3B 6309  39.399  32.464   7.964
  215POPC   C4B 6310  39.435  32.458   7.664
  216POPC   NC3 6311  38.437  29.164   9.464
  216POPC   PO4 6312  38.490  29.097   9.164
  216POPC   GL1 6313  38.455  29.165   8.864
  216POPC   GL2 6314  38.395  29.230   8.864
  216POPC   C1A 6315  38.464  29.100   8.564
  216POPC   D2A 6316  38.460  29.155   8.264
  216POPC   C3A 6317  38.505  29.122   7.964
  216POPC   C4A 6318  38.498  29.135   7.664
  216POPC   C1B 6319  38.322  29.372   8.564
  216POPC   C2B 6320  38.359  29.335   8.264
  216POPC   C3B 6321  38.333  29.330   7.964
  216POPC   C4B 6322  38.326  29.410   7.664
  217POPC   NC3 6323  40.004  39.213   9.464
  217POPC   PO4 6324  40.030  39.209   9.164
  217POPC   GL1 6325  39.999  39.197   8.864
  217POPC   GL2 6326  39.903  39.126   8.864
  217POPC   C1A 6327  40.001  39.188   8.564
  217POPC   D2A 6328  40.035  39.241   8.264
  217POPC   C3A 6329  40.049  39.266   7.964
  217POPC   C4A 6330  40.008  39.196   7.664
  217POPC   C1B 6331  39.888  39.043   8.564
  217POPC   C2B 6332  39.838  39.069   8.264
  217POPC   C3B 6333  39.820  39.075   7.964
  217POPC   C4B 6334  39.861  39.063   7.664
  218POPC   NC3 6335  15.180  31.442   9.464
  218POPC   PO4 6336  15.135  31.514   9.164
  218POPC   GL1 6337  15.217  31.476   8.864
  218POPC   GL2 6338  15.137  31.617   8.864
  218POPC   C1A 6339  15.191  31.478   8.564
  218POPC   D2A 6340  15.198  31.472   8.264
  218POPC   C3A 6341  15.194  31.461   7.964
  218POPC   C4A 6342  15.156  31.475   7.664
  218POPC   C1B 6343  15.223  31.697   8.564
  218POPC   C2B 6344  15.189  31.732   8.264
  218POPC   C3B 6345  15.162  31.755   7.964
  218POPC   C4B 6346  15.182  31.702   7.664
  219POPC   NC3 6347  21.416  22.135   9.464
  219POPC   PO4 6348  21.414  22.175   9.164
  219POPC   GL1 6349  21.424  22.186   8.864
  219POPC   GL2 6350  21.325  22.081   8.864
  219POPC   C1A 6351  21.341  22.175   8.564
  219POPC   D2A 6352  21.388  22.186   8.264
  219POPC   C3A 6353  21.386  22.125   7.964
  219POPC   C4A 6354  21.407  22.208   7.664
  219POPC   C1B 6355  21.294  21.954   8.564
  219POPC   C2B 6356  21.260  21.990   8.264
  219POPC   C3B 6357  21.242  21.996   7.964
  219POPC   C4B 6358  21.235  21.918   7.664
  220POPC   NC3 6359  38.478  40.828   9.464
  220POPC   PO4 6360  38.503  40.832   9.164
  220POPC   GL1 6361  38.424  40.751   8.864
  220POPC   GL2 6362  38.402  40.879   8.864
  220POPC   C1A 6363  38.454  40.779   8.564
  220POPC   D2A 6364  38.476  40.744   8.264
  220POPC   C3A 6365  38.459  40.794   7.964
  220POPC   C4A 6366  38.437  40.774   7.664
  220POPC   C1B 6367  38.400  41.073   8.564
  220POPC   C2B 6368  38.403  41.053   8.264
  220POPC   C3B 6369  38.453  41.033   7.964
  220POPC   C4B 6370  38.468  41.051   7.664
  221POPC   NC3 6371   8.209  31.502   9.464
  221POPC   PO4 6372   8.219  31.463   9.164
  221POPC   GL1 6373   8.169  31.477   8.864
  221POPC   GL2 6374   8.105  31.467   8.864
  221POPC   C1A 6375   8.226  31.512   8.564
  221POPC   D2A 6376   8.147  31.476   8.264
  221POPC   C3A 6377   8.243  31.438   7.964
  221POPC   C4A 6378   8.231  31.518   7.664
  221POPC   C1B 6379   7.958  31.544   8.564
  221POPC   C2B 6380   7.978  31.553   8.264
  221POPC   C3B 6381   7.904  31.488   7.964
  221POPC   C4B 6382   7.935  31.523   7.664
  222POPC   NC3 6383  30.716   5.883   9.464
  222POPC   PO4 6384  30.666   5.845   9.164
  222POPC   GL1 6385  30.710   5.909   8.864
  222POPC   GL2 6386  30.567   5.838   8.864
  222POPC   C1A 6387  30.702   5.896   8.564
  222POPC   D2A 6388  30.706   5.881   8.264
  222POPC   C3A 6389  30.690   5.863   7.964
  222POPC   C4A 6390  30.689   5.841   7.664
  222POPC   C1B 6391  30.407   5.799   8.564
  222POPC   C2B 6392  30.411   5.857   8.264
  222POPC   C3B 6393  30.410   5.869   7.964
  222POPC   C4B 6394  30.457   5.778   7.664
  223POPC   NC3 6395   6.644  24.492   9.464
  223POPC   PO4 6396   6.674  24.485   9.164
  223POPC   GL1 6397   6.660  24.467   8.864
  223POPC   GL2 6398   6.720  24.629   8.864
  223POPC   C1A 6399   6.665  24.479   8.564
  223POPC   D2A 6400   6.683  24.461   8.264
  223POPC   C3A 6401   6.604  24.463   7.964
  223POPC   C4A 6402   6.632  24.477   7.664
  223POPC   C1B 6403   6.692  24.711   8.564
  223POPC   C2B 6404   6.739  24.758   8.264
  223POPC   C3B 6405   6.712  24.721   7.964
  223POPC   C4B 6406   6.756  24.752   7.664
  224POPC   NC3 6407  22.159  12.836   9.464
  224POPC   PO4 6408  22.138  12.837   9.164
  224POPC   GL1 6409  22.116  12.852   8.864
  224POPC   GL2 6410  22.271  12.991   8.864
  224POPC   C1A 6411  22.115  12.803   8.564
  224POPC   D2A 6412  22.194  12.868   8.264
  224POPC   C3A 6413  22.138  12.814   7.964
  224POPC   C4A 6414  22.204  12.818   7.664
  224POPC   C1B 6415  22.361  13.048   8.564
  224POPC   C2B 6416  22.273  13.071   8.264
  224POPC   C3B 6417  22.328  13.073   7.964
  224POPC   C4B 6418  22.316  13.012   7.664
  225POPC   NC3 6419  15.926  37.641   9.464
  225POPC   PO4 6420  15.987  37.648   9.164
  225POPC   GL1 6421  15.930  37.724   8.864
  225POPC   GL2 6422  15.841  37.638   8.864
  225POPC   C1A 6423  15.914  37.729   8.564
  225POPC   D2A 6424  15.916  37.645   8.264
  225POPC   C3A 6425  15.974  37.708   7.964
  225POPC   C4A 6426  15.983  37.729   7.664
  225POPC   C1B 6427  15.731  37.620   8.564
  225POPC   C2B 6428  15.727  37.548   8.264
  225POPC   C3B 6429  15.764  37.564   7.964
  225POPC   C4B 6430  15.696  37.564   7.664
  226POPC   NC3 6431  11.280   3.534   9.464
  226POPC   PO4 6432  11.326   3.571   9.164
  226POPC   GL1 6433  11.273   3.560   8.864
  226POPC   GL2 6434  11.409   3.521   8.864
  226POPC   C1A 6435  11.279   3.551   8.564
  226POPC   D2A 6436  11.299   3.563   8.264
  226POPC   C3A 6437  11.323   3.518   7.964
  226POPC   C4A 6438  11.260   3.566   7.664
  226POPC   C1B 6439  11.573   3.543   8.564
  226POPC   C2B 6440  11.509   3.492   8.264
  226POPC   C3B 6441  11.585   3.527   7.964
  226POPC   C4B 6442  11.558   3.525   7.664
  227POPC   NC3 6443   5.122  10.509   9.464
  227POPC   PO4 6444   5.056  10.517   9.164
  227POPC   GL1 6445   5.078  10.489   8.864
  227POPC   GL2 6446   4.984  10.476   8.864
  227POPC   C1A 6447   5.085  10.542   8.564
  227POPC   D2A 6448   5.081  10.499   8.264
  227POPC   C3A 6449   5.063  10.572   7.964
  227POPC   C4A 6450   5.116  10.488   7.664
  227POPC   C1B 6451   4.805  10.435   8.564
  227POPC   C2B 6452   4.882  10.419   8.264
  227POPC   C3B 6453   4.809  10.481   7.964
  227POPC   C4B 6454   4.867  10.497   7.664
  228POPC   NC3 6455  13.631   5.884   9.464
  228POPC   PO4 6456  13.588   5.913   9.164
  228POPC   GL1 6457  13.656   5.857   8.864
  228POPC   GL2 6458  13.713   5.808   8.864
  228POPC   C1A 6459  13.578   5.888   8.564
  228POPC   D2A 6460  13.660   5.836   8.264
  228POPC   C3A 6461  13.620   5.860   7.964
  228POPC   C4A 6462  13.669   5.866   7.664
  228POPC   C1B 6463  13.854   5.819   8.564
  228POPC   C2B 6464  13.829   5.818   8.264
  228POPC   C3B 6465  13.837   5.816   7.964
  228POPC   C4B 6466  13.830   5.792   7.664
  229POPC   NC3 6467  22.168  20.578   9.464
  229POPC   PO4 6468  22.156  20.582   9.164
  229POPC   GL1 6469  22.146  20.581   8.864
  229POPC   GL2 6470  22.306  20.622   8.864
  229POPC   C1A 6471  22.163  20.589   8.564
  229POPC   D2A 6472  22.200  20.609   8.264
  229POPC   C3A 6473  22.188  20.603   7.964
  229POPC   C4A 6474  22.168  20.585   7.664
  229POPC   C1B 6475  22.377  20.604   8.564
  229POPC   C2B 6476  22.447  20.596   8.264
  229POPC   C3B 6477  22.442  20.602   7.964
  229POPC   C4B 6478  22.369  20.564   7.664
  230POPC   NC3 6479  36.860   8.965   9.464
  230POPC   PO4 6480  36.856   8.951   9.164
  230POPC   GL1 6481  36.944   8.976   8.864
  230POPC   GL2 6482  37.051   8.896   8.864
  230POPC   C1A 6483  36.921   9.022   8.564
  230POPC   D2A 6484  36.875   8.978   8.264
  230POPC   C3A 6485  36.892   8.951   7.964
  230POPC   C4A 6486  36.919   9.020   7.664
  230POPC   C1B 6487  37.136   8.931   8.564
  230POPC   C2B 6488  37.159   8.912   8.264
  230POPC   C3B 6489  37.111   8.875   7.964
  230POPC   C4B 6490  37.146   8.871   7.664
  231POPC   NC3 6491  26.778   7.409   9.464
  231POPC   PO4 6492  26.836   7.436   9.164
  231POPC   GL1 6493  26.840   7.374   8.864
  231POPC   GL2 6494  26.687   7.527   8.864
  231POPC   C1A 6495  26.840   7.452   8.564
  231POPC   D2A 6496  26.794   7.410   8.264
  231POPC   C3A 6497  26.811   7.432   7.964
  231POPC   C4A 6498  26.794   7.419   7.664
  231POPC   C1B 6499  26.656   7.579   8.564
  231POPC   C2B 6500  26.646   7.611   8.264
  231POPC   C3B 6501  26.606   7.569   7.964
  231POPC   C4B 6502  26.583   7.530   7.664
  232POPC   NC3 6503   0.473  23.724   9.464
  232POPC   PO4 6504   0.463  23.759   9.164
  232POPC   GL1 6505   0.391  23.722   8.864
  232POPC   GL2 6506   0.400  23.551   8.864
  232POPC   C1A 6507   0.480  23.700   8.564
  232POPC   D2A 6508   0.468  23.671   8.264
  232POPC   C3A 6509   0.456  23.681   7.964
  232POPC   C4A 6510   0.392  23.697   7.664
  232POPC   C1B 6511   0.406  23.485   8.564
  232POPC   C2B 6512   0.468  23.503   8.264
  232POPC   C3B 6513   0.399  23.449   7.964
  232POPC   C4B 6514   0.475  23.474   7.664
  233POPC   NC3 6515   6.621   0.404   9.464
  233POPC   PO4 6516   6.692   0.429   9.164
  233POPC   GL1 6517   6.645   0.476   8.864
  233POPC   GL2 6518   6.722   0.359   8.864
  233POPC   C1A 6519   6.637   0.398   8.564
  233POPC   D2A 6520   6.626   0.407   8.264
  233POPC   C3A 6521   6.692   0.392   7.964
  233POPC   C4A 6522   6.657   0.456   7.664
  233POPC   C1B 6523   6.871   0.265   8.564
  233POPC   C2B 6524   6.842   0.265   8.264
  233POPC   C3B 6525   6.888   0.269   7.964
  233POPC   C4B 6526   6.853   0.292   7.664
  234POPC   NC3 6527  31.493  29.905   9.464
  234POPC   PO4 6528  31.453  29.966   9.164
  234POPC   GL1 6529  31.507  29.969   8.864
  234POPC   GL2 6530  31.521  30.067   8.864
  234POPC   C1A 6531  31.428  29.882   8.564
  234POPC   D2A 6532  31.501  29.960   8.264
  234POPC   C3A 6533  31.510  29.881   7.964
  234POPC   C4A 6534  31.450  29.945   7.664
  234POPC   C1B 6535  31.535  30.131   8.564
  234POPC   C2B 6536  31.490  30.209   8.264
  234POPC   C3B 6537  31.499  30.138   7.964
  234POPC   C4B 6538  31.515  30.212   7.664
  235POPC   NC3 6539   1.940  26.798   9.464
  235POPC   PO4 6540   1.948  26.822   9.164
  235POPC   GL1 6541   2.029  26.783   8.864
  235POPC   GL2 6542   1.839  26.822   8.864
  235POPC   C1A 6543   1.989  26.824   8.564
  235POPC   D2A 6544   1.960  26.782   8.264
  235POPC   C3A 6545   2.019  26.808   7.964
  235POPC   C4A 6546   1.977  26.803   7.664
  235POPC   C1B 6547   1.712  26.792   8.564
  235POPC   C2B 6548   1.745  26.876   8.264
  235POPC   C3B 6549   1.768  26.861   7.964
  235POPC   C4B 6550   1.738  26.840   7.664
  236POPC   NC3 6551  38.422  39.959   9.464
  236POPC   PO4 6552  38.406  40.003   9.164
  236POPC   GL1 6553  38.466  40.002   8.864
  236POPC   GL2 6554  38.415  40.175   8.864
  236POPC   C1A 6555  38.429  40.028   8.564
  236POPC   D2A 6556  38.491  40.032   8.264
  236POPC   C3A 6557  38.451  40.055   7.964
  236POPC   C4A 6558  38.448  39.972   7.664
  236POPC   C1B 6559  38.418  40.296   8.564
  236POPC   C2B 6560  38.442  40.298   8.264
  236POPC   C3B 6561  38.384  40.262   7.964
  236POPC   C4B 6562  38.359  40.259   7.664
  237POPC   NC3 6563  32.983  41.512   9.464
  237POPC   PO4 6564  33.040  41.594   9.164
  237POPC   GL1 6565  33.058  41.542   8.864
  237POPC   GL2 6566  33.066  41.454   8.864
  237POPC   C1A 6567  33.019  41.594   8.564
  237POPC   D2A 6568  33.021  41.566   8.264
  237POPC   C3A 6569  33.062  41.586   7.964
  237POPC   C4A 6570  32.987  41.606   7.664
  237POPC   C1B 6571  33.190  41.430   8.564
  237POPC   C2B 6572  33.166  41.342   8.264
  237POPC   C3B 6573  33.162  41.376   7.964
  237POPC   C4B 6574  33.235  41.357   7.664
  238POPC   NC3 6575  40.038  36.090   9.464
  238POPC   PO4 6576  39.963  36.119   9.164
  238POPC   GL1 6577  40.042  36.173   8.864
  238POPC   GL2 6578  39.986  36.238   8.864
  238POPC   C1A 6579  39.959  36.159   8.564
  238POPC   D2A 6580  40.004  36.160   8.264
  238POPC   C3A 6581  39.965  36.155   7.964
  238POPC   C4A 6582  39.990  36.129   7.664
  238POPC   C1B 6583  39.970  36.327   8.564
  238POPC   C2B 6584  39.968  36.360   8.264
  238POPC   C3B 6585  39.944  36.398   7.964
  238POPC   C4B 6586  39.966  36.342   7.664
  239POPC   NC3 6587  25.275  29.104   9.464
  239POPC   PO4 6588  25.223  29.108   9.164
  239POPC   GL1 6589  25.257  29.116   8.864
  239POPC   GL2 6590  25.134  29.079   8.864
  239POPC   C1A 6591  25.299  29.112   8.564
  239POPC   D2A 6592  25.257  29.167   8.264
  239POPC   C3A 6593  25.267  29.138   7.964
  239POPC   C4A 6594  25.229  29.136   7.664
  239POPC   C1B 6595  25.083  28.981   8.564
  239POPC   C2B 6596  25.139  28.938   8.264
  239POPC   C3B 6597  25.087  28.941   7.964
  239POPC   C4B 6598  25.065  29.004   7.664
  240POPC   NC3 6599   9.767  22.955   9.464
  240POPC   PO4 6600   9.724  22.948   9.164
  240POPC   GL1 6601   9.774  22.955   8.864
  240POPC   GL2 6602   9.880  23.015   8.864
  240POPC   C1A 6603   9.710  22.946   8.564
  240POPC   D2A 6604   9.699  22.985   8.264
  240POPC   C3A 6605   9.706  22.906   7.964
  240POPC   C4A 6606   9.701  22.888   7.664
  240POPC   C1B 6607   9.886  23.140   8.564
  240POPC   C2B 6608   9.925  23.147   8.264
  240POPC   C3B 6609   9.920  23.119   7.964
  240POPC   C4B 6610   9.939  23.164   7.664
  241POPC   NC3 6611  32.989  22.157   9.464
  241POPC   PO4 6612  32.995  22.132   9.164
  241POPC   GL1 6613  33.003  22.167   8.864
  241POPC   GL2 6614  32.956  22.171   8.864
  241POPC   C1A 6615  33.064  22.112   8.564
  241POPC   D2A 6616  33.072  22.211   8.264
  241POPC   C3A 6617  32.975  22.136   7.964
  241POPC   C4A 6618  32.996  22.116   7.664
  241POPC   C1B 6619  32.777  22.262   8.564
  241POPC   C2B 6620  32.817  22.249   8.264
  241POPC   C3B 6621  32.766  22.306   7.964
  241POPC   C4B 6622  32.832  22.237   7.664
  242POPC   NC3 6623   0.430  12.843   9.464
  242POPC   PO4 6624   0.433  12.890   9.164
  242POPC   GL1 6625   0.448  12.867   8.864
  242POPC   GL2 6626   0.373  12.787   8.864
  242POPC   C1A 6627   0.418  12.852   8.564
  242POPC   D2A 6628   0.460  12.889   8.264
  242POPC   C3A 6629   0.392  12.811   7.964
  242POPC   C4A 6630   0.482  12.829   7.664
  242POPC   C1B 6631   0.296  12.652   8.564
  242POPC   C2B 6632   0.302  12.641   8.264
  242POPC   C3B 6633   0.356  12.615   7.964
  242POPC   C4B 6634   0.295  12.643   7.664
  243POPC   NC3 6635   5.077   9.725   9.464
  243POPC   PO4 6636   5.059   9.720   9.164
  243POPC   GL1 6637   5.052   9.714   8.864
  243POPC   GL2 6638   5.006   9.644   8.864
  243POPC   C1A 6639   5.100   9.718   8.564
  243POPC   D2A 6640   5.115   9.764   8.264
  243POPC   C3A 6641   5.134   9.736   7.964
  243POPC   C4A 6642   5.054   9.778   7.664
  243POPC   C1B 6643   4.962   9.528   8.564
  243POPC   C2B 6644   4.990   9.573   8.264
  243POPC   C3B 6645   4.927   9.513   7.964
  243POPC   C4B 6646   4.925   9.529   7.664
  244POPC   NC3 6647   8.168   1.216   9.464
  244POPC   PO4 6648   8.228   1.227   9.164
  244POPC   GL1 6649   8.198   1.192   8.864
  244POPC   GL2 6650   8.292   1.301   8.864
  244POPC   C1A 6651   8.187   1.176   8.564
  244POPC   D2A 6652   8.237   1.254   8.264
  244POPC   C3A 6653   8.204   1.241   7.964
  244POPC   C4A 6654   8.228   1.217   7.664
  244POPC   C1B 6655   8.283   1.412   8.564
  244POPC   C2B 6656   8.356   1.386   8.264
  244POPC   C3B 6657   8.285   1.386   7.964
  244POPC   C4B 6658   8.301   1.448   7.664
  245POPC   NC3 6659  31.485  34.570   9.464
  245POPC   PO4 6660  31.448  34.594   9.164
  245POPC   GL1 6661  31.473  34.535   8.864
  245POPC   GL2 6662  31.385  34.519   8.864
  245POPC   C1A 6663  31.427  34.578   8.564
  245POPC   D2A 6664  31.429  34.605   8.264
  245POPC   C3A 6665  31.463  34.540   7.964
  245POPC   C4A 6666  31.503  34.558   7.664
  245POPC   C1B 6667  31.225  34.424   8.564
  245POPC   C2B 6668  31.308  34.420   8.264
  245POPC   C3B 6669  31.235  34.445   7.964
  245POPC   C4B 6670  31.226  34.449   7.664
  246POPC   NC3 6671  43.069  25.293   9.464
  246POPC   PO4 6672  43.071  25.291   9.164
  246POPC   GL1 6673  43.094  25.255   8.864
  246POPC   GL2 6674  43.163  25.143   8.864
  246POPC   C1A 6675  43.155  25.297   8.564
  246POPC   D2A 6676  43.092  25.298   8.264
  246POPC   C3A 6677  43.079  25.284   7.964
  246POPC   C4A 6678  43.108  25.248   7.664
  246POPC   C1B 6679  43.130  25.008   8.564
  246POPC   C2B 6680  43.177  25.031   8.264
  246POPC   C3B 6681  43.155  24.985   7.964
  246POPC   C4B 6682  43.097  24.986   7.664
  247POPC   NC3 6683  18.313  43.089   9.464
  247POPC   PO4 6684  18.243  43.092   9.164
  247POPC   GL1 6685  18.260  43.115   8.864
  247POPC   GL2 6686  18.339  42.976   8.864
  247POPC   C1A 6687  18.300  43.088   8.564
  247POPC   D2A 6688  18.302  43.138   8.264
  247POPC   C3A 6689  18.279  43.135   7.964
  247POPC   C4A 6690  18.263  43.074   7.664
  247POPC   C1B 6691  18.373  42.876   8.564
  247POPC   C2B 6692  18.366  42.826   8.264
  247POPC   C3B 6693  18.390  42.921   7.964
  247POPC   C4B 6694  18.350  42.850   7.664
  248POPC   NC3 6695  43.883  33.039   9.464
  248POPC   PO4 6696  43.904  32.998   9.164
  248POPC   GL1 6697  43.856  33.056   8.864
  248POPC   GL2 6698  43.808  33.124   8.864
  248POPC   C1A 6699  43.849  32.979   8.564
  248POPC   D2A 6700  43.907  33.031   8.264
  248POPC   C3A 6701  43.875  33.046   7.964
  248POPC   C4A 6702  43.912  33.029   7.664
  248POPC   C1B 6703  43.703  33.207   8.564
  248POPC   C2B 6704  43.717  33.201   8.264
  248POPC   C3B 6705  43.724  33.196   7.964
  248POPC   C4B 6706  43.702  33.170   7.664
  249POPC   NC3 6707  41.554  33.056   9.464
  249POPC   PO4 6708  41.518  33.019   9.164
  249POPC   GL1 6709  41.594  33.017   8.864
  249POPC   GL2 6710  41.705  32.976   8.864
  249POPC   C1A 6711  41.513  33.002   8.564
  249POPC   D2A 6712  41.523  32.980   8.264
  249POPC   C3A 6713  41.547  32.988   7.964
  249POPC   C4A 6714  41.572  33.054   7.664
  249POPC   C1B 6715  41.773  33.026   8.564
  249POPC   C2B 6716  41.849  33.038   8.264
  249POPC   C3B 6717  41.764  32.997   7.964
  249POPC   C4B 6718  41.767  33.002   7.664
  250POPC   NC3 6719  25.311  22.196   9.464
  250POPC   PO4 6720  25.294  22.208   9.164
  250POPC   GL1 6721  25.257  22.195   8.864
  250POPC   GL2 6722  25.357  22.104   8.864
  250POPC   C1A 6723  25.315  22.128   8.564
  250POPC   D2A 6724  25.313  22.151   8.264
  250POPC   C3A 6725  25.280  22.180   7.964
  250POPC   C4A 6726  25.232  22.179   7.664
  250POPC   C1B 6727  25.523  22.086   8.564
  250POPC   C2B 6728  25.517  22.084   8.264
  250POPC   C3B 6729  25.544  22.070   7.964
  250POPC   C4B 6730  25.538  22.105   7.664
  251POPC   NC3 6731  19.063  10.535   9.464
  251POPC   PO4 6732  19.042  10.514   9.164
  251POPC   GL1 6733  19.070  10.542   8.864
  251POPC   GL2 6734  19.082  10.624   8.864
  251POPC   C1A 6735  19.073  10.568   8.564
  251POPC   D2A 6736  19.107  10.551   8.264
  251POPC   C3A 6737  19.067  10.527   7.964
  251POPC   C4A 6738  19.044  10.527   7.664
  251POPC   C1B 6739  19.070  10.808   8.564
  251POPC   C2B 6740  19.091  10.752   8.264
  251POPC   C3B 6741  19.073  10.746   7.964
  251POPC   C4B 6742  19.078  10.774   7.664
  252POPC   NC3 6743  37.700  26.010   9.464
  252POPC   PO4 6744  37.665  26.032   9.164
  252POPC   GL1 6745  37.721  26.072   8.864
  252POPC   GL2 6746  37.561  25.966   8.864
  252POPC   C1A 6747  37.638  26.053   8.564
  252POPC   D2A 6748  37.656  26.000   8.264
  252POPC   C3A 6749  37.654  26.047   7.964
  252POPC   C4A 6750  37.662  26.054   7.664
  252POPC   C1B 6751  37.409  25.913   8.564
  252POPC   C2B 6752  37.468  25.909   8.264
  252POPC   C3B 6753  37.404  25.926   7.964
  252POPC   C4B 6754  37.490  25.906   7.664
  253POPC   NC3 6755   4.339  44.697   9.464
  253POPC   PO4 6756   4.304  44.692   9.164
  253POPC   GL1 6757   4.287  44.656   8.864
  253POPC   GL2 6758   4.441  44.712   8.864
  253POPC   C1A 6759   4.366  44.682   8.564
  253POPC   D2A 6760   4.345  44.631   8.264
  253POPC   C3A 6761   4.345  44.671   7.964
  253POPC   C4A 6762   4.306  44.687   7.664
  253POPC   C1B 6763   4.492  44.832   8.564
  253POPC   C2B 6764   4.499  44.750   8.264
  253POPC   C3B 6765   4.566  44.775   7.964
  253POPC   C4B 6766   4.495  44.824   7.664
  254POPC   NC3 6767  19.092   8.152   9.464
  254POPC   PO4 6768  19.010   8.237   9.164
  254POPC   GL1 6769  19.099   8.228   8.864
  254POPC   GL2 6770  19.157   8.104   8.864
  254POPC   C1A 6771  19.069   8.170   8.564
  254POPC   D2A 6772  19.036   8.158   8.264
  254POPC   C3A 6773  19.100   8.224   7.964
  254POPC   C4A 6774  19.062   8.207   7.664
  254POPC   C1B 6775  19.153   7.951   8.564
  254POPC   C2B 6776  19.140   7.982   8.264
  254POPC   C3B 6777  19.165   7.974   7.964
  254POPC   C4B 6778  19.140   8.016   7.664
  255POPC   NC3 6779   1.203  42.357   9.464
  255POPC   PO4 6780   1.216  42.290   9.164
  255POPC   GL1 6781   1.190  42.333   8.864
  255POPC   GL2 6782   1.343  42.367   8.864
  255POPC   C1A 6783   1.223  42.335   8.564
  255POPC   D2A 6784   1.251  42.375   8.264
  255POPC   C3A 6785   1.225  42.352   7.964
  255POPC   C4A 6786   1.256  42.299   7.664
  255POPC   C1B 6787   1.510  42.321   8.564
  255POPC   C2B 6788   1.471  42.404   8.264
  255POPC   C3B 6789   1.461  42.376   7.964
  255POPC   C4B 6790   1.448  42.322   7.664
  256POPC   NC3 6791  26.055  36.876   9.464
  256POPC   PO4 6792  26.057  36.875   9.164
  256POPC   GL1 6793  26.029  36.950   8.864
  256POPC   GL2 6794  26.114  36.760   8.864
  256POPC   C1A 6795  26.058  36.867   8.564
  256POPC   D2A 6796  26.074  36.913   8.264
  256POPC   C3A 6797  26.016  36.923   7.964
  256POPC   C4A 6798  26.047  36.921   7.664
  256POPC   C1B 6799  26.203  36.708   8.564
  256POPC   C2B 6800  26.233  36.694   8.264
  256POPC   C3B 6801  26.188  36.716   7.964
  256POPC   C4B 6802  26.167  36.759   7.664
  257POPC   NC3 6803  21.402  39.215   9.464
  257POPC   PO4 6804  21.338  39.193   9.164
  257POPC   GL1 6805  21.342  39.197   8.864
  257POPC   GL2 6806  21.223  39.240   8.864
  257POPC   C1A 6807  21.360  39.198   8.564
  257POPC   D2A 6808  21.391  39.259   8.264
  257POPC   C3A 6809  21.370  39.207   7.964
  257POPC   C4A 6810  21.398  39.188   7.664
  257POPC   C1B 6811  21.106  39.197   8.564
  257POPC   C2B 6812  21.181  39.210   8.264
  257POPC   C3B 6813  21.188  39.216   7.964
  257POPC   C4B 6814  21.155  39.210   7.664
  258POPC   NC3 6815  43.856  27.566   9.464
  258POPC   PO4 6816  43.856  27.563   9.164
  258POPC   GL1 6817  43.913  27.553   8.864
  258POPC   GL2 6818  44.044  27.609   8.864
  258POPC   C1A 6819  43.864  27.610   8.564
  258POPC   D2A 6820  43.850  27.551   8.264
  258POPC   C3A 6821  43.902  27.575   7.964
  258POPC   C4A 6822  43.854  27.625   7.664
  258POPC   C1B 6823  44.142  27.602   8.564
  258POPC   C2B 6824  44.142  27.585   8.264
  258POPC   C3B 6825  44.181  27.665   7.964
  258POPC   C4B 6826  44.155  27.663   7.664
  259POPC   NC3 6827  36.164  21.408   9.464
  259POPC   PO4 6828  36.088  21.373   9.164
  259POPC   GL1 6829  36.086  21.432   8.864
  259POPC   GL2 6830  36.209  21.497   8.864
  259POPC   C1A 6831  36.171  21.350   8.564
  259POPC   D2A 6832  36.120  21.413   8.264
  259POPC   C3A 6833  36.078  21.431   7.964
  259POPC   C4A 6834  36.103  21.405   7.664
  259POPC   C1B 6835  36.304  21.571   8.564
  259POPC   C2B 6836  36.349  21.523   8.264
  259POPC   C3B 6837  36.327  21.549   7.964
  259POPC   C4B 6838  36.353  21.524   7.664
  260POPC   NC3 6839  27.618   8.940   9.464
  260POPC   PO4 6840  27.577   8.991   9.164
  260POPC   GL1 6841  27.606   8.953   8.864
  260POPC   GL2 6842  27.550   9.121   8.864
  260POPC   C1A 6843  27.617   8.947   8.564
  260POPC   D2A 6844  27.565   8.957   8.264
  260POPC   C3A 6845  27.601   8.924   7.964
  260POPC   C4A 6846  27.553   9.022   7.664
  260POPC   C1B 6847  27.569   9.211   8.564
  260POPC   C2B 6848  27.535   9.238   8.264
  260POPC   C3B 6849  27.613   9.234   7.964
  260POPC   C4B 6850  27.596   9.194   7.664
  261POPC   NC3 6851  36.130   7.467   9.464
  261POPC   PO4 6852  36.168   7.406   9.164
  261POPC   GL1 6853  36.102   7.451   8.864
  261POPC   GL2 6854  36.124   7.347   8.864
  261POPC   C1A 6855  36.129   7.389   8.564
  261POPC   D2A 6856  36.163   7.388   8.264
  261POPC   C3A 6857  36.129   7.373   7.964
  261POPC   C4A 6858  36.086   7.469   7.664
  261POPC   C1B 6859  36.196   7.161   8.564
  261POPC   C2B 6860  36.209   7.193   8.264
  261POPC   C3B 6861  36.165   7.128   7.964
  261POPC   C4B 6862  36.159   7.206   7.664
  262POPC   NC3 6863  29.172  36.092   9.464
  262POPC   PO4 6864  29.105  36.132   9.164
  262POPC   GL1 6865  29.145  36.092   8.864
  262POPC   GL2 6866  29.021  36.108   8.864
  262POPC   C1A 6867  29.188  36.096   8.564
  262POPC   D2A 6868  29.183  36.134   8.264
  262POPC   C3A 6869  29.172  36.176   7.964
  262POPC   C4A 6870  29.137  36.133   7.664
  262POPC   C1B 6871  28.969  36.046   8.564
  262POPC   C2B 6872  28.963  35.970   8.264
  262POPC   C3B 6873  28.920  36.007   7.964
  262POPC   C4B 6874  28.897  36.033   7.664
  263POPC   NC3 6875  13.632  43.082   9.464
  263POPC   PO4 6876  13.649  43.067   9.164
  263POPC   GL1 6877  13.622  43.077   8.864
  263POPC   GL2 6878  13.552  43.156   8.864
  263POPC   C1A 6879  13.662  43.145   8.564
  263POPC   D2A 6880  13.611  43.066   8.264
  263POPC   C3A 6881  13.610  43.100   7.964
  263POPC   C4A 6882  13.620  43.086   7.664
  263POPC   C1B 6883  13.373  43.119   8.564
  263POPC   C2B 6884  13.424  43.141   8.264
  263POPC   C3B 6885  13.386  43.144   7.964
  263POPC   C4B 6886  13.352  43.187   7.664
  264POPC   NC3 6887  36.103   9.772   9.464
  264POPC   PO4 6888  36.157   9.733   9.164
  264POPC   GL1 6889  36.164   9.784   8.864
  264POPC   GL2 6890  36.051   9.786   8.864
  264POPC   C1A 6891  36.126   9.761   8.564
  264POPC   D2A 6892  36.081   9.732   8.264
  264POPC   C3A 6893  36.089   9.795   7.964
  264POPC   C4A 6894  36.138   9.772   7.664
  264POPC   C1B 6895  35.869   9.778   8.564
  264POPC   C2B 6896  35.873   9.802   8.264
  264POPC   C3B 6897  35.866   9.810   7.964
  264POPC   C4B 6898  35.900   9.758   7.664
  265POPC   NC3 6899  26.840  39.220   9.464
  265POPC   PO4 6900  26.840  39.255   9.164
  265POPC   GL1 6901  26.845  39.260   8.864
  265POPC   GL2 6902  26.831  39.129   8.864
  265POPC   C1A 6903  26.838  39.218   8.564
  265POPC   D2A 6904  26.846  39.263   8.264
  265POPC   C3A 6905  26.829  39.243   7.964
  265POPC   C4A 6906  26.818  39.213   7.664
  265POPC   C1B 6907  26.857  38.967   8.564
  265POPC   C2B 6908  26.867  38.972   8.264
  265POPC   C3B 6909  26.878  38.954   7.964
  265POPC   C4B 6910  26.835  39.032   7.664
  266POPC   NC3 6911   0.412  14.397   9.464
  266POPC   PO4 6912   0.394  14.409   9.164
  266POPC   GL1 6913   0.471  14.381   8.864
  266POPC   GL2 6914   0.305  14.472   8.864
  266POPC   C1A 6915   0.393  14.430   8.564
  266POPC   D2A 6916   0.451  14.391   8.264
  266POPC   C3A 6917   0.423  14.388   7.964
  266POPC   C4A 6918   0.416  14.378   7.664
  266POPC   C1B 6919   0.168  14.504   8.564
  266POPC   C2B 6920   0.194  14.518   8.264
  266POPC   C3B 6921   0.200  14.490   7.964
  266POPC   C4B 6922   0.221  14.520   7.664
  267POPC   NC3 6923  22.949  19.065   9.464
  267POPC   PO4 6924  22.906  19.082   9.164
  267POPC   GL1 6925  22.905  19.100   8.864
  267POPC   GL2 6926  22.882  18.936   8.864
  267POPC   C1A 6927  22.935  19.060   8.564
  267POPC   D2A 6928  22.954  19.055   8.264
  267POPC   C3A 6929  22.981  19.106   7.964
  267POPC   C4A 6930  22.974  19.076   7.664
  267POPC   C1B 6931  22.761  18.874   8.564
  267POPC   C2B 6932  22.806  18.899   8.264
  267POPC   C3B 6933  22.736  18.893   7.964
  267POPC   C4B 6934  22.773  18.859   7.664
  268POPC   NC3 6935   5.869   3.557   9.464
  268POPC   PO4 6936   5.889   3.558   9.164
  268POPC   GL1 6937   5.883   3.549   8.864
  268POPC   GL2 6938   5.779   3.439   8.864
  268POPC   C1A 6939   5.918   3.584   8.564
  268POPC   D2A 6940   5.864   3.585   8.264
  268POPC   C3A 6941   5.835   3.531   7.964
  268POPC   C4A 6942   5.838   3.510   7.664
  268POPC   C1B 6943   5.638   3.377   8.564
  268POPC   C2B 6944   5.725   3.401   8.264
  268POPC   C3B 6945   5.716   3.352   7.964
  268POPC   C4B 6946   5.695   3.404   7.664
  269POPC   NC3 6947  24.477  37.717   9.464
  269POPC   PO4 6948  24.474  37.639   9.164
  269POPC   GL1 6949  24.522  37.643   8.864
  269POPC   GL2 6950  24.507  37.817   8.864
  269POPC   C1A 6951  24.445  37.699   8.564
  269POPC   D2A 6952  24.475  37.662   8.264
  269POPC   C3A 6953  24.525  37.703   7.964
  269POPC   C4A 6954  24.493  37.722   7.664
  269POPC   C1B 6955  24.435  37.918   8.564
  269POPC   C2B 6956  24.452  37.976   8.264
  269POPC   C3B 6957  24.474  37.896   7.964
  269POPC   C4B 6958  24.476  37.940   7.664
  270POPC   NC3 6959   6.667  42.302   9.464
  270POPC   PO4 6960   6.677  42.339   9.164
  270POPC   GL1 6961   6.609  42.383   8.864
  270POPC   GL2 6962   6.797  42.283   8.864
  270POPC   C1A 6963   6.689  42.344   8.564
  270POPC   D2A 6964   6.662  42.319   8.264
  270POPC   C3A 6965   6.620  42.366   7.964
  270POPC   C4A 6966   6.635  42.351   7.664
  270POPC   C1B 6967   6.892  42.165   8.564
  270POPC   C2B 6968   6.808  42.173   8.264
  270POPC   C3B 6969   6.810  42.158   7.964
  270POPC   C4B 6970   6.831  42.168   7.664
  271POPC   NC3 6971  39.999  20.643   9.464
  271POPC   PO4 6972  40.006  20.599   9.164
  271POPC   GL1 6973  40.050  20.570   8.864
  271POPC   GL2 6974  40.111  20.468   8.864
  271POPC   C1A 6975  40.046  20.629   8.564
  271POPC   D2A 6976  40.048  20.655   8.264
  271POPC   C3A 6977  40.012  20.615   7.964
  271POPC   C4A 6978  40.046  20.569   7.664
  271POPC   C1B 6979  40.152  20.352   8.564
  271POPC   C2B 6980  40.131  20.353   8.264
  271POPC   C3B 6981  40.094  20.424   7.964
  271POPC   C4B 6982  40.123  20.415   7.664
  272POPC   NC3 6983  12.042  32.237   9.464
  272POPC   PO4 6984  12.028  32.207   9.164
  272POPC   GL1 6985  12.091  32.208   8.864
  272POPC   GL2 6986  12.056  32.117   8.864
  272POPC   C1A 6987  12.109  32.286   8.564
  272POPC   D2A 6988  12.110  32.290   8.264
  272POPC   C3A 6989  12.090  32.238   7.964
  272POPC   C4A 6990  12.038  32.238   7.664
  272POPC   C1B 6991  12.100  31.958   8.564
  272POPC   C2B 6992  12.048  31.949   8.264
  272POPC   C3B 6993  12.110  32.039   7.964
  272POPC   C4B 6994  12.039  31.990   7.664
  273POPC   NC3 6995  35.337  12.029   9.464
  273POPC   PO4 6996  35.356  12.090   9.164
  273POPC   GL1 6997  35.328  12.119   8.864
  273POPC   GL2 6998  35.320  12.220   8.864
  273POPC   C1A 6999  35.341  12.110   8.564
  273POPC   D2A 7000  35.390  12.057   8.264
  273POPC   C3A 7001  35.358  12.119   7.964
  273POPC   C4A 7002  35.327  12.068   7.664
  273POPC   C1B 7003  35.305  12.312   8.564
  273POPC   C2B 7004  35.310  12.272   8.264
  273POPC   C3B 7005  35.288  12.368   7.964
  273POPC   C4B 7006  35.313  12.325   7.664
  274POPC   NC3 7007  30.726  12.869   9.464
  274POPC   PO4 7008  30.738  12.883   9.164
  274POPC   GL1 7009  30.659  12.828   8.864
  274POPC   GL2 7010  30.574  12.776   8.864
  274POPC   C1A 7011  30.718  12.899   8.564
  274POPC   D2A 7012  30.690  12.885   8.264
  274POPC   C3A 7013  30.723  12.822   7.964
  274POPC   C4A 7014  30.717  12.827   7.664
  274POPC   C1B 7015  30.566  12.673   8.564
  274POPC   C2B 7016  30.540  12.721   8.264
  274POPC   C3B 7017  30.492  12.705   7.964
  274POPC   C4B 7018  30.526  12.706   7.664
  275POPC   NC3 7019  22.947   6.610   9.464
  275POPC   PO4 7020  22.924   6.628   9.164
  275POPC   GL1 7021  22.951   6.604   8.864
  275POPC   GL2 7022  23.073   6.595   8.864
  275POPC   C1A 7023  22.960   6.675   8.564
  275POPC   D2A 7024  22.986   6.648   8.264
  275POPC   C3A 7025  22.984   6.654   7.964
  275POPC   C4A 7026  22.961   6.688   7.664
  275POPC   C1B 7027  23.130   6.550   8.564
  275POPC   C2B 7028  23.148   6.547   8.264
  275POPC   C3B 7029  23.130   6.538   7.964
  275POPC   C4B 7030  23.170   6.561   7.664
  276POPC   NC3 7031   8.938  13.644   9.464
  276POPC   PO4 7032   8.924  13.631   9.164
  276POPC   GL1 7033   8.972  13.655   8.864
  276POPC   GL2 7034   9.045  13.764   8.864
  276POPC   C1A 7035   9.014  13.606   8.564
  276POPC   D2A 7036   8.948  13.616   8.264
  276POPC   C3A 7037   8.938  13.673   7.964
  276POPC   C4A 7038   8.990  13.658   7.664
  276POPC   C1B 7039   9.079  13.860   8.564
  276POPC   C2B 7040   9.069  13.838   8.264
  276POPC   C3B 7041   9.124  13.821   7.964
  276POPC   C4B 7042   9.100  13.823   7.664
  277POPC   NC3 7043  38.502  12.066   9.464
  277POPC   PO4 7044  38.474  12.037   9.164
  277POPC   GL1 7045  38.497  12.110   8.864
  277POPC   GL2 7046  38.434  12.177   8.864
  277POPC   C1A 7047  38.490  12.074   8.564
  277POPC   D2A 7048  38.459  12.080   8.264
  277POPC   C3A 7049  38.498  12.102   7.964
  277POPC   C4A 7050  38.472  12.111   7.664
  277POPC   C1B 7051  38.337  12.331   8.564
  277POPC   C2B 7052  38.304  12.320   8.264
  277POPC   C3B 7053  38.298  12.335   7.964
  277POPC   C4B 7054  38.363  12.289   7.664
  278POPC   NC3 7055   2.810  17.511   9.464
  278POPC   PO4 7056   2.800  17.529   9.164
  278POPC   GL1 7057   2.791  17.512   8.864
  278POPC   GL2 7058   2.697  17.364   8.864
  278POPC   C1A 7059   2.757  17.476   8.564
  278POPC   D2A 7060   2.807  17.547   8.264
  278POPC   C3A 7061   2.739  17.550   7.964
  278POPC   C4A 7062   2.805  17.527   7.664
  278POPC   C1B 7063   2.669  17.274   8.564
  278POPC   C2B 7064   2.664  17.270   8.264
  278POPC   C3B 7065   2.620  17.304   7.964
  278POPC   C4B 7066   2.663  17.305   7.664
  279POPC   NC3 7067  39.976  40.002   9.464
  279POPC   PO4 7068  40.011  39.977   9.164
  279POPC   GL1 7069  40.027  39.986   8.864
  279POPC   GL2 7070  40.029  39.855   8.864
  279POPC   C1A 7071  40.055  40.022   8.564
  279POPC   D2A 7072  39.990  40.050   8.264
  279POPC   C3A 7073  40.001  40.003   7.964
  279POPC   C4A 7074  40.026  40.049   7.664
  279POPC   C1B 7075  40.003  39.762   8.564
  279POPC   C2B 7076  40.009  39.795   8.264
  279POPC   C3B 7077  40.067  39.729   7.964
  279POPC   C4B 7078  40.066  39.772   7.664
  280POPC   NC3 7079  21.414  33.020   9.464
  280POPC   PO4 7080  21.387  33.019   9.164
  280POPC   GL1 7081  21.364  33.033   8.864
  280POPC   GL2 7082  21.393  32.881   8.864
  280POPC   C1A 7083  21.336  33.007   8.564
  280POPC   D2A 7084  21.427  33.049   8.264
  280POPC   C3A 7085  21.387  33.048   7.964
  280POPC   C4A 7086  21.388  33.040   7.664
  280POPC   C1B 7087  21.351  32.822   8.564
  280POPC   C2B 7088  21.346  32.753   8.264
  280POPC   C3B 7089  21.377  32.819   7.964
  280POPC   C4B 7090  21.341  32.748   7.664
  281POPC   NC3 7091   2.015   5.126   9.464
  281POPC   PO4 7092   1.969   5.134   9.164
  281POPC   GL1 7093   1.959   5.092   8.864
  281POPC   GL2 7094   2.093   5.000   8.864
  281POPC   C1A 7095   1.957   5.113   8.564
  281POPC   D2A 7096   2.012   5.095   8.264
  281POPC   C3A 7097   2.035   5.100   7.964
  281POPC   C4A 7098   1.958   5.067   7.664
  281POPC   C1B 7099   2.240   4.944   8.564
  281POPC   C2B 7100   2.225   4.936   8.264
  281POPC   C3B 7101   2.252   4.948   7.964
  281POPC   C4B 7102   2.190   4.936   7.664
  282POPC   NC3 7103  16.706  37.722   9.464
  282POPC   PO4 7104  16.705  37.631   9.164
  282POPC   GL1 7105  16.758  37.665   8.864
  282POPC   GL2 7106  16.794  37.782   8.864
  282POPC   C1A 7107  16.775  37.711   8.564
  282POPC   D2A 7108  16.748  37.715   8.264
  282POPC   C3A 7109  16.719  37.657   7.964
  282POPC   C4A 7110  16.736  37.695   7.664
  282POPC   C1B 7111  16.876  37.832   8.564
  282POPC   C2B 7112  16.906  37.841   8.264
  282POPC   C3B 7113  16.876  37.902   7.964
  282POPC   C4B 7114  16.896  37.828   7.664
  283POPC   NC3 7115  12.041   2.767   9.464
  283POPC   PO4 7116  12.096   2.810   9.164
  283POPC   GL1 7117  12.068   2.749   8.864
  283POPC   GL2 7118  12.173   2.763   8.864
  283POPC   C1A 7119  12.034   2.746   8.564
  283POPC   D2A 7120  12.054   2.745   8.264
  283POPC   C3A 7121  12.059   2.746   7.964
  283POPC   C4A 7122  12.044   2.780   7.664
  283POPC   C1B 7123  12.340   2.866   8.564
  283POPC   C2B 7124  12.350   2.872   8.264
  283POPC   C3B 7125  12.320   2.875   7.964
  283POPC   C4B 7126  12.321   2.838   7.664
  284POPC   NC3 7127  13.597  32.244   9.464
  284POPC   PO4 7128  13.632  32.262   9.164
  284POPC   GL1 7129  13.583  32.289   8.864
  284POPC   GL2 7130  13.547  32.219   8.864
  284POPC   C1A 7131  13.602  32.229   8.564
  284POPC   D2A 7132  13.607  32.243   8.264
  284POPC   C3A 7133  13.598  32.261   7.964
  284POPC   C4A 7134  13.633  32.252   7.664
  284POPC   C1B 7135  13.357  32.162   8.564
  284POPC   C2B 7136  13.375  32.216   8.264
  284POPC   C3B 7137  13.416  32.239   7.964
  284POPC   C4B 7138  13.349  32.151   7.664
  285POPC   NC3 7139  36.084  32.214   9.464
  285POPC   PO4 7140  36.117  32.285   9.164
  285POPC   GL1 7141  36.175  32.252   8.864
  285POPC   GL2 7142  36.259  32.260   8.864
  285POPC   C1A 7143  36.157  32.269   8.564
  285POPC   D2A 7144  36.150  32.282   8.264
  285POPC   C3A 7145  36.156  32.212   7.964
  285POPC   C4A 7146  36.175  32.281   7.664
  285POPC   C1B 7147  36.329  32.164   8.564
  285POPC   C2B 7148  36.332  32.243   8.264
  285POPC   C3B 7149  36.389  32.164   7.964
  285POPC   C4B 7150  36.352  32.170   7.664
  286POPC   NC3 7151   4.277  25.308   9.464
  286POPC   PO4 7152   4.357  25.244   9.164
  286POPC   GL1 7153   4.359  25.240   8.864
  286POPC   GL2 7154   4.386  25.186   8.864
  286POPC   C1A 7155   4.300  25.286   8.564
  286POPC   D2A 7156   4.338  25.217   8.264
  286POPC   C3A 7157   4.300  25.272   7.964
  286POPC   C4A 7158   4.274  25.252   7.664
  286POPC   C1B 7159   4.409  24.995   8.564
  286POPC   C2B 7160   4.349  25.029   8.264
  286POPC   C3B 7161   4.420  24.996   7.964
  286POPC   C4B 7162   4.365  25.046   7.664
  287POPC   NC3 7163  42.353   8.237   9.464
  287POPC   PO4 7164  42.315   8.192   9.164
  287POPC   GL1 7165  42.320   8.152   8.864
  287POPC   GL2 7166  42.363   8.053   8.864
  287POPC   C1A 7167  42.301   8.213   8.564
  287POPC   D2A 7168  42.347   8.216   8.264
  287POPC   C3A 7169  42.291   8.198   7.964
  287POPC   C4A 7170  42.377   8.215   7.664
  287POPC   C1B 7171  42.411   7.915   8.564
  287POPC   C2B 7172  42.339   7.993   8.264
  287POPC   C3B 7173  42.318   7.956   7.964
  287POPC   C4B 7174  42.381   7.925   7.664
  288POPC   NC3 7175  15.159  25.266   9.464
  288POPC   PO4 7176  15.153  25.308   9.164
  288POPC   GL1 7177  15.141  25.259   8.864
  288POPC   GL2 7178  15.248  25.287   8.864
  288POPC   C1A 7179  15.223  25.295   8.564
  288POPC   D2A 7180  15.142  25.242   8.264
  288POPC   C3A 7181  15.197  25.262   7.964
  288POPC   C4A 7182  15.180  25.239   7.664
  288POPC   C1B 7183  15.404  25.344   8.564
  288POPC   C2B 7184  15.447  25.379   8.264
  288POPC   C3B 7185  15.445  25.398   7.964
  288POPC   C4B 7186  15.367  25.340   7.664
  289POPC   NC3 7187  32.241   1.981   9.464
  289POPC   PO4 7188  32.269   1.992   9.164
  289POPC   GL1 7189  32.235   2.018   8.864
  289POPC   GL2 7190  32.296   1.855   8.864
  289POPC   C1A 7191  32.236   1.994   8.564
  289POPC   D2A 7192  32.249   2.014   8.264
  289POPC   C3A 7193  32.248   2.006   7.964
  289POPC   C4A 7194  32.293   1.990   7.664
  289POPC   C1B 7195  32.268   1.760   8.564
  289POPC   C2B 7196  32.298   1.763   8.264
  289POPC   C3B 7197  32.248   1.793   7.964
  289POPC   C4B 7198  32.254   1.743   7.664
  290POPC   NC3 7199   4.306   2.781   9.464
  290POPC   PO4 7200   4.330   2.815   9.164
  290POPC   GL1 7201   4.361   2.813   8.864
  290POPC   GL2 7202   4.215   2.787   8.864
  290POPC   C1A 7203   4.284   2.790   8.564
  290POPC   D2A 7204   4.341   2.765   8.264
  290POPC   C3A 7205   4.356   2.718   7.964
  290POPC   C4A 7206   4.293   2.748   7.664
  290POPC   C1B 7207   4.031   2.739   8.564
  290POPC   C2B 7208   4.049   2.759   8.264
  290POPC   C3B 7209   4.108   2.765   7.964
  290POPC   C4B 7210   4.110   2.775   7.664
  291POPC   NC3 7211  22.211  36.116   9.464
  291POPC   PO4 7212  22.167  36.163   9.164
  291POPC   GL1 7213  22.155  36.098   8.864
  291POPC   GL2 7214  22.283  36.014   8.864
  291POPC   C1A 7215  22.212  36.133   8.564
  291POPC   D2A 7216  22.132  36.081   8.264
  291POPC   C3A 7217  22.156  36.086   7.964
  291POPC   C4A 7218  22.170  36.156   7.664
  291POPC   C1B 7219  22.323  35.956   8.564
  291POPC   C2B 7220  22.373  35.963   8.264
  291POPC   C3B 7221  22.384  35.974   7.964
  291POPC   C4B 7222  22.299  35.923   7.664
  292POPC   NC3 7223  32.283  29.913   9.464
  292POPC   PO4 7224  32.228  29.900   9.164
  292POPC   GL1 7225  32.281  29.950   8.864
  292POPC   GL2 7226  32.306  29.781   8.864
  292POPC   C1A 7227  32.208  29.902   8.564
  292POPC   D2A 7228  32.259  29.930   8.264
  292POPC   C3A 7229  32.233  29.897   7.964
  292POPC   C4A 7230  32.214  29.907   7.664
  292POPC   C1B 7231  32.419  29.730   8.564
  292POPC   C2B 7232  32.439  29.734   8.264
  292POPC   C3B 7233  32.369  29.681   7.964
  292POPC   C4B 7234  32.398  29.719   7.664
  293POPC   NC3 7235  19.801  20.608   9.464
  293POPC   PO4 7236  19.791  20.614   9.164
  293POPC   GL1 7237  19.829  20.618   8.864
  293POPC   GL2 7238  19.768  20.648   8.864
  293POPC   C1A 7239  19.861  20.631   8.564
  293POPC   D2A 7240  19.796  20.567   8.264
  293POPC   C3A 7241  19.867  20.613   7.964
  293POPC   C4A 7242  19.816  20.619   7.664
  293POPC   C1B 7243  19.625  20.734   8.564
  293POPC   C2B 7244  19.611  20.788   8.264
  293POPC   C3B 7245  19.611  20.718   7.964
  293POPC   C4B 7246  19.637  20.779   7.664
  294POPC   NC3 7247  30.716  44.673   9.464
  294POPC   PO4 7248  30.741  44.638   9.164
  294POPC   GL1 7249  30.745  44.659   8.864
  294POPC   GL2 7250  30.791  44.816   8.864
  294POPC   C1A 7251  30.710  44.672   8.564
  294POPC   D2A 7252  30.663  44.704   8.264
  294POPC   C3A 7253  30.656  44.661   7.964
  294POPC   C4A 7254  30.724  44.630   7.664
  294POPC   C1B 7255  30.793  44.915   8.564
  294POPC   C2B 7256  30.822  44.902   8.264
  294POPC   C3B 7257  30.770  44.833   7.964
  294POPC   C4B 7258  30.839  44.888   7.664
  295POPC   NC3 7259  16.761   8.213   9.464
  295POPC   PO4 7260  16.731   8.158   9.164
  295POPC   GL1 7261  16.732   8.213   8.864
  295POPC   GL2 7262  16.571   8.165   8.864
  295POPC   C1A 7263  16.703   8.151   8.564
  295POPC   D2A 7264  16.711   8.162   8.264
  295POPC   C3A 7265  16.724   8.206   7.964
  295POPC   C4A 7266  16.774   8.185   7.664
  295POPC   C1B 7267  16.460   8.136   8.564
  295POPC   C2B 7268  16.452   8.153   8.264
  295POPC   C3B 7269  16.508   8.167   7.964
  295POPC   C4B 7270  16.477   8.148   7.664
  296POPC   NC3 7271  15.219  14.444   9.464
  296POPC   PO4 7272  15.198  14.452   9.164
  296POPC   GL1 7273  15.198  14.450   8.864
  296POPC   GL2 7274  15.209  14.494   8.864
  296POPC   C1A 7275  15.196  14.422   8.564
  296POPC   D2A 7276  15.130  14.434   8.264
  296POPC   C3A 7277  15.152  14.408   7.964
  296POPC   C4A 7278  15.157  14.375   7.664
  296POPC   C1B 7279  15.232  14.643   8.564
  296POPC   C2B 7280  15.235  14.629   8.264
  296POPC   C3B 7281  15.286  14.619   7.964
  296POPC   C4B 7282  15.254  14.632   7.664
  297POPC   NC3 7283  36.922  19.054   9.464
  297POPC   PO4 7284  36.888  19.014   9.164
  297POPC   GL1 7285  36.929  19.090   8.864
  297POPC   GL2 7286  36.946  18.957   8.864
  297POPC   C1A 7287  36.926  19.034   8.564
  297POPC   D2A 7288  36.952  19.051   8.264
  297POPC   C3A 7289  36.902  19.063   7.964
  297POPC   C4A 7290  36.911  19.080   7.664
  297POPC   C1B 7291  36.971  18.782   8.564
  297POPC   C2B 7292  36.893  18.844   8.264
  297POPC   C3B 7293  36.964  18.832   7.964
  297POPC   C4B 7294  36.916  18.810   7.664
  298POPC   NC3 7295  36.174  12.099   9.464
  298POPC   PO4 7296  36.132  12.055   9.164
  298POPC   GL1 7297  36.131  12.029   8.864
  298POPC   GL2 7298  36.094  12.203   8.864
  298POPC   C1A 7299  36.096  12.033   8.564
  298POPC   D2A 7300  36.139  12.074   8.264
  298POPC   C3A 7301  36.096  12.042   7.964
  298POPC   C4A 7302  36.085  12.085   7.664
  298POPC   C1B 7303  36.048  12.319   8.564
  298POPC   C2B 7304  36.073  12.271   8.264
  298POPC   C3B 7305  36.083  12.285   7.964
  298POPC   C4B 7306  36.038  12.276   7.664
  299POPC   NC3 7307  15.179  44.697   9.464
  299POPC   PO4 7308  15.146  44.708   9.164
  299POPC   GL1 7309  15.135  44.637   8.864
  299POPC   GL2 7310  15.273  44.759   8.864
  299POPC   C1A 7311  15.152  44.697   8.564
  299POPC   D2A 7312  15.218  44.649   8.264
  299POPC   C3A 7313  15.170  44.693   7.964
  299POPC   C4A 7314  15.217  44.617   7.664
  299POPC   C1B 7315  15.452  44.754   8.564
  299POPC   C2B 7316  15.456  44.774   8.264
  299POPC   C3B 7317  15.425  44.772   7.964
  299POPC   C4B 7318  15.372  44.735   7.664
  300POPC   NC3 7319  30.647  40.016   9.464
  300POPC   PO4 7320  30.680  39.960   9.164
  300POPC   GL1 7321  30.648  40.002   8.864
  300POPC   GL2 7322  30.664  39.919   8.864
  300POPC   C1A 7323  30.700  39.982   8.564
  300POPC   D2A 7324  30.682  40.004   8.264
  300POPC   C3A 7325  30.723  40.022   7.964
  300POPC   C4A 7326  30.656  40.017   7.664
  300POPC   C1B 7327  30.640  39.792   8.564
  300POPC   C2B 7328  30.634  39.811   8.264
  300POPC   C3B 7329  30.643  39.752   7.964
  300POPC   C4B 7330  30.624  39.740   7.664
  301POPC   NC3 7331   4.327  43.904   9.464
  301POPC   PO4 7332   4.276  43.893   9.164
  301POPC   GL1 7333   4.315  43.933   8.864
  301POPC   GL2 7334   4.276  43.740   8.864
  301POPC   C1A 7335   4.331  43.890   8.564
  301POPC   D2A 7336   4.268  43.909   8.264
  301POPC   C3A 7337   4.282  43.856   7.964
  301POPC   C4A 7338   4.316  43.916   7.664
  301POPC   C1B 7339   4.183  43.706   8.564
  301POPC   C2B 7340   4.236  43.642   8.264
  301POPC   C3B 7341   4.181  43.703   7.964
  301POPC   C4B 7342   4.250  43.628   7.664
  302POPC   NC3 7343  31.465   1.240   9.464
  302POPC   PO4 7344  31.521   1.263   9.164
  302POPC   GL1 7345  31.471   1.196   8.864
  302POPC   GL2 7346  31.361   1.265   8.864
  302POPC   C1A 7347  31.451   1.262   8.564
  302POPC   D2A 7348  31.427   1.257   8.264
  302POPC   C3A 7349  31.487   1.205   7.964
  302POPC   C4A 7350  31.502   1.260   7.664
  302POPC   C1B 7351  31.264   1.273   8.564
  302POPC   C2B 7352  31.217   1.247   8.264
  302POPC   C3B 7353  31.278   1.262   7.964
  302POPC   C4B 7354  31.197   1.281   7.664
  303POPC   NC3 7355  30.691   7.455   9.464
  303POPC   PO4 7356  30.739   7.383   9.164
  303POPC   GL1 7357  30.703   7.454   8.864
  303POPC   GL2 7358  30.602   7.506   8.864
  303POPC   C1A 7359  30.740   7.389   8.564
  303POPC   D2A 7360  30.661   7.466   8.264
  303POPC   C3A 7361  30.710   7.417   7.964
  303POPC   C4A 7362  30.682   7.441   7.664
  303POPC   C1B 7363  30.542   7.543   8.564
  303POPC   C2B 7364  30.492   7.613   8.264
  303POPC   C3B 7365  30.542   7.554   7.964
  303POPC   C4B 7366  30.480   7.610   7.664
  304POPC   NC3 7367  27.604   1.250   9.464
  304POPC   PO4 7368  27.616   1.171   9.164
  304POPC   GL1 7369  27.553   1.192   8.864
  304POPC   GL2 7370  27.674   1.361   8.864
  304POPC   C1A 7371  27.584   1.177   8.564
  304POPC   D2A 7372  27.548   1.187   8.264
  304POPC   C3A 7373  27.596   1.202   7.964
  304POPC   C4A 7374  27.609   1.168   7.664
  304POPC   C1B 7375  27.661   1.399   8.564
  304POPC   C2B 7376  27.722   1.480   8.264
  304POPC   C3B 7377  27.686   1.443   7.964
  304POPC   C4B 7378  27.636   1.489   7.664
  305POPC   NC3 7379  32.258   3.584   9.464
  305POPC   PO4 7380  32.273   3.536   9.164
  305POPC   GL1 7381  32.242   3.563   8.864
  305POPC   GL2 7382  32.364   3.427   8.864
  305POPC   C1A 7383  32.224   3.566   8.564
  305POPC   D2A 7384  32.202   3.510   8.264
  305POPC   C3A 7385  32.232   3.551   7.964
  305POPC   C4A 7386  32.268   3.493   7.664
  305POPC   C1B 7387  32.464   3.369   8.564
  305POPC   C2B 7388  32.474   3.420   8.264
  305POPC   C3B 7389  32.440   3.435   7.964
  305POPC   C4B 7390  32.400   3.354   7.664
  306POPC   NC3 7391  25.996  22.969   9.464
  306POPC   PO4 7392  26.025  22.961   9.164
  306POPC   GL1 7393  26.025  22.914   8.864
  306POPC   GL2 7394  25.985  23.074   8.864
  306POPC   C1A 7395  26.002  22.982   8.564
  306POPC   D2A 7396  26.066  22.953   8.264
  306POPC   C3A 7397  26.010  22.916   7.964
  306POPC   C4A 7398  26.068  22.899   7.664
  306POPC   C1B 7399  25.907  23.095   8.564
  306POPC   C2B 7400  25.864  23.118   8.264
  306POPC   C3B 7401  25.906  23.093   7.964
  306POPC   C4B 7402  25.862  23.096   7.664
  307POPC   NC3 7403  34.602  38.462   9.464
  307POPC   PO4 7404  34.538  38.473   9.164
  307POPC   GL1 7405  34.603  38.466   8.864
  307POPC   GL2 7406  34.507  38.564   8.864
  307POPC   C1A 7407  34.615  38.420   8.564
  307POPC   D2A 7408  34.527  38.424   8.264
  307POPC   C3A 7409  34.583  38.462   7.964
  307POPC   C4A 7410  34.617  38.503   7.664
  307POPC   C1B 7411  34.514  38.667   8.564
  307POPC   C2B 7412  34.468  38.706   8.264
  307POPC   C3B 7413  34.468  38.664   7.964
  307POPC   C4B 7414  34.473  38.640   7.664
  308POPC   NC3 7415  38.499  33.054   9.464
  308POPC   PO4 7416  38.494  32.981   9.164
  308POPC   GL1 7417  38.438  32.993   8.864
  308POPC   GL2 7418  38.366  33.049   8.864
  308POPC   C1A 7419  38.422  32.985   8.564
  308POPC   D2A 7420  38.491  33.024   8.264
  308POPC   C3A 7421  38.502  32.989   7.964
  308POPC   C4A 7422  38.443  33.018   7.664
  308POPC   C1B 7423  38.196  33.023   8.564
  308POPC   C2B 7424  38.172  33.055   8.264
  308POPC   C3B 7425  38.234  33.015   7.964
  308POPC   C4B 7426  38.205  33.017   7.664
  309POPC   NC3 7427   5.077  34.572   9.464
  309POPC   PO4 7428   5.139  34.572   9.164
  309POPC   GL1 7429   5.052  34.566   8.864
  309POPC   GL2 7430   4.955  34.608   8.864
  309POPC   C1A 7431   5.136  34.533   8.564
  309POPC   D2A 7432   5.108  34.527   8.264
  309POPC   C3A 7433   5.062  34.540   7.964
  309POPC   C4A 7434   5.130  34.543   7.664
  309POPC   C1B 7435   4.915  34.719   8.564
  309POPC   C2B 7436   4.880  34.657   8.264
  309POPC   C3B 7437   4.876  34.670   7.964
  309POPC   C4B 7438   4.882  34.690   7.664
  310POPC   NC3 7439  19.033  26.063   9.464
  310POPC   PO4 7440  19.084  26.064   9.164
  310POPC   GL1 7441  19.079  26.077   8.864
  310POPC   GL2 7442  19.096  25.918   8.864
  310POPC   C1A 7443  19.035  26.061   8.564
  310POPC   D2A 7444  19.036  26.033   8.264
  310POPC   C3A 7445  19.043  26.046   7.964
  310POPC   C4A 7446  19.058  26.040   7.664
  310POPC   C1B 7447  19.255  25.879   8.564
  310POPC   C2B 7448  19.202  25.855   8.264
  310POPC   C3B 7449  19.242  25.811   7.964
  310POPC   C4B 7450  19.183  25.824   7.664
  311POPC   NC3 7451  31.522  39.207   9.464
  311POPC   PO4 7452  31.474  39.210   9.164
  311POPC   GL1 7453  31.494  39.189   8.864
  311POPC   GL2 7454  31.326  39.199   8.864
  311POPC   C1A 7455  31.460  39.199   8.564
  311POPC   D2A 7456  31.511  39.224   8.264
  311POPC   C3A 7457  31.433  39.234   7.964
  311POPC   C4A 7458  31.501  39.240   7.664
  311POPC   C1B 7459  31.242  39.244   8.564
  311POPC   C2B 7460  31.248  39.221   8.264
  311POPC   C3B 7461  31.232  39.203   7.964
  311POPC   C4B 7462  31.218  39.253   7.664
  312POPC   NC3 7463  20.562   4.322   9.464
  312POPC   PO4 7464  20.624   4.330   9.164
  312POPC   GL1 7465  20.561   4.362   8.864
  312POPC   GL2 7466  20.586   4.383   8.864
  312POPC   C1A 7467  20.567   4.292   8.564
  312POPC   D2A 7468  20.650   4.284   8.264
  312POPC   C3A 7469  20.615   4.316   7.964
  312POPC   C4A 7470  20.572   4.275   7.664
  312POPC   C1B 7471  20.466   4.504   8.564
  312POPC   C2B 7472  20.502   4.477   8.264
  312POPC   C3B 7473  20.523   4.520   7.964
  312POPC   C4B 7474  20.492   4.511   7.664
  313POPC   NC3 7475  14.417  40.005   9.464
  313POPC   PO4 7476  14.450  40.038   9.164
  313POPC   GL1 7477  14.425  40.014   8.864
  313POPC   GL2 7478  14.495  39.937   8.864
  313POPC   C1A 7479  14.436  39.998   8.564
  313POPC   D2A 7480  14.378  39.982   8.264
  313POPC   C3A 7481  14.441  40.011   7.964
  313POPC   C4A 7482  14.367  39.958   7.664
  313POPC   C1B 7483  14.566  39.904   8.564
  313POPC   C2B 7484  14.568  39.860   8.264
  313POPC   C3B 7485  14.582  39.870   7.964
  313POPC   C4B 7486  14.599  39.851   7.664
  314POPC   NC3 7487   5.867   5.076   9.464
  314POPC   PO4 7488   5.842   5.065   9.164
  314POPC   GL1 7489   5.832   5.121   8.864
  314POPC   GL2 7490   5.934   4.985   8.864
  314POPC   C1A 7491   5.873   5.093   8.564
  314POPC   D2A 7492   5.901   5.067   8.264
  314POPC   C3A 7493   5.889   5.073   7.964
  314POPC   C4A 7494   5.839   5.139   7.664
  314POPC   C1B 7495   5.967   4.839   8.564
  314POPC   C2B 7496   5.983   4.904   8.264
  314POPC   C3B 7497   5.966   4.820   7.964
  314POPC   C4B 7498   5.939   4.830   7.664
  315POPC   NC3 7499  29.948   8.156   9.464
  315POPC   PO4 7500  29.872   8.194   9.164
  315POPC   GL1 7501  29.874   8.189   8.864
  315POPC   GL2 7502  30.060   8.241   8.864
  315POPC   C1A 7503  29.960   8.231   8.564
  315POPC   D2A 7504  29.918   8.191   8.264
  315POPC   C3A 7505  29.962   8.220   7.964
  315POPC   C4A 7506  29.887   8.235   7.664
  315POPC   C1B 7507  30.091   8.344   8.564
  315POPC   C2B 7508  30.085   8.372   8.264
  315POPC   C3B 7509  30.142   8.314   7.964
  315POPC   C4B 7510  30.144   8.363   7.664
  316POPC   NC3 7511  11.270   9.726   9.464
  316POPC   PO4 7512  11.265   9.788   9.164
  316POPC   GL1 7513  11.268   9.704   8.864
  316POPC   GL2 7514  11.224   9.863   8.864
  316POPC   C1A 7515  11.289   9.789   8.564
  316POPC   D2A 7516  11.341   9.774   8.264
  316POPC   C3A 7517  11.263   9.717   7.964
  316POPC   C4A 7518  11.257   9.708   7.664
  316POPC   C1B 7519  11.101   9.926   8.564
  316POPC   C2B 7520  11.122   9.909   8.264
  316POPC   C3B 7521  11.102   9.903   7.964
  316POPC   C4B 7522  11.114   9.970   7.664
  317POPC   NC3 7523   1.955  32.240   9.464
  317POPC   PO4 7524   1.946  32.231   9.164
  317POPC   GL1 7525   2.034  32.236   8.864
  317POPC   GL2 7526   2.075  32.370   8.864
  317POPC   C1A 7527   2.003  32.286   8.564
  317POPC   D2A 7528   1.941  32.235   8.264
  317POPC   C3A 7529   2.026  32.234   7.964
  317POPC   C4A 7530   1.951  32.236   7.664
  317POPC   C1B 7531   2.192  32.362   8.564
  317POPC   C2B 7532   2.152  32.392   8.264
  317POPC   C3B 7533   2.139  32.356   7.964
  317POPC   C4B 7534   2.180  32.375   7.664
  318POPC   NC3 7535  37.684  13.622   9.464
  318POPC   PO4 7536  37.696  13.603   9.164
  318POPC   GL1 7537  37.716  13.599   8.864
  318POPC   GL2 7538  37.709  13.510   8.864
  318POPC   C1A 7539  37.699  13.630   8.564
  318POPC   D2A 7540  37.687  13.653   8.264
  318POPC   C3A 7541  37.658  13.653   7.964
  318POPC   C4A 7542  37.729  13.647   7.664
  318POPC   C1B 7543  37.764  13.423   8.564
  318POPC   C2B 7544  37.843  13.437   8.264
  318POPC   C3B 7545  37.805  13.429   7.964
  318POPC   C4B 7546  37.827  13.389   7.664
  319POPC   NC3 7547  40.772  25.258   9.464
  319POPC   PO4 7548  40.805  25.253   9.164
  319POPC   GL1 7549  40.791  25.236   8.864
  319POPC   GL2 7550  40.900  25.318   8.864
  319POPC   C1A 7551  40.783  25.259   8.564
  319POPC   D2A 7552  40.773  25.219   8.264
  319POPC   C3A 7553  40.774  25.218   7.964
  319POPC   C4A 7554  40.779  25.271   7.664
  319POPC   C1B 7555  41.035  25.342   8.564
  319POPC   C2B 7556  41.054  25.280   8.264
  319POPC   C3B 7557  41.054  25.329   7.964
  319POPC   C4B 7558  40.997  25.324   7.664
  320POPC   NC3 7559  19.030  22.193   9.464
  320POPC   PO4 7560  19.057  22.193   9.164
  320POPC   GL1 7561  19.102  22.162   8.864
  320POPC   GL2 7562  18.965  22.227   8.864
  320POPC   C1A 7563  19.044  22.181   8.564
  320POPC   D2A 7564  19.025  22.159   8.264
  320POPC   C3A 7565  19.079  22.113   7.964
  320POPC   C4A 7566  19.037  22.155   7.664
  320POPC   C1B 7567  18.898  22.312   8.564
  320POPC   C2B 7568  18.880  22.337   8.264
  320POPC   C3B 7569  18.817  22.292   7.964
  320POPC   C4B 7570  18.813  22.299   7.664
  321POPC   NC3 7571   9.792  31.490   9.464
  321POPC   PO4 7572   9.708  31.489   9.164
  321POPC   GL1 7573   9.716  31.510   8.864
  321POPC   GL2 7574   9.869  31.399   8.864
  321POPC   C1A 7575   9.774  31.429   8.564
  321POPC   D2A 7576   9.702  31.438   8.264
  321POPC   C3A 7577   9.795  31.424   7.964
  321POPC   C4A 7578   9.748  31.453   7.664
  321POPC   C1B 7579   9.904  31.339   8.564
  321POPC   C2B 7580   9.950  31.336   8.264
  321POPC   C3B 7581   9.921  31.282   7.964
  321POPC   C4B 7582   9.937  31.304   7.664
  322POPC   NC3 7583  15.989  44.629   9.464
  322POPC   PO4 7584  15.930  44.632   9.164
  322POPC   GL1 7585  15.906  44.630   8.864
  322POPC   GL2 7586  15.927  44.572   8.864
  322POPC   C1A 7587  15.948  44.664   8.564
  322POPC   D2A 7588  15.969  44.694   8.264
  322POPC   C3A 7589  15.954  44.617   7.964
  322POPC   C4A 7590  15.957  44.644   7.664
  322POPC   C1B 7591  15.878  44.391   8.564
  322POPC   C2B 7592  15.879  44.458   8.264
  322POPC   C3B 7593  15.849  44.447   7.964
  322POPC   C4B 7594  15.905  44.436   7.664
  323POPC   NC3 7595  26.803   5.049   9.464
  323POPC   PO4 7596  26.862   5.089   9.164
  323POPC   GL1 7597  26.790   5.099   8.864
  323POPC   GL2 7598  26.706   5.004   8.864
  323POPC   C1A 7599  26.819   5.078   8.564
  323POPC   D2A 7600  26.855   5.131   8.264
  323POPC   C3A 7601  26.801   5.075   7.964
  323POPC   C4A 7602  26.847   5.121   7.664
  323POPC   C1B 7603  26.629   4.917   8.564
  323POPC   C2B 7604  26.607   4.967   8.264
  323POPC   C3B 7605  26.645   4.958   7.964
  323POPC   C4B 7606  26.600   4.922   7.664
  324POPC   NC3 7607  17.462  41.543   9.464
  324POPC   PO4 7608  17.486  41.528   9.164
  324POPC   GL1 7609  17.484  41.517   8.864
  324POPC   GL2 7610  17.561  41.488   8.864
  324POPC   C1A 7611  17.513  41.571   8.564
  324POPC   D2A 7612  17.473  41.525   8.264
  324POPC   C3A 7613  17.547  41.568   7.964
  324POPC   C4A 7614  17.555  41.537   7.664
  324POPC   C1B 7615  17.730  41.366   8.564
  324POPC   C2B 7616  17.706  41.415   8.264
  324POPC   C3B 7617  17.735  41.383   7.964
  324POPC   C4B 7618  17.727  41.451   7.664
  325POPC   NC3 7619  11.258  25.273   9.464
  325POPC   PO4 7620  11.276  25.251   9.164
  325POPC   GL1 7621  11.274  25.292   8.864
  325POPC   GL2 7622  11.322  25.101   8.864
  325POPC   C1A 7623  11.271  25.312   8.564
  325POPC   D2A 7624  11.311  25.273   8.264
  325POPC   C3A 7625  11.264  25.253   7.964
  325POPC   C4A 7626  11.339  25.296   7.664
  325POPC   C1B 7627  11.419  25.039   8.564
  325POPC   C2B 7628  11.363  25.036   8.264
  325POPC   C3B 7629  11.408  25.039   7.964
  325POPC   C4B 7630  11.338  25.065   7.664
  326POPC   NC3 7631   1.198  25.256   9.464
  326POPC   PO4 7632   1.231  25.280   9.164
  326POPC   GL1 7633   1.247  25.260   8.864
  326POPC   GL2 7634   1.119  25.273   8.864
  326POPC   C1A 7635   1.258  25.314   8.564
  326POPC   D2A 7636   1.217  25.309   8.264
  326POPC   C3A 7637   1.192  25.224   7.964
  326POPC   C4A 7638   1.241  25.259   7.664
  326POPC   C1B 7639   0.983  25.230   8.564
  326POPC   C2B 7640   0.953  25.236   8.264
  326POPC   C3B 7641   0.934  25.229   7.964
  326POPC   C4B 7642   0.929  25.203   7.664
  327POPC   NC3 7643  25.251  28.323   9.464
  327POPC   PO4 7644  25.236  28.365   9.164
  327POPC   GL1 7645  25.254  28.350   8.864
  327POPC   GL2 7646  25.174  28.340   8.864
  327POPC   C1A 7647  25.277  28.399   8.564
  327POPC   D2A 7648  25.242  28.414   8.264
  327POPC   C3A 7649  25.311  28.418   7.964
  327POPC   C4A 7650  25.259  28.402   7.664
  327POPC   C1B 7651  25.007  28.246   8.564
  327POPC   C2B 7652  25.044  28.329   8.264
  327POPC   C3B 7653  25.066  28.290   7.964
  327POPC   C4B 7654  25.024  28.296   7.664
  328POPC   NC3 7655  22.900  26.800   9.464
  328POPC   PO4 7656  22.973  26.779   9.164
  328POPC   GL1 7657  22.913  26.771   8.864
  328POPC   GL2 7658  23.027  26.924   8.864
  328POPC   C1A 7659  22.974  26.865   8.564
  328POPC   D2A 7660  22.987  26.772   8.264
  328POPC   C3A 7661  22.891  26.866   7.964
  328POPC   C4A 7662  22.889  26.786   7.664
  328POPC   C1B 7663  23.068  26.958   8.564
  328POPC   C2B 7664  23.123  26.984   8.264
  328POPC   C3B 7665  23.100  27.003   7.964
  328POPC   C4B 7666  23.088  26.972   7.664
  329POPC   NC3 7667  37.703   2.013   9.464
  329POPC   PO4 7668  37.661   1.981   9.164
  329POPC   GL1 7669  37.718   1.973   8.864
  329POPC   GL2 7670  37.581   1.934   8.864
  329POPC   C1A 7671  37.710   1.960   8.564
  329POPC   D2A 7672  37.710   2.031   8.264
  329POPC   C3A 7673  37.708   1.993   7.964
  329POPC   C4A 7674  37.703   2.011   7.664
  329POPC   C1B 7675  37.515   1.790   8.564
  329POPC   C2B 7676  37.508   1.832   8.264
  329POPC   C3B 7677  37.563   1.738   7.964
  329POPC   C4B 7678  37.567   1.738   7.664
  330POPC   NC3 7679  25.995   3.524   9.464
  330POPC   PO4 7680  26.041   3.552   9.164
  330POPC   GL1 7681  26.016   3.512   8.864
  330POPC   GL2 7682  25.985   3.472   8.864
  330POPC   C1A 7683  26.003   3.519   8.564
  330POPC   D2A 7684  26.033   3.535   8.264
  330POPC   C3A 7685  26.036   3.549   7.964
  330POPC   C4A 7686  25.996   3.514   7.664
  330POPC   C1B 7687  25.912   3.302   8.564
  330POPC   C2B 7688  25.865   3.372   8.264
  330POPC   C3B 7689  25.883   3.343   7.964
  330POPC   C4B 7690  25.895   3.345   7.664
  331POPC   NC3 7691   0.452  31.483   9.464
  331POPC   PO4 7692   0.476  31.458   9.164
  331POPC   GL1 7693   0.455  31.499   8.864
  331POPC   GL2 7694   0.560  31.528   8.864
  331POPC   C1A 7695   0.454  31.470   8.564
  331POPC   D2A 7696   0.450  31.462   8.264
  331POPC   C3A 7697   0.471  31.514   7.964
  331POPC   C4A 7698   0.400  31.488   7.664
  331POPC   C1B 7699   0.675  31.479   8.564
  331POPC   C2B 7700   0.689  31.505   8.264
  331POPC   C3B 7701   0.696  31.507   7.964
  331POPC   C4B 7702   0.734  31.470   7.664
  332POPC   NC3 7703  39.194   1.208   9.464
  332POPC   PO4 7704  39.195   1.223   9.164
  332POPC   GL1 7705  39.243   1.240   8.864
  332POPC   GL2 7706  39.214   1.114   8.864
  332POPC   C1A 7707  39.257   1.247   8.564
  332POPC   D2A 7708  39.195   1.213   8.264
  332POPC   C3A 7709  39.269   1.173   7.964
  332POPC   C4A 7710  39.257   1.175   7.664
  332POPC   C1B 7711  39.145   0.969   8.564
  332POPC   C2B 7712  39.146   1.042   8.264
  332POPC   C3B 7713  39.054   1.050   7.964
  332POPC   C4B 7714  39.098   1.032   7.664
  333POPC   NC3 7715  28.368  26.078   9.464
  333POPC   PO4 7716  28.370  26.070   9.164
  333POPC   GL1 7717  28.375  26.077   8.864
  333POPC   GL2 7718  28.288  26.002   8.864
  333POPC   C1A 7719  28.365  26.050   8.564
  333POPC   D2A 7720  28.324  26.011   8.264
  333POPC   C3A 7721  28.412  26.002   7.964
  333POPC   C4A 7722  28.413  26.056   7.664
  333POPC   C1B 7723  28.166  26.015   8.564
  333POPC   C2B 7724  28.135  25.985   8.264
  333POPC   C3B 7725  28.103  26.019   7.964
  333POPC   C4B 7726  28.164  26.048   7.664
  334POPC   NC3 7727  29.905  14.357   9.464
  334POPC   PO4 7728  29.902  14.410   9.164
  334POPC   GL1 7729  29.889  14.405   8.864
  334POPC   GL2 7730  29.756  14.431   8.864
  334POPC   C1A 7731  29.961  14.365   8.564
  334POPC   D2A 7732  29.926  14.373   8.264
  334POPC   C3A 7733  29.895  14.382   7.964
  334POPC   C4A 7734  29.944  14.381   7.664
  334POPC   C1B 7735  29.686  14.398   8.564
  334POPC   C2B 7736  29.650  14.418   8.264
  334POPC   C3B 7737  29.718  14.331   7.964
  334POPC   C4B 7738  29.695  14.404   7.664
  335POPC   NC3 7739  37.726   8.174   9.464
  335POPC   PO4 7740  37.639   8.214   9.164
  335POPC   GL1 7741  37.684   8.196   8.864
  335POPC   GL2 7742  37.822   8.165   8.864
  335POPC   C1A 7743  37.633   8.203   8.564
  335POPC   D2A 7744  37.724   8.203   8.264
  335POPC   C3A 7745  37.710   8.241   7.964
  335POPC   C4A 7746  37.717   8.174   7.664
  335POPC   C1B 7747  37.892   8.213   8.564
  335POPC   C2B 7748  37.929   8.212   8.264
  335POPC   C3B 7749  37.915   8.167   7.964
  335POPC   C4B 7750  37.950   8.233   7.664
  336POPC   NC3 7751  15.935  33.005   9.464
  336POPC   PO4 7752  15.986  32.982   9.164
  336POPC   GL1 7753  15.946  33.020   8.864
  336POPC   GL2 7754  15.819  33.088   8.864
  336POPC   C1A 7755  15.985  32.998   8.564
  336POPC   D2A 7756  15.931  32.997   8.264
  336POPC   C3A 7757  15.915  32.990   7.964
  336POPC   C4A 7758  15.953  33.025   7.664
  336POPC   C1B 7759  15.813  33.175   8.564
  336POPC   C2B 7760  15.757  33.176   8.264
  336POPC   C3B 7761  15.803  33.173   7.964
  336POPC   C4B 7762  15.805  33.178   7.664
  337POPC   NC3 7763  34.536  41.521   9.464
  337POPC   PO4 7764  34.624  41.541   9.164
  337POPC   GL1 7765  34.607  41.557   8.864
  337POPC   GL2 7766  34.636  41.397   8.864
  337POPC   C1A 7767  34.573  41.532   8.564
  337POPC   D2A 7768  34.601  41.606   8.264
  337POPC   C3A 7769  34.607  41.585   7.964
  337POPC   C4A 7770  34.537  41.537   7.664
  337POPC   C1B 7771  34.659  41.273   8.564
  337POPC   C2B 7772  34.598  41.360   8.264
  337POPC   C3B 7773  34.669  41.322   7.964
  337POPC   C4B 7774  34.688  41.330   7.664
  338POPC   NC3 7775   8.955  21.382   9.464
  338POPC   PO4 7776   8.935  21.424   9.164
  338POPC   GL1 7777   8.925  21.370   8.864
  338POPC   GL2 7778   9.048  21.289   8.864
  338POPC   C1A 7779   8.936  21.424   8.564
  338POPC   D2A 7780   8.931  21.383   8.264
  338POPC   C3A 7781   8.958  21.392   7.964
  338POPC   C4A 7782   8.978  21.365   7.664
  338POPC   C1B 7783   9.042  21.188   8.564
  338POPC   C2B 7784   9.025  21.111   8.264
  338POPC   C3B 7785   9.092  21.153   7.964
  338POPC   C4B 7786   9.031  21.168   7.664
  339POPC   NC3 7787   4.365  22.967   9.464
  339POPC   PO4 7788   4.320  22.982   9.164
  339POPC   GL1 7789   4.290  22.900   8.864
  339POPC   GL2 7790   4.202  22.863   8.864
  339POPC   C1A 7791   4.331  22.952   8.564
  339POPC   D2A 7792   4.286  22.934   8.264
  339POPC   C3A 7793   4.350  22.985   7.964
  339POPC   C4A 7794   4.361  22.892   7.664
  339POPC   C1B 7795   4.088  22.764   8.564
  339POPC   C2B 7796   4.106  22.806   8.264
  339POPC   C3B 7797   4.150  22.833   7.964
  339POPC   C4B 7798   4.095  22.776   7.664
  340POPC   NC3 7799  44.635   8.979   9.464
  340POPC   PO4 7800  44.639   8.999   9.164
  340POPC   GL1 7801  44.615   9.012   8.864
  340POPC   GL2 7802  44.537   9.117   8.864
  340POPC   C1A 7803  44.678   9.010   8.564
  340POPC   D2A 7804  44.629   8.971   8.264
  340POPC   C3A 7805  44.701   8.990   7.964
  340POPC   C4A 7806  44.690   9.020   7.664
  340POPC   C1B 7807  44.554   9.190   8.564
  340POPC   C2B 7808  44.530   9.190   8.264
  340POPC   C3B 7809  44.531   9.186   7.964
  340POPC   C4B 7810  44.548   9.197   7.664
  341POPC   NC3 7811  23.720   5.140   9.464
  341POPC   PO4 7812  23.687   5.112   9.164
  341POPC   GL1 7813  23.688   5.101   8.864
  341POPC   GL2 7814  23.706   4.952   8.864
  341POPC   C1A 7815  23.708   5.124   8.564
  341POPC   D2A 7816  23.729   5.092   8.264
  341POPC   C3A 7817  23.738   5.096   7.964
  341POPC   C4A 7818  23.753   5.063   7.664
  341POPC   C1B 7819  23.736   4.896   8.564
  341POPC   C2B 7820  23.802   4.860   8.264
  341POPC   C3B 7821  23.794   4.798   7.964
  341POPC   C4B 7822  23.773   4.832   7.664
  342POPC   NC3 7823  43.908  43.119   9.464
  342POPC   PO4 7824  43.855  43.132   9.164
  342POPC   GL1 7825  43.888  43.137   8.864
  342POPC   GL2 7826  43.957  43.233   8.864
  342POPC   C1A 7827  43.907  43.066   8.564
  342POPC   D2A 7828  43.839  43.103   8.264
  342POPC   C3A 7829  43.901  43.143   7.964
  342POPC   C4A 7830  43.934  43.078   7.664
  342POPC   C1B 7831  43.997  43.334   8.564
  342POPC   C2B 7832  44.038  43.281   8.264
  342POPC   C3B 7833  44.025  43.272   7.964
  342POPC   C4B 7834  44.015  43.274   7.664
  343POPC   NC3 7835  19.069  15.173   9.464
  343POPC   PO4 7836  19.076  15.142   9.164
  343POPC   GL1 7837  19.066  15.218   8.864
  343POPC   GL2 7838  19.203  15.228   8.864
  343POPC   C1A 7839  19.036  15.181   8.564
  343POPC   D2A 7840  19.071  15.203   8.264
  343POPC   C3A 7841  19.063  15.156   7.964
  343POPC   C4A 7842  19.070  15.201   7.664
  343POPC   C1B 7843  19.246  15.246   8.564
  343POPC   C2B 7844  19.255  15.261   8.264
  343POPC   C3B 7845  19.308  15.282   7.964
  343POPC   C4B 7846  19.300  15.301   7.664
  344POPC   NC3 7847  40.740   8.232   9.464
  344POPC   PO4 7848  40.762   8.191   9.164
  344POPC   GL1 7849  40.832   8.181   8.864
  344POPC   GL2 7850  40.770   8.111   8.864
  344POPC   C1A 7851  40.776   8.244   8.564
  344POPC   D2A 7852  40.779   8.169   8.264
  344POPC   C3A 7853  40.785   8.226   7.964
  344POPC   C4A 7854  40.768   8.230   7.664
  344POPC   C1B 7855  40.776   7.955   8.564
  344POPC   C2B 7856  40.784   7.901   8.264
  344POPC   C3B 7857  40.708   7.981   7.964
  344POPC   C4B 7858  40.729   7.931   7.664
  345POPC   NC3 7859  13.615   5.120   9.464
  345POPC   PO4 7860  13.645   5.112   9.164
  345POPC   GL1 7861  13.671   5.113   8.864
  345POPC   GL2 7862  13.519   5.120   8.864
  345POPC   C1A 7863  13.651   5.048   8.564
  345POPC   D2A 7864  13.674   5.045   8.264
  345POPC   C3A 7865  13.659   5.111   7.964
  345POPC   C4A 7866  13.603   5.044   7.664
  345POPC   C1B 7867  13.421   5.221   8.564
  345POPC   C2B 7868  13.410   5.162   8.264
  345POPC   C3B 7869  13.404   5.230   7.964
  345POPC   C4B 7870  13.359   5.191   7.664
  346POPC   NC3 7871  40.021  40.758   9.464
  346POPC   PO4 7872  39.985  40.767   9.164
  346POPC   GL1 7873  40.012  40.763   8.864
  346POPC   GL2 7874  39.995  40.694   8.864
  346POPC   C1A 7875  40.040  40.745   8.564
  346POPC   D2A 7876  39.979  40.795   8.264
  346POPC   C3A 7877  40.030  40.828   7.964
  346POPC   C4A 7878  40.024  40.814   7.664
  346POPC   C1B 7879  39.916  40.555   8.564
  346POPC   C2B 7880  39.972  40.586   8.264
  346POPC   C3B 7881  39.926  40.584   7.964
  346POPC   C4B 7882  39.975  40.500   7.664
  347POPC   NC3 7883  26.048  28.404   9.464
  347POPC   PO4 7884  26.013  28.381   9.164
  347POPC   GL1 7885  25.999  28.327   8.864
  347POPC   GL2 7886  26.037  28.464   8.864
  347POPC   C1A 7887  26.082  28.383   8.564
  347POPC   D2A 7888  26.042  28.356   8.264
  347POPC   C3A 7889  26.019  28.392   7.964
  347POPC   C4A 7890  26.006  28.349   7.664
  347POPC   C1B 7891  26.017  28.585   8.564
  347POPC   C2B 7892  26.021  28.581   8.264
  347POPC   C3B 7893  26.005  28.591   7.964
  347POPC   C4B 7894  25.963  28.648   7.664
  348POPC   NC3 7895  13.580  10.532   9.464
  348POPC   PO4 7896  13.633  10.488   9.164
  348POPC   GL1 7897  13.608  10.506   8.864
  348POPC   GL2 7898  13.549  10.488   8.864
  348POPC   C1A 7899  13.610  10.566   8.564
  348POPC   D2A 7900  13.666  10.538   8.264
  348POPC   C3A 7901  13.662  10.490   7.964
  348POPC   C4A 7902  13.676  10.501   7.664
  348POPC   C1B 7903  13.374  10.424   8.564
  348POPC   C2B 7904  13.355  10.390   8.264
  348POPC   C3B 7905  13.387  10.392   7.964
  348POPC   C4B 7906  13.419  10.415   7.664
  349POPC   NC3 7907  22.131  37.681   9.464
  349POPC   PO4 7908  22.193  37.685   9.164
  349POPC   GL1 7909  22.201  37.718   8.864
  349POPC   GL2 7910  22.013  37.730   8.864
  349POPC   C1A 7911  22.186  37.702   8.564
  349POPC   D2A 7912  22.145  37.685   8.264
  349POPC   C3A 7913  22.149  37.697   7.964
  349POPC   C4A 7914  22.192  37.704   7.664
  349POPC   C1B 7915  21.947  37.671   8.564
  349POPC   C2B 7916  21.925  37.738   8.264
  349POPC   C3B 7917  21.941  37.703   7.964
  349POPC   C4B 7918  21.894  37.643   7.664
  350POPC   NC3 7919  35.371  32.255   9.464
  350POPC   PO4 7920  35.385  32.239   9.164
  350POPC   GL1 7921  35.364  32.203   8.864
  350POPC   GL2 7922  35.432  32.389   8.864
  350POPC   C1A 7923  35.365  32.262   8.564
  350POPC   D2A 7924  35.324  32.262   8.264
  350POPC   C3A 7925  35.348  32.225   7.964
  350POPC   C4A 7926  35.391  32.222   7.664
  350POPC   C1B 7927  35.543  32.431   8.564
  350POPC   C2B 7928  35.528  32.484   8.264
  350POPC   C3B 7929  35.520  32.409   7.964
  350POPC   C4B 7930  35.547  32.467   7.664
  351POPC   NC3 7931  27.639  10.547   9.464
  351POPC   PO4 7932  27.596  10.538   9.164
  351POPC   GL1 7933  27.592  10.513   8.864
  351POPC   GL2 7934  27.583  10.436   8.864
  351POPC   C1A 7935  27.566  10.509   8.564
  351POPC   D2A 7936  27.545  10.522   8.264
  351POPC   C3A 7937  27.551  10.546   7.964
  351POPC   C4A 7938  27.581  10.490   7.664
  351POPC   C1B 7939  27.575  10.226   8.564
  351POPC   C2B 7940  27.579  10.235   8.264
  351POPC   C3B 7941  27.591  10.321   7.964
  351POPC   C4B 7942  27.581  10.259   7.664
  352POPC   NC3 7943  40.023   4.339   9.464
  352POPC   PO4 7944  39.990   4.278   9.164
  352POPC   GL1 7945  39.977   4.352   8.864
  352POPC   GL2 7946  39.872   4.370   8.864
  352POPC   C1A 7947  40.002   4.325   8.564
  352POPC   D2A 7948  39.983   4.307   8.264
  352POPC   C3A 7949  39.964   4.297   7.964
  352POPC   C4A 7950  40.057   4.294   7.664
  352POPC   C1B 7951  39.799   4.429   8.564
  352POPC   C2B 7952  39.787   4.440   8.264
  352POPC   C3B 7953  39.803   4.361   7.964
  352POPC   C4B 7954  39.810   4.452   7.664
  353POPC   NC3 7955  22.163  18.271   9.464
  353POPC   PO4 7956  22.168  18.264   9.164
  353POPC   GL1 7957  22.149  18.242   8.864
  353POPC   GL2 7958  22.317  18.300   8.864
  353POPC   C1A 7959  22.163  18.292   8.564
  353POPC   D2A 7960  22.178  18.327   8.264
  353POPC   C3A 7961  22.181  18.274   7.964
  353POPC   C4A 7962  22.145  18.252   7.664
  353POPC   C1B 7963  22.384  18.346   8.564
  353POPC   C2B 7964  22.427  18.303   8.264
  353POPC   C3B 7965  22.440  18.346   7.964
  353POPC   C4B 7966  22.373  18.365   7.664
  354POPC   NC3 7967  13.666   7.436   9.464
  354POPC   PO4 7968  13.658   7.432   9.164
  354POPC   GL1 7969  13.668   7.392   8.864
  354POPC   GL2 7970  13.482   7.374   8.864
  354POPC   C1A 7971  13.597   7.431   8.564
  354POPC   D2A 7972  13.651   7.411   8.264
  354POPC   C3A 7973  13.580   7.437   7.964
  354POPC   C4A 7974  13.616   7.406   7.664
  354POPC   C1B 7975  13.366   7.270   8.564
  354POPC   C2B 7976  13.410   7.252   8.264
  354POPC   C3B 7977  13.429   7.253   7.964
  354POPC   C4B 7978  13.405   7.311   7.664
  355POPC   NC3 7979   8.171   9.720   9.464
  355POPC   PO4 7980   8.157   9.705   9.164
  355POPC   GL1 7981   8.152   9.769   8.864
  355POPC   GL2 7982   8.253   9.611   8.864
  355POPC   C1A 7983   8.154   9.783   8.564
  355POPC   D2A 7984   8.211   9.736   8.264
  355POPC   C3A 7985   8.218   9.713   7.964
  355POPC   C4A 7986   8.225   9.702   7.664
  355POPC   C1B 7987   8.241   9.465   8.564
  355POPC   C2B 7988   8.223   9.481   8.264
  355POPC   C3B 7989   8.187   9.531   7.964
  355POPC   C4B 7990   8.269   9.496   7.664
  356POPC   NC3 7991  10.572   0.406   9.464
  356POPC   PO4 7992  10.543   0.479   9.164
  356POPC   GL1 7993  10.496   0.463   8.864
  356POPC   GL2 7994  10.405   0.491   8.864
  356POPC   C1A 7995  10.574   0.406   8.564
  356POPC   D2A 7996  10.546   0.434   8.264
  356POPC   C3A 7997  10.549   0.449   7.964
  356POPC   C4A 7998  10.540   0.435   7.664
  356POPC   C1B 7999  10.358   0.589   8.564
  356POPC   C2B 8000  10.349   0.663   8.264
  356POPC   C3B 8001  10.350   0.676   7.964
  356POPC   C4B 8002  10.403   0.627   7.664
  357POPC   NC3 8003  39.183  25.274   9.464
  357POPC   PO4 8004  39.239  25.274   9.164
  357POPC   GL1 8005  39.275  25.314   8.864
  357POPC   GL2 8006  39.128  25.221   8.864
  357POPC   C1A 8007  39.271  25.221   8.564
  357POPC   D2A 8008  39.189  25.229   8.264
  357POPC   C3A 8009  39.235  25.311   7.964
  357POPC   C4A 8010  39.261  25.217   7.664
  357POPC   C1B 8011  39.025  25.205   8.564
  357POPC   C2B 8012  38.938  25.227   8.264
  357POPC   C3B 8013  38.991  25.178   7.964
  357POPC   C4B 8014  38.981  25.236   7.664
  358POPC   NC3 8015  13.587  44.667   9.464
  358POPC   PO4 8016  13.603  44.672   9.164
  358POPC   GL1 8017  13.648  44.632   8.864
  358POPC   GL2 8018  13.620  44.512   8.864
  358POPC   C1A 8019  13.582  44.662   8.564
  358POPC   D2A 8020  13.579  44.624   8.264
  358POPC   C3A 8021  13.594  44.623   7.964
  358POPC   C4A 8022  13.628  44.667   7.664
  358POPC   C1B 8023  13.637  44.458   8.564
  358POPC   C2B 8024  13.598  44.381   8.264
  358POPC   C3B 8025  13.625  44.458   7.964
  358POPC   C4B 8026  13.653  44.400   7.664
  359POPC   NC3 8027  34.618  43.080   9.464
  359POPC   PO4 8028  34.587  43.154   9.164
  359POPC   GL1 8029  34.589  43.107   8.864
  359POPC   GL2 8030  34.628  42.965   8.864
  359POPC   C1A 8031  34.555  43.083   8.564
  359POPC   D2A 8032  34.529  43.153   8.264
  359POPC   C3A 8033  34.530  43.119   7.964
  359POPC   C4A 8034  34.607  43.105   7.664
  359POPC   C1B 8035  34.712  42.901   8.564
  359POPC   C2B 8036  34.692  42.857   8.264
  359POPC   C3B 8037  34.692  42.935   7.964
  359POPC   C4B 8038  34.687  42.857   7.664
  360POPC   NC3 8039   4.332  10.521   9.464
  360POPC   PO4 8040   4.290  10.529   9.164
  360POPC   GL1 8041   4.360  10.538   8.864
  360POPC   GL2 8042   4.254  10.452   8.864
  360POPC   C1A 8043   4.325  10.528   8.564
  360POPC   D2A 8044   4.360  10.482   8.264
  360POPC   C3A 8045   4.313  10.559   7.964
  360POPC   C4A 8046   4.334  10.543   7.664
  360POPC   C1B 8047   4.235  10.244   8.564
  360POPC   C2B 8048   4.264  10.272   8.264
  360POPC   C3B 8049   4.255  10.331   7.964
  360POPC   C4B 8050   4.272  10.237   7.664
  361POPC   NC3 8051   0.469  26.026   9.464
  361POPC   PO4 8052   0.408  26.052   9.164
  361POPC   GL1 8053   0.404  26.010   8.864
  361POPC   GL2 8054   0.564  26.079   8.864
  361POPC   C1A 8055   0.412  26.062   8.564
  361POPC   D2A 8056   0.476  26.013   8.264
  361POPC   C3A 8057   0.475  25.999   7.964
  361POPC   C4A 8058   0.423  26.084   7.664
  361POPC   C1B 8059   0.717  26.037   8.564
  361POPC   C2B 8060   0.714  26.078   8.264
  361POPC   C3B 8061   0.645  26.098   7.964
  361POPC   C4B 8062   0.659  26.117   7.664
  362POPC   NC3 8063  22.962  28.320   9.464
  362POPC   PO4 8064  22.900  28.372   9.164
  362POPC   GL1 8065  22.905  28.404   8.864
  362POPC   GL2 8066  22.958  28.236   8.864
  362POPC   C1A 8067  22.975  28.325   8.564
  362POPC   D2A 8068  22.986  28.377   8.264
  362POPC   C3A 8069  22.922  28.352   7.964
  362POPC   C4A 8070  22.903  28.376   7.664
  362POPC   C1B 8071  22.967  28.103   8.564
  362POPC   C2B 8072  23.029  28.161   8.264
  362POPC   C3B 8073  22.966  28.135   7.964
  362POPC   C4B 8074  23.017  28.144   7.664
  363POPC   NC3 8075  28.326  36.894   9.464
  363POPC   PO4 8076  28.326  36.942   9.164
  363POPC   GL1 8077  28.328  36.928   8.864
  363POPC   GL2 8078  28.433  36.964   8.864
  363POPC   C1A 8079  28.400  36.896   8.564
  363POPC   D2A 8080  28.411  36.913   8.264
  363POPC   C3A 8081  28.344  36.901   7.964
  363POPC   C4A 8082  28.409  36.896   7.664
  363POPC   C1B 8083  28.537  37.094   8.564
  363POPC   C2B 8084  28.553  37.069   8.264
  363POPC   C3B 8085  28.550  37.044   7.964
  363POPC   C4B 8086  28.586  37.048   7.664
  364POPC   NC3 8087   1.204  12.096   9.464
  364POPC   PO4 8088   1.165  12.124   9.164
  364POPC   GL1 8089   1.206  12.096   8.864
  364POPC   GL2 8090   1.147  12.178   8.864
  364POPC   C1A 8091   1.257  12.113   8.564
  364POPC   D2A 8092   1.234  12.028   8.264
  364POPC   C3A 8093   1.222  12.095   7.964
  364POPC   C4A 8094   1.209  12.092   7.664
  364POPC   C1B 8095   1.048  12.263   8.564
  364POPC   C2B 8096   0.984  12.184   8.264
  364POPC   C3B 8097   1.027  12.176   7.964
  364POPC   C4B 8098   0.985  12.178   7.664
  365POPC   NC3 8099  27.637  44.708   9.464
  365POPC   PO4 8100  27.560  44.641   9.164
  365POPC   GL1 8101  27.605  44.662   8.864
  365POPC   GL2 8102  27.553  44.533   8.864
  365POPC   C1A 8103  27.591  44.621   8.564
  365POPC   D2A 8104  27.572  44.706   8.264
  365POPC   C3A 8105  27.544  44.625   7.964
  365POPC   C4A 8106  27.577  44.707   7.664
  365POPC   C1B 8107  27.453  44.492   8.564
  365POPC   C2B 8108  27.398  44.483   8.264
  365POPC   C3B 8109  27.440  44.464   7.964
  365POPC   C4B 8110  27.445  44.436   7.664
  366POPC   NC3 8111  10.529  12.036   9.464
  366POPC   PO4 8112  10.496  12.054   9.164
  366POPC   GL1 8113  10.482  12.052   8.864
  366POPC   GL2 8114  10.513  11.983   8.864
  366POPC   C1A 8115  10.509  12.082   8.564
  366POPC   D2A 8116  10.544  12.118   8.264
  366POPC   C3A 8117  10.548  12.068   7.964
  366POPC   C4A 8118  10.513  12.091   7.664
  366POPC   C1B 8119  10.581  11.801   8.564
  366POPC   C2B 8120  10.575  11.855   8.264
  366POPC   C3B 8121  10.572  11.876   7.964
  366POPC   C4B 8122  10.560  11.848   7.664
  367POPC   NC3 8123  39.236   8.200   9.464
  367POPC   PO4 8124  39.260   8.244   9.164
  367POPC   GL1 8125  39.227   8.190   8.864
  367POPC   GL2 8126  39.401   8.254   8.864
  367POPC   C1A 8127  39.216   8.206   8.564
  367POPC   D2A 8128  39.210   8.160   8.264
  367POPC   C3A 8129  39.226   8.215   7.964
  367POPC   C4A 8130  39.190   8.194   7.664
  367POPC   C1B 8131  39.447   8.216   8.564
  367POPC   C2B 8132  39.513   8.238   8.264
  367POPC   C3B 8133  39.468   8.289   7.964
  367POPC   C4B 8134  39.515   8.229   7.664
  368POPC   NC3 8135  22.921  24.522   9.464
  368POPC   PO4 8136  22.917  24.533   9.164
  368POPC   GL1 8137  22.919  24.532   8.864
  368POPC   GL2 8138  22.926  24.658   8.864
  368POPC   C1A 8139  22.941  24.521   8.564
  368POPC   D2A 8140  22.964  24.500   8.264
  368POPC   C3A 8141  22.972  24.529   7.964
  368POPC   C4A 8142  22.962  24.484   7.664
  368POPC   C1B 8143  23.024  24.718   8.564
  368POPC   C2B 8144  23.010  24.706   8.264
  368POPC   C3B 8145  23.012  24.708   7.964
  368POPC   C4B 8146  22.944  24.773   7.664
  369POPC   NC3 8147   8.226  42.343   9.464
  369POPC   PO4 8148   8.208  42.368   9.164
  369POPC   GL1 8149   8.234  42.382   8.864
  369POPC   GL2 8150   8.024  42.366   8.864
  369POPC   C1A 8151   8.161  42.373   8.564
  369POPC   D2A 8152   8.176  42.300   8.264
  369POPC   C3A 8153   8.199  42.382   7.964
  369POPC   C4A 8154   8.243  42.335   7.664
  369POPC   C1B 8155   7.913  42.377   8.564
  369POPC   C2B 8156   7.960  42.337   8.264
  369POPC   C3B 8157   7.980  42.381   7.964
  369POPC   C4B 8158   7.969  42.333   7.664
  370POPC   NC3 8159  29.928  24.534   9.464
  370POPC   PO4 8160  29.964  24.515   9.164
  370POPC   GL1 8161  29.889  24.496   8.864
  370POPC   GL2 8162  30.019  24.371   8.864
  370POPC   C1A 8163  29.889  24.444   8.564
  370POPC   D2A 8164  29.962  24.456   8.264
  370POPC   C3A 8165  29.916  24.531   7.964
  370POPC   C4A 8166  29.905  24.471   7.664
  370POPC   C1B 8167  30.106  24.308   8.564
  370POPC   C2B 8168  30.106  24.329   8.264
  370POPC   C3B 8169  30.063  24.292   7.964
  370POPC   C4B 8170  30.122  24.345   7.664
  371POPC   NC3 8171  29.135  15.935   9.464
  371POPC   PO4 8172  29.162  16.004   9.164
  371POPC   GL1 8173  29.105  15.940   8.864
  371POPC   GL2 8174  29.074  15.850   8.864
  371POPC   C1A 8175  29.146  15.990   8.564
  371POPC   D2A 8176  29.141  15.922   8.264
  371POPC   C3A 8177  29.119  15.987   7.964
  371POPC   C4A 8178  29.101  15.947   7.664
  371POPC   C1B 8179  28.991  15.817   8.564
  371POPC   C2B 8180  28.911  15.830   8.264
  371POPC   C3B 8181  28.941  15.781   7.964
  371POPC   C4B 8182  28.916  15.846   7.664
  372POPC   NC3 8183  32.223   6.653   9.464
  372POPC   PO4 8184  32.262   6.659   9.164
  372POPC   GL1 8185  32.243   6.634   8.864
  372POPC   GL2 8186  32.101   6.707   8.864
  372POPC   C1A 8187  32.278   6.633   8.564
  372POPC   D2A 8188  32.262   6.682   8.264
  372POPC   C3A 8189  32.265   6.637   7.964
  372POPC   C4A 8190  32.296   6.603   7.664
  372POPC   C1B 8191  31.986   6.660   8.564
  372POPC   C2B 8192  31.963   6.712   8.264
  372POPC   C3B 8193  32.001   6.724   7.964
  372POPC   C4B 8194  31.970   6.678   7.664
  373POPC   NC3 8195   8.151  16.722   9.464
  373POPC   PO4 8196   8.155  16.774   9.164
  373POPC   GL1 8197   8.183  16.754   8.864
  373POPC   GL2 8198   8.337  16.616   8.864
  373POPC   C1A 8199   8.244  16.761   8.564
  373POPC   D2A 8200   8.191  16.681   8.264
  373POPC   C3A 8201   8.231  16.702   7.964
  373POPC   C4A 8202   8.152  16.773   7.664
  373POPC   C1B 8203   8.418  16.555   8.564
  373POPC   C2B 8204   8.449  16.563   8.264
  373POPC   C3B 8205   8.385  16.550   7.964
  373POPC   C4B 8206   8.435  16.542   7.664
  374POPC   NC3 8207   3.514  13.653   9.464
  374POPC   PO4 8208   3.525  13.590   9.164
  374POPC   GL1 8209   3.564  13.602   8.864
  374POPC   GL2 8210   3.655  13.648   8.864
  374POPC   C1A 8211   3.559  13.671   8.564
  374POPC   D2A 8212   3.551  13.600   8.264
  374POPC   C3A 8213   3.491  13.669   7.964
  374POPC   C4A 8214   3.506  13.598   7.664
  374POPC   C1B 8215   3.820  13.612   8.564
  374POPC   C2B 8216   3.775  13.588   8.264
  374POPC   C3B 8217   3.757  13.558   7.964
  374POPC   C4B 8218   3.800  13.595   7.664
  375POPC   NC3 8219  32.247  30.686   9.464
  375POPC   PO4 8220  32.211  30.736   9.164
  375POPC   GL1 8221  32.208  30.710   8.864
  375POPC   GL2 8222  32.176  30.554   8.864
  375POPC   C1A 8223  32.294  30.746   8.564
  375POPC   D2A 8224  32.264  30.664   8.264
  375POPC   C3A 8225  32.290  30.679   7.964
  375POPC   C4A 8226  32.223  30.712   7.664
  375POPC   C1B 8227  32.062  30.440   8.564
  375POPC   C2B 8228  32.092  30.519   8.264
  375POPC   C3B 8229  32.137  30.502   7.964
  375POPC   C4B 8230  32.115  30.535   7.664
  376POPC   NC3 8231  40.828  34.615   9.464
  376POPC   PO4 8232  40.777  34.578   9.164
  376POPC   GL1 8233  40.788  34.602   8.864
  376POPC   GL2 8234  40.709  34.557   8.864
  376POPC   C1A 8235  40.768  34.569   8.564
  376POPC   D2A 8236  40.796  34.527   8.264
  376POPC   C3A 8237  40.825  34.610   7.964
  376POPC   C4A 8238  40.766  34.619   7.664
  376POPC   C1B 8239  40.604  34.488   8.564
  376POPC   C2B 8240  40.531  34.479   8.264
  376POPC   C3B 8241  40.525  34.440   7.964
  376POPC   C4B 8242  40.596  34.426   7.664
  377POPC   NC3 8243   7.383   5.917   9.464
  377POPC   PO4 8244   7.417   5.852   9.164
  377POPC   GL1 8245   7.377   5.864   8.864
  377POPC   GL2 8246   7.527   5.977   8.864
  377POPC   C1A 8247   7.431   5.827   8.564
  377POPC   D2A 8248   7.455   5.916   8.264
  377POPC   C3A 8249   7.420   5.866   7.964
  377POPC   C4A 8250   7.412   5.907   7.664
  377POPC   C1B 8251   7.636   6.040   8.564
  377POPC   C2B 8252   7.601   6.032   8.264
  377POPC   C3B 8253   7.667   5.973   7.964
  377POPC   C4B 8254   7.658   6.018   7.664
  378POPC   NC3 8255  12.874  32.276   9.464
  378POPC   PO4 8256  12.883  32.232   9.164
  378POPC   GL1 8257  12.866  32.214   8.864
  378POPC   GL2 8258  12.913  32.360   8.864
  378POPC   C1A 8259  12.813  32.285   8.564
  378POPC   D2A 8260  12.887  32.214   8.264
  378POPC   C3A 8261  12.809  32.217   7.964
  378POPC   C4A 8262  12.864  32.291   7.664
  378POPC   C1B 8263  12.951  32.511   8.564
  378POPC   C2B 8264  12.948  32.435   8.264
  378POPC   C3B 8265  12.938  32.465   7.964
  378POPC   C4B 8266  13.023  32.445   7.664
  379POPC   NC3 8267  24.503  18.273   9.464
  379POPC   PO4 8268  24.481  18.325   9.164
  379POPC   GL1 8269  24.469  18.330   8.864
  379POPC   GL2 8270  24.588  18.357   8.864
  379POPC   C1A 8271  24.511  18.268   8.564
  379POPC   D2A 8272  24.501  18.236   8.264
  379POPC   C3A 8273  24.469  18.314   7.964
  379POPC   C4A 8274  24.470  18.259   7.664
  379POPC   C1B 8275  24.684  18.373   8.564
  379POPC   C2B 8276  24.707  18.360   8.264
  379POPC   C3B 8277  24.718  18.401   7.964
  379POPC   C4B 8278  24.745  18.408   7.664
  380POPC   NC3 8279  36.092  13.641   9.464
  380POPC   PO4 8280  36.161  13.626   9.164
  380POPC   GL1 8281  36.081  13.667   8.864
  380POPC   GL2 8282  36.169  13.690   8.864
  380POPC   C1A 8283  36.151  13.588   8.564
  380POPC   D2A 8284  36.133  13.652   8.264
  380POPC   C3A 8285  36.102  13.641   7.964
  380POPC   C4A 8286  36.126  13.585   7.664
  380POPC   C1B 8287  36.221  13.867   8.564
  380POPC   C2B 8288  36.300  13.793   8.264
  380POPC   C3B 8289  36.248  13.854   7.964
  380POPC   C4B 8290  36.245  13.871   7.664
  381POPC   NC3 8291   5.118   1.235   9.464
  381POPC   PO4 8292   5.091   1.252   9.164
  381POPC   GL1 8293   5.054   1.240   8.864
  381POPC   GL2 8294   4.943   1.235   8.864
  381POPC   C1A 8295   5.068   1.228   8.564
  381POPC   D2A 8296   5.114   1.181   8.264
  381POPC   C3A 8297   5.065   1.176   7.964
  381POPC   C4A 8298   5.061   1.168   7.664
  381POPC   C1B 8299   4.881   1.211   8.564
  381POPC   C2B 8300   4.841   1.205   8.264
  381POPC   C3B 8301   4.817   1.182   7.964
  381POPC   C4B 8302   4.813   1.138   7.664
  382POPC   NC3 8303  36.913   2.729   9.464
  382POPC   PO4 8304  36.877   2.786   9.164
  382POPC   GL1 8305  36.881   2.743   8.864
  382POPC   GL2 8306  36.981   2.847   8.864
  382POPC   C1A 8307  36.927   2.792   8.564
  382POPC   D2A 8308  36.922   2.756   8.264
  382POPC   C3A 8309  36.874   2.729   7.964
  382POPC   C4A 8310  36.932   2.744   7.664
  382POPC   C1B 8311  37.090   2.895   8.564
  382POPC   C2B 8312  37.186   2.824   8.264
  382POPC   C3B 8313  37.118   2.895   7.964
  382POPC   C4B 8314  37.111   2.823   7.664
  383POPC   NC3 8315  34.624  35.387   9.464
  383POPC   PO4 8316  34.546  35.309   9.164
  383POPC   GL1 8317  34.545  35.389   8.864
  383POPC   GL2 8318  34.527  35.262   8.864
  383POPC   C1A 8319  34.622  35.341   8.564
  383POPC   D2A 8320  34.625  35.345   8.264
  383POPC   C3A 8321  34.562  35.392   7.964
  383POPC   C4A 8322  34.580  35.330   7.664
  383POPC   C1B 8323  34.500  35.058   8.564
  383POPC   C2B 8324  34.515  35.094   8.264
  383POPC   C3B 8325  34.536  35.061   7.964
  383POPC   C4B 8326  34.477  35.098   7.664
  384POPC   NC3 8327  27.560  26.008   9.464
  384POPC   PO4 8328  27.576  26.088   9.164
  384POPC   GL1 8329  27.549  26.047   8.864
  384POPC   GL2 8330  27.471  26.165   8.864
  384POPC   C1A 8331  27.584  26.031   8.564
  384POPC   D2A 8332  27.556  26.083   8.264
  384POPC   C3A 8333  27.594  26.079   7.964
  384POPC   C4A 8334  27.587  26.075   7.664
  384POPC   C1B 8335  27.454  26.209   8.564
  384POPC   C2B 8336  27.451  26.159   8.264
  384POPC   C3B 8337  27.396  26.249   7.964
  384POPC   C4B 8338  27.446  26.191   7.664
  385POPC   NC3 8339   5.070  16.710   9.464
  385POPC   PO4 8340   5.122  16.695   9.164
  385POPC   GL1 8341   5.116  16.732   8.864
  385POPC   GL2 8342   5.030  16.611   8.864
  385POPC   C1A 8343   5.130  16.716   8.564
  385POPC   D2A 8344   5.100  16.695   8.264
  385POPC   C3A 8345   5.093  16.732   7.964
  385POPC   C4A 8346   5.116  16.689   7.664
  385POPC   C1B 8347   4.843  16.606   8.564
  385POPC   C2B 8348   4.851  16.540   8.264
  385POPC   C3B 8349   4.852  16.571   7.964
  385POPC   C4B 8350   4.866  16.564   7.664
  386POPC   NC3 8351  22.183   1.253   9.464
  386POPC   PO4 8352  22.152   1.194   9.164
  386POPC   GL1 8353  22.201   1.215   8.864
  386POPC   GL2 8354  22.068   1.142   8.864
  386POPC   C1A 8355  22.168   1.203   8.564
  386POPC   D2A 8356  22.119   1.227   8.264
  386POPC   C3A 8357  22.132   1.235   7.964
  386POPC   C4A 8358  22.121   1.181   7.664
  386POPC   C1B 8359  22.008   0.988   8.564
  386POPC   C2B 8360  22.047   1.043   8.264
  386POPC   C3B 8361  21.987   0.982   7.964
  386POPC   C4B 8362  22.001   1.031   7.664
  387POPC   NC3 8363  22.202  43.873   9.464
  387POPC   PO4 8364  22.175  43.885   9.164
  387POPC   GL1 8365  22.198  43.900   8.864
  387POPC   GL2 8366  22.098  44.053   8.864
  387POPC   C1A 8367  22.210  43.930   8.564
  387POPC   D2A 8368  22.179  43.866   8.264
  387POPC   C3A 8369  22.183  43.919   7.964
  387POPC   C4A 8370  22.193  43.918   7.664
  387POPC   C1B 8371  22.136  44.132   8.564
  387POPC   C2B 8372  22.121  44.166   8.264
  387POPC   C3B 8373  22.103  44.085   7.964
  387POPC   C4B 8374  22.175  44.162   7.664
  388POPC   NC3 8375  38.412  18.263   9.464
  388POPC   PO4 8376  38.494  18.255   9.164
  388POPC   GL1 8377  38.456  18.237   8.864
  388POPC   GL2 8378  38.497  18.181   8.864
  388POPC   C1A 8379  38.478  18.312   8.564
  388POPC   D2A 8380  38.442  18.319   8.264
  388POPC   C3A 8381  38.468  18.331   7.964
  388POPC   C4A 8382  38.473  18.313   7.664
  388POPC   C1B 8383  38.658  18.087   8.564
  388POPC   C2B 8384  38.657  18.138   8.264
  388POPC   C3B 8385  38.610  18.124   7.964
  388POPC   C4B 8386  38.646  18.067   7.664
  389POPC   NC3 8387  37.722  33.843   9.464
  389POPC   PO4 8388  37.727  33.797   9.164
  389POPC   GL1 8389  37.640  33.777   8.864
  389POPC   GL2 8390  37.721  33.875   8.864
  389POPC   C1A 8391  37.664  33.806   8.564
  389POPC   D2A 8392  37.649  33.776   8.264
  389POPC   C3A 8393  37.658  33.815   7.964
  389POPC   C4A 8394  37.644  33.810   7.664
  389POPC   C1B 8395  37.742  34.051   8.564
  389POPC   C2B 8396  37.723  34.073   8.264
  389POPC   C3B 8397  37.805  34.026   7.964
  389POPC   C4B 8398  37.780  34.035   7.664
  390POPC   NC3 8399  29.935  29.175   9.464
  390POPC   PO4 8400  29.910  29.111   9.164
  390POPC   GL1 8401  29.936  29.184   8.864
  390POPC   GL2 8402  29.790  29.248   8.864
  390POPC   C1A 8403  29.918  29.122   8.564
  390POPC   D2A 8404  29.893  29.128   8.264
  390POPC   C3A 8405  29.967  29.126   7.964
  390POPC   C4A 8406  29.934  29.194   7.664
  390POPC   C1B 8407  29.675  29.323   8.564
  390POPC   C2B 8408  29.721  29.314   8.264
  390POPC   C3B 8409  29.678  29.294   7.964
  390POPC   C4B 8410  29.678  29.300   7.664
  391POPC   NC3 8411  27.589  38.438   9.464
  391POPC   PO4 8412  27.575  38.413   9.164
  391POPC   GL1 8413  27.574  38.464   8.864
  391POPC   GL2 8414  27.563  38.576   8.864
  391POPC   C1A 8415  27.603  38.412   8.564
  391POPC   D2A 8416  27.596  38.453   8.264
  391POPC   C3A 8417  27.602  38.425   7.964
  391POPC   C4A 8418  27.628  38.499   7.664
  391POPC   C1B 8419  27.503  38.702   8.564
  391POPC   C2B 8420  27.484  38.648   8.264
  391POPC   C3B 8421  27.509  38.695   7.964
  391POPC   C4B 8422  27.532  38.660   7.664
  392POPC   NC3 8423   1.958  41.606   9.464
  392POPC   PO4 8424   1.999  41.525   9.164
  392POPC   GL1 8425   2.020  41.576   8.864
  392POPC   GL2 8426   2.084  41.614   8.864
  392POPC   C1A 8427   1.983  41.569   8.564
  392POPC   D2A 8428   1.994  41.543   8.264
  392POPC   C3A 8429   2.024  41.563   7.964
  392POPC   C4A 8430   1.957  41.526   7.664
  392POPC   C1B 8431   2.180  41.714   8.564
  392POPC   C2B 8432   2.122  41.711   8.264
  392POPC   C3B 8433   2.174  41.765   7.964
  392POPC   C4B 8434   2.176  41.762   7.664
  393POPC   NC3 8435  42.354  43.923   9.464
  393POPC   PO4 8436  42.302  43.874   9.164
  393POPC   GL1 8437  42.360  43.871   8.864
  393POPC   GL2 8438  42.284  43.767   8.864
  393POPC   C1A 8439  42.362  43.881   8.564
  393POPC   D2A 8440  42.352  43.934   8.264
  393POPC   C3A 8441  42.334  43.848   7.964
  393POPC   C4A 8442  42.321  43.869   7.664
  393POPC   C1B 8443  42.246  43.664   8.564
  393POPC   C2B 8444  42.240  43.626   8.264
  393POPC   C3B 8445  42.220  43.611   7.964
  393POPC   C4B 8446  42.250  43.664   7.664
  394POPC   NC3 8447  44.694  28.416   9.464
  394POPC   PO4 8448  44.684  28.319   9.164
  394POPC   GL1 8449  44.623  28.369   8.864
  394POPC   GL2 8450  44.599  28.463   8.864
  394POPC   C1A 8451  44.667  28.359   8.564
  394POPC   D2A 8452  44.705  28.388   8.264
  394POPC   C3A 8453  44.617  28.366   7.964
  394POPC   C4A 8454  44.660  28.354   7.664
  394POPC   C1B 8455  44.645  28.573   8.564
  394POPC   C2B 8456  44.614  28.623   8.264
  394POPC   C3B 8457  44.587  28.587   7.964
  394POPC   C4B 8458  44.662  28.624   7.664
  395POPC   NC3 8459  30.701   1.260   9.464
  395POPC   PO4 8460  30.682   1.179   9.164
  395POPC   GL1 8461  30.746   1.177   8.864
  395POPC   GL2 8462  30.612   1.363   8.864
  395POPC   C1A 8463  30.684   1.195   8.564
  395POPC   D2A 8464  30.697   1.218   8.264
  395POPC   C3A 8465  30.665   1.200   7.964
  395POPC   C4A 8466  30.706   1.194   7.664
  395POPC   C1B 8467  30.574   1.440   8.564
  395POPC   C2B 8468  30.573   1.481   8.264
  395POPC   C3B 8469  30.595   1.422   7.964
  395POPC   C4B 8470  30.611   1.470   7.664
  396POPC   NC3 8471  23.748  14.450   9.464
  396POPC   PO4 8472  23.681  14.427   9.164
  396POPC   GL1 8473  23.713  14.418   8.864
  396POPC   GL2 8474  23.795  14.496   8.864
  396POPC   C1A 8475  23.697  14.395   8.564
  396POPC   D2A 8476  23.687  14.374   8.264
  396POPC   C3A 8477  23.694  14.365   7.964
  396POPC   C4A 8478  23.714  14.411   7.664
  396POPC   C1B 8479  23.978  14.563   8.564
  396POPC   C2B 8480  23.948  14.535   8.264
  396POPC   C3B 8481  23.969  14.545   7.964
  396POPC   C4B 8482  23.936  14.493   7.664
  397POPC   NC3 8483  34.560  29.114   9.464
  397POPC   PO4 8484  34.567  29.150   9.164
  397POPC   GL1 8485  34.541  29.106   8.864
  397POPC   GL2 8486  34.691  29.217   8.864
  397POPC   C1A 8487  34.615  29.188   8.564
  397POPC   D2A 8488  34.616  29.170   8.264
  397POPC   C3A 8489  34.594  29.161   7.964
  397POPC   C4A 8490  34.595  29.101   7.664
  397POPC   C1B 8491  34.783  29.316   8.564
  397POPC   C2B 8492  34.740  29.290   8.264
  397POPC   C3B 8493  34.745  29.289   7.964
  397POPC   C4B 8494  34.719  29.346   7.664
  398POPC   NC3 8495  33.844  21.401   9.464
  398POPC   PO4 8496  33.811  21.388   9.164
  398POPC   GL1 8497  33.804  21.392   8.864
  398POPC   GL2 8498  33.682  21.501   8.864
  398POPC   C1A 8499  33.811  21.407   8.564
  398POPC   D2A 8500  33.846  21.350   8.264
  398POPC   C3A 8501  33.831  21.338   7.964
  398POPC   C4A 8502  33.807  21.431   7.664
  398POPC   C1B 8503  33.602  21.567   8.564
  398POPC   C2B 8504  33.598  21.520   8.264
  398POPC   C3B 8505  33.576  21.560   7.964
  398POPC   C4B 8506  33.548  21.565   7.664
  399POPC   NC3 8507   3.566   2.018   9.464
  399POPC   PO4 8508   3.530   1.959   9.164
  399POPC   GL1 8509   3.523   1.980   8.864
  399POPC   GL2 8510   3.414   2.089   8.864
  399POPC   C1A 8511   3.574   2.015   8.564
  399POPC   D2A 8512   3.546   1.990   8.264
  399POPC   C3A 8513   3.528   1.942   7.964
  399POPC   C4A 8514   3.569   1.940   7.664
  399POPC   C1B 8515   3.335   2.209   8.564
  399POPC   C2B 8516   3.418   2.145   8.264
  399POPC   C3B 8517   3.395   2.169   7.964
  399POPC   C4B 8518   3.411   2.183   7.664
  400POPC   NC3 8519  38.488  36.117   9.464
  400POPC   PO4 8520  38.407  36.093   9.164
  400POPC   GL1 8521  38.499  36.122   8.864
  400POPC   GL2 8522  38.553  36.183   8.864
  400POPC   C1A 8523  38.453  36.162   8.564
  400POPC   D2A 8524  38.484  36.169   8.264
  400POPC   C3A 8525  38.482  36.086   7.964
  400POPC   C4A 8526  38.496  36.123   7.664
  400POPC   C1B 8527  38.689  36.238   8.564
  400POPC   C2B 8528  38.681  36.247   8.264
  400POPC   C3B 8529  38.640  36.264   7.964
  400POPC   C4B 8530  38.682  36.255   7.664
  401POPC   NC3 8531  26.050  43.901   9.464
  401POPC   PO4 8532  26.046  43.854   9.164
  401POPC   GL1 8533  26.040  43.904   8.864
  401POPC   GL2 8534  25.917  43.791   8.864
  401POPC   C1A 8535  26.070  43.913   8.564
  401POPC   D2A 8536  26.016  43.931   8.264
  401POPC   C3A 8537  26.038  43.934   7.964
  401POPC   C4A 8538  26.037  43.890   7.664
  401POPC   C1B 8539  25.838  43.716   8.564
  401POPC   C2B 8540  25.823  43.750   8.264
  401POPC   C3B 8541  25.902  43.715   7.964
  401POPC   C4B 8542  25.920  43.731   7.664
  402POPC   NC3 8543  15.964  26.785   9.464
  402POPC   PO4 8544  15.934  26.865   9.164
  402POPC   GL1 8545  16.002  26.798   8.864
  402POPC   GL2 8546  15.954  26.722   8.864
  402POPC   C1A 8547  15.947  26.773   8.564
  402POPC   D2A 8548  16.002  26.838   8.264
  402POPC   C3A 8549  15.984  26.824   7.964
  402POPC   C4A 8550  15.921  26.807   7.664
  402POPC   C1B 8551  15.883  26.534   8.564
  402POPC   C2B 8552  15.896  26.554   8.264
  402POPC   C3B 8553  15.912  26.530   7.964
  402POPC   C4B 8554  15.949  26.583   7.664
  403POPC   NC3 8555  18.269  21.425   9.464
  403POPC   PO4 8556  18.269  21.380   9.164
  403POPC   GL1 8557  18.271  21.391   8.864
  403POPC   GL2 8558  18.171  21.479   8.864
  403POPC   C1A 8559  18.282  21.428   8.564
  403POPC   D2A 8560  18.278  21.370   8.264
  403POPC   C3A 8561  18.280  21.400   7.964
  403POPC   C4A 8562  18.249  21.350   7.664
  403POPC   C1B 8563  18.062  21.540   8.564
  403POPC   C2B 8564  18.126  21.580   8.264
  403POPC   C3B 8565  18.053  21.563   7.964
  403POPC   C4B 8566  18.116  21.525   7.664
  404POPC   NC3 8567   7.448  26.000   9.464
  404POPC   PO4 8568   7.413  26.015   9.164
  404POPC   GL1 8569   7.372  25.994   8.864
  404POPC   GL2 8570   7.516  26.056   8.864
  404POPC   C1A 8571   7.444  26.022   8.564
  404POPC   D2A 8572   7.407  26.076   8.264
  404POPC   C3A 8573   7.425  26.068   7.964
  404POPC   C4A 8574   7.448  26.022   7.664
  404POPC   C1B 8575   7.641  26.002   8.564
  404POPC   C2B 8576   7.640  26.045   8.264
  404POPC   C3B 8577   7.683  26.021   7.964
  404POPC   C4B 8578   7.702  26.008   7.664
  405POPC   NC3 8579   8.931  18.247   9.464
  405POPC   PO4 8580   8.974  18.291   9.164
  405POPC   GL1 8581   8.980  18.261   8.864
  405POPC   GL2 8582   8.934  18.341   8.864
  405POPC   C1A 8583   9.015  18.322   8.564
  405POPC   D2A 8584   9.016  18.255   8.264
  405POPC   C3A 8585   9.021  18.289   7.964
  405POPC   C4A 8586   9.016  18.284   7.664
  405POPC   C1B 8587   8.801  18.481   8.564
  405POPC   C2B 8588   8.806  18.471   8.264
  405POPC   C3B 8589   8.862  18.514   7.964
  405POPC   C4B 8590   8.813  18.449   7.664
  406POPC   NC3 8591  13.599  33.020   9.464
  406POPC   PO4 8592  13.600  32.992   9.164
  406POPC   GL1 8593  13.586  33.010   8.864
  406POPC   GL2 8594  13.659  32.936   8.864
  406POPC   C1A 8595  13.652  32.975   8.564
  406POPC   D2A 8596  13.675  33.031   8.264
  406POPC   C3A 8597  13.646  32.998   7.964
  406POPC   C4A 8598  13.601  32.998   7.664
  406POPC   C1B 8599  13.616  32.813   8.564
  406POPC   C2B 8600  13.642  32.801   8.264
  406POPC   C3B 8601  13.644  32.815   7.964
  406POPC   C4B 8602  13.651  32.792   7.664
  407POPC   NC3 8603  33.018  38.429   9.464
  407POPC   PO4 8604  33.068  38.453   9.164
  407POPC   GL1 8605  32.976  38.446   8.864
  407POPC   GL2 8606  33.143  38.525   8.864
  407POPC   C1A 8607  33.028  38.481   8.564
  407POPC   D2A 8608  33.073  38.468   8.264
  407POPC   C3A 8609  33.000  38.469   7.964
  407POPC   C4A 8610  32.992  38.447   7.664
  407POPC   C1B 8611  33.207  38.521   8.564
  407POPC   C2B 8612  33.258  38.574   8.264
  407POPC   C3B 8613  33.222  38.596   7.964
  407POPC   C4B 8614  33.264  38.535   7.664
  408POPC   NC3 8615  12.084  12.122   9.464
  408POPC   PO4 8616  12.084  12.041   9.164
  408POPC   GL1 8617  12.036  12.081   8.864
  408POPC   GL2 8618  12.245  12.036   8.864
  408POPC   C1A 8619  12.090  12.051   8.564
  408POPC   D2A 8620  12.043  12.063   8.264
  408POPC   C3A 8621  12.104  12.114   7.964
  408POPC   C4A 8622  12.120  12.068   7.664
  408POPC   C1B 8623  12.277  12.070   8.564
  408POPC   C2B 8624  12.341  12.053   8.264
  408POPC   C3B 8625  12.290  12.070   7.964
  408POPC   C4B 8626  12.330  12.027   7.664
  409POPC   NC3 8627   5.886  15.977   9.464
  409POPC   PO4 8628   5.860  15.999   9.164
  409POPC   GL1 8629   5.905  15.940   8.864
  409POPC   GL2 8630   6.005  15.907   8.864
  409POPC   C1A 8631   5.861  15.999   8.564
  409POPC   D2A 8632   5.839  15.964   8.264
  409POPC   C3A 8633   5.856  15.951   7.964
  409POPC   C4A 8634   5.896  15.975   7.664
  409POPC   C1B 8635   6.111  15.896   8.564
  409POPC   C2B 8636   6.105  15.910   8.264
  409POPC   C3B 8637   6.141  15.901   7.964
  409POPC   C4B 8638   6.064  15.904   7.664
  410POPC   NC3 8639  41.519   3.571   9.464
  410POPC   PO4 8640  41.605   3.504   9.164
  410POPC   GL1 8641  41.571   3.576   8.864
  410POPC   GL2 8642  41.581   3.376   8.864
  410POPC   C1A 8643  41.516   3.584   8.564
  410POPC   D2A 8644  41.602   3.554   8.264
  410POPC   C3A 8645  41.583   3.539   7.964
  410POPC   C4A 8646  41.563   3.579   7.664
  410POPC   C1B 8647  41.503   3.280   8.564
  410POPC   C2B 8648  41.485   3.285   8.264
  410POPC   C3B 8649  41.536   3.275   7.964
  410POPC   C4B 8650  41.508   3.322   7.664
  411POPC   NC3 8651  21.430  37.638   9.464
  411POPC   PO4 8652  21.395  37.636   9.164
  411POPC   GL1 8653  21.409  37.647   8.864
  411POPC   GL2 8654  21.525  37.754   8.864
  411POPC   C1A 8655  21.394  37.711   8.564
  411POPC   D2A 8656  21.385  37.665   8.264
  411POPC   C3A 8657  21.423  37.634   7.964
  411POPC   C4A 8658  21.382  37.679   7.664
  411POPC   C1B 8659  21.612  37.794   8.564
  411POPC   C2B 8660  21.574  37.799   8.264
  411POPC   C3B 8661  21.629  37.838   7.964
  411POPC   C4B 8662  21.554  37.776   7.664
  412POPC   NC3 8663  13.607  36.944   9.464
  412POPC   PO4 8664  13.646  36.917   9.164
  412POPC   GL1 8665  13.589  36.947   8.864
  412POPC   GL2 8666  13.706  37.036   8.864
  412POPC   C1A 8667  13.638  36.860   8.564
  412POPC   D2A 8668  13.672  36.873   8.264
  412POPC   C3A 8669  13.580  36.932   7.964
  412POPC   C4A 8670  13.594  36.889   7.664
  412POPC   C1B 8671  13.752  37.156   8.564
  412POPC   C2B 8672  13.723  37.171   8.264
  412POPC   C3B 8673  13.737  37.155   7.964
  412POPC   C4B 8674  13.753  37.180   7.664
  413POPC   NC3 8675  31.444  43.929   9.464
  413POPC   PO4 8676  31.484  43.919   9.164
  413POPC   GL1 8677  31.461  43.854   8.864
  413POPC   GL2 8678  31.393  43.739   8.864
  413POPC   C1A 8679  31.511  43.903   8.564
  413POPC   D2A 8680  31.437  43.886   8.264
  413POPC   C3A 8681  31.493  43.933   7.964
  413POPC   C4A 8682  31.470  43.863   7.664
  413POPC   C1B 8683  31.312  43.662   8.564
  413POPC   C2B 8684  31.376  43.668   8.264
  413POPC   C3B 8685  31.296  43.706   7.964
  413POPC   C4B 8686  31.376  43.721   7.664
  414POPC   NC3 8687  12.875  35.336   9.464
  414POPC   PO4 8688  12.894  35.357   9.164
  414POPC   GL1 8689  12.852  35.379   8.864
  414POPC   GL2 8690  12.930  35.272   8.864
  414POPC   C1A 8691  12.883  35.320   8.564
  414POPC   D2A 8692  12.834  35.360   8.264
  414POPC   C3A 8693  12.852  35.338   7.964
  414POPC   C4A 8694  12.878  35.394   7.664
  414POPC   C1B 8695  12.878  35.146   8.564
  414POPC   C2B 8696  12.941  35.067   8.264
  414POPC   C3B 8697  12.950  35.065   7.964
  414POPC   C4B 8698  12.900  35.080   7.664
  415POPC   NC3 8699  17.460  36.909   9.464
  415POPC   PO4 8700  17.521  36.863   9.164
  415POPC   GL1 8701  17.543  36.892   8.864
  415POPC   GL2 8702  17.432  36.779   8.864
  415POPC   C1A 8703  17.524  36.856   8.564
  415POPC   D2A 8704  17.489  36.888   8.264
  415POPC   C3A 8705  17.475  36.940   7.964
  415POPC   C4A 8706  17.468  36.925   7.664
  415POPC   C1B 8707  17.369  36.656   8.564
  415POPC   C2B 8708  17.393  36.712   8.264
  415POPC   C3B 8709  17.341  36.696   7.964
  415POPC   C4B 8710  17.344  36.700   7.664
  416POPC   NC3 8711  16.735  34.583   9.464
  416POPC   PO4 8712  16.739  34.579   9.164
  416POPC   GL1 8713  16.732  34.550   8.864
  416POPC   GL2 8714  16.728  34.454   8.864
  416POPC   C1A 8715  16.781  34.543   8.564
  416POPC   D2A 8716  16.729  34.554   8.264
  416POPC   C3A 8717  16.755  34.601   7.964
  416POPC   C4A 8718  16.770  34.541   7.664
  416POPC   C1B 8719  16.678  34.321   8.564
  416POPC   C2B 8720  16.602  34.314   8.264
  416POPC   C3B 8721  16.625  34.367   7.964
  416POPC   C4B 8722  16.658  34.335   7.664
  417POPC   NC3 8723  30.679  32.256   9.464
  417POPC   PO4 8724  30.678  32.263   9.164
  417POPC   GL1 8725  30.698  32.269   8.864
  417POPC   GL2 8726  30.753  32.109   8.864
  417POPC   C1A 8727  30.735  32.207   8.564
  417POPC   D2A 8728  30.679  32.254   8.264
  417POPC   C3A 8729  30.661  32.215   7.964
  417POPC   C4A 8730  30.667  32.213   7.664
  417POPC   C1B 8731  30.869  32.090   8.564
  417POPC   C2B 8732  30.901  32.027   8.264
  417POPC   C3B 8733  30.846  32.078   7.964
  417POPC   C4B 8734  30.873  32.106   7.664
  418POPC   NC3 8735  40.789  22.171   9.464
  418POPC   PO4 8736  40.810  22.140   9.164
  418POPC   GL1 8737  40.734  22.115   8.864
  418POPC   GL2 8738  40.926  22.197   8.864
  418POPC   C1A 8739  40.779  22.147   8.564
  418POPC   D2A 8740  40.807  22.196   8.264
  418POPC   C3A 8741  40.820  22.203   7.964
  418POPC   C4A 8742  40.745  22.133   7.664
  418POPC   C1B 8743  41.062  22.214   8.564
  418POPC   C2B 8744  41.000  22.153   8.264
  418POPC   C3B 8745  41.014  22.215   7.964
  418POPC   C4B 8746  41.031  22.220   7.664
  419POPC   NC3 8747  40.046  26.807   9.464
  419POPC   PO4 8748  39.991  26.824   9.164
  419POPC   GL1 8749  39.972  26.837   8.864
  419POPC   GL2 8750  40.070  26.750   8.864
  419POPC   C1A 8751  40.035  26.806   8.564
  419POPC   D2A 8752  40.007  26.795   8.264
  419POPC   C3A 8753  39.997  26.788   7.964
  419POPC   C4A 8754  39.974  26.815   7.664
  419POPC   C1B 8755  40.160  26.657   8.564
  419POPC   C2B 8756  40.152  26.615   8.264
  419POPC   C3B 8757  40.139  26.598   7.964
  419POPC   C4B 8758  40.136  26.577   7.664
  420POPC   NC3 8759   2.722  14.408   9.464
  420POPC   PO4 8760   2.716  14.365   9.164
  420POPC   GL1 8761   2.717  14.448   8.864
  420POPC   GL2 8762   2.742  14.266   8.864
  420POPC   C1A 8763   2.797  14.370   8.564
  420POPC   D2A 8764   2.796  14.369   8.264
  420POPC   C3A 8765   2.811  14.387   7.964
  420POPC   C4A 8766   2.735  14.419   7.664
  420POPC   C1B 8767   2.698  14.155   8.564
  420POPC   C2B 8768   2.756  14.198   8.264
  420POPC   C3B 8769   2.673  14.168   7.964
  420POPC   C4B 8770   2.756  14.123   7.664
  421POPC   NC3 8771  36.177  20.652   9.464
  421POPC   PO4 8772  36.085  20.650   9.164
  421POPC   GL1 8773  36.094  20.590   8.864
  421POPC   GL2 8774  36.225  20.675   8.864
  421POPC   C1A 8775  36.159  20.627   8.564
  421POPC   D2A 8776  36.089  20.602   8.264
  421POPC   C3A 8777  36.128  20.632   7.964
  421POPC   C4A 8778  36.115  20.629   7.664
  421POPC   C1B 8779  36.294  20.825   8.564
  421POPC   C2B 8780  36.271  20.789   8.264
  421POPC   C3B 8781  36.341  20.795   7.964
  421POPC   C4B 8782  36.273  20.793   7.664
  422POPC   NC3 8783  20.651  33.791   9.464
  422POPC   PO4 8784  20.625  33.828   9.164
  422POPC   GL1 8785  20.590  33.793   8.864
  422POPC   GL2 8786  20.608  33.718   8.864
  422POPC   C1A 8787  20.656  33.758   8.564
  422POPC   D2A 8788  20.580  33.783   8.264
  422POPC   C3A 8789  20.620  33.820   7.964
  422POPC   C4A 8790  20.602  33.763   7.664
  422POPC   C1B 8791  20.508  33.560   8.564
  422POPC   C2B 8792  20.593  33.589   8.264
  422POPC   C3B 8793  20.561  33.561   7.964
  422POPC   C4B 8794  20.580  33.601   7.664
  423POPC   NC3 8795   3.572  29.102   9.464
  423POPC   PO4 8796   3.525  29.118   9.164
  423POPC   GL1 8797   3.500  29.116   8.864
  423POPC   GL2 8798   3.582  29.245   8.864
  423POPC   C1A 8799   3.531  29.152   8.564
  423POPC   D2A 8800   3.511  29.133   8.264
  423POPC   C3A 8801   3.536  29.154   7.964
  423POPC   C4A 8802   3.571  29.178   7.664
  423POPC   C1B 8803   3.542  29.435   8.564
  423POPC   C2B 8804   3.529  29.438   8.264
  423POPC   C3B 8805   3.553  29.392   7.964
  423POPC   C4B 8806   3.538  29.402   7.664
  424POPC   NC3 8807   4.269   9.749   9.464
  424POPC   PO4 8808   4.274   9.773   9.164
  424POPC   GL1 8809   4.355   9.719   8.864
  424POPC   GL2 8810   4.349   9.638   8.864
  424POPC   C1A 8811   4.316   9.777   8.564
  424POPC   D2A 8812   4.302   9.757   8.264
  424POPC   C3A 8813   4.287   9.727   7.964
  424POPC   C4A 8814   4.349   9.765   7.664
  424POPC   C1B 8815   4.464   9.516   8.564
  424POPC   C2B 8816   4.495   9.498   8.264
  424POPC   C3B 8817   4.429   9.494   7.964
  424POPC   C4B 8818   4.429   9.490   7.664
  425POPC   NC3 8819   2.728  11.273   9.464
  425POPC   PO4 8820   2.737  11.324   9.164
  425POPC   GL1 8821   2.748  11.295   8.864
  425POPC   GL2 8822   2.783  11.419   8.864
  425POPC   C1A 8823   2.764  11.260   8.564
  425POPC   D2A 8824   2.788  11.274   8.264
  425POPC   C3A 8825   2.803  11.256   7.964
  425POPC   C4A 8826   2.805  11.331   7.664
  425POPC   C1B 8827   2.814  11.588   8.564
  425POPC   C2B 8828   2.796  11.586   8.264
  425POPC   C3B 8829   2.888  11.575   7.964
  425POPC   C4B 8830   2.852  11.582   7.664
  426POPC   NC3 8831  41.601   8.931   9.464
  426POPC   PO4 8832  41.543   8.972   9.164
  426POPC   GL1 8833  41.607   8.967   8.864
  426POPC   GL2 8834  41.547   9.069   8.864
  426POPC   C1A 8835  41.586   8.990   8.564
  426POPC   D2A 8836  41.527   8.988   8.264
  426POPC   C3A 8837  41.585   8.980   7.964
  426POPC   C4A 8838  41.510   8.978   7.664
  426POPC   C1B 8839  41.509   9.240   8.564
  426POPC   C2B 8840  41.516   9.216   8.264
  426POPC   C3B 8841  41.591   9.203   7.964
  426POPC   C4B 8842  41.560   9.226   7.664
  427POPC   NC3 8843  32.231  43.902   9.464
  427POPC   PO4 8844  32.214  43.858   9.164
  427POPC   GL1 8845  32.204  43.906   8.864
  427POPC   GL2 8846  32.131  43.874   8.864
  427POPC   C1A 8847  32.239  43.885   8.564
  427POPC   D2A 8848  32.201  43.858   8.264
  427POPC   C3A 8849  32.215  43.882   7.964
  427POPC   C4A 8850  32.209  43.897   7.664
  427POPC   C1B 8851  32.065  43.756   8.564
  427POPC   C2B 8852  31.979  43.811   8.264
  427POPC   C3B 8853  32.015  43.772   7.964
  427POPC   C4B 8854  32.028  43.808   7.664
  428POPC   NC3 8855  32.290  22.923   9.464
  428POPC   PO4 8856  32.252  22.954   9.164
  428POPC   GL1 8857  32.268  22.922   8.864
  428POPC   GL2 8858  32.116  23.047   8.864
  428POPC   C1A 8859  32.235  22.902   8.564
  428POPC   D2A 8860  32.244  22.905   8.264
  428POPC   C3A 8861  32.200  22.921   7.964
  428POPC   C4A 8862  32.280  22.955   7.664
  428POPC   C1B 8863  32.032  23.035   8.564
  428POPC   C2B 8864  32.034  23.096   8.264
  428POPC   C3B 8865  32.051  23.071   7.964
  428POPC   C4B 8866  32.074  23.079   7.664
  429POPC   NC3 8867  43.157  12.071   9.464
  429POPC   PO4 8868  43.109  12.104   9.164
  429POPC   GL1 8869  43.126  12.031   8.864
  429POPC   GL2 8870  43.043  12.083   8.864
  429POPC   C1A 8871  43.097  12.027   8.564
  429POPC   D2A 8872  43.109  12.118   8.264
  429POPC   C3A 8873  43.084  12.095   7.964
  429POPC   C4A 8874  43.132  12.062   7.664
  429POPC   C1B 8875  42.900  12.141   8.564
  429POPC   C2B 8876  42.844  12.133   8.264
  429POPC   C3B 8877  42.880  12.190   7.964
  429POPC   C4B 8878  42.906  12.136   7.664
  430POPC   NC3 8879  21.336  43.870   9.464
  430POPC   PO4 8880  21.408  43.920   9.164
  430POPC   GL1 8881  21.395  43.866   8.864
  430POPC   GL2 8882  21.283  43.897   8.864
  430POPC   C1A 8883  21.428  43.869   8.564
  430POPC   D2A 8884  21.404  43.918   8.264
  430POPC   C3A 8885  21.418  43.855   7.964
  430POPC   C4A 8886  21.383  43.934   7.664
  430POPC   C1B 8887  21.162  43.867   8.564
  430POPC   C2B 8888  21.165  43.864   8.264
  430POPC   C3B 8889  21.189  43.827   7.964
  430POPC   C4B 8890  21.177  43.841   7.664
  431POPC   NC3 8891  36.862  36.093   9.464
  431POPC   PO4 8892  36.917  36.123   9.164
  431POPC   GL1 8893  36.953  36.152   8.864
  431POPC   GL2 8894  36.779  36.252   8.864
  431POPC   C1A 8895  36.926  36.081   8.564
  431POPC   D2A 8896  36.949  36.153   8.264
  431POPC   C3A 8897  36.908  36.133   7.964
  431POPC   C4A 8898  36.893  36.107   7.664
  431POPC   C1B 8899  36.772  36.272   8.564
  431POPC   C2B 8900  36.684  36.342   8.264
  431POPC   C3B 8901  36.696  36.277   7.964
  431POPC   C4B 8902  36.684  36.345   7.664
  432POPC   NC3 8903  44.683  15.139   9.464
  432POPC   PO4 8904  44.709  15.166   9.164
  432POPC   GL1 8905  44.648  15.184   8.864
  432POPC   GL2 8906  44.539  15.118   8.864
  432POPC   C1A 8907  44.630  15.209   8.564
  432POPC   D2A 8908  44.621  15.203   8.264
  432POPC   C3A 8909  44.699  15.224   7.964
  432POPC   C4A 8910  44.699  15.205   7.664
  432POPC   C1B 8911  44.438  15.081   8.564
  432POPC   C2B 8912  44.444  15.076   8.264
  432POPC   C3B 8913  44.469  15.080   7.964
  432POPC   C4B 8914  44.486  15.102   7.664
  433POPC   NC3 8915  24.538  36.106   9.464
  433POPC   PO4 8916  24.500  36.119   9.164
  433POPC   GL1 8917  24.524  36.107   8.864
  433POPC   GL2 8918  24.512  36.020   8.864
  433POPC   C1A 8919  24.496  36.176   8.564
  433POPC   D2A 8920  24.463  36.127   8.264
  433POPC   C3A 8921  24.489  36.161   7.964
  433POPC   C4A 8922  24.505  36.090   7.664
  433POPC   C1B 8923  24.564  35.859   8.564
  433POPC   C2B 8924  24.515  35.862   8.264
  433POPC   C3B 8925  24.510  35.896   7.964
  433POPC   C4B 8926  24.581  35.931   7.664
  434POPC   NC3 8927  40.738   1.191   9.464
  434POPC   PO4 8928  40.748   1.207   9.164
  434POPC   GL1 8929  40.749   1.231   8.864
  434POPC   GL2 8930  40.897   1.256   8.864
  434POPC   C1A 8931  40.795   1.173   8.564
  434POPC   D2A 8932  40.815   1.232   8.264
  434POPC   C3A 8933  40.796   1.171   7.964
  434POPC   C4A 8934  40.746   1.192   7.664
  434POPC   C1B 8935  40.966   1.330   8.564
  434POPC   C2B 8936  41.044   1.386   8.264
  434POPC   C3B 8937  40.953   1.333   7.964
  434POPC   C4B 8938  40.978   1.343   7.664
  435POPC   NC3 8939  25.277  44.680   9.464
  435POPC   PO4 8940  25.231  44.666   9.164
  435POPC   GL1 8941  25.284  44.656   8.864
  435POPC   GL2 8942  25.404  44.625   8.864
  435POPC   C1A 8943  25.240  44.615   8.564
  435POPC   D2A 8944  25.290  44.645   8.264
  435POPC   C3A 8945  25.257  44.681   7.964
  435POPC   C4A 8946  25.231  44.615   7.664
  435POPC   C1B 8947  25.498  44.702   8.564
  435POPC   C2B 8948  25.516  44.672   8.264
  435POPC   C3B 8949  25.491  44.660   7.964
  435POPC   C4B 8950  25.522  44.686   7.664
  436POPC   NC3 8951  24.493  33.838   9.464
  436POPC   PO4 8952  24.459  33.830   9.164
  436POPC   GL1 8953  24.465  33.760   8.864
  436POPC   GL2 8954  24.368  33.716   8.864
  436POPC   C1A 8955  24.451  33.762   8.564
  436POPC   D2A 8956  24.457  33.784   8.264
  436POPC   C3A 8957  24.525  33.796   7.964
  436POPC   C4A 8958  24.518  33.758   7.664
  436POPC   C1B 8959  24.272  33.696   8.564
  436POPC   C2B 8960  24.307  33.616   8.264
  436POPC   C3B 8961  24.325  33.610   7.964
  436POPC   C4B 8962  24.263  33.657   7.664
  437POPC   NC3 8963  12.859  43.853   9.464
  437POPC   PO4 8964  12.826  43.881   9.164
  437POPC   GL1 8965  12.829  43.908   8.864
  437POPC   GL2 8966  13.009  43.893   8.864
  437POPC   C1A 8967  12.881  43.917   8.564
  437POPC   D2A 8968  12.900  43.877   8.264
  437POPC   C3A 8969  12.818  43.881   7.964
  437POPC   C4A 8970  12.886  43.837   7.664
  437POPC   C1B 8971  13.145  43.886   8.564
  437POPC   C2B 8972  13.120  43.887   8.264
  437POPC   C3B 8973  13.066  43.935   7.964
  437POPC   C4B 8974  13.075  43.914   7.664
  438POPC   NC3 8975  11.294   2.787   9.464
  438POPC   PO4 8976  11.288   2.748   9.164
  438POPC   GL1 8977  11.283   2.800   8.864
  438POPC   GL2 8978  11.406   2.742   8.864
  438POPC   C1A 8979  11.304   2.783   8.564
  438POPC   D2A 8980  11.262   2.786   8.264
  438POPC   C3A 8981  11.288   2.768   7.964
  438POPC   C4A 8982  11.281   2.767   7.664
  438POPC   C1B 8983  11.565   2.722   8.564
  438POPC   C2B 8984  11.520   2.718   8.264
  438POPC   C3B 8985  11.518   2.697   7.964
  438POPC   C4B 8986  11.556   2.771   7.664
  439POPC   NC3 8987  43.894  17.516   9.464
  439POPC   PO4 8988  43.888  17.469   9.164
  439POPC   GL1 8989  43.895  17.496   8.864
  439POPC   GL2 8990  43.980  17.388   8.864
  439POPC   C1A 8991  43.851  17.490   8.564
  439POPC   D2A 8992  43.933  17.516   8.264
  439POPC   C3A 8993  43.858  17.546   7.964
  439POPC   C4A 8994  43.859  17.498   7.664
  439POPC   C1B 8995  44.056  17.302   8.564
  439POPC   C2B 8996  44.045  17.346   8.264
  439POPC   C3B 8997  44.076  17.380   7.964
  439POPC   C4B 8998  44.071  17.400   7.664
  440POPC   NC3 8999  35.380  17.543   9.464
  440POPC   PO4 9000  35.382  17.552   9.164
  440POPC   GL1 9001  35.388  17.471   8.864
  440POPC   GL2 9002  35.302  17.655   8.864
  440POPC   C1A 9003  35.376  17.506   8.564
  440POPC   D2A 9004  35.394  17.494   8.264
  440POPC   C3A 9005  35.358  17.542   7.964
  440POPC   C4A 9006  35.309  17.474   7.664
  440POPC   C1B 9007  35.251  17.761   8.564
  440POPC   C2B 9008  35.253  17.763   8.264
  440POPC   C3B 9009  35.281  17.725   7.964
  440POPC   C4B 9010  35.223  17.701   7.664
  441POPC   NC3 9011   7.450   8.948   9.464
  441POPC   PO4 9012   7.419   8.928   9.164
  441POPC   GL1 9013   7.454   8.959   8.864
  441POPC   GL2 9014   7.353   9.120   8.864
  441POPC   C1A 9015   7.374   9.001   8.564
  441POPC   D2A 9016   7.459   8.970   8.264
  441POPC   C3A 9017   7.376   8.924   7.964
  441POPC   C4A 9018   7.458   9.000   7.664
  441POPC   C1B 9019   7.367   9.235   8.564
  441POPC   C2B 9020   7.296   9.167   8.264
  441POPC   C3B 9021   7.341   9.254   7.964
  441POPC   C4B 9022   7.312   9.175   7.664
  442POPC   NC3 9023   8.964  25.308   9.464
  442POPC   PO4 9024   9.014  25.257   9.164
  442POPC   GL1 9025   8.998  25.293   8.864
  442POPC   GL2 9026   8.884  25.301   8.864
  442POPC   C1A 9027   8.998  25.227   8.564
  442POPC   D2A 9028   8.997  25.301   8.264
  442POPC   C3A 9029   9.020  25.237   7.964
  442POPC   C4A 9030   8.944  25.270   7.664
  442POPC   C1B 9031   8.769  25.318   8.564
  442POPC   C2B 9032   8.761  25.334   8.264
  442POPC   C3B 9033   8.756  25.291   7.964
  442POPC   C4B 9034   8.758  25.333   7.664
  443POPC   NC3 9035  22.910   5.068   9.464
  443POPC   PO4 9036  22.940   5.136   9.164
  443POPC   GL1 9037  22.973   5.117   8.864
  443POPC   GL2 9038  22.855   5.121   8.864
  443POPC   C1A 9039  22.905   5.108   8.564
  443POPC   D2A 9040  22.892   5.112   8.264
  443POPC   C3A 9041  22.958   5.137   7.964
  443POPC   C4A 9042  22.944   5.139   7.664
  443POPC   C1B 9043  22.671   5.061   8.564
  443POPC   C2B 9044  22.738   5.067   8.264
  443POPC   C3B 9045  22.652   5.056   7.964
  443POPC   C4B 9046  22.642   5.076   7.664
  444POPC   NC3 9047  21.340   1.953   9.464
  444POPC   PO4 9048  21.371   2.004   9.164
  444POPC   GL1 9049  21.367   1.983   8.864
  444POPC   GL2 9050  21.415   1.895   8.864
  444POPC   C1A 9051  21.386   2.005   8.564
  444POPC   D2A 9052  21.378   2.025   8.264
  444POPC   C3A 9053  21.349   2.034   7.964
  444POPC   C4A 9054  21.391   1.965   7.664
  444POPC   C1B 9055  21.337   1.724   8.564
  444POPC   C2B 9056  21.393   1.709   8.264
  444POPC   C3B 9057  21.378   1.690   7.964
  444POPC   C4B 9058  21.365   1.788   7.664
  445POPC   NC3 9059   8.236  19.105   9.464
  445POPC   PO4 9060   8.181  19.030   9.164
  445POPC   GL1 9061   8.186  19.025   8.864
  445POPC   GL2 9062   8.294  19.114   8.864
  445POPC   C1A 9063   8.162  19.043   8.564
  445POPC   D2A 9064   8.152  19.046   8.264
  445POPC   C3A 9065   8.218  19.034   7.964
  445POPC   C4A 9066   8.199  19.031   7.664
  445POPC   C1B 9067   8.461  19.143   8.564
  445POPC   C2B 9068   8.435  19.108   8.264
  445POPC   C3B 9069   8.418  19.144   7.964
  445POPC   C4B 9070   8.436  19.143   7.664
  446POPC   NC3 9071  18.297  23.707   9.464
  446POPC   PO4 9072  18.280  23.702   9.164
  446POPC   GL1 9073  18.299  23.697   8.864
  446POPC   GL2 9074  18.431  23.799   8.864
  446POPC   C1A 9075  18.254  23.731   8.564
  446POPC   D2A 9076  18.293  23.713   8.264
  446POPC   C3A 9077  18.257  23.724   7.964
  446POPC   C4A 9078  18.307  23.751   7.664
  446POPC   C1B 9079  18.506  23.839   8.564
  446POPC   C2B 9080  18.527  23.837   8.264
  446POPC   C3B 9081  18.450  23.876   7.964
  446POPC   C4B 9082  18.528  23.871   7.664
  447POPC   NC3 9083   8.955  22.118   9.464
  447POPC   PO4 9084   9.012  22.212   9.164
  447POPC   GL1 9085   8.935  22.169   8.864
  447POPC   GL2 9086   8.959  22.320   8.864
  447POPC   C1A 9087   8.998  22.125   8.564
  447POPC   D2A 9088   8.966  22.186   8.264
  447POPC   C3A 9089   9.011  22.151   7.964
  447POPC   C4A 9090   8.928  22.142   7.664
  447POPC   C1B 9091   8.945  22.396   8.564
  447POPC   C2B 9092   9.012  22.425   8.264
  447POPC   C3B 9093   8.980  22.417   7.964
  447POPC   C4B 9094   8.968  22.378   7.664
  448POPC   NC3 9095  14.359  38.495   9.464
  448POPC   PO4 9096  14.417  38.483   9.164
  448POPC   GL1 9097  14.394  38.490   8.864
  448POPC   GL2 9098  14.425  38.566   8.864
  448POPC   C1A 9099  14.447  38.499   8.564
  448POPC   D2A 9100  14.442  38.429   8.264
  448POPC   C3A 9101  14.383  38.446   7.964
  448POPC   C4A 9102  14.446  38.479   7.664
  448POPC   C1B 9103  14.501  38.718   8.564
  448POPC   C2B 9104  14.493  38.736   8.264
  448POPC   C3B 9105  14.442  38.695   7.964
  448POPC   C4B 9106  14.513  38.698   7.664
  449POPC   NC3 9107  26.792  21.339   9.464
  449POPC   PO4 9108  26.821  21.341   9.164
  449POPC   GL1 9109  26.852  21.402   8.864
  449POPC   GL2 9110  26.833  21.468   8.864
  449POPC   C1A 9111  26.774  21.376   8.564
  449POPC   D2A 9112  26.802  21.369   8.264
  449POPC   C3A 9113  26.843  21.408   7.964
  449POPC   C4A 9114  26.794  21.379   7.664
  449POPC   C1B 9115  26.954  21.646   8.564
  449POPC   C2B 9116  26.921  21.585   8.264
  449POPC   C3B 9117  26.919  21.635   7.964
  449POPC   C4B 9118  26.948  21.585   7.664
  450POPC   NC3 9119  41.542  28.378   9.464
  450POPC   PO4 9120  41.549  28.321   9.164
  450POPC   GL1 9121  41.553  28.380   8.864
  450POPC   GL2 9122  41.630  28.242   8.864
  450POPC   C1A 9123  41.554  28.373   8.564
  450POPC   D2A 9124  41.523  28.414   8.264
  450POPC   C3A 9125  41.544  28.334   7.964
  450POPC   C4A 9126  41.582  28.361   7.664
  450POPC   C1B 9127  41.604  28.180   8.564
  450POPC   C2B 9128  41.658  28.183   8.264
  450POPC   C3B 9129  41.628  28.125   7.964
  450POPC   C4B 9130  41.607  28.179   7.664
  451POPC   NC3 9131  15.936   8.998   9.464
  451POPC   PO4 9132  15.947   8.987   9.164
  451POPC   GL1 9133  15.906   8.928   8.864
  451POPC   GL2 9134  16.037   9.026   8.864
  451POPC   C1A 9135  15.905   8.939   8.564
  451POPC   D2A 9136  15.927   8.937   8.264
  451POPC   C3A 9137  15.954   9.002   7.964
  451POPC   C4A 9138  15.932   9.021   7.664
  451POPC   C1B 9139  16.110   9.182   8.564
  451POPC   C2B 9140  16.149   9.103   8.264
  451POPC   C3B 9141  16.094   9.128   7.964
  451POPC   C4B 9142  16.188   9.100   7.664
  452POPC   NC3 9143   3.584   3.531   9.464
  452POPC   PO4 9144   3.511   3.533   9.164
  452POPC   GL1 9145   3.492   3.546   8.864
  452POPC   GL2 9146   3.514   3.630   8.864
  452POPC   C1A 9147   3.560   3.588   8.564
  452POPC   D2A 9148   3.554   3.516   8.264
  452POPC   C3A 9149   3.495   3.563   7.964
  452POPC   C4A 9150   3.523   3.513   7.664
  452POPC   C1B 9151   3.544   3.771   8.564
  452POPC   C2B 9152   3.517   3.824   8.264
  452POPC   C3B 9153   3.492   3.795   7.964
  452POPC   C4B 9154   3.498   3.819   7.664
  453POPC   NC3 9155  32.293  35.349   9.464
  453POPC   PO4 9156  32.279  35.381   9.164
  453POPC   GL1 9157  32.236  35.346   8.864
  453POPC   GL2 9158  32.416  35.375   8.864
  453POPC   C1A 9159  32.247  35.392   8.564
  453POPC   D2A 9160  32.273  35.363   8.264
  453POPC   C3A 9161  32.215  35.305   7.964
  453POPC   C4A 9162  32.269  35.321   7.664
  453POPC   C1B 9163  32.495  35.358   8.564
  453POPC   C2B 9164  32.530  35.317   8.264
  453POPC   C3B 9165  32.494  35.340   7.964
  453POPC   C4B 9166  32.517  35.345   7.664
  454POPC   NC3 9167  14.436  29.872   9.464
  454POPC   PO4 9168  14.392  29.875   9.164
  454POPC   GL1 9169  14.373  29.945   8.864
  454POPC   GL2 9170  14.528  30.038   8.864
  454POPC   C1A 9171  14.401  29.935   8.564
  454POPC   D2A 9172  14.375  29.897   8.264
  454POPC   C3A 9173  14.401  29.927   7.964
  454POPC   C4A 9174  14.433  29.938   7.664
  454POPC   C1B 9175  14.567  30.136   8.564
  454POPC   C2B 9176  14.604  30.149   8.264
  454POPC   C3B 9177  14.612  30.101   7.964
  454POPC   C4B 9178  14.554  30.107   7.664
  455POPC   NC3 9179  44.653  14.441   9.464
  455POPC   PO4 9180  44.698  14.366   9.164
  455POPC   GL1 9181  44.710  14.413   8.864
  455POPC   GL2 9182  44.791  14.498   8.864
  455POPC   C1A 9183  44.673  14.426   8.564
  455POPC   D2A 9184  44.670  14.360   8.264
  455POPC   C3A 9185  44.667  14.387   7.964
  455POPC   C4A 9186  44.655  14.370   7.664
  455POPC   C1B 9187  44.810  14.585   8.564
  455POPC   C2B 9188  44.792  14.593   8.264
  455POPC   C3B 9189  44.839  14.545   7.964
  455POPC   C4B 9190  44.821  14.566   7.664
  456POPC   NC3 9191   7.440   4.311   9.464
  456POPC   PO4 9192   7.424   4.305   9.164
  456POPC   GL1 9193   7.450   4.284   8.864
  456POPC   GL2 9194   7.507   4.375   8.864
  456POPC   C1A 9195   7.456   4.339   8.564
  456POPC   D2A 9196   7.430   4.314   8.264
  456POPC   C3A 9197   7.443   4.359   7.964
  456POPC   C4A 9198   7.434   4.318   7.664
  456POPC   C1B 9199   7.620   4.364   8.564
  456POPC   C2B 9200   7.668   4.408   8.264
  456POPC   C3B 9201   7.645   4.373   7.964
  456POPC   C4B 9202   7.627   4.430   7.664
  457POPC   NC3 9203  36.928   5.083   9.464
  457POPC   PO4 9204  36.936   5.107   9.164
  457POPC   GL1 9205  36.945   5.083   8.864
  457POPC   GL2 9206  36.957   5.201   8.864
  457POPC   C1A 9207  36.916   5.103   8.564
  457POPC   D2A 9208  36.894   5.075   8.264
  457POPC   C3A 9209  36.934   5.067   7.964
  457POPC   C4A 9210  36.948   5.139   7.664
  457POPC   C1B 9211  37.140   5.215   8.564
  457POPC   C2B 9212  37.077   5.280   8.264
  457POPC   C3B 9213  37.074   5.198   7.964
  457POPC   C4B 9214  37.087   5.226   7.664
  458POPC   NC3 9215  30.676  40.740   9.464
  458POPC   PO4 9216  30.738  40.745   9.164
  458POPC   GL1 9217  30.685  40.761   8.864
  458POPC   GL2 9218  30.604  40.865   8.864
  458POPC   C1A 9219  30.715  40.818   8.564
  458POPC   D2A 9220  30.727  40.795   8.264
  458POPC   C3A 9221  30.731  40.759   7.964
  458POPC   C4A 9222  30.656  40.794   7.664
  458POPC   C1B 9223  30.629  41.008   8.564
  458POPC   C2B 9224  30.584  40.975   8.264
  458POPC   C3B 9225  30.600  40.971   7.964
  458POPC   C4B 9226  30.598  40.986   7.664
  459POPC   NC3 9227  22.913  30.675   9.464
  459POPC   PO4 9228  22.892  30.723   9.164
  459POPC   GL1 9229  22.936  30.744   8.864
  459POPC   GL2 9230  22.987  30.587   8.864
  459POPC   C1A 9231  22.936  30.695   8.564
  459POPC   D2A 9232  22.905  30.674   8.264
  459POPC   C3A 9233  22.953  30.717   7.964
  459POPC   C4A 9234  22.960  30.739   7.664
  459POPC   C1B 9235  23.019  30.437   8.564
  459POPC   C2B 9236  22.983  30.478   8.264
  459POPC   C3B 9237  22.952  30.420   7.964
  459POPC   C4B 9238  22.935  30.446   7.664
  460POPC   NC3 9239  14.406  43.132   9.464
  460POPC   PO4 9240  14.440  43.069   9.164
  460POPC   GL1 9241  14.442  43.090   8.864
  460POPC   GL2 9242  14.354  43.211   8.864
  460POPC   C1A 9243  14.400  43.150   8.564
  460POPC   D2A 9244  14.368  43.146   8.264
  460POPC   C3A 9245  14.432  43.149   7.964
  460POPC   C4A 9246  14.385  43.098   7.664
  460POPC   C1B 9247  14.445  43.323   8.564
  460POPC   C2B 9248  14.374  43.361   8.264
  460POPC   C3B 9249  14.372  43.342   7.964
  460POPC   C4B 9250  14.446  43.352   7.664
  461POPC   NC3 9251  16.732  36.093   9.464
  461POPC   PO4 9252  16.780  36.169   9.164
  461POPC   GL1 9253  16.742  36.137   8.864
  461POPC   GL2 9254  16.618  36.184   8.864
  461POPC   C1A 9255  16.694  36.089   8.564
  461POPC   D2A 9256  16.717  36.140   8.264
  461POPC   C3A 9257  16.769  36.093   7.964
  461POPC   C4A 9258  16.724  36.135   7.664
  461POPC   C1B 9259  16.570  36.244   8.564
  461POPC   C2B 9260  16.571  36.317   8.264
  461POPC   C3B 9261  16.515  36.253   7.964
  461POPC   C4B 9262  16.543  36.281   7.664
  462POPC   NC3 9263  25.272   3.589   9.464
  462POPC   PO4 9264  25.252   3.509   9.164
  462POPC   GL1 9265  25.240   3.501   8.864
  462POPC   GL2 9266  25.235   3.640   8.864
  462POPC   C1A 9267  25.311   3.493   8.564
  462POPC   D2A 9268  25.226   3.550   8.264
  462POPC   C3A 9269  25.256   3.492   7.964
  462POPC   C4A 9270  25.273   3.583   7.664
  462POPC   C1B 9271  25.144   3.712   8.564
  462POPC   C2B 9272  25.149   3.781   8.264
  462POPC   C3B 9273  25.173   3.732   7.964
  462POPC   C4B 9274  25.143   3.730   7.664
  463POPC   NC3 9275   7.422  28.356   9.464
  463POPC   PO4 9276   7.401  28.337   9.164
  463POPC   GL1 9277   7.457  28.342   8.864
  463POPC   GL2 9278   7.457  28.467   8.864
  463POPC   C1A 9279   7.407  28.411   8.564
  463POPC   D2A 9280   7.448  28.343   8.264
  463POPC   C3A 9281   7.442  28.354   7.964
  463POPC   C4A 9282   7.408  28.393   7.664
  463POPC   C1B 9283   7.418  28.595   8.564
  463POPC   C2B 9284   7.377  28.624   8.264
  463POPC   C3B 9285   7.375  28.584   7.964
  463POPC   C4B 9286   7.430  28.650   7.664
  464POPC   NC3 9287  38.493   0.391   9.464
  464POPC   PO4 9288  38.409   0.415   9.164
  464POPC   GL1 9289  38.444   0.392   8.864
  464POPC   GL2 9290  38.288   0.486   8.864
  464POPC   C1A 9291  38.465   0.415   8.564
  464POPC   D2A 9292  38.423   0.483   8.264
  464POPC   C3A 9293  38.467   0.418   7.964
  464POPC   C4A 9294  38.501   0.412   7.664
  464POPC   C1B 9295  38.230   0.503   8.564
  464POPC   C2B 9296  38.267   0.562   8.264
  464POPC   C3B 9297  38.196   0.508   7.964
  464POPC   C4B 9298  38.228   0.523   7.664
  465POPC   NC3 9299  16.765  26.793   9.464
  465POPC   PO4 9300  16.716  26.866   9.164
  465POPC   GL1 9301  16.745  26.848   8.864
  465POPC   GL2 9302  16.718  26.894   8.864
  465POPC   C1A 9303  16.759  26.822   8.564
  465POPC   D2A 9304  16.725  26.859   8.264
  465POPC   C3A 9305  16.717  26.820   7.964
  465POPC   C4A 9306  16.686  26.822   7.664
  465POPC   C1B 9307  16.710  27.111   8.564
  465POPC   C2B 9308  16.753  27.091   8.264
  465POPC   C3B 9309  16.762  27.062   7.964
  465POPC   C4B 9310  16.775  27.049   7.664
  466POPC   NC3 9311  42.312  33.033   9.464
  466POPC   PO4 9312  42.290  32.988   9.164
  466POPC   GL1 9313  42.323  32.983   8.864
  466POPC   GL2 9314  42.232  33.095   8.864
  466POPC   C1A 9315  42.300  33.072   8.564
  466POPC   D2A 9316  42.378  33.009   8.264
  466POPC   C3A 9317  42.378  32.974   7.964
  466POPC   C4A 9318  42.306  33.046   7.664
  466POPC   C1B 9319  42.226  33.269   8.564
  466POPC   C2B 9320  42.222  33.213   8.264
  466POPC   C3B 9321  42.218  33.207   7.964
  466POPC   C4B 9322  42.221  33.251   7.664
  467POPC   NC3 9323  22.922  12.809   9.464
  467POPC   PO4 9324  22.903  12.803   9.164
  467POPC   GL1 9325  22.981  12.862   8.864
  467POPC   GL2 9326  22.983  12.766   8.864
  467POPC   C1A 9327  22.979  12.803   8.564
  467POPC   D2A 9328  22.943  12.871   8.264
  467POPC   C3A 9329  22.981  12.884   7.964
  467POPC   C4A 9330  22.980  12.897   7.664
  467POPC   C1B 9331  23.113  12.602   8.564
  467POPC   C2B 9332  23.022  12.630   8.264
  467POPC   C3B 9333  23.113  12.603   7.964
  467POPC   C4B 9334  23.075  12.640   7.664
  468POPC   NC3 9335  23.704  13.673   9.464
  468POPC   PO4 9336  23.735  13.676   9.164
  468POPC   GL1 9337  23.744  13.626   8.864
  468POPC   GL2 9338  23.634  13.748   8.864
  468POPC   C1A 9339  23.760  13.626   8.564
  468POPC   D2A 9340  23.691  13.599   8.264
  468POPC   C3A 9341  23.700  13.630   7.964
  468POPC   C4A 9342  23.703  13.675   7.664
  468POPC   C1B 9343  23.585  13.846   8.564
  468POPC   C2B 9344  23.569  13.849   8.264
  468POPC   C3B 9345  23.584  13.838   7.964
  468POPC   C4B 9346  23.565  13.829   7.664
  469POPC   NC3 9347  34.528   3.545   9.464
  469POPC   PO4 9348  34.590   3.566   9.164
  469POPC   GL1 9349  34.554   3.515   8.864
  469POPC   GL2 9350  34.663   3.625   8.864
  469POPC   C1A 9351  34.587   3.552   8.564
  469POPC   D2A 9352  34.596   3.505   8.264
  469POPC   C3A 9353  34.607   3.526   7.964
  469POPC   C4A 9354  34.607   3.512   7.664
  469POPC   C1B 9355  34.747   3.677   8.564
  469POPC   C2B 9356  34.786   3.642   8.264
  469POPC   C3B 9357  34.775   3.687   7.964
  469POPC   C4B 9358  34.759   3.680   7.664
  470POPC   NC3 9359  37.689   3.504   9.464
  470POPC   PO4 9360  37.661   3.525   9.164
  470POPC   GL1 9361  37.704   3.562   8.864
  470POPC   GL2 9362  37.726   3.713   8.864
  470POPC   C1A 9363  37.646   3.543   8.564
  470POPC   D2A 9364  37.713   3.493   8.264
  470POPC   C3A 9365  37.653   3.563   7.964
  470POPC   C4A 9366  37.663   3.574   7.664
  470POPC   C1B 9367  37.771   3.806   8.564
  470POPC   C2B 9368  37.755   3.824   8.264
  470POPC   C3B 9369  37.676   3.740   7.964
  470POPC   C4B 9370  37.758   3.781   7.664
  471POPC   NC3 9371   1.952  43.096   9.464
  471POPC   PO4 9372   1.940  43.062   9.164
  471POPC   GL1 9373   1.969  43.121   8.864
  471POPC   GL2 9374   2.001  43.245   8.864
  471POPC   C1A 9375   1.961  43.125   8.564
  471POPC   D2A 9376   2.022  43.100   8.264
  471POPC   C3A 9377   1.967  43.139   7.964
  471POPC   C4A 9378   2.037  43.117   7.664
  471POPC   C1B 9379   1.912  43.323   8.564
  471POPC   C2B 9380   1.950  43.359   8.264
  471POPC   C3B 9381   1.909  43.385   7.964
  471POPC   C4B 9382   1.991  43.325   7.664
  472POPC   NC3 9383  40.778  16.684   9.464
  472POPC   PO4 9384  40.774  16.706   9.164
  472POPC   GL1 9385  40.734  16.693   8.864
  472POPC   GL2 9386  40.910  16.662   8.864
  472POPC   C1A 9387  40.821  16.698   8.564
  472POPC   D2A 9388  40.773  16.711   8.264
  472POPC   C3A 9389  40.818  16.772   7.964
  472POPC   C4A 9390  40.820  16.741   7.664
  472POPC   C1B 9391  41.032  16.593   8.564
  472POPC   C2B 9392  41.021  16.615   8.264
  472POPC   C3B 9393  40.951  16.623   7.964
  472POPC   C4B 9394  40.975  16.570   7.664
  473POPC   NC3 9395  26.858  29.130   9.464
  473POPC   PO4 9396  26.791  29.095   9.164
  473POPC   GL1 9397  26.803  29.107   8.864
  473POPC   GL2 9398  26.845  29.256   8.864
  473POPC   C1A 9399  26.786  29.124   8.564
  473POPC   D2A 9400  26.834  29.099   8.264
  473POPC   C3A 9401  26.783  29.130   7.964
  473POPC   C4A 9402  26.843  29.144   7.664
  473POPC   C1B 9403  26.837  29.348   8.564
  473POPC   C2B 9404  26.891  29.428   8.264
  473POPC   C3B 9405  26.850  29.390   7.964
  473POPC   C4B 9406  26.890  29.421   7.664
  474POPC   NC3 9407   5.082  39.249   9.464
  474POPC   PO4 9408   5.083  39.207   9.164
  474POPC   GL1 9409   5.136  39.204   8.864
  474POPC   GL2 9410   4.958  39.268   8.864
  474POPC   C1A 9411   5.087  39.201   8.564
  474POPC   D2A 9412   5.063  39.253   8.264
  474POPC   C3A 9413   5.082  39.182   7.964
  474POPC   C4A 9414   5.130  39.214   7.664
  474POPC   C1B 9415   4.871  39.236   8.564
  474POPC   C2B 9416   4.814  39.230   8.264
  474POPC   C3B 9417   4.810  39.262   7.964
  474POPC   C4B 9418   4.829  39.231   7.664
  475POPC   NC3 9419  21.367  26.075   9.464
  475POPC   PO4 9420  21.428  26.055   9.164
  475POPC   GL1 9421  21.403  26.003   8.864
  475POPC   GL2 9422  21.367  25.931   8.864
  475POPC   C1A 9423  21.347  26.020   8.564
  475POPC   D2A 9424  21.429  26.021   8.264
  475POPC   C3A 9425  21.386  26.060   7.964
  475POPC   C4A 9426  21.336  26.026   7.664
  475POPC   C1B 9427  21.339  25.752   8.564
  475POPC   C2B 9428  21.300  25.840   8.264
  475POPC   C3B 9429  21.370  25.777   7.964
  475POPC   C4B 9430  21.371  25.764   7.664
  476POPC   NC3 9431  22.151   5.859   9.464
  476POPC   PO4 9432  22.119   5.878   9.164
  476POPC   GL1 9433  22.165   5.847   8.864
  476POPC   GL2 9434  22.230   5.834   8.864
  476POPC   C1A 9435  22.149   5.820   8.564
  476POPC   D2A 9436  22.172   5.904   8.264
  476POPC   C3A 9437  22.203   5.835   7.964
  476POPC   C4A 9438  22.156   5.837   7.664
  476POPC   C1B 9439  22.345   5.804   8.564
  476POPC   C2B 9440  22.396   5.791   8.264
  476POPC   C3B 9441  22.421   5.741   7.964
  476POPC   C4B 9442  22.376   5.754   7.664
  477POPC   NC3 9443  26.021   5.912   9.464
  477POPC   PO4 9444  26.089   5.869   9.164
  477POPC   GL1 9445  26.068   5.906   8.864
  477POPC   GL2 9446  26.152   5.877   8.864
  477POPC   C1A 9447  26.015   5.819   8.564
  477POPC   D2A 9448  26.038   5.849   8.264
  477POPC   C3A 9449  26.018   5.849   7.964
  477POPC   C4A 9450  26.020   5.848   7.664
  477POPC   C1B 9451  26.234   5.907   8.564
  477POPC   C2B 9452  26.270   5.971   8.264
  477POPC   C3B 9453  26.256   5.974   7.964
  477POPC   C4B 9454  26.329   5.912   7.664
  478POPC   NC3 9455  19.832  38.429   9.464
  478POPC   PO4 9456  19.882  38.456   9.164
  478POPC   GL1 9457  19.815  38.423   8.864
  478POPC   GL2 9458  19.677  38.419   8.864
  478POPC   C1A 9459  19.863  38.423   8.564
  478POPC   D2A 9460  19.795  38.488   8.264
  478POPC   C3A 9461  19.864  38.442   7.964
  478POPC   C4A 9462  19.867  38.495   7.664
  478POPC   C1B 9463  19.630  38.395   8.564
  478POPC   C2B 9464  19.631  38.436   8.264
  478POPC   C3B 9465  19.571  38.470   7.964
  478POPC   C4B 9466  19.582  38.455   7.664
  479POPC   NC3 9467  20.650  37.720   9.464
  479POPC   PO4 9468  20.645  37.675   9.164
  479POPC   GL1 9469  20.579  37.693   8.864
  479POPC   GL2 9470  20.659  37.542   8.864
  479POPC   C1A 9471  20.637  37.638   8.564
  479POPC   D2A 9472  20.607  37.701   8.264
  479POPC   C3A 9473  20.583  37.706   7.964
  479POPC   C4A 9474  20.623  37.674   7.664
  479POPC   C1B 9475  20.706  37.441   8.564
  479POPC   C2B 9476  20.682  37.465   8.264
  479POPC   C3B 9477  20.702  37.443   7.964
  479POPC   C4B 9478  20.694  37.489   7.664
  480POPC   NC3 9479  28.366  12.849   9.464
  480POPC   PO4 9480  28.361  12.846   9.164
  480POPC   GL1 9481  28.342  12.819   8.864
  480POPC   GL2 9482  28.336  12.681   8.864
  480POPC   C1A 9483  28.399  12.831   8.564
  480POPC   D2A 9484  28.388  12.838   8.264
  480POPC   C3A 9485  28.344  12.875   7.964
  480POPC   C4A 9486  28.350  12.882   7.664
  480POPC   C1B 9487  28.354  12.641   8.564
  480POPC   C2B 9488  28.377  12.633   8.264
  480POPC   C3B 9489  28.444  12.604   7.964
  480POPC   C4B 9490  28.412  12.600   7.664
  481POPC   NC3 9491  25.244  16.703   9.464
  481POPC   PO4 9492  25.294  16.686   9.164
  481POPC   GL1 9493  25.261  16.693   8.864
  481POPC   GL2 9494  25.361  16.637   8.864
  481POPC   C1A 9495  25.274  16.771   8.564
  481POPC   D2A 9496  25.282  16.729   8.264
  481POPC   C3A 9497  25.225  16.688   7.964
  481POPC   C4A 9498  25.279  16.780   7.664
  481POPC   C1B 9499  25.382  16.497   8.564
  481POPC   C2B 9500  25.318  16.547   8.264
  481POPC   C3B 9501  25.329  16.467   7.964
  481POPC   C4B 9502  25.347  16.489   7.664
  482POPC   NC3 9503  24.457  22.897   9.464
  482POPC   PO4 9504  24.470  22.919   9.164
  482POPC   GL1 9505  24.491  22.936   8.864
  482POPC   GL2 9506  24.538  23.018   8.864
  482POPC   C1A 9507  24.517  22.931   8.564
  482POPC   D2A 9508  24.475  22.958   8.264
  482POPC   C3A 9509  24.472  22.947   7.964
  482POPC   C4A 9510  24.456  22.939   7.664
  482POPC   C1B 9511  24.558  23.228   8.564
  482POPC   C2B 9512  24.539  23.158   8.264
  482POPC   C3B 9513  24.541  23.214   7.964
  482POPC   C4B 9514  24.506  23.163   7.664
  483POPC   NC3 9515  29.876  11.304   9.464
  483POPC   PO4 9516  29.931  11.293   9.164
  483POPC   GL1 9517  29.937  11.285   8.864
  483POPC   GL2 9518  30.012  11.198   8.864
  483POPC   C1A 9519  29.945  11.326   8.564
  483POPC   D2A 9520  29.893  11.338   8.264
  483POPC   C3A 9521  29.903  11.262   7.964
  483POPC   C4A 9522  29.934  11.343   7.664
  483POPC   C1B 9523  30.114  11.212   8.564
  483POPC   C2B 9524  30.158  11.205   8.264
  483POPC   C3B 9525  30.171  11.184   7.964
  483POPC   C4B 9526  30.154  11.198   7.664
  484POPC   NC3 9527  24.443  29.964   9.464
  484POPC   PO4 9528  24.444  29.941   9.164
  484POPC   GL1 9529  24.530  29.960   8.864
  484POPC   GL2 9530  24.343  29.820   8.864
  484POPC   C1A 9531  24.458  29.886   8.564
  484POPC   D2A 9532  24.474  29.941   8.264
  484POPC   C3A 9533  24.493  29.957   7.964
  484POPC   C4A 9534  24.446  29.896   7.664
  484POPC   C1B 9535  24.252  29.766   8.564
  484POPC   C2B 9536  24.306  29.850   8.264
  484POPC   C3B 9537  24.254  29.834   7.964
  484POPC   C4B 9538  24.300  29.857   7.664
  485POPC   NC3 9539  29.144  10.487   9.464
  485POPC   PO4 9540  29.126  10.486   9.164
  485POPC   GL1 9541  29.161  10.560   8.864
  485POPC   GL2 9542  29.064  10.563   8.864
  485POPC   C1A 9543  29.148  10.552   8.564
  485POPC   D2A 9544  29.097  10.549   8.264
  485POPC   C3A 9545  29.192  10.495   7.964
  485POPC   C4A 9546  29.120  10.531   7.664
  485POPC   C1B 9547  28.972  10.647   8.564
  485POPC   C2B 9548  28.952  10.639   8.264
  485POPC   C3B 9549  28.935  10.633   7.964
  485POPC   C4B 9550  28.969  10.646   7.664
  486POPC   NC3 9551  33.842  22.195   9.464
  486POPC   PO4 9552  33.770  22.147   9.164
  486POPC   GL1 9553  33.762  22.149   8.864
  486POPC   GL2 9554  33.807  22.036   8.864
  486POPC   C1A 9555  33.846  22.185   8.564
  486POPC   D2A 9556  33.806  22.182   8.264
  486POPC   C3A 9557  33.755  22.117   7.964
  486POPC   C4A 9558  33.843  22.199   7.664
  486POPC   C1B 9559  33.827  21.932   8.564
  486POPC   C2B 9560  33.825  21.959   8.264
  486POPC   C3B 9561  33.825  21.943   7.964
  486POPC   C4B 9562  33.855  21.932   7.664
  487POPC   NC3 9563   5.080  35.330   9.464
  487POPC   PO4 9564   5.086  35.325   9.164
  487POPC   GL1 9565   5.141  35.315   8.864
  487POPC   GL2 9566   5.057  35.518   8.864
  487POPC   C1A 9567   5.133  35.388   8.564
  487POPC   D2A 9568   5.084  35.364   8.264
  487POPC   C3A 9569   5.103  35.367   7.964
  487POPC   C4A 9570   5.072  35.374   7.664
  487POPC   C1B 9571   5.081  35.572   8.564
  487POPC   C2B 9572   5.128  35.578   8.264
  487POPC   C3B 9573   5.044  35.640   7.964
  487POPC   C4B 9574   5.109  35.572   7.664
  488POPC   NC3 9575  12.109  17.463   9.464
  488POPC   PO4 9576  12.096  17.496   9.164
  488POPC   GL1 9577  12.046  17.506   8.864
  488POPC   GL2 9578  12.050  17.620   8.864
  488POPC   C1A 9579  12.038  17.527   8.564
  488POPC   D2A 9580  12.046  17.478   8.264
  488POPC   C3A 9581  12.031  17.551   7.964
  488POPC   C4A 9582  12.083  17.499   7.664
  488POPC   C1B 9583  11.957  17.748   8.564
  488POPC   C2B 9584  11.937  17.720   8.264
  488POPC   C3B 9585  11.975  17.709   7.964
  488POPC   C4B 9586  11.979  17.736   7.664
  489POPC   NC3 9587  21.435  27.573   9.464
  489POPC   PO4 9588  21.360  27.565   9.164
  489POPC   GL1 9589  21.414  27.617   8.864
  489POPC   GL2 9590  21.506  27.644   8.864
  489POPC   C1A 9591  21.362  27.560   8.564
  489POPC   D2A 9592  21.377  27.576   8.264
  489POPC   C3A 9593  21.339  27.560   7.964
  489POPC   C4A 9594  21.404  27.622   7.664
  489POPC   C1B 9595  21.588  27.691   8.564
  489POPC   C2B 9596  21.609  27.686   8.264
  489POPC   C3B 9597  21.668  27.680   7.964
  489POPC   C4B 9598  21.602  27.677   7.664
  490POPC   NC3 9599   3.493  37.696   9.464
  490POPC   PO4 9600   3.512  37.720   9.164
  490POPC   GL1 9601   3.582  37.679   8.864
  490POPC   GL2 9602   3.479  37.580   8.864
  490POPC   C1A 9603   3.551  37.710   8.564
  490POPC   D2A 9604   3.568  37.724   8.264
  490POPC   C3A 9605   3.540  37.662   7.964
  490POPC   C4A 9606   3.574  37.637   7.664
  490POPC   C1B 9607   3.430  37.419   8.564
  490POPC   C2B 9608   3.470  37.487   8.264
  490POPC   C3B 9609   3.489  37.421   7.964
  490POPC   C4B 9610   3.451  37.431   7.664
  491POPC   NC3 9611  39.219  22.977   9.464
  491POPC   PO4 9612  39.278  22.955   9.164
  491POPC   GL1 9613  39.188  22.939   8.864
  491POPC   GL2 9614  39.110  22.921   8.864
  491POPC   C1A 9615  39.189  22.959   8.564
  491POPC   D2A 9616  39.246  22.937   8.264
  491POPC   C3A 9617  39.218  22.979   7.964
  491POPC   C4A 9618  39.255  22.907   7.664
  491POPC   C1B 9619  38.935  22.936   8.564
  491POPC   C2B 9620  39.019  22.868   8.264
  491POPC   C3B 9621  38.998  22.946   7.964
  491POPC   C4B 9622  39.005  22.861   7.664
  492POPC   NC3 9623  23.703  39.208   9.464
  492POPC   PO4 9624  23.747  39.240   9.164
  492POPC   GL1 9625  23.761  39.248   8.864
  492POPC   GL2 9626  23.602  39.254   8.864
  492POPC   C1A 9627  23.713  39.247   8.564
  492POPC   D2A 9628  23.735  39.259   8.264
  492POPC   C3A 9629  23.720  39.255   7.964
  492POPC   C4A 9630  23.687  39.276   7.664
  492POPC   C1B 9631  23.546  39.385   8.564
  492POPC   C2B 9632  23.489  39.364   8.264
  492POPC   C3B 9633  23.495  39.330   7.964
  492POPC   C4B 9634  23.494  39.386   7.664
  493POPC   NC3 9635   1.246  16.737   9.464
  493POPC   PO4 9636   1.184  16.777   9.164
  493POPC   GL1 9637   1.244  16.767   8.864
  493POPC   GL2 9638   1.178  16.585   8.864
  493POPC   C1A 9639   1.175  16.747   8.564
  493POPC   D2A 9640   1.204  16.735   8.264
  493POPC   C3A 9641   1.242  16.778   7.964
  493POPC   C4A 9642   1.240  16.695   7.664
  493POPC   C1B 9643   1.227  16.520   8.564
  493POPC   C2B 9644   1.217  16.452   8.264
  493POPC   C3B 9645   1.218  16.506   7.964
  493POPC   C4B 9646   1.169  16.486   7.664
  494POPC   NC3 9647  43.081  22.957   9.464
  494POPC   PO4 9648  43.077  22.950   9.164
  494POPC   GL1 9649  43.138  22.953   8.864
  494POPC   GL2 9650  43.023  22.856   8.864
  494POPC   C1A 9651  43.148  22.986   8.564
  494POPC   D2A 9652  43.098  22.918   8.264
  494POPC   C3A 9653  43.105  22.907   7.964
  494POPC   C4A 9654  43.141  22.940   7.664
  494POPC   C1B 9655  42.895  22.870   8.564
  494POPC   C2B 9656  42.907  22.803   8.264
  494POPC   C3B 9657  42.852  22.862   7.964
  494POPC   C4B 9658  42.869  22.793   7.664
  495POPC   NC3 9659  15.929  14.369   9.464
  495POPC   PO4 9660  15.950  14.381   9.164
  495POPC   GL1 9661  15.936  14.374   8.864
  495POPC   GL2 9662  15.920  14.530   8.864
  495POPC   C1A 9663  15.907  14.398   8.564
  495POPC   D2A 9664  16.001  14.358   8.264
  495POPC   C3A 9665  15.957  14.388   7.964
  495POPC   C4A 9666  15.928  14.452   7.664
  495POPC   C1B 9667  15.953  14.668   8.564
  495POPC   C2B 9668  15.962  14.667   8.264
  495POPC   C3B 9669  15.991  14.699   7.964
  495POPC   C4B 9670  15.950  14.675   7.664
  496POPC   NC3 9671  31.438  29.164   9.464
  496POPC   PO4 9672  31.484  29.181   9.164
  496POPC   GL1 9673  31.446  29.124   8.864
  496POPC   GL2 9674  31.469  28.983   8.864
  496POPC   C1A 9675  31.451  29.113   8.564
  496POPC   D2A 9676  31.514  29.126   8.264
  496POPC   C3A 9677  31.454  29.097   7.964
  496POPC   C4A 9678  31.489  29.122   7.664
  496POPC   C1B 9679  31.393  28.920   8.564
  496POPC   C2B 9680  31.409  28.902   8.264
  496POPC   C3B 9681  31.415  28.907   7.964
  496POPC   C4B 9682  31.450  28.858   7.664
  497POPC   NC3 9683  42.363   0.406   9.464
  497POPC   PO4 9684  42.343   0.442   9.164
  497POPC   GL1 9685  42.375   0.423   8.864
  497POPC   GL2 9686  42.265   0.304   8.864
  497POPC   C1A 9687  42.310   0.418   8.564
  497POPC   D2A 9688  42.322   0.406   8.264
  497POPC   C3A 9689  42.379   0.470   7.964
  497POPC   C4A 9690  42.374   0.391   7.664
  497POPC   C1B 9691  42.294   0.190   8.564
  497POPC   C2B 9692  42.230   0.156   8.264
  497POPC   C3B 9693  42.305   0.239   7.964
  497POPC   C4B 9694  42.303   0.208   7.664
  498POPC   NC3 9695  21.390  29.146   9.464
  498POPC   PO4 9696  21.421  29.151   9.164
  498POPC   GL1 9697  21.412  29.143   8.864
  498POPC   GL2 9698  21.545  29.178   8.864
  498POPC   C1A 9699  21.412  29.167   8.564
  498POPC   D2A 9700  21.421  29.163   8.264
  498POPC   C3A 9701  21.394  29.147   7.964
  498POPC   C4A 9702  21.361  29.194   7.664
  498POPC   C1B 9703  21.641  29.243   8.564
  498POPC   C2B 9704  21.570  29.259   8.264
  498POPC   C3B 9705  21.570  29.218   7.964
  498POPC   C4B 9706  21.570  29.292   7.664
  499POPC   NC3 9707  43.899  44.618   9.464
  499POPC   PO4 9708  43.932  44.635   9.164
  499POPC   GL1 9709  43.897  44.615   8.864
  499POPC   GL2 9710  43.952  44.760   8.864
  499POPC   C1A 9711  43.933  44.684   8.564
  499POPC   D2A 9712  43.841  44.689   8.264
  499POPC   C3A 9713  43.860  44.624   7.964
  499POPC   C4A 9714  43.930  44.651   7.664
  499POPC   C1B 9715  44.130  44.779   8.564
  499POPC   C2B 9716  44.121  44.769   8.264
  499POPC   C3B 9717  44.052  44.842   7.964
  499POPC   C4B 9718  44.117  44.801   7.664
  500POPC   NC3 9719  39.220  17.475   9.464
  500POPC   PO4 9720  39.271  17.541   9.164
  500POPC   GL1 9721  39.195  17.469   8.864
  500POPC   GL2 9722  39.321  17.350   8.864
  500POPC   C1A 9723  39.218  17.515   8.564
  500POPC   D2A 9724  39.206  17.464   8.264
  500POPC   C3A 9725  39.207  17.498   7.964
  500POPC   C4A 9726  39.263  17.520   7.664
  500POPC   C1B 9727  39.364  17.302   8.564
  500POPC   C2B 9728  39.327  17.313   8.264
  500POPC   C3B 9729  39.326  17.275   7.964
  500POPC   C4B 9730  39.364  17.288   7.664
  501POPC   NC3 9731  17.513  24.450   9.464
  501POPC   PO4 9732  17.506  24.475   9.164
  501POPC   GL1 9733  17.501  24.448   8.864
  501POPC   GL2 9734  17.353  24.499   8.864
  501POPC   C1A 9735  17.526  24.492   8.564
  501POPC   D2A 9736  17.459  24.446   8.264
  501POPC   C3A 9737  17.557  24.473   7.964
  501POPC   C4A 9738  17.512  24.518   7.664
  501POPC   C1B 9739  17.271  24.473   8.564
  501POPC   C2B 9740  17.298  24.509   8.264
  501POPC   C3B 9741  17.263  24.527   7.964
  501POPC   C4B 9742  17.293  24.524   7.664
  502POPC   NC3 9743  15.200  41.547   9.464
  502POPC   PO4 9744  15.130  41.525   9.164
  502POPC   GL1 9745  15.188  41.551   8.864
  502POPC   GL2 9746  15.119  41.715   8.864
  502POPC   C1A 9747  15.223  41.519   8.564
  502POPC   D2A 9748  15.204  41.522   8.264
  502POPC   C3A 9749  15.192  41.587   7.964
  502POPC   C4A 9750  15.220  41.569   7.664
  502POPC   C1B 9751  15.136  41.787   8.564
  502POPC   C2B 9752  15.094  41.779   8.264
  502POPC   C3B 9753  15.164  41.753   7.964
  502POPC   C4B 9754  15.147  41.847   7.664
  503POPC   NC3 9755   1.949   2.031   9.464
  503POPC   PO4 9756   2.025   1.992   9.164
  503POPC   GL1 9757   1.951   2.018   8.864
  503POPC   GL2 9758   1.824   1.971   8.864
  503POPC   C1A 9759   1.985   1.953   8.564
  503POPC   D2A 9760   2.024   2.020   8.264
  503POPC   C3A 9761   1.950   2.017   7.964
  503POPC   C4A 9762   2.022   1.955   7.664
  503POPC   C1B 9763   1.784   1.949   8.564
  503POPC   C2B 9764   1.788   2.001   8.264
  503POPC   C3B 9765   1.709   1.974   7.964
  503POPC   C4B 9766   1.765   1.905   7.664
  504POPC   NC3 9767  34.560  16.700   9.464
  504POPC   PO4 9768  34.617  16.725   9.164
  504POPC   GL1 9769  34.594  16.721   8.864
  504POPC   GL2 9770  34.550  16.884   8.864
  504POPC   C1A 9771  34.540  16.776   8.564
  504POPC   D2A 9772  34.560  16.691   8.264
  504POPC   C3A 9773  34.619  16.699   7.964
  504POPC   C4A 9774  34.551  16.725   7.664
  504POPC   C1B 9775  34.410  16.956   8.564
  504POPC   C2B 9776  34.467  16.907   8.264
  504POPC   C3B 9777  34.391  16.935   7.964
  504POPC   C4B 9778  34.391  16.893   7.664
  505POPC   NC3 9779  28.379  37.663   9.464
  505POPC   PO4 9780  28.355  37.681   9.164
  505POPC   GL1 9781  28.373  37.686   8.864
  505POPC   GL2 9782  28.419  37.595   8.864
  505POPC   C1A 9783  28.389  37.708   8.564
  505POPC   D2A 9784  28.322  37.723   8.264
  505POPC   C3A 9785  28.374  37.728   7.964
  505POPC   C4A 9786  28.414  37.642   7.664
  505POPC   C1B 9787  28.534  37.564   8.564
  505POPC   C2B 9788  28.549  37.478   8.264
  505POPC   C3B 9789  28.553  37.542   7.964
  505POPC   C4B 9790  28.552  37.488   7.664
  506POPC   NC3 9791  20.614  12.870   9.464
  506POPC   PO4 9792  20.589  12.815   9.164
  506POPC   GL1 9793  20.613  12.816   8.864
  506POPC   GL2 9794  20.712  12.811   8.864
  506POPC   C1A 9795  20.564  12.814   8.564
  506POPC   D2A 9796  20.636  12.846   8.264
  506POPC   C3A 9797  20.619  12.805   7.964
  506POPC   C4A 9798  20.634  12.883   7.664
  506POPC   C1B 9799  20.866  12.694   8.564
  506POPC   C2B 9800  20.829  12.697   8.264
  506POPC   C3B 9801  20.793  12.684   7.964
  506POPC   C4B 9802  20.850  12.720   7.664
  507POPC   NC3 9803   1.188   2.770   9.464
  507POPC   PO4 9804   1.221   2.810   9.164
  507POPC   GL1 9805   1.183   2.727   8.864
  507POPC   GL2 9806   1.148   2.667   8.864
  507POPC   C1A 9807   1.186   2.813   8.564
  507POPC   D2A 9808   1.237   2.758   8.264
  507POPC   C3A 9809   1.252   2.723   7.964
  507POPC   C4A 9810   1.195   2.780   7.664
  507POPC   C1B 9811   1.015   2.554   8.564
  507POPC   C2B 9812   1.006   2.577   8.264
  507POPC   C3B 9813   1.012   2.568   7.964
  507POPC   C4B 9814   1.081   2.612   7.664
  508POPC   NC3 9815  28.365   5.839   9.464
  508POPC   PO4 9816  28.364   5.916   9.164
  508POPC   GL1 9817  28.397   5.842   8.864
  508POPC   GL2 9818  28.289   5.794   8.864
  508POPC   C1A 9819  28.400   5.871   8.564
  508POPC   D2A 9820  28.344   5.847   8.264
  508POPC   C3A 9821  28.399   5.848   7.964
  508POPC   C4A 9822  28.387   5.891   7.664
  508POPC   C1B 9823  28.235   5.695   8.564
  508POPC   C2B 9824  28.204   5.667   8.264
  508POPC   C3B 9825  28.180   5.723   7.964
  508POPC   C4B 9826  28.186   5.686   7.664
  509POPC   NC3 9827  16.781   7.460   9.464
  509POPC   PO4 9828  16.709   7.461   9.164
  509POPC   GL1 9829  16.756   7.453   8.864
  509POPC   GL2 9830  16.805   7.494   8.864
  509POPC   C1A 9831  16.750   7.388   8.564
  509POPC   D2A 9832  16.779   7.428   8.264
  509POPC   C3A 9833  16.684   7.396   7.964
  509POPC   C4A 9834  16.767   7.376   7.664
  509POPC   C1B 9835  16.890   7.660   8.564
  509POPC   C2B 9836  16.871   7.619   8.264
  509POPC   C3B 9837  16.915   7.581   7.964
  509POPC   C4B 9838  16.851   7.615   7.664
  510POPC   NC3 9839  31.487  36.139   9.464
  510POPC   PO4 9840  31.495  36.169   9.164
  510POPC   GL1 9841  31.520  36.161   8.864
  510POPC   GL2 9842  31.628  36.212   8.864
  510POPC   C1A 9843  31.423  36.112   8.564
  510POPC   D2A 9844  31.518  36.113   8.264
  510POPC   C3A 9845  31.434  36.126   7.964
  510POPC   C4A 9846  31.464  36.078   7.664
  510POPC   C1B 9847  31.692  36.193   8.564
  510POPC   C2B 9848  31.730  36.222   8.264
  510POPC   C3B 9849  31.647  36.231   7.964
  510POPC   C4B 9850  31.652  36.210   7.664
  511POPC   NC3 9851   0.477  37.721   9.464
  511POPC   PO4 9852   0.472  37.723   9.164
  511POPC   GL1 9853   0.413  37.686   8.864
  511POPC   GL2 9854   0.385  37.852   8.864
  511POPC   C1A 9855   0.467  37.723   8.564
  511POPC   D2A 9856   0.417  37.710   8.264
  511POPC   C3A 9857   0.480  37.686   7.964
  511POPC   C4A 9858   0.457  37.690   7.664
  511POPC   C1B 9859   0.459  37.928   8.564
  511POPC   C2B 9860   0.428  37.961   8.264
  511POPC   C3B 9861   0.448  37.882   7.964
  511POPC   C4B 9862   0.424  37.932   7.664
  512POPC   NC3 9863   4.270  32.226   9.464
  512POPC   PO4 9864   4.338  32.232   9.164
  512POPC   GL1 9865   4.333  32.220   8.864
  512POPC   GL2 9866   4.233  32.200   8.864
  512POPC   C1A 9867   4.336  32.278   8.564
  512POPC   D2A 9868   4.313  32.200   8.264
  512POPC   C3A 9869   4.278  32.238   7.964
  512POPC   C4A 9870   4.276  32.293   7.664
  512POPC   C1B 9871   4.097  32.166   8.564
  512POPC   C2B 9872   4.042  32.171   8.264
  512POPC   C3B 9873   4.110  32.173   7.964
  512POPC   C4B 9874   4.082  32.191   7.664
  513POPC   NC3 9875  15.193  34.537   9.464
  513POPC   PO4 9876  15.186  34.582   9.164
  513POPC   GL1 9877  15.130  34.584   8.864
  513POPC   GL2 9878  15.244  34.697   8.864
  513POPC   C1A 9879  15.154  34.598   8.564
  513POPC   D2A 9880  15.224  34.560   8.264
  513POPC   C3A 9881  15.163  34.614   7.964
  513POPC   C4A 9882  15.198  34.607   7.664
  513POPC   C1B 9883  15.212  34.834   8.564
  513POPC   C2B 9884  15.179  34.871   8.264
  513POPC   C3B 9885  15.261  34.788   7.964
  513POPC   C4B 9886  15.266  34.861   7.664
  514POPC   NC3 9887   0.436  27.613   9.464
  514POPC   PO4 9888   0.434  27.593   9.164
  514POPC   GL1 9889   0.466  27.583   8.864
  514POPC   GL2 9890   0.546  27.724   8.864
  514POPC   C1A 9891   0.391  27.551   8.564
  514POPC   D2A 9892   0.445  27.544   8.264
  514POPC   C3A 9893   0.393  27.635   7.964
  514POPC   C4A 9894   0.441  27.577   7.664
  514POPC   C1B 9895   0.537  27.811   8.564
  514POPC   C2B 9896   0.542  27.777   8.264
  514POPC   C3B 9897   0.576  27.808   7.964
  514POPC   C4B 9898   0.533  27.763   7.664
  515POPC   NC3 9899   1.184  28.362   9.464
  515POPC   PO4 9900   1.246  28.340   9.164
  515POPC   GL1 9901   1.257  28.396   8.864
  515POPC   GL2 9902   1.335  28.404   8.864
  515POPC   C1A 9903   1.222  28.337   8.564
  515POPC   D2A 9904   1.187  28.382   8.264
  515POPC   C3A 9905   1.253  28.364   7.964
  515POPC   C4A 9906   1.184  28.378   7.664
  515POPC   C1B 9907   1.416  28.544   8.564
  515POPC   C2B 9908   1.431  28.561   8.264
  515POPC   C3B 9909   1.440  28.499   7.964
  515POPC   C4B 9910   1.385  28.495   7.664
  516POPC   NC3 9911   2.744  32.268   9.464
  516POPC   PO4 9912   2.781  32.296   9.164
  516POPC   GL1 9913   2.801  32.209   8.864
  516POPC   GL2 9914   2.699  32.213   8.864
  516POPC   C1A 9915   2.814  32.285   8.564
  516POPC   D2A 9916   2.782  32.268   8.264
  516POPC   C3A 9917   2.732  32.261   7.964
  516POPC   C4A 9918   2.767  32.271   7.664
  516POPC   C1B 9919   2.558  32.055   8.564
  516POPC   C2B 9920   2.518  32.078   8.264
  516POPC   C3B 9921   2.582  32.119   7.964
  516POPC   C4B 9922   2.571  32.107   7.664
  517POPC   NC3 9923  12.875  43.104   9.464
  517POPC   PO4 9924  12.871  43.099   9.164
  517POPC   GL1 9925  12.862  43.086   8.864
  517POPC   GL2 9926  12.943  42.987   8.864
  517POPC   C1A 9927  12.813  43.116   8.564
  517POPC   D2A 9928  12.839  43.093   8.264
  517POPC   C3A 9929  12.875  43.133   7.964
  517POPC   C4A 9930  12.867  43.092   7.664
  517POPC   C1B 9931  13.057  42.965   8.564
  517POPC   C2B 9932  13.029  42.965   8.264
  517POPC   C3B 9933  13.061  42.887   7.964
  517POPC   C4B 9934  13.001  42.942   7.664
  518POPC   NC3 9935  38.482  34.546   9.464
  518POPC   PO4 9936  38.440  34.560   9.164
  518POPC   GL1 9937  38.446  34.582   8.864
  518POPC   GL2 9938  38.543  34.649   8.864
  518POPC   C1A 9939  38.470  34.549   8.564
  518POPC   D2A 9940  38.413  34.610   8.264
  518POPC   C3A 9941  38.420  34.543   7.964
  518POPC   C4A 9942  38.415  34.592   7.664
  518POPC   C1B 9943  38.654  34.727   8.564
  518POPC   C2B 9944  38.646  34.709   8.264
  518POPC   C3B 9945  38.665  34.681   7.964
  518POPC   C4B 9946  38.700  34.686   7.664
  519POPC   NC3 9947  22.142  16.726   9.464
  519POPC   PO4 9948  22.143  16.745   9.164
  519POPC   GL1 9949  22.147  16.699   8.864
  519POPC   GL2 9950  22.269  16.717   8.864
  519POPC   C1A 9951  22.156  16.761   8.564
  519POPC   D2A 9952  22.193  16.733   8.264
  519POPC   C3A 9953  22.143  16.700   7.964
  519POPC   C4A 9954  22.122  16.706   7.664
  519POPC   C1B 9955  22.369  16.786   8.564
  519POPC   C2B 9956  22.383  16.794   8.264
  519POPC   C3B 9957  22.408  16.814   7.964
  519POPC   C4B 9958  22.435  16.772   7.664
  520POPC   NC3 9959  15.916  12.068   9.464
  520POPC   PO4 9960  15.915  12.039   9.164
  520POPC   GL1 9961  15.927  12.054   8.864
  520POPC   GL2 9962  16.057  12.084   8.864
  520POPC   C1A 9963  15.950  12.091   8.564
  520POPC   D2A 9964  15.913  12.093   8.264
  520POPC   C3A 9965  15.912  12.092   7.964
  520POPC   C4A 9966  15.961  12.059   7.664
  520POPC   C1B 9967  16.223  12.144   8.564
  520POPC   C2B 9968  16.227  12.192   8.264
  520POPC   C3B 9969  16.231  12.144   7.964
  520POPC   C4B 9970  16.223  12.140   7.664
  521POPC   NC3 9971  32.236  41.543   9.464
  521POPC   PO4 9972  32.234  41.605   9.164
  521POPC   GL1 9973  32.262  41.552   8.864
  521POPC   GL2 9974  32.311  41.424   8.864
  521POPC   C1A 9975  32.273  41.532   8.564
  521POPC   D2A 9976  32.248  41.553   8.264
  521POPC   C3A 9977  32.288  41.569   7.964
  521POPC   C4A 9978  32.297  41.553   7.664
  521POPC   C1B 9979  32.399  41.334   8.564
  521POPC   C2B 9980  32.379  41.399   8.264
  521POPC   C3B 9981  32.434  41.371   7.964
  521POPC   C4B 9982  32.339  41.327   7.664
  522POPC   NC3 9983  35.380   2.751   9.464
  522POPC   PO4 9984  35.313   2.815   9.164
  522POPC   GL1 9985  35.398   2.801   8.864
  522POPC   GL2 9986  35.405   2.871   8.864
  522POPC   C1A 9987  35.314   2.802   8.564
  522POPC   D2A 9988  35.362   2.766   8.264
  522POPC   C3A 9989  35.389   2.773   7.964
  522POPC   C4A 9990  35.334   2.734   7.664
  522POPC   C1B 9991  35.524   2.977   8.564
  522POPC   C2B 9992  35.497   2.939   8.264
  522POPC   C3B 9993  35.492   3.019   7.964
  522POPC   C4B 9994  35.467   2.952   7.664
  523POPC   NC3 9995  28.409  19.790   9.464
  523POPC   PO4 9996  28.373  19.848   9.164
  523POPC   GL1 9997  28.335  19.806   8.864
  523POPC   GL2 9998  28.297  19.888   8.864
  523POPC   C1A 9999  28.338  19.838   8.564
  523POPC   D2A10000  28.365  19.817   8.264
  523POPC   C3A10001  28.341  19.808   7.964
  523POPC   C4A10002  28.357  19.838   7.664
  523POPC   C1B10003  28.204  20.076   8.564
  523POPC   C2B10004  28.187  20.024   8.264
  523POPC   C3B10005  28.221  20.005   7.964
  523POPC   C4B10006  28.184  20.054   7.664
  524POPC   NC310007  17.460   9.732   9.464
  524POPC   PO410008  17.543   9.709   9.164
  524POPC   GL110009  17.548   9.771   8.864
  524POPC   GL210010  17.626   9.668   8.864
  524POPC   C1A10011  17.498   9.728   8.564
  524POPC   D2A10012  17.554   9.773   8.264
  524POPC   C3A10013  17.554   9.706   7.964
  524POPC   C4A10014  17.457   9.735   7.664
  524POPC   C1B10015  17.643   9.525   8.564
  524POPC   C2B10016  17.718   9.560   8.264
  524POPC   C3B10017  17.724   9.541   7.964
  524POPC   C4B10018  17.638   9.527   7.664
  525POPC   NC310019  29.924  44.618   9.464
  525POPC   PO410020  29.901  44.702   9.164
  525POPC   GL110021  29.900  44.614   8.864
  525POPC   GL210022  29.781  44.620   8.864
  525POPC   C1A10023  29.956  44.647   8.564
  525POPC   D2A10024  29.957  44.678   8.264
  525POPC   C3A10025  29.871  44.615   7.964
  525POPC   C4A10026  29.952  44.656   7.664
  525POPC   C1B10027  29.665  44.538   8.564
  525POPC   C2B10028  29.718  44.630   8.264
  525POPC   C3B10029  29.672  44.565   7.964
  525POPC   C4B10030  29.700  44.597   7.664
  526POPC   NC310031  19.095  21.348   9.464
  526POPC   PO410032  19.048  21.369   9.164
  526POPC   GL110033  19.102  21.390   8.864
  526POPC   GL210034  19.165  21.420   8.864
  526POPC   C1A10035  19.070  21.413   8.564
  526POPC   D2A10036  19.028  21.346   8.264
  526POPC   C3A10037  19.033  21.375   7.964
  526POPC   C4A10038  19.102  21.351   7.664
  526POPC   C1B10039  19.274  21.551   8.564
  526POPC   C2B10040  19.285  21.510   8.264
  526POPC   C3B10041  19.260  21.525   7.964
  526POPC   C4B10042  19.251  21.488   7.664
  527POPC   NC310043  18.288  15.213   9.464
  527POPC   PO410044  18.242  15.217   9.164
  527POPC   GL110045  18.314  15.219   8.864
  527POPC   GL210046  18.372  15.035   8.864
  527POPC   C1A10047  18.279  15.170   8.564
  527POPC   D2A10048  18.277  15.189   8.264
  527POPC   C3A10049  18.282  15.187   7.964
  527POPC   C4A10050  18.262  15.144   7.664
  527POPC   C1B10051  18.472  14.968   8.564
  527POPC   C2B10052  18.430  14.978   8.264
  527POPC   C3B10053  18.476  15.013   7.964
  527POPC   C4B10054  18.395  14.964   7.664
  528POPC   NC310055  39.247  35.401   9.464
  528POPC   PO410056  39.225  35.327   9.164
  528POPC   GL110057  39.215  35.304   8.864
  528POPC   GL210058  39.179  35.433   8.864
  528POPC   C1A10059  39.242  35.340   8.564
  528POPC   D2A10060  39.184  35.358   8.264
  528POPC   C3A10061  39.188  35.345   7.964
  528POPC   C4A10062  39.215  35.400   7.664
  528POPC   C1B10063  39.082  35.555   8.564
  528POPC   C2B10064  39.069  35.573   8.264
  528POPC   C3B10065  39.010  35.503   7.964
  528POPC   C4B10066  39.093  35.570   7.664
  529POPC   NC310067  12.887  15.202   9.464
  529POPC   PO410068  12.841  15.214   9.164
  529POPC   GL110069  12.882  15.156   8.864
  529POPC   GL210070  12.891  15.006   8.864
  529POPC   C1A10071  12.812  15.157   8.564
  529POPC   D2A10072  12.881  15.142   8.264
  529POPC   C3A10073  12.811  15.161   7.964
  529POPC   C4A10074  12.866  15.218   7.664
  529POPC   C1B10075  12.857  14.973   8.564
  529POPC   C2B10076  12.845  14.952   8.264
  529POPC   C3B10077  12.887  14.961   7.964
  529POPC   C4B10078  12.841  14.977   7.664
  530POPC   NC310079  29.107  11.261   9.464
  530POPC   PO410080  29.125  11.289   9.164
  530POPC   GL110081  29.156  11.339   8.864
  530POPC   GL210082  29.142  11.394   8.864
  530POPC   C1A10083  29.155  11.347   8.564
  530POPC   D2A10084  29.188  11.295   8.264
  530POPC   C3A10085  29.156  11.272   7.964
  530POPC   C4A10086  29.182  11.325   7.664
  530POPC   C1B10087  29.192  11.575   8.564
  530POPC   C2B10088  29.137  11.546   8.264
  530POPC   C3B10089  29.181  11.533   7.964
  530POPC   C4B10090  29.202  11.587   7.664
  531POPC   NC310091  40.041  23.751   9.464
  531POPC   PO410092  39.993  23.673   9.164
  531POPC   GL110093  40.012  23.695   8.864
  531POPC   GL210094  39.863  23.737   8.864
  531POPC   C1A10095  39.963  23.679   8.564
  531POPC   D2A10096  39.966  23.716   8.264
  531POPC   C3A10097  40.044  23.667   7.964
  531POPC   C4A10098  40.051  23.746   7.664
  531POPC   C1B10099  39.796  23.808   8.564
  531POPC   C2B10100  39.758  23.808   8.264
  531POPC   C3B10101  39.779  23.749   7.964
  531POPC   C4B10102  39.788  23.776   7.664
  532POPC   NC310103  33.036  12.040   9.464
  532POPC   PO410104  33.021  12.063   9.164
  532POPC   GL110105  33.005  12.094   8.864
  532POPC   GL210106  33.076  12.218   8.864
  532POPC   C1A10107  33.006  12.050   8.564
  532POPC   D2A10108  33.054  12.045   8.264
  532POPC   C3A10109  33.072  12.099   7.964
  532POPC   C4A10110  33.019  12.036   7.664
  532POPC   C1B10111  33.042  12.275   8.564
  532POPC   C2B10112  33.037  12.300   8.264
  532POPC   C3B10113  33.114  12.315   7.964
  532POPC   C4B10114  33.034  12.348   7.664
  533POPC   NC310115  32.260  12.888   9.464
  533POPC   PO410116  32.289  12.875   9.164
  533POPC   GL110117  32.276  12.803   8.864
  533POPC   GL210118  32.267  12.684   8.864
  533POPC   C1A10119  32.270  12.875   8.564
  533POPC   D2A10120  32.271  12.852   8.264
  533POPC   C3A10121  32.282  12.825   7.964
  533POPC   C4A10122  32.215  12.871   7.664
  533POPC   C1B10123  32.283  12.567   8.564
  533POPC   C2B10124  32.256  12.586   8.264
  533POPC   C3B10125  32.280  12.591   7.964
  533POPC   C4B10126  32.283  12.584   7.664
  534POPC   NC310127  15.160  43.907   9.464
  534POPC   PO410128  15.226  43.904   9.164
  534POPC   GL110129  15.147  43.855   8.864
  534POPC   GL210130  15.067  44.019   8.864
  534POPC   C1A10131  15.188  43.844   8.564
  534POPC   D2A10132  15.219  43.871   8.264
  534POPC   C3A10133  15.154  43.905   7.964
  534POPC   C4A10134  15.153  43.882   7.664
  534POPC   C1B10135  15.065  44.069   8.564
  534POPC   C2B10136  14.997  44.078   8.264
  534POPC   C3B10137  15.044  44.114   7.964
  534POPC   C4B10138  15.041  44.065   7.664
  535POPC   NC310139  29.134  25.265   9.464
  535POPC   PO410140  29.194  25.277   9.164
  535POPC   GL110141  29.144  25.299   8.864
  535POPC   GL210142  29.283  25.321   8.864
  535POPC   C1A10143  29.148  25.247   8.564
  535POPC   D2A10144  29.181  25.232   8.264
  535POPC   C3A10145  29.115  25.236   7.964
  535POPC   C4A10146  29.184  25.229   7.664
  535POPC   C1B10147  29.404  25.403   8.564
  535POPC   C2B10148  29.406  25.398   8.264
  535POPC   C3B10149  29.384  25.431   7.964
  535POPC   C4B10150  29.385  25.412   7.664
  536POPC   NC310151   6.615  34.606   9.464
  536POPC   PO410152   6.651  34.606   9.164
  536POPC   GL110153   6.619  34.601   8.864
  536POPC   GL210154   6.525  34.519   8.864
  536POPC   C1A10155   6.628  34.624   8.564
  536POPC   D2A10156   6.610  34.599   8.264
  536POPC   C3A10157   6.630  34.623   7.964
  536POPC   C4A10158   6.647  34.556   7.664
  536POPC   C1B10159   6.404  34.477   8.564
  536POPC   C2B10160   6.420  34.428   8.264
  536POPC   C3B10161   6.401  34.389   7.964
  536POPC   C4B10162   6.453  34.414   7.664
  537POPC   NC310163  28.359  27.573   9.464
  537POPC   PO410164  28.401  27.596   9.164
  537POPC   GL110165  28.363  27.637   8.864
  537POPC   GL210166  28.291  27.715   8.864
  537POPC   C1A10167  28.377  27.584   8.564
  537POPC   D2A10168  28.374  27.586   8.264
  537POPC   C3A10169  28.343  27.642   7.964
  537POPC   C4A10170  28.371  27.620   7.664
  537POPC   C1B10171  28.171  27.702   8.564
  537POPC   C2B10172  28.158  27.788   8.264
  537POPC   C3B10173  28.198  27.759   7.964
  537POPC   C4B10174  28.186  27.759   7.664
  538POPC   NC310175   5.872  17.479   9.464
  538POPC   PO410176   5.822  17.551   9.164
  538POPC   GL110177   5.840  17.482   8.864
  538POPC   GL210178   5.827  17.640   8.864
  538POPC   C1A10179   5.916  17.542   8.564
  538POPC   D2A10180   5.881  17.528   8.264
  538POPC   C3A10181   5.894  17.472   7.964
  538POPC   C4A10182   5.823  17.465   7.664
  538POPC   C1B10183   5.728  17.706   8.564
  538POPC   C2B10184   5.716  17.757   8.264
  538POPC   C3B10185   5.694  17.755   7.964
  538POPC   C4B10186   5.693  17.757   7.664
  539POPC   NC310187  22.943  44.618   9.464
  539POPC   PO410188  22.965  44.708   9.164
  539POPC   GL110189  22.979  44.682   8.864
  539POPC   GL210190  23.049  44.639   8.864
  539POPC   C1A10191  22.927  44.705   8.564
  539POPC   D2A10192  22.976  44.658   8.264
  539POPC   C3A10193  22.976  44.656   7.964
  539POPC   C4A10194  22.953  44.650   7.664
  539POPC   C1B10195  23.140  44.591   8.564
  539POPC   C2B10196  23.138  44.630   8.264
  539POPC   C3B10197  23.148  44.629   7.964
  539POPC   C4B10198  23.165  44.610   7.664
  540POPC   NC310199  37.641  41.608   9.464
  540POPC   PO410200  37.674  41.515   9.164
  540POPC   GL110201  37.709  41.525   8.864
  540POPC   GL210202  37.506  41.566   8.864
  540POPC   C1A10203  37.668  41.561   8.564
  540POPC   D2A10204  37.719  41.540   8.264
  540POPC   C3A10205  37.663  41.576   7.964
  540POPC   C4A10206  37.663  41.539   7.664
  540POPC   C1B10207  37.422  41.575   8.564
  540POPC   C2B10208  37.458  41.539   8.264
  540POPC   C3B10209  37.466  41.586   7.964
  540POPC   C4B10210  37.454  41.607   7.664
  541POPC   NC310211   1.224  17.500   9.464
  541POPC   PO410212   1.246  17.493   9.164
  541POPC   GL110213   1.252  17.494   8.864
  541POPC   GL210214   1.140  17.547   8.864
  541POPC   C1A10215   1.260  17.495   8.564
  541POPC   D2A10216   1.262  17.486   8.264
  541POPC   C3A10217   1.257  17.500   7.964
  541POPC   C4A10218   1.222  17.534   7.664
  541POPC   C1B10219   1.047  17.608   8.564
  541POPC   C2B10220   0.990  17.629   8.264
  541POPC   C3B10221   1.056  17.597   7.964
  541POPC   C4B10222   0.963  17.693   7.664
  542POPC   NC310223  19.103   5.868   9.464
  542POPC   PO410224  19.091   5.896   9.164
  542POPC   GL110225  19.056   5.842   8.864
  542POPC   GL210226  19.088   5.733   8.864
  542POPC   C1A10227  19.013   5.888   8.564
  542POPC   D2A10228  19.032   5.881   8.264
  542POPC   C3A10229  19.042   5.826   7.964
  542POPC   C4A10230  19.088   5.884   7.664
  542POPC   C1B10231  19.005   5.603   8.564
  542POPC   C2B10232  19.021   5.578   8.264
  542POPC   C3B10233  19.010   5.591   7.964
  542POPC   C4B10234  19.016   5.668   7.664
  543POPC   NC310235   4.353  26.843   9.464
  543POPC   PO410236   4.292  26.823   9.164
  543POPC   GL110237   4.329  26.855   8.864
  543POPC   GL210238   4.321  26.923   8.864
  543POPC   C1A10239   4.282  26.831   8.564
  543POPC   D2A10240   4.351  26.802   8.264
  543POPC   C3A10241   4.299  26.817   7.964
  543POPC   C4A10242   4.351  26.826   7.664
  543POPC   C1B10243   4.467  27.037   8.564
  543POPC   C2B10244   4.469  27.038   8.264
  543POPC   C3B10245   4.466  27.018   7.964
  543POPC   C4B10246   4.412  27.066   7.664
  544POPC   NC310247   3.587   5.910   9.464
  544POPC   PO410248   3.534   5.883   9.164
  544POPC   GL110249   3.564   5.885   8.864
  544POPC   GL210250   3.415   5.738   8.864
  544POPC   C1A10251   3.575   5.824   8.564
  544POPC   D2A10252   3.510   5.876   8.264
  544POPC   C3A10253   3.577   5.828   7.964
  544POPC   C4A10254   3.563   5.866   7.664
  544POPC   C1B10255   3.393   5.699   8.564
  544POPC   C2B10256   3.325   5.669   8.264
  544POPC   C3B10257   3.368   5.675   7.964
  544POPC   C4B10258   3.385   5.662   7.664
  545POPC   NC310259   2.788  43.910   9.464
  545POPC   PO410260   2.721  43.854   9.164
  545POPC   GL110261   2.808  43.855   8.864
  545POPC   GL210262   2.895  43.974   8.864
  545POPC   C1A10263   2.806  43.891   8.564
  545POPC   D2A10264   2.760  43.875   8.264
  545POPC   C3A10265   2.803  43.879   7.964
  545POPC   C4A10266   2.815  43.894   7.664
  545POPC   C1B10267   2.992  44.021   8.564
  545POPC   C2B10268   2.983  44.059   8.264
  545POPC   C3B10269   2.945  44.019   7.964
  545POPC   C4B10270   2.947  44.034   7.664
  546POPC   NC310271  35.393  27.583   9.464
  546POPC   PO410272  35.344  27.608   9.164
  546POPC   GL110273  35.338  27.574   8.864
  546POPC   GL210274  35.303  27.514   8.864
  546POPC   C1A10275  35.380  27.640   8.564
  546POPC   D2A10276  35.321  27.596   8.264
  546POPC   C3A10277  35.324  27.592   7.964
  546POPC   C4A10278  35.373  27.601   7.664
  546POPC   C1B10279  35.197  27.402   8.564
  546POPC   C2B10280  35.174  27.444   8.264
  546POPC   C3B10281  35.181  27.407   7.964
  546POPC   C4B10282  35.128  27.410   7.664
  547POPC   NC310283  37.681  15.908   9.464
  547POPC   PO410284  37.686  15.964   9.164
  547POPC   GL110285  37.714  15.980   8.864
  547POPC   GL210286  37.767  15.833   8.864
  547POPC   C1A10287  37.653  15.987   8.564
  547POPC   D2A10288  37.655  15.996   8.264
  547POPC   C3A10289  37.726  15.938   7.964
  547POPC   C4A10290  37.662  15.920   7.664
  547POPC   C1B10291  37.750  15.708   8.564
  547POPC   C2B10292  37.748  15.737   8.264
  547POPC   C3B10293  37.733  15.749   7.964
  547POPC   C4B10294  37.785  15.744   7.664
  548POPC   NC310295  17.510  37.656   9.464
  548POPC   PO410296  17.515  37.689   9.164
  548POPC   GL110297  17.554  37.723   8.864
  548POPC   GL210298  17.585  37.616   8.864
  548POPC   C1A10299  17.511  37.686   8.564
  548POPC   D2A10300  17.543  37.697   8.264
  548POPC   C3A10301  17.482  37.659   7.964
  548POPC   C4A10302  17.556  37.678   7.664
  548POPC   C1B10303  17.646  37.508   8.564
  548POPC   C2B10304  17.689  37.519   8.264
  548POPC   C3B10305  17.620  37.456   7.964
  548POPC   C4B10306  17.665  37.454   7.664
  549POPC   NC310307  15.993  13.582   9.464
  549POPC   PO410308  15.946  13.641   9.164
  549POPC   GL110309  15.914  13.621   8.864
  549POPC   GL210310  16.021  13.524   8.864
  549POPC   C1A10311  15.951  13.665   8.564
  549POPC   D2A10312  15.955  13.579   8.264
  549POPC   C3A10313  15.938  13.648   7.964
  549POPC   C4A10314  15.970  13.660   7.664
  549POPC   C1B10315  16.012  13.393   8.564
  549POPC   C2B10316  16.058  13.354   8.264
  549POPC   C3B10317  15.986  13.429   7.964
  549POPC   C4B10318  16.031  13.416   7.664
  550POPC   NC310319   9.727  20.624   9.464
  550POPC   PO410320   9.711  20.593   9.164
  550POPC   GL110321   9.715  20.635   8.864
  550POPC   GL210322   9.864  20.607   8.864
  550POPC   C1A10323   9.711  20.591   8.564
  550POPC   D2A10324   9.766  20.638   8.264
  550POPC   C3A10325   9.721  20.603   7.964
  550POPC   C4A10326   9.724  20.633   7.664
  550POPC   C1B10327   9.956  20.749   8.564
  550POPC   C2B10328   9.946  20.682   8.264
  550POPC   C3B10329   9.967  20.686   7.964
  550POPC   C4B10330   9.978  20.664   7.664
  551POPC   NC310331  40.794  36.082   9.464
  551POPC   PO410332  40.794  36.176   9.164
  551POPC   GL110333  40.792  36.106   8.864
  551POPC   GL210334  40.663  36.091   8.864
  551POPC   C1A10335  40.769  36.093   8.564
  551POPC   D2A10336  40.747  36.174   8.264
  551POPC   C3A10337  40.781  36.093   7.964
  551POPC   C4A10338  40.815  36.164   7.664
  551POPC   C1B10339  40.571  35.918   8.564
  551POPC   C2B10340  40.600  35.947   8.264
  551POPC   C3B10341  40.614  35.979   7.964
  551POPC   C4B10342  40.632  35.937   7.664
  552POPC   NC310343  14.437   9.749   9.464
  552POPC   PO410344  14.428   9.739   9.164
  552POPC   GL110345  14.396   9.758   8.864
  552POPC   GL210346  14.299   9.824   8.864
  552POPC   C1A10347  14.432   9.764   8.564
  552POPC   D2A10348  14.402   9.757   8.264
  552POPC   C3A10349  14.368   9.707   7.964
  552POPC   C4A10350  14.397   9.720   7.664
  552POPC   C1B10351  14.230   9.990   8.564
  552POPC   C2B10352  14.225   9.960   8.264
  552POPC   C3B10353  14.305   9.973   7.964
  552POPC   C4B10354  14.299   9.951   7.664
  553POPC   NC310355  19.009  25.228   9.464
  553POPC   PO410356  19.030  25.286   9.164
  553POPC   GL110357  19.076  25.299   8.864
  553POPC   GL210358  19.123  25.184   8.864
  553POPC   C1A10359  19.066  25.241   8.564
  553POPC   D2A10360  19.071  25.259   8.264
  553POPC   C3A10361  19.089  25.220   7.964
  553POPC   C4A10362  19.052  25.239   7.664
  553POPC   C1B10363  19.322  25.156   8.564
  553POPC   C2B10364  19.240  25.180   8.264
  553POPC   C3B10365  19.274  25.126   7.964
  553POPC   C4B10366  19.301  25.092   7.664
  554POPC   NC310367  42.368   8.934   9.464
  554POPC   PO410368  42.337   9.016   9.164
  554POPC   GL110369  42.335   8.986   8.864
  554POPC   GL210370  42.327   9.083   8.864
  554POPC   C1A10371  42.294   9.016   8.564
  554POPC   D2A10372  42.373   8.961   8.264
  554POPC   C3A10373  42.383   8.927   7.964
  554POPC   C4A10374  42.373   8.964   7.664
  554POPC   C1B10375  42.231   9.207   8.564
  554POPC   C2B10376  42.276   9.174   8.264
  554POPC   C3B10377  42.217   9.211   7.964
  554POPC   C4B10378  42.294   9.176   7.664
  555POPC   NC310379   7.452  41.590   9.464
  555POPC   PO410380   7.404  41.530   9.164
  555POPC   GL110381   7.375  41.605   8.864
  555POPC   GL210382   7.365  41.631   8.864
  555POPC   C1A10383   7.459  41.516   8.564
  555POPC   D2A10384   7.447  41.601   8.264
  555POPC   C3A10385   7.376  41.599   7.964
  555POPC   C4A10386   7.404  41.576   7.664
  555POPC   C1B10387   7.326  41.727   8.564
  555POPC   C2B10388   7.317  41.744   8.264
  555POPC   C3B10389   7.269  41.734   7.964
  555POPC   C4B10390   7.237  41.749   7.664
  556POPC   NC310391   8.992  12.830   9.464
  556POPC   PO410392   8.998  12.878   9.164
  556POPC   GL110393   9.020  12.893   8.864
  556POPC   GL210394   8.810  12.874   8.864
  556POPC   C1A10395   9.002  12.857   8.564
  556POPC   D2A10396   8.969  12.898   8.264
  556POPC   C3A10397   8.971  12.815   7.964
  556POPC   C4A10398   8.982  12.814   7.664
  556POPC   C1B10399   8.709  12.854   8.564
  556POPC   C2B10400   8.683  12.919   8.264
  556POPC   C3B10401   8.736  12.835   7.964
  556POPC   C4B10402   8.701  12.883   7.664
  557POPC   NC310403  25.260  43.140   9.464
  557POPC   PO410404  25.257  43.113   9.164
  557POPC   GL110405  25.261  43.077   8.864
  557POPC   GL210406  25.288  43.271   8.864
  557POPC   C1A10407  25.267  43.063   8.564
  557POPC   D2A10408  25.274  43.072   8.264
  557POPC   C3A10409  25.241  43.154   7.964
  557POPC   C4A10410  25.274  43.113   7.664
  557POPC   C1B10411  25.240  43.318   8.564
  557POPC   C2B10412  25.291  43.326   8.264
  557POPC   C3B10413  25.233  43.410   7.964
  557POPC   C4B10414  25.319  43.403   7.664
  558POPC   NC310415  15.906   4.328   9.464
  558POPC   PO410416  15.977   4.275   9.164
  558POPC   GL110417  16.001   4.300   8.864
  558POPC   GL210418  16.053   4.419   8.864
  558POPC   C1A10419  15.949   4.297   8.564
  558POPC   D2A10420  15.921   4.333   8.264
  558POPC   C3A10421  15.918   4.321   7.964
  558POPC   C4A10422  15.992   4.345   7.664
  558POPC   C1B10423  16.116   4.470   8.564
  558POPC   C2B10424  16.117   4.486   8.264
  558POPC   C3B10425  16.059   4.482   7.964
  558POPC   C4B10426  16.140   4.533   7.664
  559POPC   NC310427  12.870  15.921   9.464
  559POPC   PO410428  12.880  15.972   9.164
  559POPC   GL110429  12.872  15.923   8.864
  559POPC   GL210430  12.748  16.073   8.864
  559POPC   C1A10431  12.816  15.966   8.564
  559POPC   D2A10432  12.812  15.932   8.264
  559POPC   C3A10433  12.895  15.974   7.964
  559POPC   C4A10434  12.855  15.971   7.664
  559POPC   C1B10435  12.770  16.217   8.564
  559POPC   C2B10436  12.691  16.156   8.264
  559POPC   C3B10437  12.765  16.161   7.964
  559POPC   C4B10438  12.731  16.212   7.664
  560POPC   NC310439  30.744   3.561   9.464
  560POPC   PO410440  30.737   3.519   9.164
  560POPC   GL110441  30.682   3.562   8.864
  560POPC   GL210442  30.613   3.504   8.864
  560POPC   C1A10443  30.677   3.561   8.564
  560POPC   D2A10444  30.700   3.508   8.264
  560POPC   C3A10445  30.719   3.496   7.964
  560POPC   C4A10446  30.675   3.534   7.664
  560POPC   C1B10447  30.480   3.479   8.564
  560POPC   C2B10448  30.443   3.481   8.264
  560POPC   C3B10449  30.491   3.461   7.964
  560POPC   C4B10450  30.499   3.489   7.664
  561POPC   NC310451  38.421   8.945   9.464
  561POPC   PO410452  38.483   8.945   9.164
  561POPC   GL110453  38.462   8.964   8.864
  561POPC   GL210454  38.560   8.940   8.864
  561POPC   C1A10455  38.438   8.970   8.564
  561POPC   D2A10456  38.408   9.000   8.264
  561POPC   C3A10457  38.415   8.986   7.964
  561POPC   C4A10458  38.432   9.014   7.664
  561POPC   C1B10459  38.680   8.920   8.564
  561POPC   C2B10460  38.707   8.957   8.264
  561POPC   C3B10461  38.659   8.931   7.964
  561POPC   C4B10462  38.745   8.952   7.664
  562POPC   NC310463  26.018  35.391   9.464
  562POPC   PO410464  26.024  35.380   9.164
  562POPC   GL110465  26.083  35.330   8.864
  562POPC   GL210466  26.040  35.225   8.864
  562POPC   C1A10467  26.076  35.357   8.564
  562POPC   D2A10468  26.070  35.338   8.264
  562POPC   C3A10469  26.068  35.378   7.964
  562POPC   C4A10470  26.007  35.344   7.664
  562POPC   C1B10471  26.142  35.157   8.564
  562POPC   C2B10472  26.126  35.131   8.264
  562POPC   C3B10473  26.081  35.164   7.964
  562POPC   C4B10474  26.084  35.149   7.664
  563POPC   NC310475  18.295  33.839   9.464
  563POPC   PO410476  18.310  33.800   9.164
  563POPC   GL110477  18.333  33.766   8.864
  563POPC   GL210478  18.294  33.966   8.864
  563POPC   C1A10479  18.267  33.831   8.564
  563POPC   D2A10480  18.261  33.776   8.264
  563POPC   C3A10481  18.244  33.826   7.964
  563POPC   C4A10482  18.323  33.794   7.664
  563POPC   C1B10483  18.256  34.093   8.564
  563POPC   C2B10484  18.242  34.067   8.264
  563POPC   C3B10485  18.247  34.053   7.964
  563POPC   C4B10486  18.282  34.080   7.664
  564POPC   NC310487  21.420  24.512   9.464
  564POPC   PO410488  21.377  24.512   9.164
  564POPC   GL110489  21.433  24.469   8.864
  564POPC   GL210490  21.526  24.512   8.864
  564POPC   C1A10491  21.406  24.492   8.564
  564POPC   D2A10492  21.402  24.520   8.264
  564POPC   C3A10493  21.346  24.532   7.964
  564POPC   C4A10494  21.342  24.463   7.664
  564POPC   C1B10495  21.577  24.637   8.564
  564POPC   C2B10496  21.599  24.636   8.264
  564POPC   C3B10497  21.630  24.552   7.964
  564POPC   C4B10498  21.643  24.630   7.664
  565POPC   NC310499  17.479  26.007   9.464
  565POPC   PO410500  17.517  26.061   9.164
  565POPC   GL110501  17.523  26.080   8.864
  565POPC   GL210502  17.559  26.124   8.864
  565POPC   C1A10503  17.476  26.082   8.564
  565POPC   D2A10504  17.534  26.021   8.264
  565POPC   C3A10505  17.532  26.037   7.964
  565POPC   C4A10506  17.529  26.009   7.664
  565POPC   C1B10507  17.570  26.243   8.564
  565POPC   C2B10508  17.604  26.327   8.264
  565POPC   C3B10509  17.583  26.307   7.964
  565POPC   C4B10510  17.542  26.320   7.664
  566POPC   NC310511  27.621  24.523   9.464
  566POPC   PO410512  27.580  24.490   9.164
  566POPC   GL110513  27.613  24.485   8.864
  566POPC   GL210514  27.690  24.419   8.864
  566POPC   C1A10515  27.630  24.538   8.564
  566POPC   D2A10516  27.568  24.504   8.264
  566POPC   C3A10517  27.611  24.468   7.964
  566POPC   C4A10518  27.565  24.530   7.664
  566POPC   C1B10519  27.780  24.348   8.564
  566POPC   C2B10520  27.781  24.367   8.264
  566POPC   C3B10521  27.801  24.354   7.964
  566POPC   C4B10522  27.773  24.330   7.664
  567POPC   NC310523  18.238  14.431   9.464
  567POPC   PO410524  18.303  14.376   9.164
  567POPC   GL110525  18.277  14.367   8.864
  567POPC   GL210526  18.439  14.427   8.864
  567POPC   C1A10527  18.243  14.408   8.564
  567POPC   D2A10528  18.254  14.356   8.264
  567POPC   C3A10529  18.251  14.422   7.964
  567POPC   C4A10530  18.325  14.409   7.664
  567POPC   C1B10531  18.534  14.488   8.564
  567POPC   C2B10532  18.528  14.467   8.264
  567POPC   C3B10533  18.468  14.520   7.964
  567POPC   C4B10534  18.520  14.497   7.664
  568POPC   NC310535  37.654  40.817   9.464
  568POPC   PO410536  37.709  40.799   9.164
  568POPC   GL110537  37.633  40.791   8.864
  568POPC   GL210538  37.753  40.869   8.864
  568POPC   C1A10539  37.659  40.736   8.564
  568POPC   D2A10540  37.634  40.798   8.264
  568POPC   C3A10541  37.637  40.829   7.964
  568POPC   C4A10542  37.698  40.806   7.664
  568POPC   C1B10543  37.873  40.931   8.564
  568POPC   C2B10544  37.901  40.952   8.264
  568POPC   C3B10545  37.852  40.913   7.964
  568POPC   C4B10546  37.833  40.988   7.664
  569POPC   NC310547  41.566  10.537   9.464
  569POPC   PO410548  41.568  10.558   9.164
  569POPC   GL110549  41.545  10.519   8.864
  569POPC   GL210550  41.650  10.452   8.864
  569POPC   C1A10551  41.526  10.475   8.564
  569POPC   D2A10552  41.524  10.551   8.264
  569POPC   C3A10553  41.529  10.555   7.964
  569POPC   C4A10554  41.589  10.493   7.664
  569POPC   C1B10555  41.741  10.449   8.564
  569POPC   C2B10556  41.739  10.371   8.264
  569POPC   C3B10557  41.778  10.411   7.964
  569POPC   C4B10558  41.752  10.436   7.664
  570POPC   NC310559  19.061   7.407   9.464
  570POPC   PO410560  19.010   7.411   9.164
  570POPC   GL110561  19.030   7.422   8.864
  570POPC   GL210562  19.131   7.322   8.864
  570POPC   C1A10563  19.096   7.392   8.564
  570POPC   D2A10564  19.028   7.436   8.264
  570POPC   C3A10565  19.034   7.406   7.964
  570POPC   C4A10566  19.017   7.382   7.664
  570POPC   C1B10567  19.188   7.236   8.564
  570POPC   C2B10568  19.185   7.190   8.264
  570POPC   C3B10569  19.245   7.258   7.964
  570POPC   C4B10570  19.176   7.213   7.664
  571POPC   NC310571  33.764   9.730   9.464
  571POPC   PO410572  33.845   9.719   9.164
  571POPC   GL110573  33.821   9.775   8.864
  571POPC   GL210574  33.862   9.656   8.864
  571POPC   C1A10575  33.843   9.776   8.564
  571POPC   D2A10576  33.778   9.714   8.264
  571POPC   C3A10577  33.815   9.727   7.964
  571POPC   C4A10578  33.843   9.704   7.664
  571POPC   C1B10579  33.951   9.500   8.564
  571POPC   C2B10580  33.935   9.505   8.264
  571POPC   C3B10581  33.884   9.492   7.964
  571POPC   C4B10582  33.959   9.545   7.664
  572POPC   NC310583  43.885  10.513   9.464
  572POPC   PO410584  43.862  10.502   9.164
  572POPC   GL110585  43.924  10.572   8.864
  572POPC   GL210586  43.968  10.422   8.864
  572POPC   C1A10587  43.887  10.560   8.564
  572POPC   D2A10588  43.874  10.546   8.264
  572POPC   C3A10589  43.840  10.567   7.964
  572POPC   C4A10590  43.874  10.525   7.664
  572POPC   C1B10591  44.069  10.326   8.564
  572POPC   C2B10592  44.075  10.322   8.264
  572POPC   C3B10593  44.110  10.385   7.964
  572POPC   C4B10594  44.071  10.387   7.664
  573POPC   NC310595   6.666  29.911   9.464
  573POPC   PO410596   6.691  29.924   9.164
  573POPC   GL110597   6.692  29.952   8.864
  573POPC   GL210598   6.658  30.024   8.864
  573POPC   C1A10599   6.646  29.872   8.564
  573POPC   D2A10600   6.624  29.903   8.264
  573POPC   C3A10601   6.649  29.953   7.964
  573POPC   C4A10602   6.660  29.968   7.664
  573POPC   C1B10603   6.706  30.176   8.564
  573POPC   C2B10604   6.661  30.202   8.264
  573POPC   C3B10605   6.693  30.137   7.964
  573POPC   C4B10606   6.664  30.127   7.664
  574POPC   NC310607  34.541  32.260   9.464
  574POPC   PO410608  34.586  32.211   9.164
  574POPC   GL110609  34.536  32.241   8.864
  574POPC   GL210610  34.496  32.367   8.864
  574POPC   C1A10611  34.610  32.217   8.564
  574POPC   D2A10612  34.625  32.291   8.264
  574POPC   C3A10613  34.556  32.240   7.964
  574POPC   C4A10614  34.554  32.285   7.664
  574POPC   C1B10615  34.450  32.446   8.564
  574POPC   C2B10616  34.398  32.475   8.264
  574POPC   C3B10617  34.370  32.414   7.964
  574POPC   C4B10618  34.386  32.475   7.664
  575POPC   NC310619  13.606  20.593   9.464
  575POPC   PO410620  13.599  20.603   9.164
  575POPC   GL110621  13.579  20.625   8.864
  575POPC   GL210622  13.707  20.547   8.864
  575POPC   C1A10623  13.636  20.599   8.564
  575POPC   D2A10624  13.650  20.587   8.264
  575POPC   C3A10625  13.590  20.635   7.964
  575POPC   C4A10626  13.623  20.590   7.664
  575POPC   C1B10627  13.859  20.499   8.564
  575POPC   C2B10628  13.850  20.507   8.264
  575POPC   C3B10629  13.824  20.552   7.964
  575POPC   C4B10630  13.857  20.516   7.664
  576POPC   NC310631  15.935  16.778   9.464
  576POPC   PO410632  15.958  16.739   9.164
  576POPC   GL110633  15.939  16.697   8.864
  576POPC   GL210634  15.952  16.640   8.864
  576POPC   C1A10635  15.993  16.757   8.564
  576POPC   D2A10636  15.922  16.729   8.264
  576POPC   C3A10637  15.974  16.727   7.964
  576POPC   C4A10638  15.929  16.705   7.664
  576POPC   C1B10639  15.970  16.506   8.564
  576POPC   C2B10640  15.940  16.434   8.264
  576POPC   C3B10641  16.016  16.492   7.964
  576POPC   C4B10642  15.960  16.453   7.664
  577POPC   NC310643  18.279  34.549   9.464
  577POPC   PO410644  18.249  34.544   9.164
  577POPC   GL110645  18.243  34.555   8.864
  577POPC   GL210646  18.219  34.488   8.864
  577POPC   C1A10647  18.282  34.577   8.564
  577POPC   D2A10648  18.308  34.580   8.264
  577POPC   C3A10649  18.251  34.625   7.964
  577POPC   C4A10650  18.329  34.558   7.664
  577POPC   C1B10651  18.083  34.385   8.564
  577POPC   C2B10652  18.047  34.432   8.264
  577POPC   C3B10653  18.056  34.411   7.964
  577POPC   C4B10654  18.079  34.390   7.664
  578POPC   NC310655  13.579  31.462   9.464
  578POPC   PO410656  13.589  31.429   9.164
  578POPC   GL110657  13.591  31.474   8.864
  578POPC   GL210658  13.556  31.551   8.864
  578POPC   C1A10659  13.580  31.494   8.564
  578POPC   D2A10660  13.582  31.522   8.264
  578POPC   C3A10661  13.583  31.471   7.964
  578POPC   C4A10662  13.647  31.481   7.664
  578POPC   C1B10663  13.440  31.562   8.564
  578POPC   C2B10664  13.353  31.604   8.264
  578POPC   C3B10665  13.436  31.579   7.964
  578POPC   C4B10666  13.393  31.535   7.664
  579POPC   NC310667   3.579  35.364   9.464
  579POPC   PO410668   3.542  35.321   9.164
  579POPC   GL110669   3.528  35.356   8.864
  579POPC   GL210670   3.449  35.233   8.864
  579POPC   C1A10671   3.510  35.358   8.564
  579POPC   D2A10672   3.562  35.382   8.264
  579POPC   C3A10673   3.590  35.313   7.964
  579POPC   C4A10674   3.500  35.371   7.664
  579POPC   C1B10675   3.464  35.143   8.564
  579POPC   C2B10676   3.419  35.137   8.264
  579POPC   C3B10677   3.489  35.097   7.964
  579POPC   C4B10678   3.431  35.088   7.664
  580POPC   NC310679  44.704  29.923   9.464
  580POPC   PO410680  44.693  29.915   9.164
  580POPC   GL110681  44.706  29.883   8.864
  580POPC   GL210682  44.620  29.772   8.864
  580POPC   C1A10683  44.659  29.918   8.564
  580POPC   D2A10684  44.660  29.891   8.264
  580POPC   C3A10685  44.658  29.892   7.964
  580POPC   C4A10686  44.641  29.909   7.664
  580POPC   C1B10687  44.479  29.715   8.564
  580POPC   C2B10688  44.501  29.723   8.264
  580POPC   C3B10689  44.560  29.684   7.964
  580POPC   C4B10690  44.525  29.678   7.664
  581POPC   NC310691  26.846  29.899   9.464
  581POPC   PO410692  26.806  29.933   9.164
  581POPC   GL110693  26.814  29.930   8.864
  581POPC   GL210694  26.644  29.933   8.864
  581POPC   C1A10695  26.800  29.911   8.564
  581POPC   D2A10696  26.805  29.910   8.264
  581POPC   C3A10697  26.835  29.910   7.964
  581POPC   C4A10698  26.855  29.938   7.664
  581POPC   C1B10699  26.572  29.932   8.564
  581POPC   C2B10700  26.550  29.958   8.264
  581POPC   C3B10701  26.580  29.910   7.964
  581POPC   C4B10702  26.607  29.949   7.664
  582POPC   NC310703  31.448   5.052   9.464
  582POPC   PO410704  31.434   5.082   9.164
  582POPC   GL110705  31.443   5.116   8.864
  582POPC   GL210706  31.389   4.982   8.864
  582POPC   C1A10707  31.443   5.101   8.564
  582POPC   D2A10708  31.425   5.086   8.264
  582POPC   C3A10709  31.437   5.088   7.964
  582POPC   C4A10710  31.482   5.081   7.664
  582POPC   C1B10711  31.304   4.881   8.564
  582POPC   C2B10712  31.318   4.926   8.264
  582POPC   C3B10713  31.315   4.879   7.964
  582POPC   C4B10714  31.328   4.923   7.664
  583POPC   NC310715   1.944  11.265   9.464
  583POPC   PO410716   2.002  11.308   9.164
  583POPC   GL110717   2.024  11.269   8.864
  583POPC   GL210718   1.932  11.385   8.864
  583POPC   C1A10719   1.977  11.332   8.564
  583POPC   D2A10720   1.994  11.315   8.264
  583POPC   C3A10721   1.991  11.345   7.964
  583POPC   C4A10722   1.990  11.267   7.664
  583POPC   C1B10723   1.789  11.539   8.564
  583POPC   C2B10724   1.816  11.492   8.264
  583POPC   C3B10725   1.863  11.529   7.964
  583POPC   C4B10726   1.826  11.506   7.664
  584POPC   NC310727  22.946  19.793   9.464
  584POPC   PO410728  22.982  19.871   9.164
  584POPC   GL110729  22.979  19.875   8.864
  584POPC   GL210730  22.839  19.861   8.864
  584POPC   C1A10731  22.906  19.852   8.564
  584POPC   D2A10732  22.973  19.878   8.264
  584POPC   C3A10733  22.971  19.833   7.964
  584POPC   C4A10734  22.964  19.859   7.664
  584POPC   C1B10735  22.697  19.813   8.564
  584POPC   C2B10736  22.687  19.837   8.264
  584POPC   C3B10737  22.704  19.862   7.964
  584POPC   C4B10738  22.708  19.799   7.664
  585POPC   NC310739   5.089  37.729   9.464
  585POPC   PO410740   5.083  37.724   9.164
  585POPC   GL110741   5.084  37.727   8.864
  585POPC   GL210742   4.970  37.678   8.864
  585POPC   C1A10743   5.055  37.680   8.564
  585POPC   D2A10744   5.134  37.678   8.264
  585POPC   C3A10745   5.074  37.688   7.964
  585POPC   C4A10746   5.050  37.636   7.664
  585POPC   C1B10747   4.808  37.717   8.564
  585POPC   C2B10748   4.805  37.694   8.264
  585POPC   C3B10749   4.825  37.692   7.964
  585POPC   C4B10750   4.873  37.723   7.664
  586POPC   NC310751  18.315  22.202   9.464
  586POPC   PO410752  18.272  22.201   9.164
  586POPC   GL110753  18.275  22.197   8.864
  586POPC   GL210754  18.210  22.306   8.864
  586POPC   C1A10755  18.247  22.172   8.564
  586POPC   D2A10756  18.302  22.172   8.264
  586POPC   C3A10757  18.240  22.194   7.964
  586POPC   C4A10758  18.246  22.176   7.664
  586POPC   C1B10759  18.113  22.355   8.564
  586POPC   C2B10760  18.128  22.376   8.264
  586POPC   C3B10761  18.146  22.345   7.964
  586POPC   C4B10762  18.097  22.361   7.664
  587POPC   NC310763  39.252  39.240   9.464
  587POPC   PO410764  39.256  39.247   9.164
  587POPC   GL110765  39.198  39.270   8.864
  587POPC   GL210766  39.257  39.377   8.864
  587POPC   C1A10767  39.227  39.227   8.564
  587POPC   D2A10768  39.203  39.225   8.264
  587POPC   C3A10769  39.274  39.220   7.964
  587POPC   C4A10770  39.254  39.225   7.664
  587POPC   C1B10771  39.391  39.450   8.564
  587POPC   C2B10772  39.312  39.416   8.264
  587POPC   C3B10773  39.384  39.497   7.964
  587POPC   C4B10774  39.350  39.407   7.664
  588POPC   NC310775  34.550   5.894   9.464
  588POPC   PO410776  34.548   5.909   9.164
  588POPC   GL110777  34.532   5.848   8.864
  588POPC   GL210778  34.529   6.040   8.864
  588POPC   C1A10779  34.541   5.880   8.564
  588POPC   D2A10780  34.584   5.848   8.264
  588POPC   C3A10781  34.568   5.872   7.964
  588POPC   C4A10782  34.539   5.885   7.664
  588POPC   C1B10783  34.600   6.082   8.564
  588POPC   C2B10784  34.520   6.069   8.264
  588POPC   C3B10785  34.512   6.159   7.964
  588POPC   C4B10786  34.505   6.110   7.664
  589POPC   NC310787  12.079  26.791   9.464
  589POPC   PO410788  12.094  26.867   9.164
  589POPC   GL110789  12.100  26.846   8.864
  589POPC   GL210790  12.093  26.972   8.864
  589POPC   C1A10791  12.077  26.832   8.564
  589POPC   D2A10792  12.115  26.864   8.264
  589POPC   C3A10793  12.097  26.772   7.964
  589POPC   C4A10794  12.107  26.807   7.664
  589POPC   C1B10795  12.017  27.069   8.564
  589POPC   C2B10796  12.020  27.017   8.264
  589POPC   C3B10797  12.029  27.051   7.964
  589POPC   C4B10798  11.993  27.080   7.664
  590POPC   NC310799   2.812  21.418   9.464
  590POPC   PO410800   2.729  21.381   9.164
  590POPC   GL110801   2.755  21.406   8.864
  590POPC   GL210802   2.902  21.339   8.864
  590POPC   C1A10803   2.780  21.416   8.564
  590POPC   D2A10804   2.800  21.430   8.264
  590POPC   C3A10805   2.771  21.337   7.964
  590POPC   C4A10806   2.800  21.383   7.664
  590POPC   C1B10807   3.051  21.264   8.564
  590POPC   C2B10808   2.967  21.301   8.264
  590POPC   C3B10809   2.985  21.272   7.964
  590POPC   C4B10810   2.978  21.302   7.664
  591POPC   NC310811  42.322   3.570   9.464
  591POPC   PO410812  42.354   3.584   9.164
  591POPC   GL110813  42.317   3.563   8.864
  591POPC   GL210814  42.225   3.552   8.864
  591POPC   C1A10815  42.363   3.504   8.564
  591POPC   D2A10816  42.376   3.511   8.264
  591POPC   C3A10817  42.359   3.580   7.964
  591POPC   C4A10818  42.350   3.534   7.664
  591POPC   C1B10819  42.125   3.596   8.564
  591POPC   C2B10820  42.068   3.586   8.264
  591POPC   C3B10821  42.076   3.575   7.964
  591POPC   C4B10822  42.080   3.642   7.664
  592POPC   NC310823  19.814  21.429   9.464
  592POPC   PO410824  19.787  21.344   9.164
  592POPC   GL110825  19.858  21.434   8.864
  592POPC   GL210826  19.744  21.537   8.864
  592POPC   C1A10827  19.879  21.427   8.564
  592POPC   D2A10828  19.882  21.374   8.264
  592POPC   C3A10829  19.789  21.404   7.964
  592POPC   C4A10830  19.874  21.388   7.664
  592POPC   C1B10831  19.761  21.618   8.564
  592POPC   C2B10832  19.713  21.572   8.264
  592POPC   C3B10833  19.760  21.623   7.964
  592POPC   C4B10834  19.743  21.604   7.664
  593POPC   NC310835   4.343  12.094   9.464
  593POPC   PO410836   4.301  12.095   9.164
  593POPC   GL110837   4.354  12.083   8.864
  593POPC   GL210838   4.191  12.128   8.864
  593POPC   C1A10839   4.298  12.121   8.564
  593POPC   D2A10840   4.338  12.068   8.264
  593POPC   C3A10841   4.351  12.089   7.964
  593POPC   C4A10842   4.293  12.089   7.664
  593POPC   C1B10843   4.178  12.274   8.564
  593POPC   C2B10844   4.163  12.220   8.264
  593POPC   C3B10845   4.189  12.215   7.964
  593POPC   C4B10846   4.183  12.261   7.664
  594POPC   NC310847  11.341  15.205   9.464
  594POPC   PO410848  11.336  15.130   9.164
  594POPC   GL110849  11.276  15.221   8.864
  594POPC   GL210850  11.364  15.042   8.864
  594POPC   C1A10851  11.297  15.219   8.564
  594POPC   D2A10852  11.251  15.209   8.264
  594POPC   C3A10853  11.342  15.206   7.964
  594POPC   C4A10854  11.271  15.211   7.664
  594POPC   C1B10855  11.361  14.969   8.564
  594POPC   C2B10856  11.306  14.919   8.264
  594POPC   C3B10857  11.312  14.945   7.964
  594POPC   C4B10858  11.331  14.953   7.664
  595POPC   NC310859  19.878  22.963   9.464
  595POPC   PO410860  19.798  22.975   9.164
  595POPC   GL110861  19.869  22.966   8.864
  595POPC   GL210862  19.861  22.838   8.864
  595POPC   C1A10863  19.822  22.985   8.564
  595POPC   D2A10864  19.881  22.964   8.264
  595POPC   C3A10865  19.879  22.961   7.964
  595POPC   C4A10866  19.878  22.977   7.664
  595POPC   C1B10867  19.861  22.640   8.564
  595POPC   C2B10868  19.789  22.650   8.264
  595POPC   C3B10869  19.825  22.680   7.964
  595POPC   C4B10870  19.804  22.727   7.664
  596POPC   NC310871  39.982  24.444   9.464
  596POPC   PO410872  39.964  24.517   9.164
  596POPC   GL110873  39.978  24.488   8.864
  596POPC   GL210874  40.155  24.442   8.864
  596POPC   C1A10875  40.028  24.475   8.564
  596POPC   D2A10876  39.958  24.507   8.264
  596POPC   C3A10877  40.002  24.531   7.964
  596POPC   C4A10878  39.988  24.445   7.664
  596POPC   C1B10879  40.194  24.376   8.564
  596POPC   C2B10880  40.271  24.374   8.264
  596POPC   C3B10881  40.196  24.316   7.964
  596POPC   C4B10882  40.249  24.362   7.664
  597POPC   NC310883   5.876  24.471   9.464
  597POPC   PO410884   5.855  24.491   9.164
  597POPC   GL110885   5.899  24.510   8.864
  597POPC   GL210886   5.987  24.525   8.864
  597POPC   C1A10887   5.857  24.503   8.564
  597POPC   D2A10888   5.845  24.518   8.264
  597POPC   C3A10889   5.906  24.450   7.964
  597POPC   C4A10890   5.878  24.522   7.664
  597POPC   C1B10891   6.080  24.612   8.564
  597POPC   C2B10892   6.023  24.594   8.264
  597POPC   C3B10893   6.082  24.605   7.964
  597POPC   C4B10894   6.040  24.632   7.664
  598POPC   NC310895   6.638  19.024   9.464
  598POPC   PO410896   6.694  19.088   9.164
  598POPC   GL110897   6.619  19.067   8.864
  598POPC   GL210898   6.697  19.135   8.864
  598POPC   C1A10899   6.612  19.030   8.564
  598POPC   D2A10900   6.646  19.058   8.264
  598POPC   C3A10901   6.659  19.052   7.964
  598POPC   C4A10902   6.666  19.072   7.664
  598POPC   C1B10903   6.645  19.347   8.564
  598POPC   C2B10904   6.629  19.283   8.264
  598POPC   C3B10905   6.681  19.275   7.964
  598POPC   C4B10906   6.708  19.327   7.664
  599POPC   NC310907  34.571   6.666   9.464
  599POPC   PO410908  34.544   6.617   9.164
  599POPC   GL110909  34.593   6.652   8.864
  599POPC   GL210910  34.498   6.636   8.864
  599POPC   C1A10911  34.578   6.609   8.564
  599POPC   D2A10912  34.582   6.658   8.264
  599POPC   C3A10913  34.594   6.633   7.964
  599POPC   C4A10914  34.625   6.606   7.664
  599POPC   C1B10915  34.335   6.629   8.564
  599POPC   C2B10916  34.305   6.601   8.264
  599POPC   C3B10917  34.347   6.567   7.964
  599POPC   C4B10918  34.351   6.617   7.664
  600POPC   NC310919  44.627  31.509   9.464
  600POPC   PO410920  44.660  31.522   9.164
  600POPC   GL110921  44.705  31.497   8.864
  600POPC   GL210922  44.667  31.635   8.864
  600POPC   C1A10923  44.629  31.462   8.564
  600POPC   D2A10924  44.700  31.449   8.264
  600POPC   C3A10925  44.622  31.468   7.964
  600POPC   C4A10926  44.673  31.460   7.664
  600POPC   C1B10927  44.783  31.709   8.564
  600POPC   C2B10928  44.760  31.674   8.264
  600POPC   C3B10929  44.742  31.705   7.964
  600POPC   C4B10930  44.751  31.655   7.664
  601POPC   NC310931  30.737  22.181   9.464
  601POPC   PO410932  30.741  22.183   9.164
  601POPC   GL110933  30.674  22.174   8.864
  601POPC   GL210934  30.676  22.005   8.864
  601POPC   C1A10935  30.746  22.208   8.564
  601POPC   D2A10936  30.704  22.143   8.264
  601POPC   C3A10937  30.734  22.116   7.964
  601POPC   C4A10938  30.746  22.179   7.664
  601POPC   C1B10939  30.604  21.966   8.564
  601POPC   C2B10940  30.638  21.900   8.264
  601POPC   C3B10941  30.643  21.958   7.964
  601POPC   C4B10942  30.600  21.966   7.664
  602POPC   NC310943  42.337  33.801   9.464
  602POPC   PO410944  42.288  33.841   9.164
  602POPC   GL110945  42.372  33.823   8.864
  602POPC   GL210946  42.417  33.683   8.864
  602POPC   C1A10947  42.318  33.775   8.564
  602POPC   D2A10948  42.296  33.834   8.264
  602POPC   C3A10949  42.325  33.821   7.964
  602POPC   C4A10950  42.368  33.797   7.664
  602POPC   C1B10951  42.530  33.579   8.564
  602POPC   C2B10952  42.547  33.660   8.264
  602POPC   C3B10953  42.525  33.579   7.964
  602POPC   C4B10954  42.472  33.636   7.664
  603POPC   NC310955  37.630  29.912   9.464
  603POPC   PO410956  37.673  29.879   9.164
  603POPC   GL110957  37.630  29.956   8.864
  603POPC   GL210958  37.566  29.954   8.864
  603POPC   C1A10959  37.711  29.926   8.564
  603POPC   D2A10960  37.716  29.970   8.264
  603POPC   C3A10961  37.668  29.951   7.964
  603POPC   C4A10962  37.718  29.940   7.664
  603POPC   C1B10963  37.420  30.000   8.564
  603POPC   C2B10964  37.465  29.950   8.264
  603POPC   C3B10965  37.450  29.981   7.964
  603POPC   C4B10966  37.468  29.998   7.664
  604POPC   NC310967   3.533   9.744   9.464
  604POPC   PO410968   3.585   9.739   9.164
  604POPC   GL110969   3.579   9.717   8.864
  604POPC   GL210970   3.612   9.826   8.864
  604POPC   C1A10971   3.499   9.751   8.564
  604POPC   D2A10972   3.572   9.793   8.264
  604POPC   C3A10973   3.539   9.798   7.964
  604POPC   C4A10974   3.540   9.756   7.664
  604POPC   C1B10975   3.574  10.029   8.564
  604POPC   C2B10976   3.588   9.982   8.264
  604POPC   C3B10977   3.573   9.940   7.964
  604POPC   C4B10978   3.659  10.024   7.664
  605POPC   NC310979   3.574  33.765   9.464
  605POPC   PO410980   3.581  33.816   9.164
  605POPC   GL110981   3.575  33.823   8.864
  605POPC   GL210982   3.471  33.907   8.864
  605POPC   C1A10983   3.533  33.809   8.564
  605POPC   D2A10984   3.583  33.808   8.264
  605POPC   C3A10985   3.557  33.792   7.964
  605POPC   C4A10986   3.511  33.807   7.664
  605POPC   C1B10987   3.366  33.966   8.564
  605POPC   C2B10988   3.348  33.976   8.264
  605POPC   C3B10989   3.362  33.969   7.964
  605POPC   C4B10990   3.300  33.970   7.664
  606POPC   NC310991  40.016  22.158   9.464
  606POPC   PO410992  39.985  22.119   9.164
  606POPC   GL110993  39.962  22.156   8.864
  606POPC   GL210994  40.146  22.196   8.864
  606POPC   C1A10995  39.966  22.194   8.564
  606POPC   D2A10996  40.052  22.123   8.264
  606POPC   C3A10997  39.966  22.207   7.964
  606POPC   C4A10998  40.005  22.118   7.664
  606POPC   C1B10999  40.271  22.243   8.564
  606POPC   C2B11000  40.205  22.261   8.264
  606POPC   C3B11001  40.228  22.297   7.964
  606POPC   C4B11002  40.241  22.266   7.664
  607POPC   NC311003   6.635  43.935   9.464
  607POPC   PO411004   6.665  43.882   9.164
  607POPC   GL111005   6.627  43.920   8.864
  607POPC   GL211006   6.475  43.808   8.864
  607POPC   C1A11007   6.596  43.900   8.564
  607POPC   D2A11008   6.678  43.933   8.264
  607POPC   C3A11009   6.677  43.915   7.964
  607POPC   C4A11010   6.610  43.914   7.664
  607POPC   C1B11011   6.377  43.817   8.564
  607POPC   C2B11012   6.405  43.863   8.264
  607POPC   C3B11013   6.421  43.774   7.964
  607POPC   C4B11014   6.426  43.845   7.664
  608POPC   NC311015  26.859  36.080   9.464
  608POPC   PO411016  26.844  36.164   9.164
  608POPC   GL111017  26.809  36.164   8.864
  608POPC   GL211018  26.853  35.984   8.864
  608POPC   C1A11019  26.776  36.164   8.564
  608POPC   D2A11020  26.786  36.088   8.264
  608POPC   C3A11021  26.799  36.099   7.964
  608POPC   C4A11022  26.862  36.084   7.664
  608POPC   C1B11023  26.866  35.896   8.564
  608POPC   C2B11024  26.854  35.847   8.264
  608POPC   C3B11025  26.894  35.909   7.964
  608POPC   C4B11026  26.837  35.885   7.664
  609POPC   NC311027  17.491  35.375   9.464
  609POPC   PO411028  17.484  35.313   9.164
  609POPC   GL111029  17.530  35.395   8.864
  609POPC   GL211030  17.561  35.303   8.864
  609POPC   C1A11031  17.461  35.362   8.564
  609POPC   D2A11032  17.542  35.343   8.264
  609POPC   C3A11033  17.475  35.340   7.964
  609POPC   C4A11034  17.471  35.352   7.664
  609POPC   C1B11035  17.686  35.182   8.564
  609POPC   C2B11036  17.696  35.122   8.264
  609POPC   C3B11037  17.661  35.125   7.964
  609POPC   C4B11038  17.635  35.171   7.664
  610POPC   NC311039  33.765  26.009   9.464
  610POPC   PO411040  33.805  26.072   9.164
  610POPC   GL111041  33.763  26.059   8.864
  610POPC   GL211042  33.652  26.012   8.864
  610POPC   C1A11043  33.753  26.023   8.564
  610POPC   D2A11044  33.834  26.024   8.264
  610POPC   C3A11045  33.825  26.024   7.964
  610POPC   C4A11046  33.809  26.065   7.664
  610POPC   C1B11047  33.587  26.010   8.564
  610POPC   C2B11048  33.586  25.969   8.264
  610POPC   C3B11049  33.602  25.973   7.964
  610POPC   C4B11050  33.538  25.975   7.664
  611POPC   NC311051  22.898  36.917   9.464
  611POPC   PO411052  22.981  36.887   9.164
  611POPC   GL111053  22.953  36.874   8.864
  611POPC   GL211054  23.011  37.018   8.864
  611POPC   C1A11055  22.914  36.939   8.564
  611POPC   D2A11056  22.924  36.945   8.264
  611POPC   C3A11057  22.978  36.926   7.964
  611POPC   C4A11058  22.916  36.928   7.664
  611POPC   C1B11059  23.100  37.018   8.564
  611POPC   C2B11060  23.159  37.068   8.264
  611POPC   C3B11061  23.093  37.082   7.964
  611POPC   C4B11062  23.095  37.097   7.664
  612POPC   NC311063  13.655  12.877   9.464
  612POPC   PO411064  13.642  12.850   9.164
  612POPC   GL111065  13.625  12.834   8.864
  612POPC   GL211066  13.498  12.871   8.864
  612POPC   C1A11067  13.612  12.824   8.564
  612POPC   D2A11068  13.580  12.897   8.264
  612POPC   C3A11069  13.595  12.803   7.964
  612POPC   C4A11070  13.592  12.857   7.664
  612POPC   C1B11071  13.329  12.839   8.564
  612POPC   C2B11072  13.419  12.872   8.264
  612POPC   C3B11073  13.349  12.860   7.964
  612POPC   C4B11074  13.402  12.841   7.664
  613POPC   NC311075   5.057  26.798   9.464
  613POPC   PO411076   5.068  26.835   9.164
  613POPC   GL111077   5.084  26.853   8.864
  613POPC   GL211078   4.996  26.801   8.864
  613POPC   C1A11079   5.116  26.834   8.564
  613POPC   D2A11080   5.117  26.811   8.264
  613POPC   C3A11081   5.089  26.850   7.964
  613POPC   C4A11082   5.129  26.813   7.664
  613POPC   C1B11083   4.880  26.744   8.564
  613POPC   C2B11084   4.862  26.757   8.264
  613POPC   C3B11085   4.878  26.676   7.964
  613POPC   C4B11086   4.918  26.705   7.664
  614POPC   NC311087  40.809  26.064   9.464
  614POPC   PO411088  40.768  26.037   9.164
  614POPC   GL111089  40.824  26.004   8.864
  614POPC   GL211090  40.699  26.057   8.864
  614POPC   C1A11091  40.829  26.032   8.564
  614POPC   D2A11092  40.744  26.030   8.264
  614POPC   C3A11093  40.741  26.030   7.964
  614POPC   C4A11094  40.767  26.065   7.664
  614POPC   C1B11095  40.501  26.035   8.564
  614POPC   C2B11096  40.550  26.030   8.264
  614POPC   C3B11097  40.563  26.003   7.964
  614POPC   C4B11098  40.523  26.012   7.664
  615POPC   NC311099  38.413   6.609   9.464
  615POPC   PO411100  38.505   6.617   9.164
  615POPC   GL111101  38.437   6.655   8.864
  615POPC   GL211102  38.413   6.498   8.864
  615POPC   C1A11103  38.421   6.624   8.564
  615POPC   D2A11104  38.494   6.687   8.264
  615POPC   C3A11105  38.447   6.629   7.964
  615POPC   C4A11106  38.467   6.680   7.664
  615POPC   C1B11107  38.481   6.374   8.564
  615POPC   C2B11108  38.457   6.441   8.264
  615POPC   C3B11109  38.450   6.379   7.964
  615POPC   C4B11110  38.478   6.356   7.664
  616POPC   NC311111  15.925  22.956   9.464
  616POPC   PO411112  15.944  22.940   9.164
  616POPC   GL111113  15.955  22.971   8.864
  616POPC   GL211114  15.961  22.824   8.864
  616POPC   C1A11115  15.932  22.952   8.564
  616POPC   D2A11116  15.977  22.914   8.264
  616POPC   C3A11117  15.980  22.908   7.964
  616POPC   C4A11118  15.994  22.938   7.664
  616POPC   C1B11119  16.024  22.697   8.564
  616POPC   C2B11120  15.945  22.681   8.264
  616POPC   C3B11121  15.949  22.644   7.964
  616POPC   C4B11122  15.935  22.714   7.664
  617POPC   NC311123  12.086   4.300   9.464
  617POPC   PO411124  12.047   4.312   9.164
  617POPC   GL111125  12.085   4.328   8.864
  617POPC   GL211126  12.121   4.415   8.864
  617POPC   C1A11127  12.098   4.341   8.564
  617POPC   D2A11128  12.084   4.281   8.264
  617POPC   C3A11129  12.050   4.319   7.964
  617POPC   C4A11130  12.119   4.295   7.664
  617POPC   C1B11131  12.131   4.566   8.564
  617POPC   C2B11132  12.105   4.571   8.264
  617POPC   C3B11133  12.114   4.546   7.964
  617POPC   C4B11134  12.067   4.525   7.664
  618POPC   NC311135   8.234  12.868   9.464
  618POPC   PO411136   8.188  12.851   9.164
  618POPC   GL111137   8.208  12.843   8.864
  618POPC   GL211138   8.060  12.789   8.864
  618POPC   C1A11139   8.196  12.876   8.564
  618POPC   D2A11140   8.173  12.889   8.264
  618POPC   C3A11141   8.189  12.822   7.964
  618POPC   C4A11142   8.216  12.818   7.664
  618POPC   C1B11143   7.979  12.726   8.564
  618POPC   C2B11144   8.014  12.691   8.264
  618POPC   C3B11145   8.019  12.735   7.964
  618POPC   C4B11146   7.953  12.745   7.664
  619POPC   NC311147  42.350  38.426   9.464
  619POPC   PO411148  42.315  38.473   9.164
  619POPC   GL111149  42.343  38.410   8.864
  619POPC   GL211150  42.349  38.609   8.864
  619POPC   C1A11151  42.365  38.489   8.564
  619POPC   D2A11152  42.363  38.494   8.264
  619POPC   C3A11153  42.334  38.480   7.964
  619POPC   C4A11154  42.311  38.423   7.664
  619POPC   C1B11155  42.476  38.691   8.564
  619POPC   C2B11156  42.508  38.679   8.264
  619POPC   C3B11157  42.465  38.653   7.964
  619POPC   C4B11158  42.459  38.633   7.664
  620POPC   NC311159  22.952  33.777   9.464
  620POPC   PO411160  22.929  33.809   9.164
  620POPC   GL111161  22.919  33.822   8.864
  620POPC   GL211162  22.855  33.870   8.864
  620POPC   C1A11163  22.981  33.763   8.564
  620POPC   D2A11164  22.953  33.811   8.264
  620POPC   C3A11165  22.951  33.833   7.964
  620POPC   C4A11166  22.946  33.834   7.664
  620POPC   C1B11167  22.676  33.953   8.564
  620POPC   C2B11168  22.712  33.916   8.264
  620POPC   C3B11169  22.708  33.900   7.964
  620POPC   C4B11170  22.720  33.887   7.664
  621POPC   NC311171  19.068  23.727   9.464
  621POPC   PO411172  19.065  23.717   9.164
  621POPC   GL111173  19.084  23.694   8.864
  621POPC   GL211174  18.992  23.829   8.864
  621POPC   C1A11175  19.085  23.672   8.564
  621POPC   D2A11176  19.104  23.667   8.264
  621POPC   C3A11177  19.029  23.685   7.964
  621POPC   C4A11178  19.093  23.725   7.664
  621POPC   C1B11179  18.988  23.964   8.564
  621POPC   C2B11180  18.976  23.911   8.264
  621POPC   C3B11181  18.985  23.939   7.964
  621POPC   C4B11182  18.982  23.978   7.664
  622POPC   NC311183  22.144  34.537   9.464
  622POPC   PO411184  22.185  34.527   9.164
  622POPC   GL111185  22.120  34.533   8.864
  622POPC   GL211186  22.224  34.498   8.864
  622POPC   C1A11187  22.124  34.625   8.564
  622POPC   D2A11188  22.200  34.603   8.264
  622POPC   C3A11189  22.155  34.597   7.964
  622POPC   C4A11190  22.205  34.542   7.664
  622POPC   C1B11191  22.247  34.310   8.564
  622POPC   C2B11192  22.207  34.314   8.264
  622POPC   C3B11193  22.257  34.335   7.964
  622POPC   C4B11194  22.235  34.358   7.664
  623POPC   NC311195  41.550  24.464   9.464
  623POPC   PO411196  41.527  24.448   9.164
  623POPC   GL111197  41.529  24.511   8.864
  623POPC   GL211198  41.566  24.402   8.864
  623POPC   C1A11199  41.533  24.449   8.564
  623POPC   D2A11200  41.534  24.457   8.264
  623POPC   C3A11201  41.564  24.535   7.964
  623POPC   C4A11202  41.572  24.496   7.664
  623POPC   C1B11203  41.463  24.282   8.564
  623POPC   C2B11204  41.541  24.275   8.264
  623POPC   C3B11205  41.517  24.292   7.964
  623POPC   C4B11206  41.499  24.230   7.664
  624POPC   NC311207  15.202  13.603   9.464
  624POPC   PO411208  15.156  13.597   9.164
  624POPC   GL111209  15.170  13.579   8.864
  624POPC   GL211210  15.248  13.697   8.864
  624POPC   C1A11211  15.199  13.666   8.564
  624POPC   D2A11212  15.179  13.607   8.264
  624POPC   C3A11213  15.153  13.655   7.964
  624POPC   C4A11214  15.131  13.612   7.664
  624POPC   C1B11215  15.394  13.788   8.564
  624POPC   C2B11216  15.386  13.707   8.264
  624POPC   C3B11217  15.432  13.717   7.964
  624POPC   C4B11218  15.352  13.717   7.664
  625POPC   NC311219  16.758  35.303   9.464
  625POPC   PO411220  16.726  35.305   9.164
  625POPC   GL111221  16.716  35.347   8.864
  625POPC   GL211222  16.655  35.423   8.864
  625POPC   C1A11223  16.755  35.371   8.564
  625POPC   D2A11224  16.715  35.326   8.264
  625POPC   C3A11225  16.767  35.323   7.964
  625POPC   C4A11226  16.694  35.315   7.664
  625POPC   C1B11227  16.557  35.480   8.564
  625POPC   C2B11228  16.504  35.470   8.264
  625POPC   C3B11229  16.519  35.469   7.964
  625POPC   C4B11230  16.529  35.491   7.664
  626POPC   NC311231  19.016  36.088   9.464
  626POPC   PO411232  19.099  36.102   9.164
  626POPC   GL111233  19.108  36.143   8.864
  626POPC   GL211234  19.149  36.246   8.864
  626POPC   C1A11235  19.105  36.162   8.564
  626POPC   D2A11236  19.097  36.145   8.264
  626POPC   C3A11237  19.039  36.144   7.964
  626POPC   C4A11238  19.033  36.149   7.664
  626POPC   C1B11239  19.230  36.272   8.564
  626POPC   C2B11240  19.271  36.288   8.264
  626POPC   C3B11241  19.217  36.286   7.964
  626POPC   C4B11242  19.301  36.316   7.664
  627POPC   NC311243   9.005  15.968   9.464
  627POPC   PO411244   9.007  15.984   9.164
  627POPC   GL111245   8.927  15.995   8.864
  627POPC   GL211246   8.907  15.863   8.864
  627POPC   C1A11247   9.013  15.959   8.564
  627POPC   D2A11248   9.013  15.907   8.264
  627POPC   C3A11249   8.944  15.945   7.964
  627POPC   C4A11250   8.958  15.979   7.664
  627POPC   C1B11251   8.896  15.727   8.564
  627POPC   C2B11252   8.890  15.715   8.264
  627POPC   C3B11253   8.798  15.780   7.964
  627POPC   C4B11254   8.826  15.762   7.664
  628POPC   NC311255   0.434  33.820   9.464
  628POPC   PO411256   0.395  33.800   9.164
  628POPC   GL111257   0.449  33.839   8.864
  628POPC   GL211258   0.490  33.854   8.864
  628POPC   C1A11259   0.459  33.842   8.564
  628POPC   D2A11260   0.388  33.849   8.264
  628POPC   C3A11261   0.461  33.762   7.964
  628POPC   C4A11262   0.409  33.802   7.664
  628POPC   C1B11263   0.653  33.972   8.564
  628POPC   C2B11264   0.688  33.950   8.264
  628POPC   C3B11265   0.597  33.970   7.964
  628POPC   C4B11266   0.664  33.963   7.664
  629POPC   NC311267   0.425  44.675   9.464
  629POPC   PO411268   0.411  44.669   9.164
  629POPC   GL111269   0.427  44.665   8.864
  629POPC   GL211270   0.298  44.558   8.864
  629POPC   C1A11271   0.396  44.695   8.564
  629POPC   D2A11272   0.456  44.708   8.264
  629POPC   C3A11273   0.391  44.624   7.964
  629POPC   C4A11274   0.394  44.678   7.664
  629POPC   C1B11275   0.177  44.501   8.564
  629POPC   C2B11276   0.201  44.518   8.264
  629POPC   C3B11277   0.239  44.531   7.964
  629POPC   C4B11278   0.176  44.495   7.664
  630POPC   NC311279  44.664  22.930   9.464
  630POPC   PO411280  44.683  22.900   9.164
  630POPC   GL111281  44.626  22.889   8.864
  630POPC   GL211282  44.833  22.930   8.864
  630POPC   C1A11283  44.653  22.939   8.564
  630POPC   D2A11284  44.686  22.987   8.264
  630POPC   C3A11285  44.655  22.944   7.964
  630POPC   C4A11286  44.621  22.890   7.664
  630POPC   C1B11287  44.957  22.953   8.564
  630POPC   C2B11288  44.945  22.884   8.264
  630POPC   C3B11289  44.909  22.945   7.964
  630POPC   C4B11290  44.902  22.904   7.664
  631POPC   NC311291  36.916  39.199   9.464
  631POPC   PO411292  36.871  39.267   9.164
  631POPC   GL111293  36.933  39.202   8.864
  631POPC   GL211294  36.853  39.134   8.864
  631POPC   C1A11295  36.936  39.218   8.564
  631POPC   D2A11296  36.934  39.261   8.264
  631POPC   C3A11297  36.897  39.271   7.964
  631POPC   C4A11298  36.871  39.188   7.664
  631POPC   C1B11299  36.854  38.964   8.564
  631POPC   C2B11300  36.875  38.966   8.264
  631POPC   C3B11301  36.892  38.974   7.964
  631POPC   C4B11302  36.894  38.952   7.664
  632POPC   NC311303  29.910  13.628   9.464
  632POPC   PO411304  29.924  13.660   9.164
  632POPC   GL111305  29.953  13.670   8.864
  632POPC   GL211306  29.772  13.573   8.864
  632POPC   C1A11307  29.907  13.582   8.564
  632POPC   D2A11308  29.941  13.615   8.264
  632POPC   C3A11309  29.928  13.580   7.964
  632POPC   C4A11310  29.968  13.612   7.664
  632POPC   C1B11311  29.692  13.570   8.564
  632POPC   C2B11312  29.702  13.547   8.264
  632POPC   C3B11313  29.673  13.581   7.964
  632POPC   C4B11314  29.723  13.629   7.664
  633POPC   NC311315   8.182  15.988   9.464
  633POPC   PO411316   8.176  15.988   9.164
  633POPC   GL111317   8.166  15.977   8.864
  633POPC   GL211318   8.129  15.809   8.864
  633POPC   C1A11319   8.171  15.980   8.564
  633POPC   D2A11320   8.180  15.908   8.264
  633POPC   C3A11321   8.200  15.950   7.964
  633POPC   C4A11322   8.149  15.919   7.664
  633POPC   C1B11323   8.117  15.668   8.564
  633POPC   C2B11324   8.116  15.703   8.264
  633POPC   C3B11325   8.175  15.674   7.964
  633POPC   C4B11326   8.179  15.731   7.664
  634POPC   NC311327  14.373   8.959   9.464
  634POPC   PO411328  14.446   8.951   9.164
  634POPC   GL111329  14.362   8.942   8.864
  634POPC   GL211330  14.244   8.971   8.864
  634POPC   C1A11331  14.410   9.000   8.564
  634POPC   D2A11332  14.387   8.972   8.264
  634POPC   C3A11333  14.398   9.004   7.964
  634POPC   C4A11334  14.395   9.019   7.664
  634POPC   C1B11335  14.192   8.881   8.564
  634POPC   C2B11336  14.169   8.871   8.264
  634POPC   C3B11337  14.169   8.884   7.964
  634POPC   C4B11338  14.129   8.876   7.664
  635POPC   NC311339  12.821  36.902   9.464
  635POPC   PO411340  12.847  36.931   9.164
  635POPC   GL111341  12.808  36.892   8.864
  635POPC   GL211342  12.852  37.020   8.864
  635POPC   C1A11343  12.877  36.928   8.564
  635POPC   D2A11344  12.883  36.919   8.264
  635POPC   C3A11345  12.894  36.869   7.964
  635POPC   C4A11346  12.821  36.895   7.664
  635POPC   C1B11347  12.768  37.173   8.564
  635POPC   C2B11348  12.790  37.122   8.264
  635POPC   C3B11349  12.789  37.166   7.964
  635POPC   C4B11350  12.761  37.188   7.664
  636POPC   NC311351   5.137  29.112   9.464
  636POPC   PO411352   5.127  29.183   9.164
  636POPC   GL111353   5.126  29.180   8.864
  636POPC   GL211354   5.219  29.008   8.864
  636POPC   C1A11355   5.088  29.176   8.564
  636POPC   D2A11356   5.113  29.135   8.264
  636POPC   C3A11357   5.113  29.181   7.964
  636POPC   C4A11358   5.107  29.109   7.664
  636POPC   C1B11359   5.246  28.940   8.564
  636POPC   C2B11360   5.221  28.967   8.264
  636POPC   C3B11361   5.234  28.924   7.964
  636POPC   C4B11362   5.294  28.922   7.664
  637POPC   NC311363  31.493  20.574   9.464
  637POPC   PO411364  31.488  20.654   9.164
  637POPC   GL111365  31.493  20.570   8.864
  637POPC   GL211366  31.376  20.717   8.864
  637POPC   C1A11367  31.445  20.614   8.564
  637POPC   D2A11368  31.443  20.578   8.264
  637POPC   C3A11369  31.438  20.626   7.964
  637POPC   C4A11370  31.500  20.654   7.664
  637POPC   C1B11371  31.277  20.786   8.564
  637POPC   C2B11372  31.303  20.745   8.264
  637POPC   C3B11373  31.275  20.752   7.964
  637POPC   C4B11374  31.331  20.784   7.664
  638POPC   NC311375  10.544  14.418   9.464
  638POPC   PO411376  10.513  14.356   9.164
  638POPC   GL111377  10.525  14.442   8.864
  638POPC   GL211378  10.386  14.367   8.864
  638POPC   C1A11379  10.553  14.398   8.564
  638POPC   D2A11380  10.529  14.432   8.264
  638POPC   C3A11381  10.569  14.434   7.964
  638POPC   C4A11382  10.559  14.378   7.664
  638POPC   C1B11383  10.256  14.426   8.564
  638POPC   C2B11384  10.314  14.439   8.264
  638POPC   C3B11385  10.227  14.398   7.964
  638POPC   C4B11386  10.242  14.357   7.664
  639POPC   NC311387  14.368  11.262   9.464
  639POPC   PO411388  14.369  11.275   9.164
  639POPC   GL111389  14.369  11.302   8.864
  639POPC   GL211390  14.454  11.195   8.864
  639POPC   C1A11391  14.367  11.256   8.564
  639POPC   D2A11392  14.433  11.342   8.264
  639POPC   C3A11393  14.423  11.267   7.964
  639POPC   C4A11394  14.369  11.346   7.664
  639POPC   C1B11395  14.552  11.117   8.564
  639POPC   C2B11396  14.540  11.071   8.264
  639POPC   C3B11397  14.486  11.072   7.964
  639POPC   C4B11398  14.585  11.135   7.664
  640POPC   NC311399  16.729  17.458   9.464
  640POPC   PO411400  16.749  17.549   9.164
  640POPC   GL111401  16.747  17.480   8.864
  640POPC   GL211402  16.657  17.597   8.864
  640POPC   C1A11403  16.703  17.503   8.564
  640POPC   D2A11404  16.729  17.497   8.264
  640POPC   C3A11405  16.726  17.498   7.964
  640POPC   C4A11406  16.773  17.524   7.664
  640POPC   C1B11407  16.508  17.595   8.564
  640POPC   C2B11408  16.481  17.664   8.264
  640POPC   C3B11409  16.514  17.662   7.964
  640POPC   C4B11410  16.546  17.670   7.664
  641POPC   NC311411  12.847  19.868   9.464
  641POPC   PO411412  12.868  19.830   9.164
  641POPC   GL111413  12.839  19.848   8.864
  641POPC   GL211414  12.835  19.674   8.864
  641POPC   C1A11415  12.839  19.877   8.564
  641POPC   D2A11416  12.866  19.851   8.264
  641POPC   C3A11417  12.838  19.809   7.964
  641POPC   C4A11418  12.876  19.877   7.664
  641POPC   C1B11419  12.814  19.552   8.564
  641POPC   C2B11420  12.813  19.592   8.264
  641POPC   C3B11421  12.749  19.630   7.964
  641POPC   C4B11422  12.812  19.562   7.664
  642POPC   NC311423  38.464  38.479   9.464
  642POPC   PO411424  38.495  38.490   9.164
  642POPC   GL111425  38.409  38.433   8.864
  642POPC   GL211426  38.562  38.391   8.864
  642POPC   C1A11427  38.442  38.442   8.564
  642POPC   D2A11428  38.412  38.498   8.264
  642POPC   C3A11429  38.477  38.406   7.964
  642POPC   C4A11430  38.428  38.408   7.664
  642POPC   C1B11431  38.695  38.305   8.564
  642POPC   C2B11432  38.626  38.317   8.264
  642POPC   C3B11433  38.616  38.344   7.964
  642POPC   C4B11434  38.620  38.322   7.664
  643POPC   NC311435  18.245  15.971   9.464
  643POPC   PO411436  18.291  15.929   9.164
  643POPC   GL111437  18.259  15.949   8.864
  643POPC   GL211438  18.336  15.843   8.864
  643POPC   C1A11439  18.251  15.953   8.564
  643POPC   D2A11440  18.247  15.978   8.264
  643POPC   C3A11441  18.260  15.922   7.964
  643POPC   C4A11442  18.298  15.977   7.664
  643POPC   C1B11443  18.368  15.723   8.564
  643POPC   C2B11444  18.355  15.693   8.264
  643POPC   C3B11445  18.380  15.754   7.964
  643POPC   C4B11446  18.332  15.678   7.664
  644POPC   NC311447  22.173  33.817   9.464
  644POPC   PO411448  22.166  33.815   9.164
  644POPC   GL111449  22.208  33.756   8.864
  644POPC   GL211450  22.090  33.725   8.864
  644POPC   C1A11451  22.159  33.754   8.564
  644POPC   D2A11452  22.139  33.784   8.264
  644POPC   C3A11453  22.167  33.827   7.964
  644POPC   C4A11454  22.173  33.829   7.664
  644POPC   C1B11455  21.946  33.661   8.564
  644POPC   C2B11456  21.956  33.676   8.264
  644POPC   C3B11457  21.939  33.633   7.964
  644POPC   C4B11458  21.937  33.710   7.664
  645POPC   NC311459  14.420  31.449   9.464
  645POPC   PO411460  14.382  31.508   9.164
  645POPC   GL111461  14.398  31.441   8.864
  645POPC   GL211462  14.424  31.588   8.864
  645POPC   C1A11463  14.436  31.426   8.564
  645POPC   D2A11464  14.427  31.427   8.264
  645POPC   C3A11465  14.408  31.436   7.964
  645POPC   C4A11466  14.359  31.454   7.664
  645POPC   C1B11467  14.441  31.733   8.564
  645POPC   C2B11468  14.410  31.763   8.264
  645POPC   C3B11469  14.434  31.763   7.964
  645POPC   C4B11470  14.397  31.679   7.664
  646POPC   NC311471  24.467  35.335   9.464
  646POPC   PO411472  24.447  35.385   9.164
  646POPC   GL111473  24.492  35.340   8.864
  646POPC   GL211474  24.375  35.267   8.864
  646POPC   C1A11475  24.472  35.308   8.564
  646POPC   D2A11476  24.458  35.359   8.264
  646POPC   C3A11477  24.462  35.380   7.964
  646POPC   C4A11478  24.474  35.383   7.664
  646POPC   C1B11479  24.295  35.198   8.564
  646POPC   C2B11480  24.281  35.126   8.264
  646POPC   C3B11481  24.282  35.179   7.964
  646POPC   C4B11482  24.282  35.168   7.664
  647POPC   NC311483  37.667   5.139   9.464
  647POPC   PO411484  37.641   5.108   9.164
  647POPC   GL111485  37.644   5.081   8.864
  647POPC   GL211486  37.677   5.213   8.864
  647POPC   C1A11487  37.667   5.061   8.564
  647POPC   D2A11488  37.725   5.078   8.264
  647POPC   C3A11489  37.641   5.096   7.964
  647POPC   C4A11490  37.710   5.088   7.664
  647POPC   C1B11491  37.598   5.361   8.564
  647POPC   C2B11492  37.611   5.349   8.264
  647POPC   C3B11493  37.585   5.340   7.964
  647POPC   C4B11494  37.592   5.357   7.664
  648POPC   NC311495  19.874   2.763   9.464
  648POPC   PO411496  19.868   2.716   9.164
  648POPC   GL111497  19.863   2.810   8.864
  648POPC   GL211498  19.700   2.745   8.864
  648POPC   C1A11499  19.857   2.760   8.564
  648POPC   D2A11500  19.802   2.719   8.264
  648POPC   C3A11501  19.849   2.720   7.964
  648POPC   C4A11502  19.874   2.770   7.664
  648POPC   C1B11503  19.622   2.806   8.564
  648POPC   C2B11504  19.634   2.829   8.264
  648POPC   C3B11505  19.629   2.785   7.964
  648POPC   C4B11506  19.558   2.828   7.664
  649POPC   NC311507  34.587   8.941   9.464
  649POPC   PO411508  34.576   8.949   9.164
  649POPC   GL111509  34.581   9.004   8.864
  649POPC   GL211510  34.494   8.964   8.864
  649POPC   C1A11511  34.534   8.959   8.564
  649POPC   D2A11512  34.552   8.966   8.264
  649POPC   C3A11513  34.600   8.997   7.964
  649POPC   C4A11514  34.607   9.011   7.664
  649POPC   C1B11515  34.305   9.049   8.564
  649POPC   C2B11516  34.352   9.022   8.264
  649POPC   C3B11517  34.334   9.078   7.964
  649POPC   C4B11518  34.291   9.077   7.664
  650POPC   NC311519  17.521  16.751   9.464
  650POPC   PO411520  17.491  16.691   9.164
  650POPC   GL111521  17.535  16.702   8.864
  650POPC   GL211522  17.506  16.830   8.864
  650POPC   C1A11523  17.480  16.698   8.564
  650POPC   D2A11524  17.548  16.717   8.264
  650POPC   C3A11525  17.484  16.702   7.964
  650POPC   C4A11526  17.522  16.733   7.664
  650POPC   C1B11527  17.470  16.933   8.564
  650POPC   C2B11528  17.387  16.975   8.264
  650POPC   C3B11529  17.460  17.006   7.964
  650POPC   C4B11530  17.469  16.934   7.664
  651POPC   NC311531  31.431  38.410   9.464
  651POPC   PO411532  31.450  38.442   9.164
  651POPC   GL111533  31.484  38.417   8.864
  651POPC   GL211534  31.449  38.576   8.864
  651POPC   C1A11535  31.432  38.467   8.564
  651POPC   D2A11536  31.515  38.429   8.264
  651POPC   C3A11537  31.437  38.473   7.964
  651POPC   C4A11538  31.442  38.500   7.664
  651POPC   C1B11539  31.413  38.667   8.564
  651POPC   C2B11540  31.410  38.728   8.264
  651POPC   C3B11541  31.388  38.653   7.964
  651POPC   C4B11542  31.443  38.654   7.664
  652POPC   NC311543  24.516  38.467   9.464
  652POPC   PO411544  24.448  38.467   9.164
  652POPC   GL111545  24.495  38.492   8.864
  652POPC   GL211546  24.603  38.515   8.864
  652POPC   C1A11547  24.478  38.422   8.564
  652POPC   D2A11548  24.442  38.439   8.264
  652POPC   C3A11549  24.479  38.449   7.964
  652POPC   C4A11550  24.500  38.455   7.664
  652POPC   C1B11551  24.716  38.510   8.564
  652POPC   C2B11552  24.718  38.465   8.264
  652POPC   C3B11553  24.752  38.520   7.964
  652POPC   C4B11554  24.774  38.486   7.664
  653POPC   NC311555  33.006   6.628   9.464
  653POPC   PO411556  33.000   6.690   9.164
  653POPC   GL111557  33.021   6.688   8.864
  653POPC   GL211558  33.140   6.675   8.864
  653POPC   C1A11559  32.987   6.623   8.564
  653POPC   D2A11560  33.020   6.617   8.264
  653POPC   C3A11561  33.057   6.650   7.964
  653POPC   C4A11562  32.988   6.611   7.664
  653POPC   C1B11563  33.274   6.719   8.564
  653POPC   C2B11564  33.307   6.739   8.264
  653POPC   C3B11565  33.214   6.686   7.964
  653POPC   C4B11566  33.301   6.713   7.664
  654POPC   NC311567  41.514   2.033   9.464
  654POPC   PO411568  41.563   2.038   9.164
  654POPC   GL111569  41.524   1.960   8.864
  654POPC   GL211570  41.613   2.080   8.864
  654POPC   C1A11571  41.564   1.957   8.564
  654POPC   D2A11572  41.534   2.036   8.264
  654POPC   C3A11573  41.554   1.972   7.964
  654POPC   C4A11574  41.568   1.994   7.664
  654POPC   C1B11575  41.784   2.103   8.564
  654POPC   C2B11576  41.750   2.119   8.264
  654POPC   C3B11577  41.753   2.088   7.964
  654POPC   C4B11578  41.724   2.098   7.664
  655POPC   NC311579  43.932  40.016   9.464
  655POPC   PO411580  43.842  40.023   9.164
  655POPC   GL111581  43.861  39.984   8.864
  655POPC   GL211582  43.977  40.138   8.864
  655POPC   C1A11583  43.913  40.026   8.564
  655POPC   D2A11584  43.896  40.032   8.264
  655POPC   C3A11585  43.905  40.051   7.964
  655POPC   C4A11586  43.927  39.990   7.664
  655POPC   C1B11587  44.054  40.169   8.564
  655POPC   C2B11588  44.060  40.209   8.264
  655POPC   C3B11589  44.085  40.173   7.964
  655POPC   C4B11590  44.086  40.188   7.664
  656POPC   NC311591   6.633  22.153   9.464
  656POPC   PO411592   6.686  22.184   9.164
  656POPC   GL111593   6.626  22.153   8.864
  656POPC   GL211594   6.708  22.034   8.864
  656POPC   C1A11595   6.614  22.177   8.564
  656POPC   D2A11596   6.619  22.119   8.264
  656POPC   C3A11597   6.691  22.148   7.964
  656POPC   C4A11598   6.598  22.113   7.664
  656POPC   C1B11599   6.753  21.928   8.564
  656POPC   C2B11600   6.800  21.954   8.264
  656POPC   C3B11601   6.804  21.996   7.964
  656POPC   C4B11602   6.803  21.983   7.664
  657POPC   NC311603  26.064   5.066   9.464
  657POPC   PO411604  26.088   5.108   9.164
  657POPC   GL111605  26.023   5.137   8.864
  657POPC   GL211606  26.055   4.925   8.864
  657POPC   C1A11607  26.000   5.052   8.564
  657POPC   D2A11608  26.035   5.097   8.264
  657POPC   C3A11609  26.032   5.050   7.964
  657POPC   C4A11610  26.032   5.044   7.664
  657POPC   C1B11611  26.115   4.797   8.564
  657POPC   C2B11612  26.050   4.801   8.264
  657POPC   C3B11613  26.072   4.817   7.964
  657POPC   C4B11614  26.057   4.820   7.664
  658POPC   NC311615  19.856  11.328   9.464
  658POPC   PO411616  19.809  11.270   9.164
  658POPC   GL111617  19.870  11.261   8.864
  658POPC   GL211618  19.959  11.351   8.864
  658POPC   C1A11619  19.842  11.295   8.564
  658POPC   D2A11620  19.844  11.325   8.264
  658POPC   C3A11621  19.840  11.339   7.964
  658POPC   C4A11622  19.796  11.346   7.664
  658POPC   C1B11623  20.058  11.449   8.564
  658POPC   C2B11624  20.045  11.429   8.264
  658POPC   C3B11625  20.069  11.476   7.964
  658POPC   C4B11626  19.996  11.457   7.664
  659POPC   NC311627   2.012   0.482   9.464
  659POPC   PO411628   1.951   0.423   9.164
  659POPC   GL111629   2.007   0.473   8.864
  659POPC   GL211630   1.908   0.423   8.864
  659POPC   C1A11631   2.000   0.443   8.564
  659POPC   D2A11632   1.943   0.429   8.264
  659POPC   C3A11633   1.976   0.431   7.964
  659POPC   C4A11634   2.010   0.408   7.664
  659POPC   C1B11635   1.777   0.483   8.564
  659POPC   C2B11636   1.772   0.441   8.264
  659POPC   C3B11637   1.702   0.497   7.964
  659POPC   C4B11638   1.751   0.487   7.664
  660POPC   NC311639  22.960  40.057   9.464
  660POPC   PO411640  22.966  40.049   9.164
  660POPC   GL111641  22.900  40.040   8.864
  660POPC   GL211642  22.812  39.866   8.864
  660POPC   C1A11643  22.985  40.012   8.564
  660POPC   D2A11644  22.931  39.992   8.264
  660POPC   C3A11645  22.890  39.969   7.964
  660POPC   C4A11646  22.890  39.981   7.664
  660POPC   C1B11647  22.793  39.865   8.564
  660POPC   C2B11648  22.759  39.859   8.264
  660POPC   C3B11649  22.790  39.818   7.964
  660POPC   C4B11650  22.785  39.819   7.664
  661POPC   NC311651  15.909  31.504   9.464
  661POPC   PO411652  15.916  31.510   9.164
  661POPC   GL111653  15.928  31.455   8.864
  661POPC   GL211654  15.837  31.494   8.864
  661POPC   C1A11655  15.931  31.489   8.564
  661POPC   D2A11656  15.917  31.508   8.264
  661POPC   C3A11657  15.983  31.506   7.964
  661POPC   C4A11658  15.960  31.490   7.664
  661POPC   C1B11659  15.695  31.540   8.564
  661POPC   C2B11660  15.707  31.592   8.264
  661POPC   C3B11661  15.678  31.580   7.964
  661POPC   C4B11662  15.757  31.592   7.664
  662POPC   NC311663  31.423  31.469   9.464
  662POPC   PO411664  31.519  31.500   9.164
  662POPC   GL111665  31.516  31.467   8.864
  662POPC   GL211666  31.492  31.611   8.864
  662POPC   C1A11667  31.485  31.484   8.564
  662POPC   D2A11668  31.483  31.514   8.264
  662POPC   C3A11669  31.454  31.473   7.964
  662POPC   C4A11670  31.471  31.443   7.664
  662POPC   C1B11671  31.531  31.717   8.564
  662POPC   C2B11672  31.542  31.699   8.264
  662POPC   C3B11673  31.563  31.737   7.964
  662POPC   C4B11674  31.584  31.664   7.664
  663POPC   NC311675  29.193  26.862   9.464
  663POPC   PO411676  29.156  26.865   9.164
  663POPC   GL111677  29.167  26.773   8.864
  663POPC   GL211678  29.067  26.893   8.864
  663POPC   C1A11679  29.153  26.770   8.564
  663POPC   D2A11680  29.156  26.858   8.264
  663POPC   C3A11681  29.182  26.798   7.964
  663POPC   C4A11682  29.139  26.780   7.664
  663POPC   C1B11683  28.982  27.042   8.564
  663POPC   C2B11684  29.010  26.974   8.264
  663POPC   C3B11685  28.968  27.045   7.964
  663POPC   C4B11686  28.959  27.064   7.664
  664POPC   NC311687  43.131  24.532   9.464
  664POPC   PO411688  43.063  24.441   9.164
  664POPC   GL111689  43.145  24.520   8.864
  664POPC   GL211690  42.978  24.556   8.864
  664POPC   C1A11691  43.120  24.449   8.564
  664POPC   D2A11692  43.151  24.498   8.264
  664POPC   C3A11693  43.122  24.493   7.964
  664POPC   C4A11694  43.130  24.509   7.664
  664POPC   C1B11695  42.920  24.618   8.564
  664POPC   C2B11696  42.899  24.600   8.264
  664POPC   C3B11697  42.924  24.606   7.964
  664POPC   C4B11698  42.886  24.595   7.664
  665POPC   NC311699   6.679  10.503   9.464
  665POPC   PO411700   6.644  10.503   9.164
  665POPC   GL111701   6.643  10.492   8.864
  665POPC   GL211702   6.664  10.656   8.864
  665POPC   C1A11703   6.598  10.531   8.564
  665POPC   D2A11704   6.678  10.556   8.264
  665POPC   C3A11705   6.601  10.565   7.964
  665POPC   C4A11706   6.641  10.493   7.664
  665POPC   C1B11707   6.735  10.748   8.564
  665POPC   C2B11708   6.741  10.773   8.264
  665POPC   C3B11709   6.745  10.746   7.964
  665POPC   C4B11710   6.701  10.773   7.664
  666POPC   NC311711  33.765  10.488   9.464
  666POPC   PO411712  33.811  10.515   9.164
  666POPC   GL111713  33.768  10.561   8.864
  666POPC   GL211714  33.952  10.408   8.864
  666POPC   C1A11715  33.757  10.496   8.564
  666POPC   D2A11716  33.772  10.504   8.264
  666POPC   C3A11717  33.848  10.558   7.964
  666POPC   C4A11718  33.753  10.558   7.664
  666POPC   C1B11719  34.050  10.348   8.564
  666POPC   C2B11720  33.967  10.336   8.264
  666POPC   C3B11721  34.036  10.350   7.964
  666POPC   C4B11722  33.985  10.359   7.664
  667POPC   NC311723  44.648   4.276   9.464
  667POPC   PO411724  44.699   4.312   9.164
  667POPC   GL111725  44.698   4.343   8.864
  667POPC   GL211726  44.741   4.294   8.864
  667POPC   C1A11727  44.645   4.330   8.564
  667POPC   D2A11728  44.663   4.277   8.264
  667POPC   C3A11729  44.634   4.275   7.964
  667POPC   C4A11730  44.691   4.274   7.664
  667POPC   C1B11731  44.938   4.369   8.564
  667POPC   C2B11732  44.885   4.358   8.264
  667POPC   C3B11733  44.939   4.350   7.964
  667POPC   C4B11734  44.941   4.319   7.664
  668POPC   NC311735   0.434   2.035   9.464
  668POPC   PO411736   0.407   1.993   9.164
  668POPC   GL111737   0.433   2.016   8.864
  668POPC   GL211738   0.554   1.921   8.864
  668POPC   C1A11739   0.446   1.993   8.564
  668POPC   D2A11740   0.431   1.966   8.264
  668POPC   C3A11741   0.419   2.002   7.964
  668POPC   C4A11742   0.424   2.038   7.664
  668POPC   C1B11743   0.665   1.979   8.564
  668POPC   C2B11744   0.634   1.967   8.264
  668POPC   C3B11745   0.691   1.980   7.964
  668POPC   C4B11746   0.720   1.977   7.664
  669POPC   NC311747  35.344  20.634   9.464
  669POPC   PO411748  35.373  20.566   9.164
  669POPC   GL111749  35.353  20.652   8.864
  669POPC   GL211750  35.254  20.663   8.864
  669POPC   C1A11751  35.366  20.627   8.564
  669POPC   D2A11752  35.400  20.621   8.264
  669POPC   C3A11753  35.372  20.590   7.964
  669POPC   C4A11754  35.325  20.568   7.664
  669POPC   C1B11755  35.194  20.827   8.564
  669POPC   C2B11756  35.152  20.809   8.264
  669POPC   C3B11757  35.210  20.792   7.964
  669POPC   C4B11758  35.210  20.780   7.664
  670POPC   NC311759  19.076   9.713   9.464
  670POPC   PO411760  19.041   9.792   9.164
  670POPC   GL111761  19.024   9.795   8.864
  670POPC   GL211762  19.002   9.664   8.864
  670POPC   C1A11763  19.078   9.719   8.564
  670POPC   D2A11764  19.097   9.738   8.264
  670POPC   C3A11765  19.098   9.796   7.964
  670POPC   C4A11766  19.101   9.785   7.664
  670POPC   C1B11767  18.920   9.504   8.564
  670POPC   C2B11768  18.944   9.552   8.264
  670POPC   C3B11769  18.898   9.556   7.964
  670POPC   C4B11770  18.920   9.499   7.664
  671POPC   NC311771  22.985  36.165   9.464
  671POPC   PO411772  22.914  36.160   9.164
  671POPC   GL111773  22.984  36.107   8.864
  671POPC   GL211774  23.038  36.142   8.864
  671POPC   C1A11775  22.917  36.125   8.564
  671POPC   D2A11776  22.967  36.098   8.264
  671POPC   C3A11777  22.923  36.111   7.964
  671POPC   C4A11778  22.965  36.119   7.664
  671POPC   C1B11779  23.197  36.217   8.564
  671POPC   C2B11780  23.118  36.242   8.264
  671POPC   C3B11781  23.141  36.251   7.964
  671POPC   C4B11782  23.132  36.234   7.664
  672POPC   NC311783  13.626  28.362   9.464
  672POPC   PO411784  13.602  28.407   9.164
  672POPC   GL111785  13.665  28.399   8.864
  672POPC   GL211786  13.488  28.372   8.864
  672POPC   C1A11787  13.583  28.413   8.564
  672POPC   D2A11788  13.645  28.415   8.264
  672POPC   C3A11789  13.661  28.365   7.964
  672POPC   C4A11790  13.638  28.354   7.664
  672POPC   C1B11791  13.402  28.411   8.564
  672POPC   C2B11792  13.388  28.412   8.264
  672POPC   C3B11793  13.391  28.395   7.964
  672POPC   C4B11794  13.401  28.489   7.664
  673POPC   NC311795   6.676  15.210   9.464
  673POPC   PO411796   6.677  15.192   9.164
  673POPC   GL111797   6.663  15.154   8.864
  673POPC   GL211798   6.656  15.070   8.864
  673POPC   C1A11799   6.634  15.144   8.564
  673POPC   D2A11800   6.609  15.172   8.264
  673POPC   C3A11801   6.682  15.218   7.964
  673POPC   C4A11802   6.600  15.223   7.664
  673POPC   C1B11803   6.658  14.948   8.564
  673POPC   C2B11804   6.676  14.966   8.264
  673POPC   C3B11805   6.663  14.943   7.964
  673POPC   C4B11806   6.707  14.947   7.664
  674POPC   NC311807  22.165  14.370   9.464
  674POPC   PO411808  22.153  14.443   9.164
  674POPC   GL111809  22.168  14.357   8.864
  674POPC   GL211810  22.204  14.348   8.864
  674POPC   C1A11811  22.143  14.432   8.564
  674POPC   D2A11812  22.165  14.374   8.264
  674POPC   C3A11813  22.132  14.390   7.964
  674POPC   C4A11814  22.201  14.450   7.664
  674POPC   C1B11815  22.320  14.234   8.564
  674POPC   C2B11816  22.360  14.244   8.264
  674POPC   C3B11817  22.334  14.184   7.964
  674POPC   C4B11818  22.322  14.212   7.664
  675POPC   NC311819   4.339   5.047   9.464
  675POPC   PO411820   4.298   5.104   9.164
  675POPC   GL111821   4.329   5.055   8.864
  675POPC   GL211822   4.420   4.972   8.864
  675POPC   C1A11823   4.301   5.115   8.564
  675POPC   D2A11824   4.296   5.108   8.264
  675POPC   C3A11825   4.308   5.138   7.964
  675POPC   C4A11826   4.332   5.060   7.664
  675POPC   C1B11827   4.419   4.864   8.564
  675POPC   C2B11828   4.434   4.834   8.264
  675POPC   C3B11829   4.423   4.879   7.964
  675POPC   C4B11830   4.436   4.910   7.664
  676POPC   NC311831  14.359  37.647   9.464
  676POPC   PO411832  14.411  37.667   9.164
  676POPC   GL111833  14.429  37.677   8.864
  676POPC   GL211834  14.349  37.754   8.864
  676POPC   C1A11835  14.434  37.670   8.564
  676POPC   D2A11836  14.414  37.689   8.264
  676POPC   C3A11837  14.381  37.692   7.964
  676POPC   C4A11838  14.358  37.720   7.664
  676POPC   C1B11839  14.208  37.828   8.564
  676POPC   C2B11840  14.244  37.874   8.264
  676POPC   C3B11841  14.231  37.800   7.964
  676POPC   C4B11842  14.202  37.890   7.664
  677POPC   NC311843   5.885   1.175   9.464
  677POPC   PO411844   5.822   1.170   9.164
  677POPC   GL111845   5.895   1.230   8.864
  677POPC   GL211846   6.026   1.233   8.864
  677POPC   C1A11847   5.904   1.218   8.564
  677POPC   D2A11848   5.870   1.198   8.264
  677POPC   C3A11849   5.888   1.179   7.964
  677POPC   C4A11850   5.902   1.259   7.664
  677POPC   C1B11851   6.150   1.209   8.564
  677POPC   C2B11852   6.120   1.173   8.264
  677POPC   C3B11853   6.099   1.269   7.964
  677POPC   C4B11854   6.127   1.220   7.664
  678POPC   NC311855  12.844  25.255   9.464
  678POPC   PO411856  12.857  25.258   9.164
  678POPC   GL111857  12.897  25.258   8.864
  678POPC   GL211858  12.789  25.421   8.864
  678POPC   C1A11859  12.816  25.244   8.564
  678POPC   D2A11860  12.866  25.290   8.264
  678POPC   C3A11861  12.811  25.263   7.964
  678POPC   C4A11862  12.885  25.287   7.664
  678POPC   C1B11863  12.822  25.519   8.564
  678POPC   C2B11864  12.768  25.550   8.264
  678POPC   C3B11865  12.778  25.473   7.964
  678POPC   C4B11866  12.856  25.482   7.664
  679POPC   NC311867   9.716  40.805   9.464
  679POPC   PO411868   9.791  40.775   9.164
  679POPC   GL111869   9.765  40.794   8.864
  679POPC   GL211870   9.701  40.874   8.864
  679POPC   C1A11871   9.760  40.829   8.564
  679POPC   D2A11872   9.706  40.776   8.264
  679POPC   C3A11873   9.791  40.800   7.964
  679POPC   C4A11874   9.740  40.804   7.664
  679POPC   C1B11875   9.556  40.952   8.564
  679POPC   C2B11876   9.599  41.000   8.264
  679POPC   C3B11877   9.603  40.932   7.964
  679POPC   C4B11878   9.594  41.009   7.664
  680POPC   NC311879   1.203  26.803   9.464
  680POPC   PO411880   1.205  26.834   9.164
  680POPC   GL111881   1.195  26.781   8.864
  680POPC   GL211882   1.341  26.906   8.864
  680POPC   C1A11883   1.216  26.818   8.564
  680POPC   D2A11884   1.240  26.855   8.264
  680POPC   C3A11885   1.200  26.837   7.964
  680POPC   C4A11886   1.263  26.834   7.664
  680POPC   C1B11887   1.385  26.959   8.564
  680POPC   C2B11888   1.450  26.928   8.264
  680POPC   C3B11889   1.412  26.971   7.964
  680POPC   C4B11890   1.416  26.982   7.664
  681POPC   NC311891  42.336  32.251   9.464
  681POPC   PO411892  42.302  32.265   9.164
  681POPC   GL111893  42.335  32.202   8.864
  681POPC   GL211894  42.425  32.377   8.864
  681POPC   C1A11895  42.360  32.225   8.564
  681POPC   D2A11896  42.321  32.268   8.264
  681POPC   C3A11897  42.372  32.229   7.964
  681POPC   C4A11898  42.358  32.258   7.664
  681POPC   C1B11899  42.439  32.498   8.564
  681POPC   C2B11900  42.413  32.506   8.264
  681POPC   C3B11901  42.463  32.489   7.964
  681POPC   C4B11902  42.468  32.433   7.664
  682POPC   NC311903  21.418  20.578   9.464
  682POPC   PO411904  21.426  20.628   9.164
  682POPC   GL111905  21.389  20.597   8.864
  682POPC   GL211906  21.360  20.497   8.864
  682POPC   C1A11907  21.395  20.622   8.564
  682POPC   D2A11908  21.405  20.624   8.264
  682POPC   C3A11909  21.360  20.564   7.964
  682POPC   C4A11910  21.369  20.642   7.664
  682POPC   C1B11911  21.334  20.396   8.564
  682POPC   C2B11912  21.348  20.371   8.264
  682POPC   C3B11913  21.319  20.351   7.964
  682POPC   C4B11914  21.317  20.327   7.664
  683POPC   NC311915   2.789   5.917   9.464
  683POPC   PO411916   2.814   5.857   9.164
  683POPC   GL111917   2.732   5.879   8.864
  683POPC   GL211918   2.809   5.793   8.864
  683POPC   C1A11919   2.763   5.882   8.564
  683POPC   D2A11920   2.738   5.876   8.264
  683POPC   C3A11921   2.787   5.840   7.964
  683POPC   C4A11922   2.722   5.854   7.664
  683POPC   C1B11923   2.838   5.657   8.564
  683POPC   C2B11924   2.840   5.613   8.264
  683POPC   C3B11925   2.838   5.627   7.964
  683POPC   C4B11926   2.881   5.656   7.664
  684POPC   NC311927  24.530  41.520   9.464
  684POPC   PO411928  24.529  41.509   9.164
  684POPC   GL111929  24.451  41.599   8.864
  684POPC   GL211930  24.494  41.457   8.864
  684POPC   C1A11931  24.475  41.572   8.564
  684POPC   D2A11932  24.519  41.591   8.264
  684POPC   C3A11933  24.469  41.513   7.964
  684POPC   C4A11934  24.511  41.560   7.664
  684POPC   C1B11935  24.499  41.304   8.564
  684POPC   C2B11936  24.550  41.353   8.264
  684POPC   C3B11937  24.554  41.290   7.964
  684POPC   C4B11938  24.570  41.350   7.664
  685POPC   NC311939   8.155  25.222   9.464
  685POPC   PO411940   8.169  25.304   9.164
  685POPC   GL111941   8.240  25.256   8.864
  685POPC   GL211942   8.043  25.270   8.864
  685POPC   C1A11943   8.170  25.260   8.564
  685POPC   D2A11944   8.160  25.285   8.264
  685POPC   C3A11945   8.155  25.269   7.964
  685POPC   C4A11946   8.201  25.299   7.664
  685POPC   C1B11947   7.924  25.236   8.564
  685POPC   C2B11948   7.944  25.231   8.264
  685POPC   C3B11949   8.006  25.189   7.964
  685POPC   C4B11950   7.957  25.201   7.664
  686POPC   NC311951   6.603  44.701   9.464
  686POPC   PO411952   6.605  44.639   9.164
  686POPC   GL111953   6.601  44.619   8.864
  686POPC   GL211954   6.537  44.609   8.864
  686POPC   C1A11955   6.626  44.686   8.564
  686POPC   D2A11956   6.662  44.643   8.264
  686POPC   C3A11957   6.647  44.632   7.964
  686POPC   C4A11958   6.675  44.700   7.664
  686POPC   C1B11959   6.407  44.613   8.564
  686POPC   C2B11960   6.412  44.596   8.264
  686POPC   C3B11961   6.448  44.623   7.964
  686POPC   C4B11962   6.420  44.566   7.664
  687POPC   NC311963  24.469  12.830   9.464
  687POPC   PO411964  24.463  12.819   9.164
  687POPC   GL111965  24.517  12.803   8.864
  687POPC   GL211966  24.412  12.937   8.864
  687POPC   C1A11967  24.535  12.858   8.564
  687POPC   D2A11968  24.458  12.890   8.264
  687POPC   C3A11969  24.514  12.901   7.964
  687POPC   C4A11970  24.497  12.861   7.664
  687POPC   C1B11971  24.299  13.012   8.564
  687POPC   C2B11972  24.338  13.046   8.264
  687POPC   C3B11973  24.306  13.089   7.964
  687POPC   C4B11974  24.383  13.029   7.664
  688POPC   NC311975  43.872  26.068   9.464
  688POPC   PO411976  43.925  26.010   9.164
  688POPC   GL111977  43.869  26.049   8.864
  688POPC   GL211978  43.882  25.871   8.864
  688POPC   C1A11979  43.932  26.026   8.564
  688POPC   D2A11980  43.850  26.004   8.264
  688POPC   C3A11981  43.849  26.091   7.964
  688POPC   C4A11982  43.862  26.072   7.664
  688POPC   C1B11983  43.859  25.815   8.564
  688POPC   C2B11984  43.818  25.758   8.264
  688POPC   C3B11985  43.880  25.820   7.964
  688POPC   C4B11986  43.881  25.789   7.664
  689POPC   NC311987  44.628  33.074   9.464
  689POPC   PO411988  44.652  32.984   9.164
  689POPC   GL111989  44.651  32.998   8.864
  689POPC   GL211990  44.734  33.131   8.864
  689POPC   C1A11991  44.639  33.006   8.564
  689POPC   D2A11992  44.663  32.997   8.264
  689POPC   C3A11993  44.644  33.070   7.964
  689POPC   C4A11994  44.674  33.013   7.664
  689POPC   C1B11995  44.807  33.273   8.564
  689POPC   C2B11996  44.756  33.260   8.264
  689POPC   C3B11997  44.831  33.200   7.964
  689POPC   C4B11998  44.816  33.279   7.664
  690POPC   NC311999  10.571  12.851   9.464
  690POPC   PO412000  10.539  12.884   9.164
  690POPC   GL112001  10.545  12.894   8.864
  690POPC   GL212002  10.478  12.772   8.864
  690POPC   C1A12003  10.521  12.854   8.564
  690POPC   D2A12004  10.489  12.843   8.264
  690POPC   C3A12005  10.532  12.894   7.964
  690POPC   C4A12006  10.500  12.897   7.664
  690POPC   C1B12007  10.399  12.579   8.564
  690POPC   C2B12008  10.430  12.571   8.264
  690POPC   C3B12009  10.399  12.647   7.964
  690POPC   C4B12010  10.453  12.607   7.664
  691POPC   NC312011  15.981  35.401   9.464
  691POPC   PO412012  15.906  35.319   9.164
  691POPC   GL112013  15.966  35.304   8.864
  691POPC   GL212014  16.073  35.319   8.864
  691POPC   C1A12015  15.931  35.346   8.564
  691POPC   D2A12016  15.916  35.304   8.264
  691POPC   C3A12017  15.962  35.346   7.964
  691POPC   C4A12018  16.004  35.356   7.664
  691POPC   C1B12019  16.226  35.306   8.564
  691POPC   C2B12020  16.251  35.306   8.264
  691POPC   C3B12021  16.165  35.302   7.964
  691POPC   C4B12022  16.162  35.322   7.664
  692POPC   NC312023  15.133  27.586   9.464
  692POPC   PO412024  15.166  27.548   9.164
  692POPC   GL112025  15.134  27.633   8.864
  692POPC   GL212026  15.218  27.466   8.864
  692POPC   C1A12027  15.175  27.643   8.564
  692POPC   D2A12028  15.213  27.558   8.264
  692POPC   C3A12029  15.181  27.563   7.964
  692POPC   C4A12030  15.171  27.615   7.664
  692POPC   C1B12031  15.284  27.333   8.564
  692POPC   C2B12032  15.254  27.357   8.264
  692POPC   C3B12033  15.239  27.395   7.964
  692POPC   C4B12034  15.247  27.347   7.664
  693POPC   NC312035  24.495  29.155   9.464
  693POPC   PO412036  24.490  29.177   9.164
  693POPC   GL112037  24.478  29.096   8.864
  693POPC   GL212038  24.366  29.135   8.864
  693POPC   C1A12039  24.526  29.128   8.564
  693POPC   D2A12040  24.455  29.152   8.264
  693POPC   C3A12041  24.476  29.130   7.964
  693POPC   C4A12042  24.514  29.132   7.664
  693POPC   C1B12043  24.232  29.133   8.564
  693POPC   C2B12044  24.241  29.165   8.264
  693POPC   C3B12045  24.233  29.185   7.964
  693POPC   C4B12046  24.222  29.159   7.664
  694POPC   NC312047  15.160  43.124   9.464
  694POPC   PO412048  15.136  43.133   9.164
  694POPC   GL112049  15.214  43.159   8.864
  694POPC   GL212050  15.256  43.155   8.864
  694POPC   C1A12051  15.158  43.129   8.564
  694POPC   D2A12052  15.140  43.095   8.264
  694POPC   C3A12053  15.142  43.073   7.964
  694POPC   C4A12054  15.227  43.090   7.664
  694POPC   C1B12055  15.387  43.225   8.564
  694POPC   C2B12056  15.468  43.137   8.264
  694POPC   C3B12057  15.465  43.183   7.964
  694POPC   C4B12058  15.371  43.192   7.664
  695POPC   NC312059  36.933  29.893   9.464
  695POPC   PO412060  36.920  29.895   9.164
  695POPC   GL112061  36.939  29.935   8.864
  695POPC   GL212062  36.835  29.821   8.864
  695POPC   C1A12063  36.934  29.963   8.564
  695POPC   D2A12064  36.909  29.907   8.264
  695POPC   C3A12065  36.889  29.945   7.964
  695POPC   C4A12066  36.856  29.890   7.664
  695POPC   C1B12067  36.735  29.740   8.564
  695POPC   C2B12068  36.723  29.733   8.264
  695POPC   C3B12069  36.779  29.749   7.964
  695POPC   C4B12070  36.727  29.786   7.664
  696POPC   NC312071  26.064   7.396   9.464
  696POPC   PO412072  26.064   7.390   9.164
  696POPC   GL112073  26.008   7.403   8.864
  696POPC   GL212074  25.949   7.545   8.864
  696POPC   C1A12075  26.079   7.429   8.564
  696POPC   D2A12076  26.074   7.414   8.264
  696POPC   C3A12077  25.998   7.466   7.964
  696POPC   C4A12078  26.029   7.428   7.664
  696POPC   C1B12079  25.878   7.542   8.564
  696POPC   C2B12080  25.882   7.548   8.264
  696POPC   C3B12081  25.867   7.566   7.964
  696POPC   C4B12082  25.853   7.625   7.664
  697POPC   NC312083   1.221  10.490   9.464
  697POPC   PO412084   1.219  10.517   9.164
  697POPC   GL112085   1.218  10.542   8.864
  697POPC   GL212086   1.351  10.580   8.864
  697POPC   C1A12087   1.172  10.535   8.564
  697POPC   D2A12088   1.221  10.486   8.264
  697POPC   C3A12089   1.191  10.552   7.964
  697POPC   C4A12090   1.192  10.546   7.664
  697POPC   C1B12091   1.455  10.630   8.564
  697POPC   C2B12092   1.415  10.642   8.264
  697POPC   C3B12093   1.369  10.656   7.964
  697POPC   C4B12094   1.410  10.719   7.664
  698POPC   NC312095  40.010   9.003   9.464
  698POPC   PO412096  40.027   8.934   9.164
  698POPC   GL112097  39.989   8.945   8.864
  698POPC   GL212098  40.052   8.832   8.864
  698POPC   C1A12099  40.054   9.004   8.564
  698POPC   D2A12100  40.033   8.935   8.264
  698POPC   C3A12101  39.993   8.974   7.964
  698POPC   C4A12102  39.983   8.933   7.664
  698POPC   C1B12103  40.125   8.761   8.564
  698POPC   C2B12104  40.060   8.749   8.264
  698POPC   C3B12105  40.045   8.717   7.964
  698POPC   C4B12106  40.116   8.718   7.664
  699POPC   NC312107  12.106  20.654   9.464
  699POPC   PO412108  12.124  20.563   9.164
  699POPC   GL112109  12.046  20.566   8.864
  699POPC   GL212110  12.028  20.694   8.864
  699POPC   C1A12111  12.027  20.573   8.564
  699POPC   D2A12112  12.042  20.561   8.264
  699POPC   C3A12113  12.116  20.648   7.964
  699POPC   C4A12114  12.095  20.597   7.664
  699POPC   C1B12115  11.973  20.823   8.564
  699POPC   C2B12116  11.934  20.796   8.264
  699POPC   C3B12117  11.958  20.836   7.964
  699POPC   C4B12118  11.985  20.863   7.664
  700POPC   NC312119  36.105  11.291   9.464
  700POPC   PO412120  36.172  11.314   9.164
  700POPC   GL112121  36.133  11.277   8.864
  700POPC   GL212122  36.054  11.374   8.864
  700POPC   C1A12123  36.083  11.286   8.564
  700POPC   D2A12124  36.162  11.315   8.264
  700POPC   C3A12125  36.092  11.334   7.964
  700POPC   C4A12126  36.174  11.323   7.664
  700POPC   C1B12127  36.050  11.536   8.564
  700POPC   C2B12128  36.041  11.536   8.264
  700POPC   C3B12129  35.986  11.480   7.964
  700POPC   C4B12130  36.040  11.509   7.664
  701POPC   NC312131  22.210  38.501   9.464
  701POPC   PO412132  22.209  38.478   9.164
  701POPC   GL112133  22.146  38.458   8.864
  701POPC   GL212134  22.247  38.383   8.864
  701POPC   C1A12135  22.166  38.412   8.564
  701POPC   D2A12136  22.167  38.504   8.264
  701POPC   C3A12137  22.140  38.439   7.964
  701POPC   C4A12138  22.189  38.442   7.664
  701POPC   C1B12139  22.236  38.226   8.564
  701POPC   C2B12140  22.235  38.170   8.264
  701POPC   C3B12141  22.291  38.216   7.964
  701POPC   C4B12142  22.262  38.170   7.664
  702POPC   NC312143  27.636  15.229   9.464
  702POPC   PO412144  27.561  15.179   9.164
  702POPC   GL112145  27.566  15.179   8.864
  702POPC   GL212146  27.472  15.237   8.864
  702POPC   C1A12147  27.567  15.202   8.564
  702POPC   D2A12148  27.633  15.215   8.264
  702POPC   C3A12149  27.549  15.157   7.964
  702POPC   C4A12150  27.547  15.227   7.664
  702POPC   C1B12151  27.411  15.248   8.564
  702POPC   C2B12152  27.422  15.308   8.264
  702POPC   C3B12153  27.402  15.317   7.964
  702POPC   C4B12154  27.383  15.336   7.664
  703POPC   NC312155  37.679  29.141   9.464
  703POPC   PO412156  37.683  29.172   9.164
  703POPC   GL112157  37.707  29.114   8.864
  703POPC   GL212158  37.764  29.025   8.864
  703POPC   C1A12159  37.638  29.184   8.564
  703POPC   D2A12160  37.651  29.113   8.264
  703POPC   C3A12161  37.718  29.099   7.964
  703POPC   C4A12162  37.690  29.110   7.664
  703POPC   C1B12163  37.792  28.983   8.564
  703POPC   C2B12164  37.864  28.944   8.264
  703POPC   C3B12165  37.844  28.908   7.964
  703POPC   C4B12166  37.876  28.922   7.664
  704POPC   NC312167  40.786  19.824   9.464
  704POPC   PO412168  40.824  19.843   9.164
  704POPC   GL112169  40.757  19.865   8.864
  704POPC   GL212170  40.733  19.703   8.864
  704POPC   C1A12171  40.753  19.853   8.564
  704POPC   D2A12172  40.774  19.802   8.264
  704POPC   C3A12173  40.758  19.861   7.964
  704POPC   C4A12174  40.751  19.809   7.664
  704POPC   C1B12175  40.720  19.572   8.564
  704POPC   C2B12176  40.728  19.613   8.264
  704POPC   C3B12177  40.693  19.599   7.964
  704POPC   C4B12178  40.751  19.625   7.664
  705POPC   NC312179  31.454  41.608   9.464
  705POPC   PO412180  31.425  41.519   9.164
  705POPC   GL112181  31.437  41.576   8.864
  705POPC   GL212182  31.572  41.613   8.864
  705POPC   C1A12183  31.440  41.605   8.564
  705POPC   D2A12184  31.429  41.530   8.264
  705POPC   C3A12185  31.480  41.567   7.964
  705POPC   C4A12186  31.439  41.549   7.664
  705POPC   C1B12187  31.696  41.582   8.564
  705POPC   C2B12188  31.696  41.549   8.264
  705POPC   C3B12189  31.768  41.590   7.964
  705POPC   C4B12190  31.739  41.579   7.664
  706POPC   NC312191  25.254  25.268   9.464
  706POPC   PO412192  25.225  25.239   9.164
  706POPC   GL112193  25.275  25.315   8.864
  706POPC   GL212194  25.156  25.303   8.864
  706POPC   C1A12195  25.286  25.297   8.564
  706POPC   D2A12196  25.256  25.241   8.264
  706POPC   C3A12197  25.271  25.304   7.964
  706POPC   C4A12198  25.259  25.223   7.664
  706POPC   C1B12199  25.011  25.358   8.564
  706POPC   C2B12200  25.005  25.419   8.264
  706POPC   C3B12201  25.058  25.377   7.964
  706POPC   C4B12202  25.007  25.394   7.664
  707POPC   NC312203  17.484  14.392   9.464
  707POPC   PO412204  17.493  14.367   9.164
  707POPC   GL112205  17.471  14.415   8.864
  707POPC   GL212206  17.431  14.461   8.864
  707POPC   C1A12207  17.532  14.384   8.564
  707POPC   D2A12208  17.512  14.397   8.264
  707POPC   C3A12209  17.485  14.381   7.964
  707POPC   C4A12210  17.495  14.368   7.664
  707POPC   C1B12211  17.278  14.499   8.564
  707POPC   C2B12212  17.247  14.472   8.264
  707POPC   C3B12213  17.317  14.503   7.964
  707POPC   C4B12214  17.227  14.512   7.664
  708POPC   NC312215  30.680   8.978   9.464
  708POPC   PO412216  30.654   9.018   9.164
  708POPC   GL112217  30.690   8.961   8.864
  708POPC   GL212218  30.549   9.042   8.864
  708POPC   C1A12219  30.738   8.946   8.564
  708POPC   D2A12220  30.725   8.939   8.264
  708POPC   C3A12221  30.651   9.005   7.964
  708POPC   C4A12222  30.663   8.964   7.664
  708POPC   C1B12223  30.471   9.130   8.564
  708POPC   C2B12224  30.448   9.087   8.264
  708POPC   C3B12225  30.518   9.040   7.964
  708POPC   C4B12226  30.494   9.112   7.664
  709POPC   NC312227  11.315   4.293   9.464
  709POPC   PO412228  11.292   4.272   9.164
  709POPC   GL112229  11.261   4.347   8.864
  709POPC   GL212230  11.136   4.320   8.864
  709POPC   C1A12231  11.260   4.289   8.564
  709POPC   D2A12232  11.306   4.291   8.264
  709POPC   C3A12233  11.283   4.294   7.964
  709POPC   C4A12234  11.277   4.280   7.664
  709POPC   C1B12235  11.043   4.423   8.564
  709POPC   C2B12236  11.033   4.408   8.264
  709POPC   C3B12237  11.085   4.390   7.964
  709POPC   C4B12238  11.065   4.398   7.664
  710POPC   NC312239   8.181  39.195   9.464
  710POPC   PO412240   8.158  39.186   9.164
  710POPC   GL112241   8.158  39.201   8.864
  710POPC   GL212242   8.283  39.288   8.864
  710POPC   C1A12243   8.242  39.194   8.564
  710POPC   D2A12244   8.168  39.279   8.264
  710POPC   C3A12245   8.204  39.186   7.964
  710POPC   C4A12246   8.200  39.198   7.664
  710POPC   C1B12247   8.391  39.429   8.564
  710POPC   C2B12248   8.408  39.340   8.264
  710POPC   C3B12249   8.398  39.407   7.964
  710POPC   C4B12250   8.352  39.368   7.664
  711POPC   NC312251  32.261  40.018   9.464
  711POPC   PO412252  32.221  40.057   9.164
  711POPC   GL112253  32.295  40.030   8.864
  711POPC   GL212254  32.194  39.914   8.864
  711POPC   C1A12255  32.275  39.970   8.564
  711POPC   D2A12256  32.298  40.018   8.264
  711POPC   C3A12257  32.241  40.047   7.964
  711POPC   C4A12258  32.293  40.051   7.664
  711POPC   C1B12259  32.110  39.752   8.564
  711POPC   C2B12260  32.176  39.794   8.264
  711POPC   C3B12261  32.194  39.823   7.964
  711POPC   C4B12262  32.177  39.816   7.664
  712POPC   NC312263   5.108  20.651   9.464
  712POPC   PO412264   5.138  20.649   9.164
  712POPC   GL112265   5.065  20.660   8.864
  712POPC   GL212266   5.227  20.583   8.864
  712POPC   C1A12267   5.087  20.627   8.564
  712POPC   D2A12268   5.135  20.638   8.264
  712POPC   C3A12269   5.091  20.650   7.964
  712POPC   C4A12270   5.099  20.589   7.664
  712POPC   C1B12271   5.301  20.497   8.564
  712POPC   C2B12272   5.290  20.446   8.264
  712POPC   C3B12273   5.253  20.451   7.964
  712POPC   C4B12274   5.253  20.450   7.664
  713POPC   NC312275  26.850  41.596   9.464
  713POPC   PO412276  26.844  41.524   9.164
  713POPC   GL112277  26.842  41.521   8.864
  713POPC   GL212278  26.930  41.563   8.864
  713POPC   C1A12279  26.828  41.571   8.564
  713POPC   D2A12280  26.775  41.587   8.264
  713POPC   C3A12281  26.803  41.558   7.964
  713POPC   C4A12282  26.864  41.548   7.664
  713POPC   C1B12283  27.037  41.622   8.564
  713POPC   C2B12284  27.062  41.617   8.264
  713POPC   C3B12285  27.112  41.551   7.964
  713POPC   C4B12286  27.101  41.618   7.664
  714POPC   NC312287  21.407  25.286   9.464
  714POPC   PO412288  21.369  25.217   9.164
  714POPC   GL112289  21.343  25.257   8.864
  714POPC   GL212290  21.253  25.265   8.864
  714POPC   C1A12291  21.421  25.299   8.564
  714POPC   D2A12292  21.427  25.287   8.264
  714POPC   C3A12293  21.377  25.244   7.964
  714POPC   C4A12294  21.411  25.255   7.664
  714POPC   C1B12295  21.177  25.278   8.564
  714POPC   C2B12296  21.105  25.344   8.264
  714POPC   C3B12297  21.121  25.287   7.964
  714POPC   C4B12298  21.184  25.308   7.664
  715POPC   NC312299   7.408  44.697   9.464
  715POPC   PO412300   7.426  44.612   9.164
  715POPC   GL112301   7.404  44.645   8.864
  715POPC   GL212302   7.562  44.647   8.864
  715POPC   C1A12303   7.402  44.642   8.564
  715POPC   D2A12304   7.401  44.710   8.264
  715POPC   C3A12305   7.455  44.712   7.964
  715POPC   C4A12306   7.435  44.692   7.664
  715POPC   C1B12307   7.666  44.597   8.564
  715POPC   C2B12308   7.655  44.626   8.264
  715POPC   C3B12309   7.641  44.586   7.964
  715POPC   C4B12310   7.682  44.628   7.664
  716POPC   NC312311  10.512  27.592   9.464
  716POPC   PO412312  10.533  27.592   9.164
  716POPC   GL112313  10.566  27.555   8.864
  716POPC   GL212314  10.434  27.568   8.864
  716POPC   C1A12315  10.564  27.615   8.564
  716POPC   D2A12316  10.560  27.576   8.264
  716POPC   C3A12317  10.552  27.544   7.964
  716POPC   C4A12318  10.506  27.607   7.664
  716POPC   C1B12319  10.337  27.523   8.564
  716POPC   C2B12320  10.308  27.434   8.264
  716POPC   C3B12321  10.292  27.503   7.964
  716POPC   C4B12322  10.345  27.484   7.664
  717POPC   NC312323  24.520  22.179   9.464
  717POPC   PO412324  24.489  22.150   9.164
  717POPC   GL112325  24.514  22.207   8.864
  717POPC   GL212326  24.550  22.003   8.864
  717POPC   C1A12327  24.513  22.141   8.564
  717POPC   D2A12328  24.540  22.203   8.264
  717POPC   C3A12329  24.468  22.173   7.964
  717POPC   C4A12330  24.459  22.154   7.664
  717POPC   C1B12331  24.631  21.906   8.564
  717POPC   C2B12332  24.586  21.926   8.264
  717POPC   C3B12333  24.576  21.906   7.964
  717POPC   C4B12334  24.607  21.948   7.664
  718POPC   NC312335  40.824  18.330   9.464
  718POPC   PO412336  40.766  18.310   9.164
  718POPC   GL112337  40.742  18.300   8.864
  718POPC   GL212338  40.868  18.218   8.864
  718POPC   C1A12339  40.752  18.279   8.564
  718POPC   D2A12340  40.752  18.267   8.264
  718POPC   C3A12341  40.767  18.272   7.964
  718POPC   C4A12342  40.814  18.302   7.664
  718POPC   C1B12343  40.969  18.104   8.564
  718POPC   C2B12344  40.930  18.027   8.264
  718POPC   C3B12345  40.877  18.045   7.964
  718POPC   C4B12346  40.964  18.097   7.664
  719POPC   NC312347  15.147  19.080   9.464
  719POPC   PO412348  15.146  19.035   9.164
  719POPC   GL112349  15.177  19.013   8.864
  719POPC   GL212350  15.038  19.080   8.864
  719POPC   C1A12351  15.164  19.036   8.564
  719POPC   D2A12352  15.227  19.096   8.264
  719POPC   C3A12353  15.222  19.107   7.964
  719POPC   C4A12354  15.150  19.073   7.664
  719POPC   C1B12355  14.914  19.146   8.564
  719POPC   C2B12356  14.951  19.138   8.264
  719POPC   C3B12357  14.992  19.162   7.964
  719POPC   C4B12358  14.976  19.150   7.664
  720POPC   NC312359  17.463  17.478   9.464
  720POPC   PO412360  17.487  17.527   9.164
  720POPC   GL112361  17.496  17.476   8.864
  720POPC   GL212362  17.391  17.551   8.864
  720POPC   C1A12363  17.474  17.514   8.564
  720POPC   D2A12364  17.527  17.538   8.264
  720POPC   C3A12365  17.462  17.511   7.964
  720POPC   C4A12366  17.552  17.522   7.664
  720POPC   C1B12367  17.252  17.546   8.564
  720POPC   C2B12368  17.282  17.555   8.264
  720POPC   C3B12369  17.210  17.500   7.964
  720POPC   C4B12370  17.291  17.538   7.664
  721POPC   NC312371   5.054   0.423   9.464
  721POPC   PO412372   5.100   0.461   9.164
  721POPC   GL112373   5.138   0.463   8.864
  721POPC   GL212374   5.017   0.510   8.864
  721POPC   C1A12375   5.093   0.477   8.564
  721POPC   D2A12376   5.127   0.451   8.264
  721POPC   C3A12377   5.135   0.459   7.964
  721POPC   C4A12378   5.091   0.448   7.664
  721POPC   C1B12379   4.935   0.697   8.564
  721POPC   C2B12380   4.953   0.675   8.264
  721POPC   C3B12381   4.988   0.658   7.964
  721POPC   C4B12382   4.977   0.702   7.664
  722POPC   NC312383  17.462  33.053   9.464
  722POPC   PO412384  17.535  32.978   9.164
  722POPC   GL112385  17.517  33.058   8.864
  722POPC   GL212386  17.435  32.957   8.864
  722POPC   C1A12387  17.477  33.004   8.564
  722POPC   D2A12388  17.526  33.039   8.264
  722POPC   C3A12389  17.543  32.992   7.964
  722POPC   C4A12390  17.552  33.062   7.664
  722POPC   C1B12391  17.271  32.947   8.564
  722POPC   C2B12392  17.309  32.934   8.264
  722POPC   C3B12393  17.301  32.951   7.964
  722POPC   C4B12394  17.320  32.896   7.664
  723POPC   NC312395  24.445  24.519   9.464
  723POPC   PO412396  24.454  24.496   9.164
  723POPC   GL112397  24.462  24.520   8.864
  723POPC   GL212398  24.417  24.352   8.864
  723POPC   C1A12399  24.528  24.443   8.564
  723POPC   D2A12400  24.448  24.515   8.264
  723POPC   C3A12401  24.515  24.523   7.964
  723POPC   C4A12402  24.529  24.468   7.664
  723POPC   C1B12403  24.452  24.262   8.564
  723POPC   C2B12404  24.410  24.216   8.264
  723POPC   C3B12405  24.408  24.253   7.964
  723POPC   C4B12406  24.396  24.269   7.664
  724POPC   NC312407   4.296  37.635   9.464
  724POPC   PO412408   4.292  37.710   9.164
  724POPC   GL112409   4.366  37.637   8.864
  724POPC   GL212410   4.160  37.681   8.864
  724POPC   C1A12411   4.278  37.687   8.564
  724POPC   D2A12412   4.270  37.664   8.264
  724POPC   C3A12413   4.350  37.632   7.964
  724POPC   C4A12414   4.349  37.711   7.664
  724POPC   C1B12415   4.112  37.790   8.564
  724POPC   C2B12416   4.097  37.724   8.264
  724POPC   C3B12417   4.065  37.765   7.964
  724POPC   C4B12418   4.115  37.780   7.664
  725POPC   NC312419  39.990   1.235   9.464
  725POPC   PO412420  39.967   1.165   9.164
  725POPC   GL112421  39.997   1.185   8.864
  725POPC   GL212422  40.034   1.060   8.864
  725POPC   C1A12423  40.039   1.217   8.564
  725POPC   D2A12424  40.030   1.247   8.264
  725POPC   C3A12425  39.973   1.173   7.964
  725POPC   C4A12426  40.052   1.226   7.664
  725POPC   C1B12427  39.965   0.991   8.564
  725POPC   C2B12428  39.991   0.930   8.264
  725POPC   C3B12429  39.943   0.981   7.964
  725POPC   C4B12430  39.955   0.984   7.664
  726POPC   NC312431  11.268  10.536   9.464
  726POPC   PO412432  11.279  10.508   9.164
  726POPC   GL112433  11.291  10.490   8.864
  726POPC   GL212434  11.424  10.473   8.864
  726POPC   C1A12435  11.309  10.573   8.564
  726POPC   D2A12436  11.310  10.522   8.264
  726POPC   C3A12437  11.264  10.493   7.964
  726POPC   C4A12438  11.276  10.514   7.664
  726POPC   C1B12439  11.521  10.354   8.564
  726POPC   C2B12440  11.436  10.312   8.264
  726POPC   C3B12441  11.519  10.346   7.964
  726POPC   C4B12442  11.471  10.351   7.664
  727POPC   NC312443  34.589  26.059   9.464
  727POPC   PO412444  34.623  26.055   9.164
  727POPC   GL112445  34.614  26.028   8.864
  727POPC   GL212446  34.435  26.142   8.864
  727POPC   C1A12447  34.553  26.035   8.564
  727POPC   D2A12448  34.607  26.062   8.264
  727POPC   C3A12449  34.599  26.002   7.964
  727POPC   C4A12450  34.540  26.067   7.664
  727POPC   C1B12451  34.382  26.111   8.564
  727POPC   C2B12452  34.387  26.142   8.264
  727POPC   C3B12453  34.399  26.186   7.964
  727POPC   C4B12454  34.318  26.148   7.664
  728POPC   NC312455  26.862  22.937   9.464
  728POPC   PO412456  26.810  22.888   9.164
  728POPC   GL112457  26.849  22.906   8.864
  728POPC   GL212458  26.825  22.815   8.864
  728POPC   C1A12459  26.782  22.894   8.564
  728POPC   D2A12460  26.786  22.981   8.264
  728POPC   C3A12461  26.800  22.936   7.964
  728POPC   C4A12462  26.863  22.973   7.664
  728POPC   C1B12463  26.770  22.728   8.564
  728POPC   C2B12464  26.785  22.649   8.264
  728POPC   C3B12465  26.759  22.726   7.964
  728POPC   C4B12466  26.801  22.661   7.664
  729POPC   NC312467  26.056  25.288   9.464
  729POPC   PO412468  26.064  25.225   9.164
  729POPC   GL112469  26.089  25.292   8.864
  729POPC   GL212470  26.081  25.354   8.864
  729POPC   C1A12471  26.054  25.255   8.564
  729POPC   D2A12472  25.995  25.243   8.264
  729POPC   C3A12473  26.047  25.300   7.964
  729POPC   C4A12474  26.060  25.232   7.664
  729POPC   C1B12475  26.080  25.530   8.564
  729POPC   C2B12476  26.037  25.560   8.264
  729POPC   C3B12477  26.057  25.485   7.964
  729POPC   C4B12478  25.999  25.466   7.664
  730POPC   NC312479   0.402  15.179   9.464
  730POPC   PO412480   0.432  15.145   9.164
  730POPC   GL112481   0.478  15.137   8.864
  730POPC   GL212482   0.328  15.281   8.864
  730POPC   C1A12483   0.396  15.211   8.564
  730POPC   D2A12484   0.405  15.165   8.264
  730POPC   C3A12485   0.484  15.220   7.964
  730POPC   C4A12486   0.436  15.217   7.664
  730POPC   C1B12487   0.215  15.324   8.564
  730POPC   C2B12488   0.166  15.311   8.264
  730POPC   C3B12489   0.178  15.270   7.964
  730POPC   C4B12490   0.243  15.322   7.664
  731POPC   NC312491  43.061  43.882   9.464
  731POPC   PO412492  43.090  43.875   9.164
  731POPC   GL112493  43.097  43.906   8.864
  731POPC   GL212494  43.255  43.978   8.864
  731POPC   C1A12495  43.080  43.907   8.564
  731POPC   D2A12496  43.092  43.928   8.264
  731POPC   C3A12497  43.069  43.869   7.964
  731POPC   C4A12498  43.064  43.888   7.664
  731POPC   C1B12499  43.325  44.009   8.564
  731POPC   C2B12500  43.296  43.984   8.264
  731POPC   C3B12501  43.347  43.941   7.964
  731POPC   C4B12502  43.342  43.942   7.664
  732POPC   NC312503  34.550  30.670   9.464
  732POPC   PO412504  34.582  30.649   9.164
  732POPC   GL112505  34.528  30.728   8.864
  732POPC   GL212506  34.421  30.681   8.864
  732POPC   C1A12507  34.565  30.658   8.564
  732POPC   D2A12508  34.573  30.660   8.264
  732POPC   C3A12509  34.551  30.693   7.964
  732POPC   C4A12510  34.602  30.656   7.664
  732POPC   C1B12511  34.379  30.598   8.564
  732POPC   C2B12512  34.354  30.588   8.264
  732POPC   C3B12513  34.366  30.663   7.964
  732POPC   C4B12514  34.304  30.655   7.664
  733POPC   NC312515   9.796  28.363   9.464
  733POPC   PO412516   9.699  28.353   9.164
  733POPC   GL112517   9.707  28.414   8.864
  733POPC   GL212518   9.708  28.501   8.864
  733POPC   C1A12519   9.733  28.378   8.564
  733POPC   D2A12520   9.775  28.324   8.264
  733POPC   C3A12521   9.718  28.324   7.964
  733POPC   C4A12522   9.729  28.400   7.664
  733POPC   C1B12523   9.612  28.588   8.564
  733POPC   C2B12524   9.567  28.581   8.264
  733POPC   C3B12525   9.592  28.612   7.964
  733POPC   C4B12526   9.576  28.612   7.664
  734POPC   NC312527  37.651  16.697   9.464
  734POPC   PO412528  37.691  16.688   9.164
  734POPC   GL112529  37.713  16.729   8.864
  734POPC   GL212530  37.535  16.808   8.864
  734POPC   C1A12531  37.694  16.778   8.564
  734POPC   D2A12532  37.708  16.686   8.264
  734POPC   C3A12533  37.653  16.763   7.964
  734POPC   C4A12534  37.674  16.738   7.664
  734POPC   C1B12535  37.426  16.850   8.564
  734POPC   C2B12536  37.423  16.775   8.264
  734POPC   C3B12537  37.480  16.837   7.964
  734POPC   C4B12538  37.424  16.796   7.664
  735POPC   NC312539  23.735   1.252   9.464
  735POPC   PO412540  23.748   1.231   9.164
  735POPC   GL112541  23.751   1.257   8.864
  735POPC   GL212542  23.817   1.312   8.864
  735POPC   C1A12543  23.675   1.211   8.564
  735POPC   D2A12544  23.730   1.235   8.264
  735POPC   C3A12545  23.731   1.232   7.964
  735POPC   C4A12546  23.752   1.169   7.664
  735POPC   C1B12547  23.960   1.322   8.564
  735POPC   C2B12548  23.967   1.334   8.264
  735POPC   C3B12549  23.935   1.333   7.964
  735POPC   C4B12550  23.957   1.316   7.664
  736POPC   NC312551  28.346  42.286   9.464
  736POPC   PO412552  28.400  42.353   9.164
  736POPC   GL112553  28.403  42.292   8.864
  736POPC   GL212554  28.267  42.274   8.864
  736POPC   C1A12555  28.408  42.320   8.564
  736POPC   D2A12556  28.350  42.306   8.264
  736POPC   C3A12557  28.347  42.340   7.964
  736POPC   C4A12558  28.389  42.303   7.664
  736POPC   C1B12559  28.137  42.321   8.564
  736POPC   C2B12560  28.117  42.232   8.264
  736POPC   C3B12561  28.088  42.279   7.964
  736POPC   C4B12562  28.125  42.303   7.664
  737POPC   NC312563  27.560  41.555   9.464
  737POPC   PO412564  27.593  41.583   9.164
  737POPC   GL112565  27.543  41.579   8.864
  737POPC   GL212566  27.590  41.469   8.864
  737POPC   C1A12567  27.556  41.550   8.564
  737POPC   D2A12568  27.546  41.536   8.264
  737POPC   C3A12569  27.611  41.554   7.964
  737POPC   C4A12570  27.544  41.579   7.664
  737POPC   C1B12571  27.610  41.312   8.564
  737POPC   C2B12572  27.618  41.332   8.264
  737POPC   C3B12573  27.595  41.292   7.964
  737POPC   C4B12574  27.609  41.320   7.664
  738POPC   NC312575  31.515  43.150   9.464
  738POPC   PO412576  31.500  43.152   9.164
  738POPC   GL112577  31.509  43.073   8.864
  738POPC   GL212578  31.627  43.077   8.864
  738POPC   C1A12579  31.518  43.078   8.564
  738POPC   D2A12580  31.477  43.072   8.264
  738POPC   C3A12581  31.502  43.128   7.964
  738POPC   C4A12582  31.488  43.102   7.664
  738POPC   C1B12583  31.710  43.091   8.564
  738POPC   C2B12584  31.689  43.092   8.264
  738POPC   C3B12585  31.731  43.077   7.964
  738POPC   C4B12586  31.706  43.031   7.664
  739POPC   NC312587  10.528  36.171   9.464
  739POPC   PO412588  10.558  36.127   9.164
  739POPC   GL112589  10.567  36.154   8.864
  739POPC   GL212590  10.412  36.115   8.864
  739POPC   C1A12591  10.543  36.108   8.564
  739POPC   D2A12592  10.539  36.118   8.264
  739POPC   C3A12593  10.571  36.090   7.964
  739POPC   C4A12594  10.525  36.120   7.664
  739POPC   C1B12595  10.294  36.183   8.564
  739POPC   C2B12596  10.276  36.161   8.264
  739POPC   C3B12597  10.261  36.138   7.964
  739POPC   C4B12598  10.295  36.138   7.664
  740POPC   NC312599  29.886  33.775   9.464
  740POPC   PO412600  29.911  33.833   9.164
  740POPC   GL112601  29.893  33.804   8.864
  740POPC   GL212602  30.079  33.771   8.864
  740POPC   C1A12603  29.968  33.823   8.564
  740POPC   D2A12604  29.924  33.813   8.264
  740POPC   C3A12605  29.918  33.751   7.964
  740POPC   C4A12606  29.896  33.768   7.664
  740POPC   C1B12607  30.149  33.648   8.564
  740POPC   C2B12608  30.150  33.718   8.264
  740POPC   C3B12609  30.106  33.670   7.964
  740POPC   C4B12610  30.196  33.700   7.664
  741POPC   NC312611  15.214  42.361   9.464
  741POPC   PO412612  15.130  42.349   9.164
  741POPC   GL112613  15.218  42.381   8.864
  741POPC   GL212614  15.271  42.288   8.864
  741POPC   C1A12615  15.147  42.344   8.564
  741POPC   D2A12616  15.145  42.359   8.264
  741POPC   C3A12617  15.206  42.375   7.964
  741POPC   C4A12618  15.166  42.367   7.664
  741POPC   C1B12619  15.423  42.228   8.564
  741POPC   C2B12620  15.368  42.195   8.264
  741POPC   C3B12621  15.424  42.140   7.964
  741POPC   C4B12622  15.395  42.213   7.664
  742POPC   NC312623  23.688  44.667   9.464
  742POPC   PO412624  23.745  44.649   9.164
  742POPC   GL112625  23.704  44.704   8.864
  742POPC   GL212626  23.839  44.592   8.864
  742POPC   C1A12627  23.752  44.703   8.564
  742POPC   D2A12628  23.696  44.624   8.264
  742POPC   C3A12629  23.704  44.653   7.964
  742POPC   C4A12630  23.742  44.672   7.664
  742POPC   C1B12631  23.956  44.511   8.564
  742POPC   C2B12632  23.877  44.522   8.264
  742POPC   C3B12633  23.878  44.510   7.964
  742POPC   C4B12634  23.959  44.535   7.664
  743POPC   NC312635  36.871   1.170   9.464
  743POPC   PO412636  36.925   1.170   9.164
  743POPC   GL112637  36.864   1.203   8.864
  743POPC   GL212638  36.951   1.344   8.864
  743POPC   C1A12639  36.872   1.184   8.564
  743POPC   D2A12640  36.933   1.187   8.264
  743POPC   C3A12641  36.884   1.199   7.964
  743POPC   C4A12642  36.858   1.169   7.664
  743POPC   C1B12643  36.978   1.413   8.564
  743POPC   C2B12644  37.046   1.481   8.264
  743POPC   C3B12645  37.072   1.451   7.964
  743POPC   C4B12646  37.004   1.424   7.664
  744POPC   NC312647  10.505  24.446   9.464
  744POPC   PO412648  10.507  24.440   9.164
  744POPC   GL112649  10.500  24.487   8.864
  744POPC   GL212650  10.435  24.546   8.864
  744POPC   C1A12651  10.506  24.534   8.564
  744POPC   D2A12652  10.513  24.461   8.264
  744POPC   C3A12653  10.496  24.520   7.964
  744POPC   C4A12654  10.488  24.455   7.664
  744POPC   C1B12655  10.280  24.548   8.564
  744POPC   C2B12656  10.296  24.513   8.264
  744POPC   C3B12657  10.326  24.581   7.964
  744POPC   C4B12658  10.262  24.587   7.664
  745POPC   NC312659  41.516   4.305   9.464
  745POPC   PO412660  41.585   4.279   9.164
  745POPC   GL112661  41.542   4.367   8.864
  745POPC   GL212662  41.452   4.427   8.864
  745POPC   C1A12663  41.528   4.326   8.564
  745POPC   D2A12664  41.528   4.353   8.264
  745POPC   C3A12665  41.526   4.298   7.964
  745POPC   C4A12666  41.596   4.360   7.664
  745POPC   C1B12667  41.441   4.525   8.564
  745POPC   C2B12668  41.365   4.502   8.264
  745POPC   C3B12669  41.389   4.537   7.964
  745POPC   C4B12670  41.381   4.559   7.664
  746POPC   NC312671  23.687  16.001   9.464
  746POPC   PO412672  23.690  15.942   9.164
  746POPC   GL112673  23.754  15.984   8.864
  746POPC   GL212674  23.800  15.891   8.864
  746POPC   C1A12675  23.711  15.934   8.564
  746POPC   D2A12676  23.673  15.954   8.264
  746POPC   C3A12677  23.682  15.960   7.964
  746POPC   C4A12678  23.681  15.973   7.664
  746POPC   C1B12679  23.804  15.688   8.564
  746POPC   C2B12680  23.786  15.695   8.264
  746POPC   C3B12681  23.838  15.719   7.964
  746POPC   C4B12682  23.787  15.701   7.664
  747POPC   NC312683  31.490  24.497   9.464
  747POPC   PO412684  31.453  24.469   9.164
  747POPC   GL112685  31.472  24.524   8.864
  747POPC   GL212686  31.384  24.403   8.864
  747POPC   C1A12687  31.522  24.514   8.564
  747POPC   D2A12688  31.460  24.495   8.264
  747POPC   C3A12689  31.490  24.532   7.964
  747POPC   C4A12690  31.498  24.461   7.664
  747POPC   C1B12691  31.307  24.254   8.564
  747POPC   C2B12692  31.322  24.297   8.264
  747POPC   C3B12693  31.326  24.311   7.964
  747POPC   C4B12694  31.312  24.300   7.664
  748POPC   NC312695   5.853  13.630   9.464
  748POPC   PO412696   5.902  13.655   9.164
  748POPC   GL112697   5.915  13.651   8.864
  748POPC   GL212698   5.864  13.742   8.864
  748POPC   C1A12699   5.888  13.628   8.564
  748POPC   D2A12700   5.880  13.652   8.264
  748POPC   C3A12701   5.843  13.600   7.964
  748POPC   C4A12702   5.856  13.617   7.664
  748POPC   C1B12703   5.773  13.874   8.564
  748POPC   C2B12704   5.781  13.880   8.264
  748POPC   C3B12705   5.779  13.808   7.964
  748POPC   C4B12706   5.806  13.864   7.664
  749POPC   NC312707  38.455   9.740   9.464
  749POPC   PO412708  38.428   9.746   9.164
  749POPC   GL112709  38.442   9.712   8.864
  749POPC   GL212710  38.337   9.633   8.864
  749POPC   C1A12711  38.474   9.780   8.564
  749POPC   D2A12712  38.503   9.772   8.264
  749POPC   C3A12713  38.419   9.714   7.964
  749POPC   C4A12714  38.493   9.783   7.664
  749POPC   C1B12715  38.234   9.568   8.564
  749POPC   C2B12716  38.246   9.574   8.264
  749POPC   C3B12717  38.226   9.648   7.964
  749POPC   C4B12718  38.246   9.571   7.664
  750POPC   NC312719  26.068  20.647   9.464
  750POPC   PO412720  26.065  20.596   9.164
  750POPC   GL112721  26.022  20.596   8.864
  750POPC   GL212722  26.150  20.662   8.864
  750POPC   C1A12723  26.082  20.576   8.564
  750POPC   D2A12724  26.064  20.566   8.264
  750POPC   C3A12725  26.068  20.629   7.964
  750POPC   C4A12726  26.085  20.579   7.664
  750POPC   C1B12727  26.320  20.657   8.564
  750POPC   C2B12728  26.296  20.604   8.264
  750POPC   C3B12729  26.282  20.649   7.964
  750POPC   C4B12730  26.329  20.600   7.664
  751POPC   NC312731  43.883  38.500   9.464
  751POPC   PO412732  43.918  38.487   9.164
  751POPC   GL112733  43.932  38.435   8.864
  751POPC   GL212734  43.894  38.294   8.864
  751POPC   C1A12735  43.843  38.487   8.564
  751POPC   D2A12736  43.929  38.433   8.264
  751POPC   C3A12737  43.887  38.498   7.964
  751POPC   C4A12738  43.891  38.503   7.664
  751POPC   C1B12739  43.825  38.226   8.564
  751POPC   C2B12740  43.850  38.254   8.264
  751POPC   C3B12741  43.828  38.209   7.964
  751POPC   C4B12742  43.776  38.221   7.664
  752POPC   NC312743   5.124  27.592   9.464
  752POPC   PO412744   5.058  27.624   9.164
  752POPC   GL112745   5.093  27.624   8.864
  752POPC   GL212746   5.156  27.488   8.864
  752POPC   C1A12747   5.089  27.578   8.564
  752POPC   D2A12748   5.116  27.641   8.264
  752POPC   C3A12749   5.057  27.561   7.964
  752POPC   C4A12750   5.079  27.580   7.664
  752POPC   C1B12751   5.260  27.460   8.564
  752POPC   C2B12752   5.331  27.495   8.264
  752POPC   C3B12753   5.291  27.457   7.964
  752POPC   C4B12754   5.355  27.452   7.664
  753POPC   NC312755  27.596  37.632   9.464
  753POPC   PO412756  27.586  37.676   9.164
  753POPC   GL112757  27.577  37.655   8.864
  753POPC   GL212758  27.498  37.818   8.864
  753POPC   C1A12759  27.594  37.717   8.564
  753POPC   D2A12760  27.639  37.709   8.264
  753POPC   C3A12761  27.548  37.668   7.964
  753POPC   C4A12762  27.574  37.681   7.664
  753POPC   C1B12763  27.431  37.881   8.564
  753POPC   C2B12764  27.490  37.860   8.264
  753POPC   C3B12765  27.485  37.929   7.964
  753POPC   C4B12766  27.475  37.912   7.664
  754POPC   NC312767   3.533   5.058   9.464
  754POPC   PO412768   3.500   5.132   9.164
  754POPC   GL112769   3.563   5.112   8.864
  754POPC   GL212770   3.588   5.008   8.864
  754POPC   C1A12771   3.523   5.080   8.564
  754POPC   D2A12772   3.515   5.100   8.264
  754POPC   C3A12773   3.505   5.076   7.964
  754POPC   C4A12774   3.535   5.095   7.664
  754POPC   C1B12775   3.657   4.879   8.564
  754POPC   C2B12776   3.637   4.833   8.264
  754POPC   C3B12777   3.643   4.891   7.964
  754POPC   C4B12778   3.689   4.857   7.664
  755POPC   NC312779  33.055   8.950   9.464
  755POPC   PO412780  33.043   8.965   9.164
  755POPC   GL112781  33.071   8.967   8.864
  755POPC   GL212782  32.975   9.106   8.864
  755POPC   C1A12783  33.032   8.975   8.564
  755POPC   D2A12784  33.047   8.987   8.264
  755POPC   C3A12785  33.046   8.992   7.964
  755POPC   C4A12786  33.034   8.935   7.664
  755POPC   C1B12787  32.949   9.253   8.564
  755POPC   C2B12788  32.967   9.242   8.264
  755POPC   C3B12789  32.890   9.195   7.964
  755POPC   C4B12790  32.910   9.196   7.664
  756POPC   NC312791   2.794  34.544   9.464
  756POPC   PO412792   2.798  34.539   9.164
  756POPC   GL112793   2.731  34.595   8.864
  756POPC   GL212794   2.617  34.536   8.864
  756POPC   C1A12795   2.812  34.532   8.564
  756POPC   D2A12796   2.773  34.604   8.264
  756POPC   C3A12797   2.783  34.590   7.964
  756POPC   C4A12798   2.796  34.534   7.664
  756POPC   C1B12799   2.570  34.483   8.564
  756POPC   C2B12800   2.568  34.526   8.264
  756POPC   C3B12801   2.488  34.467   7.964
  756POPC   C4B12802   2.575  34.504   7.664
  757POPC   NC312803  12.043  27.549   9.464
  757POPC   PO412804  12.043  27.569   9.164
  757POPC   GL112805  12.039  27.560   8.864
  757POPC   GL212806  12.019  27.715   8.864
  757POPC   C1A12807  12.091  27.597   8.564
  757POPC   D2A12808  12.119  27.630   8.264
  757POPC   C3A12809  12.106  27.551   7.964
  757POPC   C4A12810  12.105  27.564   7.664
  757POPC   C1B12811  12.097  27.877   8.564
  757POPC   C2B12812  12.064  27.889   8.264
  757POPC   C3B12813  12.075  27.846   7.964
  757POPC   C4B12814  12.044  27.883   7.664
  758POPC   NC312815  20.576  19.012   9.464
  758POPC   PO412816  20.629  19.101   9.164
  758POPC   GL112817  20.620  19.031   8.864
  758POPC   GL212818  20.754  19.014   8.864
  758POPC   C1A12819  20.569  19.039   8.564
  758POPC   D2A12820  20.589  19.101   8.264
  758POPC   C3A12821  20.634  19.038   7.964
  758POPC   C4A12822  20.608  19.045   7.664
  758POPC   C1B12823  20.839  19.028   8.564
  758POPC   C2B12824  20.860  19.045   8.264
  758POPC   C3B12825  20.895  19.072   7.964
  758POPC   C4B12826  20.876  19.095   7.664
  759POPC   NC312827  18.283  18.288   9.464
  759POPC   PO412828  18.301  18.307   9.164
  759POPC   GL112829  18.269  18.269   8.864
  759POPC   GL212830  18.203  18.209   8.864
  759POPC   C1A12831  18.312  18.315   8.564
  759POPC   D2A12832  18.248  18.320   8.264
  759POPC   C3A12833  18.295  18.291   7.964
  759POPC   C4A12834  18.319  18.294   7.664
  759POPC   C1B12835  18.164  18.111   8.564
  759POPC   C2B12836  18.095  18.039   8.264
  759POPC   C3B12837  18.171  18.096   7.964
  759POPC   C4B12838  18.120  18.035   7.664
  760POPC   NC312839  36.166  29.187   9.464
  760POPC   PO412840  36.149  29.095   9.164
  760POPC   GL112841  36.141  29.156   8.864
  760POPC   GL212842  36.043  29.267   8.864
  760POPC   C1A12843  36.172  29.164   8.564
  760POPC   D2A12844  36.095  29.164   8.264
  760POPC   C3A12845  36.165  29.098   7.964
  760POPC   C4A12846  36.130  29.155   7.664
  760POPC   C1B12847  35.939  29.336   8.564
  760POPC   C2B12848  35.943  29.275   8.264
  760POPC   C3B12849  35.985  29.300   7.964
  760POPC   C4B12850  35.967  29.305   7.664
  761POPC   NC312851  24.505  13.659   9.464
  761POPC   PO412852  24.454  13.616   9.164
  761POPC   GL112853  24.481  13.621   8.864
  761POPC   GL212854  24.555  13.702   8.864
  761POPC   C1A12855  24.526  13.658   8.564
  761POPC   D2A12856  24.457  13.658   8.264
  761POPC   C3A12857  24.473  13.616   7.964
  761POPC   C4A12858  24.465  13.604   7.664
  761POPC   C1B12859  24.570  13.859   8.564
  761POPC   C2B12860  24.590  13.903   8.264
  761POPC   C3B12861  24.545  13.883   7.964
  761POPC   C4B12862  24.534  13.815   7.664
  762POPC   NC312863  39.964  33.788   9.464
  762POPC   PO412864  40.006  33.828   9.164
  762POPC   GL112865  39.994  33.798   8.864
  762POPC   GL212866  40.126  33.735   8.864
  762POPC   C1A12867  39.983  33.767   8.564
  762POPC   D2A12868  39.983  33.767   8.264
  762POPC   C3A12869  39.977  33.840   7.964
  762POPC   C4A12870  39.986  33.786   7.664
  762POPC   C1B12871  40.168  33.693   8.564
  762POPC   C2B12872  40.184  33.649   8.264
  762POPC   C3B12873  40.251  33.611   7.964
  762POPC   C4B12874  40.212  33.695   7.664
  763POPC   NC312875  21.402  22.963   9.464
  763POPC   PO412876  21.434  22.916   9.164
  763POPC   GL112877  21.402  22.913   8.864
  763POPC   GL212878  21.513  22.911   8.864
  763POPC   C1A12879  21.379  22.969   8.564
  763POPC   D2A12880  21.341  22.978   8.264
  763POPC   C3A12881  21.366  22.964   7.964
  763POPC   C4A12882  21.370  22.955   7.664
  763POPC   C1B12883  21.629  22.893   8.564
  763POPC   C2B12884  21.588  22.891   8.264
  763POPC   C3B12885  21.651  22.899   7.964
  763POPC   C4B12886  21.608  22.891   7.664
  764POPC   NC312887   0.434  10.566   9.464
  764POPC   PO412888   0.400  10.476   9.164
  764POPC   GL112889   0.435  10.570   8.864
  764POPC   GL212890   0.452  10.661   8.864
  764POPC   C1A12891   0.396  10.543   8.564
  764POPC   D2A12892   0.427  10.535   8.264
  764POPC   C3A12893   0.467  10.519   7.964
  764POPC   C4A12894   0.434  10.502   7.664
  764POPC   C1B12895   0.391  10.796   8.564
  764POPC   C2B12896   0.395  10.760   8.264
  764POPC   C3B12897   0.341  10.734   7.964
  764POPC   C4B12898   0.408  10.762   7.664
  765POPC   NC312899  34.591  18.304   9.464
  765POPC   PO412900  34.609  18.292   9.164
  765POPC   GL112901  34.615  18.254   8.864
  765POPC   GL212902  34.469  18.365   8.864
  765POPC   C1A12903  34.561  18.298   8.564
  765POPC   D2A12904  34.588  18.311   8.264
  765POPC   C3A12905  34.585  18.317   7.964
  765POPC   C4A12906  34.538  18.263   7.664
  765POPC   C1B12907  34.304  18.336   8.564
  765POPC   C2B12908  34.307  18.411   8.264
  765POPC   C3B12909  34.358  18.404   7.964
  765POPC   C4B12910  34.316  18.388   7.664
  766POPC   NC312911  22.143  11.324   9.464
  766POPC   PO412912  22.197  11.269   9.164
  766POPC   GL112913  22.138  11.267   8.864
  766POPC   GL212914  22.276  11.209   8.864
  766POPC   C1A12915  22.199  11.313   8.564
  766POPC   D2A12916  22.209  11.260   8.264
  766POPC   C3A12917  22.133  11.255   7.964
  766POPC   C4A12918  22.138  11.254   7.664
  766POPC   C1B12919  22.351  11.134   8.564
  766POPC   C2B12920  22.299  11.161   8.264
  766POPC   C3B12921  22.326  11.093   7.964
  766POPC   C4B12922  22.363  11.095   7.664
  767POPC   NC312923  27.637  35.384   9.464
  767POPC   PO412924  27.586  35.319   9.164
  767POPC   GL112925  27.577  35.366   8.864
  767POPC   GL212926  27.599  35.267   8.864
  767POPC   C1A12927  27.615  35.318   8.564
  767POPC   D2A12928  27.577  35.340   8.264
  767POPC   C3A12929  27.630  35.371   7.964
  767POPC   C4A12930  27.587  35.319   7.664
  767POPC   C1B12931  27.541  35.147   8.564
  767POPC   C2B12932  27.481  35.100   8.264
  767POPC   C3B12933  27.530  35.137   7.964
  767POPC   C4B12934  27.543  35.081   7.664
  768POPC   NC312935  31.434  39.962   9.464
  768POPC   PO412936  31.451  39.993   9.164
  768POPC   GL112937  31.484  40.045   8.864
  768POPC   GL212938  31.591  40.120   8.864
  768POPC   C1A12939  31.521  39.993   8.564
  768POPC   D2A12940  31.504  39.999   8.264
  768POPC   C3A12941  31.460  39.982   7.964
  768POPC   C4A12942  31.439  40.027   7.664
  768POPC   C1B12943  31.655  40.117   8.564
  768POPC   C2B12944  31.650  40.178   8.264
  768POPC   C3B12945  31.722  40.153   7.964
  768POPC   C4B12946  31.628  40.191   7.664
  769POPC   NC312947  23.676  37.695   9.464
  769POPC   PO412948  23.683  37.684   9.164
  769POPC   GL112949  23.731  37.658   8.864
  769POPC   GL212950  23.800  37.676   8.864
  769POPC   C1A12951  23.718  37.637   8.564
  769POPC   D2A12952  23.738  37.690   8.264
  769POPC   C3A12953  23.762  37.636   7.964
  769POPC   C4A12954  23.685  37.641   7.664
  769POPC   C1B12955  23.992  37.646   8.564
  769POPC   C2B12956  23.984  37.676   8.264
  769POPC   C3B12957  23.979  37.665   7.964
  769POPC   C4B12958  23.956  37.686   7.664
  770POPC   NC312959  39.206  33.004   9.464
  770POPC   PO412960  39.222  33.004   9.164
  770POPC   GL112961  39.209  32.995   8.864
  770POPC   GL212962  39.081  33.007   8.864
  770POPC   C1A12963  39.235  32.980   8.564
  770POPC   D2A12964  39.266  33.020   8.264
  770POPC   C3A12965  39.256  33.048   7.964
  770POPC   C4A12966  39.215  33.068   7.664
  770POPC   C1B12967  39.008  33.074   8.564
  770POPC   C2B12968  38.989  33.039   8.264
  770POPC   C3B12969  39.014  33.046   7.964
  770POPC   C4B12970  38.976  33.096   7.664
  771POPC   NC312971  10.571  34.553   9.464
  771POPC   PO412972  10.516  34.566   9.164
  771POPC   GL112973  10.553  34.527   8.864
  771POPC   GL212974  10.586  34.520   8.864
  771POPC   C1A12975  10.538  34.555   8.564
  771POPC   D2A12976  10.550  34.557   8.264
  771POPC   C3A12977  10.565  34.615   7.964
  771POPC   C4A12978  10.491  34.532   7.664
  771POPC   C1B12979  10.700  34.380   8.564
  771POPC   C2B12980  10.686  34.378   8.264
  771POPC   C3B12981  10.679  34.339   7.964
  771POPC   C4B12982  10.704  34.337   7.664
  772POPC   NC312983  29.109  17.554   9.464
  772POPC   PO412984  29.107  17.459   9.164
  772POPC   GL112985  29.110  17.523   8.864
  772POPC   GL212986  29.086  17.592   8.864
  772POPC   C1A12987  29.103  17.482   8.564
  772POPC   D2A12988  29.145  17.459   8.264
  772POPC   C3A12989  29.128  17.515   7.964
  772POPC   C4A12990  29.143  17.533   7.664
  772POPC   C1B12991  29.076  17.747   8.564
  772POPC   C2B12992  29.144  17.762   8.264
  772POPC   C3B12993  29.051  17.715   7.964
  772POPC   C4B12994  29.136  17.750   7.664
  773POPC   NC312995   1.223   3.509   9.464
  773POPC   PO412996   1.171   3.531   9.164
  773POPC   GL112997   1.247   3.540   8.864
  773POPC   GL212998   1.132   3.708   8.864
  773POPC   C1A12999   1.217   3.511   8.564
  773POPC   D2A13000   1.201   3.580   8.264
  773POPC   C3A13001   1.228   3.580   7.964
  773POPC   C4A13002   1.224   3.567   7.664
  773POPC   C1B13003   1.169   3.802   8.564
  773POPC   C2B13004   1.159   3.791   8.264
  773POPC   C3B13005   1.172   3.827   7.964
  773POPC   C4B13006   1.133   3.770   7.664
  774POPC   NC313007  15.182   1.186   9.464
  774POPC   PO413008  15.135   1.210   9.164
  774POPC   GL113009  15.177   1.239   8.864
  774POPC   GL213010  15.209   1.306   8.864
  774POPC   C1A13011  15.172   1.189   8.564
  774POPC   D2A13012  15.163   1.242   8.264
  774POPC   C3A13013  15.224   1.231   7.964
  774POPC   C4A13014  15.184   1.262   7.664
  774POPC   C1B13015  15.337   1.431   8.564
  774POPC   C2B13016  15.290   1.405   8.264
  774POPC   C3B13017  15.293   1.382   7.964
  774POPC   C4B13018  15.296   1.430   7.664
  775POPC   NC313019  24.526  19.806   9.464
  775POPC   PO413020  24.442  19.881   9.164
  775POPC   GL113021  24.538  19.801   8.864
  775POPC   GL213022  24.344  19.794   8.864
  775POPC   C1A13023  24.523  19.810   8.564
  775POPC   D2A13024  24.498  19.805   8.264
  775POPC   C3A13025  24.477  19.805   7.964
  775POPC   C4A13026  24.528  19.868   7.664
  775POPC   C1B13027  24.248  19.741   8.564
  775POPC   C2B13028  24.309  19.716   8.264
  775POPC   C3B13029  24.266  19.716   7.964
  775POPC   C4B13030  24.245  19.703   7.664
  776POPC   NC313031  10.513  38.475   9.464
  776POPC   PO413032  10.551  38.498   9.164
  776POPC   GL113033  10.490  38.478   8.864
  776POPC   GL213034  10.593  38.431   8.864
  776POPC   C1A13035  10.487  38.488   8.564
  776POPC   D2A13036  10.531  38.410   8.264
  776POPC   C3A13037  10.566  38.501   7.964
  776POPC   C4A13038  10.563  38.467   7.664
  776POPC   C1B13039  10.790  38.291   8.564
  776POPC   C2B13040  10.795  38.318   8.264
  776POPC   C3B13041  10.746  38.347   7.964
  776POPC   C4B13042  10.772  38.306   7.664
  777POPC   NC313043  35.330  22.142   9.464
  777POPC   PO413044  35.369  22.158   9.164
  777POPC   GL113045  35.355  22.123   8.864
  777POPC   GL213046  35.420  22.080   8.864
  777POPC   C1A13047  35.377  22.153   8.564
  777POPC   D2A13048  35.329  22.186   8.264
  777POPC   C3A13049  35.340  22.169   7.964
  777POPC   C4A13050  35.310  22.166   7.664
  777POPC   C1B13051  35.485  21.925   8.564
  777POPC   C2B13052  35.529  21.922   8.264
  777POPC   C3B13053  35.503  21.998   7.964
  777POPC   C4B13054  35.535  21.990   7.664
  778POPC   NC313055   0.427  15.948   9.464
  778POPC   PO413056   0.482  15.938   9.164
  778POPC   GL113057   0.459  15.989   8.864
  778POPC   GL213058   0.506  15.877   8.864
  778POPC   C1A13059   0.470  15.932   8.564
  778POPC   D2A13060   0.420  15.998   8.264
  778POPC   C3A13061   0.391  15.991   7.964
  778POPC   C4A13062   0.483  15.965   7.664
  778POPC   C1B13063   0.561  15.771   8.564
  778POPC   C2B13064   0.555  15.698   8.264
  778POPC   C3B13065   0.515  15.696   7.964
  778POPC   C4B13066   0.517  15.682   7.664
  779POPC   NC313067  18.248  26.059   9.464
  779POPC   PO413068  18.314  26.082   9.164
  779POPC   GL113069  18.271  26.057   8.864
  779POPC   GL213070  18.302  26.193   8.864
  779POPC   C1A13071  18.286  26.091   8.564
  779POPC   D2A13072  18.306  26.009   8.264
  779POPC   C3A13073  18.318  26.014   7.964
  779POPC   C4A13074  18.297  26.025   7.664
  779POPC   C1B13075  18.399  26.230   8.564
  779POPC   C2B13076  18.357  26.309   8.264
  779POPC   C3B13077  18.379  26.246   7.964
  779POPC   C4B13078  18.394  26.229   7.664
  780POPC   NC313079  15.985  26.012   9.464
  780POPC   PO413080  15.993  26.054   9.164
  780POPC   GL113081  15.992  26.010   8.864
  780POPC   GL213082  16.035  25.901   8.864
  780POPC   C1A13083  15.925  26.065   8.564
  780POPC   D2A13084  15.992  26.063   8.264
  780POPC   C3A13085  15.910  26.032   7.964
  780POPC   C4A13086  15.995  26.075   7.664
  780POPC   C1B13087  16.086  25.867   8.564
  780POPC   C2B13088  16.075  25.810   8.264
  780POPC   C3B13089  16.096  25.798   7.964
  780POPC   C4B13090  16.137  25.869   7.664
  781POPC   NC313091  20.635  29.188   9.464
  781POPC   PO413092  20.605  29.161   9.164
  781POPC   GL113093  20.577  29.142   8.864
  781POPC   GL213094  20.474  29.075   8.864
  781POPC   C1A13095  20.577  29.171   8.564
  781POPC   D2A13096  20.649  29.122   8.264
  781POPC   C3A13097  20.617  29.194   7.964
  781POPC   C4A13098  20.594  29.193   7.664
  781POPC   C1B13099  20.399  29.129   8.564
  781POPC   C2B13100  20.341  29.141   8.264
  781POPC   C3B13101  20.350  29.113   7.964
  781POPC   C4B13102  20.327  29.053   7.664
  782POPC   NC313103  43.070  29.132   9.464
  782POPC   PO413104  43.138  29.114   9.164
  782POPC   GL113105  43.142  29.148   8.864
  782POPC   GL213106  43.058  29.232   8.864
  782POPC   C1A13107  43.141  29.097   8.564
  782POPC   D2A13108  43.116  29.183   8.264
  782POPC   C3A13109  43.077  29.145   7.964
  782POPC   C4A13110  43.118  29.135   7.664
  782POPC   C1B13111  42.922  29.341   8.564
  782POPC   C2B13112  42.952  29.308   8.264
  782POPC   C3B13113  42.904  29.331   7.964
  782POPC   C4B13114  42.898  29.255   7.664
  783POPC   NC313115  28.357   6.662   9.464
  783POPC   PO413116  28.335   6.672   9.164
  783POPC   GL113117  28.386   6.682   8.864
  783POPC   GL213118  28.506   6.729   8.864
  783POPC   C1A13119  28.379   6.628   8.564
  783POPC   D2A13120  28.386   6.612   8.264
  783POPC   C3A13121  28.392   6.669   7.964
  783POPC   C4A13122  28.385   6.684   7.664
  783POPC   C1B13123  28.587   6.794   8.564
  783POPC   C2B13124  28.598   6.771   8.264
  783POPC   C3B13125  28.542   6.795   7.964
  783POPC   C4B13126  28.594   6.756   7.664
  784POPC   NC313127  20.651  22.953   9.464
  784POPC   PO413128  20.610  22.920   9.164
  784POPC   GL113129  20.612  22.976   8.864
  784POPC   GL213130  20.587  23.029   8.864
  784POPC   C1A13131  20.608  22.969   8.564
  784POPC   D2A13132  20.656  22.968   8.264
  784POPC   C3A13133  20.626  22.960   7.964
  784POPC   C4A13134  20.659  22.941   7.664
  784POPC   C1B13135  20.417  23.127   8.564
  784POPC   C2B13136  20.438  23.163   8.264
  784POPC   C3B13137  20.461  23.147   7.964
  784POPC   C4B13138  20.429  23.109   7.664
  785POPC   NC313139  21.405   5.858   9.464
  785POPC   PO413140  21.368   5.910   9.164
  785POPC   GL113141  21.370   5.889   8.864
  785POPC   GL213142  21.485   5.842   8.864
  785POPC   C1A13143  21.366   5.884   8.564
  785POPC   D2A13144  21.419   5.877   8.264
  785POPC   C3A13145  21.385   5.894   7.964
  785POPC   C4A13146  21.373   5.825   7.664
  785POPC   C1B13147  21.661   5.922   8.564
  785POPC   C2B13148  21.636   5.941   8.264
  785POPC   C3B13149  21.672   5.889   7.964
  785POPC   C4B13150  21.603   5.958   7.664
  786POPC   NC313151  40.010  16.721   9.464
  786POPC   PO413152  40.005  16.687   9.164
  786POPC   GL113153  40.027  16.690   8.864
  786POPC   GL213154  39.885  16.857   8.864
  786POPC   C1A13155  40.045  16.771   8.564
  786POPC   D2A13156  40.007  16.721   8.264
  786POPC   C3A13157  40.036  16.735   7.964
  786POPC   C4A13158  40.044  16.712   7.664
  786POPC   C1B13159  39.850  16.973   8.564
  786POPC   C2B13160  39.845  16.901   8.264
  786POPC   C3B13161  39.844  16.927   7.964
  786POPC   C4B13162  39.842  16.879   7.664
  787POPC   NC313163  29.140  38.422   9.464
  787POPC   PO413164  29.142  38.472   9.164
  787POPC   GL113165  29.099  38.411   8.864
  787POPC   GL213166  29.125  38.537   8.864
  787POPC   C1A13167  29.156  38.467   8.564
  787POPC   D2A13168  29.113  38.504   8.264
  787POPC   C3A13169  29.160  38.441   7.964
  787POPC   C4A13170  29.124  38.425   7.664
  787POPC   C1B13171  29.100  38.702   8.564
  787POPC   C2B13172  29.178  38.659   8.264
  787POPC   C3B13173  29.165  38.739   7.964
  787POPC   C4B13174  29.140  38.676   7.664
  788POPC   NC313175  42.290   5.083   9.464
  788POPC   PO413176  42.324   5.061   9.164
  788POPC   GL113177  42.384   5.084   8.864
  788POPC   GL213178  42.386   5.140   8.864
  788POPC   C1A13179  42.325   5.054   8.564
  788POPC   D2A13180  42.363   5.085   8.264
  788POPC   C3A13181  42.344   5.055   7.964
  788POPC   C4A13182  42.317   5.050   7.664
  788POPC   C1B13183  42.462   5.240   8.564
  788POPC   C2B13184  42.532   5.306   8.264
  788POPC   C3B13185  42.459   5.285   7.964
  788POPC   C4B13186  42.486   5.315   7.664
  789POPC   NC313187  33.045  10.494   9.464
  789POPC   PO413188  33.036  10.556   9.164
  789POPC   GL113189  33.013  10.535   8.864
  789POPC   GL213190  32.973  10.383   8.864
  789POPC   C1A13191  33.060  10.496   8.564
  789POPC   D2A13192  32.981  10.498   8.264
  789POPC   C3A13193  33.050  10.483   7.964
  789POPC   C4A13194  33.005  10.519   7.664
  789POPC   C1B13195  32.902  10.345   8.564
  789POPC   C2B13196  32.955  10.346   8.264
  789POPC   C3B13197  32.877  10.289   7.964
  789POPC   C4B13198  32.956  10.313   7.664
  790POPC   NC313199  30.672  13.585   9.464
  790POPC   PO413200  30.669  13.598   9.164
  790POPC   GL113201  30.683  13.612   8.864
  790POPC   GL213202  30.540  13.602   8.864
  790POPC   C1A13203  30.724  13.665   8.564
  790POPC   D2A13204  30.741  13.660   8.264
  790POPC   C3A13205  30.713  13.596   7.964
  790POPC   C4A13206  30.686  13.611   7.664
  790POPC   C1B13207  30.509  13.511   8.564
  790POPC   C2B13208  30.449  13.548   8.264
  790POPC   C3B13209  30.480  13.589   7.964
  790POPC   C4B13210  30.462  13.576   7.664
  791POPC   NC313211   5.902   6.640   9.464
  791POPC   PO413212   5.842   6.667   9.164
  791POPC   GL113213   5.904   6.649   8.864
  791POPC   GL213214   5.845   6.748   8.864
  791POPC   C1A13215   5.851   6.637   8.564
  791POPC   D2A13216   5.880   6.653   8.264
  791POPC   C3A13217   5.878   6.655   7.964
  791POPC   C4A13218   5.847   6.652   7.664
  791POPC   C1B13219   5.875   6.942   8.564
  791POPC   C2B13220   5.840   6.891   8.264
  791POPC   C3B13221   5.834   6.859   7.964
  791POPC   C4B13222   5.838   6.931   7.664
  792POPC   NC313223  22.165   1.978   9.464
  792POPC   PO413224  22.166   1.995   9.164
  792POPC   GL113225  22.193   2.001   8.864
  792POPC   GL213226  22.023   2.045   8.864
  792POPC   C1A13227  22.142   2.033   8.564
  792POPC   D2A13228  22.128   2.014   8.264
  792POPC   C3A13229  22.159   1.997   7.964
  792POPC   C4A13230  22.157   1.954   7.664
  792POPC   C1B13231  21.870   1.997   8.564
  792POPC   C2B13232  21.962   1.970   8.264
  792POPC   C3B13233  21.874   1.999   7.964
  792POPC   C4B13234  21.881   1.978   7.664
  793POPC   NC313235  15.961  43.845   9.464
  793POPC   PO413236  15.952  43.891   9.164
  793POPC   GL113237  15.912  43.880   8.864
  793POPC   GL213238  16.041  43.828   8.864
  793POPC   C1A13239  15.958  43.879   8.564
  793POPC   D2A13240  15.979  43.869   8.264
  793POPC   C3A13241  15.952  43.864   7.964
  793POPC   C4A13242  15.964  43.886   7.664
  793POPC   C1B13243  16.223  43.883   8.564
  793POPC   C2B13244  16.166  43.881   8.264
  793POPC   C3B13245  16.164  43.906   7.964
  793POPC   C4B13246  16.179  43.840   7.664
  794POPC   NC313247   4.365  38.469   9.464
  794POPC   PO413248   4.362  38.435   9.164
  794POPC   GL113249   4.316  38.414   8.864
  794POPC   GL213250   4.400  38.496   8.864
  794POPC   C1A13251   4.310  38.442   8.564
  794POPC   D2A13252   4.329  38.432   8.264
  794POPC   C3A13253   4.286  38.413   7.964
  794POPC   C4A13254   4.278  38.420   7.664
  794POPC   C1B13255   4.604  38.500   8.564
  794POPC   C2B13256   4.525  38.484   8.264
  794POPC   C3B13257   4.597  38.506   7.964
  794POPC   C4B13258   4.522  38.526   7.664
  795POPC   NC313259  33.788  29.954   9.464
  795POPC   PO413260  33.775  29.968   9.164
  795POPC   GL113261  33.756  29.930   8.864
  795POPC   GL213262  33.697  29.913   8.864
  795POPC   C1A13263  33.799  29.913   8.564
  795POPC   D2A13264  33.818  29.879   8.264
  795POPC   C3A13265  33.798  29.889   7.964
  795POPC   C4A13266  33.783  29.965   7.664
  795POPC   C1B13267  33.532  29.985   8.564
  795POPC   C2B13268  33.600  29.931   8.264
  795POPC   C3B13269  33.504  29.898   7.964
  795POPC   C4B13270  33.585  29.912   7.664
  796POPC   NC313271   5.069  43.863   9.464
  796POPC   PO413272   5.142  43.894   9.164
  796POPC   GL113273   5.069  43.921   8.864
  796POPC   GL213274   5.190  43.823   8.864
  796POPC   C1A13275   5.086  43.906   8.564
  796POPC   D2A13276   5.140  43.930   8.264
  796POPC   C3A13277   5.055  43.861   7.964
  796POPC   C4A13278   5.140  43.842   7.664
  796POPC   C1B13279   5.212  43.681   8.564
  796POPC   C2B13280   5.231  43.656   8.264
  796POPC   C3B13281   5.232  43.720   7.964
  796POPC   C4B13282   5.309  43.746   7.664
  797POPC   NC313283  16.684  19.845   9.464
  797POPC   PO413284  16.719  19.867   9.164
  797POPC   GL113285  16.749  19.840   8.864
  797POPC   GL213286  16.850  19.808   8.864
  797POPC   C1A13287  16.704  19.785   8.564
  797POPC   D2A13288  16.750  19.854   8.264
  797POPC   C3A13289  16.739  19.802   7.964
  797POPC   C4A13290  16.756  19.850   7.664
  797POPC   C1B13291  16.947  19.818   8.564
  797POPC   C2B13292  16.957  19.824   8.264
  797POPC   C3B13293  16.931  19.766   7.964
  797POPC   C4B13294  16.946  19.775   7.664
  798POPC   NC313295  12.851  38.431   9.464
  798POPC   PO413296  12.895  38.427   9.164
  798POPC   GL113297  12.898  38.466   8.864
  798POPC   GL213298  12.926  38.548   8.864
  798POPC   C1A13299  12.806  38.407   8.564
  798POPC   D2A13300  12.824  38.453   8.264
  798POPC   C3A13301  12.818  38.428   7.964
  798POPC   C4A13302  12.891  38.426   7.664
  798POPC   C1B13303  13.120  38.595   8.564
  798POPC   C2B13304  13.081  38.522   8.264
  798POPC   C3B13305  13.075  38.555   7.964
  798POPC   C4B13306  13.085  38.544   7.664
  799POPC   NC313307   8.164  32.218   9.464
  799POPC   PO413308   8.204  32.264   9.164
  799POPC   GL113309   8.199  32.249   8.864
  799POPC   GL213310   8.128  32.188   8.864
  799POPC   C1A13311   8.176  32.248   8.564
  799POPC   D2A13312   8.212  32.210   8.264
  799POPC   C3A13313   8.213  32.238   7.964
  799POPC   C4A13314   8.189  32.201   7.664
  799POPC   C1B13315   8.052  32.051   8.564
  799POPC   C2B13316   7.984  32.095   8.264
  799POPC   C3B13317   8.002  32.095   7.964
  799POPC   C4B13318   8.058  32.035   7.664
  800POPC   NC313319  19.867   9.789   9.464
  800POPC   PO413320  19.815   9.737   9.164
  800POPC   GL113321  19.865   9.735   8.864
  800POPC   GL213322  19.752   9.638   8.864
  800POPC   C1A13323  19.813   9.748   8.564
  800POPC   D2A13324  19.857   9.719   8.264
  800POPC   C3A13325  19.796   9.794   7.964
  800POPC   C4A13326  19.853   9.719   7.664
  800POPC   C1B13327  19.722   9.494   8.564
  800POPC   C2B13328  19.760   9.543   8.264
  800POPC   C3B13329  19.739   9.536   7.964
  800POPC   C4B13330  19.750   9.472   7.664
  801POPC   NC313331  23.738  34.562   9.464
  801POPC   PO413332  23.747  34.597   9.164
  801POPC   GL113333  23.705  34.567   8.864
  801POPC   GL213334  23.569  34.538   8.864
  801POPC   C1A13335  23.706  34.619   8.564
  801POPC   D2A13336  23.713  34.583   8.264
  801POPC   C3A13337  23.665  34.556   7.964
  801POPC   C4A13338  23.726  34.621   7.664
  801POPC   C1B13339  23.489  34.487   8.564
  801POPC   C2B13340  23.522  34.439   8.264
  801POPC   C3B13341  23.516  34.463   7.964
  801POPC   C4B13342  23.452  34.457   7.664
  802POPC   NC313343  16.704  36.936   9.464
  802POPC   PO413344  16.705  36.858   9.164
  802POPC   GL113345  16.755  36.912   8.864
  802POPC   GL213346  16.673  37.034   8.864
  802POPC   C1A13347  16.761  36.865   8.564
  802POPC   D2A13348  16.759  36.878   8.264
  802POPC   C3A13349  16.684  36.934   7.964
  802POPC   C4A13350  16.751  36.900   7.664
  802POPC   C1B13351  16.512  37.117   8.564
  802POPC   C2B13352  16.587  37.122   8.264
  802POPC   C3B13353  16.539  37.072   7.964
  802POPC   C4B13354  16.538  37.095   7.664
  803POPC   NC313355  44.707  40.795   9.464
  803POPC   PO413356  44.706  40.764   9.164
  803POPC   GL113357  44.622  40.753   8.864
  803POPC   GL213358  44.637  40.943   8.864
  803POPC   C1A13359  44.694  40.778   8.564
  803POPC   D2A13360  44.669  40.792   8.264
  803POPC   C3A13361  44.673  40.751   7.964
  803POPC   C4A13362  44.638  40.751   7.664
  803POPC   C1B13363  44.591  41.008   8.564
  803POPC   C2B13364  44.592  41.018   8.264
  803POPC   C3B13365  44.600  40.990   7.964
  803POPC   C4B13366  44.656  41.053   7.664
  804POPC   NC313367  20.567   5.829   9.464
  804POPC   PO413368  20.646   5.870   9.164
  804POPC   GL113369  20.600   5.856   8.864
  804POPC   GL213370  20.680   5.775   8.864
  804POPC   C1A13371  20.651   5.829   8.564
  804POPC   D2A13372  20.579   5.820   8.264
  804POPC   C3A13373  20.570   5.863   7.964
  804POPC   C4A13374  20.609   5.844   7.664
  804POPC   C1B13375  20.768   5.687   8.564
  804POPC   C2B13376  20.818   5.739   8.264
  804POPC   C3B13377  20.800   5.757   7.964
  804POPC   C4B13378  20.835   5.759   7.664
  805POPC   NC313379  43.925  13.666   9.464
  805POPC   PO413380  43.914  13.640   9.164
  805POPC   GL113381  43.844  13.632   8.864
  805POPC   GL213382  43.848  13.769   8.864
  805POPC   C1A13383  43.919  13.631   8.564
  805POPC   D2A13384  43.919  13.616   8.264
  805POPC   C3A13385  43.865  13.656   7.964
  805POPC   C4A13386  43.866  13.654   7.664
  805POPC   C1B13387  43.764  13.796   8.564
  805POPC   C2B13388  43.787  13.807   8.264
  805POPC   C3B13389  43.727  13.784   7.964
  805POPC   C4B13390  43.788  13.808   7.664
  806POPC   NC313391  30.731  21.346   9.464
  806POPC   PO413392  30.722  21.347   9.164
  806POPC   GL113393  30.738  21.410   8.864
  806POPC   GL213394  30.761  21.271   8.864
  806POPC   C1A13395  30.664  21.379   8.564
  806POPC   D2A13396  30.667  21.408   8.264
  806POPC   C3A13397  30.674  21.365   7.964
  806POPC   C4A13398  30.713  21.426   7.664
  806POPC   C1B13399  30.874  21.197   8.564
  806POPC   C2B13400  30.835  21.183   8.264
  806POPC   C3B13401  30.863  21.138   7.964
  806POPC   C4B13402  30.787  21.171   7.664
  807POPC   NC313403   5.858   2.746   9.464
  807POPC   PO413404   5.885   2.772   9.164
  807POPC   GL113405   5.870   2.806   8.864
  807POPC   GL213406   5.771   2.857   8.864
  807POPC   C1A13407   5.829   2.804   8.564
  807POPC   D2A13408   5.873   2.776   8.264
  807POPC   C3A13409   5.869   2.782   7.964
  807POPC   C4A13410   5.826   2.765   7.664
  807POPC   C1B13411   5.717   2.979   8.564
  807POPC   C2B13412   5.731   2.948   8.264
  807POPC   C3B13413   5.737   3.012   7.964
  807POPC   C4B13414   5.751   2.935   7.664
  808POPC   NC313415  32.227  33.848   9.464
  808POPC   PO413416  32.296  33.829   9.164
  808POPC   GL113417  32.270  33.788   8.864
  808POPC   GL213418  32.188  33.871   8.864
  808POPC   C1A13419  32.254  33.792   8.564
  808POPC   D2A13420  32.243  33.833   8.264
  808POPC   C3A13421  32.252  33.796   7.964
  808POPC   C4A13422  32.265  33.759   7.664
  808POPC   C1B13423  32.051  33.919   8.564
  808POPC   C2B13424  32.074  33.969   8.264
  808POPC   C3B13425  31.989  33.892   7.964
  808POPC   C4B13426  32.054  33.909   7.664
  809POPC   NC313427  20.593  42.370   9.464
  809POPC   PO413428  20.576  42.363   9.164
  809POPC   GL113429  20.575  42.331   8.864
  809POPC   GL213430  20.521  42.422   8.864
  809POPC   C1A13431  20.588  42.323   8.564
  809POPC   D2A13432  20.599  42.378   8.264
  809POPC   C3A13433  20.565  42.368   7.964
  809POPC   C4A13434  20.593  42.378   7.664
  809POPC   C1B13435  20.481  42.616   8.564
  809POPC   C2B13436  20.529  42.542   8.264
  809POPC   C3B13437  20.516  42.588   7.964
  809POPC   C4B13438  20.513  42.613   7.664
  810POPC   NC313439  35.369  43.101   9.464
  810POPC   PO413440  35.334  43.133   9.164
  810POPC   GL113441  35.322  43.068   8.864
  810POPC   GL213442  35.292  42.975   8.864
  810POPC   C1A13443  35.351  43.137   8.564
  810POPC   D2A13444  35.393  43.110   8.264
  810POPC   C3A13445  35.324  43.107   7.964
  810POPC   C4A13446  35.395  43.125   7.664
  810POPC   C1B13447  35.278  42.838   8.564
  810POPC   C2B13448  35.292  42.909   8.264
  810POPC   C3B13449  35.253  42.838   7.964
  810POPC   C4B13450  35.270  42.872   7.664
  811POPC   NC313451  27.630  11.314   9.464
  811POPC   PO413452  27.633  11.298   9.164
  811POPC   GL113453  27.557  11.335   8.864
  811POPC   GL213454  27.668  11.187   8.864
  811POPC   C1A13455  27.632  11.275   8.564
  811POPC   D2A13456  27.553  11.288   8.264
  811POPC   C3A13457  27.611  11.279   7.964
  811POPC   C4A13458  27.565  11.295   7.664
  811POPC   C1B13459  27.637  11.050   8.564
  811POPC   C2B13460  27.600  11.045   8.264
  811POPC   C3B13461  27.634  11.042   7.964
  811POPC   C4B13462  27.620  11.084   7.664
  812POPC   NC313463  14.356  26.855   9.464
  812POPC   PO413464  14.406  26.808   9.164
  812POPC   GL113465  14.412  26.814   8.864
  812POPC   GL213466  14.315  26.692   8.864
  812POPC   C1A13467  14.437  26.819   8.564
  812POPC   D2A13468  14.446  26.774   8.264
  812POPC   C3A13469  14.393  26.822   7.964
  812POPC   C4A13470  14.362  26.781   7.664
  812POPC   C1B13471  14.252  26.619   8.564
  812POPC   C2B13472  14.257  26.564   8.264
  812POPC   C3B13473  14.298  26.564   7.964
  812POPC   C4B13474  14.317  26.593   7.664
  813POPC   NC313475  18.270   5.051   9.464
  813POPC   PO413476  18.260   5.126   9.164
  813POPC   GL113477  18.251   5.084   8.864
  813POPC   GL213478  18.157   5.061   8.864
  813POPC   C1A13479  18.271   5.067   8.564
  813POPC   D2A13480  18.311   5.074   8.264
  813POPC   C3A13481  18.234   5.141   7.964
  813POPC   C4A13482  18.291   5.121   7.664
  813POPC   C1B13483  18.068   5.062   8.564
  813POPC   C2B13484  17.988   5.066   8.264
  813POPC   C3B13485  18.008   5.071   7.964
  813POPC   C4B13486  18.007   5.107   7.664
  814POPC   NC313487  41.572  30.676   9.464
  814POPC   PO413488  41.597  30.726   9.164
  814POPC   GL113489  41.591  30.667   8.864
  814POPC   GL213490  41.609  30.573   8.864
  814POPC   C1A13491  41.514  30.682   8.564
  814POPC   D2A13492  41.528  30.700   8.264
  814POPC   C3A13493  41.546  30.685   7.964
  814POPC   C4A13494  41.596  30.725   7.664
  814POPC   C1B13495  41.644  30.499   8.564
  814POPC   C2B13496  41.677  30.437   8.264
  814POPC   C3B13497  41.708  30.479   7.964
  814POPC   C4B13498  41.685  30.509   7.664
  815POPC   NC313499  20.598  41.555   9.464
  815POPC   PO413500  20.629  41.595   9.164
  815POPC   GL113501  20.587  41.602   8.864
  815POPC   GL213502  20.548  41.650   8.864
  815POPC   C1A13503  20.620  41.562   8.564
  815POPC   D2A13504  20.637  41.533   8.264
  815POPC   C3A13505  20.623  41.529   7.964
  815POPC   C4A13506  20.612  41.513   7.664
  815POPC   C1B13507  20.578  41.785   8.564
  815POPC   C2B13508  20.563  41.833   8.264
  815POPC   C3B13509  20.573  41.773   7.964
  815POPC   C4B13510  20.573  41.756   7.664
  816POPC   NC313511  24.461  16.740   9.464
  816POPC   PO413512  24.450  16.765   9.164
  816POPC   GL113513  24.464  16.736   8.864
  816POPC   GL213514  24.437  16.638   8.864
  816POPC   C1A13515  24.512  16.744   8.564
  816POPC   D2A13516  24.470  16.705   8.264
  816POPC   C3A13517  24.485  16.748   7.964
  816POPC   C4A13518  24.441  16.752   7.664
  816POPC   C1B13519  24.251  16.563   8.564
  816POPC   C2B13520  24.337  16.627   8.264
  816POPC   C3B13521  24.258  16.622   7.964
  816POPC   C4B13522  24.262  16.543   7.664
  817POPC   NC313523   2.740   1.206   9.464
  817POPC   PO413524   2.798   1.218   9.164
  817POPC   GL113525   2.723   1.229   8.864
  817POPC   GL213526   2.898   1.346   8.864
  817POPC   C1A13527   2.791   1.246   8.564
  817POPC   D2A13528   2.724   1.200   8.264
  817POPC   C3A13529   2.755   1.212   7.964
  817POPC   C4A13530   2.812   1.214   7.664
  817POPC   C1B13531   2.974   1.438   8.564
  817POPC   C2B13532   2.902   1.424   8.264
  817POPC   C3B13533   2.977   1.404   7.964
  817POPC   C4B13534   2.915   1.354   7.664
  818POPC   NC313535  44.677   8.209   9.464
  818POPC   PO413536  44.661   8.182   9.164
  818POPC   GL113537  44.666   8.245   8.864
  818POPC   GL213538  44.561   8.150   8.864
  818POPC   C1A13539  44.654   8.149   8.564
  818POPC   D2A13540  44.660   8.208   8.264
  818POPC   C3A13541  44.665   8.217   7.964
  818POPC   C4A13542  44.688   8.179   7.664
  818POPC   C1B13543  44.412   8.026   8.564
  818POPC   C2B13544  44.440   8.104   8.264
  818POPC   C3B13545  44.452   8.043   7.964
  818POPC   C4B13546  44.495   8.087   7.664
  819POPC   NC313547  19.844  41.564   9.464
  819POPC   PO413548  19.816  41.525   9.164
  819POPC   GL113549  19.816  41.606   8.864
  819POPC   GL213550  19.792  41.511   8.864
  819POPC   C1A13551  19.863  41.603   8.564
  819POPC   D2A13552  19.880  41.534   8.264
  819POPC   C3A13553  19.823  41.545   7.964
  819POPC   C4A13554  19.821  41.592   7.664
  819POPC   C1B13555  19.657  41.369   8.564
  819POPC   C2B13556  19.604  41.430   8.264
  819POPC   C3B13557  19.620  41.358   7.964
  819POPC   C4B13558  19.616  41.433   7.664
  820POPC   NC313559  36.174  36.880   9.464
  820POPC   PO413560  36.081  36.879   9.164
  820POPC   GL113561  36.084  36.945   8.864
  820POPC   GL213562  36.128  36.752   8.864
  820POPC   C1A13563  36.098  36.920   8.564
  820POPC   D2A13564  36.083  36.891   8.264
  820POPC   C3A13565  36.083  36.951   7.964
  820POPC   C4A13566  36.158  36.895   7.664
  820POPC   C1B13567  36.167  36.658   8.564
  820POPC   C2B13568  36.101  36.626   8.264
  820POPC   C3B13569  36.098  36.643   7.964
  820POPC   C4B13570  36.087  36.634   7.664
  821POPC   NC313571  15.982  24.517   9.464
  821POPC   PO413572  15.918  24.465   9.164
  821POPC   GL113573  15.955  24.524   8.864
  821POPC   GL213574  16.060  24.570   8.864
  821POPC   C1A13575  15.914  24.508   8.564
  821POPC   D2A13576  15.933  24.511   8.264
  821POPC   C3A13577  15.987  24.449   7.964
  821POPC   C4A13578  15.943  24.471   7.664
  821POPC   C1B13579  16.028  24.750   8.564
  821POPC   C2B13580  16.032  24.696   8.264
  821POPC   C3B13581  16.054  24.738   7.964
  821POPC   C4B13582  16.034  24.722   7.664
  822POPC   NC313583  40.733  40.031   9.464
  822POPC   PO413584  40.779  40.056   9.164
  822POPC   GL113585  40.819  40.022   8.864
  822POPC   GL213586  40.796  40.113   8.864
  822POPC   C1A13587  40.752  39.959   8.564
  822POPC   D2A13588  40.816  39.974   8.264
  822POPC   C3A13589  40.743  39.975   7.964
  822POPC   C4A13590  40.734  40.004   7.664
  822POPC   C1B13591  40.771  40.221   8.564
  822POPC   C2B13592  40.711  40.265   8.264
  822POPC   C3B13593  40.764  40.216   7.964
  822POPC   C4B13594  40.760  40.228   7.664
  823POPC   NC313595   6.653  29.121   9.464
  823POPC   PO413596   6.653  29.174   9.164
  823POPC   GL113597   6.678  29.175   8.864
  823POPC   GL213598   6.739  29.046   8.864
  823POPC   C1A13599   6.661  29.163   8.564
  823POPC   D2A13600   6.663  29.189   8.264
  823POPC   C3A13601   6.615  29.139   7.964
  823POPC   C4A13602   6.663  29.156   7.664
  823POPC   C1B13603   6.836  28.935   8.564
  823POPC   C2B13604   6.744  28.917   8.264
  823POPC   C3B13605   6.811  28.918   7.964
  823POPC   C4B13606   6.747  28.981   7.664
  824POPC   NC313607  20.621  16.706   9.464
  824POPC   PO413608  20.649  16.691   9.164
  824POPC   GL113609  20.611  16.713   8.864
  824POPC   GL213610  20.551  16.877   8.864
  824POPC   C1A13611  20.651  16.729   8.564
  824POPC   D2A13612  20.621  16.703   8.264
  824POPC   C3A13613  20.618  16.774   7.964
  824POPC   C4A13614  20.592  16.770   7.664
  824POPC   C1B13615  20.554  16.929   8.564
  824POPC   C2B13616  20.617  16.935   8.264
  824POPC   C3B13617  20.560  17.003   7.964
  824POPC   C4B13618  20.554  16.981   7.664
  825POPC   NC313619  12.880   9.716   9.464
  825POPC   PO413620  12.811   9.701   9.164
  825POPC   GL113621  12.867   9.788   8.864
  825POPC   GL213622  12.899   9.848   8.864
  825POPC   C1A13623  12.860   9.703   8.564
  825POPC   D2A13624  12.835   9.716   8.264
  825POPC   C3A13625  12.828   9.723   7.964
  825POPC   C4A13626  12.874   9.746   7.664
  825POPC   C1B13627  12.934   9.962   8.564
  825POPC   C2B13628  12.859  10.015   8.264
  825POPC   C3B13629  12.861  10.011   7.964
  825POPC   C4B13630  12.865   9.980   7.664
  826POPC   NC313631   1.185  33.787   9.464
  826POPC   PO413632   1.184  33.779   9.164
  826POPC   GL113633   1.186  33.847   8.864
  826POPC   GL213634   1.318  33.849   8.864
  826POPC   C1A13635   1.230  33.752   8.564
  826POPC   D2A13636   1.254  33.759   8.264
  826POPC   C3A13637   1.248  33.809   7.964
  826POPC   C4A13638   1.254  33.757   7.664
  826POPC   C1B13639   1.456  33.896   8.564
  826POPC   C2B13640   1.393  33.893   8.264
  826POPC   C3B13641   1.401  33.880   7.964
  826POPC   C4B13642   1.440  33.901   7.664
  827POPC   NC313643   7.410  23.690   9.464
  827POPC   PO413644   7.400  23.670   9.164
  827POPC   GL113645   7.414  23.699   8.864
  827POPC   GL213646   7.374  23.809   8.864
  827POPC   C1A13647   7.400  23.710   8.564
  827POPC   D2A13648   7.403  23.754   8.264
  827POPC   C3A13649   7.389  23.714   7.964
  827POPC   C4A13650   7.428  23.670   7.664
  827POPC   C1B13651   7.246  23.897   8.564
  827POPC   C2B13652   7.290  23.905   8.264
  827POPC   C3B13653   7.252  23.908   7.964
  827POPC   C4B13654   7.263  23.948   7.664
  828POPC   NC313655   4.324   4.310   9.464
  828POPC   PO413656   4.320   4.268   9.164
  828POPC   GL113657   4.337   4.310   8.864
  828POPC   GL213658   4.323   4.154   8.864
  828POPC   C1A13659   4.337   4.352   8.564
  828POPC   D2A13660   4.319   4.345   8.264
  828POPC   C3A13661   4.322   4.271   7.964
  828POPC   C4A13662   4.325   4.330   7.664
  828POPC   C1B13663   4.318   4.038   8.564
  828POPC   C2B13664   4.352   4.112   8.264
  828POPC   C3B13665   4.334   4.109   7.964
  828POPC   C4B13666   4.315   4.057   7.664
  829POPC   NC313667   9.786  24.496   9.464
  829POPC   PO413668   9.738  24.487   9.164
  829POPC   GL113669   9.731  24.481   8.864
  829POPC   GL213670   9.617  24.442   8.864
  829POPC   C1A13671   9.783  24.535   8.564
  829POPC   D2A13672   9.739  24.536   8.264
  829POPC   C3A13673   9.706  24.451   7.964
  829POPC   C4A13674   9.776  24.507   7.664
  829POPC   C1B13675   9.449  24.514   8.564
  829POPC   C2B13676   9.512  24.433   8.264
  829POPC   C3B13677   9.532  24.495   7.964
  829POPC   C4B13678   9.472  24.502   7.664
  830POPC   NC313679  23.707   1.962   9.464
  830POPC   PO413680  23.752   1.946   9.164
  830POPC   GL113681  23.690   2.023   8.864
  830POPC   GL213682  23.574   2.041   8.864
  830POPC   C1A13683  23.689   1.996   8.564
  830POPC   D2A13684  23.678   2.015   8.264
  830POPC   C3A13685  23.762   1.978   7.964
  830POPC   C4A13686  23.678   1.993   7.664
  830POPC   C1B13687  23.478   2.127   8.564
  830POPC   C2B13688  23.473   2.184   8.264
  830POPC   C3B13689  23.473   2.192   7.964
  830POPC   C4B13690  23.483   2.170   7.664
  831POPC   NC313691   1.194   7.403   9.464
  831POPC   PO413692   1.233   7.471   9.164
  831POPC   GL113693   1.185   7.376   8.864
  831POPC   GL213694   1.208   7.589   8.864
  831POPC   C1A13695   1.171   7.439   8.564
  831POPC   D2A13696   1.226   7.415   8.264
  831POPC   C3A13697   1.186   7.432   7.964
  831POPC   C4A13698   1.222   7.377   7.664
  831POPC   C1B13699   1.152   7.645   8.564
  831POPC   C2B13700   1.175   7.666   8.264
  831POPC   C3B13701   1.202   7.657   7.964
  831POPC   C4B13702   1.244   7.646   7.664
  832POPC   NC313703  44.633  21.369   9.464
  832POPC   PO413704  44.689  21.378   9.164
  832POPC   GL113705  44.689  21.431   8.864
  832POPC   GL213706  44.537  21.319   8.864
  832POPC   C1A13707  44.657  21.434   8.564
  832POPC   D2A13708  44.687  21.345   8.264
  832POPC   C3A13709  44.662  21.353   7.964
  832POPC   C4A13710  44.649  21.409   7.664
  832POPC   C1B13711  44.406  21.271   8.564
  832POPC   C2B13712  44.409  21.284   8.264
  832POPC   C3B13713  44.420  21.231   7.964
  832POPC   C4B13714  44.399  21.311   7.664
  833POPC   NC313715  42.347  44.685   9.464
  833POPC   PO413716  42.372  44.677   9.164
  833POPC   GL113717  42.321  44.686   8.864
  833POPC   GL213718  42.263  44.596   8.864
  833POPC   C1A13719  42.360  44.702   8.564
  833POPC   D2A13720  42.363  44.693   8.264
  833POPC   C3A13721  42.361  44.656   7.964
  833POPC   C4A13722  42.298  44.636   7.664
  833POPC   C1B13723  42.185  44.452   8.564
  833POPC   C2B13724  42.104  44.455   8.264
  833POPC   C3B13725  42.135  44.504   7.964
  833POPC   C4B13726  42.187  44.473   7.664
  834POPC   NC313727  36.165   4.301   9.464
  834POPC   PO413728  36.167   4.313   9.164
  834POPC   GL113729  36.084   4.357   8.864
  834POPC   GL213730  36.195   4.464   8.864
  834POPC   C1A13731  36.177   4.277   8.564
  834POPC   D2A13732  36.105   4.358   8.264
  834POPC   C3A13733  36.098   4.355   7.964
  834POPC   C4A13734  36.105   4.288   7.664
  834POPC   C1B13735  36.188   4.522   8.564
  834POPC   C2B13736  36.186   4.572   8.264
  834POPC   C3B13737  36.264   4.509   7.964
  834POPC   C4B13738  36.190   4.497   7.664
  835POPC   NC313739  26.011  10.482   9.464
  835POPC   PO413740  26.054  10.515   9.164
  835POPC   GL113741  26.086  10.490   8.864
  835POPC   GL213742  26.097  10.567   8.864
  835POPC   C1A13743  26.006  10.495   8.564
  835POPC   D2A13744  26.024  10.490   8.264
  835POPC   C3A13745  26.065  10.486   7.964
  835POPC   C4A13746  26.088  10.537   7.664
  835POPC   C1B13747  26.254  10.703   8.564
  835POPC   C2B13748  26.230  10.688   8.264
  835POPC   C3B13749  26.269  10.673   7.964
  835POPC   C4B13750  26.191  10.648   7.664
  836POPC   NC313751  28.346  22.987   9.464
  836POPC   PO413752  28.333  22.969   9.164
  836POPC   GL113753  28.345  22.911   8.864
  836POPC   GL213754  28.242  22.920   8.864
  836POPC   C1A13755  28.367  22.913   8.564
  836POPC   D2A13756  28.319  22.921   8.264
  836POPC   C3A13757  28.329  22.963   7.964
  836POPC   C4A13758  28.369  22.985   7.664
  836POPC   C1B13759  28.093  22.959   8.564
  836POPC   C2B13760  28.092  22.958   8.264
  836POPC   C3B13761  28.137  22.987   7.964
  836POPC   C4B13762  28.096  22.944   7.664
  837POPC   NC313763   8.985  29.885   9.464
  837POPC   PO413764   8.924  29.951   9.164
  837POPC   GL113765   8.928  29.874   8.864
  837POPC   GL213766   9.080  29.994   8.864
  837POPC   C1A13767   8.982  29.932   8.564
  837POPC   D2A13768   9.013  29.963   8.264
  837POPC   C3A13769   8.993  29.919   7.964
  837POPC   C4A13770   8.933  29.916   7.664
  837POPC   C1B13771   9.113  30.138   8.564
  837POPC   C2B13772   9.103  30.109   8.264
  837POPC   C3B13773   9.107  30.095   7.964
  837POPC   C4B13774   9.141  30.084   7.664
  838POPC   NC313775  23.676   4.287   9.464
  838POPC   PO413776  23.734   4.269   9.164
  838POPC   GL113777  23.674   4.300   8.864
  838POPC   GL213778  23.857   4.291   8.864
  838POPC   C1A13779  23.724   4.279   8.564
  838POPC   D2A13780  23.664   4.301   8.264
  838POPC   C3A13781  23.714   4.325   7.964
  838POPC   C4A13782  23.699   4.276   7.664
  838POPC   C1B13783  23.963   4.161   8.564
  838POPC   C2B13784  23.968   4.152   8.264
  838POPC   C3B13785  23.925   4.210   7.964
  838POPC   C4B13786  23.928   4.213   7.664
  839POPC   NC313787   1.252  32.224   9.464
  839POPC   PO413788   1.196  32.252   9.164
  839POPC   GL113789   1.203  32.220   8.864
  839POPC   GL213790   1.168  32.395   8.864
  839POPC   C1A13791   1.177  32.285   8.564
  839POPC   D2A13792   1.164  32.256   8.264
  839POPC   C3A13793   1.190  32.250   7.964
  839POPC   C4A13794   1.233  32.200   7.664
  839POPC   C1B13795   1.129  32.534   8.564
  839POPC   C2B13796   1.164  32.473   8.264
  839POPC   C3B13797   1.150  32.446   7.964
  839POPC   C4B13798   1.102  32.480   7.664
  840POPC   NC313799   2.747   6.684   9.464
  840POPC   PO413800   2.805   6.661   9.164
  840POPC   GL113801   2.760   6.665   8.864
  840POPC   GL213802   2.793   6.566   8.864
  840POPC   C1A13803   2.735   6.672   8.564
  840POPC   D2A13804   2.763   6.597   8.264
  840POPC   C3A13805   2.722   6.666   7.964
  840POPC   C4A13806   2.768   6.634   7.664
  840POPC   C1B13807   2.831   6.402   8.564
  840POPC   C2B13808   2.806   6.430   8.264
  840POPC   C3B13809   2.792   6.416   7.964
  840POPC   C4B13810   2.865   6.379   7.664
  841POPC   NC313811  33.777  19.043   9.464
  841POPC   PO413812  33.849  19.076   9.164
  841POPC   GL113813  33.810  19.046   8.864
  841POPC   GL213814  33.939  19.015   8.864
  841POPC   C1A13815  33.780  19.039   8.564
  841POPC   D2A13816  33.824  19.042   8.264
  841POPC   C3A13817  33.829  19.085   7.964
  841POPC   C4A13818  33.797  19.080   7.664
  841POPC   C1B13819  34.048  18.869   8.564
  841POPC   C2B13820  34.045  18.928   8.264
  841POPC   C3B13821  33.988  18.868   7.964
  841POPC   C4B13822  33.998  18.898   7.664
  842POPC   NC313823   3.534  19.830   9.464
  842POPC   PO413824   3.492  19.849   9.164
  842POPC   GL113825   3.573  19.806   8.864
  842POPC   GL213826   3.413  19.883   8.864
  842POPC   C1A13827   3.546  19.841   8.564
  842POPC   D2A13828   3.528  19.813   8.264
  842POPC   C3A13829   3.514  19.789   7.964
  842POPC   C4A13830   3.558  19.795   7.664
  842POPC   C1B13831   3.286  19.909   8.564
  842POPC   C2B13832   3.319  19.917   8.264
  842POPC   C3B13833   3.297  19.935   7.964
  842POPC   C4B13834   3.331  19.880   7.664
  843POPC   NC313835  19.853  36.892   9.464
  843POPC   PO413836  19.848  36.871   9.164
  843POPC   GL113837  19.799  36.899   8.864
  843POPC   GL213838  19.919  36.953   8.864
  843POPC   C1A13839  19.804  36.862   8.564
  843POPC   D2A13840  19.837  36.876   8.264
  843POPC   C3A13841  19.862  36.910   7.964
  843POPC   C4A13842  19.867  36.908   7.664
  843POPC   C1B13843  20.066  36.952   8.564
  843POPC   C2B13844  20.056  36.944   8.264
  843POPC   C3B13845  20.128  36.984   7.964
  843POPC   C4B13846  20.120  36.986   7.664
  844POPC   NC313847  14.354   4.324   9.464
  844POPC   PO413848  14.426   4.365   9.164
  844POPC   GL113849  14.359   4.299   8.864
  844POPC   GL213850  14.332   4.423   8.864
  844POPC   C1A13851  14.361   4.346   8.564
  844POPC   D2A13852  14.411   4.310   8.264
  844POPC   C3A13853  14.451   4.282   7.964
  844POPC   C4A13854  14.402   4.300   7.664
  844POPC   C1B13855  14.232   4.479   8.564
  844POPC   C2B13856  14.168   4.484   8.264
  844POPC   C3B13857  14.174   4.470   7.964
  844POPC   C4B13858  14.220   4.467   7.664
  845POPC   NC313859  23.664  38.443   9.464
  845POPC   PO413860  23.739  38.466   9.164
  845POPC   GL113861  23.724  38.490   8.864
  845POPC   GL213862  23.689  38.320   8.864
  845POPC   C1A13863  23.680  38.432   8.564
  845POPC   D2A13864  23.753  38.502   8.264
  845POPC   C3A13865  23.681  38.459   7.964
  845POPC   C4A13866  23.739  38.474   7.664
  845POPC   C1B13867  23.727  38.249   8.564
  845POPC   C2B13868  23.710  38.227   8.264
  845POPC   C3B13869  23.713  38.232   7.964
  845POPC   C4B13870  23.723  38.198   7.664
  846POPC   NC313871  21.431  42.304   9.464
  846POPC   PO413872  21.337  42.298   9.164
  846POPC   GL113873  21.407  42.374   8.864
  846POPC   GL213874  21.350  42.249   8.864
  846POPC   C1A13875  21.359  42.373   8.564
  846POPC   D2A13876  21.408  42.307   8.264
  846POPC   C3A13877  21.359  42.333   7.964
  846POPC   C4A13878  21.404  42.320   7.664
  846POPC   C1B13879  21.261  42.119   8.564
  846POPC   C2B13880  21.272  42.127   8.264
  846POPC   C3B13881  21.265  42.151   7.964
  846POPC   C4B13882  21.312  42.099   7.664
  847POPC   NC313883  15.935  40.800   9.464
  847POPC   PO413884  15.994  40.812   9.164
  847POPC   GL113885  15.994  40.762   8.864
  847POPC   GL213886  16.041  40.788   8.864
  847POPC   C1A13887  15.924  40.809   8.564
  847POPC   D2A13888  15.974  40.816   8.264
  847POPC   C3A13889  15.969  40.824   7.964
  847POPC   C4A13890  15.931  40.790   7.664
  847POPC   C1B13891  16.204  40.683   8.564
  847POPC   C2B13892  16.183  40.717   8.264
  847POPC   C3B13893  16.189  40.727   7.964
  847POPC   C4B13894  16.197  40.733   7.664
  848POPC   NC313895  30.677  29.872   9.464
  848POPC   PO413896  30.702  29.959   9.164
  848POPC   GL113897  30.672  29.957   8.864
  848POPC   GL213898  30.796  30.066   8.864
  848POPC   C1A13899  30.649  29.936   8.564
  848POPC   D2A13900  30.725  29.952   8.264
  848POPC   C3A13901  30.675  29.913   7.964
  848POPC   C4A13902  30.679  29.964   7.664
  848POPC   C1B13903  30.794  30.192   8.564
  848POPC   C2B13904  30.835  30.134   8.264
  848POPC   C3B13905  30.812  30.164   7.964
  848POPC   C4B13906  30.779  30.159   7.664
  849POPC   NC313907  40.759  22.901   9.464
  849POPC   PO413908  40.828  22.933   9.164
  849POPC   GL113909  40.827  22.922   8.864
  849POPC   GL213910  40.656  22.953   8.864
  849POPC   C1A13911  40.780  22.897   8.564
  849POPC   D2A13912  40.762  22.918   8.264
  849POPC   C3A13913  40.762  22.894   7.964
  849POPC   C4A13914  40.735  22.975   7.664
  849POPC   C1B13915  40.519  22.963   8.564
  849POPC   C2B13916  40.523  22.936   8.264
  849POPC   C3B13917  40.552  22.973   7.964
  849POPC   C4B13918  40.522  22.974   7.664
  850POPC   NC313919  40.762  11.312   9.464
  850POPC   PO413920  40.754  11.331   9.164
  850POPC   GL113921  40.825  11.341   8.864
  850POPC   GL213922  40.894  11.386   8.864
  850POPC   C1A13923  40.811  11.305   8.564
  850POPC   D2A13924  40.746  11.282   8.264
  850POPC   C3A13925  40.764  11.267   7.964
  850POPC   C4A13926  40.749  11.288   7.664
  850POPC   C1B13927  41.024  11.434   8.564
  850POPC   C2B13928  40.965  11.409   8.264
  850POPC   C3B13929  41.043  11.363   7.964
  850POPC   C4B13930  40.981  11.419   7.664
  851POPC   NC313931  36.870   9.790   9.464
  851POPC   PO413932  36.857   9.742   9.164
  851POPC   GL113933  36.915   9.737   8.864
  851POPC   GL213934  36.796   9.676   8.864
  851POPC   C1A13935  36.912   9.706   8.564
  851POPC   D2A13936  36.885   9.783   8.264
  851POPC   C3A13937  36.950   9.752   7.964
  851POPC   C4A13938  36.907   9.751   7.664
  851POPC   C1B13939  36.778   9.517   8.564
  851POPC   C2B13940  36.738   9.564   8.264
  851POPC   C3B13941  36.742   9.600   7.964
  851POPC   C4B13942  36.707   9.546   7.664
  852POPC   NC313943  17.497  20.607   9.464
  852POPC   PO413944  17.529  20.597   9.164
  852POPC   GL113945  17.508  20.643   8.864
  852POPC   GL213946  17.605  20.515   8.864
  852POPC   C1A13947  17.509  20.629   8.564
  852POPC   D2A13948  17.459  20.589   8.264
  852POPC   C3A13949  17.497  20.602   7.964
  852POPC   C4A13950  17.505  20.645   7.664
  852POPC   C1B13951  17.686  20.427   8.564
  852POPC   C2B13952  17.622  20.423   8.264
  852POPC   C3B13953  17.606  20.380   7.964
  852POPC   C4B13954  17.642  20.379   7.664
  853POPC   NC313955  39.983  32.980   9.464
  853POPC   PO413956  40.043  33.003   9.164
  853POPC   GL113957  40.018  33.054   8.864
  853POPC   GL213958  39.843  33.066   8.864
  853POPC   C1A13959  39.994  33.027   8.564
  853POPC   D2A13960  40.042  33.039   8.264
  853POPC   C3A13961  39.985  32.994   7.964
  853POPC   C4A13962  40.020  33.043   7.664
  853POPC   C1B13963  39.809  33.104   8.564
  853POPC   C2B13964  39.814  33.130   8.264
  853POPC   C3B13965  39.733  33.066   7.964
  853POPC   C4B13966  39.805  33.109   7.664
  854POPC   NC313967  35.313  41.558   9.464
  854POPC   PO413968  35.393  41.595   9.164
  854POPC   GL113969  35.330  41.556   8.864
  854POPC   GL213970  35.340  41.466   8.864
  854POPC   C1A13971  35.317  41.522   8.564
  854POPC   D2A13972  35.397  41.559   8.264
  854POPC   C3A13973  35.312  41.601   7.964
  854POPC   C4A13974  35.371  41.511   7.664
  854POPC   C1B13975  35.266  41.301   8.564
  854POPC   C2B13976  35.282  41.364   8.264
  854POPC   C3B13977  35.306  41.272   7.964
  854POPC   C4B13978  35.302  41.320   7.664
  855POPC   NC313979  19.857  43.866   9.464
  855POPC   PO413980  19.846  43.840   9.164
  855POPC   GL113981  19.881  43.846   8.864
  855POPC   GL213982  19.902  44.059   8.864
  855POPC   C1A13983  19.875  43.862   8.564
  855POPC   D2A13984  19.870  43.853   8.264
  855POPC   C3A13985  19.822  43.866   7.964
  855POPC   C4A13986  19.794  43.841   7.664
  855POPC   C1B13987  19.883  44.102   8.564
  855POPC   C2B13988  19.925  44.089   8.264
  855POPC   C3B13989  19.887  44.120   7.964
  855POPC   C4B13990  19.839  44.087   7.664
  856POPC   NC313991  41.544  21.383   9.464
  856POPC   PO413992  41.594  21.376   9.164
  856POPC   GL113993  41.601  21.412   8.864
  856POPC   GL213994  41.723  21.392   8.864
  856POPC   C1A13995  41.553  21.337   8.564
  856POPC   D2A13996  41.562  21.367   8.264
  856POPC   C3A13997  41.564  21.381   7.964
  856POPC   C4A13998  41.585  21.348   7.664
  856POPC   C1B13999  41.831  21.433   8.564
  856POPC   C2B14000  41.842  21.445   8.264
  856POPC   C3B14001  41.826  21.434   7.964
  856POPC   C4B14002  41.853  21.359   7.664
  857POPC   NC314003  24.440  23.758   9.464
  857POPC   PO414004  24.469  23.737   9.164
  857POPC   GL114005  24.488  23.745   8.864
  857POPC   GL214006  24.404  23.728   8.864
  857POPC   C1A14007  24.522  23.714   8.564
  857POPC   D2A14008  24.535  23.761   8.264
  857POPC   C3A14009  24.482  23.705   7.964
  857POPC   C4A14010  24.532  23.736   7.664
  857POPC   C1B14011  24.245  23.860   8.564
  857POPC   C2B14012  24.220  23.814   8.264
  857POPC   C3B14013  24.230  23.776   7.964
  857POPC   C4B14014  24.279  23.834   7.664
  858POPC   NC314015  43.929   1.980   9.464
  858POPC   PO414016  43.842   2.005   9.164
  858POPC   GL114017  43.851   2.008   8.864
  858POPC   GL214018  43.842   1.828   8.864
  858POPC   C1A14019  43.903   1.992   8.564
  858POPC   D2A14020  43.915   1.978   8.264
  858POPC   C3A14021  43.852   1.960   7.964
  858POPC   C4A14022  43.911   1.999   7.664
  858POPC   C1B14023  43.896   1.727   8.564
  858POPC   C2B14024  43.882   1.705   8.264
  858POPC   C3B14025  43.857   1.769   7.964
  858POPC   C4B14026  43.837   1.775   7.664
  859POPC   NC314027  23.695  12.118   9.464
  859POPC   PO414028  23.713  12.080   9.164
  859POPC   GL114029  23.748  12.083   8.864
  859POPC   GL214030  23.775  12.154   8.864
  859POPC   C1A14031  23.705  12.059   8.564
  859POPC   D2A14032  23.735  12.068   8.264
  859POPC   C3A14033  23.678  12.114   7.964
  859POPC   C4A14034  23.668  12.028   7.664
  859POPC   C1B14035  23.757  12.314   8.564
  859POPC   C2B14036  23.790  12.335   8.264
  859POPC   C3B14037  23.824  12.344   7.964
  859POPC   C4B14038  23.774  12.269   7.664
  860POPC   NC314039  22.938  15.204   9.464
  860POPC   PO414040  22.963  15.217   9.164
  860POPC   GL114041  22.945  15.180   8.864
  860POPC   GL214042  22.828  15.255   8.864
  860POPC   C1A14043  22.950  15.212   8.564
  860POPC   D2A14044  22.979  15.155   8.264
  860POPC   C3A14045  22.918  15.141   7.964
  860POPC   C4A14046  22.893  15.141   7.664
  860POPC   C1B14047  22.681  15.227   8.564
  860POPC   C2B14048  22.750  15.242   8.264
  860POPC   C3B14049  22.658  15.293   7.964
  860POPC   C4B14050  22.723  15.236   7.664
  861POPC   NC314051  36.083  22.184   9.464
  861POPC   PO414052  36.116  22.133   9.164
  861POPC   GL114053  36.139  22.163   8.864
  861POPC   GL214054  36.104  22.290   8.864
  861POPC   C1A14055  36.168  22.123   8.564
  861POPC   D2A14056  36.079  22.181   8.264
  861POPC   C3A14057  36.146  22.123   7.964
  861POPC   C4A14058  36.085  22.116   7.664
  861POPC   C1B14059  36.042  22.395   8.564
  861POPC   C2B14060  36.022  22.410   8.264
  861POPC   C3B14061  36.019  22.364   7.964
  861POPC   C4B14062  36.021  22.407   7.664
  862POPC   NC314063  13.658  19.036   9.464
  862POPC   PO414064  13.601  19.030   9.164
  862POPC   GL114065  13.620  19.091   8.864
  862POPC   GL214066  13.573  18.927   8.864
  862POPC   C1A14067  13.598  19.067   8.564
  862POPC   D2A14068  13.633  19.083   8.264
  862POPC   C3A14069  13.664  19.073   7.964
  862POPC   C4A14070  13.630  19.095   7.664
  862POPC   C1B14071  13.444  18.885   8.564
  862POPC   C2B14072  13.458  18.905   8.264
  862POPC   C3B14073  13.455  18.898   7.964
  862POPC   C4B14074  13.454  18.838   7.664
  863POPC   NC314075  25.227  27.605   9.464
  863POPC   PO414076  25.291  27.587   9.164
  863POPC   GL114077  25.301  27.639   8.864
  863POPC   GL214078  25.151  27.533   8.864
  863POPC   C1A14079  25.308  27.641   8.564
  863POPC   D2A14080  25.270  27.636   8.264
  863POPC   C3A14081  25.291  27.545   7.964
  863POPC   C4A14082  25.274  27.554   7.664
  863POPC   C1B14083  25.055  27.519   8.564
  863POPC   C2B14084  25.056  27.510   8.264
  863POPC   C3B14085  24.978  27.581   7.964
  863POPC   C4B14086  25.030  27.500   7.664
  864POPC   NC314087  15.914   3.581   9.464
  864POPC   PO414088  15.946   3.575   9.164
  864POPC   GL114089  15.928   3.498   8.864
  864POPC   GL214090  16.105   3.515   8.864
  864POPC   C1A14091  15.974   3.503   8.564
  864POPC   D2A14092  15.997   3.549   8.264
  864POPC   C3A14093  15.931   3.511   7.964
  864POPC   C4A14094  15.937   3.546   7.664
  864POPC   C1B14095  16.168   3.465   8.564
  864POPC   C2B14096  16.165   3.502   8.264
  864POPC   C3B14097  16.175   3.458   7.964
  864POPC   C4B14098  16.220   3.456   7.664
  865POPC   NC314099  19.107  29.171   9.464
  865POPC   PO414100  19.065  29.193   9.164
  865POPC   GL114101  19.010  29.100   8.864
  865POPC   GL214102  19.168  29.226   8.864
  865POPC   C1A14103  19.102  29.142   8.564
  865POPC   D2A14104  19.021  29.108   8.264
  865POPC   C3A14105  19.058  29.191   7.964
  865POPC   C4A14106  19.053  29.117   7.664
  865POPC   C1B14107  19.316  29.203   8.564
  865POPC   C2B14108  19.344  29.257   8.264
  865POPC   C3B14109  19.336  29.179   7.964
  865POPC   C4B14110  19.253  29.229   7.664
  866POPC   NC314111  41.575  38.436   9.464
  866POPC   PO414112  41.512  38.419   9.164
  866POPC   GL114113  41.606  38.408   8.864
  866POPC   GL214114  41.629  38.546   8.864
  866POPC   C1A14115  41.574  38.454   8.564
  866POPC   D2A14116  41.578  38.439   8.264
  866POPC   C3A14117  41.577  38.471   7.964
  866POPC   C4A14118  41.582  38.418   7.664
  866POPC   C1B14119  41.827  38.527   8.564
  866POPC   C2B14120  41.738  38.595   8.264
  866POPC   C3B14121  41.786  38.599   7.964
  866POPC   C4B14122  41.818  38.584   7.664
  867POPC   NC314123   7.466  10.533   9.464
  867POPC   PO414124   7.468  10.484   9.164
  867POPC   GL114125   7.458  10.544   8.864
  867POPC   GL214126   7.534  10.507   8.864
  867POPC   C1A14127   7.467  10.477   8.564
  867POPC   D2A14128   7.389  10.517   8.264
  867POPC   C3A14129   7.418  10.496   7.964
  867POPC   C4A14130   7.466  10.518   7.664
  867POPC   C1B14131   7.707  10.560   8.564
  867POPC   C2B14132   7.713  10.537   8.264
  867POPC   C3B14133   7.646  10.534   7.964
  867POPC   C4B14134   7.647  10.576   7.664
  868POPC   NC314135  41.512  25.305   9.464
  868POPC   PO414136  41.509  25.240   9.164
  868POPC   GL114137  41.512  25.287   8.864
  868POPC   GL214138  41.406  25.244   8.864
  868POPC   C1A14139  41.603  25.303   8.564
  868POPC   D2A14140  41.513  25.298   8.264
  868POPC   C3A14141  41.575  25.309   7.964
  868POPC   C4A14142  41.584  25.229   7.664
  868POPC   C1B14143  41.287  25.231   8.564
  868POPC   C2B14144  41.292  25.255   8.264
  868POPC   C3B14145  41.332  25.216   7.964
  868POPC   C4B14146  41.304  25.240   7.664
  869POPC   NC314147  24.531  27.579   9.464
  869POPC   PO414148  24.501  27.589   9.164
  869POPC   GL114149  24.499  27.629   8.864
  869POPC   GL214150  24.541  27.473   8.864
  869POPC   C1A14151  24.487  27.623   8.564
  869POPC   D2A14152  24.446  27.639   8.264
  869POPC   C3A14153  24.472  27.606   7.964
  869POPC   C4A14154  24.511  27.580   7.664
  869POPC   C1B14155  24.663  27.398   8.564
  869POPC   C2B14156  24.666  27.439   8.264
  869POPC   C3B14157  24.642  27.473   7.964
  869POPC   C4B14158  24.685  27.443   7.664
  870POPC   NC314159  26.801  40.813   9.464
  870POPC   PO414160  26.788  40.780   9.164
  870POPC   GL114161  26.796  40.828   8.864
  870POPC   GL214162  26.715  40.902   8.864
  870POPC   C1A14163  26.775  40.806   8.564
  870POPC   D2A14164  26.772  40.756   8.264
  870POPC   C3A14165  26.769  40.761   7.964
  870POPC   C4A14166  26.791  40.795   7.664
  870POPC   C1B14167  26.618  40.960   8.564
  870POPC   C2B14168  26.645  40.992   8.264
  870POPC   C3B14169  26.691  40.979   7.964
  870POPC   C4B14170  26.664  41.005   7.664
  871POPC   NC314171  12.059  44.621   9.464
  871POPC   PO414172  12.105  44.623   9.164
  871POPC   GL114173  12.122  44.615   8.864
  871POPC   GL214174  11.917  44.678   8.864
  871POPC   C1A14175  12.030  44.654   8.564
  871POPC   D2A14176  12.028  44.681   8.264
  871POPC   C3A14177  12.074  44.669   7.964
  871POPC   C4A14178  12.055  44.647   7.664
  871POPC   C1B14179  11.837  44.580   8.564
  871POPC   C2B14180  11.851  44.631   8.264
  871POPC   C3B14181  11.873  44.653   7.964
  871POPC   C4B14182  11.863  44.654   7.664
  872POPC   NC314183  25.296  15.998   9.464
  872POPC   PO414184  25.293  15.933   9.164
  872POPC   GL114185  25.303  15.962   8.864
  872POPC   GL214186  25.324  16.040   8.864
  872POPC   C1A14187  25.284  16.001   8.564
  872POPC   D2A14188  25.308  15.910   8.264
  872POPC   C3A14189  25.243  15.945   7.964
  872POPC   C4A14190  25.271  15.911   7.664
  872POPC   C1B14191  25.433  16.106   8.564
  872POPC   C2B14192  25.433  16.146   8.264
  872POPC   C3B14193  25.402  16.164   7.964
  872POPC   C4B14194  25.388  16.126   7.664
  873POPC   NC314195  10.515  22.115   9.464
  873POPC   PO414196  10.518  22.122   9.164
  873POPC   GL114197  10.488  22.195   8.864
  873POPC   GL214198  10.394  22.045   8.864
  873POPC   C1A14199  10.521  22.201   8.564
  873POPC   D2A14200  10.572  22.132   8.264
  873POPC   C3A14201  10.520  22.118   7.964
  873POPC   C4A14202  10.501  22.168   7.664
  873POPC   C1B14203  10.275  22.029   8.564
  873POPC   C2B14204  10.304  22.042   8.264
  873POPC   C3B14205  10.301  22.037   7.964
  873POPC   C4B14206  10.281  21.995   7.664
  874POPC   NC314207  13.623  40.741   9.464
  874POPC   PO414208  13.626  40.737   9.164
  874POPC   GL114209  13.632  40.814   8.864
  874POPC   GL214210  13.521  40.759   8.864
  874POPC   C1A14211  13.614  40.806   8.564
  874POPC   D2A14212  13.671  40.804   8.264
  874POPC   C3A14213  13.588  40.799   7.964
  874POPC   C4A14214  13.596  40.748   7.664
  874POPC   C1B14215  13.429  40.789   8.564
  874POPC   C2B14216  13.365  40.858   8.264
  874POPC   C3B14217  13.392  40.781   7.964
  874POPC   C4B14218  13.356  40.826   7.664
  875POPC   NC314219  40.010  15.982   9.464
  875POPC   PO414220  39.997  15.950   9.164
  875POPC   GL114221  40.023  15.912   8.864
  875POPC   GL214222  40.008  16.093   8.864
  875POPC   C1A14223  40.012  15.910   8.564
  875POPC   D2A14224  39.997  15.950   8.264
  875POPC   C3A14225  40.011  15.923   7.964
  875POPC   C4A14226  39.961  16.004   7.664
  875POPC   C1B14227  39.998  16.170   8.564
  875POPC   C2B14228  40.029  16.207   8.264
  875POPC   C3B14229  39.992  16.217   7.964
  875POPC   C4B14230  40.021  16.164   7.664
  876POPC   NC314231  39.250   5.868   9.464
  876POPC   PO414232  39.197   5.839   9.164
  876POPC   GL114233  39.224   5.911   8.864
  876POPC   GL214234  39.144   5.922   8.864
  876POPC   C1A14235  39.192   5.828   8.564
  876POPC   D2A14236  39.205   5.838   8.264
  876POPC   C3A14237  39.260   5.844   7.964
  876POPC   C4A14238  39.281   5.869   7.664
  876POPC   C1B14239  39.051   6.047   8.564
  876POPC   C2B14240  39.131   6.053   8.264
  876POPC   C3B14241  39.069   6.029   7.964
  876POPC   C4B14242  39.049   6.086   7.664
  877POPC   NC314243  42.365  11.270   9.464
  877POPC   PO414244  42.320  11.257   9.164
  877POPC   GL114245  42.369  11.317   8.864
  877POPC   GL214246  42.406  11.389   8.864
  877POPC   C1A14247  42.352  11.307   8.564
  877POPC   D2A14248  42.375  11.282   8.264
  877POPC   C3A14249  42.354  11.323   7.964
  877POPC   C4A14250  42.365  11.301   7.664
  877POPC   C1B14251  42.476  11.445   8.564
  877POPC   C2B14252  42.513  11.511   8.264
  877POPC   C3B14253  42.516  11.499   7.964
  877POPC   C4B14254  42.525  11.477   7.664
  878POPC   NC314255   3.571  22.952   9.464
  878POPC   PO414256   3.521  22.975   9.164
  878POPC   GL114257   3.581  22.978   8.864
  878POPC   GL214258   3.593  22.856   8.864
  878POPC   C1A14259   3.519  22.977   8.564
  878POPC   D2A14260   3.510  22.946   8.264
  878POPC   C3A14261   3.492  22.972   7.964
  878POPC   C4A14262   3.539  22.914   7.664
  878POPC   C1B14263   3.529  22.728   8.564
  878POPC   C2B14264   3.515  22.673   8.264
  878POPC   C3B14265   3.606  22.690   7.964
  878POPC   C4B14266   3.518  22.717   7.664
  879POPC   NC314267  12.112  28.384   9.464
  879POPC   PO414268  12.112  28.404   9.164
  879POPC   GL114269  12.047  28.366   8.864
  879POPC   GL214270  12.053  28.197   8.864
  879POPC   C1A14271  12.122  28.418   8.564
  879POPC   D2A14272  12.069  28.341   8.264
  879POPC   C3A14273  12.093  28.327   7.964
  879POPC   C4A14274  12.085  28.334   7.664
  879POPC   C1B14275  12.009  28.148   8.564
  879POPC   C2B14276  12.008  28.121   8.264
  879POPC   C3B14277  12.005  28.146   7.964
  879POPC   C4B14278  12.028  28.141   7.664
  880POPC   NC314279  18.323  20.604   9.464
  880POPC   PO414280  18.319  20.636   9.164
  880POPC   GL114281  18.294  20.610   8.864
  880POPC   GL214282  18.412  20.642   8.864
  880POPC   C1A14283  18.244  20.623   8.564
  880POPC   D2A14284  18.288  20.651   8.264
  880POPC   C3A14285  18.329  20.643   7.964
  880POPC   C4A14286  18.284  20.658   7.664
  880POPC   C1B14287  18.469  20.764   8.564
  880POPC   C2B14288  18.511  20.743   8.264
  880POPC   C3B14289  18.517  20.787   7.964
  880POPC   C4B14290  18.469  20.709   7.664
  881POPC   NC314291  43.080  36.870   9.464
  881POPC   PO414292  43.100  36.926   9.164
  881POPC   GL114293  43.120  36.917   8.864
  881POPC   GL214294  42.950  36.912   8.864
  881POPC   C1A14295  43.124  36.879   8.564
  881POPC   D2A14296  43.094  36.913   8.264
  881POPC   C3A14297  43.068  36.871   7.964
  881POPC   C4A14298  43.087  36.885   7.664
  881POPC   C1B14299  42.852  36.938   8.564
  881POPC   C2B14300  42.813  36.904   8.264
  881POPC   C3B14301  42.839  36.863   7.964
  881POPC   C4B14302  42.821  36.897   7.664
  882POPC   NC314303  39.261   4.358   9.464
  882POPC   PO414304  39.257   4.336   9.164
  882POPC   GL114305  39.243   4.286   8.864
  882POPC   GL214306  39.169   4.213   8.864
  882POPC   C1A14307  39.213   4.333   8.564
  882POPC   D2A14308  39.255   4.270   8.264
  882POPC   C3A14309  39.222   4.363   7.964
  882POPC   C4A14310  39.264   4.275   7.664
  882POPC   C1B14311  39.086   4.133   8.564
  882POPC   C2B14312  39.060   4.120   8.264
  882POPC   C3B14313  39.017   4.146   7.964
  882POPC   C4B14314  39.020   4.172   7.664
  883POPC   NC314315  40.048  11.290   9.464
  883POPC   PO414316  39.968  11.334   9.164
  883POPC   GL114317  40.016  11.301   8.864
  883POPC   GL214318  40.136  11.271   8.864
  883POPC   C1A14319  40.029  11.340   8.564
  883POPC   D2A14320  39.976  11.313   8.264
  883POPC   C3A14321  40.029  11.271   7.964
  883POPC   C4A14322  39.998  11.295   7.664
  883POPC   C1B14323  40.239  11.207   8.564
  883POPC   C2B14324  40.246  11.164   8.264
  883POPC   C3B14325  40.250  11.223   7.964
  883POPC   C4B14326  40.192  11.187   7.664
  884POPC   NC314327  14.405  17.479   9.464
  884POPC   PO414328  14.383  17.505   9.164
  884POPC   GL114329  14.401  17.505   8.864
  884POPC   GL214330  14.335  17.658   8.864
  884POPC   C1A14331  14.442  17.493   8.564
  884POPC   D2A14332  14.431  17.528   8.264
  884POPC   C3A14333  14.429  17.528   7.964
  884POPC   C4A14334  14.381  17.496   7.664
  884POPC   C1B14335  14.266  17.753   8.564
  884POPC   C2B14336  14.290  17.698   8.264
  884POPC   C3B14337  14.268  17.764   7.964
  884POPC   C4B14338  14.256  17.734   7.664
  885POPC   NC314339  12.121   1.943   9.464
  885POPC   PO414340  12.041   2.034   9.164
  885POPC   GL114341  12.093   1.946   8.864
  885POPC   GL214342  12.011   1.929   8.864
  885POPC   C1A14343  12.082   2.035   8.564
  885POPC   D2A14344  12.071   1.954   8.264
  885POPC   C3A14345  12.076   1.967   7.964
  885POPC   C4A14346  12.122   2.027   7.664
  885POPC   C1B14347  11.896   1.798   8.564
  885POPC   C2B14348  11.961   1.754   8.264
  885POPC   C3B14349  11.970   1.801   7.964
  885POPC   C4B14350  11.934   1.815   7.664
  886POPC   NC314351  36.103   9.000   9.464
  886POPC   PO414352  36.172   8.986   9.164
  886POPC   GL114353  36.091   8.983   8.864
  886POPC   GL214354  36.089   9.135   8.864
  886POPC   C1A14355  36.172   8.943   8.564
  886POPC   D2A14356  36.112   8.989   8.264
  886POPC   C3A14357  36.081   8.923   7.964
  886POPC   C4A14358  36.094   8.948   7.664
  886POPC   C1B14359  36.132   9.215   8.564
  886POPC   C2B14360  36.118   9.215   8.264
  886POPC   C3B14361  36.112   9.258   7.964
  886POPC   C4B14362  36.157   9.178   7.664
  887POPC   NC314363  33.765  15.963   9.464
  887POPC   PO414364  33.830  15.946   9.164
  887POPC   GL114365  33.769  15.926   8.864
  887POPC   GL214366  33.855  16.039   8.864
  887POPC   C1A14367  33.847  15.966   8.564
  887POPC   D2A14368  33.762  16.004   8.264
  887POPC   C3A14369  33.794  15.946   7.964
  887POPC   C4A14370  33.810  15.946   7.664
  887POPC   C1B14371  33.834  16.218   8.564
  887POPC   C2B14372  33.871  16.208   8.264
  887POPC   C3B14373  33.819  16.222   7.964
  887POPC   C4B14374  33.842  16.200   7.664
  888POPC   NC314375  36.137  43.096   9.464
  888POPC   PO414376  36.124  43.095   9.164
  888POPC   GL114377  36.117  43.076   8.864
  888POPC   GL214378  35.979  43.149   8.864
  888POPC   C1A14379  36.087  43.119   8.564
  888POPC   D2A14380  36.137  43.076   8.264
  888POPC   C3A14381  36.114  43.158   7.964
  888POPC   C4A14382  36.110  43.129   7.664
  888POPC   C1B14383  35.919  43.128   8.564
  888POPC   C2B14384  35.835  43.077   8.264
  888POPC   C3B14385  35.893  43.070   7.964
  888POPC   C4B14386  35.859  43.144   7.664
  889POPC   NC314387  32.253   2.749   9.464
  889POPC   PO414388  32.210   2.771   9.164
  889POPC   GL114389  32.202   2.740   8.864
  889POPC   GL214390  32.176   2.811   8.864
  889POPC   C1A14391  32.199   2.815   8.564
  889POPC   D2A14392  32.221   2.765   8.264
  889POPC   C3A14393  32.278   2.797   7.964
  889POPC   C4A14394  32.287   2.765   7.664
  889POPC   C1B14395  32.032   2.819   8.564
  889POPC   C2B14396  31.991   2.912   8.264
  889POPC   C3B14397  32.034   2.823   7.964
  889POPC   C4B14398  32.035   2.910   7.664
  890POPC   NC314399  12.825  17.541   9.464
  890POPC   PO414400  12.897  17.544   9.164
  890POPC   GL114401  12.822  17.536   8.864
  890POPC   GL214402  12.969  17.574   8.864
  890POPC   C1A14403  12.815  17.554   8.564
  890POPC   D2A14404  12.847  17.551   8.264
  890POPC   C3A14405  12.865  17.511   7.964
  890POPC   C4A14406  12.826  17.555   7.664
  890POPC   C1B14407  13.011  17.641   8.564
  890POPC   C2B14408  13.045  17.612   8.264
  890POPC   C3B14409  13.025  17.670   7.964
  890POPC   C4B14410  13.074  17.683   7.664
  891POPC   NC314411  27.626   6.635   9.464
  891POPC   PO414412  27.599   6.659   9.164
  891POPC   GL114413  27.582   6.653   8.864
  891POPC   GL214414  27.739   6.698   8.864
  891POPC   C1A14415  27.573   6.595   8.564
  891POPC   D2A14416  27.633   6.640   8.264
  891POPC   C3A14417  27.618   6.633   7.964
  891POPC   C4A14418  27.573   6.661   7.664
  891POPC   C1B14419  27.803   6.683   8.564
  891POPC   C2B14420  27.826   6.674   8.264
  891POPC   C3B14421  27.811   6.663   7.964
  891POPC   C4B14422  27.828   6.729   7.664
  892POPC   NC314423  43.153   1.231   9.464
  892POPC   PO414424  43.119   1.186   9.164
  892POPC   GL114425  43.113   1.187   8.864
  892POPC   GL214426  43.049   1.311   8.864
  892POPC   C1A14427  43.064   1.201   8.564
  892POPC   D2A14428  43.093   1.246   8.264
  892POPC   C3A14429  43.071   1.237   7.964
  892POPC   C4A14430  43.134   1.171   7.664
  892POPC   C1B14431  42.966   1.415   8.564
  892POPC   C2B14432  42.963   1.461   8.264
  892POPC   C3B14433  43.017   1.395   7.964
  892POPC   C4B14434  42.993   1.471   7.664
  893POPC   NC314435  36.877  11.317   9.464
  893POPC   PO414436  36.903  11.318   9.164
  893POPC   GL114437  36.885  11.253   8.864
  893POPC   GL214438  37.019  11.309   8.864
  893POPC   C1A14439  36.882  11.284   8.564
  893POPC   D2A14440  36.886  11.338   8.264
  893POPC   C3A14441  36.902  11.297   7.964
  893POPC   C4A14442  36.906  11.324   7.664
  893POPC   C1B14443  37.128  11.268   8.564
  893POPC   C2B14444  37.193  11.244   8.264
  893POPC   C3B14445  37.156  11.228   7.964
  893POPC   C4B14446  37.116  11.269   7.664
  894POPC   NC314447  34.573  21.393   9.464
  894POPC   PO414448  34.589  21.369   9.164
  894POPC   GL114449  34.533  21.405   8.864
  894POPC   GL214450  34.623  21.493   8.864
  894POPC   C1A14451  34.573  21.405   8.564
  894POPC   D2A14452  34.572  21.345   8.264
  894POPC   C3A14453  34.573  21.411   7.964
  894POPC   C4A14454  34.533  21.402   7.664
  894POPC   C1B14455  34.721  21.605   8.564
  894POPC   C2B14456  34.675  21.630   8.264
  894POPC   C3B14457  34.760  21.581   7.964
  894POPC   C4B14458  34.763  21.542   7.664
  895POPC   NC314459  14.366  33.813   9.464
  895POPC   PO414460  14.427  33.815   9.164
  895POPC   GL114461  14.387  33.814   8.864
  895POPC   GL214462  14.327  33.871   8.864
  895POPC   C1A14463  14.411  33.806   8.564
  895POPC   D2A14464  14.404  33.774   8.264
  895POPC   C3A14465  14.357  33.806   7.964
  895POPC   C4A14466  14.451  33.754   7.664
  895POPC   C1B14467  14.204  33.856   8.564
  895POPC   C2B14468  14.204  33.878   8.264
  895POPC   C3B14469  14.113  33.861   7.964
  895POPC   C4B14470  14.126  33.885   7.664
  896POPC   NC314471   7.463   1.261   9.464
  896POPC   PO414472   7.443   1.173   9.164
  896POPC   GL114473   7.408   1.168   8.864
  896POPC   GL214474   7.270   1.256   8.864
  896POPC   C1A14475   7.448   1.215   8.564
  896POPC   D2A14476   7.403   1.180   8.264
  896POPC   C3A14477   7.403   1.194   7.964
  896POPC   C4A14478   7.371   1.165   7.664
  896POPC   C1B14479   7.166   1.262   8.564
  896POPC   C2B14480   7.218   1.216   8.264
  896POPC   C3B14481   7.178   1.260   7.964
  896POPC   C4B14482   7.187   1.299   7.664
  897POPC   NC314483  31.485   2.810   9.464
  897POPC   PO414484  31.512   2.729   9.164
  897POPC   GL114485  31.487   2.775   8.864
  897POPC   GL214486  31.419   2.639   8.864
  897POPC   C1A14487  31.513   2.790   8.564
  897POPC   D2A14488  31.470   2.766   8.264
  897POPC   C3A14489  31.477   2.731   7.964
  897POPC   C4A14490  31.454   2.795   7.664
  897POPC   C1B14491  31.265   2.579   8.564
  897POPC   C2B14492  31.322   2.543   8.264
  897POPC   C3B14493  31.271   2.588   7.964
  897POPC   C4B14494  31.292   2.591   7.664
  898POPC   NC314495  18.295  13.657   9.464
  898POPC   PO414496  18.273  13.656   9.164
  898POPC   GL114497  18.245  13.646   8.864
  898POPC   GL214498  18.172  13.667   8.864
  898POPC   C1A14499  18.280  13.671   8.564
  898POPC   D2A14500  18.238  13.594   8.264
  898POPC   C3A14501  18.246  13.618   7.964
  898POPC   C4A14502  18.257  13.651   7.664
  898POPC   C1B14503  18.072  13.728   8.564
  898POPC   C2B14504  18.093  13.786   8.264
  898POPC   C3B14505  18.089  13.780   7.964
  898POPC   C4B14506  18.049  13.778   7.664
  899POPC   NC314507   7.432  42.293   9.464
  899POPC   PO414508   7.459  42.356   9.164
  899POPC   GL114509   7.428  42.351   8.864
  899POPC   GL214510   7.467  42.478   8.864
  899POPC   C1A14511   7.457  42.354   8.564
  899POPC   D2A14512   7.431  42.305   8.264
  899POPC   C3A14513   7.417  42.337   7.964
  899POPC   C4A14514   7.455  42.328   7.664
  899POPC   C1B14515   7.515  42.618   8.564
  899POPC   C2B14516   7.470  42.561   8.264
  899POPC   C3B14517   7.456  42.591   7.964
  899POPC   C4B14518   7.494  42.586   7.664
  900POPC   NC314519  34.567   9.798   9.464
  900POPC   PO414520  34.612   9.732   9.164
  900POPC   GL114521  34.623   9.706   8.864
  900POPC   GL214522  34.417   9.792   8.864
  900POPC   C1A14523  34.570   9.701   8.564
  900POPC   D2A14524  34.573   9.788   8.264
  900POPC   C3A14525  34.535   9.742   7.964
  900POPC   C4A14526  34.596   9.709   7.664
  900POPC   C1B14527  34.376   9.804   8.564
  900POPC   C2B14528  34.326   9.812   8.264
  900POPC   C3B14529  34.344   9.742   7.964
  900POPC   C4B14530  34.328   9.800   7.664
  901POPC   NC314531  35.399  44.685   9.464
  901POPC   PO414532  35.384  44.624   9.164
  901POPC   GL114533  35.335  44.638   8.864
  901POPC   GL214534  35.237  44.733   8.864
  901POPC   C1A14535  35.369  44.644   8.564
  901POPC   D2A14536  35.394  44.690   8.264
  901POPC   C3A14537  35.386  44.704   7.964
  901POPC   C4A14538  35.337  44.701   7.664
  901POPC   C1B14539  35.169  44.796   8.564
  901POPC   C2B14540  35.101  44.851   8.264
  901POPC   C3B14541  35.125  44.804   7.964
  901POPC   C4B14542  35.118  44.817   7.664
  902POPC   NC314543  30.650  11.320   9.464
  902POPC   PO414544  30.691  11.344   9.164
  902POPC   GL114545  30.663  11.328   8.864
  902POPC   GL214546  30.546  11.375   8.864
  902POPC   C1A14547  30.734  11.294   8.564
  902POPC   D2A14548  30.700  11.317   8.264
  902POPC   C3A14549  30.677  11.253   7.964
  902POPC   C4A14550  30.672  11.283   7.664
  902POPC   C1B14551  30.507  11.403   8.564
  902POPC   C2B14552  30.503  11.422   8.264
  902POPC   C3B14553  30.494  11.414   7.964
  902POPC   C4B14554  30.519  11.396   7.664
  903POPC   NC314555  43.090  37.728   9.464
  903POPC   PO414556  43.078  37.716   9.164
  903POPC   GL114557  43.140  37.662   8.864
  903POPC   GL214558  43.117  37.766   8.864
  903POPC   C1A14559  43.076  37.710   8.564
  903POPC   D2A14560  43.112  37.708   8.264
  903POPC   C3A14561  43.090  37.633   7.964
  903POPC   C4A14562  43.114  37.649   7.664
  903POPC   C1B14563  43.018  37.926   8.564
  903POPC   C2B14564  42.999  37.941   8.264
  903POPC   C3B14565  43.082  37.908   7.964
  903POPC   C4B14566  43.074  37.956   7.664
  904POPC   NC314567  26.810  23.722   9.464
  904POPC   PO414568  26.792  23.685   9.164
  904POPC   GL114569  26.842  23.694   8.864
  904POPC   GL214570  26.796  23.883   8.864
  904POPC   C1A14571  26.791  23.758   8.564
  904POPC   D2A14572  26.770  23.677   8.264
  904POPC   C3A14573  26.866  23.760   7.964
  904POPC   C4A14574  26.830  23.754   7.664
  904POPC   C1B14575  26.885  23.936   8.564
  904POPC   C2B14576  26.881  23.989   8.264
  904POPC   C3B14577  26.870  23.966   7.964
  904POPC   C4B14578  26.818  23.929   7.664
  905POPC   NC314579   5.871  14.374   9.464
  905POPC   PO414580   5.894  14.421   9.164
  905POPC   GL114581   5.880  14.445   8.864
  905POPC   GL214582   5.824  14.349   8.864
  905POPC   C1A14583   5.850  14.383   8.564
  905POPC   D2A14584   5.860  14.384   8.264
  905POPC   C3A14585   5.841  14.438   7.964
  905POPC   C4A14586   5.859  14.410   7.664
  905POPC   C1B14587   5.734  14.170   8.564
  905POPC   C2B14588   5.712  14.200   8.264
  905POPC   C3B14589   5.748  14.255   7.964
  905POPC   C4B14590   5.652  14.268   7.664
  906POPC   NC314591  39.234  29.154   9.464
  906POPC   PO414592  39.199  29.156   9.164
  906POPC   GL114593  39.181  29.177   8.864
  906POPC   GL214594  39.336  29.141   8.864
  906POPC   C1A14595  39.212  29.193   8.564
  906POPC   D2A14596  39.276  29.183   8.264
  906POPC   C3A14597  39.218  29.141   7.964
  906POPC   C4A14598  39.273  29.187   7.664
  906POPC   C1B14599  39.493  29.145   8.564
  906POPC   C2B14600  39.472  29.096   8.264
  906POPC   C3B14601  39.513  29.123   7.964
  906POPC   C4B14602  39.480  29.126   7.664
  907POPC   NC314603  43.130   7.375   9.464
  907POPC   PO414604  43.117   7.459   9.164
  907POPC   GL114605  43.150   7.428   8.864
  907POPC   GL214606  43.175   7.509   8.864
  907POPC   C1A14607  43.115   7.449   8.564
  907POPC   D2A14608  43.102   7.381   8.264
  907POPC   C3A14609  43.095   7.452   7.964
  907POPC   C4A14610  43.098   7.393   7.664
  907POPC   C1B14611  43.349   7.503   8.564
  907POPC   C2B14612  43.295   7.529   8.264
  907POPC   C3B14613  43.325   7.504   7.964
  907POPC   C4B14614  43.288   7.500   7.664
  908POPC   NC314615   8.203  28.355   9.464
  908POPC   PO414616   8.193  28.383   9.164
  908POPC   GL114617   8.206  28.348   8.864
  908POPC   GL214618   8.063  28.304   8.864
  908POPC   C1A14619   8.196  28.400   8.564
  908POPC   D2A14620   8.147  28.351   8.264
  908POPC   C3A14621   8.179  28.388   7.964
  908POPC   C4A14622   8.215  28.331   7.664
  908POPC   C1B14623   7.953  28.271   8.564
  908POPC   C2B14624   7.946  28.240   8.264
  908POPC   C3B14625   7.989  28.236   7.964
  908POPC   C4B14626   7.948  28.310   7.664
  909POPC   NC314627  40.013  31.492   9.464
  909POPC   PO414628  40.052  31.518   9.164
  909POPC   GL114629  40.039  31.456   8.864
  909POPC   GL214630  40.111  31.435   8.864
  909POPC   C1A14631  40.013  31.502   8.564
  909POPC   D2A14632  39.959  31.434   8.264
  909POPC   C3A14633  40.031  31.498   7.964
  909POPC   C4A14634  40.007  31.452   7.664
  909POPC   C1B14635  40.232  31.310   8.564
  909POPC   C2B14636  40.248  31.312   8.264
  909POPC   C3B14637  40.220  31.317   7.964
  909POPC   C4B14638  40.244  31.297   7.664
  910POPC   NC314639  36.886  30.663   9.464
  910POPC   PO414640  36.889  30.719   9.164
  910POPC   GL114641  36.855  30.717   8.864
  910POPC   GL214642  36.910  30.542   8.864
  910POPC   C1A14643  36.899  30.704   8.564
  910POPC   D2A14644  36.880  30.740   8.264
  910POPC   C3A14645  36.880  30.722   7.964
  910POPC   C4A14646  36.856  30.669   7.664
  910POPC   C1B14647  36.818  30.405   8.564
  910POPC   C2B14648  36.862  30.429   8.264
  910POPC   C3B14649  36.850  30.461   7.964
  910POPC   C4B14650  36.897  30.494   7.664
  911POPC   NC314651  24.463   5.860   9.464
  911POPC   PO414652  24.446   5.824   9.164
  911POPC   GL114653  24.459   5.879   8.864
  911POPC   GL214654  24.499   5.763   8.864
  911POPC   C1A14655  24.488   5.821   8.564
  911POPC   D2A14656  24.517   5.829   8.264
  911POPC   C3A14657  24.448   5.900   7.964
  911POPC   C4A14658  24.497   5.881   7.664
  911POPC   C1B14659  24.482   5.619   8.564
  911POPC   C2B14660  24.428   5.626   8.264
  911POPC   C3B14661  24.485   5.603   7.964
  911POPC   C4B14662  24.438   5.649   7.664
  912POPC   NC314663   2.033   6.680   9.464
  912POPC   PO414664   2.003   6.653   9.164
  912POPC   GL114665   1.943   6.679   8.864
  912POPC   GL214666   1.919   6.549   8.864
  912POPC   C1A14667   2.023   6.663   8.564
  912POPC   D2A14668   2.029   6.659   8.264
  912POPC   C3A14669   2.012   6.670   7.964
  912POPC   C4A14670   2.005   6.688   7.664
  912POPC   C1B14671   1.789   6.483   8.564
  912POPC   C2B14672   1.816   6.437   8.264
  912POPC   C3B14673   1.821   6.436   7.964
  912POPC   C4B14674   1.776   6.441   7.664
  913POPC   NC314675  32.990  33.839   9.464
  913POPC   PO414676  33.043  33.813   9.164
  913POPC   GL114677  32.997  33.792   8.864
  913POPC   GL214678  32.873  33.802   8.864
  913POPC   C1A14679  33.026  33.796   8.564
  913POPC   D2A14680  33.067  33.840   8.264
  913POPC   C3A14681  33.025  33.755   7.964
  913POPC   C4A14682  33.033  33.782   7.664
  913POPC   C1B14683  32.797  33.778   8.564
  913POPC   C2B14684  32.822  33.780   8.264
  913POPC   C3B14685  32.766  33.801   7.964
  913POPC   C4B14686  32.758  33.783   7.664
  914POPC   NC314687  14.451  39.238   9.464
  914POPC   PO414688  14.435  39.251   9.164
  914POPC   GL114689  14.356  39.223   8.864
  914POPC   GL214690  14.353  39.321   8.864
  914POPC   C1A14691  14.412  39.233   8.564
  914POPC   D2A14692  14.428  39.218   8.264
  914POPC   C3A14693  14.375  39.252   7.964
  914POPC   C4A14694  14.416  39.252   7.664
  914POPC   C1B14695  14.323  39.500   8.564
  914POPC   C2B14696  14.326  39.457   8.264
  914POPC   C3B14697  14.351  39.455   7.964
  914POPC   C4B14698  14.340  39.453   7.664
  915POPC   NC314699  20.633  36.102   9.464
  915POPC   PO414700  20.620  36.152   9.164
  915POPC   GL114701  20.561  36.152   8.864
  915POPC   GL214702  20.645  36.077   8.864
  915POPC   C1A14703  20.560  36.173   8.564
  915POPC   D2A14704  20.579  36.153   8.264
  915POPC   C3A14705  20.634  36.165   7.964
  915POPC   C4A14706  20.647  36.141   7.664
  915POPC   C1B14707  20.730  35.988   8.564
  915POPC   C2B14708  20.769  35.966   8.264
  915POPC   C3B14709  20.802  35.958   7.964
  915POPC   C4B14710  20.797  35.968   7.664
  916POPC   NC314711  22.196  15.202   9.464
  916POPC   PO414712  22.141  15.184   9.164
  916POPC   GL114713  22.197  15.203   8.864
  916POPC   GL214714  22.089  15.026   8.864
  916POPC   C1A14715  22.178  15.219   8.564
  916POPC   D2A14716  22.185  15.181   8.264
  916POPC   C3A14717  22.185  15.167   7.964
  916POPC   C4A14718  22.168  15.181   7.664
  916POPC   C1B14719  22.098  14.945   8.564
  916POPC   C2B14720  22.125  14.934   8.264
  916POPC   C3B14721  22.117  14.924   7.964
  916POPC   C4B14722  22.104  14.916   7.664
  917POPC   NC314723   3.589  21.372   9.464
  917POPC   PO414724   3.499  21.366   9.164
  917POPC   GL114725   3.512  21.430   8.864
  917POPC   GL214726   3.600  21.420   8.864
  917POPC   C1A14727   3.500  21.401   8.564
  917POPC   D2A14728   3.573  21.391   8.264
  917POPC   C3A14729   3.505  21.347   7.964
  917POPC   C4A14730   3.535  21.379   7.664
  917POPC   C1B14731   3.756  21.496   8.564
  917POPC   C2B14732   3.773  21.570   8.264
  917POPC   C3B14733   3.775  21.540   7.964
  917POPC   C4B14734   3.787  21.570   7.664
  918POPC   NC314735  19.864  36.155   9.464
  918POPC   PO414736  19.804  36.155   9.164
  918POPC   GL114737  19.857  36.156   8.864
  918POPC   GL214738  19.940  36.173   8.864
  918POPC   C1A14739  19.868  36.081   8.564
  918POPC   D2A14740  19.795  36.150   8.264
  918POPC   C3A14741  19.853  36.130   7.964
  918POPC   C4A14742  19.813  36.098   7.664
  918POPC   C1B14743  20.060  36.141   8.564
  918POPC   C2B14744  20.118  36.179   8.264
  918POPC   C3B14745  20.133  36.132   7.964
  918POPC   C4B14746  20.047  36.188   7.664
  919POPC   NC314747  36.100  43.903   9.464
  919POPC   PO414748  36.087  43.902   9.164
  919POPC   GL114749  36.164  43.921   8.864
  919POPC   GL214750  36.287  43.900   8.864
  919POPC   C1A14751  36.105  43.922   8.564
  919POPC   D2A14752  36.167  43.891   8.264
  919POPC   C3A14753  36.081  43.925   7.964
  919POPC   C4A14754  36.147  43.904   7.664
  919POPC   C1B14755  36.328  43.994   8.564
  919POPC   C2B14756  36.366  44.022   8.264
  919POPC   C3B14757  36.342  44.004   7.964
  919POPC   C4B14758  36.330  43.999   7.664
  920POPC   NC314759  19.037   6.668   9.464
  920POPC   PO414760  19.106   6.611   9.164
  920POPC   GL114761  19.087   6.616   8.864
  920POPC   GL214762  19.131   6.722   8.864
  920POPC   C1A14763  19.069   6.692   8.564
  920POPC   D2A14764  19.013   6.627   8.264
  920POPC   C3A14765  19.070   6.595   7.964
  920POPC   C4A14766  19.100   6.607   7.664
  920POPC   C1B14767  19.243   6.830   8.564
  920POPC   C2B14768  19.306   6.772   8.264
  920POPC   C3B14769  19.248   6.750   7.964
  920POPC   C4B14770  19.219   6.775   7.664
  921POPC   NC314771  21.369  15.186   9.464
  921POPC   PO414772  21.384  15.197   9.164
  921POPC   GL114773  21.425  15.159   8.864
  921POPC   GL214774  21.433  15.065   8.864
  921POPC   C1A14775  21.416  15.227   8.564
  921POPC   D2A14776  21.420  15.216   8.264
  921POPC   C3A14777  21.421  15.212   7.964
  921POPC   C4A14778  21.408  15.142   7.664
  921POPC   C1B14779  21.460  14.929   8.564
  921POPC   C2B14780  21.489  14.930   8.264
  921POPC   C3B14781  21.504  14.939   7.964
  921POPC   C4B14782  21.444  14.970   7.664
  922POPC   NC314783  22.946   1.214   9.464
  922POPC   PO414784  22.890   1.167   9.164
  922POPC   GL114785  22.929   1.221   8.864
  922POPC   GL214786  23.043   1.359   8.864
  922POPC   C1A14787  22.933   1.250   8.564
  922POPC   D2A14788  22.936   1.173   8.264
  922POPC   C3A14789  22.942   1.202   7.964
  922POPC   C4A14790  22.961   1.202   7.664
  922POPC   C1B14791  23.132   1.382   8.564
  922POPC   C2B14792  23.126   1.434   8.264
  922POPC   C3B14793  23.040   1.447   7.964
  922POPC   C4B14794  23.129   1.446   7.664
  923POPC   NC314795  22.898  43.923   9.464
  923POPC   PO414796  22.932  43.871   9.164
  923POPC   GL114797  22.897  43.910   8.864
  923POPC   GL214798  23.020  43.946   8.864
  923POPC   C1A14799  22.986  43.838   8.564
  923POPC   D2A14800  22.918  43.920   8.264
  923POPC   C3A14801  22.901  43.877   7.964
  923POPC   C4A14802  22.921  43.931   7.664
  923POPC   C1B14803  23.116  44.095   8.564
  923POPC   C2B14804  23.105  44.033   8.264
  923POPC   C3B14805  23.074  44.007   7.964
  923POPC   C4B14806  23.075  44.027   7.664
  924POPC   NC314807  32.227  10.536   9.464
  924POPC   PO414808  32.297  10.486   9.164
  924POPC   GL114809  32.220  10.515   8.864
  924POPC   GL214810  32.258  10.443   8.864
  924POPC   C1A14811  32.230  10.497   8.564
  924POPC   D2A14812  32.249  10.495   8.264
  924POPC   C3A14813  32.261  10.516   7.964
  924POPC   C4A14814  32.209  10.484   7.664
  924POPC   C1B14815  32.366  10.271   8.564
  924POPC   C2B14816  32.307  10.268   8.264
  924POPC   C3B14817  32.348  10.248   7.964
  924POPC   C4B14818  32.355  10.272   7.664
  925POPC   NC314819  43.142  26.777   9.464
  925POPC   PO414820  43.128  26.770   9.164
  925POPC   GL114821  43.064  26.863   8.864
  925POPC   GL214822  43.032  26.914   8.864
  925POPC   C1A14823  43.115  26.799   8.564
  925POPC   D2A14824  43.153  26.800   8.264
  925POPC   C3A14825  43.159  26.823   7.964
  925POPC   C4A14826  43.096  26.776   7.664
  925POPC   C1B14827  42.973  27.031   8.564
  925POPC   C2B14828  42.936  26.977   8.264
  925POPC   C3B14829  42.928  26.974   7.964
  925POPC   C4B14830  43.003  27.004   7.664
  926POPC   NC314831  11.269  40.046   9.464
  926POPC   PO414832  11.314  39.997   9.164
  926POPC   GL114833  11.331  40.033   8.864
  926POPC   GL214834  11.206  39.924   8.864
  926POPC   C1A14835  11.263  40.034   8.564
  926POPC   D2A14836  11.339  40.026   8.264
  926POPC   C3A14837  11.254  39.963   7.964
  926POPC   C4A14838  11.321  39.974   7.664
  926POPC   C1B14839  11.231  39.803   8.564
  926POPC   C2B14840  11.220  39.823   8.264
  926POPC   C3B14841  11.226  39.808   7.964
  926POPC   C4B14842  11.176  39.728   7.664
  927POPC   NC314843  10.527  28.354   9.464
  927POPC   PO414844  10.531  28.334   9.164
  927POPC   GL114845  10.553  28.330   8.864
  927POPC   GL214846  10.635  28.302   8.864
  927POPC   C1A14847  10.541  28.339   8.564
  927POPC   D2A14848  10.493  28.332   8.264
  927POPC   C3A14849  10.514  28.326   7.964
  927POPC   C4A14850  10.492  28.419   7.664
  927POPC   C1B14851  10.692  28.212   8.564
  927POPC   C2B14852  10.688  28.220   8.264
  927POPC   C3B14853  10.698  28.192   7.964
  927POPC   C4B14854  10.762  28.266   7.664
  928POPC   NC314855  16.687  20.635   9.464
  928POPC   PO414856  16.768  20.624   9.164
  928POPC   GL114857  16.688  20.595   8.864
  928POPC   GL214858  16.825  20.653   8.864
  928POPC   C1A14859  16.739  20.617   8.564
  928POPC   D2A14860  16.774  20.567   8.264
  928POPC   C3A14861  16.735  20.651   7.964
  928POPC   C4A14862  16.726  20.634   7.664
  928POPC   C1B14863  16.974  20.639   8.564
  928POPC   C2B14864  16.933  20.664   8.264
  928POPC   C3B14865  16.999  20.622   7.964
  928POPC   C4B14866  16.942  20.637   7.664
  929POPC   NC314867   1.198  27.602   9.464
  929POPC   PO414868   1.249  27.614   9.164
  929POPC   GL114869   1.167  27.569   8.864
  929POPC   GL214870   1.165  27.523   8.864
  929POPC   C1A14871   1.173  27.630   8.564
  929POPC   D2A14872   1.176  27.601   8.264
  929POPC   C3A14873   1.171  27.588   7.964
  929POPC   C4A14874   1.252  27.588   7.664
  929POPC   C1B14875   1.102  27.388   8.564
  929POPC   C2B14876   1.110  27.316   8.264
  929POPC   C3B14877   1.097  27.335   7.964
  929POPC   C4B14878   1.170  27.348   7.664
  930POPC   NC314879  43.129  19.793   9.464
  930POPC   PO414880  43.158  19.788   9.164
  930POPC   GL114881  43.109  19.875   8.864
  930POPC   GL214882  43.028  19.673   8.864
  930POPC   C1A14883  43.131  19.879   8.564
  930POPC   D2A14884  43.084  19.820   8.264
  930POPC   C3A14885  43.159  19.785   7.964
  930POPC   C4A14886  43.154  19.849   7.664
  930POPC   C1B14887  43.006  19.566   8.564
  930POPC   C2B14888  42.999  19.566   8.264
  930POPC   C3B14889  42.995  19.629   7.964
  930POPC   C4B14890  43.017  19.614   7.664
  931POPC   NC314891  33.763  11.318   9.464
  931POPC   PO414892  33.844  11.258   9.164
  931POPC   GL114893  33.835  11.294   8.864
  931POPC   GL214894  33.871  11.342   8.864
  931POPC   C1A14895  33.792  11.337   8.564
  931POPC   D2A14896  33.814  11.297   8.264
  931POPC   C3A14897  33.785  11.280   7.964
  931POPC   C4A14898  33.801  11.325   7.664
  931POPC   C1B14899  34.057  11.416   8.564
  931POPC   C2B14900  34.076  11.385   8.264
  931POPC   C3B14901  34.033  11.435   7.964
  931POPC   C4B14902  34.028  11.431   7.664
  932POPC   NC314903  37.708  14.396   9.464
  932POPC   PO414904  37.703  14.408   9.164
  932POPC   GL114905  37.725  14.380   8.864
  932POPC   GL214906  37.736  14.310   8.864
  932POPC   C1A14907  37.688  14.402   8.564
  932POPC   D2A14908  37.700  14.361   8.264
  932POPC   C3A14909  37.729  14.364   7.964
  932POPC   C4A14910  37.633  14.424   7.664
  932POPC   C1B14911  37.794  14.193   8.564
  932POPC   C2B14912  37.797  14.223   8.264
  932POPC   C3B14913  37.797  14.156   7.964
  932POPC   C4B14914  37.857  14.210   7.664
  933POPC   NC314915   7.468  22.211   9.464
  933POPC   PO414916   7.399  22.182   9.164
  933POPC   GL114917   7.459  22.115   8.864
  933POPC   GL214918   7.581  22.188   8.864
  933POPC   C1A14919   7.454  22.207   8.564
  933POPC   D2A14920   7.373  22.161   8.264
  933POPC   C3A14921   7.453  22.150   7.964
  933POPC   C4A14922   7.430  22.161   7.664
  933POPC   C1B14923   7.652  22.143   8.564
  933POPC   C2B14924   7.638  22.142   8.264
  933POPC   C3B14925   7.678  22.180   7.964
  933POPC   C4B14926   7.695  22.131   7.664
  934POPC   NC314927  40.758   7.392   9.464
  934POPC   PO414928  40.749   7.375   9.164
  934POPC   GL114929  40.814   7.403   8.864
  934POPC   GL214930  40.682   7.437   8.864
  934POPC   C1A14931  40.769   7.458   8.564
  934POPC   D2A14932  40.799   7.411   8.264
  934POPC   C3A14933  40.817   7.416   7.964
  934POPC   C4A14934  40.830   7.448   7.664
  934POPC   C1B14935  40.501   7.344   8.564
  934POPC   C2B14936  40.516   7.364   8.264
  934POPC   C3B14937  40.580   7.373   7.964
  934POPC   C4B14938  40.549   7.345   7.664
  935POPC   NC314939   9.746   4.353   9.464
  935POPC   PO414940   9.760   4.306   9.164
  935POPC   GL114941   9.715   4.352   8.864
  935POPC   GL214942   9.721   4.156   8.864
  935POPC   C1A14943   9.720   4.296   8.564
  935POPC   D2A14944   9.749   4.318   8.264
  935POPC   C3A14945   9.701   4.345   7.964
  935POPC   C4A14946   9.730   4.342   7.664
  935POPC   C1B14947   9.764   4.087   8.564
  935POPC   C2B14948   9.786   4.030   8.264
  935POPC   C3B14949   9.829   4.033   7.964
  935POPC   C4B14950   9.764   4.069   7.664
  936POPC   NC314951  18.239  16.756   9.464
  936POPC   PO414952  18.301  16.707   9.164
  936POPC   GL114953  18.244  16.747   8.864
  936POPC   GL214954  18.180  16.701   8.864
  936POPC   C1A14955  18.262  16.688   8.564
  936POPC   D2A14956  18.276  16.773   8.264
  936POPC   C3A14957  18.326  16.685   7.964
  936POPC   C4A14958  18.243  16.746   7.664
  936POPC   C1B14959  18.068  16.709   8.564
  936POPC   C2B14960  18.034  16.730   8.264
  936POPC   C3B14961  18.045  16.716   7.964
  936POPC   C4B14962  18.024  16.703   7.664
  937POPC   NC314963  12.125   3.551   9.464
  937POPC   PO414964  12.125   3.554   9.164
  937POPC   GL114965  12.075   3.497   8.864
  937POPC   GL214966  11.989   3.449   8.864
  937POPC   C1A14967  12.067   3.524   8.564
  937POPC   D2A14968  12.117   3.562   8.264
  937POPC   C3A14969  12.115   3.567   7.964
  937POPC   C4A14970  12.027   3.512   7.664
  937POPC   C1B14971  11.938   3.271   8.564
  937POPC   C2B14972  11.971   3.341   8.264
  937POPC   C3B14973  11.970   3.298   7.964
  937POPC   C4B14974  11.992   3.327   7.664
  938POPC   NC314975  44.640  20.582   9.464
  938POPC   PO414976  44.639  20.633   9.164
  938POPC   GL114977  44.689  20.624   8.864
  938POPC   GL214978  44.809  20.569   8.864
  938POPC   C1A14979  44.700  20.629   8.564
  938POPC   D2A14980  44.703  20.589   8.264
  938POPC   C3A14981  44.668  20.615   7.964
  938POPC   C4A14982  44.694  20.629   7.664
  938POPC   C1B14983  44.886  20.487   8.564
  938POPC   C2B14984  44.864  20.481   8.264
  938POPC   C3B14985  44.843  20.510   7.964
  938POPC   C4B14986  44.934  20.497   7.664
  939POPC   NC314987   9.754  39.280   9.464
  939POPC   PO414988   9.723  39.273   9.164
  939POPC   GL114989   9.796  39.218   8.864
  939POPC   GL214990   9.894  39.337   8.864
  939POPC   C1A14991   9.757  39.232   8.564
  939POPC   D2A14992   9.753  39.197   8.264
  939POPC   C3A14993   9.743  39.187   7.964
  939POPC   C4A14994   9.744  39.203   7.664
  939POPC   C1B14995   9.964  39.365   8.564
  939POPC   C2B14996   9.921  39.396   8.264
  939POPC   C3B14997   9.939  39.337   7.964
  939POPC   C4B14998   9.922  39.430   7.664
  940POPC   NC314999  17.507  23.665   9.464
  940POPC   PO415000  17.504  23.674   9.164
  940POPC   GL115001  17.475  23.692   8.864
  940POPC   GL215002  17.426  23.723   8.864
  940POPC   C1A15003  17.464  23.683   8.564
  940POPC   D2A15004  17.490  23.730   8.264
  940POPC   C3A15005  17.498  23.730   7.964
  940POPC   C4A15006  17.543  23.691   7.664
  940POPC   C1B15007  17.228  23.624   8.564
  940POPC   C2B15008  17.236  23.712   8.264
  940POPC   C3B15009  17.280  23.693   7.964
  940POPC   C4B15010  17.237  23.670   7.664
  941POPC   NC315011  26.857  17.470   9.464
  941POPC   PO415012  26.772  17.529   9.164
  941POPC   GL115013  26.797  17.545   8.864
  941POPC   GL215014  26.842  17.649   8.864
  941POPC   C1A15015  26.849  17.471   8.564
  941POPC   D2A15016  26.785  17.534   8.264
  941POPC   C3A15017  26.849  17.491   7.964
  941POPC   C4A15018  26.859  17.516   7.664
  941POPC   C1B15019  26.956  17.714   8.564
  941POPC   C2B15020  26.971  17.734   8.264
  941POPC   C3B15021  26.969  17.709   7.964
  941POPC   C4B15022  26.917  17.715   7.664
  942POPC   NC315023  18.303   5.864   9.464
  942POPC   PO415024  18.243   5.830   9.164
  942POPC   GL115025  18.245   5.848   8.864
  942POPC   GL215026  18.123   5.962   8.864
  942POPC   C1A15027  18.302   5.900   8.564
  942POPC   D2A15028  18.252   5.890   8.264
  942POPC   C3A15029  18.266   5.851   7.964
  942POPC   C4A15030  18.298   5.872   7.664
  942POPC   C1B15031  18.075   6.027   8.564
  942POPC   C2B15032  18.070   5.964   8.264
  942POPC   C3B15033  18.085   5.951   7.964
  942POPC   C4B15034  18.030   6.007   7.664
  943POPC   NC315035  12.810   7.448   9.464
  943POPC   PO415036  12.870   7.411   9.164
  943POPC   GL115037  12.894   7.375   8.864
  943POPC   GL215038  12.799   7.328   8.864
  943POPC   C1A15039  12.891   7.390   8.564
  943POPC   D2A15040  12.899   7.413   8.264
  943POPC   C3A15041  12.849   7.460   7.964
  943POPC   C4A15042  12.848   7.401   7.664
  943POPC   C1B15043  12.688   7.216   8.564
  943POPC   C2B15044  12.645   7.189   8.264
  943POPC   C3B15045  12.640   7.199   7.964
  943POPC   C4B15046  12.727   7.268   7.664
  944POPC   NC315047  12.842  34.610   9.464
  944POPC   PO415048  12.814  34.596   9.164
  944POPC   GL115049  12.851  34.533   8.864
  944POPC   GL215050  13.009  34.635   8.864
  944POPC   C1A15051  12.900  34.570   8.564
  944POPC   D2A15052  12.812  34.573   8.264
  944POPC   C3A15053  12.807  34.567   7.964
  944POPC   C4A15054  12.866  34.573   7.664
  944POPC   C1B15055  13.095  34.615   8.564
  944POPC   C2B15056  13.118  34.650   8.264
  944POPC   C3B15057  13.114  34.668   7.964
  944POPC   C4B15058  13.097  34.702   7.664
  945POPC   NC315059  23.745  19.875   9.464
  945POPC   PO415060  23.686  19.833   9.164
  945POPC   GL115061  23.708  19.796   8.864
  945POPC   GL215062  23.541  19.844   8.864
  945POPC   C1A15063  23.674  19.812   8.564
  945POPC   D2A15064  23.702  19.798   8.264
  945POPC   C3A15065  23.685  19.852   7.964
  945POPC   C4A15066  23.716  19.883   7.664
  945POPC   C1B15067  23.439  19.828   8.564
  945POPC   C2B15068  23.423  19.837   8.264
  945POPC   C3B15069  23.436  19.825   7.964
  945POPC   C4B15070  23.457  19.860   7.664
  946POPC   NC315071   9.771  27.638   9.464
  946POPC   PO415072   9.756  27.544   9.164
  946POPC   GL115073   9.793  27.598   8.864
  946POPC   GL215074   9.636  27.508   8.864
  946POPC   C1A15075   9.718  27.563   8.564
  946POPC   D2A15076   9.726  27.550   8.264
  946POPC   C3A15077   9.759  27.626   7.964
  946POPC   C4A15078   9.756  27.604   7.664
  946POPC   C1B15079   9.579  27.442   8.564
  946POPC   C2B15080   9.547  27.397   8.264
  946POPC   C3B15081   9.537  27.481   7.964
  946POPC   C4B15082   9.550  27.421   7.664
  947POPC   NC315083  11.280  38.471   9.464
  947POPC   PO415084  11.326  38.504   9.164
  947POPC   GL115085  11.337  38.428   8.864
  947POPC   GL215086  11.386  38.461   8.864
  947POPC   C1A15087  11.271  38.483   8.564
  947POPC   D2A15088  11.254  38.503   8.264
  947POPC   C3A15089  11.343  38.473   7.964
  947POPC   C4A15090  11.330  38.455   7.664
  947POPC   C1B15091  11.518  38.467   8.564
  947POPC   C2B15092  11.526  38.446   8.264
  947POPC   C3B15093  11.571  38.449   7.964
  947POPC   C4B15094  11.594  38.418   7.664
  948POPC   NC315095  10.483  41.565   9.464
  948POPC   PO415096  10.572  41.606   9.164
  948POPC   GL115097  10.485  41.520   8.864
  948POPC   GL215098  10.539  41.407   8.864
  948POPC   C1A15099  10.492  41.567   8.564
  948POPC   D2A15100  10.562  41.553   8.264
  948POPC   C3A15101  10.538  41.538   7.964
  948POPC   C4A15102  10.515  41.585   7.664
  948POPC   C1B15103  10.587  41.315   8.564
  948POPC   C2B15104  10.535  41.319   8.264
  948POPC   C3B15105  10.555  41.351   7.964
  948POPC   C4B15106  10.564  41.298   7.664
  949POPC   NC315107  12.056   5.142   9.464
  949POPC   PO415108  12.074   5.063   9.164
  949POPC   GL115109  12.082   5.125   8.864
  949POPC   GL215110  12.179   5.076   8.864
  949POPC   C1A15111  12.043   5.083   8.564
  949POPC   D2A15112  12.061   5.081   8.264
  949POPC   C3A15113  12.027   5.135   7.964
  949POPC   C4A15114  12.069   5.057   7.664
  949POPC   C1B15115  12.323   5.001   8.564
  949POPC   C2B15116  12.261   5.030   8.264
  949POPC   C3B15117  12.283   5.002   7.964
  949POPC   C4B15118  12.349   5.014   7.664
  950POPC   NC315119  33.042  16.001   9.464
  950POPC   PO415120  32.987  15.950   9.164
  950POPC   GL115121  33.066  15.946   8.864
  950POPC   GL215122  33.007  15.864   8.864
  950POPC   C1A15123  33.058  15.910   8.564
  950POPC   D2A15124  33.046  15.977   8.264
  950POPC   C3A15125  33.067  15.963   7.964
  950POPC   C4A15126  32.976  15.943   7.664
  950POPC   C1B15127  32.987  15.698   8.564
  950POPC   C2B15128  32.971  15.721   8.264
  950POPC   C3B15129  33.022  15.676   7.964
  950POPC   C4B15130  33.008  15.674   7.664
  951POPC   NC315131  27.583  13.669   9.464
  951POPC   PO415132  27.580  13.605   9.164
  951POPC   GL115133  27.554  13.643   8.864
  951POPC   GL215134  27.515  13.713   8.864
  951POPC   C1A15135  27.598  13.648   8.564
  951POPC   D2A15136  27.621  13.636   8.264
  951POPC   C3A15137  27.627  13.596   7.964
  951POPC   C4A15138  27.618  13.634   7.664
  951POPC   C1B15139  27.466  13.869   8.564
  951POPC   C2B15140  27.523  13.810   8.264
  951POPC   C3B15141  27.507  13.882   7.964
  951POPC   C4B15142  27.539  13.901   7.664
  952POPC   NC315143  15.156   7.436   9.464
  952POPC   PO415144  15.228   7.451   9.164
  952POPC   GL115145  15.187   7.441   8.864
  952POPC   GL215146  15.266   7.502   8.864
  952POPC   C1A15147  15.145   7.424   8.564
  952POPC   D2A15148  15.136   7.437   8.264
  952POPC   C3A15149  15.136   7.397   7.964
  952POPC   C4A15150  15.201   7.380   7.664
  952POPC   C1B15151  15.344   7.594   8.564
  952POPC   C2B15152  15.340   7.642   8.264
  952POPC   C3B15153  15.331   7.615   7.964
  952POPC   C4B15154  15.363   7.564   7.664
  953POPC   NC315155  23.718  22.924   9.464
  953POPC   PO415156  23.749  22.904   9.164
  953POPC   GL115157  23.703  22.935   8.864
  953POPC   GL215158  23.615  22.957   8.864
  953POPC   C1A15159  23.742  22.932   8.564
  953POPC   D2A15160  23.707  22.901   8.264
  953POPC   C3A15161  23.727  22.899   7.964
  953POPC   C4A15162  23.692  22.971   7.664
  953POPC   C1B15163  23.515  22.867   8.564
  953POPC   C2B15164  23.421  22.878   8.264
  953POPC   C3B15165  23.444  22.894   7.964
  953POPC   C4B15166  23.453  22.899   7.664
  954POPC   NC315167  31.504   2.022   9.464
  954POPC   PO415168  31.488   2.015   9.164
  954POPC   GL115169  31.452   2.011   8.864
  954POPC   GL215170  31.588   1.890   8.864
  954POPC   C1A15171  31.486   1.993   8.564
  954POPC   D2A15172  31.514   1.992   8.264
  954POPC   C3A15173  31.498   1.954   7.964
  954POPC   C4A15174  31.452   2.005   7.664
  954POPC   C1B15175  31.649   1.793   8.564
  954POPC   C2B15176  31.665   1.883   8.264
  954POPC   C3B15177  31.656   1.812   7.964
  954POPC   C4B15178  31.689   1.857   7.664
  955POPC   NC315179  18.292  43.894   9.464
  955POPC   PO415180  18.304  43.872   9.164
  955POPC   GL115181  18.246  43.919   8.864
  955POPC   GL215182  18.306  43.981   8.864
  955POPC   C1A15183  18.262  43.910   8.564
  955POPC   D2A15184  18.321  43.912   8.264
  955POPC   C3A15185  18.298  43.876   7.964
  955POPC   C4A15186  18.315  43.853   7.664
  955POPC   C1B15187  18.286  44.177   8.564
  955POPC   C2B15188  18.221  44.116   8.264
  955POPC   C3B15189  18.274  44.172   7.964
  955POPC   C4B15190  18.201  44.134   7.664
  956POPC   NC315191  36.871  38.478   9.464
  956POPC   PO415192  36.894  38.475   9.164
  956POPC   GL115193  36.945  38.433   8.864
  956POPC   GL215194  36.999  38.364   8.864
  956POPC   C1A15195  36.912  38.482   8.564
  956POPC   D2A15196  36.903  38.450   8.264
  956POPC   C3A15197  36.918  38.475   7.964
  956POPC   C4A15198  36.876  38.471   7.664
  956POPC   C1B15199  37.169  38.406   8.564
  956POPC   C2B15200  37.182  38.401   8.264
  956POPC   C3B15201  37.180  38.390   7.964
  956POPC   C4B15202  37.170  38.390   7.664
  957POPC   NC315203   8.959   3.590   9.464
  957POPC   PO415204   8.945   3.556   9.164
  957POPC   GL115205   9.014   3.557   8.864
  957POPC   GL215206   8.849   3.625   8.864
  957POPC   C1A15207   8.988   3.547   8.564
  957POPC   D2A15208   9.018   3.580   8.264
  957POPC   C3A15209   9.011   3.539   7.964
  957POPC   C4A15210   8.948   3.576   7.664
  957POPC   C1B15211   8.701   3.593   8.564
  957POPC   C2B15212   8.743   3.656   8.264
  957POPC   C3B15213   8.776   3.598   7.964
  957POPC   C4B15214   8.773   3.564   7.664
  958POPC   NC315215  26.770   9.717   9.464
  958POPC   PO415216  26.842   9.720   9.164
  958POPC   GL115217  26.816   9.783   8.864
  958POPC   GL215218  26.854   9.667   8.864
  958POPC   C1A15219  26.851   9.784   8.564
  958POPC   D2A15220  26.813   9.738   8.264
  958POPC   C3A15221  26.842   9.733   7.964
  958POPC   C4A15222  26.807   9.759   7.664
  958POPC   C1B15223  27.027   9.593   8.564
  958POPC   C2B15224  26.956   9.575   8.264
  958POPC   C3B15225  27.011   9.540   7.964
  958POPC   C4B15226  26.969   9.531   7.664
  959POPC   NC315227  15.148  20.572   9.464
  959POPC   PO415228  15.224  20.600   9.164
  959POPC   GL115229  15.161  20.656   8.864
  959POPC   GL215230  15.228  20.748   8.864
  959POPC   C1A15231  15.214  20.575   8.564
  959POPC   D2A15232  15.133  20.632   8.264
  959POPC   C3A15233  15.149  20.591   7.964
  959POPC   C4A15234  15.185  20.619   7.664
  959POPC   C1B15235  15.259  20.849   8.564
  959POPC   C2B15236  15.279  20.800   8.264
  959POPC   C3B15237  15.270  20.830   7.964
  959POPC   C4B15238  15.265  20.878   7.664
  960POPC   NC315239  17.554  11.331   9.464
  960POPC   PO415240  17.467  11.255   9.164
  960POPC   GL115241  17.459  11.335   8.864
  960POPC   GL215242  17.567  11.417   8.864
  960POPC   C1A15243  17.502  11.334   8.564
  960POPC   D2A15244  17.489  11.344   8.264
  960POPC   C3A15245  17.537  11.319   7.964
  960POPC   C4A15246  17.534  11.286   7.664
  960POPC   C1B15247  17.555  11.526   8.564
  960POPC   C2B15248  17.551  11.509   8.264
  960POPC   C3B15249  17.514  11.519   7.964
  960POPC   C4B15250  17.503  11.574   7.664
  961POPC   NC315251  22.124  33.073   9.464
  961POPC   PO415252  22.200  32.998   9.164
  961POPC   GL115253  22.137  33.031   8.864
  961POPC   GL215254  22.070  33.004   8.864
  961POPC   C1A15255  22.161  33.052   8.564
  961POPC   D2A15256  22.189  33.025   8.264
  961POPC   C3A15257  22.194  32.977   7.964
  961POPC   C4A15258  22.162  33.026   7.664
  961POPC   C1B15259  21.947  32.914   8.564
  961POPC   C2B15260  21.924  32.907   8.264
  961POPC   C3B15261  21.918  32.898   7.964
  961POPC   C4B15262  21.944  32.862   7.664
  962POPC   NC315263  32.264  19.827   9.464
  962POPC   PO415264  32.295  19.802   9.164
  962POPC   GL115265  32.206  19.804   8.864
  962POPC   GL215266  32.195  19.751   8.864
  962POPC   C1A15267  32.223  19.867   8.564
  962POPC   D2A15268  32.264  19.821   8.264
  962POPC   C3A15269  32.283  19.786   7.964
  962POPC   C4A15270  32.212  19.788   7.664
  962POPC   C1B15271  32.050  19.705   8.564
  962POPC   C2B15272  32.070  19.728   8.264
  962POPC   C3B15273  32.017  19.660   7.964
  962POPC   C4B15274  32.045  19.658   7.664
  963POPC   NC315275  26.088  15.980   9.464
  963POPC   PO415276  26.001  15.978   9.164
  963POPC   GL115277  26.061  15.945   8.864
  963POPC   GL215278  26.069  15.865   8.864
  963POPC   C1A15279  26.011  15.911   8.564
  963POPC   D2A15280  26.000  15.950   8.264
  963POPC   C3A15281  26.045  15.930   7.964
  963POPC   C4A15282  26.064  15.976   7.664
  963POPC   C1B15283  26.120  15.747   8.564
  963POPC   C2B15284  26.089  15.691   8.264
  963POPC   C3B15285  26.100  15.703   7.964
  963POPC   C4B15286  26.130  15.720   7.664
  964POPC   NC315287  33.020  29.104   9.464
  964POPC   PO415288  33.069  29.126   9.164
  964POPC   GL115289  33.074  29.142   8.864
  964POPC   GL215290  33.081  29.230   8.864
  964POPC   C1A15291  32.997  29.194   8.564
  964POPC   D2A15292  32.993  29.101   8.264
  964POPC   C3A15293  33.057  29.111   7.964
  964POPC   C4A15294  32.981  29.115   7.664
  964POPC   C1B15295  33.142  29.287   8.564
  964POPC   C2B15296  33.209  29.313   8.264
  964POPC   C3B15297  33.198  29.312   7.964
  964POPC   C4B15298  33.180  29.368   7.664
  965POPC   NC315299  27.632  25.315   9.464
  965POPC   PO415300  27.557  25.257   9.164
  965POPC   GL115301  27.595  25.236   8.864
  965POPC   GL215302  27.668  25.402   8.864
  965POPC   C1A15303  27.564  25.216   8.564
  965POPC   D2A15304  27.605  25.282   8.264
  965POPC   C3A15305  27.600  25.262   7.964
  965POPC   C4A15306  27.587  25.268   7.664
  965POPC   C1B15307  27.645  25.478   8.564
  965POPC   C2B15308  27.606  25.499   8.264
  965POPC   C3B15309  27.650  25.477   7.964
  965POPC   C4B15310  27.639  25.539   7.664
  966POPC   NC315311  32.995  36.171   9.464
  966POPC   PO415312  33.074  36.157   9.164
  966POPC   GL115313  33.021  36.092   8.864
  966POPC   GL215314  32.897  35.986   8.864
  966POPC   C1A15315  33.027  36.172   8.564
  966POPC   D2A15316  33.001  36.125   8.264
  966POPC   C3A15317  32.981  36.152   7.964
  966POPC   C4A15318  33.028  36.090   7.664
  966POPC   C1B15319  32.823  35.952   8.564
  966POPC   C2B15320  32.817  35.936   8.264
  966POPC   C3B15321  32.894  35.926   7.964
  966POPC   C4B15322  32.876  35.937   7.664
  967POPC   NC315323   0.428  43.085   9.464
  967POPC   PO415324   0.451  43.096   9.164
  967POPC   GL115325   0.476  43.113   8.864
  967POPC   GL215326   0.470  43.196   8.864
  967POPC   C1A15327   0.427  43.115   8.564
  967POPC   D2A15328   0.466  43.128   8.264
  967POPC   C3A15329   0.451  43.100   7.964
  967POPC   C4A15330   0.420  43.143   7.664
  967POPC   C1B15331   0.437  43.387   8.564
  967POPC   C2B15332   0.448  43.383   8.264
  967POPC   C3B15333   0.444  43.326   7.964
  967POPC   C4B15334   0.483  43.398   7.664
  968POPC   NC315335  22.958  21.374   9.464
  968POPC   PO415336  22.921  21.413   9.164
  968POPC   GL115337  22.953  21.391   8.864
  968POPC   GL215338  22.949  21.501   8.864
  968POPC   C1A15339  22.955  21.417   8.564
  968POPC   D2A15340  22.893  21.385   8.264
  968POPC   C3A15341  22.910  21.337   7.964
  968POPC   C4A15342  22.897  21.412   7.664
  968POPC   C1B15343  23.035  21.588   8.564
  968POPC   C2B15344  22.985  21.675   8.264
  968POPC   C3B15345  22.961  21.620   7.964
  968POPC   C4B15346  23.036  21.665   7.664
  969POPC   NC315347   4.289  32.997   9.464
  969POPC   PO415348   4.331  33.068   9.164
  969POPC   GL115349   4.318  33.068   8.864
  969POPC   GL215350   4.219  33.084   8.864
  969POPC   C1A15351   4.353  32.979   8.564
  969POPC   D2A15352   4.348  33.048   8.264
  969POPC   C3A15353   4.314  33.035   7.964
  969POPC   C4A15354   4.278  33.053   7.664
  969POPC   C1B15355   4.159  33.176   8.564
  969POPC   C2B15356   4.150  33.156   8.264
  969POPC   C3B15357   4.121  33.181   7.964
  969POPC   C4B15358   4.136  33.184   7.664
  970POPC   NC315359  17.553  26.792   9.464
  970POPC   PO415360  17.503  26.797   9.164
  970POPC   GL115361  17.537  26.789   8.864
  970POPC   GL215362  17.597  26.896   8.864
  970POPC   C1A15363  17.510  26.775   8.564
  970POPC   D2A15364  17.533  26.815   8.264
  970POPC   C3A15365  17.549  26.856   7.964
  970POPC   C4A15366  17.472  26.867   7.664
  970POPC   C1B15367  17.646  27.025   8.564
  970POPC   C2B15368  17.709  27.014   8.264
  970POPC   C3B15369  17.671  26.955   7.964
  970POPC   C4B15370  17.703  27.011   7.664
  971POPC   NC315371  14.422  25.216   9.464
  971POPC   PO415372  14.410  25.261   9.164
  971POPC   GL115373  14.402  25.248   8.864
  971POPC   GL215374  14.421  25.105   8.864
  971POPC   C1A15375  14.437  25.278   8.564
  971POPC   D2A15376  14.426  25.284   8.264
  971POPC   C3A15377  14.404  25.232   7.964
  971POPC   C4A15378  14.437  25.291   7.664
  971POPC   C1B15379  14.343  24.977   8.564
  971POPC   C2B15380  14.370  25.045   8.264
  971POPC   C3B15381  14.325  24.973   7.964
  971POPC   C4B15382  14.366  25.042   7.664
  972POPC   NC315383  29.131  34.587   9.464
  972POPC   PO415384  29.109  34.553   9.164
  972POPC   GL115385  29.156  34.612   8.864
  972POPC   GL215386  29.228  34.519   8.864
  972POPC   C1A15387  29.114  34.607   8.564
  972POPC   D2A15388  29.134  34.531   8.264
  972POPC   C3A15389  29.179  34.598   7.964
  972POPC   C4A15390  29.170  34.528   7.664
  972POPC   C1B15391  29.334  34.392   8.564
  972POPC   C2B15392  29.305  34.371   8.264
  972POPC   C3B15393  29.287  34.363   7.964
  972POPC   C4B15394  29.331  34.359   7.664
  973POPC   NC315395  29.965  35.329   9.464
  973POPC   PO415396  29.878  35.392   9.164
  973POPC   GL115397  29.915  35.369   8.864
  973POPC   GL215398  29.966  35.510   8.864
  973POPC   C1A15399  29.907  35.319   8.564
  973POPC   D2A15400  29.967  35.306   8.264
  973POPC   C3A15401  29.955  35.316   7.964
  973POPC   C4A15402  29.909  35.305   7.664
  973POPC   C1B15403  29.997  35.531   8.564
  973POPC   C2B15404  30.073  35.585   8.264
  973POPC   C3B15405  30.060  35.604   7.964
  973POPC   C4B15406  30.080  35.527   7.664
  974POPC   NC315407  29.114  23.672   9.464
  974POPC   PO415408  29.143  23.739   9.164
  974POPC   GL115409  29.155  23.739   8.864
  974POPC   GL215410  29.063  23.682   8.864
  974POPC   C1A15411  29.112  23.756   8.564
  974POPC   D2A15412  29.113  23.753   8.264
  974POPC   C3A15413  29.179  23.675   7.964
  974POPC   C4A15414  29.171  23.673   7.664
  974POPC   C1B15415  28.880  23.632   8.564
  974POPC   C2B15416  28.911  23.685   8.264
  974POPC   C3B15417  28.851  23.654   7.964
  974POPC   C4B15418  28.927  23.681   7.664
  975POPC   NC315419  34.540  39.968   9.464
  975POPC   PO415420  34.532  40.011   9.164
  975POPC   GL115421  34.552  39.979   8.864
  975POPC   GL215422  34.645  39.889   8.864
  975POPC   C1A15423  34.534  39.968   8.564
  975POPC   D2A15424  34.567  39.990   8.264
  975POPC   C3A15425  34.565  40.023   7.964
  975POPC   C4A15426  34.597  40.018   7.664
  975POPC   C1B15427  34.691  39.781   8.564
  975POPC   C2B15428  34.660  39.796   8.264
  975POPC   C3B15429  34.612  39.804   7.964
  975POPC   C4B15430  34.646  39.724   7.664
  976POPC   NC315431  43.103  32.244   9.464
  976POPC   PO415432  43.119  32.270   9.164
  976POPC   GL115433  43.089  32.246   8.864
  976POPC   GL215434  43.203  32.255   8.864
  976POPC   C1A15435  43.102  32.221   8.564
  976POPC   D2A15436  43.091  32.270   8.264
  976POPC   C3A15437  43.110  32.262   7.964
  976POPC   C4A15438  43.090  32.215   7.664
  976POPC   C1B15439  43.315  32.335   8.564
  976POPC   C2B15440  43.304  32.355   8.264
  976POPC   C3B15441  43.319  32.370   7.964
  976POPC   C4B15442  43.389  32.320   7.664
  977POPC   NC315443  12.107  30.650   9.464
  977POPC   PO415444  12.047  30.671   9.164
  977POPC   GL115445  12.041  30.729   8.864
  977POPC   GL215446  12.024  30.625   8.864
  977POPC   C1A15447  12.048  30.654   8.564
  977POPC   D2A15448  12.056  30.656   8.264
  977POPC   C3A15449  12.035  30.661   7.964
  977POPC   C4A15450  12.101  30.681   7.664
  977POPC   C1B15451  11.976  30.489   8.564
  977POPC   C2B15452  12.050  30.410   8.264
  977POPC   C3B15453  12.046  30.443   7.964
  977POPC   C4B15454  12.027  30.429   7.664
  978POPC   NC315455  26.808  43.899   9.464
  978POPC   PO415456  26.825  43.871   9.164
  978POPC   GL115457  26.784  43.922   8.864
  978POPC   GL215458  26.861  43.769   8.864
  978POPC   C1A15459  26.833  43.876   8.564
  978POPC   D2A15460  26.788  43.848   8.264
  978POPC   C3A15461  26.775  43.936   7.964
  978POPC   C4A15462  26.809  43.876   7.664
  978POPC   C1B15463  26.855  43.649   8.564
  978POPC   C2B15464  26.834  43.656   8.264
  978POPC   C3B15465  26.824  43.617   7.964
  978POPC   C4B15466  26.898  43.685   7.664
  979POPC   NC315467  25.227  26.805   9.464
  979POPC   PO415468  25.304  26.842   9.164
  979POPC   GL115469  25.292  26.807   8.864
  979POPC   GL215470  25.387  26.767   8.864
  979POPC   C1A15471  25.266  26.778   8.564
  979POPC   D2A15472  25.268  26.781   8.264
  979POPC   C3A15473  25.311  26.781   7.964
  979POPC   C4A15474  25.307  26.809   7.664
  979POPC   C1B15475  25.463  26.731   8.564
  979POPC   C2B15476  25.438  26.710   8.264
  979POPC   C3B15477  25.500  26.740   7.964
  979POPC   C4B15478  25.491  26.665   7.664
  980POPC   NC315479  18.286   9.755   9.464
  980POPC   PO415480  18.297   9.733   9.164
  980POPC   GL115481  18.253   9.736   8.864
  980POPC   GL215482  18.125   9.802   8.864
  980POPC   C1A15483  18.312   9.792   8.564
  980POPC   D2A15484  18.321   9.723   8.264
  980POPC   C3A15485  18.244   9.754   7.964
  980POPC   C4A15486  18.295   9.778   7.664
  980POPC   C1B15487  17.994   9.814   8.564
  980POPC   C2B15488  18.043   9.767   8.264
  980POPC   C3B15489  18.030   9.818   7.964
  980POPC   C4B15490  18.038   9.832   7.664
  981POPC   NC315491  25.266  40.742   9.464
  981POPC   PO415492  25.231  40.766   9.164
  981POPC   GL115493  25.220  40.814   8.864
  981POPC   GL215494  25.224  40.699   8.864
  981POPC   C1A15495  25.286  40.761   8.564
  981POPC   D2A15496  25.303  40.806   8.264
  981POPC   C3A15497  25.262  40.738   7.964
  981POPC   C4A15498  25.262  40.802   7.664
  981POPC   C1B15499  25.212  40.574   8.564
  981POPC   C2B15500  25.191  40.560   8.264
  981POPC   C3B15501  25.224  40.531   7.964
  981POPC   C4B15502  25.252  40.515   7.664
  982POPC   NC315503  40.000  37.679   9.464
  982POPC   PO415504  40.036  37.659   9.164
  982POPC   GL115505  40.018  37.671   8.864
  982POPC   GL215506  39.992  37.594   8.864
  982POPC   C1A15507  39.985  37.646   8.564
  982POPC   D2A15508  39.957  37.711   8.264
  982POPC   C3A15509  39.970  37.643   7.964
  982POPC   C4A15510  40.007  37.713   7.664
  982POPC   C1B15511  40.059  37.475   8.564
  982POPC   C2B15512  40.040  37.425   8.264
  982POPC   C3B15513  40.006  37.473   7.964
  982POPC   C4B15514  40.083  37.468   7.664
  983POPC   NC315515  16.752  11.312   9.464
  983POPC   PO415516  16.750  11.276   9.164
  983POPC   GL115517  16.739  11.349   8.864
  983POPC   GL215518  16.624  11.191   8.864
  983POPC   C1A15519  16.727  11.322   8.564
  983POPC   D2A15520  16.770  11.340   8.264
  983POPC   C3A15521  16.683  11.320   7.964
  983POPC   C4A15522  16.752  11.346   7.664
  983POPC   C1B15523  16.565  11.043   8.564
  983POPC   C2B15524  16.630  11.108   8.264
  983POPC   C3B15525  16.599  11.119   7.964
  983POPC   C4B15526  16.587  11.047   7.664
  984POPC   NC315527  29.924  40.783   9.464
  984POPC   PO415528  29.891  40.788   9.164
  984POPC   GL115529  29.970  40.815   8.864
  984POPC   GL215530  30.062  40.885   8.864
  984POPC   C1A15531  29.897  40.803   8.564
  984POPC   D2A15532  29.918  40.766   8.264
  984POPC   C3A15533  29.917  40.772   7.964
  984POPC   C4A15534  29.946  40.823   7.664
  984POPC   C1B15535  30.117  40.848   8.564
  984POPC   C2B15536  30.133  40.904   8.264
  984POPC   C3B15537  30.124  40.932   7.964
  984POPC   C4B15538  30.177  40.940   7.664
  985POPC   NC315539  36.945  36.911   9.464
  985POPC   PO415540  36.925  36.883   9.164
  985POPC   GL115541  36.928  36.879   8.864
  985POPC   GL215542  36.937  36.756   8.864
  985POPC   C1A15543  36.867  36.942   8.564
  985POPC   D2A15544  36.885  36.878   8.264
  985POPC   C3A15545  36.893  36.882   7.964
  985POPC   C4A15546  36.942  36.873   7.664
  985POPC   C1B15547  36.859  36.617   8.564
  985POPC   C2B15548  36.863  36.642   8.264
  985POPC   C3B15549  36.915  36.674   7.964
  985POPC   C4B15550  36.884  36.658   7.664
  986POPC   NC315551  36.134  17.519   9.464
  986POPC   PO415552  36.155  17.537   9.164
  986POPC   GL115553  36.175  17.478   8.864
  986POPC   GL215554  36.291  17.440   8.864
  986POPC   C1A15555  36.174  17.552   8.564
  986POPC   D2A15556  36.171  17.521   8.264
  986POPC   C3A15557  36.129  17.539   7.964
  986POPC   C4A15558  36.164  17.501   7.664
  986POPC   C1B15559  36.367  17.395   8.564
  986POPC   C2B15560  36.330  17.454   8.264
  986POPC   C3B15561  36.325  17.434   7.964
  986POPC   C4B15562  36.369  17.470   7.664
  987POPC   NC315563  12.827  26.825   9.464
  987POPC   PO415564  12.831  26.832   9.164
  987POPC   GL115565  12.807  26.781   8.864
  987POPC   GL215566  12.982  26.844   8.864
  987POPC   C1A15567  12.813  26.796   8.564
  987POPC   D2A15568  12.837  26.801   8.264
  987POPC   C3A15569  12.818  26.827   7.964
  987POPC   C4A15570  12.856  26.799   7.664
  987POPC   C1B15571  13.075  26.831   8.564
  987POPC   C2B15572  13.148  26.756   8.264
  987POPC   C3B15573  13.105  26.763   7.964
  987POPC   C4B15574  13.081  26.817   7.664
  988POPC   NC315575  37.638   1.170   9.464
  988POPC   PO415576  37.686   1.248   9.164
  988POPC   GL115577  37.666   1.256   8.864
  988POPC   GL215578  37.660   1.085   8.864
  988POPC   C1A15579  37.644   1.167   8.564
  988POPC   D2A15580  37.667   1.246   8.264
  988POPC   C3A15581  37.644   1.211   7.964
  988POPC   C4A15582  37.694   1.172   7.664
  988POPC   C1B15583  37.644   0.993   8.564
  988POPC   C2B15584  37.596   0.932   8.264
  988POPC   C3B15585  37.555   0.991   7.964
  988POPC   C4B15586  37.609   0.962   7.664
  989POPC   NC315587  32.228  21.338   9.464
  989POPC   PO415588  32.281  21.380   9.164
  989POPC   GL115589  32.272  21.373   8.864
  989POPC   GL215590  32.399  21.359   8.864
  989POPC   C1A15591  32.241  21.426   8.564
  989POPC   D2A15592  32.242  21.423   8.264
  989POPC   C3A15593  32.207  21.346   7.964
  989POPC   C4A15594  32.268  21.390   7.664
  989POPC   C1B15595  32.445  21.289   8.564
  989POPC   C2B15596  32.449  21.279   8.264
  989POPC   C3B15597  32.480  21.238   7.964
  989POPC   C4B15598  32.416  21.278   7.664
  990POPC   NC315599  13.586  40.033   9.464
  990POPC   PO415600  13.624  40.039   9.164
  990POPC   GL115601  13.620  39.975   8.864
  990POPC   GL215602  13.732  39.960   8.864
  990POPC   C1A15603  13.670  40.026   8.564
  990POPC   D2A15604  13.597  39.974   8.264
  990POPC   C3A15605  13.657  40.037   7.964
  990POPC   C4A15606  13.657  39.971   7.664
  990POPC   C1B15607  13.852  39.871   8.564
  990POPC   C2B15608  13.856  39.886   8.264
  990POPC   C3B15609  13.819  39.810   7.964
  990POPC   C4B15610  13.778  39.876   7.664
  991POPC   NC315611  21.415  13.621   9.464
  991POPC   PO415612  21.428  13.640   9.164
  991POPC   GL115613  21.353  13.662   8.864
  991POPC   GL215614  21.217  13.632   8.864
  991POPC   C1A15615  21.419  13.646   8.564
  991POPC   D2A15616  21.423  13.597   8.264
  991POPC   C3A15617  21.429  13.644   7.964
  991POPC   C4A15618  21.378  13.664   7.664
  991POPC   C1B15619  21.131  13.533   8.564
  991POPC   C2B15620  21.186  13.599   8.264
  991POPC   C3B15621  21.186  13.542   7.964
  991POPC   C4B15622  21.179  13.625   7.664
  992POPC   NC315623  26.019  27.568   9.464
  992POPC   PO415624  26.056  27.567   9.164
  992POPC   GL115625  26.027  27.615   8.864
  992POPC   GL215626  25.897  27.674   8.864
  992POPC   C1A15627  26.057  27.576   8.564
  992POPC   D2A15628  26.080  27.612   8.264
  992POPC   C3A15629  26.055  27.562   7.964
  992POPC   C4A15630  26.048  27.604   7.664
  992POPC   C1B15631  25.763  27.631   8.564
  992POPC   C2B15632  25.823  27.654   8.264
  992POPC   C3B15633  25.835  27.640   7.964
  992POPC   C4B15634  25.775  27.667   7.664
  993POPC   NC315635  19.017  18.256   9.464
  993POPC   PO415636  19.036  18.255   9.164
  993POPC   GL115637  19.034  18.262   8.864
  993POPC   GL215638  19.121  18.405   8.864
  993POPC   C1A15639  19.049  18.247   8.564
  993POPC   D2A15640  19.092  18.324   8.264
  993POPC   C3A15641  19.044  18.237   7.964
  993POPC   C4A15642  19.023  18.319   7.664
  993POPC   C1B15643  19.082  18.488   8.564
  993POPC   C2B15644  19.108  18.544   8.264
  993POPC   C3B15645  19.131  18.536   7.964
  993POPC   C4B15646  19.134  18.533   7.664
  994POPC   NC315647  36.857  12.838   9.464
  994POPC   PO415648  36.868  12.896   9.164
  994POPC   GL115649  36.947  12.881   8.864
  994POPC   GL215650  36.745  12.859   8.864
  994POPC   C1A15651  36.876  12.835   8.564
  994POPC   D2A15652  36.923  12.863   8.264
  994POPC   C3A15653  36.913  12.865   7.964
  994POPC   C4A15654  36.864  12.856   7.664
  994POPC   C1B15655  36.621  12.864   8.564
  994POPC   C2B15656  36.664  12.884   8.264
  994POPC   C3B15657  36.661  12.918   7.964
  994POPC   C4B15658  36.617  12.921   7.664
  995POPC   NC315659  36.892  16.701   9.464
  995POPC   PO415660  36.889  16.732   9.164
  995POPC   GL115661  36.905  16.745   8.864
  995POPC   GL215662  36.888  16.630   8.864
  995POPC   C1A15663  36.886  16.768   8.564
  995POPC   D2A15664  36.928  16.780   8.264
  995POPC   C3A15665  36.914  16.730   7.964
  995POPC   C4A15666  36.926  16.760   7.664
  995POPC   C1B15667  36.772  16.532   8.564
  995POPC   C2B15668  36.779  16.544   8.264
  995POPC   C3B15669  36.728  16.475   7.964
  995POPC   C4B15670  36.759  16.544   7.664
  996POPC   NC315671   5.851  39.251   9.464
  996POPC   PO415672   5.875  39.199   9.164
  996POPC   GL115673   5.857  39.230   8.864
  996POPC   GL215674   5.961  39.131   8.864
  996POPC   C1A15675   5.852  39.200   8.564
  996POPC   D2A15676   5.874  39.260   8.264
  996POPC   C3A15677   5.847  39.200   7.964
  996POPC   C4A15678   5.853  39.216   7.664
  996POPC   C1B15679   6.038  39.035   8.564
  996POPC   C2B15680   6.043  39.064   8.264
  996POPC   C3B15681   6.043  38.974   7.964
  996POPC   C4B15682   6.004  39.052   7.664
  997POPC   NC315683  31.500  35.350   9.464
  997POPC   PO415684  31.433  35.400   9.164
  997POPC   GL115685  31.498  35.371   8.864
  997POPC   GL215686  31.466  35.515   8.864
  997POPC   C1A15687  31.471  35.374   8.564
  997POPC   D2A15688  31.453  35.391   8.264
  997POPC   C3A15689  31.507  35.306   7.964
  997POPC   C4A15690  31.464  35.376   7.664
  997POPC   C1B15691  31.485  35.552   8.564
  997POPC   C2B15692  31.486  35.580   8.264
  997POPC   C3B15693  31.464  35.577   7.964
  997POPC   C4B15694  31.533  35.649   7.664
  998POPC   NC315695  26.085  29.931   9.464
  998POPC   PO415696  26.003  29.943   9.164
  998POPC   GL115697  26.038  29.930   8.864
  998POPC   GL215698  26.060  30.034   8.864
  998POPC   C1A15699  26.057  29.950   8.564
  998POPC   D2A15700  26.024  29.928   8.264
  998POPC   C3A15701  26.077  29.911   7.964
  998POPC   C4A15702  26.044  29.893   7.664
  998POPC   C1B15703  26.090  30.169   8.564
  998POPC   C2B15704  26.062  30.138   8.264
  998POPC   C3B15705  26.123  30.204   7.964
  998POPC   C4B15706  26.071  30.203   7.664
  999POPC   NC315707  15.939  43.103   9.464
  999POPC   PO415708  15.941  43.088   9.164
  999POPC   GL115709  15.928  43.095   8.864
  999POPC   GL215710  15.905  43.253   8.864
  999POPC   C1A15711  15.934  43.098   8.564
  999POPC   D2A15712  16.000  43.091   8.264
  999POPC   C3A15713  15.944  43.086   7.964
  999POPC   C4A15714  15.940  43.069   7.664
  999POPC   C1B15715  15.957  43.332   8.564
  999POPC   C2B15716  15.988  43.340   8.264
  999POPC   C3B15717  15.973  43.358   7.964
  999POPC   C4B15718  15.947  43.397   7.664
 1000POPC   NC315719  14.389   0.426   9.464
 1000POPC   PO415720  14.407   0.407   9.164
 1000POPC   GL115721  14.382   0.411   8.864
 1000POPC   GL215722  14.399   0.605   8.864
 1000POPC   C1A15723  14.393   0.439   8.564
 1000POPC   D2A15724  14.440   0.416   8.264
 1000POPC   C3A15725  14.368   0.401   7.964
 1000POPC   C4A15726  14.382   0.441   7.664
 1000POPC   C1B15727  14.449   0.709   8.564
 1000POPC   C2B15728  14.443   0.719   8.264
 1000POPC   C3B15729  14.415   0.650   7.964
 1000POPC   C4B15730  14.432   0.730   7.664
 1001POPC   NC315731  42.381  24.460   9.464
 1001POPC   PO415732  42.317  24.443   9.164
 1001POPC   GL115733  42.345  24.519   8.864
 1001POPC   GL215734  42.390  24.411   8.864
 1001POPC   C1A15735  42.312  24.515   8.564
 1001POPC   D2A15736  42.373  24.499   8.264
 1001POPC   C3A15737  42.314  24.458   7.964
 1001POPC   C4A15738  42.350  24.447   7.664
 1001POPC   C1B15739  42.440  24.297   8.564
 1001POPC   C2B15740  42.491  24.327   8.264
 1001POPC   C3B15741  42.473  24.294   7.964
 1001POPC   C4B15742  42.457  24.324   7.664
 1002POPC   NC315743  30.647  20.617   9.464
 1002POPC   PO415744  30.656  20.573   9.164
 1002POPC   GL115745  30.680  20.647   8.864
 1002POPC   GL215746  30.697  20.511   8.864
 1002POPC   C1A15747  30.722  20.605   8.564
 1002POPC   D2A15748  30.682  20.578   8.264
 1002POPC   C3A15749  30.728  20.587   7.964
 1002POPC   C4A15750  30.746  20.617   7.664
 1002POPC   C1B15751  30.802  20.378   8.564
 1002POPC   C2B15752  30.777  20.350   8.264
 1002POPC   C3B15753  30.826  20.342   7.964
 1002POPC   C4B15754  30.804  20.396   7.664
 1003POPC   NC315755   1.166  12.815   9.464
 1003POPC   PO415756   1.213  12.816   9.164
 1003POPC   GL115757   1.192  12.856   8.864
 1003POPC   GL215758   1.070  12.770   8.864
 1003POPC   C1A15759   1.172  12.866   8.564
 1003POPC   D2A15760   1.192  12.838   8.264
 1003POPC   C3A15761   1.238  12.861   7.964
 1003POPC   C4A15762   1.230  12.897   7.664
 1003POPC   C1B15763   0.946  12.717   8.564
 1003POPC   C2B15764   0.963  12.741   8.264
 1003POPC   C3B15765   0.973  12.797   7.964
 1003POPC   C4B15766   0.973  12.765   7.664
 1004POPC   NC315767  35.360   8.943   9.464
 1004POPC   PO415768  35.339   8.974   9.164
 1004POPC   GL115769  35.384   8.961   8.864
 1004POPC   GL215770  35.379   8.843   8.864
 1004POPC   C1A15771  35.400   8.982   8.564
 1004POPC   D2A15772  35.303   8.935   8.264
 1004POPC   C3A15773  35.349   9.016   7.964
 1004POPC   C4A15774  35.379   9.010   7.664
 1004POPC   C1B15775  35.323   8.689   8.564
 1004POPC   C2B15776  35.388   8.751   8.264
 1004POPC   C3B15777  35.364   8.765   7.964
 1004POPC   C4B15778  35.408   8.674   7.664
 1005POPC   NC315779  26.002  12.900   9.464
 1005POPC   PO415780  26.004  12.811   9.164
 1005POPC   GL115781  26.016  12.892   8.864
 1005POPC   GL215782  25.993  12.775   8.864
 1005POPC   C1A15783  26.020  12.809   8.564
 1005POPC   D2A15784  26.003  12.809   8.264
 1005POPC   C3A15785  26.069  12.862   7.964
 1005POPC   C4A15786  26.041  12.871   7.664
 1005POPC   C1B15787  25.960  12.623   8.564
 1005POPC   C2B15788  26.026  12.622   8.264
 1005POPC   C3B15789  25.952  12.594   7.964
 1005POPC   C4B15790  25.982  12.650   7.664
 1006POPC   NC315791  33.051   1.225   9.464
 1006POPC   PO415792  33.044   1.192   9.164
 1006POPC   GL115793  33.065   1.193   8.864
 1006POPC   GL215794  33.087   1.065   8.864
 1006POPC   C1A15795  32.996   1.254   8.564
 1006POPC   D2A15796  32.996   1.202   8.264
 1006POPC   C3A15797  33.044   1.213   7.964
 1006POPC   C4A15798  33.049   1.217   7.664
 1006POPC   C1B15799  33.061   0.920   8.564
 1006POPC   C2B15800  33.052   0.934   8.264
 1006POPC   C3B15801  33.015   0.926   7.964
 1006POPC   C4B15802  33.007   0.923   7.664
 1007POPC   NC315803  21.355  19.855   9.464
 1007POPC   PO415804  21.415  19.864   9.164
 1007POPC   GL115805  21.361  19.867   8.864
 1007POPC   GL215806  21.276  19.834   8.864
 1007POPC   C1A15807  21.431  19.873   8.564
 1007POPC   D2A15808  21.407  19.807   8.264
 1007POPC   C3A15809  21.387  19.797   7.964
 1007POPC   C4A15810  21.419  19.851   7.664
 1007POPC   C1B15811  21.178  19.869   8.564
 1007POPC   C2B15812  21.136  19.816   8.264
 1007POPC   C3B15813  21.107  19.875   7.964
 1007POPC   C4B15814  21.183  19.867   7.664
 1008POPC   NC315815  24.537   1.993   9.464
 1008POPC   PO415816  24.476   1.972   9.164
 1008POPC   GL115817  24.452   1.956   8.864
 1008POPC   GL215818  24.399   1.944   8.864
 1008POPC   C1A15819  24.459   1.966   8.564
 1008POPC   D2A15820  24.507   1.971   8.264
 1008POPC   C3A15821  24.508   1.964   7.964
 1008POPC   C4A15822  24.520   1.974   7.664
 1008POPC   C1B15823  24.244   2.004   8.564
 1008POPC   C2B15824  24.282   1.980   8.264
 1008POPC   C3B15825  24.274   1.929   7.964
 1008POPC   C4B15826  24.256   1.936   7.664
 1009POPC   NC315827   8.970  40.053   9.464
 1009POPC   PO415828   9.002  40.054   9.164
 1009POPC   GL115829   8.985  40.056   8.864
 1009POPC   GL215830   8.873  40.076   8.864
 1009POPC   C1A15831   8.927  39.964   8.564
 1009POPC   D2A15832   8.932  40.006   8.264
 1009POPC   C3A15833   8.994  39.986   7.964
 1009POPC   C4A15834   8.993  39.998   7.664
 1009POPC   C1B15835   8.768  40.120   8.564
 1009POPC   C2B15836   8.742  40.146   8.264
 1009POPC   C3B15837   8.769  40.165   7.964
 1009POPC   C4B15838   8.783  40.175   7.664
 1010POPC   NC315839  15.907   2.805   9.464
 1010POPC   PO415840  15.966   2.781   9.164
 1010POPC   GL115841  15.966   2.797   8.864
 1010POPC   GL215842  15.824   2.707   8.864
 1010POPC   C1A15843  15.998   2.721   8.564
 1010POPC   D2A15844  15.956   2.813   8.264
 1010POPC   C3A15845  15.978   2.790   7.964
 1010POPC   C4A15846  15.942   2.813   7.664
 1010POPC   C1B15847  15.769   2.629   8.564
 1010POPC   C2B15848  15.723   2.665   8.264
 1010POPC   C3B15849  15.730   2.659   7.964
 1010POPC   C4B15850  15.743   2.676   7.664
 1011POPC   NC315851  33.757   3.529   9.464
 1011POPC   PO415852  33.848   3.518   9.164
 1011POPC   GL115853  33.847   3.541   8.864
 1011POPC   GL215854  33.732   3.649   8.864
 1011POPC   C1A15855  33.836   3.554   8.564
 1011POPC   D2A15856  33.760   3.513   8.264
 1011POPC   C3A15857  33.845   3.532   7.964
 1011POPC   C4A15858  33.781   3.589   7.664
 1011POPC   C1B15859  33.582   3.698   8.564
 1011POPC   C2B15860  33.625   3.684   8.264
 1011POPC   C3B15861  33.578   3.694   7.964
 1011POPC   C4B15862  33.646   3.708   7.664
 1012POPC   NC315863  10.538  23.676   9.464
 1012POPC   PO415864  10.566  23.684   9.164
 1012POPC   GL115865  10.552  23.737   8.864
 1012POPC   GL215866  10.418  23.668   8.864
 1012POPC   C1A15867  10.480  23.761   8.564
 1012POPC   D2A15868  10.573  23.703   8.264
 1012POPC   C3A15869  10.508  23.759   7.964
 1012POPC   C4A15870  10.537  23.710   7.664
 1012POPC   C1B15871  10.324  23.583   8.564
 1012POPC   C2B15872  10.349  23.573   8.264
 1012POPC   C3B15873  10.322  23.613   7.964
 1012POPC   C4B15874  10.271  23.624   7.664
 1013POPC   NC315875  11.276  12.860   9.464
 1013POPC   PO415876  11.282  12.873   9.164
 1013POPC   GL115877  11.347  12.885   8.864
 1013POPC   GL215878  11.424  12.945   8.864
 1013POPC   C1A15879  11.342  12.805   8.564
 1013POPC   D2A15880  11.328  12.838   8.264
 1013POPC   C3A15881  11.255  12.839   7.964
 1013POPC   C4A15882  11.338  12.897   7.664
 1013POPC   C1B15883  11.491  12.989   8.564
 1013POPC   C2B15884  11.505  12.974   8.264
 1013POPC   C3B15885  11.516  13.045   7.964
 1013POPC   C4B15886  11.520  12.976   7.664
 1014POPC   NC315887  44.669  44.631   9.464
 1014POPC   PO415888  44.674  44.639   9.164
 1014POPC   GL115889  44.617  44.640   8.864
 1014POPC   GL215890  44.655  44.811   8.864
 1014POPC   C1A15891  44.642  44.642   8.564
 1014POPC   D2A15892  44.696  44.640   8.264
 1014POPC   C3A15893  44.684  44.657   7.964
 1014POPC   C4A15894  44.642  44.636   7.664
 1014POPC   C1B15895  44.719  44.853   8.564
 1014POPC   C2B15896  44.731  44.949   8.264
 1014POPC   C3B15897  44.779  44.940   7.964
 1014POPC   C4B15898  44.720  44.927   7.664
 1015POPC   NC315899  43.907  29.877   9.464
 1015POPC   PO415900  43.849  29.872   9.164
 1015POPC   GL115901  43.902  29.893   8.864
 1015POPC   GL215902  44.002  29.924   8.864
 1015POPC   C1A15903  43.918  29.970   8.564
 1015POPC   D2A15904  43.922  29.919   8.264
 1015POPC   C3A15905  43.927  29.899   7.964
 1015POPC   C4A15906  43.867  29.886   7.664
 1015POPC   C1B15907  44.114  29.952   8.564
 1015POPC   C2B15908  44.123  29.990   8.264
 1015POPC   C3B15909  44.096  29.969   7.964
 1015POPC   C4B15910  44.086  29.898   7.664
 1016POPC   NC315911  34.622  31.510   9.464
 1016POPC   PO415912  34.594  31.467   9.164
 1016POPC   GL115913  34.616  31.462   8.864
 1016POPC   GL215914  34.460  31.416   8.864
 1016POPC   C1A15915  34.597  31.473   8.564
 1016POPC   D2A15916  34.536  31.482   8.264
 1016POPC   C3A15917  34.552  31.476   7.964
 1016POPC   C4A15918  34.557  31.466   7.664
 1016POPC   C1B15919  34.431  31.331   8.564
 1016POPC   C2B15920  34.381  31.328   8.264
 1016POPC   C3B15921  34.377  31.273   7.964
 1016POPC   C4B15922  34.439  31.342   7.664
 1017POPC   NC315923  30.677  15.141   9.464
 1017POPC   PO415924  30.726  15.181   9.164
 1017POPC   GL115925  30.687  15.169   8.864
 1017POPC   GL215926  30.556  15.253   8.864
 1017POPC   C1A15927  30.728  15.213   8.564
 1017POPC   D2A15928  30.657  15.133   8.264
 1017POPC   C3A15929  30.658  15.173   7.964
 1017POPC   C4A15930  30.713  15.168   7.664
 1017POPC   C1B15931  30.495  15.355   8.564
 1017POPC   C2B15932  30.489  15.277   8.264
 1017POPC   C3B15933  30.470  15.350   7.964
 1017POPC   C4B15934  30.519  15.329   7.664
 1018POPC   NC315935  41.533  34.561   9.464
 1018POPC   PO415936  41.571  34.617   9.164
 1018POPC   GL115937  41.513  34.565   8.864
 1018POPC   GL215938  41.591  34.412   8.864
 1018POPC   C1A15939  41.516  34.557   8.564
 1018POPC   D2A15940  41.536  34.617   8.264
 1018POPC   C3A15941  41.553  34.609   7.964
 1018POPC   C4A15942  41.608  34.543   7.664
 1018POPC   C1B15943  41.598  34.296   8.564
 1018POPC   C2B15944  41.606  34.295   8.264
 1018POPC   C3B15945  41.590  34.381   7.964
 1018POPC   C4B15946  41.575  34.308   7.664
 1019POPC   NC315947  26.065  26.811   9.464
 1019POPC   PO415948  26.039  26.841   9.164
 1019POPC   GL115949  26.030  26.836   8.864
 1019POPC   GL215950  26.089  26.933   8.864
 1019POPC   C1A15951  26.070  26.858   8.564
 1019POPC   D2A15952  26.085  26.788   8.264
 1019POPC   C3A15953  26.063  26.865   7.964
 1019POPC   C4A15954  26.024  26.825   7.664
 1019POPC   C1B15955  26.097  27.077   8.564
 1019POPC   C2B15956  26.100  27.096   8.264
 1019POPC   C3B15957  26.132  27.088   7.964
 1019POPC   C4B15958  26.165  27.067   7.664
 1020POPC   NC315959  26.087  41.606   9.464
 1020POPC   PO415960  26.012  41.602   9.164
 1020POPC   GL115961  26.041  41.606   8.864
 1020POPC   GL215962  25.894  41.572   8.864
 1020POPC   C1A15963  26.069  41.581   8.564
 1020POPC   D2A15964  26.069  41.578   8.264
 1020POPC   C3A15965  26.047  41.576   7.964
 1020POPC   C4A15966  26.020  41.572   7.664
 1020POPC   C1B15967  25.773  41.532   8.564
 1020POPC   C2B15968  25.759  41.533   8.264
 1020POPC   C3B15969  25.817  41.536   7.964
 1020POPC   C4B15970  25.792  41.506   7.664
 1021POPC   NC315971   7.415  11.349   9.464
 1021POPC   PO415972   7.384  11.251   9.164
 1021POPC   GL115973   7.437  11.308   8.864
 1021POPC   GL215974   7.515  11.427   8.864
 1021POPC   C1A15975   7.416  11.272   8.564
 1021POPC   D2A15976   7.459  11.345   8.264
 1021POPC   C3A15977   7.435  11.340   7.964
 1021POPC   C4A15978   7.446  11.277   7.664
 1021POPC   C1B15979   7.508  11.499   8.564
 1021POPC   C2B15980   7.574  11.546   8.264
 1021POPC   C3B15981   7.580  11.501   7.964
 1021POPC   C4B15982   7.572  11.556   7.664
 1022POPC   NC315983  40.045  14.391   9.464
 1022POPC   PO415984  40.018  14.437   9.164
 1022POPC   GL115985  39.965  14.424   8.864
 1022POPC   GL215986  40.174  14.440   8.864
 1022POPC   C1A15987  40.012  14.386   8.564
 1022POPC   D2A15988  40.027  14.412   8.264
 1022POPC   C3A15989  39.981  14.408   7.964
 1022POPC   C4A15990  39.976  14.441   7.664
 1022POPC   C1B15991  40.221  14.445   8.564
 1022POPC   C2B15992  40.199  14.447   8.264
 1022POPC   C3B15993  40.226  14.499   7.964
 1022POPC   C4B15994  40.296  14.496   7.664
 1023POPC   NC315995  29.886  12.854   9.464
 1023POPC   PO415996  29.943  12.816   9.164
 1023POPC   GL115997  29.888  12.818   8.864
 1023POPC   GL215998  29.916  12.721   8.864
 1023POPC   C1A15999  29.959  12.875   8.564
 1023POPC   D2A16000  29.944  12.833   8.264
 1023POPC   C3A16001  29.939  12.859   7.964
 1023POPC   C4A16002  29.917  12.831   7.664
 1023POPC   C1B16003  29.814  12.635   8.564
 1023POPC   C2B16004  29.818  12.587   8.264
 1023POPC   C3B16005  29.860  12.602   7.964
 1023POPC   C4B16006  29.877  12.590   7.664
 1024POPC   NC316007  22.950  37.639   9.464
 1024POPC   PO416008  22.928  37.641   9.164
 1024POPC   GL116009  22.978  37.652   8.864
 1024POPC   GL216010  22.953  37.823   8.864
 1024POPC   C1A16011  22.930  37.720   8.564
 1024POPC   D2A16012  22.919  37.676   8.264
 1024POPC   C3A16013  22.964  37.726   7.964
 1024POPC   C4A16014  22.963  37.721   7.664
 1024POPC   C1B16015  23.002  37.911   8.564
 1024POPC   C2B16016  22.959  37.917   8.264
 1024POPC   C3B16017  22.981  37.903   7.964
 1024POPC   C4B16018  22.965  37.930   7.664
 1025POPC   NC316019  11.287  36.101   9.464
 1025POPC   PO416020  11.336  36.163   9.164
 1025POPC   GL116021  11.290  36.136   8.864
 1025POPC   GL216022  11.400  35.985   8.864
 1025POPC   C1A16023  11.264  36.172   8.564
 1025POPC   D2A16024  11.330  36.143   8.264
 1025POPC   C3A16025  11.301  36.168   7.964
 1025POPC   C4A16026  11.322  36.151   7.664
 1025POPC   C1B16027  11.399  35.953   8.564
 1025POPC   C2B16028  11.482  35.873   8.264
 1025POPC   C3B16029  11.491  35.957   7.964
 1025POPC   C4B16030  11.438  35.903   7.664
 1026POPC   NC316031  35.340  40.744   9.464
 1026POPC   PO416032  35.307  40.824   9.164
 1026POPC   GL116033  35.314  40.822   8.864
 1026POPC   GL216034  35.182  40.715   8.864
 1026POPC   C1A16035  35.327  40.827   8.564
 1026POPC   D2A16036  35.345  40.790   8.264
 1026POPC   C3A16037  35.326  40.799   7.964
 1026POPC   C4A16038  35.348  40.763   7.664
 1026POPC   C1B16039  35.086  40.766   8.564
 1026POPC   C2B16040  35.084  40.718   8.264
 1026POPC   C3B16041  35.086  40.722   7.964
 1026POPC   C4B16042  35.082  40.734   7.664
 1027POPC   NC316043  30.724  43.149   9.464
 1027POPC   PO416044  30.685  43.120   9.164
 1027POPC   GL116045  30.649  43.141   8.864
 1027POPC   GL216046  30.726  42.971   8.864
 1027POPC   C1A16047  30.648  43.158   8.564
 1027POPC   D2A16048  30.742  43.147   8.264
 1027POPC   C3A16049  30.731  43.088   7.964
 1027POPC   C4A16050  30.732  43.096   7.664
 1027POPC   C1B16051  30.807  42.864   8.564
 1027POPC   C2B16052  30.853  42.887   8.264
 1027POPC   C3B16053  30.850  42.915   7.964
 1027POPC   C4B16054  30.857  42.942   7.664
 1028POPC   NC316055  29.183  42.364   9.464
 1028POPC   PO416056  29.177  42.320   9.164
 1028POPC   GL116057  29.132  42.292   8.864
 1028POPC   GL216058  29.181  42.492   8.864
 1028POPC   C1A16059  29.098  42.320   8.564
 1028POPC   D2A16060  29.116  42.294   8.264
 1028POPC   C3A16061  29.108  42.314   7.964
 1028POPC   C4A16062  29.187  42.301   7.664
 1028POPC   C1B16063  29.121  42.556   8.564
 1028POPC   C2B16064  29.141  42.544   8.264
 1028POPC   C3B16065  29.113  42.545   7.964
 1028POPC   C4B16066  29.132  42.576   7.664
 1029POPC   NC316067   5.064   5.081   9.464
 1029POPC   PO416068   5.065   5.063   9.164
 1029POPC   GL116069   5.142   5.139   8.864
 1029POPC   GL216070   5.184   5.144   8.864
 1029POPC   C1A16071   5.141   5.118   8.564
 1029POPC   D2A16072   5.063   5.073   8.264
 1029POPC   C3A16073   5.119   5.109   7.964
 1029POPC   C4A16074   5.077   5.101   7.664
 1029POPC   C1B16075   5.241   5.291   8.564
 1029POPC   C2B16076   5.242   5.247   8.264
 1029POPC   C3B16077   5.203   5.290   7.964
 1029POPC   C4B16078   5.261   5.295   7.664
 1030POPC   NC316079  36.935  40.755   9.464
 1030POPC   PO416080  36.947  40.734   9.164
 1030POPC   GL116081  36.900  40.822   8.864
 1030POPC   GL216082  36.804  40.752   8.864
 1030POPC   C1A16083  36.935  40.809   8.564
 1030POPC   D2A16084  36.880  40.754   8.264
 1030POPC   C3A16085  36.902  40.737   7.964
 1030POPC   C4A16086  36.916  40.749   7.664
 1030POPC   C1B16087  36.667  40.600   8.564
 1030POPC   C2B16088  36.692  40.656   8.264
 1030POPC   C3B16089  36.665  40.611   7.964
 1030POPC   C4B16090  36.740  40.611   7.664
 1031POPC   NC316091  33.816  41.582   9.464
 1031POPC   PO416092  33.804  41.528   9.164
 1031POPC   GL116093  33.765  41.585   8.864
 1031POPC   GL216094  33.834  41.652   8.864
 1031POPC   C1A16095  33.818  41.572   8.564
 1031POPC   D2A16096  33.845  41.594   8.264
 1031POPC   C3A16097  33.818  41.561   7.964
 1031POPC   C4A16098  33.771  41.577   7.664
 1031POPC   C1B16099  33.850  41.779   8.564
 1031POPC   C2B16100  33.839  41.766   8.264
 1031POPC   C3B16101  33.841  41.848   7.964
 1031POPC   C4B16102  33.815  41.827   7.664
 1032POPC   NC316103  14.448  30.660   9.464
 1032POPC   PO416104  14.399  30.654   9.164
 1032POPC   GL116105  14.444  30.665   8.864
 1032POPC   GL216106  14.556  30.630   8.864
 1032POPC   C1A16107  14.413  30.708   8.564
 1032POPC   D2A16108  14.441  30.668   8.264
 1032POPC   C3A16109  14.377  30.731   7.964
 1032POPC   C4A16110  14.429  30.706   7.664
 1032POPC   C1B16111  14.646  30.530   8.564
 1032POPC   C2B16112  14.588  30.586   8.264
 1032POPC   C3B16113  14.607  30.617   7.964
 1032POPC   C4B16114  14.601  30.534   7.664
 1033POPC   NC316115   1.956  21.434   9.464
 1033POPC   PO416116   2.027  21.390   9.164
 1033POPC   GL116117   2.008  21.380   8.864
 1033POPC   GL216118   1.988  21.465   8.864
 1033POPC   C1A16119   2.026  21.433   8.564
 1033POPC   D2A16120   1.980  21.367   8.264
 1033POPC   C3A16121   1.990  21.385   7.964
 1033POPC   C4A16122   2.035  21.337   7.664
 1033POPC   C1B16123   2.097  21.596   8.564
 1033POPC   C2B16124   2.104  21.608   8.264
 1033POPC   C3B16125   2.124  21.587   7.964
 1033POPC   C4B16126   2.044  21.591   7.664
 1034POPC   NC316127  36.863  41.551   9.464
 1034POPC   PO416128  36.916  41.544   9.164
 1034POPC   GL116129  36.919  41.548   8.864
 1034POPC   GL216130  37.073  41.552   8.864
 1034POPC   C1A16131  36.892  41.537   8.564
 1034POPC   D2A16132  36.921  41.564   8.264
 1034POPC   C3A16133  36.869  41.573   7.964
 1034POPC   C4A16134  36.885  41.604   7.664
 1034POPC   C1B16135  37.128  41.581   8.564
 1034POPC   C2B16136  37.174  41.546   8.264
 1034POPC   C3B16137  37.123  41.563   7.964
 1034POPC   C4B16138  37.109  41.605   7.664
 1035POPC   NC316139  27.604  43.854   9.464
 1035POPC   PO416140  27.544  43.935   9.164
 1035POPC   GL116141  27.558  43.868   8.864
 1035POPC   GL216142  27.677  43.915   8.864
 1035POPC   C1A16143  27.585  43.844   8.564
 1035POPC   D2A16144  27.566  43.867   8.264
 1035POPC   C3A16145  27.638  43.910   7.964
 1035POPC   C4A16146  27.589  43.881   7.664
 1035POPC   C1B16147  27.818  44.003   8.564
 1035POPC   C2B16148  27.871  43.994   8.264
 1035POPC   C3B16149  27.791  43.924   7.964
 1035POPC   C4B16150  27.826  43.917   7.664
 1036POPC   NC316151  11.307  18.283   9.464
 1036POPC   PO416152  11.332  18.320   9.164
 1036POPC   GL116153  11.295  18.311   8.864
 1036POPC   GL216154  11.261  18.362   8.864
 1036POPC   C1A16155  11.344  18.282   8.564
 1036POPC   D2A16156  11.260  18.289   8.264
 1036POPC   C3A16157  11.275  18.266   7.964
 1036POPC   C4A16158  11.267  18.280   7.664
 1036POPC   C1B16159  11.223  18.555   8.564
 1036POPC   C2B16160  11.188  18.492   8.264
 1036POPC   C3B16161  11.193  18.499   7.964
 1036POPC   C4B16162  11.250  18.552   7.664
 1037POPC   NC316163  44.640  25.259   9.464
 1037POPC   PO416164  44.710  25.259   9.164
 1037POPC   GL116165  44.624  25.281   8.864
 1037POPC   GL216166  44.508  25.262   8.864
 1037POPC   C1A16167  44.649  25.216   8.564
 1037POPC   D2A16168  44.665  25.277   8.264
 1037POPC   C3A16169  44.660  25.298   7.964
 1037POPC   C4A16170  44.678  25.267   7.664
 1037POPC   C1B16171  44.404  25.229   8.564
 1037POPC   C2B16172  44.367  25.275   8.264
 1037POPC   C3B16173  44.427  25.201   7.964
 1037POPC   C4B16174  44.446  25.188   7.664
 1038POPC   NC316175  24.459   7.423   9.464
 1038POPC   PO416176  24.461   7.420   9.164
 1038POPC   GL116177  24.539   7.388   8.864
 1038POPC   GL216178  24.544   7.543   8.864
 1038POPC   C1A16179  24.531   7.389   8.564
 1038POPC   D2A16180  24.490   7.441   8.264
 1038POPC   C3A16181  24.469   7.392   7.964
 1038POPC   C4A16182  24.525   7.374   7.664
 1038POPC   C1B16183  24.545   7.656   8.564
 1038POPC   C2B16184  24.494   7.707   8.264
 1038POPC   C3B16185  24.484   7.702   7.964
 1038POPC   C4B16186  24.545   7.685   7.664
 1039POPC   NC316187  15.228  17.495   9.464
 1039POPC   PO416188  15.226  17.522   9.164
 1039POPC   GL116189  15.169  17.472   8.864
 1039POPC   GL216190  15.317  17.471   8.864
 1039POPC   C1A16191  15.185  17.498   8.564
 1039POPC   D2A16192  15.163  17.499   8.264
 1039POPC   C3A16193  15.204  17.470   7.964
 1039POPC   C4A16194  15.227  17.457   7.664
 1039POPC   C1B16195  15.430  17.518   8.564
 1039POPC   C2B16196  15.450  17.461   8.264
 1039POPC   C3B16197  15.412  17.554   7.964
 1039POPC   C4B16198  15.432  17.510   7.664
 1040POPC   NC316199  19.815  28.418   9.464
 1040POPC   PO416200  19.873  28.342   9.164
 1040POPC   GL116201  19.787  28.347   8.864
 1040POPC   GL216202  19.960  28.256   8.864
 1040POPC   C1A16203  19.848  28.384   8.564
 1040POPC   D2A16204  19.859  28.358   8.264
 1040POPC   C3A16205  19.797  28.366   7.964
 1040POPC   C4A16206  19.801  28.321   7.664
 1040POPC   C1B16207  20.009  28.156   8.564
 1040POPC   C2B16208  19.976  28.231   8.264
 1040POPC   C3B16209  20.018  28.247   7.964
 1040POPC   C4B16210  20.017  28.239   7.664
 1041POPC   NC316211  19.048  39.262   9.464
 1041POPC   PO416212  19.088  39.267   9.164
 1041POPC   GL116213  19.031  39.236   8.864
 1041POPC   GL216214  19.035  39.383   8.864
 1041POPC   C1A16215  19.056  39.204   8.564
 1041POPC   D2A16216  19.057  39.264   8.264
 1041POPC   C3A16217  19.093  39.185   7.964
 1041POPC   C4A16218  19.011  39.272   7.664
 1041POPC   C1B16219  19.079  39.452   8.564
 1041POPC   C2B16220  19.066  39.448   8.264
 1041POPC   C3B16221  19.044  39.439   7.964
 1041POPC   C4B16222  19.042  39.460   7.664
 1042POPC   NC316223  24.495  20.614   9.464
 1042POPC   PO416224  24.491  20.611   9.164
 1042POPC   GL116225  24.512  20.604   8.864
 1042POPC   GL216226  24.527  20.711   8.864
 1042POPC   C1A16227  24.512  20.603   8.564
 1042POPC   D2A16228  24.464  20.651   8.264
 1042POPC   C3A16229  24.518  20.619   7.964
 1042POPC   C4A16230  24.444  20.564   7.664
 1042POPC   C1B16231  24.530  20.887   8.564
 1042POPC   C2B16232  24.595  20.839   8.264
 1042POPC   C3B16233  24.559  20.870   7.964
 1042POPC   C4B16234  24.563  20.894   7.664
 1043POPC   NC316235  32.985  29.886   9.464
 1043POPC   PO416236  32.987  29.956   9.164
 1043POPC   GL116237  33.057  29.953   8.864
 1043POPC   GL216238  33.028  29.800   8.864
 1043POPC   C1A16239  33.050  29.949   8.564
 1043POPC   D2A16240  33.042  29.922   8.264
 1043POPC   C3A16241  33.020  29.913   7.964
 1043POPC   C4A16242  33.040  29.952   7.664
 1043POPC   C1B16243  33.030  29.671   8.564
 1043POPC   C2B16244  32.970  29.688   8.264
 1043POPC   C3B16245  32.935  29.710   7.964
 1043POPC   C4B16246  33.012  29.688   7.664
 1044POPC   NC316247   0.420  13.622   9.464
 1044POPC   PO416248   0.452  13.604   9.164
 1044POPC   GL116249   0.425  13.590   8.864
 1044POPC   GL216250   0.480  13.713   8.864
 1044POPC   C1A16251   0.393  13.674   8.564
 1044POPC   D2A16252   0.403  13.677   8.264
 1044POPC   C3A16253   0.390  13.624   7.964
 1044POPC   C4A16254   0.459  13.668   7.664
 1044POPC   C1B16255   0.653  13.805   8.564
 1044POPC   C2B16256   0.636  13.805   8.264
 1044POPC   C3B16257   0.575  13.775   7.964
 1044POPC   C4B16258   0.609  13.774   7.664
 1045POPC   NC316259  12.104  16.749   9.464
 1045POPC   PO416260  12.117  16.695   9.164
 1045POPC   GL116261  12.109  16.770   8.864
 1045POPC   GL216262  12.095  16.797   8.864
 1045POPC   C1A16263  12.107  16.702   8.564
 1045POPC   D2A16264  12.066  16.724   8.264
 1045POPC   C3A16265  12.111  16.752   7.964
 1045POPC   C4A16266  12.088  16.718   7.664
 1045POPC   C1B16267  12.211  16.981   8.564
 1045POPC   C2B16268  12.166  16.942   8.264
 1045POPC   C3B16269  12.221  16.978   7.964
 1045POPC   C4B16270  12.164  16.934   7.664
 1046POPC   NC316271  35.343   5.124   9.464
 1046POPC   PO416272  35.398   5.061   9.164
 1046POPC   GL116273  35.314   5.138   8.864
 1046POPC   GL216274  35.489   5.102   8.864
 1046POPC   C1A16275  35.401   5.102   8.564
 1046POPC   D2A16276  35.382   5.107   8.264
 1046POPC   C3A16277  35.374   5.087   7.964
 1046POPC   C4A16278  35.355   5.065   7.664
 1046POPC   C1B16279  35.605   5.113   8.564
 1046POPC   C2B16280  35.614   5.104   8.264
 1046POPC   C3B16281  35.594   5.119   7.964
 1046POPC   C4B16282  35.586   5.121   7.664
 1047POPC   NC316283   4.342  29.166   9.464
 1047POPC   PO416284   4.362  29.139   9.164
 1047POPC   GL116285   4.290  29.179   8.864
 1047POPC   GL216286   4.383  28.997   8.864
 1047POPC   C1A16287   4.339  29.115   8.564
 1047POPC   D2A16288   4.366  29.138   8.264
 1047POPC   C3A16289   4.313  29.100   7.964
 1047POPC   C4A16290   4.309  29.161   7.664
 1047POPC   C1B16291   4.417  28.973   8.564
 1047POPC   C2B16292   4.431  28.963   8.264
 1047POPC   C3B16293   4.414  28.902   7.964
 1047POPC   C4B16294   4.474  28.934   7.664
 1048POPC   NC316295   6.670  17.501   9.464
 1048POPC   PO416296   6.642  17.515   9.164
 1048POPC   GL116297   6.598  17.514   8.864
 1048POPC   GL216298   6.733  17.447   8.864
 1048POPC   C1A16299   6.666  17.524   8.564
 1048POPC   D2A16300   6.676  17.503   8.264
 1048POPC   C3A16301   6.605  17.487   7.964
 1048POPC   C4A16302   6.694  17.475   7.664
 1048POPC   C1B16303   6.867  17.435   8.564
 1048POPC   C2B16304   6.910  17.385   8.264
 1048POPC   C3B16305   6.928  17.439   7.964
 1048POPC   C4B16306   6.898  17.441   7.664
 1049POPC   NC316307   9.752  16.723   9.464
 1049POPC   PO416308   9.768  16.763   9.164
 1049POPC   GL116309   9.773  16.748   8.864
 1049POPC   GL216310   9.754  16.840   8.864
 1049POPC   C1A16311   9.782  16.762   8.564
 1049POPC   D2A16312   9.769  16.705   8.264
 1049POPC   C3A16313   9.745  16.697   7.964
 1049POPC   C4A16314   9.763  16.731   7.664
 1049POPC   C1B16315   9.749  16.980   8.564
 1049POPC   C2B16316   9.712  17.000   8.264
 1049POPC   C3B16317   9.704  17.021   7.964
 1049POPC   C4B16318   9.722  16.938   7.664
 1050POPC   NC316319   3.502  12.833   9.464
 1050POPC   PO416320   3.561  12.843   9.164
 1050POPC   GL116321   3.541  12.889   8.864
 1050POPC   GL216322   3.642  12.900   8.864
 1050POPC   C1A16323   3.542  12.851   8.564
 1050POPC   D2A16324   3.591  12.821   8.264
 1050POPC   C3A16325   3.501  12.867   7.964
 1050POPC   C4A16326   3.567  12.829   7.664
 1050POPC   C1B16327   3.830  12.821   8.564
 1050POPC   C2B16328   3.831  12.918   8.264
 1050POPC   C3B16329   3.833  12.891   7.964
 1050POPC   C4B16330   3.837  12.907   7.664
 1051POPC   NC316331  15.947  15.910   9.464
 1051POPC   PO416332  15.982  15.917   9.164
 1051POPC   GL116333  15.977  15.937   8.864
 1051POPC   GL216334  16.120  15.993   8.864
 1051POPC   C1A16335  15.908  15.906   8.564
 1051POPC   D2A16336  15.956  15.909   8.264
 1051POPC   C3A16337  15.938  15.934   7.964
 1051POPC   C4A16338  16.002  15.931   7.664
 1051POPC   C1B16339  16.184  16.003   8.564
 1051POPC   C2B16340  16.159  16.042   8.264
 1051POPC   C3B16341  16.230  16.066   7.964
 1051POPC   C4B16342  16.235  15.988   7.664
 1052POPC   NC316343   4.314   3.581   9.464
 1052POPC   PO416344   4.274   3.512   9.164
 1052POPC   GL116345   4.281   3.537   8.864
 1052POPC   GL216346   4.318   3.704   8.864
 1052POPC   C1A16347   4.312   3.581   8.564
 1052POPC   D2A16348   4.305   3.537   8.264
 1052POPC   C3A16349   4.295   3.502   7.964
 1052POPC   C4A16350   4.290   3.568   7.664
 1052POPC   C1B16351   4.375   3.822   8.564
 1052POPC   C2B16352   4.362   3.771   8.264
 1052POPC   C3B16353   4.378   3.789   7.964
 1052POPC   C4B16354   4.395   3.806   7.664
 1053POPC   NC316355  34.534  19.041   9.464
 1053POPC   PO416356  34.564  19.017   9.164
 1053POPC   GL116357  34.558  19.086   8.864
 1053POPC   GL216358  34.478  19.121   8.864
 1053POPC   C1A16359  34.597  19.014   8.564
 1053POPC   D2A16360  34.530  19.047   8.264
 1053POPC   C3A16361  34.623  19.070   7.964
 1053POPC   C4A16362  34.590  19.095   7.664
 1053POPC   C1B16363  34.478  19.251   8.564
 1053POPC   C2B16364  34.442  19.283   8.264
 1053POPC   C3B16365  34.471  19.253   7.964
 1053POPC   C4B16366  34.451  19.251   7.664
 1054POPC   NC316367   5.067  29.879   9.464
 1054POPC   PO416368   5.067  29.894   9.164
 1054POPC   GL116369   5.115  29.903   8.864
 1054POPC   GL216370   5.153  30.006   8.864
 1054POPC   C1A16371   5.074  29.871   8.564
 1054POPC   D2A16372   5.084  29.959   8.264
 1054POPC   C3A16373   5.076  29.930   7.964
 1054POPC   C4A16374   5.052  29.961   7.664
 1054POPC   C1B16375   5.275  30.101   8.564
 1054POPC   C2B16376   5.226  30.087   8.264
 1054POPC   C3B16377   5.226  30.142   7.964
 1054POPC   C4B16378   5.301  30.046   7.664
 1055POPC   NC316379  27.615   7.450   9.464
 1055POPC   PO416380  27.579   7.409   9.164
 1055POPC   GL116381  27.544   7.416   8.864
 1055POPC   GL216382  27.481   7.373   8.864
 1055POPC   C1A16383  27.584   7.470   8.564
 1055POPC   D2A16384  27.567   7.450   8.264
 1055POPC   C3A16385  27.582   7.394   7.964
 1055POPC   C4A16386  27.601   7.453   7.664
 1055POPC   C1B16387  27.411   7.296   8.564
 1055POPC   C2B16388  27.371   7.312   8.264
 1055POPC   C3B16389  27.373   7.291   7.964
 1055POPC   C4B16390  27.434   7.274   7.664
 1056POPC   NC316391  21.413  39.979   9.464
 1056POPC   PO416392  21.431  40.053   9.164
 1056POPC   GL116393  21.408  39.972   8.864
 1056POPC   GL216394  21.405  39.857   8.864
 1056POPC   C1A16395  21.351  39.966   8.564
 1056POPC   D2A16396  21.430  40.049   8.264
 1056POPC   C3A16397  21.360  40.009   7.964
 1056POPC   C4A16398  21.391  39.982   7.664
 1056POPC   C1B16399  21.398  39.784   8.564
 1056POPC   C2B16400  21.374  39.796   8.264
 1056POPC   C3B16401  21.373  39.780   7.964
 1056POPC   C4B16402  21.434  39.725   7.664
 1057POPC   NC316403  32.282  28.415   9.464
 1057POPC   PO416404  32.270  28.359   9.164
 1057POPC   GL116405  32.260  28.413   8.864
 1057POPC   GL216406  32.392  28.414   8.864
 1057POPC   C1A16407  32.205  28.391   8.564
 1057POPC   D2A16408  32.204  28.347   8.264
 1057POPC   C3A16409  32.249  28.370   7.964
 1057POPC   C4A16410  32.280  28.346   7.664
 1057POPC   C1B16411  32.490  28.404   8.564
 1057POPC   C2B16412  32.453  28.462   8.264
 1057POPC   C3B16413  32.480  28.449   7.964
 1057POPC   C4B16414  32.516  28.470   7.664
 1058POPC   NC316415  30.653  26.001   9.464
 1058POPC   PO416416  30.690  26.013   9.164
 1058POPC   GL116417  30.677  25.995   8.864
 1058POPC   GL216418  30.761  25.949   8.864
 1058POPC   C1A16419  30.697  26.008   8.564
 1058POPC   D2A16420  30.693  26.080   8.264
 1058POPC   C3A16421  30.719  26.081   7.964
 1058POPC   C4A16422  30.696  26.036   7.664
 1058POPC   C1B16423  30.924  25.940   8.564
 1058POPC   C2B16424  30.881  25.969   8.264
 1058POPC   C3B16425  30.956  25.917   7.964
 1058POPC   C4B16426  30.971  25.938   7.664
 1059POPC   NC316427  24.500  43.157   9.464
 1059POPC   PO416428  24.529  43.085   9.164
 1059POPC   GL116429  24.458  43.158   8.864
 1059POPC   GL216430  24.390  43.177   8.864
 1059POPC   C1A16431  24.496  43.074   8.564
 1059POPC   D2A16432  24.505  43.089   8.264
 1059POPC   C3A16433  24.534  43.111   7.964
 1059POPC   C4A16434  24.505  43.104   7.664
 1059POPC   C1B16435  24.279  43.266   8.564
 1059POPC   C2B16436  24.302  43.235   8.264
 1059POPC   C3B16437  24.304  43.208   7.964
 1059POPC   C4B16438  24.250  43.253   7.664
 1060POPC   NC316439   0.410  26.799   9.464
 1060POPC   PO416440   0.414  26.866   9.164
 1060POPC   GL116441   0.418  26.857   8.864
 1060POPC   GL216442   0.480  26.720   8.864
 1060POPC   C1A16443   0.471  26.777   8.564
 1060POPC   D2A16444   0.456  26.824   8.264
 1060POPC   C3A16445   0.464  26.800   7.964
 1060POPC   C4A16446   0.405  26.812   7.664
 1060POPC   C1B16447   0.563  26.627   8.564
 1060POPC   C2B16448   0.510  26.605   8.264
 1060POPC   C3B16449   0.566  26.601   7.964
 1060POPC   C4B16450   0.568  26.543   7.664
 1061POPC   NC316451   5.907  37.661   9.464
 1061POPC   PO416452   5.819  37.690   9.164
 1061POPC   GL116453   5.853  37.631   8.864
 1061POPC   GL216454   5.769  37.752   8.864
 1061POPC   C1A16455   5.865  37.683   8.564
 1061POPC   D2A16456   5.846  37.717   8.264
 1061POPC   C3A16457   5.892  37.677   7.964
 1061POPC   C4A16458   5.903  37.646   7.664
 1061POPC   C1B16459   5.686  37.820   8.564
 1061POPC   C2B16460   5.694  37.838   8.264
 1061POPC   C3B16461   5.685  37.824   7.964
 1061POPC   C4B16462   5.626  37.838   7.664
 1062POPC   NC316463   6.597  26.006   9.464
 1062POPC   PO416464   6.688  26.032   9.164
 1062POPC   GL116465   6.617  26.077   8.864
 1062POPC   GL216466   6.643  26.126   8.864
 1062POPC   C1A16467   6.643  26.046   8.564
 1062POPC   D2A16468   6.689  26.016   8.264
 1062POPC   C3A16469   6.636  26.050   7.964
 1062POPC   C4A16470   6.624  26.023   7.664
 1062POPC   C1B16471   6.569  26.227   8.564
 1062POPC   C2B16472   6.582  26.273   8.264
 1062POPC   C3B16473   6.503  26.291   7.964
 1062POPC   C4B16474   6.584  26.267   7.664
 1063POPC   NC316475  31.507  33.813   9.464
 1063POPC   PO416476  31.474  33.801   9.164
 1063POPC   GL116477  31.517  33.842   8.864
 1063POPC   GL216478  31.371  33.863   8.864
 1063POPC   C1A16479  31.476  33.798   8.564
 1063POPC   D2A16480  31.511  33.795   8.264
 1063POPC   C3A16481  31.517  33.840   7.964
 1063POPC   C4A16482  31.497  33.776   7.664
 1063POPC   C1B16483  31.219  33.892   8.564
 1063POPC   C2B16484  31.201  33.858   8.264
 1063POPC   C3B16485  31.227  33.882   7.964
 1063POPC   C4B16486  31.214  33.845   7.664
 1064POPC   NC316487  29.920  39.231   9.464
 1064POPC   PO416488  29.952  39.196   9.164
 1064POPC   GL116489  29.881  39.250   8.864
 1064POPC   GL216490  29.773  39.248   8.864
 1064POPC   C1A16491  29.915  39.276   8.564
 1064POPC   D2A16492  29.903  39.240   8.264
 1064POPC   C3A16493  29.938  39.235   7.964
 1064POPC   C4A16494  29.966  39.197   7.664
 1064POPC   C1B16495  29.646  39.182   8.564
 1064POPC   C2B16496  29.668  39.239   8.264
 1064POPC   C3B16497  29.656  39.229   7.964
 1064POPC   C4B16498  29.680  39.159   7.664
 1065POPC   NC316499  31.445  32.269   9.464
 1065POPC   PO416500  31.511  32.202   9.164
 1065POPC   GL116501  31.481  32.271   8.864
 1065POPC   GL216502  31.416  32.104   8.864
 1065POPC   C1A16503  31.491  32.263   8.564
 1065POPC   D2A16504  31.486  32.202   8.264
 1065POPC   C3A16505  31.443  32.247   7.964
 1065POPC   C4A16506  31.477  32.216   7.664
 1065POPC   C1B16507  31.456  32.014   8.564
 1065POPC   C2B16508  31.457  32.002   8.264
 1065POPC   C3B16509  31.416  31.996   7.964
 1065POPC   C4B16510  31.424  31.963   7.664
 1066POPC   NC316511  43.906  33.793   9.464
 1066POPC   PO416512  43.847  33.793   9.164
 1066POPC   GL116513  43.858  33.846   8.864
 1066POPC   GL216514  43.955  33.923   8.864
 1066POPC   C1A16515  43.863  33.762   8.564
 1066POPC   D2A16516  43.842  33.838   8.264
 1066POPC   C3A16517  43.855  33.772   7.964
 1066POPC   C4A16518  43.899  33.797   7.664
 1066POPC   C1B16519  43.912  34.066   8.564
 1066POPC   C2B16520  43.903  34.024   8.264
 1066POPC   C3B16521  43.987  34.061   7.964
 1066POPC   C4B16522  43.922  34.084   7.664
 1067POPC   NC316523  37.717   7.400   9.464
 1067POPC   PO416524  37.682   7.467   9.164
 1067POPC   GL116525  37.665   7.388   8.864
 1067POPC   GL216526  37.786   7.481   8.864
 1067POPC   C1A16527  37.664   7.420   8.564
 1067POPC   D2A16528  37.634   7.425   8.264
 1067POPC   C3A16529  37.658   7.437   7.964
 1067POPC   C4A16530  37.632   7.400   7.664
 1067POPC   C1B16531  37.878   7.533   8.564
 1067POPC   C2B16532  37.862   7.556   8.264
 1067POPC   C3B16533  37.862   7.556   7.964
 1067POPC   C4B16534  37.904   7.527   7.664
 1068POPC   NC316535   0.477  24.498   9.464
 1068POPC   PO416536   0.485  24.534   9.164
 1068POPC   GL116537   0.447  24.473   8.864
 1068POPC   GL216538   0.295  24.487   8.864
 1068POPC   C1A16539   0.407  24.497   8.564
 1068POPC   D2A16540   0.451  24.502   8.264
 1068POPC   C3A16541   0.464  24.527   7.964
 1068POPC   C4A16542   0.487  24.519   7.664
 1068POPC   C1B16543   0.219  24.511   8.564
 1068POPC   C2B16544   0.222  24.485   8.264
 1068POPC   C3B16545   0.215  24.476   7.964
 1068POPC   C4B16546   0.193  24.506   7.664
 1069POPC   NC316547   9.716  34.596   9.464
 1069POPC   PO416548   9.759  34.584   9.164
 1069POPC   GL116549   9.707  34.564   8.864
 1069POPC   GL216550   9.877  34.640   8.864
 1069POPC   C1A16551   9.741  34.595   8.564
 1069POPC   D2A16552   9.765  34.542   8.264
 1069POPC   C3A16553   9.762  34.571   7.964
 1069POPC   C4A16554   9.736  34.625   7.664
 1069POPC   C1B16555   9.970  34.761   8.564
 1069POPC   C2B16556   9.964  34.681   8.264
 1069POPC   C3B16557   9.972  34.720   7.964
 1069POPC   C4B16558   9.953  34.716   7.664
 1070POPC   NC316559   0.442  19.075   9.464
 1070POPC   PO416560   0.476  19.025   9.164
 1070POPC   GL116561   0.447  19.036   8.864
 1070POPC   GL216562   0.444  18.945   8.864
 1070POPC   C1A16563   0.444  19.053   8.564
 1070POPC   D2A16564   0.457  19.044   8.264
 1070POPC   C3A16565   0.418  19.083   7.964
 1070POPC   C4A16566   0.414  19.077   7.664
 1070POPC   C1B16567   0.387  18.857   8.564
 1070POPC   C2B16568   0.398  18.810   8.264
 1070POPC   C3B16569   0.432  18.801   7.964
 1070POPC   C4B16570   0.381  18.775   7.664
 1071POPC   NC316571  38.459  19.837   9.464
 1071POPC   PO416572  38.490  19.864   9.164
 1071POPC   GL116573  38.498  19.809   8.864
 1071POPC   GL216574  38.362  19.762   8.864
 1071POPC   C1A16575  38.432  19.883   8.564
 1071POPC   D2A16576  38.489  19.793   8.264
 1071POPC   C3A16577  38.463  19.853   7.964
 1071POPC   C4A16578  38.443  19.826   7.664
 1071POPC   C1B16579  38.182  19.772   8.564
 1071POPC   C2B16580  38.199  19.790   8.264
 1071POPC   C3B16581  38.167  19.739   7.964
 1071POPC   C4B16582  38.211  19.795   7.664
 1072POPC   NC316583  29.137  33.835   9.464
 1072POPC   PO416584  29.118  33.829   9.164
 1072POPC   GL116585  29.139  33.770   8.864
 1072POPC   GL216586  29.203  33.698   8.864
 1072POPC   C1A16587  29.150  33.808   8.564
 1072POPC   D2A16588  29.109  33.774   8.264
 1072POPC   C3A16589  29.098  33.829   7.964
 1072POPC   C4A16590  29.147  33.770   7.664
 1072POPC   C1B16591  29.237  33.520   8.564
 1072POPC   C2B16592  29.175  33.517   8.264
 1072POPC   C3B16593  29.203  33.549   7.964
 1072POPC   C4B16594  29.163  33.525   7.664
 1073POPC   NC316595  21.341  17.491   9.464
 1073POPC   PO416596  21.342  17.470   9.164
 1073POPC   GL116597  21.358  17.498   8.864
 1073POPC   GL216598  21.467  17.648   8.864
 1073POPC   C1A16599  21.370  17.530   8.564
 1073POPC   D2A16600  21.411  17.472   8.264
 1073POPC   C3A16601  21.348  17.537   7.964
 1073POPC   C4A16602  21.390  17.459   7.664
 1073POPC   C1B16603  21.443  17.783   8.564
 1073POPC   C2B16604  21.434  17.735   8.264
 1073POPC   C3B16605  21.442  17.730   7.964
 1073POPC   C4B16606  21.434  17.758   7.664
 1074POPC   NC316607  19.059  17.475   9.464
 1074POPC   PO416608  19.041  17.544   9.164
 1074POPC   GL116609  19.032  17.461   8.864
 1074POPC   GL216610  19.085  17.592   8.864
 1074POPC   C1A16611  19.094  17.533   8.564
 1074POPC   D2A16612  19.031  17.497   8.264
 1074POPC   C3A16613  19.026  17.489   7.964
 1074POPC   C4A16614  19.042  17.548   7.664
 1074POPC   C1B16615  19.125  17.710   8.564
 1074POPC   C2B16616  19.111  17.719   8.264
 1074POPC   C3B16617  19.103  17.748   7.964
 1074POPC   C4B16618  19.116  17.755   7.664
 1075POPC   NC316619   7.405  12.048   9.464
 1075POPC   PO416620   7.417  12.095   9.164
 1075POPC   GL116621   7.415  12.078   8.864
 1075POPC   GL216622   7.523  12.011   8.864
 1075POPC   C1A16623   7.445  12.115   8.564
 1075POPC   D2A16624   7.446  12.104   8.264
 1075POPC   C3A16625   7.375  12.114   7.964
 1075POPC   C4A16626   7.468  12.097   7.664
 1075POPC   C1B16627   7.640  11.930   8.564
 1075POPC   C2B16628   7.623  11.972   8.264
 1075POPC   C3B16629   7.643  11.891   7.964
 1075POPC   C4B16630   7.660  11.967   7.664
 1076POPC   NC316631   8.982  20.645   9.464
 1076POPC   PO416632   8.982  20.611   9.164
 1076POPC   GL116633   8.960  20.621   8.864
 1076POPC   GL216634   8.954  20.494   8.864
 1076POPC   C1A16635   8.991  20.587   8.564
 1076POPC   D2A16636   8.923  20.605   8.264
 1076POPC   C3A16637   8.942  20.626   7.964
 1076POPC   C4A16638   8.996  20.623   7.664
 1076POPC   C1B16639   8.962  20.323   8.564
 1076POPC   C2B16640   8.963  20.336   8.264
 1076POPC   C3B16641   8.956  20.320   7.964
 1076POPC   C4B16642   8.964  20.354   7.664
 1077POPC   NC316643  25.274  29.894   9.464
 1077POPC   PO416644  25.232  29.912   9.164
 1077POPC   GL116645  25.273  29.909   8.864
 1077POPC   GL216646  25.414  29.983   8.864
 1077POPC   C1A16647  25.263  29.959   8.564
 1077POPC   D2A16648  25.274  29.968   8.264
 1077POPC   C3A16649  25.226  29.893   7.964
 1077POPC   C4A16650  25.291  29.952   7.664
 1077POPC   C1B16651  25.504  29.972   8.564
 1077POPC   C2B16652  25.533  29.954   8.264
 1077POPC   C3B16653  25.519  29.989   7.964
 1077POPC   C4B16654  25.502  29.904   7.664
 1078POPC   NC316655  39.272  36.150   9.464
 1078POPC   PO416656  39.181  36.109   9.164
 1078POPC   GL116657  39.247  36.091   8.864
 1078POPC   GL216658  39.153  36.073   8.864
 1078POPC   C1A16659  39.212  36.145   8.564
 1078POPC   D2A16660  39.226  36.098   8.264
 1078POPC   C3A16661  39.280  36.143   7.964
 1078POPC   C4A16662  39.193  36.098   7.664
 1078POPC   C1B16663  39.049  35.995   8.564
 1078POPC   C2B16664  39.067  35.919   8.264
 1078POPC   C3B16665  39.066  35.950   7.964
 1078POPC   C4B16666  39.070  35.966   7.664
 1079POPC   NC316667  41.558  29.120   9.464
 1079POPC   PO416668  41.593  29.189   9.164
 1079POPC   GL116669  41.566  29.193   8.864
 1079POPC   GL216670  41.455  29.215   8.864
 1079POPC   C1A16671  41.552  29.151   8.564
 1079POPC   D2A16672  41.602  29.134   8.264
 1079POPC   C3A16673  41.590  29.130   7.964
 1079POPC   C4A16674  41.566  29.156   7.664
 1079POPC   C1B16675  41.349  29.221   8.564
 1079POPC   C2B16676  41.281  29.224   8.264
 1079POPC   C3B16677  41.272  29.178   7.964
 1079POPC   C4B16678  41.342  29.179   7.664
 1080POPC   NC316679   5.899  26.091   9.464
 1080POPC   PO416680   5.834  26.019   9.164
 1080POPC   GL116681   5.904  26.087   8.864
 1080POPC   GL216682   5.889  25.952   8.864
 1080POPC   C1A16683   5.821  26.007   8.564
 1080POPC   D2A16684   5.883  26.008   8.264
 1080POPC   C3A16685   5.835  25.998   7.964
 1080POPC   C4A16686   5.909  26.053   7.664
 1080POPC   C1B16687   5.899  25.794   8.564
 1080POPC   C2B16688   5.882  25.773   8.264
 1080POPC   C3B16689   5.973  25.758   7.964
 1080POPC   C4B16690   5.891  25.793   7.664
 1081POPC   NC316691  40.046   2.005   9.464
 1081POPC   PO416692  39.973   2.025   9.164
 1081POPC   GL116693  40.037   1.983   8.864
 1081POPC   GL216694  39.911   2.016   8.864
 1081POPC   C1A16695  39.997   2.022   8.564
 1081POPC   D2A16696  40.014   1.997   8.264
 1081POPC   C3A16697  40.023   1.994   7.964
 1081POPC   C4A16698  39.998   1.970   7.664
 1081POPC   C1B16699  39.805   1.990   8.564
 1081POPC   C2B16700  39.726   1.970   8.264
 1081POPC   C3B16701  39.764   1.971   7.964
 1081POPC   C4B16702  39.712   2.010   7.664
 1082POPC   NC316703   2.022   4.305   9.464
 1082POPC   PO416704   1.971   4.294   9.164
 1082POPC   GL116705   1.998   4.314   8.864
 1082POPC   GL216706   2.069   4.279   8.864
 1082POPC   C1A16707   2.024   4.310   8.564
 1082POPC   D2A16708   2.018   4.300   8.264
 1082POPC   C3A16709   2.027   4.268   7.964
 1082POPC   C4A16710   1.965   4.294   7.664
 1082POPC   C1B16711   2.203   4.177   8.564
 1082POPC   C2B16712   2.196   4.194   8.264
 1082POPC   C3B16713   2.230   4.210   7.964
 1082POPC   C4B16714   2.205   4.164   7.664
 1083POPC   NC316715  42.363  26.825   9.464
 1083POPC   PO416716  42.332  26.798   9.164
 1083POPC   GL116717  42.359  26.803   8.864
 1083POPC   GL216718  42.190  26.772   8.864
 1083POPC   C1A16719  42.321  26.804   8.564
 1083POPC   D2A16720  42.365  26.842   8.264
 1083POPC   C3A16721  42.326  26.785   7.964
 1083POPC   C4A16722  42.325  26.795   7.664
 1083POPC   C1B16723  42.066  26.832   8.564
 1083POPC   C2B16724  42.087  26.809   8.264
 1083POPC   C3B16725  42.060  26.813   7.964
 1083POPC   C4B16726  42.114  26.781   7.664
 1084POPC   NC316727   4.339  13.583   9.464
 1084POPC   PO416728   4.362  13.655   9.164
 1084POPC   GL116729   4.274  13.672   8.864
 1084POPC   GL216730   4.220  13.521   8.864
 1084POPC   C1A16731   4.310  13.638   8.564
 1084POPC   D2A16732   4.275  13.663   8.264
 1084POPC   C3A16733   4.351  13.602   7.964
 1084POPC   C4A16734   4.289  13.655   7.664
 1084POPC   C1B16735   4.136  13.430   8.564
 1084POPC   C2B16736   4.183  13.441   8.264
 1084POPC   C3B16737   4.198  13.480   7.964
 1084POPC   C4B16738   4.113  13.466   7.664
 1085POPC   NC316739  29.933  15.194   9.464
 1085POPC   PO416740  29.903  15.208   9.164
 1085POPC   GL116741  29.877  15.209   8.864
 1085POPC   GL216742  29.814  15.103   8.864
 1085POPC   C1A16743  29.958  15.207   8.564
 1085POPC   D2A16744  29.885  15.173   8.264
 1085POPC   C3A16745  29.928  15.153   7.964
 1085POPC   C4A16746  29.968  15.199   7.664
 1085POPC   C1B16747  29.809  14.971   8.564
 1085POPC   C2B16748  29.746  14.980   8.264
 1085POPC   C3B16749  29.829  14.929   7.964
 1085POPC   C4B16750  29.811  14.918   7.664
 1086POPC   NC316751  38.414  29.918   9.464
 1086POPC   PO416752  38.468  29.968   9.164
 1086POPC   GL116753  38.452  29.934   8.864
 1086POPC   GL216754  38.469  30.080   8.864
 1086POPC   C1A16755  38.415  29.938   8.564
 1086POPC   D2A16756  38.455  29.871   8.264
 1086POPC   C3A16757  38.472  29.921   7.964
 1086POPC   C4A16758  38.406  29.952   7.664
 1086POPC   C1B16759  38.406  30.207   8.564
 1086POPC   C2B16760  38.405  30.129   8.264
 1086POPC   C3B16761  38.466  30.121   7.964
 1086POPC   C4B16762  38.407  30.160   7.664
 1087POPC   NC316763  31.503  27.590   9.464
 1087POPC   PO416764  31.492  27.590   9.164
 1087POPC   GL116765  31.498  27.561   8.864
 1087POPC   GL216766  31.426  27.697   8.864
 1087POPC   C1A16767  31.452  27.630   8.564
 1087POPC   D2A16768  31.446  27.623   8.264
 1087POPC   C3A16769  31.485  27.628   7.964
 1087POPC   C4A16770  31.520  27.631   7.664
 1087POPC   C1B16771  31.456  27.849   8.564
 1087POPC   C2B16772  31.433  27.816   8.264
 1087POPC   C3B16773  31.436  27.825   7.964
 1087POPC   C4B16774  31.453  27.791   7.664
 1088POPC   NC316775  15.934   8.186   9.464
 1088POPC   PO416776  15.966   8.210   9.164
 1088POPC   GL116777  15.917   8.245   8.864
 1088POPC   GL216778  15.843   8.207   8.864
 1088POPC   C1A16779  15.945   8.147   8.564
 1088POPC   D2A16780  15.920   8.180   8.264
 1088POPC   C3A16781  15.993   8.154   7.964
 1088POPC   C4A16782  15.958   8.242   7.664
 1088POPC   C1B16783  15.744   8.163   8.564
 1088POPC   C2B16784  15.688   8.115   8.264
 1088POPC   C3B16785  15.673   8.144   7.964
 1088POPC   C4B16786  15.718   8.154   7.664
 1089POPC   NC316787  24.475  21.401   9.464
 1089POPC   PO416788  24.452  21.376   9.164
 1089POPC   GL116789  24.474  21.358   8.864
 1089POPC   GL216790  24.423  21.448   8.864
 1089POPC   C1A16791  24.481  21.416   8.564
 1089POPC   D2A16792  24.461  21.363   8.264
 1089POPC   C3A16793  24.466  21.408   7.964
 1089POPC   C4A16794  24.441  21.400   7.664
 1089POPC   C1B16795  24.297  21.554   8.564
 1089POPC   C2B16796  24.368  21.561   8.264
 1089POPC   C3B16797  24.344  21.622   7.964
 1089POPC   C4B16798  24.363  21.619   7.664
 1090POPC   NC316799  39.261  11.271   9.464
 1090POPC   PO416800  39.239  11.333   9.164
 1090POPC   GL116801  39.259  11.306   8.864
 1090POPC   GL216802  39.286  11.375   8.864
 1090POPC   C1A16803  39.238  11.285   8.564
 1090POPC   D2A16804  39.268  11.333   8.264
 1090POPC   C3A16805  39.213  11.296   7.964
 1090POPC   C4A16806  39.247  11.325   7.664
 1090POPC   C1B16807  39.402  11.419   8.564
 1090POPC   C2B16808  39.391  11.432   8.264
 1090POPC   C3B16809  39.420  11.481   7.964
 1090POPC   C4B16810  39.462  11.417   7.664
 1091POPC   NC316811   0.405  18.288   9.464
 1091POPC   PO416812   0.393  18.329   9.164
 1091POPC   GL116813   0.401  18.234   8.864
 1091POPC   GL216814   0.388  18.399   8.864
 1091POPC   C1A16815   0.434  18.268   8.564
 1091POPC   D2A16816   0.420  18.258   8.264
 1091POPC   C3A16817   0.448  18.285   7.964
 1091POPC   C4A16818   0.452  18.253   7.664
 1091POPC   C1B16819   0.272  18.498   8.564
 1091POPC   C2B16820   0.245  18.430   8.264
 1091POPC   C3B16821   0.240  18.503   7.964
 1091POPC   C4B16822   0.282  18.445   7.664
 1092POPC   NC316823   9.705  43.881   9.464
 1092POPC   PO416824   9.746  43.854   9.164
 1092POPC   GL116825   9.759  43.935   8.864
 1092POPC   GL216826   9.862  43.785   8.864
 1092POPC   C1A16827   9.730  43.919   8.564
 1092POPC   D2A16828   9.788  43.932   8.264
 1092POPC   C3A16829   9.705  43.859   7.964
 1092POPC   C4A16830   9.750  43.896   7.664
 1092POPC   C1B16831   9.876  43.698   8.564
 1092POPC   C2B16832   9.956  43.704   8.264
 1092POPC   C3B16833   9.857  43.713   7.964
 1092POPC   C4B16834   9.885  43.733   7.664
 1093POPC   NC316835  27.560  40.831   9.464
 1093POPC   PO416836  27.629  40.734   9.164
 1093POPC   GL116837  27.559  40.759   8.864
 1093POPC   GL216838  27.705  40.888   8.864
 1093POPC   C1A16839  27.576  40.826   8.564
 1093POPC   D2A16840  27.584  40.815   8.264
 1093POPC   C3A16841  27.600  40.802   7.964
 1093POPC   C4A16842  27.641  40.800   7.664
 1093POPC   C1B16843  27.773  40.967   8.564
 1093POPC   C2B16844  27.761  40.974   8.264
 1093POPC   C3B16845  27.826  40.921   7.964
 1093POPC   C4B16846  27.783  40.905   7.664
 1094POPC   NC316847  16.703   2.782   9.464
 1094POPC   PO416848  16.720   2.770   9.164
 1094POPC   GL116849  16.728   2.774   8.864
 1094POPC   GL216850  16.826   2.883   8.864
 1094POPC   C1A16851  16.693   2.737   8.564
 1094POPC   D2A16852  16.709   2.720   8.264
 1094POPC   C3A16853  16.712   2.738   7.964
 1094POPC   C4A16854  16.694   2.739   7.664
 1094POPC   C1B16855  16.891   2.923   8.564
 1094POPC   C2B16856  16.842   2.975   8.264
 1094POPC   C3B16857  16.849   2.923   7.964
 1094POPC   C4B16858  16.920   2.959   7.664
 1095POPC   NC316859  31.513   6.694   9.464
 1095POPC   PO416860  31.479   6.599   9.164
 1095POPC   GL116861  31.457   6.635   8.864
 1095POPC   GL216862  31.374   6.779   8.864
 1095POPC   C1A16863  31.472   6.611   8.564
 1095POPC   D2A16864  31.509   6.631   8.264
 1095POPC   C3A16865  31.456   6.620   7.964
 1095POPC   C4A16866  31.453   6.660   7.664
 1095POPC   C1B16867  31.300   6.826   8.564
 1095POPC   C2B16868  31.251   6.857   8.264
 1095POPC   C3B16869  31.313   6.808   7.964
 1095POPC   C4B16870  31.324   6.811   7.664
 1096POPC   NC316871  19.870  37.695   9.464
 1096POPC   PO416872  19.807  37.662   9.164
 1096POPC   GL116873  19.838  37.655   8.864
 1096POPC   GL216874  19.744  37.674   8.864
 1096POPC   C1A16875  19.877  37.659   8.564
 1096POPC   D2A16876  19.856  37.687   8.264
 1096POPC   C3A16877  19.805  37.666   7.964
 1096POPC   C4A16878  19.793  37.670   7.664
 1096POPC   C1B16879  19.576  37.743   8.564
 1096POPC   C2B16880  19.579  37.754   8.264
 1096POPC   C3B16881  19.619  37.729   7.964
 1096POPC   C4B16882  19.597  37.791   7.664
 1097POPC   NC316883  36.085  31.429   9.464
 1097POPC   PO416884  36.110  31.469   9.164
 1097POPC   GL116885  36.146  31.445   8.864
 1097POPC   GL216886  36.063  31.518   8.864
 1097POPC   C1A16887  36.130  31.454   8.564
 1097POPC   D2A16888  36.108  31.481   8.264
 1097POPC   C3A16889  36.080  31.520   7.964
 1097POPC   C4A16890  36.120  31.447   7.664
 1097POPC   C1B16891  35.907  31.638   8.564
 1097POPC   C2B16892  35.954  31.667   8.264
 1097POPC   C3B16893  35.960  31.590   7.964
 1097POPC   C4B16894  35.944  31.645   7.664
 1098POPC   NC316895  40.745   9.722   9.464
 1098POPC   PO416896  40.815   9.768   9.164
 1098POPC   GL116897  40.755   9.699   8.864
 1098POPC   GL216898  40.881   9.620   8.864
 1098POPC   C1A16899  40.794   9.778   8.564
 1098POPC   D2A16900  40.832   9.760   8.264
 1098POPC   C3A16901  40.779   9.707   7.964
 1098POPC   C4A16902  40.785   9.713   7.664
 1098POPC   C1B16903  40.959   9.560   8.564
 1098POPC   C2B16904  40.998   9.557   8.264
 1098POPC   C3B16905  40.978   9.568   7.964
 1098POPC   C4B16906  40.979   9.604   7.664
 1099POPC   NC316907  44.633   5.892   9.464
 1099POPC   PO416908  44.615   5.915   9.164
 1099POPC   GL116909  44.667   5.831   8.864
 1099POPC   GL216910  44.574   5.765   8.864
 1099POPC   C1A16911  44.636   5.883   8.564
 1099POPC   D2A16912  44.683   5.871   8.264
 1099POPC   C3A16913  44.616   5.894   7.964
 1099POPC   C4A16914  44.618   5.851   7.664
 1099POPC   C1B16915  44.525   5.688   8.564
 1099POPC   C2B16916  44.468   5.648   8.264
 1099POPC   C3B16917  44.483   5.697   7.964
 1099POPC   C4B16918  44.541   5.670   7.664
 1100POPC   NC316919  12.063  41.579   9.464
 1100POPC   PO416920  12.064  41.564   9.164
 1100POPC   GL116921  12.098  41.556   8.864
 1100POPC   GL216922  12.188  41.506   8.864
 1100POPC   C1A16923  12.115  41.557   8.564
 1100POPC   D2A16924  12.101  41.600   8.264
 1100POPC   C3A16925  12.111  41.566   7.964
 1100POPC   C4A16926  12.045  41.564   7.664
 1100POPC   C1B16927  12.226  41.338   8.564
 1100POPC   C2B16928  12.261  41.383   8.264
 1100POPC   C3B16929  12.213  41.394   7.964
 1100POPC   C4B16930  12.221  41.397   7.664
 1101POPC   NC316931   9.765  15.982   9.464
 1101POPC   PO416932   9.734  15.982   9.164
 1101POPC   GL116933   9.754  15.976   8.864
 1101POPC   GL216934   9.610  15.937   8.864
 1101POPC   C1A16935   9.776  15.968   8.564
 1101POPC   D2A16936   9.722  15.921   8.264
 1101POPC   C3A16937   9.756  15.956   7.964
 1101POPC   C4A16938   9.775  15.978   7.664
 1101POPC   C1B16939   9.534  15.853   8.564
 1101POPC   C2B16940   9.545  15.804   8.264
 1101POPC   C3B16941   9.500  15.817   7.964
 1101POPC   C4B16942   9.494  15.874   7.664
 1102POPC   NC316943  34.553  26.798   9.464
 1102POPC   PO416944  34.578  26.780   9.164
 1102POPC   GL116945  34.598  26.862   8.864
 1102POPC   GL216946  34.508  26.848   8.864
 1102POPC   C1A16947  34.622  26.840   8.564
 1102POPC   D2A16948  34.587  26.824   8.264
 1102POPC   C3A16949  34.577  26.853   7.964
 1102POPC   C4A16950  34.595  26.784   7.664
 1102POPC   C1B16951  34.351  26.990   8.564
 1102POPC   C2B16952  34.360  26.901   8.264
 1102POPC   C3B16953  34.312  26.974   7.964
 1102POPC   C4B16954  34.312  26.898   7.664
 1103POPC   NC316955  31.428  37.705   9.464
 1103POPC   PO416956  31.493  37.644   9.164
 1103POPC   GL116957  31.463  37.639   8.864
 1103POPC   GL216958  31.496  37.589   8.864
 1103POPC   C1A16959  31.445  37.685   8.564
 1103POPC   D2A16960  31.477  37.630   8.264
 1103POPC   C3A16961  31.520  37.657   7.964
 1103POPC   C4A16962  31.507  37.710   7.664
 1103POPC   C1B16963  31.588  37.432   8.564
 1103POPC   C2B16964  31.539  37.495   8.264
 1103POPC   C3B16965  31.535  37.410   7.964
 1103POPC   C4B16966  31.556  37.460   7.664
 1104POPC   NC316967  34.592   1.985   9.464
 1104POPC   PO416968  34.615   1.974   9.164
 1104POPC   GL116969  34.604   2.012   8.864
 1104POPC   GL216970  34.436   1.988   8.864
 1104POPC   C1A16971  34.549   2.040   8.564
 1104POPC   D2A16972  34.554   1.949   8.264
 1104POPC   C3A16973  34.551   2.018   7.964
 1104POPC   C4A16974  34.609   2.005   7.664
 1104POPC   C1B16975  34.337   2.028   8.564
 1104POPC   C2B16976  34.344   1.988   8.264
 1104POPC   C3B16977  34.300   2.058   7.964
 1104POPC   C4B16978  34.321   2.008   7.664
 1105POPC   NC316979   6.684  33.794   9.464
 1105POPC   PO416980   6.604  33.772   9.164
 1105POPC   GL116981   6.645  33.809   8.864
 1105POPC   GL216982   6.730  33.792   8.864
 1105POPC   C1A16983   6.608  33.832   8.564
 1105POPC   D2A16984   6.597  33.797   8.264
 1105POPC   C3A16985   6.660  33.848   7.964
 1105POPC   C4A16986   6.601  33.791   7.664
 1105POPC   C1B16987   6.911  33.652   8.564
 1105POPC   C2B16988   6.869  33.667   8.264
 1105POPC   C3B16989   6.851  33.666   7.964
 1105POPC   C4B16990   6.880  33.693   7.664
 1106POPC   NC316991  26.031  38.488   9.464
 1106POPC   PO416992  26.083  38.468   9.164
 1106POPC   GL116993  26.001  38.449   8.864
 1106POPC   GL216994  26.110  38.584   8.864
 1106POPC   C1A16995  26.031  38.412   8.564
 1106POPC   D2A16996  26.077  38.410   8.264
 1106POPC   C3A16997  26.037  38.429   7.964
 1106POPC   C4A16998  26.049  38.469   7.664
 1106POPC   C1B16999  26.143  38.665   8.564
 1106POPC   C2B17000  26.100  38.664   8.264
 1106POPC   C3B17001  26.141  38.728   7.964
 1106POPC   C4B17002  26.152  38.642   7.664
 1107POPC   NC317003   8.218  43.857   9.464
 1107POPC   PO417004   8.233  43.935   9.164
 1107POPC   GL117005   8.228  43.871   8.864
 1107POPC   GL217006   8.180  43.728   8.864
 1107POPC   C1A17007   8.172  43.839   8.564
 1107POPC   D2A17008   8.199  43.884   8.264
 1107POPC   C3A17009   8.220  43.914   7.964
 1107POPC   C4A17010   8.220  43.899   7.664
 1107POPC   C1B17011   8.120  43.614   8.564
 1107POPC   C2B17012   8.166  43.670   8.264
 1107POPC   C3B17013   8.092  43.645   7.964
 1107POPC   C4B17014   8.139  43.614   7.664
 1108POPC   NC317015  16.733  15.182   9.464
 1108POPC   PO417016  16.696  15.140   9.164
 1108POPC   GL117017  16.747  15.152   8.864
 1108POPC   GL217018  16.754  15.323   8.864
 1108POPC   C1A17019  16.724  15.154   8.564
 1108POPC   D2A17020  16.699  15.143   8.264
 1108POPC   C3A17021  16.700  15.173   7.964
 1108POPC   C4A17022  16.763  15.202   7.664
 1108POPC   C1B17023  16.779  15.395   8.564
 1108POPC   C2B17024  16.825  15.409   8.264
 1108POPC   C3B17025  16.850  15.436   7.964
 1108POPC   C4B17026  16.825  15.369   7.664
 1109POPC   NC317027  14.414  16.724   9.464
 1109POPC   PO417028  14.388  16.686   9.164
 1109POPC   GL117029  14.401  16.774   8.864
 1109POPC   GL217030  14.462  16.589   8.864
 1109POPC   C1A17031  14.382  16.774   8.564
 1109POPC   D2A17032  14.445  16.742   8.264
 1109POPC   C3A17033  14.417  16.772   7.964
 1109POPC   C4A17034  14.387  16.684   7.664
 1109POPC   C1B17035  14.415  16.499   8.564
 1109POPC   C2B17036  14.431  16.506   8.264
 1109POPC   C3B17037  14.420  16.445   7.964
 1109POPC   C4B17038  14.486  16.526   7.664
 1110POPC   NC317039  11.305  13.656   9.464
 1110POPC   PO417040  11.301  13.663   9.164
 1110POPC   GL117041  11.275  13.650   8.864
 1110POPC   GL217042  11.255  13.746   8.864
 1110POPC   C1A17043  11.304  13.618   8.564
 1110POPC   D2A17044  11.295  13.640   8.264
 1110POPC   C3A17045  11.311  13.672   7.964
 1110POPC   C4A17046  11.256  13.667   7.664
 1110POPC   C1B17047  11.239  13.905   8.564
 1110POPC   C2B17048  11.232  13.837   8.264
 1110POPC   C3B17049  11.200  13.850   7.964
 1110POPC   C4B17050  11.228  13.884   7.664
 1111POPC   NC317051  16.762  22.147   9.464
 1111POPC   PO417052  16.700  22.212   9.164
 1111POPC   GL117053  16.710  22.153   8.864
 1111POPC   GL217054  16.678  22.035   8.864
 1111POPC   C1A17055  16.736  22.181   8.564
 1111POPC   D2A17056  16.715  22.189   8.264
 1111POPC   C3A17057  16.695  22.135   7.964
 1111POPC   C4A17058  16.714  22.209   7.664
 1111POPC   C1B17059  16.659  21.962   8.564
 1111POPC   C2B17060  16.714  21.873   8.264
 1111POPC   C3B17061  16.725  21.866   7.964
 1111POPC   C4B17062  16.730  21.939   7.664
 1112POPC   NC317063  12.821  28.374   9.464
 1112POPC   PO417064  12.858  28.361   9.164
 1112POPC   GL117065  12.825  28.342   8.864
 1112POPC   GL217066  12.914  28.304   8.864
 1112POPC   C1A17067  12.879  28.337   8.564
 1112POPC   D2A17068  12.865  28.333   8.264
 1112POPC   C3A17069  12.868  28.326   7.964
 1112POPC   C4A17070  12.823  28.365   7.664
 1112POPC   C1B17071  12.913  28.125   8.564
 1112POPC   C2B17072  12.935  28.184   8.264
 1112POPC   C3B17073  12.994  28.128   7.964
 1112POPC   C4B17074  12.969  28.093   7.664
 1113POPC   NC317075  43.843  30.673   9.464
 1113POPC   PO417076  43.924  30.654   9.164
 1113POPC   GL117077  43.930  30.716   8.864
 1113POPC   GL217078  43.733  30.600   8.864
 1113POPC   C1A17079  43.858  30.703   8.564
 1113POPC   D2A17080  43.915  30.683   8.264
 1113POPC   C3A17081  43.869  30.657   7.964
 1113POPC   C4A17082  43.931  30.705   7.664
 1113POPC   C1B17083  43.641  30.616   8.564
 1113POPC   C2B17084  43.666  30.549   8.264
 1113POPC   C3B17085  43.656  30.642   7.964
 1113POPC   C4B17086  43.645  30.624   7.664
 1114POPC   NC317087  15.982  12.833   9.464
 1114POPC   PO417088  15.951  12.862   9.164
 1114POPC   GL117089  15.973  12.808   8.864
 1114POPC   GL217090  16.046  12.756   8.864
 1114POPC   C1A17091  15.921  12.823   8.564
 1114POPC   D2A17092  15.989  12.860   8.264
 1114POPC   C3A17093  15.945  12.898   7.964
 1114POPC   C4A17094  15.920  12.826   7.664
 1114POPC   C1B17095  16.018  12.570   8.564
 1114POPC   C2B17096  16.040  12.572   8.264
 1114POPC   C3B17097  16.011  12.639   7.964
 1114POPC   C4B17098  16.023  12.647   7.664
 1115POPC   NC317099  22.893   4.313   9.464
 1115POPC   PO417100  22.963   4.288   9.164
 1115POPC   GL117101  22.903   4.335   8.864
 1115POPC   GL217102  22.864   4.259   8.864
 1115POPC   C1A17103  22.927   4.353   8.564
 1115POPC   D2A17104  22.941   4.287   8.264
 1115POPC   C3A17105  22.890   4.341   7.964
 1115POPC   C4A17106  22.955   4.316   7.664
 1115POPC   C1B17107  22.684   4.189   8.564
 1115POPC   C2B17108  22.659   4.234   8.264
 1115POPC   C3B17109  22.731   4.223   7.964
 1115POPC   C4B17110  22.750   4.260   7.664
 1116POPC   NC317111  33.770  24.517   9.464
 1116POPC   PO417112  33.782  24.489   9.164
 1116POPC   GL117113  33.755  24.498   8.864
 1116POPC   GL217114  33.897  24.407   8.864
 1116POPC   C1A17115  33.840  24.480   8.564
 1116POPC   D2A17116  33.796  24.506   8.264
 1116POPC   C3A17117  33.790  24.472   7.964
 1116POPC   C4A17118  33.837  24.458   7.664
 1116POPC   C1B17119  34.045  24.404   8.564
 1116POPC   C2B17120  34.009  24.339   8.264
 1116POPC   C3B17121  33.985  24.342   7.964
 1116POPC   C4B17122  34.064  24.322   7.664
 1117POPC   NC317123  22.891   5.878   9.464
 1117POPC   PO417124  22.940   5.841   9.164
 1117POPC   GL117125  22.954   5.865   8.864
 1117POPC   GL217126  22.842   5.732   8.864
 1117POPC   C1A17127  22.967   5.831   8.564
 1117POPC   D2A17128  22.905   5.820   8.264
 1117POPC   C3A17129  22.919   5.833   7.964
 1117POPC   C4A17130  22.961   5.829   7.664
 1117POPC   C1B17131  22.836   5.650   8.564
 1117POPC   C2B17132  22.778   5.699   8.264
 1117POPC   C3B17133  22.811   5.636   7.964
 1117POPC   C4B17134  22.810   5.696   7.664
 1118POPC   NC317135  29.876  19.044   9.464
 1118POPC   PO417136  29.923  19.066   9.164
 1118POPC   GL117137  29.872  19.038   8.864
 1118POPC   GL217138  29.838  19.079   8.864
 1118POPC   C1A17139  29.963  19.072   8.564
 1118POPC   D2A17140  29.933  19.071   8.264
 1118POPC   C3A17141  29.968  19.039   7.964
 1118POPC   C4A17142  29.929  19.026   7.664
 1118POPC   C1B17143  29.746  19.203   8.564
 1118POPC   C2B17144  29.686  19.157   8.264
 1118POPC   C3B17145  29.672  19.151   7.964
 1118POPC   C4B17146  29.701  19.225   7.664
 1119POPC   NC317147   6.663  11.303   9.464
 1119POPC   PO417148   6.646  11.323   9.164
 1119POPC   GL117149   6.680  11.320   8.864
 1119POPC   GL217150   6.727  11.157   8.864
 1119POPC   C1A17151   6.663  11.283   8.564
 1119POPC   D2A17152   6.653  11.337   8.264
 1119POPC   C3A17153   6.621  11.348   7.964
 1119POPC   C4A17154   6.596  11.332   7.664
 1119POPC   C1B17155   6.795  11.105   8.564
 1119POPC   C2B17156   6.782  11.160   8.264
 1119POPC   C3B17157   6.830  11.101   7.964
 1119POPC   C4B17158   6.862  11.118   7.664
 1120POPC   NC317159   9.797  11.281   9.464
 1120POPC   PO417160   9.716  11.300   9.164
 1120POPC   GL117161   9.797  11.270   8.864
 1120POPC   GL217162   9.664  11.329   8.864
 1120POPC   C1A17163   9.718  11.268   8.564
 1120POPC   D2A17164   9.743  11.321   8.264
 1120POPC   C3A17165   9.698  11.298   7.964
 1120POPC   C4A17166   9.743  11.268   7.664
 1120POPC   C1B17167   9.530  11.424   8.564
 1120POPC   C2B17168   9.528  11.429   8.264
 1120POPC   C3B17169   9.520  11.348   7.964
 1120POPC   C4B17170   9.493  11.386   7.664
 1121POPC   NC317171  35.375  33.073   9.464
 1121POPC   PO417172  35.340  33.059   9.164
 1121POPC   GL117173  35.330  33.043   8.864
 1121POPC   GL217174  35.236  33.143   8.864
 1121POPC   C1A17175  35.329  33.038   8.564
 1121POPC   D2A17176  35.343  33.014   8.264
 1121POPC   C3A17177  35.320  33.025   7.964
 1121POPC   C4A17178  35.368  32.988   7.664
 1121POPC   C1B17179  35.159  33.172   8.564
 1121POPC   C2B17180  35.217  33.221   8.264
 1121POPC   C3B17181  35.206  33.216   7.964
 1121POPC   C4B17182  35.156  33.201   7.664
 1122POPC   NC317183  20.650  24.465   9.464
 1122POPC   PO417184  20.571  24.473   9.164
 1122POPC   GL117185  20.629  24.532   8.864
 1122POPC   GL217186  20.527  24.456   8.864
 1122POPC   C1A17187  20.645  24.444   8.564
 1122POPC   D2A17188  20.628  24.481   8.264
 1122POPC   C3A17189  20.631  24.449   7.964
 1122POPC   C4A17190  20.607  24.450   7.664
 1122POPC   C1B17191  20.388  24.425   8.564
 1122POPC   C2B17192  20.328  24.491   8.264
 1122POPC   C3B17193  20.372  24.397   7.964
 1122POPC   C4B17194  20.332  24.430   7.664
 1123POPC   NC317195  44.658  10.489   9.464
 1123POPC   PO417196  44.694  10.516   9.164
 1123POPC   GL117197  44.680  10.485   8.864
 1123POPC   GL217198  44.720  10.373   8.864
 1123POPC   C1A17199  44.641  10.509   8.564
 1123POPC   D2A17200  44.626  10.508   8.264
 1123POPC   C3A17201  44.687  10.488   7.964
 1123POPC   C4A17202  44.655  10.528   7.664
 1123POPC   C1B17203  44.821  10.279   8.564
 1123POPC   C2B17204  44.807  10.299   8.264
 1123POPC   C3B17205  44.771  10.319   7.964
 1123POPC   C4B17206  44.766  10.320   7.664
 1124POPC   NC317207  21.342   1.165   9.464
 1124POPC   PO417208  21.414   1.241   9.164
 1124POPC   GL117209  21.376   1.235   8.864
 1124POPC   GL217210  21.388   1.133   8.864
 1124POPC   C1A17211  21.424   1.259   8.564
 1124POPC   D2A17212  21.431   1.190   8.264
 1124POPC   C3A17213  21.396   1.199   7.964
 1124POPC   C4A17214  21.435   1.188   7.664
 1124POPC   C1B17215  21.458   0.925   8.564
 1124POPC   C2B17216  21.397   0.919   8.264
 1124POPC   C3B17217  21.438   0.953   7.964
 1124POPC   C4B17218  21.402   0.947   7.664
 1125POPC   NC317219  24.469  40.827   9.464
 1125POPC   PO417220  24.452  40.751   9.164
 1125POPC   GL117221  24.517  40.783   8.864
 1125POPC   GL217222  24.332  40.683   8.864
 1125POPC   C1A17223  24.538  40.771   8.564
 1125POPC   D2A17224  24.441  40.754   8.264
 1125POPC   C3A17225  24.537  40.758   7.964
 1125POPC   C4A17226  24.524  40.767   7.664
 1125POPC   C1B17227  24.303  40.706   8.564
 1125POPC   C2B17228  24.275  40.688   8.264
 1125POPC   C3B17229  24.318  40.653   7.964
 1125POPC   C4B17230  24.299  40.658   7.664
 1126POPC   NC317231  43.076  21.382   9.464
 1126POPC   PO417232  43.120  21.395   9.164
 1126POPC   GL117233  43.123  21.426   8.864
 1126POPC   GL217234  43.187  21.358   8.864
 1126POPC   C1A17235  43.149  21.384   8.564
 1126POPC   D2A17236  43.098  21.384   8.264
 1126POPC   C3A17237  43.126  21.369   7.964
 1126POPC   C4A17238  43.080  21.435   7.664
 1126POPC   C1B17239  43.331  21.464   8.564
 1126POPC   C2B17240  43.399  21.439   8.264
 1126POPC   C3B17241  43.348  21.419   7.964
 1126POPC   C4B17242  43.373  21.451   7.664
 1127POPC   NC317243  30.657   5.083   9.464
 1127POPC   PO417244  30.662   5.104   9.164
 1127POPC   GL117245  30.746   5.113   8.864
 1127POPC   GL217246  30.776   4.945   8.864
 1127POPC   C1A17247  30.663   5.134   8.564
 1127POPC   D2A17248  30.706   5.079   8.264
 1127POPC   C3A17249  30.725   5.072   7.964
 1127POPC   C4A17250  30.744   5.048   7.664
 1127POPC   C1B17251  30.774   4.901   8.564
 1127POPC   C2B17252  30.742   4.865   8.264
 1127POPC   C3B17253  30.750   4.888   7.964
 1127POPC   C4B17254  30.780   4.888   7.664
 1128POPC   NC317255  21.432  32.291   9.464
 1128POPC   PO417256  21.346  32.219   9.164
 1128POPC   GL117257  21.356  32.287   8.864
 1128POPC   GL217258  21.257  32.311   8.864
 1128POPC   C1A17259  21.415  32.253   8.564
 1128POPC   D2A17260  21.348  32.283   8.264
 1128POPC   C3A17261  21.367  32.243   7.964
 1128POPC   C4A17262  21.385  32.228   7.664
 1128POPC   C1B17263  21.125  32.362   8.564
 1128POPC   C2B17264  21.116  32.371   8.264
 1128POPC   C3B17265  21.117  32.305   7.964
 1128POPC   C4B17266  21.117  32.357   7.664
 1129POPC   NC317267  12.808   2.788   9.464
 1129POPC   PO417268  12.869   2.765   9.164
 1129POPC   GL117269  12.880   2.743   8.864
 1129POPC   GL217270  12.736   2.719   8.864
 1129POPC   C1A17271  12.849   2.776   8.564
 1129POPC   D2A17272  12.874   2.759   8.264
 1129POPC   C3A17273  12.849   2.784   7.964
 1129POPC   C4A17274  12.815   2.717   7.664
 1129POPC   C1B17275  12.574   2.754   8.564
 1129POPC   C2B17276  12.584   2.736   8.264
 1129POPC   C3B17277  12.590   2.743   7.964
 1129POPC   C4B17278  12.623   2.697   7.664
 1130POPC   NC317279  15.988  22.195   9.464
 1130POPC   PO417280  15.967  22.204   9.164
 1130POPC   GL117281  16.004  22.123   8.864
 1130POPC   GL217282  16.014  22.023   8.864
 1130POPC   C1A17283  15.951  22.151   8.564
 1130POPC   D2A17284  15.929  22.159   8.264
 1130POPC   C3A17285  15.959  22.206   7.964
 1130POPC   C4A17286  15.995  22.212   7.664
 1130POPC   C1B17287  15.999  21.915   8.564
 1130POPC   C2B17288  15.976  21.886   8.264
 1130POPC   C3B17289  15.938  21.943   7.964
 1130POPC   C4B17290  15.962  21.890   7.664
 1131POPC   NC317291  33.832  28.327   9.464
 1131POPC   PO417292  33.760  28.351   9.164
 1131POPC   GL117293  33.824  28.404   8.864
 1131POPC   GL217294  33.893  28.477   8.864
 1131POPC   C1A17295  33.775  28.399   8.564
 1131POPC   D2A17296  33.840  28.399   8.264
 1131POPC   C3A17297  33.791  28.331   7.964
 1131POPC   C4A17298  33.774  28.350   7.664
 1131POPC   C1B17299  33.938  28.586   8.564
 1131POPC   C2B17300  33.940  28.561   8.264
 1131POPC   C3B17301  33.959  28.596   7.964
 1131POPC   C4B17302  33.932  28.564   7.664
 1132POPC   NC317303  33.039  21.339   9.464
 1132POPC   PO417304  33.024  21.362   9.164
 1132POPC   GL117305  33.072  21.355   8.864
 1132POPC   GL217306  33.062  21.497   8.864
 1132POPC   C1A17307  33.040  21.354   8.564
 1132POPC   D2A17308  33.024  21.395   8.264
 1132POPC   C3A17309  32.999  21.346   7.964
 1132POPC   C4A17310  33.044  21.373   7.664
 1132POPC   C1B17311  33.122  21.630   8.564
 1132POPC   C2B17312  33.069  21.592   8.264
 1132POPC   C3B17313  33.099  21.576   7.964
 1132POPC   C4B17314  33.139  21.612   7.664
 1133POPC   NC317315  23.671  23.666   9.464
 1133POPC   PO417316  23.675  23.674   9.164
 1133POPC   GL117317  23.685  23.734   8.864
 1133POPC   GL217318  23.797  23.731   8.864
 1133POPC   C1A17319  23.700  23.677   8.564
 1133POPC   D2A17320  23.761  23.680   8.264
 1133POPC   C3A17321  23.759  23.692   7.964
 1133POPC   C4A17322  23.749  23.753   7.664
 1133POPC   C1B17323  23.926  23.750   8.564
 1133POPC   C2B17324  23.969  23.778   8.264
 1133POPC   C3B17325  23.939  23.757   7.964
 1133POPC   C4B17326  23.912  23.730   7.664
 1134POPC   NC317327  19.107   5.050   9.464
 1134POPC   PO417328  19.085   5.100   9.164
 1134POPC   GL117329  19.067   5.123   8.864
 1134POPC   GL217330  19.178   5.182   8.864
 1134POPC   C1A17331  19.075   5.126   8.564
 1134POPC   D2A17332  19.027   5.086   8.264
 1134POPC   C3A17333  19.060   5.086   7.964
 1134POPC   C4A17334  19.100   5.062   7.664
 1134POPC   C1B17335  19.260   5.142   8.564
 1134POPC   C2B17336  19.282   5.165   8.264
 1134POPC   C3B17337  19.332   5.215   7.964
 1134POPC   C4B17338  19.259   5.140   7.664
 1135POPC   NC317339  12.875   2.028   9.464
 1135POPC   PO417340  12.863   2.004   9.164
 1135POPC   GL117341  12.848   2.005   8.864
 1135POPC   GL217342  12.682   1.959   8.864
 1135POPC   C1A17343  12.817   2.002   8.564
 1135POPC   D2A17344  12.866   1.952   8.264
 1135POPC   C3A17345  12.804   1.997   7.964
 1135POPC   C4A17346  12.808   2.018   7.664
 1135POPC   C1B17347  12.556   1.997   8.564
 1135POPC   C2B17348  12.605   1.958   8.264
 1135POPC   C3B17349  12.608   1.959   7.964
 1135POPC   C4B17350  12.554   2.009   7.664
 1136POPC   NC317351  15.940  21.433   9.464
 1136POPC   PO417352  15.978  21.371   9.164
 1136POPC   GL117353  15.995  21.360   8.864
 1136POPC   GL217354  16.039  21.260   8.864
 1136POPC   C1A17355  15.926  21.365   8.564
 1136POPC   D2A17356  15.987  21.361   8.264
 1136POPC   C3A17357  15.996  21.387   7.964
 1136POPC   C4A17358  15.954  21.396   7.664
 1136POPC   C1B17359  16.069  21.198   8.564
 1136POPC   C2B17360  16.044  21.221   8.264
 1136POPC   C3B17361  16.052  21.155   7.964
 1136POPC   C4B17362  16.061  21.142   7.664
 1137POPC   NC317363  34.531  33.844   9.464
 1137POPC   PO417364  34.536  33.816   9.164
 1137POPC   GL117365  34.543  33.814   8.864
 1137POPC   GL217366  34.473  33.777   8.864
 1137POPC   C1A17367  34.591  33.775   8.564
 1137POPC   D2A17368  34.619  33.845   8.264
 1137POPC   C3A17369  34.558  33.808   7.964
 1137POPC   C4A17370  34.529  33.819   7.664
 1137POPC   C1B17371  34.358  33.751   8.564
 1137POPC   C2B17372  34.381  33.695   8.264
 1137POPC   C3B17373  34.374  33.723   7.964
 1137POPC   C4B17374  34.309  33.664   7.664
 1138POPC   NC317375  29.875  38.458   9.464
 1138POPC   PO417376  29.875  38.432   9.164
 1138POPC   GL117377  29.952  38.429   8.864
 1138POPC   GL217378  29.802  38.427   8.864
 1138POPC   C1A17379  29.880  38.470   8.564
 1138POPC   D2A17380  29.878  38.436   8.264
 1138POPC   C3A17381  29.927  38.434   7.964
 1138POPC   C4A17382  29.956  38.475   7.664
 1138POPC   C1B17383  29.683  38.387   8.564
 1138POPC   C2B17384  29.689  38.389   8.264
 1138POPC   C3B17385  29.714  38.415   7.964
 1138POPC   C4B17386  29.701  38.440   7.664
 1139POPC   NC317387  41.520   0.417   9.464
 1139POPC   PO417388  41.534   0.418   9.164
 1139POPC   GL117389  41.552   0.414   8.864
 1139POPC   GL217390  41.421   0.531   8.864
 1139POPC   C1A17391  41.538   0.422   8.564
 1139POPC   D2A17392  41.523   0.443   8.264
 1139POPC   C3A17393  41.599   0.417   7.964
 1139POPC   C4A17394  41.603   0.450   7.664
 1139POPC   C1B17395  41.389   0.565   8.564
 1139POPC   C2B17396  41.340   0.612   8.264
 1139POPC   C3B17397  41.390   0.556   7.964
 1139POPC   C4B17398  41.335   0.608   7.664
 1140POPC   NC317399  44.693   5.058   9.464
 1140POPC   PO417400  44.685   5.083   9.164
 1140POPC   GL117401  44.711   5.057   8.864
 1140POPC   GL217402  44.662   4.923   8.864
 1140POPC   C1A17403  44.655   5.105   8.564
 1140POPC   D2A17404  44.664   5.102   8.264
 1140POPC   C3A17405  44.646   5.071   7.964
 1140POPC   C4A17406  44.654   5.136   7.664
 1140POPC   C1B17407  44.747   4.827   8.564
 1140POPC   C2B17408  44.681   4.814   8.264
 1140POPC   C3B17409  44.657   4.853   7.964
 1140POPC   C4B17410  44.708   4.877   7.664
 1141POPC   NC317411  35.387   1.175   9.464
 1141POPC   PO417412  35.400   1.207   9.164
 1141POPC   GL117413  35.328   1.171   8.864
 1141POPC   GL217414  35.376   1.098   8.864
 1141POPC   C1A17415  35.380   1.186   8.564
 1141POPC   D2A17416  35.339   1.181   8.264
 1141POPC   C3A17417  35.312   1.231   7.964
 1141POPC   C4A17418  35.391   1.255   7.664
 1141POPC   C1B17419  35.337   0.992   8.564
 1141POPC   C2B17420  35.344   0.958   8.264
 1141POPC   C3B17421  35.407   0.937   7.964
 1141POPC   C4B17422  35.369   0.993   7.664
 1142POPC   NC317423  39.966  26.054   9.464
 1142POPC   PO417424  39.963  26.083   9.164
 1142POPC   GL117425  39.963  26.031   8.864
 1142POPC   GL217426  39.974  26.165   8.864
 1142POPC   C1A17427  40.000  26.042   8.564
 1142POPC   D2A17428  39.996  26.075   8.264
 1142POPC   C3A17429  40.022  26.085   7.964
 1142POPC   C4A17430  40.004  26.008   7.664
 1142POPC   C1B17431  39.848  26.285   8.564
 1142POPC   C2B17432  39.832  26.215   8.264
 1142POPC   C3B17433  39.887  26.203   7.964
 1142POPC   C4B17434  39.907  26.228   7.664
 1143POPC   NC317435   0.419   8.160   9.464
 1143POPC   PO417436   0.422   8.171   9.164
 1143POPC   GL117437   0.457   8.170   8.864
 1143POPC   GL217438   0.346   8.231   8.864
 1143POPC   C1A17439   0.409   8.215   8.564
 1143POPC   D2A17440   0.425   8.202   8.264
 1143POPC   C3A17441   0.419   8.234   7.964
 1143POPC   C4A17442   0.461   8.228   7.664
 1143POPC   C1B17443   0.145   8.252   8.564
 1143POPC   C2B17444   0.201   8.229   8.264
 1143POPC   C3B17445   0.192   8.200   7.964
 1143POPC   C4B17446   0.235   8.264   7.664
 1144POPC   NC317447  40.788  38.430   9.464
 1144POPC   PO417448  40.820  38.471   9.164
 1144POPC   GL117449  40.752  38.446   8.864
 1144POPC   GL217450  40.761  38.559   8.864
 1144POPC   C1A17451  40.752  38.464   8.564
 1144POPC   D2A17452  40.796  38.458   8.264
 1144POPC   C3A17453  40.739  38.477   7.964
 1144POPC   C4A17454  40.759  38.459   7.664
 1144POPC   C1B17455  40.803  38.735   8.564
 1144POPC   C2B17456  40.748  38.694   8.264
 1144POPC   C3B17457  40.781  38.669   7.964
 1144POPC   C4B17458  40.740  38.713   7.664
 1145POPC   NC317459  41.549  15.908   9.464
 1145POPC   PO417460  41.605  16.001   9.164
 1145POPC   GL117461  41.600  15.909   8.864
 1145POPC   GL217462  41.669  15.969   8.864
 1145POPC   C1A17463  41.548  15.964   8.564
 1145POPC   D2A17464  41.524  15.976   8.264
 1145POPC   C3A17465  41.523  15.951   7.964
 1145POPC   C4A17466  41.538  15.956   7.664
 1145POPC   C1B17467  41.794  16.036   8.564
 1145POPC   C2B17468  41.811  16.065   8.264
 1145POPC   C3B17469  41.783  16.022   7.964
 1145POPC   C4B17470  41.788  16.051   7.664
 1146POPC   NC317471   2.768  38.485   9.464
 1146POPC   PO417472   2.723  38.421   9.164
 1146POPC   GL117473   2.738  38.495   8.864
 1146POPC   GL217474   2.865  38.587   8.864
 1146POPC   C1A17475   2.738  38.458   8.564
 1146POPC   D2A17476   2.777  38.409   8.264
 1146POPC   C3A17477   2.797  38.450   7.964
 1146POPC   C4A17478   2.769  38.502   7.664
 1146POPC   C1B17479   2.968  38.673   8.564
 1146POPC   C2B17480   2.917  38.583   8.264
 1146POPC   C3B17481   2.954  38.632   7.964
 1146POPC   C4B17482   2.979  38.596   7.664
 1147POPC   NC317483  36.137  19.799   9.464
 1147POPC   PO417484  36.168  19.829   9.164
 1147POPC   GL117485  36.152  19.792   8.864
 1147POPC   GL217486  36.146  19.972   8.864
 1147POPC   C1A17487  36.080  19.831   8.564
 1147POPC   D2A17488  36.105  19.801   8.264
 1147POPC   C3A17489  36.087  19.790   7.964
 1147POPC   C4A17490  36.093  19.858   7.664
 1147POPC   C1B17491  36.234  20.041   8.564
 1147POPC   C2B17492  36.241  20.080   8.264
 1147POPC   C3B17493  36.227  20.023   7.964
 1147POPC   C4B17494  36.180  20.036   7.664
 1148POPC   NC317495  24.467   5.104   9.464
 1148POPC   PO417496  24.531   5.103   9.164
 1148POPC   GL117497  24.457   5.141   8.864
 1148POPC   GL217498  24.334   5.193   8.864
 1148POPC   C1A17499  24.518   5.130   8.564
 1148POPC   D2A17500  24.481   5.117   8.264
 1148POPC   C3A17501  24.516   5.077   7.964
 1148POPC   C4A17502  24.537   5.111   7.664
 1148POPC   C1B17503  24.268   5.187   8.564
 1148POPC   C2B17504  24.226   5.190   8.264
 1148POPC   C3B17505  24.268   5.230   7.964
 1148POPC   C4B17506  24.273   5.229   7.664
 1149POPC   NC317507  26.826   8.973   9.464
 1149POPC   PO417508  26.855   8.989   9.164
 1149POPC   GL117509  26.769   9.007   8.864
 1149POPC   GL217510  26.712   8.912   8.864
 1149POPC   C1A17511  26.782   8.985   8.564
 1149POPC   D2A17512  26.784   8.931   8.264
 1149POPC   C3A17513  26.831   8.948   7.964
 1149POPC   C4A17514  26.792   8.932   7.664
 1149POPC   C1B17515  26.551   8.891   8.564
 1149POPC   C2B17516  26.542   8.884   8.264
 1149POPC   C3B17517  26.615   8.852   7.964
 1149POPC   C4B17518  26.596   8.873   7.664
 1150POPC   NC317519  26.819  40.008   9.464
 1150POPC   PO417520  26.792  39.983   9.164
 1150POPC   GL117521  26.826  40.043   8.864
 1150POPC   GL217522  26.750  39.886   8.864
 1150POPC   C1A17523  26.815  40.012   8.564
 1150POPC   D2A17524  26.814  40.011   8.264
 1150POPC   C3A17525  26.787  40.015   7.964
 1150POPC   C4A17526  26.771  40.032   7.664
 1150POPC   C1B17527  26.743  39.763   8.564
 1150POPC   C2B17528  26.737  39.775   8.264
 1150POPC   C3B17529  26.696  39.732   7.964
 1150POPC   C4B17530  26.774  39.783   7.664
 1151POPC   NC317531  39.207  28.415   9.464
 1151POPC   PO417532  39.189  28.327   9.164
 1151POPC   GL117533  39.256  28.375   8.864
 1151POPC   GL217534  39.164  28.450   8.864
 1151POPC   C1A17535  39.192  28.400   8.564
 1151POPC   D2A17536  39.249  28.415   8.264
 1151POPC   C3A17537  39.250  28.363   7.964
 1151POPC   C4A17538  39.226  28.411   7.664
 1151POPC   C1B17539  39.035  28.479   8.564
 1151POPC   C2B17540  39.020  28.561   8.264
 1151POPC   C3B17541  39.056  28.537   7.964
 1151POPC   C4B17542  39.009  28.495   7.664
 1152POPC   NC317543  43.838   8.184   9.464
 1152POPC   PO417544  43.925   8.180   9.164
 1152POPC   GL117545  43.872   8.176   8.864
 1152POPC   GL217546  44.029   8.137   8.864
 1152POPC   C1A17547  43.909   8.220   8.564
 1152POPC   D2A17548  43.841   8.184   8.264
 1152POPC   C3A17549  43.930   8.175   7.964
 1152POPC   C4A17550  43.870   8.169   7.664
 1152POPC   C1B17551  44.120   8.149   8.564
 1152POPC   C2B17552  44.153   8.121   8.264
 1152POPC   C3B17553  44.173   8.097   7.964
 1152POPC   C4B17554  44.098   8.150   7.664
 1153POPC   NC317555  31.463  10.539   9.464
 1153POPC   PO417556  31.458  10.509   9.164
 1153POPC   GL117557  31.498  10.480   8.864
 1153POPC   GL217558  31.473  10.409   8.864
 1153POPC   C1A17559  31.513  10.510   8.564
 1153POPC   D2A17560  31.436  10.477   8.264
 1153POPC   C3A17561  31.511  10.548   7.964
 1153POPC   C4A17562  31.442  10.569   7.664
 1153POPC   C1B17563  31.418  10.322   8.564
 1153POPC   C2B17564  31.408  10.323   8.264
 1153POPC   C3B17565  31.473  10.227   7.964
 1153POPC   C4B17566  31.421  10.269   7.664
 1154POPC   NC317567  16.703  24.509   9.464
 1154POPC   PO417568  16.755  24.456   9.164
 1154POPC   GL117569  16.727  24.460   8.864
 1154POPC   GL217570  16.591  24.383   8.864
 1154POPC   C1A17571  16.690  24.537   8.564
 1154POPC   D2A17572  16.686  24.449   8.264
 1154POPC   C3A17573  16.737  24.461   7.964
 1154POPC   C4A17574  16.696  24.470   7.664
 1154POPC   C1B17575  16.493  24.298   8.564
 1154POPC   C2B17576  16.508  24.311   8.264
 1154POPC   C3B17577  16.505  24.308   7.964
 1154POPC   C4B17578  16.507  24.331   7.664
 1155POPC   NC317579   5.112  25.256   9.464
 1155POPC   PO417580   5.099  25.303   9.164
 1155POPC   GL117581   5.055  25.226   8.864
 1155POPC   GL217582   4.978  25.259   8.864
 1155POPC   C1A17583   5.128  25.269   8.564
 1155POPC   D2A17584   5.078  25.262   8.264
 1155POPC   C3A17585   5.106  25.240   7.964
 1155POPC   C4A17586   5.135  25.291   7.664
 1155POPC   C1B17587   4.796  25.214   8.564
 1155POPC   C2B17588   4.797  25.261   8.264
 1155POPC   C3B17589   4.808  25.282   7.964
 1155POPC   C4B17590   4.875  25.189   7.664
 1156POPC   NC317591  13.604   1.218   9.464
 1156POPC   PO417592  13.654   1.262   9.164
 1156POPC   GL117593  13.591   1.247   8.864
 1156POPC   GL217594  13.706   1.124   8.864
 1156POPC   C1A17595  13.677   1.206   8.564
 1156POPC   D2A17596  13.581   1.256   8.264
 1156POPC   C3A17597  13.631   1.246   7.964
 1156POPC   C4A17598  13.628   1.235   7.664
 1156POPC   C1B17599  13.893   1.103   8.564
 1156POPC   C2B17600  13.869   1.085   8.264
 1156POPC   C3B17601  13.895   1.099   7.964
 1156POPC   C4B17602  13.812   1.107   7.664
 1157POPC   NC317603  21.369  36.858   9.464
 1157POPC   PO417604  21.427  36.890   9.164
 1157POPC   GL117605  21.384  36.857   8.864
 1157POPC   GL217606  21.240  36.850   8.864
 1157POPC   C1A17607  21.372  36.869   8.564
 1157POPC   D2A17608  21.368  36.872   8.264
 1157POPC   C3A17609  21.359  36.916   7.964
 1157POPC   C4A17610  21.425  36.904   7.664
 1157POPC   C1B17611  21.187  36.847   8.564
 1157POPC   C2B17612  21.095  36.852   8.264
 1157POPC   C3B17613  21.186  36.876   7.964
 1157POPC   C4B17614  21.089  36.899   7.664
 1158POPC   NC317615   3.579  33.045   9.464
 1158POPC   PO417616   3.505  33.036   9.164
 1158POPC   GL117617   3.510  33.024   8.864
 1158POPC   GL217618   3.604  33.075   8.864
 1158POPC   C1A17619   3.529  32.976   8.564
 1158POPC   D2A17620   3.586  32.991   8.264
 1158POPC   C3A17621   3.505  33.001   7.964
 1158POPC   C4A17622   3.518  33.073   7.664
 1158POPC   C1B17623   3.796  33.170   8.564
 1158POPC   C2B17624   3.802  33.199   8.264
 1158POPC   C3B17625   3.774  33.204   7.964
 1158POPC   C4B17626   3.751  33.175   7.664
 1159POPC   NC317627  14.405   7.410   9.464
 1159POPC   PO417628  14.381   7.373   9.164
 1159POPC   GL117629  14.381   7.381   8.864
 1159POPC   GL217630  14.314   7.344   8.864
 1159POPC   C1A17631  14.450   7.401   8.564
 1159POPC   D2A17632  14.434   7.390   8.264
 1159POPC   C3A17633  14.432   7.425   7.964
 1159POPC   C4A17634  14.362   7.396   7.664
 1159POPC   C1B17635  14.253   7.169   8.564
 1159POPC   C2B17636  14.268   7.240   8.264
 1159POPC   C3B17637  14.250   7.243   7.964
 1159POPC   C4B17638  14.264   7.171   7.664
 1160POPC   NC317639  13.639  12.102   9.464
 1160POPC   PO417640  13.649  12.029   9.164
 1160POPC   GL117641  13.600  12.108   8.864
 1160POPC   GL217642  13.558  12.006   8.864
 1160POPC   C1A17643  13.649  12.117   8.564
 1160POPC   D2A17644  13.613  12.072   8.264
 1160POPC   C3A17645  13.635  12.075   7.964
 1160POPC   C4A17646  13.638  12.063   7.664
 1160POPC   C1B17647  13.430  11.971   8.564
 1160POPC   C2B17648  13.468  11.936   8.264
 1160POPC   C3B17649  13.403  11.906   7.964
 1160POPC   C4B17650  13.422  11.967   7.664
 1161POPC   NC317651   6.687   8.977   9.464
 1161POPC   PO417652   6.668   8.951   9.164
 1161POPC   GL117653   6.680   8.992   8.864
 1161POPC   GL217654   6.747   9.107   8.864
 1161POPC   C1A17655   6.620   8.936   8.564
 1161POPC   D2A17656   6.620   8.944   8.264
 1161POPC   C3A17657   6.664   8.971   7.964
 1161POPC   C4A17658   6.614   9.007   7.664
 1161POPC   C1B17659   6.797   9.159   8.564
 1161POPC   C2B17660   6.783   9.152   8.264
 1161POPC   C3B17661   6.817   9.165   7.964
 1161POPC   C4B17662   6.775   9.143   7.664
 1162POPC   NC317663  17.466   3.542   9.464
 1162POPC   PO417664  17.459   3.529   9.164
 1162POPC   GL117665  17.529   3.537   8.864
 1162POPC   GL217666  17.659   3.575   8.864
 1162POPC   C1A17667  17.534   3.523   8.564
 1162POPC   D2A17668  17.476   3.499   8.264
 1162POPC   C3A17669  17.518   3.514   7.964
 1162POPC   C4A17670  17.522   3.525   7.664
 1162POPC   C1B17671  17.794   3.621   8.564
 1162POPC   C2B17672  17.758   3.600   8.264
 1162POPC   C3B17673  17.729   3.662   7.964
 1162POPC   C4B17674  17.782   3.603   7.664
 1163POPC   NC317675   8.997  19.097   9.464
 1163POPC   PO417676   8.967  19.052   9.164
 1163POPC   GL117677   9.017  19.039   8.864
 1163POPC   GL217678   8.810  19.107   8.864
 1163POPC   C1A17679   8.933  19.078   8.564
 1163POPC   D2A17680   9.010  19.088   8.264
 1163POPC   C3A17681   8.984  19.024   7.964
 1163POPC   C4A17682   8.948  19.029   7.664
 1163POPC   C1B17683   8.679  19.149   8.564
 1163POPC   C2B17684   8.738  19.116   8.264
 1163POPC   C3B17685   8.712  19.091   7.964
 1163POPC   C4B17686   8.749  19.148   7.664
 1164POPC   NC317687  33.761  33.028   9.464
 1164POPC   PO417688  33.759  33.064   9.164
 1164POPC   GL117689  33.751  33.035   8.864
 1164POPC   GL217690  33.757  33.164   8.864
 1164POPC   C1A17691  33.756  32.980   8.564
 1164POPC   D2A17692  33.845  33.056   8.264
 1164POPC   C3A17693  33.803  32.988   7.964
 1164POPC   C4A17694  33.830  33.054   7.664
 1164POPC   C1B17695  33.748  33.247   8.564
 1164POPC   C2B17696  33.755  33.268   8.264
 1164POPC   C3B17697  33.739  33.305   7.964
 1164POPC   C4B17698  33.703  33.223   7.664
 1165POPC   NC317699  19.038  20.644   9.464
 1165POPC   PO417700  19.085  20.640   9.164
 1165POPC   GL117701  19.072  20.638   8.864
 1165POPC   GL217702  18.970  20.667   8.864
 1165POPC   C1A17703  19.064  20.659   8.564
 1165POPC   D2A17704  19.024  20.574   8.264
 1165POPC   C3A17705  19.083  20.579   7.964
 1165POPC   C4A17706  19.043  20.578   7.664
 1165POPC   C1B17707  18.921  20.826   8.564
 1165POPC   C2B17708  18.850  20.823   8.264
 1165POPC   C3B17709  18.851  20.779   7.964
 1165POPC   C4B17710  18.857  20.787   7.664
 1166POPC   NC317711  18.299   6.693   9.464
 1166POPC   PO417712  18.267   6.638   9.164
 1166POPC   GL117713  18.277   6.630   8.864
 1166POPC   GL217714  18.181   6.640   8.864
 1166POPC   C1A17715  18.318   6.659   8.564
 1166POPC   D2A17716  18.301   6.680   8.264
 1166POPC   C3A17717  18.277   6.597   7.964
 1166POPC   C4A17718  18.252   6.652   7.664
 1166POPC   C1B17719  18.040   6.666   8.564
 1166POPC   C2B17720  18.037   6.665   8.264
 1166POPC   C3B17721  18.000   6.679   7.964
 1166POPC   C4B17722  18.026   6.690   7.664
 1167POPC   NC317723  44.672   2.748   9.464
 1167POPC   PO417724  44.686   2.753   9.164
 1167POPC   GL117725  44.623   2.772   8.864
 1167POPC   GL217726  44.575   2.808   8.864
 1167POPC   C1A17727  44.676   2.762   8.564
 1167POPC   D2A17728  44.678   2.742   8.264
 1167POPC   C3A17729  44.642   2.741   7.964
 1167POPC   C4A17730  44.674   2.749   7.664
 1167POPC   C1B17731  44.516   2.978   8.564
 1167POPC   C2B17732  44.486   2.898   8.264
 1167POPC   C3B17733  44.506   2.946   7.964
 1167POPC   C4B17734  44.506   2.933   7.664
 1168POPC   NC317735  14.449  12.870   9.464
 1168POPC   PO417736  14.368  12.842   9.164
 1168POPC   GL117737  14.445  12.900   8.864
 1168POPC   GL217738  14.494  12.738   8.864
 1168POPC   C1A17739  14.420  12.845   8.564
 1168POPC   D2A17740  14.368  12.824   8.264
 1168POPC   C3A17741  14.418  12.863   7.964
 1168POPC   C4A17742  14.364  12.878   7.664
 1168POPC   C1B17743  14.468  12.607   8.564
 1168POPC   C2B17744  14.508  12.575   8.264
 1168POPC   C3B17745  14.525  12.617   7.964
 1168POPC   C4B17746  14.530  12.654   7.664
 1169POPC   NC317747  22.124   0.389   9.464
 1169POPC   PO417748  22.197   0.475   9.164
 1169POPC   GL117749  22.142   0.433   8.864
 1169POPC   GL217750  22.256   0.390   8.864
 1169POPC   C1A17751  22.195   0.419   8.564
 1169POPC   D2A17752  22.159   0.424   8.264
 1169POPC   C3A17753  22.174   0.393   7.964
 1169POPC   C4A17754  22.152   0.464   7.664
 1169POPC   C1B17755  22.449   0.397   8.564
 1169POPC   C2B17756  22.432   0.385   8.264
 1169POPC   C3B17757  22.419   0.395   7.964
 1169POPC   C4B17758  22.409   0.380   7.664
 1170POPC   NC317759  32.295  38.413   9.464
 1170POPC   PO417760  32.235  38.424   9.164
 1170POPC   GL117761  32.205  38.484   8.864
 1170POPC   GL217762  32.203  38.539   8.864
 1170POPC   C1A17763  32.203  38.486   8.564
 1170POPC   D2A17764  32.232  38.421   8.264
 1170POPC   C3A17765  32.234  38.480   7.964
 1170POPC   C4A17766  32.225  38.440   7.664
 1170POPC   C1B17767  32.293  38.743   8.564
 1170POPC   C2B17768  32.295  38.736   8.264
 1170POPC   C3B17769  32.278  38.738   7.964
 1170POPC   C4B17770  32.202  38.694   7.664
 1171POPC   NC317771   2.798   9.706   9.464
 1171POPC   PO417772   2.770   9.790   9.164
 1171POPC   GL117773   2.718   9.713   8.864
 1171POPC   GL217774   2.881   9.769   8.864
 1171POPC   C1A17775   2.752   9.787   8.564
 1171POPC   D2A17776   2.795   9.796   8.264
 1171POPC   C3A17777   2.812   9.758   7.964
 1171POPC   C4A17778   2.791   9.768   7.664
 1171POPC   C1B17779   2.953   9.868   8.564
 1171POPC   C2B17780   3.017   9.892   8.264
 1171POPC   C3B17781   2.980   9.914   7.964
 1171POPC   C4B17782   2.998   9.908   7.664
 1172POPC   NC317783  18.240  42.347   9.464
 1172POPC   PO417784  18.274  42.367   9.164
 1172POPC   GL117785  18.281  42.340   8.864
 1172POPC   GL217786  18.161  42.315   8.864
 1172POPC   C1A17787  18.234  42.344   8.564
 1172POPC   D2A17788  18.264  42.336   8.264
 1172POPC   C3A17789  18.243  42.307   7.964
 1172POPC   C4A17790  18.315  42.372   7.664
 1172POPC   C1B17791  18.006  42.310   8.564
 1172POPC   C2B17792  17.993  42.349   8.264
 1172POPC   C3B17793  18.017  42.328   7.964
 1172POPC   C4B17794  18.034  42.353   7.664
 1173POPC   NC317795  19.864  24.517   9.464
 1173POPC   PO417796  19.829  24.467   9.164
 1173POPC   GL117797  19.884  24.528   8.864
 1173POPC   GL217798  19.774  24.323   8.864
 1173POPC   C1A17799  19.859  24.464   8.564
 1173POPC   D2A17800  19.845  24.490   8.264
 1173POPC   C3A17801  19.820  24.456   7.964
 1173POPC   C4A17802  19.787  24.502   7.664
 1173POPC   C1B17803  19.839  24.198   8.564
 1173POPC   C2B17804  19.811  24.240   8.264
 1173POPC   C3B17805  19.837  24.212   7.964
 1173POPC   C4B17806  19.806  24.201   7.664
 1174POPC   NC317807   8.930  24.488   9.464
 1174POPC   PO417808   8.946  24.481   9.164
 1174POPC   GL117809   8.949  24.536   8.864
 1174POPC   GL217810   8.921  24.576   8.864
 1174POPC   C1A17811   8.960  24.505   8.564
 1174POPC   D2A17812   9.007  24.477   8.264
 1174POPC   C3A17813   8.975  24.448   7.964
 1174POPC   C4A17814   9.002  24.486   7.664
 1174POPC   C1B17815   8.920  24.696   8.564
 1174POPC   C2B17816   8.950  24.697   8.264
 1174POPC   C3B17817   8.916  24.695   7.964
 1174POPC   C4B17818   8.917  24.743   7.664
 1175POPC   NC317819   1.964  31.485   9.464
 1175POPC   PO417820   2.007  31.501   9.164
 1175POPC   GL117821   2.034  31.475   8.864
 1175POPC   GL217822   2.138  31.408   8.864
 1175POPC   C1A17823   2.037  31.439   8.564
 1175POPC   D2A17824   1.969  31.442   8.264
 1175POPC   C3A17825   1.944  31.495   7.964
 1175POPC   C4A17826   2.021  31.490   7.664
 1175POPC   C1B17827   2.191  31.374   8.564
 1175POPC   C2B17828   2.224  31.348   8.264
 1175POPC   C3B17829   2.218  31.315   7.964
 1175POPC   C4B17830   2.237  31.296   7.664
 1176POPC   NC317831  10.484  19.092   9.464
 1176POPC   PO417832  10.504  19.064   9.164
 1176POPC   GL117833  10.530  19.093   8.864
 1176POPC   GL217834  10.503  19.178   8.864
 1176POPC   C1A17835  10.525  19.060   8.564
 1176POPC   D2A17836  10.503  19.097   8.264
 1176POPC   C3A17837  10.552  19.096   7.964
 1176POPC   C4A17838  10.537  19.107   7.664
 1176POPC   C1B17839  10.554  19.269   8.564
 1176POPC   C2B17840  10.559  19.297   8.264
 1176POPC   C3B17841  10.493  19.283   7.964
 1176POPC   C4B17842  10.510  19.347   7.664
 1177POPC   NC317843  21.387   7.460   9.464
 1177POPC   PO417844  21.404   7.459   9.164
 1177POPC   GL117845  21.391   7.414   8.864
 1177POPC   GL217846  21.479   7.357   8.864
 1177POPC   C1A17847  21.431   7.404   8.564
 1177POPC   D2A17848  21.365   7.396   8.264
 1177POPC   C3A17849  21.431   7.397   7.964
 1177POPC   C4A17850  21.417   7.469   7.664
 1177POPC   C1B17851  21.540   7.188   8.564
 1177POPC   C2B17852  21.519   7.239   8.264
 1177POPC   C3B17853  21.502   7.224   7.964
 1177POPC   C4B17854  21.516   7.163   7.664
 1178POPC   NC317855  37.637  39.974   9.464
 1178POPC   PO417856  37.670  40.002   9.164
 1178POPC   GL117857  37.701  40.036   8.864
 1178POPC   GL217858  37.665  40.131   8.864
 1178POPC   C1A17859  37.660  40.035   8.564
 1178POPC   D2A17860  37.687  40.041   8.264
 1178POPC   C3A17861  37.712  40.002   7.964
 1178POPC   C4A17862  37.678  40.004   7.664
 1178POPC   C1B17863  37.783  40.295   8.564
 1178POPC   C2B17864  37.735  40.252   8.264
 1178POPC   C3B17865  37.745  40.217   7.964
 1178POPC   C4B17866  37.791  40.222   7.664
 1179POPC   NC317867  21.387  40.737   9.464
 1179POPC   PO417868  21.391  40.782   9.164
 1179POPC   GL117869  21.337  40.825   8.864
 1179POPC   GL217870  21.411  40.912   8.864
 1179POPC   C1A17871  21.354  40.769   8.564
 1179POPC   D2A17872  21.343  40.772   8.264
 1179POPC   C3A17873  21.375  40.774   7.964
 1179POPC   C4A17874  21.358  40.812   7.664
 1179POPC   C1B17875  21.540  41.042   8.564
 1179POPC   C2B17876  21.559  40.963   8.264
 1179POPC   C3B17877  21.533  40.990   7.964
 1179POPC   C4B17878  21.528  41.027   7.664
 1180POPC   NC317879   2.772  24.474   9.464
 1180POPC   PO417880   2.762  24.470   9.164
 1180POPC   GL117881   2.738  24.513   8.864
 1180POPC   GL217882   2.664  24.514   8.864
 1180POPC   C1A17883   2.790  24.443   8.564
 1180POPC   D2A17884   2.720  24.532   8.264
 1180POPC   C3A17885   2.749  24.516   7.964
 1180POPC   C4A17886   2.717  24.473   7.664
 1180POPC   C1B17887   2.491  24.446   8.564
 1180POPC   C2B17888   2.498  24.460   8.264
 1180POPC   C3B17889   2.516  24.469   7.964
 1180POPC   C4B17890   2.559  24.488   7.664
 1181POPC   NC317891  26.054  24.469   9.464
 1181POPC   PO417892  26.022  24.488   9.164
 1181POPC   GL117893  26.013  24.474   8.864
 1181POPC   GL217894  25.974  24.412   8.864
 1181POPC   C1A17895  26.016  24.466   8.564
 1181POPC   D2A17896  26.072  24.509   8.264
 1181POPC   C3A17897  26.000  24.443   7.964
 1181POPC   C4A17898  26.033  24.479   7.664
 1181POPC   C1B17899  25.838  24.323   8.564
 1181POPC   C2B17900  25.850  24.286   8.264
 1181POPC   C3B17901  25.916  24.340   7.964
 1181POPC   C4B17902  25.850  24.335   7.664
 1182POPC   NC317903  23.734   2.791   9.464
 1182POPC   PO417904  23.703   2.732   9.164
 1182POPC   GL117905  23.721   2.733   8.864
 1182POPC   GL217906  23.679   2.878   8.864
 1182POPC   C1A17907  23.735   2.797   8.564
 1182POPC   D2A17908  23.731   2.728   8.264
 1182POPC   C3A17909  23.715   2.740   7.964
 1182POPC   C4A17910  23.761   2.792   7.664
 1182POPC   C1B17911  23.522   3.002   8.564
 1182POPC   C2B17912  23.566   2.955   8.264
 1182POPC   C3B17913  23.522   2.987   7.964
 1182POPC   C4B17914  23.520   2.950   7.664
 1183POPC   NC317915  41.549  11.252   9.464
 1183POPC   PO417916  41.578  11.262   9.164
 1183POPC   GL117917  41.565  11.287   8.864
 1183POPC   GL217918  41.558  11.417   8.864
 1183POPC   C1A17919  41.525  11.333   8.564
 1183POPC   D2A17920  41.525  11.290   8.264
 1183POPC   C3A17921  41.534  11.325   7.964
 1183POPC   C4A17922  41.604  11.307   7.664
 1183POPC   C1B17923  41.502  11.500   8.564
 1183POPC   C2B17924  41.485  11.517   8.264
 1183POPC   C3B17925  41.514  11.578   7.964
 1183POPC   C4B17926  41.464  11.518   7.664
 1184POPC   NC317927  19.083  15.963   9.464
 1184POPC   PO417928  19.020  15.966   9.164
 1184POPC   GL117929  19.089  15.946   8.864
 1184POPC   GL217930  19.103  16.026   8.864
 1184POPC   C1A17931  19.070  15.985   8.564
 1184POPC   D2A17932  19.081  15.920   8.264
 1184POPC   C3A17933  19.021  15.913   7.964
 1184POPC   C4A17934  19.038  15.951   7.664
 1184POPC   C1B17935  19.264  16.093   8.564
 1184POPC   C2B17936  19.259  16.116   8.264
 1184POPC   C3B17937  19.197  16.186   7.964
 1184POPC   C4B17938  19.214  16.120   7.664
 1185POPC   NC317939  22.137  19.073   9.464
 1185POPC   PO417940  22.148  19.024   9.164
 1185POPC   GL117941  22.114  19.055   8.864
 1185POPC   GL217942  22.058  19.110   8.864
 1185POPC   C1A17943  22.174  19.028   8.564
 1185POPC   D2A17944  22.133  19.096   8.264
 1185POPC   C3A17945  22.161  19.064   7.964
 1185POPC   C4A17946  22.193  19.091   7.664
 1185POPC   C1B17947  21.933  19.167   8.564
 1185POPC   C2B17948  21.924  19.092   8.264
 1185POPC   C3B17949  21.941  19.150   7.964
 1185POPC   C4B17950  21.919  19.093   7.664
 1186POPC   NC317951  35.377  38.484   9.464
 1186POPC   PO417952  35.366  38.425   9.164
 1186POPC   GL117953  35.317  38.488   8.864
 1186POPC   GL217954  35.252  38.478   8.864
 1186POPC   C1A17955  35.302  38.440   8.564
 1186POPC   D2A17956  35.364  38.446   8.264
 1186POPC   C3A17957  35.360  38.488   7.964
 1186POPC   C4A17958  35.302  38.490   7.664
 1186POPC   C1B17959  35.103  38.555   8.564
 1186POPC   C2B17960  35.107  38.600   8.264
 1186POPC   C3B17961  35.110  38.568   7.964
 1186POPC   C4B17962  35.148  38.592   7.664
 1187POPC   NC317963   9.731  41.589   9.464
 1187POPC   PO417964   9.748  41.517   9.164
 1187POPC   GL117965   9.772  41.543   8.864
 1187POPC   GL217966   9.697  41.611   8.864
 1187POPC   C1A17967   9.784  41.553   8.564
 1187POPC   D2A17968   9.752  41.548   8.264
 1187POPC   C3A17969   9.766  41.572   7.964
 1187POPC   C4A17970   9.788  41.566   7.664
 1187POPC   C1B17971   9.612  41.749   8.564
 1187POPC   C2B17972   9.585  41.746   8.264
 1187POPC   C3B17973   9.555  41.758   7.964
 1187POPC   C4B17974   9.541  41.786   7.664
 1188POPC   NC317975  25.270  24.534   9.464
 1188POPC   PO417976  25.284  24.473   9.164
 1188POPC   GL117977  25.261  24.487   8.864
 1188POPC   GL217978  25.167  24.468   8.864
 1188POPC   C1A17979  25.291  24.478   8.564
 1188POPC   D2A17980  25.285  24.531   8.264
 1188POPC   C3A17981  25.273  24.452   7.964
 1188POPC   C4A17982  25.221  24.463   7.664
 1188POPC   C1B17983  25.041  24.361   8.564
 1188POPC   C2B17984  25.050  24.355   8.264
 1188POPC   C3B17985  25.077  24.413   7.964
 1188POPC   C4B17986  25.011  24.421   7.664
 1189POPC   NC317987  16.000  34.593   9.464
 1189POPC   PO417988  16.005  34.574   9.164
 1189POPC   GL117989  15.987  34.607   8.864
 1189POPC   GL217990  15.920  34.718   8.864
 1189POPC   C1A17991  15.906  34.531   8.564
 1189POPC   D2A17992  15.946  34.606   8.264
 1189POPC   C3A17993  15.991  34.564   7.964
 1189POPC   C4A17994  15.916  34.606   7.664
 1189POPC   C1B17995  15.802  34.745   8.564
 1189POPC   C2B17996  15.831  34.763   8.264
 1189POPC   C3B17997  15.779  34.799   7.964
 1189POPC   C4B17998  15.750  34.732   7.664
 1190POPC   NC317999  13.660   0.476   9.464
 1190POPC   PO418000  13.612   0.417   9.164
 1190POPC   GL118001  13.622   0.415   8.864
 1190POPC   GL218002  13.669   0.591   8.864
 1190POPC   C1A18003  13.580   0.397   8.564
 1190POPC   D2A18004  13.604   0.415   8.264
 1190POPC   C3A18005  13.619   0.393   7.964
 1190POPC   C4A18006  13.608   0.461   7.664
 1190POPC   C1B18007  13.696   0.715   8.564
 1190POPC   C2B18008  13.706   0.658   8.264
 1190POPC   C3B18009  13.662   0.727   7.964
 1190POPC   C4B18010  13.688   0.717   7.664
 1191POPC   NC318011   5.142  31.462   9.464
 1191POPC   PO418012   5.073  31.477   9.164
 1191POPC   GL118013   5.050  31.425   8.864
 1191POPC   GL218014   5.145  31.308   8.864
 1191POPC   C1A18015   5.129  31.463   8.564
 1191POPC   D2A18016   5.091  31.430   8.264
 1191POPC   C3A18017   5.136  31.432   7.964
 1191POPC   C4A18018   5.067  31.471   7.664
 1191POPC   C1B18019   5.160  31.217   8.564
 1191POPC   C2B18020   5.123  31.216   8.264
 1191POPC   C3B18021   5.185  31.240   7.964
 1191POPC   C4B18022   5.180  31.270   7.664
 1192POPC   NC318023  16.687  10.563   9.464
 1192POPC   PO418024  16.734  10.549   9.164
 1192POPC   GL118025  16.688  10.562   8.864
 1192POPC   GL218026  16.621  10.506   8.864
 1192POPC   C1A18027  16.772  10.564   8.564
 1192POPC   D2A18028  16.704  10.478   8.264
 1192POPC   C3A18029  16.773  10.519   7.964
 1192POPC   C4A18030  16.689  10.543   7.664
 1192POPC   C1B18031  16.476  10.469   8.564
 1192POPC   C2B18032  16.461  10.484   8.264
 1192POPC   C3B18033  16.519  10.518   7.964
 1192POPC   C4B18034  16.487  10.474   7.664
 1193POPC   NC318035  44.620  35.334   9.464
 1193POPC   PO418036  44.621  35.358   9.164
 1193POPC   GL118037  44.679  35.311   8.864
 1193POPC   GL218038  44.682  35.237   8.864
 1193POPC   C1A18039  44.620  35.367   8.564
 1193POPC   D2A18040  44.636  35.384   8.264
 1193POPC   C3A18041  44.674  35.313   7.964
 1193POPC   C4A18042  44.615  35.352   7.664
 1193POPC   C1B18043  44.653  35.109   8.564
 1193POPC   C2B18044  44.647  35.097   8.264
 1193POPC   C3B18045  44.634  35.070   7.964
 1193POPC   C4B18046  44.642  35.120   7.664
 1194POPC   NC318047  14.371  15.206   9.464
 1194POPC   PO418048  14.388  15.140   9.164
 1194POPC   GL118049  14.390  15.138   8.864
 1194POPC   GL218050  14.429  15.342   8.864
 1194POPC   C1A18051  14.434  15.160   8.564
 1194POPC   D2A18052  14.360  15.204   8.264
 1194POPC   C3A18053  14.417  15.212   7.964
 1194POPC   C4A18054  14.359  15.138   7.664
 1194POPC   C1B18055  14.396  15.453   8.564
 1194POPC   C2B18056  14.394  15.391   8.264
 1194POPC   C3B18057  14.401  15.446   7.964
 1194POPC   C4B18058  14.380  15.394   7.664
 1195POPC   NC318059  37.707  37.656   9.464
 1195POPC   PO418060  37.636  37.648   9.164
 1195POPC   GL118061  37.698  37.693   8.864
 1195POPC   GL218062  37.698  37.560   8.864
 1195POPC   C1A18063  37.650  37.720   8.564
 1195POPC   D2A18064  37.646  37.661   8.264
 1195POPC   C3A18065  37.643  37.696   7.964
 1195POPC   C4A18066  37.659  37.634   7.664
 1195POPC   C1B18067  37.736  37.407   8.564
 1195POPC   C2B18068  37.784  37.413   8.264
 1195POPC   C3B18069  37.775  37.473   7.964
 1195POPC   C4B18070  37.714  37.399   7.664
 1196POPC   NC318071  29.118  39.969   9.464
 1196POPC   PO418072  29.139  40.045   9.164
 1196POPC   GL118073  29.121  40.008   8.864
 1196POPC   GL218074  29.187  39.877   8.864
 1196POPC   C1A18075  29.117  40.040   8.564
 1196POPC   D2A18076  29.170  39.979   8.264
 1196POPC   C3A18077  29.166  40.024   7.964
 1196POPC   C4A18078  29.136  40.022   7.664
 1196POPC   C1B18079  29.270  39.731   8.564
 1196POPC   C2B18080  29.199  39.779   8.264
 1196POPC   C3B18081  29.279  39.743   7.964
 1196POPC   C4B18082  29.277  39.775   7.664
 1197POPC   NC318083   5.877  26.812   9.464
 1197POPC   PO418084   5.830  26.796   9.164
 1197POPC   GL118085   5.835  26.814   8.864
 1197POPC   GL218086   5.966  26.906   8.864
 1197POPC   C1A18087   5.908  26.771   8.564
 1197POPC   D2A18088   5.896  26.775   8.264
 1197POPC   C3A18089   5.892  26.843   7.964
 1197POPC   C4A18090   5.906  26.847   7.664
 1197POPC   C1B18091   5.989  27.005   8.564
 1197POPC   C2B18092   5.995  27.016   8.264
 1197POPC   C3B18093   6.025  27.017   7.964
 1197POPC   C4B18094   5.951  27.049   7.664
 1198POPC   NC318095  43.112  31.433   9.464
 1198POPC   PO418096  43.078  31.431   9.164
 1198POPC   GL118097  43.146  31.436   8.864
 1198POPC   GL218098  42.945  31.496   8.864
 1198POPC   C1A18099  43.079  31.473   8.564
 1198POPC   D2A18100  43.160  31.495   8.264
 1198POPC   C3A18101  43.089  31.433   7.964
 1198POPC   C4A18102  43.061  31.515   7.664
 1198POPC   C1B18103  42.824  31.485   8.564
 1198POPC   C2B18104  42.867  31.411   8.264
 1198POPC   C3B18105  42.852  31.493   7.964
 1198POPC   C4B18106  42.876  31.432   7.664
 1199POPC   NC318107   6.621   5.851   9.464
 1199POPC   PO418108   6.693   5.915   9.164
 1199POPC   GL118109   6.672   5.822   8.864
 1199POPC   GL218110   6.651   5.713   8.864
 1199POPC   C1A18111   6.603   5.864   8.564
 1199POPC   D2A18112   6.613   5.847   8.264
 1199POPC   C3A18113   6.674   5.915   7.964
 1199POPC   C4A18114   6.607   5.863   7.664
 1199POPC   C1B18115   6.516   5.627   8.564
 1199POPC   C2B18116   6.605   5.664   8.264
 1199POPC   C3B18117   6.568   5.655   7.964
 1199POPC   C4B18118   6.520   5.601   7.664
 1200POPC   NC318119   1.961  29.901   9.464
 1200POPC   PO418120   1.997  29.940   9.164
 1200POPC   GL118121   2.003  29.967   8.864
 1200POPC   GL218122   1.995  30.027   8.864
 1200POPC   C1A18123   1.953  29.918   8.564
 1200POPC   D2A18124   1.961  29.893   8.264
 1200POPC   C3A18125   2.034  29.910   7.964
 1200POPC   C4A18126   1.965  29.905   7.664
 1200POPC   C1B18127   2.009  30.141   8.564
 1200POPC   C2B18128   1.989  30.138   8.264
 1200POPC   C3B18129   2.013  30.211   7.964
 1200POPC   C4B18130   1.928  30.215   7.664
 1201POPC   NC318131  30.688  14.422   9.464
 1201POPC   PO418132  30.651  14.418   9.164
 1201POPC   GL118133  30.678  14.440   8.864
 1201POPC   GL218134  30.615  14.469   8.864
 1201POPC   C1A18135  30.647  14.379   8.564
 1201POPC   D2A18136  30.716  14.394   8.264
 1201POPC   C3A18137  30.686  14.361   7.964
 1201POPC   C4A18138  30.718  14.399   7.664
 1201POPC   C1B18139  30.567  14.618   8.564
 1201POPC   C2B18140  30.540  14.534   8.264
 1201POPC   C3B18141  30.524  14.538   7.964
 1201POPC   C4B18142  30.475  14.602   7.664
 1202POPC   NC318143  31.488  30.737   9.464
 1202POPC   PO418144  31.429  30.725   9.164
 1202POPC   GL118145  31.498  30.705   8.864
 1202POPC   GL218146  31.426  30.572   8.864
 1202POPC   C1A18147  31.500  30.745   8.564
 1202POPC   D2A18148  31.484  30.670   8.264
 1202POPC   C3A18149  31.438  30.700   7.964
 1202POPC   C4A18150  31.475  30.743   7.664
 1202POPC   C1B18151  31.429  30.431   8.564
 1202POPC   C2B18152  31.407  30.425   8.264
 1202POPC   C3B18153  31.354  30.507   7.964
 1202POPC   C4B18154  31.354  30.413   7.664
 1203POPC   NC318155  26.040  42.351   9.464
 1203POPC   PO418156  26.016  42.324   9.164
 1203POPC   GL118157  25.994  42.298   8.864
 1203POPC   GL218158  26.200  42.334   8.864
 1203POPC   C1A18159  26.016  42.352   8.564
 1203POPC   D2A18160  26.026  42.302   8.264
 1203POPC   C3A18161  26.025  42.352   7.964
 1203POPC   C4A18162  26.040  42.285   7.664
 1203POPC   C1B18163  26.296  42.386   8.564
 1203POPC   C2B18164  26.322  42.402   8.264
 1203POPC   C3B18165  26.323  42.438   7.964
 1203POPC   C4B18166  26.329  42.358   7.664
 1204POPC   NC318167  27.620  17.487   9.464
 1204POPC   PO418168  27.596  17.485   9.164
 1204POPC   GL118169  27.548  17.531   8.864
 1204POPC   GL218170  27.723  17.549   8.864
 1204POPC   C1A18171  27.551  17.523   8.564
 1204POPC   D2A18172  27.593  17.490   8.264
 1204POPC   C3A18173  27.574  17.540   7.964
 1204POPC   C4A18174  27.638  17.479   7.664
 1204POPC   C1B18175  27.864  17.455   8.564
 1204POPC   C2B18176  27.839  17.527   8.264
 1204POPC   C3B18177  27.821  17.526   7.964
 1204POPC   C4B18178  27.802  17.509   7.664
 1205POPC   NC318179  16.001  42.356   9.464
 1205POPC   PO418180  15.946  42.343   9.164
 1205POPC   GL118181  15.993  42.357   8.864
 1205POPC   GL218182  16.078  42.434   8.864
 1205POPC   C1A18183  15.923  42.308   8.564
 1205POPC   D2A18184  15.908  42.375   8.264
 1205POPC   C3A18185  15.964  42.302   7.964
 1205POPC   C4A18186  15.997  42.317   7.664
 1205POPC   C1B18187  16.106  42.546   8.564
 1205POPC   C2B18188  16.155  42.538   8.264
 1205POPC   C3B18189  16.137  42.582   7.964
 1205POPC   C4B18190  16.103  42.529   7.664
 1206POPC   NC318191  41.534  14.400   9.464
 1206POPC   PO418192  41.606  14.427   9.164
 1206POPC   GL118193  41.510  14.447   8.864
 1206POPC   GL218194  41.529  14.250   8.864
 1206POPC   C1A18195  41.576  14.380   8.564
 1206POPC   D2A18196  41.568  14.429   8.264
 1206POPC   C3A18197  41.594  14.426   7.964
 1206POPC   C4A18198  41.569  14.391   7.664
 1206POPC   C1B18199  41.509  14.196   8.564
 1206POPC   C2B18200  41.468  14.173   8.264
 1206POPC   C3B18201  41.425  14.149   7.964
 1206POPC   C4B18202  41.431  14.221   7.664
 1207POPC   NC318203  25.226  13.670   9.464
 1207POPC   PO418204  25.271  13.631   9.164
 1207POPC   GL118205  25.219  13.662   8.864
 1207POPC   GL218206  25.239  13.490   8.864
 1207POPC   C1A18207  25.309  13.653   8.564
 1207POPC   D2A18208  25.230  13.628   8.264
 1207POPC   C3A18209  25.294  13.670   7.964
 1207POPC   C4A18210  25.216  13.613   7.664
 1207POPC   C1B18211  25.116  13.441   8.564
 1207POPC   C2B18212  25.092  13.412   8.264
 1207POPC   C3B18213  25.187  13.389   7.964
 1207POPC   C4B18214  25.151  13.391   7.664
 1208POPC   NC318215  39.185  15.163   9.464
 1208POPC   PO418216  39.238  15.132   9.164
 1208POPC   GL118217  39.234  15.216   8.864
 1208POPC   GL218218  39.395  15.187   8.864
 1208POPC   C1A18219  39.223  15.139   8.564
 1208POPC   D2A18220  39.237  15.171   8.264
 1208POPC   C3A18221  39.220  15.222   7.964
 1208POPC   C4A18222  39.215  15.194   7.664
 1208POPC   C1B18223  39.488  15.313   8.564
 1208POPC   C2B18224  39.411  15.255   8.264
 1208POPC   C3B18225  39.438  15.300   7.964
 1208POPC   C4B18226  39.506  15.237   7.664
 1209POPC   NC318227   5.866  33.070   9.464
 1209POPC   PO418228   5.881  32.987   9.164
 1209POPC   GL118229   5.878  33.006   8.864
 1209POPC   GL218230   5.723  32.958   8.864
 1209POPC   C1A18231   5.872  33.023   8.564
 1209POPC   D2A18232   5.896  33.059   8.264
 1209POPC   C3A18233   5.852  33.053   7.964
 1209POPC   C4A18234   5.900  32.997   7.664
 1209POPC   C1B18235   5.668  32.879   8.564
 1209POPC   C2B18236   5.655  32.897   8.264
 1209POPC   C3B18237   5.639  32.926   7.964
 1209POPC   C4B18238   5.659  32.874   7.664
 1210POPC   NC318239   0.399  22.164   9.464
 1210POPC   PO418240   0.456  22.161   9.164
 1210POPC   GL118241   0.401  22.120   8.864
 1210POPC   GL218242   0.483  22.012   8.864
 1210POPC   C1A18243   0.416  22.207   8.564
 1210POPC   D2A18244   0.470  22.184   8.264
 1210POPC   C3A18245   0.426  22.207   7.964
 1210POPC   C4A18246   0.457  22.152   7.664
 1210POPC   C1B18247   0.498  21.942   8.564
 1210POPC   C2B18248   0.488  21.873   8.264
 1210POPC   C3B18249   0.539  21.917   7.964
 1210POPC   C4B18250   0.490  21.906   7.664
 1211POPC   NC318251   2.722  12.031   9.464
 1211POPC   PO418252   2.805  12.074   9.164
 1211POPC   GL118253   2.772  12.103   8.864
 1211POPC   GL218254   2.867  12.091   8.864
 1211POPC   C1A18255   2.772  12.101   8.564
 1211POPC   D2A18256   2.761  12.115   8.264
 1211POPC   C3A18257   2.794  12.119   7.964
 1211POPC   C4A18258   2.790  12.034   7.664
 1211POPC   C1B18259   3.044  12.196   8.564
 1211POPC   C2B18260   2.957  12.147   8.264
 1211POPC   C3B18261   3.034  12.156   7.964
 1211POPC   C4B18262   2.963  12.193   7.664
 1212POPC   NC318263  10.532  19.857   9.464
 1212POPC   PO418264  10.536  19.845   9.164
 1212POPC   GL118265  10.492  19.878   8.864
 1212POPC   GL218266  10.648  19.760   8.864
 1212POPC   C1A18267  10.501  19.845   8.564
 1212POPC   D2A18268  10.500  19.878   8.264
 1212POPC   C3A18269  10.485  19.870   7.964
 1212POPC   C4A18270  10.531  19.785   7.664
 1212POPC   C1B18271  10.648  19.611   8.564
 1212POPC   C2B18272  10.672  19.602   8.264
 1212POPC   C3B18273  10.728  19.598   7.964
 1212POPC   C4B18274  10.714  19.652   7.664
 1213POPC   NC318275   9.710  25.295   9.464
 1213POPC   PO418276   9.719  25.262   9.164
 1213POPC   GL118277   9.722  25.231   8.864
 1213POPC   GL218278   9.783  25.411   8.864
 1213POPC   C1A18279   9.703  25.314   8.564
 1213POPC   D2A18280   9.718  25.239   8.264
 1213POPC   C3A18281   9.745  25.253   7.964
 1213POPC   C4A18282   9.774  25.312   7.664
 1213POPC   C1B18283   9.910  25.494   8.564
 1213POPC   C2B18284   9.910  25.455   8.264
 1213POPC   C3B18285   9.900  25.491   7.964
 1213POPC   C4B18286   9.898  25.491   7.664
 1214POPC   NC318287  28.351  43.918   9.464
 1214POPC   PO418288  28.341  43.903   9.164
 1214POPC   GL118289  28.350  43.856   8.864
 1214POPC   GL218290  28.342  43.774   8.864
 1214POPC   C1A18291  28.343  43.899   8.564
 1214POPC   D2A18292  28.418  43.863   8.264
 1214POPC   C3A18293  28.350  43.853   7.964
 1214POPC   C4A18294  28.368  43.912   7.664
 1214POPC   C1B18295  28.240  43.624   8.564
 1214POPC   C2B18296  28.240  43.651   8.264
 1214POPC   C3B18297  28.327  43.677   7.964
 1214POPC   C4B18298  28.293  43.605   7.664
 1215POPC   NC318299  42.300  36.860   9.464
 1215POPC   PO418300  42.379  36.904   9.164
 1215POPC   GL118301  42.310  36.940   8.864
 1215POPC   GL218302  42.331  36.814   8.864
 1215POPC   C1A18303  42.293  36.937   8.564
 1215POPC   D2A18304  42.344  36.903   8.264
 1215POPC   C3A18305  42.377  36.869   7.964
 1215POPC   C4A18306  42.296  36.859   7.664
 1215POPC   C1B18307  42.300  36.675   8.564
 1215POPC   C2B18308  42.255  36.699   8.264
 1215POPC   C3B18309  42.261  36.653   7.964
 1215POPC   C4B18310  42.280  36.651   7.664
 1216POPC   NC318311  33.833  15.196   9.464
 1216POPC   PO418312  33.802  15.178   9.164
 1216POPC   GL118313  33.807  15.201   8.864
 1216POPC   GL218314  33.807  15.069   8.864
 1216POPC   C1A18315  33.822  15.138   8.564
 1216POPC   D2A18316  33.775  15.215   8.264
 1216POPC   C3A18317  33.783  15.156   7.964
 1216POPC   C4A18318  33.781  15.228   7.664
 1216POPC   C1B18319  33.684  14.935   8.564
 1216POPC   C2B18320  33.747  14.943   8.264
 1216POPC   C3B18321  33.704  14.977   7.964
 1216POPC   C4B18322  33.756  14.944   7.664
 1217POPC   NC318323   3.550  26.781   9.464
 1217POPC   PO418324   3.573  26.823   9.164
 1217POPC   GL118325   3.510  26.789   8.864
 1217POPC   GL218326   3.485  26.651   8.864
 1217POPC   C1A18327   3.535  26.860   8.564
 1217POPC   D2A18328   3.577  26.784   8.264
 1217POPC   C3A18329   3.507  26.844   7.964
 1217POPC   C4A18330   3.586  26.769   7.664
 1217POPC   C1B18331   3.489  26.523   8.564
 1217POPC   C2B18332   3.525  26.536   8.264
 1217POPC   C3B18333   3.572  26.610   7.964
 1217POPC   C4B18334   3.569  26.561   7.664
 1218POPC   NC318335   4.322  27.588   9.464
 1218POPC   PO418336   4.322  27.630   9.164
 1218POPC   GL118337   4.281  27.632   8.864
 1218POPC   GL218338   4.260  27.523   8.864
 1218POPC   C1A18339   4.351  27.561   8.564
 1218POPC   D2A18340   4.277  27.581   8.264
 1218POPC   C3A18341   4.350  27.547   7.964
 1218POPC   C4A18342   4.331  27.547   7.664
 1218POPC   C1B18343   4.076  27.421   8.564
 1218POPC   C2B18344   4.135  27.409   8.264
 1218POPC   C3B18345   4.105  27.490   7.964
 1218POPC   C4B18346   4.096  27.442   7.664
 1219POPC   NC318347  19.074  12.861   9.464
 1219POPC   PO418348  19.029  12.882   9.164
 1219POPC   GL118349  19.070  12.810   8.864
 1219POPC   GL218350  18.957  12.707   8.864
 1219POPC   C1A18351  19.047  12.901   8.564
 1219POPC   D2A18352  19.084  12.833   8.264
 1219POPC   C3A18353  19.055  12.854   7.964
 1219POPC   C4A18354  19.106  12.864   7.664
 1219POPC   C1B18355  18.898  12.678   8.564
 1219POPC   C2B18356  18.919  12.645   8.264
 1219POPC   C3B18357  18.861  12.666   7.964
 1219POPC   C4B18358  18.906  12.701   7.664
 1220POPC   NC318359  26.077   9.755   9.464
 1220POPC   PO418360  26.028   9.773   9.164
 1220POPC   GL118361  25.998   9.761   8.864
 1220POPC   GL218362  26.141   9.640   8.864
 1220POPC   C1A18363  26.001   9.713   8.564
 1220POPC   D2A18364  26.036   9.749   8.264
 1220POPC   C3A18365  26.089   9.707   7.964
 1220POPC   C4A18366  26.008   9.755   7.664
 1220POPC   C1B18367  26.250   9.587   8.564
 1220POPC   C2B18368  26.198   9.575   8.264
 1220POPC   C3B18369  26.241   9.610   7.964
 1220POPC   C4B18370  26.246   9.597   7.664
 1221POPC   NC318371  41.511  17.542   9.464
 1221POPC   PO418372  41.563  17.544   9.164
 1221POPC   GL118373  41.575  17.461   8.864
 1221POPC   GL218374  41.563  17.650   8.864
 1221POPC   C1A18375  41.598  17.477   8.564
 1221POPC   D2A18376  41.521  17.537   8.264
 1221POPC   C3A18377  41.560  17.500   7.964
 1221POPC   C4A18378  41.541  17.533   7.664
 1221POPC   C1B18379  41.553  17.757   8.564
 1221POPC   C2B18380  41.507  17.743   8.264
 1221POPC   C3B18381  41.550  17.735   7.964
 1221POPC   C4B18382  41.475  17.733   7.664
 1222POPC   NC318383  35.374  11.321   9.464
 1222POPC   PO418384  35.302  11.309   9.164
 1222POPC   GL118385  35.355  11.293   8.864
 1222POPC   GL218386  35.275  11.384   8.864
 1222POPC   C1A18387  35.315  11.348   8.564
 1222POPC   D2A18388  35.379  11.288   8.264
 1222POPC   C3A18389  35.396  11.315   7.964
 1222POPC   C4A18390  35.349  11.267   7.664
 1222POPC   C1B18391  35.236  11.542   8.564
 1222POPC   C2B18392  35.215  11.466   8.264
 1222POPC   C3B18393  35.194  11.471   7.964
 1222POPC   C4B18394  35.182  11.504   7.664
 1223POPC   NC318395  19.049  14.381   9.464
 1223POPC   PO418396  19.100  14.358   9.164
 1223POPC   GL118397  19.018  14.421   8.864
 1223POPC   GL218398  19.041  14.538   8.864
 1223POPC   C1A18399  19.016  14.404   8.564
 1223POPC   D2A18400  19.027  14.439   8.264
 1223POPC   C3A18401  19.048  14.429   7.964
 1223POPC   C4A18402  19.036  14.391   7.664
 1223POPC   C1B18403  19.119  14.676   8.564
 1223POPC   C2B18404  19.149  14.604   8.264
 1223POPC   C3B18405  19.091  14.619   7.964
 1223POPC   C4B18406  19.110  14.629   7.664
 1224POPC   NC318407   8.963   1.224   9.464
 1224POPC   PO418408   8.985   1.249   9.164
 1224POPC   GL118409   9.008   1.238   8.864
 1224POPC   GL218410   9.029   1.279   8.864
 1224POPC   C1A18411   8.960   1.248   8.564
 1224POPC   D2A18412   8.989   1.170   8.264
 1224POPC   C3A18413   9.013   1.263   7.964
 1224POPC   C4A18414   8.981   1.204   7.664
 1224POPC   C1B18415   9.158   1.383   8.564
 1224POPC   C2B18416   9.165   1.369   8.264
 1224POPC   C3B18417   9.210   1.311   7.964
 1224POPC   C4B18418   9.199   1.380   7.664
 1225POPC   NC318419   8.999  11.273   9.464
 1225POPC   PO418420   8.987  11.307   9.164
 1225POPC   GL118421   8.996  11.293   8.864
 1225POPC   GL218422   9.083  11.290   8.864
 1225POPC   C1A18423   8.962  11.283   8.564
 1225POPC   D2A18424   9.019  11.330   8.264
 1225POPC   C3A18425   8.924  11.334   7.964
 1225POPC   C4A18426   8.970  11.256   7.664
 1225POPC   C1B18427   9.172  11.244   8.564
 1225POPC   C2B18428   9.169  11.231   8.264
 1225POPC   C3B18429   9.238  11.213   7.964
 1225POPC   C4B18430   9.204  11.203   7.664
 1226POPC   NC318431  26.825  26.001   9.464
 1226POPC   PO418432  26.798  25.994   9.164
 1226POPC   GL118433  26.855  26.034   8.864
 1226POPC   GL218434  26.929  26.153   8.864
 1226POPC   C1A18435  26.866  26.024   8.564
 1226POPC   D2A18436  26.839  26.006   8.264
 1226POPC   C3A18437  26.860  25.992   7.964
 1226POPC   C4A18438  26.790  26.045   7.664
 1226POPC   C1B18439  27.012  26.195   8.564
 1226POPC   C2B18440  26.990  26.193   8.264
 1226POPC   C3B18441  27.029  26.200   7.964
 1226POPC   C4B18442  26.989  26.247   7.664
 1227POPC   NC318443   5.870   9.700   9.464
 1227POPC   PO418444   5.874   9.723   9.164
 1227POPC   GL118445   5.871   9.785   8.864
 1227POPC   GL218446   5.853   9.867   8.864
 1227POPC   C1A18447   5.898   9.769   8.564
 1227POPC   D2A18448   5.827   9.711   8.264
 1227POPC   C3A18449   5.863   9.704   7.964
 1227POPC   C4A18450   5.863   9.738   7.664
 1227POPC   C1B18451   5.808   9.969   8.564
 1227POPC   C2B18452   5.862   9.965   8.264
 1227POPC   C3B18453   5.810  10.013   7.964
 1227POPC   C4B18454   5.829   9.973   7.664
 1228POPC   NC318455   3.558   6.637   9.464
 1228POPC   PO418456   3.564   6.629   9.164
 1228POPC   GL118457   3.520   6.620   8.864
 1228POPC   GL218458   3.395   6.749   8.864
 1228POPC   C1A18459   3.554   6.664   8.564
 1228POPC   D2A18460   3.506   6.645   8.264
 1228POPC   C3A18461   3.531   6.666   7.964
 1228POPC   C4A18462   3.565   6.675   7.664
 1228POPC   C1B18463   3.298   6.760   8.564
 1228POPC   C2B18464   3.386   6.809   8.264
 1228POPC   C3B18465   3.355   6.792   7.964
 1228POPC   C4B18466   3.319   6.756   7.664
 1229POPC   NC318467  36.128  32.999   9.464
 1229POPC   PO418468  36.084  33.064   9.164
 1229POPC   GL118469  36.100  33.047   8.864
 1229POPC   GL218470  36.105  32.896   8.864
 1229POPC   C1A18471  36.148  32.977   8.564
 1229POPC   D2A18472  36.078  33.031   8.264
 1229POPC   C3A18473  36.083  33.054   7.964
 1229POPC   C4A18474  36.112  33.048   7.664
 1229POPC   C1B18475  35.965  32.852   8.564
 1229POPC   C2B18476  35.955  32.827   8.264
 1229POPC   C3B18477  35.959  32.786   7.964
 1229POPC   C4B18478  35.989  32.846   7.664
 1230POPC   NC318479   9.717  19.027   9.464
 1230POPC   PO418480   9.766  19.018   9.164
 1230POPC   GL118481   9.764  19.009   8.864
 1230POPC   GL218482   9.720  18.957   8.864
 1230POPC   C1A18483   9.701  19.033   8.564
 1230POPC   D2A18484   9.751  19.098   8.264
 1230POPC   C3A18485   9.720  19.071   7.964
 1230POPC   C4A18486   9.717  19.041   7.664
 1230POPC   C1B18487   9.627  18.795   8.564
 1230POPC   C2B18488   9.653  18.785   8.264
 1230POPC   C3B18489   9.672  18.779   7.964
 1230POPC   C4B18490   9.682  18.849   7.664
 1231POPC   NC318491  28.339  40.760   9.464
 1231POPC   PO418492  28.346  40.738   9.164
 1231POPC   GL118493  28.410  40.735   8.864
 1231POPC   GL218494  28.314  40.902   8.864
 1231POPC   C1A18495  28.343  40.785   8.564
 1231POPC   D2A18496  28.391  40.773   8.264
 1231POPC   C3A18497  28.347  40.816   7.964
 1231POPC   C4A18498  28.347  40.807   7.664
 1231POPC   C1B18499  28.122  40.898   8.564
 1231POPC   C2B18500  28.136  40.938   8.264
 1231POPC   C3B18501  28.150  40.900   7.964
 1231POPC   C4B18502  28.165  40.910   7.664
 1232POPC   NC318503   5.047  32.246   9.464
 1232POPC   PO418504   5.057  32.277   9.164
 1232POPC   GL118505   5.135  32.277   8.864
 1232POPC   GL218506   5.006  32.377   8.864
 1232POPC   C1A18507   5.101  32.235   8.564
 1232POPC   D2A18508   5.054  32.213   8.264
 1232POPC   C3A18509   5.093  32.289   7.964
 1232POPC   C4A18510   5.045  32.251   7.664
 1232POPC   C1B18511   4.895  32.391   8.564
 1232POPC   C2B18512   4.913  32.374   8.264
 1232POPC   C3B18513   4.929  32.404   7.964
 1232POPC   C4B18514   4.919  32.457   7.664
 1233POPC   NC318515   1.216  14.440   9.464
 1233POPC   PO418516   1.233  14.400   9.164
 1233POPC   GL118517   1.228  14.428   8.864
 1233POPC   GL218518   1.232  14.246   8.864
 1233POPC   C1A18519   1.191  14.389   8.564
 1233POPC   D2A18520   1.235  14.359   8.264
 1233POPC   C3A18521   1.261  14.428   7.964
 1233POPC   C4A18522   1.248  14.431   7.664
 1233POPC   C1B18523   1.326  14.197   8.564
 1233POPC   C2B18524   1.339  14.152   8.264
 1233POPC   C3B18525   1.322  14.180   7.964
 1233POPC   C4B18526   1.330  14.197   7.664
 1234POPC   NC318527  26.798  15.925   9.464
 1234POPC   PO418528  26.817  15.976   9.164
 1234POPC   GL118529  26.780  15.923   8.864
 1234POPC   GL218530  26.857  16.041   8.864
 1234POPC   C1A18531  26.861  15.925   8.564
 1234POPC   D2A18532  26.802  15.909   8.264
 1234POPC   C3A18533  26.822  15.924   7.964
 1234POPC   C4A18534  26.867  15.952   7.664
 1234POPC   C1B18535  26.815  16.184   8.564
 1234POPC   C2B18536  26.777  16.174   8.264
 1234POPC   C3B18537  26.809  16.178   7.964
 1234POPC   C4B18538  26.840  16.161   7.664
 1235POPC   NC318539  29.134  36.854   9.464
 1235POPC   PO418540  29.098  36.884   9.164
 1235POPC   GL118541  29.110  36.925   8.864
 1235POPC   GL218542  29.207  36.946   8.864
 1235POPC   C1A18543  29.195  36.936   8.564
 1235POPC   D2A18544  29.176  36.906   8.264
 1235POPC   C3A18545  29.162  36.936   7.964
 1235POPC   C4A18546  29.180  36.883   7.664
 1235POPC   C1B18547  29.301  37.077   8.564
 1235POPC   C2B18548  29.306  37.091   8.264
 1235POPC   C3B18549  29.308  37.113   7.964
 1235POPC   C4B18550  29.350  37.046   7.664
 1236POPC   NC318551  42.364  15.216   9.464
 1236POPC   PO418552  42.381  15.190   9.164
 1236POPC   GL118553  42.369  15.218   8.864
 1236POPC   GL218554  42.238  15.235   8.864
 1236POPC   C1A18555  42.382  15.228   8.564
 1236POPC   D2A18556  42.288  15.191   8.264
 1236POPC   C3A18557  42.350  15.203   7.964
 1236POPC   C4A18558  42.303  15.205   7.664
 1236POPC   C1B18559  42.206  15.385   8.564
 1236POPC   C2B18560  42.149  15.347   8.264
 1236POPC   C3B18561  42.179  15.420   7.964
 1236POPC   C4B18562  42.219  15.357   7.664
 1237POPC   NC318563   4.340  30.662   9.464
 1237POPC   PO418564   4.339  30.744   9.164
 1237POPC   GL118565   4.314  30.690   8.864
 1237POPC   GL218566   4.240  30.778   8.864
 1237POPC   C1A18567   4.340  30.662   8.564
 1237POPC   D2A18568   4.293  30.738   8.264
 1237POPC   C3A18569   4.280  30.720   7.964
 1237POPC   C4A18570   4.268  30.694   7.664
 1237POPC   C1B18571   4.113  30.793   8.564
 1237POPC   C2B18572   4.142  30.814   8.264
 1237POPC   C3B18573   4.075  30.872   7.964
 1237POPC   C4B18574   4.139  30.815   7.664
 1238POPC   NC318575  15.168   2.761   9.464
 1238POPC   PO418576  15.212   2.716   9.164
 1238POPC   GL118577  15.155   2.811   8.864
 1238POPC   GL218578  15.097   2.606   8.864
 1238POPC   C1A18579  15.204   2.767   8.564
 1238POPC   D2A18580  15.161   2.724   8.264
 1238POPC   C3A18581  15.158   2.786   7.964
 1238POPC   C4A18582  15.173   2.796   7.664
 1238POPC   C1B18583  15.081   2.576   8.564
 1238POPC   C2B18584  15.045   2.572   8.264
 1238POPC   C3B18585  15.027   2.507   7.964
 1238POPC   C4B18586  15.075   2.559   7.664
 1239POPC   NC318587  34.602  22.895   9.464
 1239POPC   PO418588  34.569  22.925   9.164
 1239POPC   GL118589  34.604  22.939   8.864
 1239POPC   GL218590  34.474  22.811   8.864
 1239POPC   C1A18591  34.527  22.928   8.564
 1239POPC   D2A18592  34.546  22.937   8.264
 1239POPC   C3A18593  34.536  22.968   7.964
 1239POPC   C4A18594  34.590  22.922   7.664
 1239POPC   C1B18595  34.344  22.806   8.564
 1239POPC   C2B18596  34.416  22.806   8.264
 1239POPC   C3B18597  34.378  22.762   7.964
 1239POPC   C4B18598  34.332  22.816   7.664
 1240POPC   NC318599  39.185  33.798   9.464
 1240POPC   PO418600  39.275  33.777   9.164
 1240POPC   GL118601  39.220  33.820   8.864
 1240POPC   GL218602  39.336  33.757   8.864
 1240POPC   C1A18603  39.272  33.825   8.564
 1240POPC   D2A18604  39.198  33.756   8.264
 1240POPC   C3A18605  39.260  33.787   7.964
 1240POPC   C4A18606  39.221  33.804   7.664
 1240POPC   C1B18607  39.401  33.660   8.564
 1240POPC   C2B18608  39.430  33.672   8.264
 1240POPC   C3B18609  39.472  33.686   7.964
 1240POPC   C4B18610  39.459  33.704   7.664
 1241POPC   NC318611   2.768  20.580   9.464
 1241POPC   PO418612   2.785  20.622   9.164
 1241POPC   GL118613   2.722  20.658   8.864
 1241POPC   GL218614   2.892  20.625   8.864
 1241POPC   C1A18615   2.748  20.583   8.564
 1241POPC   D2A18616   2.739  20.611   8.264
 1241POPC   C3A18617   2.800  20.612   7.964
 1241POPC   C4A18618   2.796  20.601   7.664
 1241POPC   C1B18619   3.026  20.571   8.564
 1241POPC   C2B18620   3.057  20.589   8.264
 1241POPC   C3B18621   2.972  20.567   7.964
 1241POPC   C4B18622   3.030  20.591   7.664
 1242POPC   NC318623  34.548  20.613   9.464
 1242POPC   PO418624  34.619  20.635   9.164
 1242POPC   GL118625  34.608  20.653   8.864
 1242POPC   GL218626  34.676  20.624   8.864
 1242POPC   C1A18627  34.545  20.588   8.564
 1242POPC   D2A18628  34.541  20.636   8.264
 1242POPC   C3A18629  34.615  20.655   7.964
 1242POPC   C4A18630  34.581  20.635   7.664
 1242POPC   C1B18631  34.790  20.542   8.564
 1242POPC   C2B18632  34.830  20.563   8.264
 1242POPC   C3B18633  34.857  20.592   7.964
 1242POPC   C4B18634  34.839  20.502   7.664
 1243POPC   NC318635  43.838   9.796   9.464
 1243POPC   PO418636  43.912   9.722   9.164
 1243POPC   GL118637  43.882   9.775   8.864
 1243POPC   GL218638  43.894   9.869   8.864
 1243POPC   C1A18639  43.840   9.729   8.564
 1243POPC   D2A18640  43.899   9.750   8.264
 1243POPC   C3A18641  43.880   9.733   7.964
 1243POPC   C4A18642  43.923   9.742   7.664
 1243POPC   C1B18643  43.868   9.962   8.564
 1243POPC   C2B18644  43.815  10.013   8.264
 1243POPC   C3B18645  43.878   9.993   7.964
 1243POPC   C4B18646  43.837   9.952   7.664
 1244POPC   NC318647   7.457  17.515   9.464
 1244POPC   PO418648   7.387  17.460   9.164
 1244POPC   GL118649   7.399  17.498   8.864
 1244POPC   GL218650   7.280  17.503   8.864
 1244POPC   C1A18651   7.438  17.501   8.564
 1244POPC   D2A18652   7.465  17.500   8.264
 1244POPC   C3A18653   7.389  17.518   7.964
 1244POPC   C4A18654   7.413  17.522   7.664
 1244POPC   C1B18655   7.199  17.519   8.564
 1244POPC   C2B18656   7.178  17.557   8.264
 1244POPC   C3B18657   7.157  17.560   7.964
 1244POPC   C4B18658   7.189  17.481   7.664
 1245POPC   NC318659  12.876  29.140   9.464
 1245POPC   PO418660  12.821  29.115   9.164
 1245POPC   GL118661  12.877  29.148   8.864
 1245POPC   GL218662  12.837  29.028   8.864
 1245POPC   C1A18663  12.824  29.160   8.564
 1245POPC   D2A18664  12.899  29.132   8.264
 1245POPC   C3A18665  12.896  29.195   7.964
 1245POPC   C4A18666  12.815  29.099   7.664
 1245POPC   C1B18667  12.761  28.958   8.564
 1245POPC   C2B18668  12.773  28.893   8.264
 1245POPC   C3B18669  12.727  28.966   7.964
 1245POPC   C4B18670  12.720  28.887   7.664
 1246POPC   NC318671  44.634  17.528   9.464
 1246POPC   PO418672  44.612  17.475   9.164
 1246POPC   GL118673  44.630  17.500   8.864
 1246POPC   GL218674  44.670  17.344   8.864
 1246POPC   C1A18675  44.698  17.496   8.564
 1246POPC   D2A18676  44.695  17.555   8.264
 1246POPC   C3A18677  44.662  17.484   7.964
 1246POPC   C4A18678  44.688  17.518   7.664
 1246POPC   C1B18679  44.617  17.300   8.564
 1246POPC   C2B18680  44.637  17.270   8.264
 1246POPC   C3B18681  44.674  17.269   7.964
 1246POPC   C4B18682  44.623  17.267   7.664
 1247POPC   NC318683   8.160  20.618   9.464
 1247POPC   PO418684   8.193  20.632   9.164
 1247POPC   GL118685   8.207  20.601   8.864
 1247POPC   GL218686   8.314  20.727   8.864
 1247POPC   C1A18687   8.242  20.584   8.564
 1247POPC   D2A18688   8.182  20.642   8.264
 1247POPC   C3A18689   8.188  20.610   7.964
 1247POPC   C4A18690   8.160  20.623   7.664
 1247POPC   C1B18691   8.331  20.846   8.564
 1247POPC   C2B18692   8.374  20.797   8.264
 1247POPC   C3B18693   8.383  20.838   7.964
 1247POPC   C4B18694   8.379  20.759   7.664
 1248POPC   NC318695   6.663  22.932   9.464
 1248POPC   PO418696   6.649  22.951   9.164
 1248POPC   GL118697   6.666  22.941   8.864
 1248POPC   GL218698   6.528  23.020   8.864
 1248POPC   C1A18699   6.666  22.920   8.564
 1248POPC   D2A18700   6.621  22.943   8.264
 1248POPC   C3A18701   6.674  22.966   7.964
 1248POPC   C4A18702   6.665  22.894   7.664
 1248POPC   C1B18703   6.369  23.031   8.564
 1248POPC   C2B18704   6.439  23.051   8.264
 1248POPC   C3B18705   6.461  23.012   7.964
 1248POPC   C4B18706   6.432  23.046   7.664
 1249POPC   NC318707  38.495   8.172   9.464
 1249POPC   PO418708  38.478   8.212   9.164
 1249POPC   GL118709  38.497   8.156   8.864
 1249POPC   GL218710  38.360   8.280   8.864
 1249POPC   C1A18711  38.465   8.208   8.564
 1249POPC   D2A18712  38.424   8.169   8.264
 1249POPC   C3A18713  38.499   8.173   7.964
 1249POPC   C4A18714  38.464   8.189   7.664
 1249POPC   C1B18715  38.243   8.425   8.564
 1249POPC   C2B18716  38.335   8.379   8.264
 1249POPC   C3B18717  38.263   8.371   7.964
 1249POPC   C4B18718  38.305   8.428   7.664
 1250POPC   NC318719  15.949  19.837   9.464
 1250POPC   PO418720  15.957  19.861   9.164
 1250POPC   GL118721  15.918  19.850   8.864
 1250POPC   GL218722  16.035  19.927   8.864
 1250POPC   C1A18723  15.956  19.846   8.564
 1250POPC   D2A18724  15.966  19.857   8.264
 1250POPC   C3A18725  15.963  19.837   7.964
 1250POPC   C4A18726  15.952  19.854   7.664
 1250POPC   C1B18727  16.149  20.000   8.564
 1250POPC   C2B18728  16.158  19.985   8.264
 1250POPC   C3B18729  16.202  20.005   7.964
 1250POPC   C4B18730  16.136  20.013   7.664
 1251POPC   NC318731  22.889  27.558   9.464
 1251POPC   PO418732  22.984  27.632   9.164
 1251POPC   GL118733  22.888  27.579   8.864
 1251POPC   GL218734  23.021  27.666   8.864
 1251POPC   C1A18735  22.899  27.578   8.564
 1251POPC   D2A18736  22.901  27.597   8.264
 1251POPC   C3A18737  22.964  27.638   7.964
 1251POPC   C4A18738  22.936  27.559   7.664
 1251POPC   C1B18739  23.226  27.645   8.564
 1251POPC   C2B18740  23.210  27.680   8.264
 1251POPC   C3B18741  23.221  27.702   7.964
 1251POPC   C4B18742  23.224  27.657   7.664
 1252POPC   NC318743  36.857  32.207   9.464
 1252POPC   PO418744  36.915  32.288   9.164
 1252POPC   GL118745  36.924  32.217   8.864
 1252POPC   GL218746  36.963  32.303   8.864
 1252POPC   C1A18747  36.869  32.270   8.564
 1252POPC   D2A18748  36.897  32.283   8.264
 1252POPC   C3A18749  36.933  32.214   7.964
 1252POPC   C4A18750  36.942  32.230   7.664
 1252POPC   C1B18751  37.124  32.419   8.564
 1252POPC   C2B18752  37.113  32.452   8.264
 1252POPC   C3B18753  37.059  32.415   7.964
 1252POPC   C4B18754  37.049  32.376   7.664
 1253POPC   NC318755  29.926  36.124   9.464
 1253POPC   PO418756  29.899  36.156   9.164
 1253POPC   GL118757  29.882  36.094   8.864
 1253POPC   GL218758  29.863  35.970   8.864
 1253POPC   C1A18759  29.910  36.120   8.564
 1253POPC   D2A18760  29.956  36.146   8.264
 1253POPC   C3A18761  29.944  36.114   7.964
 1253POPC   C4A18762  29.928  36.137   7.664
 1253POPC   C1B18763  29.781  35.869   8.564
 1253POPC   C2B18764  29.847  35.942   8.264
 1253POPC   C3B18765  29.816  35.902   7.964
 1253POPC   C4B18766  29.820  35.924   7.664
 1254POPC   NC318767   2.731  10.566   9.464
 1254POPC   PO418768   2.763  10.527   9.164
 1254POPC   GL118769   2.812  10.490   8.864
 1254POPC   GL218770   2.863  10.584   8.864
 1254POPC   C1A18771   2.746  10.521   8.564
 1254POPC   D2A18772   2.814  10.539   8.264
 1254POPC   C3A18773   2.776  10.557   7.964
 1254POPC   C4A18774   2.801  10.546   7.664
 1254POPC   C1B18775   2.860  10.715   8.564
 1254POPC   C2B18776   2.932  10.718   8.264
 1254POPC   C3B18777   2.888  10.764   7.964
 1254POPC   C4B18778   2.843  10.694   7.664
 1255POPC   NC318779  41.517  22.949   9.464
 1255POPC   PO418780  41.593  22.974   9.164
 1255POPC   GL118781  41.587  22.955   8.864
 1255POPC   GL218782  41.551  23.015   8.864
 1255POPC   C1A18783  41.571  22.893   8.564
 1255POPC   D2A18784  41.556  22.933   8.264
 1255POPC   C3A18785  41.591  22.897   7.964
 1255POPC   C4A18786  41.553  22.982   7.664
 1255POPC   C1B18787  41.525  23.206   8.564
 1255POPC   C2B18788  41.489  23.146   8.264
 1255POPC   C3B18789  41.531  23.220   7.964
 1255POPC   C4B18790  41.487  23.143   7.664
 1256POPC   NC318791   2.815   8.204   9.464
 1256POPC   PO418792   2.750   8.217   9.164
 1256POPC   GL118793   2.784   8.183   8.864
 1256POPC   GL218794   2.673   8.275   8.864
 1256POPC   C1A18795   2.746   8.175   8.564
 1256POPC   D2A18796   2.721   8.198   8.264
 1256POPC   C3A18797   2.802   8.213   7.964
 1256POPC   C4A18798   2.786   8.236   7.664
 1256POPC   C1B18799   2.625   8.378   8.564
 1256POPC   C2B18800   2.609   8.416   8.264
 1256POPC   C3B18801   2.672   8.449   7.964
 1256POPC   C4B18802   2.666   8.445   7.664
 1257POPC   NC318803  25.248  40.000   9.464
 1257POPC   PO418804  25.230  39.999   9.164
 1257POPC   GL118805  25.298  40.033   8.864
 1257POPC   GL218806  25.340  39.926   8.864
 1257POPC   C1A18807  25.220  39.982   8.564
 1257POPC   D2A18808  25.259  39.986   8.264
 1257POPC   C3A18809  25.272  40.048   7.964
 1257POPC   C4A18810  25.263  40.048   7.664
 1257POPC   C1B18811  25.412  39.816   8.564
 1257POPC   C2B18812  25.451  39.799   8.264
 1257POPC   C3B18813  25.424  39.795   7.964
 1257POPC   C4B18814  25.377  39.811   7.664
 1258POPC   NC318815   2.745  15.927   9.464
 1258POPC   PO418816   2.767  15.990   9.164
 1258POPC   GL118817   2.777  16.002   8.864
 1258POPC   GL218818   2.783  16.127   8.864
 1258POPC   C1A18819   2.814  15.994   8.564
 1258POPC   D2A18820   2.720  15.938   8.264
 1258POPC   C3A18821   2.724  15.956   7.964
 1258POPC   C4A18822   2.765  15.943   7.664
 1258POPC   C1B18823   2.785  16.222   8.564
 1258POPC   C2B18824   2.716  16.220   8.264
 1258POPC   C3B18825   2.785  16.199   7.964
 1258POPC   C4B18826   2.744  16.234   7.664
 1259POPC   NC318827   1.185   4.284   9.464
 1259POPC   PO418828   1.247   4.342   9.164
 1259POPC   GL118829   1.224   4.286   8.864
 1259POPC   GL218830   1.281   4.205   8.864
 1259POPC   C1A18831   1.166   4.360   8.564
 1259POPC   D2A18832   1.230   4.341   8.264
 1259POPC   C3A18833   1.219   4.284   7.964
 1259POPC   C4A18834   1.195   4.280   7.664
 1259POPC   C1B18835   1.337   4.097   8.564
 1259POPC   C2B18836   1.424   4.168   8.264
 1259POPC   C3B18837   1.338   4.128   7.964
 1259POPC   C4B18838   1.346   4.127   7.664
 1260POPC   NC318839  34.600  13.614   9.464
 1260POPC   PO418840  34.545  13.619   9.164
 1260POPC   GL118841  34.586  13.619   8.864
 1260POPC   GL218842  34.614  13.477   8.864
 1260POPC   C1A18843  34.540  13.656   8.564
 1260POPC   D2A18844  34.543  13.623   8.264
 1260POPC   C3A18845  34.567  13.613   7.964
 1260POPC   C4A18846  34.545  13.593   7.664
 1260POPC   C1B18847  34.683  13.345   8.564
 1260POPC   C2B18848  34.703  13.393   8.264
 1260POPC   C3B18849  34.647  13.380   7.964
 1260POPC   C4B18850  34.684  13.365   7.664
 1261POPC   NC318851  22.924  29.170   9.464
 1261POPC   PO418852  22.944  29.113   9.164
 1261POPC   GL118853  22.898  29.109   8.864
 1261POPC   GL218854  23.044  29.040   8.864
 1261POPC   C1A18855  22.940  29.192   8.564
 1261POPC   D2A18856  22.951  29.174   8.264
 1261POPC   C3A18857  22.974  29.169   7.964
 1261POPC   C4A18858  22.944  29.101   7.664
 1261POPC   C1B18859  23.065  28.938   8.564
 1261POPC   C2B18860  23.067  28.916   8.264
 1261POPC   C3B18861  23.083  28.907   7.964
 1261POPC   C4B18862  23.045  28.960   7.664
 1262POPC   NC318863  12.113  15.943   9.464
 1262POPC   PO418864  12.042  15.938   9.164
 1262POPC   GL118865  12.114  15.907   8.864
 1262POPC   GL218866  11.971  16.021   8.864
 1262POPC   C1A18867  12.086  15.957   8.564
 1262POPC   D2A18868  12.040  15.939   8.264
 1262POPC   C3A18869  12.026  15.939   7.964
 1262POPC   C4A18870  12.090  15.990   7.664
 1262POPC   C1B18871  11.830  16.053   8.564
 1262POPC   C2B18872  11.816  16.136   8.264
 1262POPC   C3B18873  11.831  16.100   7.964
 1262POPC   C4B18874  11.907  16.131   7.664
 1263POPC   NC318875  41.525  26.037   9.464
 1263POPC   PO418876  41.559  26.070   9.164
 1263POPC   GL118877  41.522  26.000   8.864
 1263POPC   GL218878  41.540  25.942   8.864
 1263POPC   C1A18879  41.591  26.014   8.564
 1263POPC   D2A18880  41.514  26.066   8.264
 1263POPC   C3A18881  41.513  26.091   7.964
 1263POPC   C4A18882  41.571  26.038   7.664
 1263POPC   C1B18883  41.481  25.824   8.564
 1263POPC   C2B18884  41.473  25.832   8.264
 1263POPC   C3B18885  41.479  25.786   7.964
 1263POPC   C4B18886  41.504  25.778   7.664
 1264POPC   NC318887  11.314  26.838   9.464
 1264POPC   PO418888  11.339  26.852   9.164
 1264POPC   GL118889  11.285  26.782   8.864
 1264POPC   GL218890  11.206  26.727   8.864
 1264POPC   C1A18891  11.266  26.769   8.564
 1264POPC   D2A18892  11.262  26.785   8.264
 1264POPC   C3A18893  11.259  26.786   7.964
 1264POPC   C4A18894  11.346  26.810   7.664
 1264POPC   C1B18895  11.101  26.655   8.564
 1264POPC   C2B18896  11.090  26.614   8.264
 1264POPC   C3B18897  11.137  26.674   7.964
 1264POPC   C4B18898  11.101  26.668   7.664
 1265POPC   NC318899  28.399  41.604   9.464
 1265POPC   PO418900  28.368  41.518   9.164
 1265POPC   GL118901  28.391  41.550   8.864
 1265POPC   GL218902  28.332  41.461   8.864
 1265POPC   C1A18903  28.397  41.564   8.564
 1265POPC   D2A18904  28.400  41.579   8.264
 1265POPC   C3A18905  28.404  41.587   7.964
 1265POPC   C4A18906  28.392  41.606   7.664
 1265POPC   C1B18907  28.411  41.343   8.564
 1265POPC   C2B18908  28.343  41.259   8.264
 1265POPC   C3B18909  28.346  41.355   7.964
 1265POPC   C4B18910  28.335  41.290   7.664
 1266POPC   NC318911  39.274  15.934   9.464
 1266POPC   PO418912  39.192  15.951   9.164
 1266POPC   GL118913  39.236  15.940   8.864
 1266POPC   GL218914  39.156  16.085   8.864
 1266POPC   C1A18915  39.211  16.003   8.564
 1266POPC   D2A18916  39.191  15.948   8.264
 1266POPC   C3A18917  39.264  16.004   7.964
 1266POPC   C4A18918  39.207  16.001   7.664
 1266POPC   C1B18919  39.124  16.242   8.564
 1266POPC   C2B18920  39.196  16.201   8.264
 1266POPC   C3B18921  39.172  16.220   7.964
 1266POPC   C4B18922  39.192  16.234   7.664
 1267POPC   NC318923   1.982  22.173   9.464
 1267POPC   PO418924   1.957  22.212   9.164
 1267POPC   GL118925   1.944  22.189   8.864
 1267POPC   GL218926   2.076  22.176   8.864
 1267POPC   C1A18927   1.948  22.147   8.564
 1267POPC   D2A18928   1.940  22.179   8.264
 1267POPC   C3A18929   1.982  22.116   7.964
 1267POPC   C4A18930   1.952  22.117   7.664
 1267POPC   C1B18931   2.235  22.300   8.564
 1267POPC   C2B18932   2.230  22.272   8.264
 1267POPC   C3B18933   2.270  22.241   7.964
 1267POPC   C4B18934   2.225  22.304   7.664
 1268POPC   NC318935  20.656   5.119   9.464
 1268POPC   PO418936  20.649   5.138   9.164
 1268POPC   GL118937  20.601   5.117   8.864
 1268POPC   GL218938  20.680   5.188   8.864
 1268POPC   C1A18939  20.583   5.106   8.564
 1268POPC   D2A18940  20.632   5.044   8.264
 1268POPC   C3A18941  20.657   5.056   7.964
 1268POPC   C4A18942  20.599   5.132   7.664
 1268POPC   C1B18943  20.690   5.323   8.564
 1268POPC   C2B18944  20.608   5.348   8.264
 1268POPC   C3B18945  20.648   5.381   7.964
 1268POPC   C4B18946  20.679   5.320   7.664
 1269POPC   NC318947  35.399  42.372   9.464
 1269POPC   PO418948  35.367  42.360   9.164
 1269POPC   GL118949  35.338  42.304   8.864
 1269POPC   GL218950  35.476  42.356   8.864
 1269POPC   C1A18951  35.326  42.316   8.564
 1269POPC   D2A18952  35.387  42.359   8.264
 1269POPC   C3A18953  35.367  42.296   7.964
 1269POPC   C4A18954  35.400  42.327   7.664
 1269POPC   C1B18955  35.578  42.434   8.564
 1269POPC   C2B18956  35.620  42.452   8.264
 1269POPC   C3B18957  35.565  42.420   7.964
 1269POPC   C4B18958  35.537  42.451   7.664
 1270POPC   NC318959  31.461  42.334   9.464
 1270POPC   PO418960  31.452  42.287   9.164
 1270POPC   GL118961  31.512  42.319   8.864
 1270POPC   GL218962  31.571  42.301   8.864
 1270POPC   C1A18963  31.502  42.349   8.564
 1270POPC   D2A18964  31.497  42.310   8.264
 1270POPC   C3A18965  31.510  42.350   7.964
 1270POPC   C4A18966  31.451  42.350   7.664
 1270POPC   C1B18967  31.716  42.257   8.564
 1270POPC   C2B18968  31.684  42.206   8.264
 1270POPC   C3B18969  31.693  42.211   7.964
 1270POPC   C4B18970  31.679  42.224   7.664
 1271POPC   NC318971   0.388  39.201   9.464
 1271POPC   PO418972   0.411  39.262   9.164
 1271POPC   GL118973   0.405  39.259   8.864
 1271POPC   GL218974   0.443  39.356   8.864
 1271POPC   C1A18975   0.396  39.277   8.564
 1271POPC   D2A18976   0.391  39.259   8.264
 1271POPC   C3A18977   0.470  39.203   7.964
 1271POPC   C4A18978   0.479  39.238   7.664
 1271POPC   C1B18979   0.444  39.494   8.564
 1271POPC   C2B18980   0.382  39.435   8.264
 1271POPC   C3B18981   0.440  39.470   7.964
 1271POPC   C4B18982   0.393  39.499   7.664
 1272POPC   NC318983  33.793  26.828   9.464
 1272POPC   PO418984  33.814  26.841   9.164
 1272POPC   GL118985  33.835  26.819   8.864
 1272POPC   GL218986  33.853  26.703   8.864
 1272POPC   C1A18987  33.837  26.794   8.564
 1272POPC   D2A18988  33.835  26.828   8.264
 1272POPC   C3A18989  33.796  26.795   7.964
 1272POPC   C4A18990  33.825  26.774   7.664
 1272POPC   C1B18991  33.852  26.538   8.564
 1272POPC   C2B18992  33.874  26.566   8.264
 1272POPC   C3B18993  33.800  26.551   7.964
 1272POPC   C4B18994  33.870  26.587   7.664
 1273POPC   NC318995  26.800   1.200   9.464
 1273POPC   PO418996  26.796   1.250   9.164
 1273POPC   GL118997  26.813   1.219   8.864
 1273POPC   GL218998  26.916   1.346   8.864
 1273POPC   C1A18999  26.816   1.229   8.564
 1273POPC   D2A19000  26.787   1.176   8.264
 1273POPC   C3A19001  26.778   1.166   7.964
 1273POPC   C4A19002  26.835   1.204   7.664
 1273POPC   C1B19003  26.889   1.397   8.564
 1273POPC   C2B19004  26.918   1.439   8.264
 1273POPC   C3B19005  26.871   1.462   7.964
 1273POPC   C4B19006  26.886   1.399   7.664
 1274POPC   NC319007  39.193  12.058   9.464
 1274POPC   PO419008  39.216  12.027   9.164
 1274POPC   GL119009  39.190  12.101   8.864
 1274POPC   GL219010  39.293  12.166   8.864
 1274POPC   C1A19011  39.207  12.089   8.564
 1274POPC   D2A19012  39.190  12.098   8.264
 1274POPC   C3A19013  39.232  12.092   7.964
 1274POPC   C4A19014  39.181  12.109   7.664
 1274POPC   C1B19015  39.310  12.277   8.564
 1274POPC   C2B19016  39.268  12.363   8.264
 1274POPC   C3B19017  39.291  12.322   7.964
 1274POPC   C4B19018  39.309  12.300   7.664
 1275POPC   NC319019  29.940  43.085   9.464
 1275POPC   PO419020  29.871  43.106   9.164
 1275POPC   GL119021  29.965  43.066   8.864
 1275POPC   GL219022  29.959  42.985   8.864
 1275POPC   C1A19023  29.953  43.099   8.564
 1275POPC   D2A19024  29.920  43.157   8.264
 1275POPC   C3A19025  29.899  43.139   7.964
 1275POPC   C4A19026  29.879  43.089   7.664
 1275POPC   C1B19027  29.907  42.821   8.564
 1275POPC   C2B19028  29.961  42.848   8.264
 1275POPC   C3B19029  29.965  42.867   7.964
 1275POPC   C4B19030  29.953  42.867   7.664
 1276POPC   NC319031  34.527  39.203   9.464
 1276POPC   PO419032  34.601  39.207   9.164
 1276POPC   GL119033  34.577  39.184   8.864
 1276POPC   GL219034  34.467  39.123   8.864
 1276POPC   C1A19035  34.589  39.270   8.564
 1276POPC   D2A19036  34.549  39.211   8.264
 1276POPC   C3A19037  34.598  39.230   7.964
 1276POPC   C4A19038  34.545  39.210   7.664
 1276POPC   C1B19039  34.338  39.048   8.564
 1276POPC   C2B19040  34.377  39.100   8.264
 1276POPC   C3B19041  34.415  39.055   7.964
 1276POPC   C4B19042  34.404  39.068   7.664
 1277POPC   NC319043  24.477  34.579   9.464
 1277POPC   PO419044  24.479  34.587   9.164
 1277POPC   GL119045  24.479  34.606   8.864
 1277POPC   GL219046  24.570  34.634   8.864
 1277POPC   C1A19047  24.503  34.592   8.564
 1277POPC   D2A19048  24.447  34.573   8.264
 1277POPC   C3A19049  24.466  34.622   7.964
 1277POPC   C4A19050  24.535  34.555   7.664
 1277POPC   C1B19051  24.678  34.700   8.564
 1277POPC   C2B19052  24.760  34.633   8.264
 1277POPC   C3B19053  24.740  34.685   7.964
 1277POPC   C4B19054  24.763  34.673   7.664
 1278POPC   NC319055  32.980  14.443   9.464
 1278POPC   PO419056  33.069  14.407   9.164
 1278POPC   GL119057  33.007  14.393   8.864
 1278POPC   GL219058  33.071  14.505   8.864
 1278POPC   C1A19059  33.045  14.358   8.564
 1278POPC   D2A19060  33.045  14.364   8.264
 1278POPC   C3A19061  33.068  14.415   7.964
 1278POPC   C4A19062  32.989  14.364   7.664
 1278POPC   C1B19063  33.012  14.703   8.564
 1278POPC   C2B19064  33.062  14.621   8.264
 1278POPC   C3B19065  32.988  14.617   7.964
 1278POPC   C4B19066  33.075  14.610   7.664
 1279POPC   NC319067  34.559  10.522   9.464
 1279POPC   PO419068  34.558  10.481   9.164
 1279POPC   GL119069  34.625  10.530   8.864
 1279POPC   GL219070  34.638  10.393   8.864
 1279POPC   C1A19071  34.591  10.514   8.564
 1279POPC   D2A19072  34.592  10.503   8.264
 1279POPC   C3A19073  34.576  10.492   7.964
 1279POPC   C4A19074  34.549  10.569   7.664
 1279POPC   C1B19075  34.657  10.307   8.564
 1279POPC   C2B19076  34.741  10.301   8.264
 1279POPC   C3B19077  34.685  10.263   7.964
 1279POPC   C4B19078  34.699  10.267   7.664
 1280POPC   NC319079   2.023  39.265   9.464
 1280POPC   PO419080   2.012  39.246   9.164
 1280POPC   GL119081   1.944  39.258   8.864
 1280POPC   GL219082   2.087  39.377   8.864
 1280POPC   C1A19083   2.023  39.237   8.564
 1280POPC   D2A19084   2.035  39.258   8.264
 1280POPC   C3A19085   1.946  39.270   7.964
 1280POPC   C4A19086   1.970  39.194   7.664
 1280POPC   C1B19087   2.144  39.409   8.564
 1280POPC   C2B19088   2.175  39.408   8.264
 1280POPC   C3B19089   2.128  39.445   7.964
 1280POPC   C4B19090   2.097  39.453   7.664
 1281POPC   NC319091  15.925   5.076   9.464
 1281POPC   PO419092  16.003   5.087   9.164
 1281POPC   GL119093  15.990   5.103   8.864
 1281POPC   GL219094  15.950   5.243   8.864
 1281POPC   C1A19095  15.907   5.065   8.564
 1281POPC   D2A19096  15.952   5.044   8.264
 1281POPC   C3A19097  15.981   5.134   7.964
 1281POPC   C4A19098  15.914   5.047   7.664
 1281POPC   C1B19099  15.908   5.366   8.564
 1281POPC   C2B19100  15.967   5.303   8.264
 1281POPC   C3B19101  15.983   5.358   7.964
 1281POPC   C4B19102  15.982   5.357   7.664
 1282POPC   NC319103  22.903  43.106   9.464
 1282POPC   PO419104  22.935  43.086   9.164
 1282POPC   GL119105  22.973  43.064   8.864
 1282POPC   GL219106  22.835  43.142   8.864
 1282POPC   C1A19107  22.982  43.155   8.564
 1282POPC   D2A19108  22.902  43.103   8.264
 1282POPC   C3A19109  22.919  43.080   7.964
 1282POPC   C4A19110  22.921  43.070   7.664
 1282POPC   C1B19111  22.654  43.062   8.564
 1282POPC   C2B19112  22.732  43.125   8.264
 1282POPC   C3B19113  22.727  43.119   7.964
 1282POPC   C4B19114  22.672  43.150   7.664
 1283POPC   NC319115  15.180  12.064   9.464
 1283POPC   PO419116  15.224  12.123   9.164
 1283POPC   GL119117  15.179  12.110   8.864
 1283POPC   GL219118  15.076  12.032   8.864
 1283POPC   C1A19119  15.202  12.030   8.564
 1283POPC   D2A19120  15.177  12.049   8.264
 1283POPC   C3A19121  15.185  12.122   7.964
 1283POPC   C4A19122  15.143  12.048   7.664
 1283POPC   C1B19123  14.967  11.877   8.564
 1283POPC   C2B19124  15.005  11.902   8.264
 1283POPC   C3B19125  14.971  11.869   7.964
 1283POPC   C4B19126  14.958  11.930   7.664
 1284POPC   NC319127   6.644  32.222   9.464
 1284POPC   PO419128   6.664  32.240   9.164
 1284POPC   GL119129   6.654  32.246   8.864
 1284POPC   GL219130   6.686  32.166   8.864
 1284POPC   C1A19131   6.617  32.252   8.564
 1284POPC   D2A19132   6.598  32.271   8.264
 1284POPC   C3A19133   6.687  32.272   7.964
 1284POPC   C4A19134   6.635  32.236   7.664
 1284POPC   C1B19135   6.641  31.980   8.564
 1284POPC   C2B19136   6.618  32.010   8.264
 1284POPC   C3B19137   6.649  32.039   7.964
 1284POPC   C4B19138   6.665  31.996   7.664
 1285POPC   NC319139  21.369  15.936   9.464
 1285POPC   PO419140  21.415  15.972   9.164
 1285POPC   GL119141  21.383  15.967   8.864
 1285POPC   GL219142  21.477  15.844   8.864
 1285POPC   C1A19143  21.341  15.971   8.564
 1285POPC   D2A19144  21.340  16.005   8.264
 1285POPC   C3A19145  21.396  15.983   7.964
 1285POPC   C4A19146  21.342  15.961   7.664
 1285POPC   C1B19147  21.549  15.729   8.564
 1285POPC   C2B19148  21.555  15.779   8.264
 1285POPC   C3B19149  21.497  15.727   7.964
 1285POPC   C4B19150  21.516  15.716   7.664
 1286POPC   NC319151   4.270  17.527   9.464
 1286POPC   PO419152   4.318  17.489   9.164
 1286POPC   GL119153   4.352  17.509   8.864
 1286POPC   GL219154   4.364  17.570   8.864
 1286POPC   C1A19155   4.286  17.534   8.564
 1286POPC   D2A19156   4.324  17.501   8.264
 1286POPC   C3A19157   4.344  17.556   7.964
 1286POPC   C4A19158   4.282  17.532   7.664
 1286POPC   C1B19159   4.443  17.716   8.564
 1286POPC   C2B19160   4.439  17.733   8.264
 1286POPC   C3B19161   4.406  17.721   7.964
 1286POPC   C4B19162   4.451  17.767   7.664
 1287POPC   NC319163  36.102   8.181   9.464
 1287POPC   PO419164  36.119   8.148   9.164
 1287POPC   GL119165  36.133   8.169   8.864
 1287POPC   GL219166  36.018   8.109   8.864
 1287POPC   C1A19167  36.177   8.241   8.564
 1287POPC   D2A19168  36.131   8.227   8.264
 1287POPC   C3A19169  36.161   8.167   7.964
 1287POPC   C4A19170  36.163   8.223   7.664
 1287POPC   C1B19171  35.932   7.980   8.564
 1287POPC   C2B19172  35.950   8.006   8.264
 1287POPC   C3B19173  35.934   7.986   7.964
 1287POPC   C4B19174  35.908   8.061   7.664
 1288POPC   NC319175  22.177  39.979   9.464
 1288POPC   PO419176  22.154  39.987   9.164
 1288POPC   GL119177  22.155  40.011   8.864
 1288POPC   GL219178  22.187  39.910   8.864
 1288POPC   C1A19179  22.178  39.974   8.564
 1288POPC   D2A19180  22.116  39.977   8.264
 1288POPC   C3A19181  22.179  40.012   7.964
 1288POPC   C4A19182  22.156  40.041   7.664
 1288POPC   C1B19183  22.148  39.716   8.564
 1288POPC   C2B19184  22.124  39.753   8.264
 1288POPC   C3B19185  22.169  39.781   7.964
 1288POPC   C4B19186  22.189  39.721   7.664
 1289POPC   NC319187  32.221  12.119   9.464
 1289POPC   PO419188  32.220  12.045   9.164
 1289POPC   GL119189  32.247  12.078   8.864
 1289POPC   GL219190  32.291  11.922   8.864
 1289POPC   C1A19191  32.208  12.096   8.564
 1289POPC   D2A19192  32.222  12.088   8.264
 1289POPC   C3A19193  32.252  12.111   7.964
 1289POPC   C4A19194  32.260  12.039   7.664
 1289POPC   C1B19195  32.390  11.859   8.564
 1289POPC   C2B19196  32.356  11.899   8.264
 1289POPC   C3B19197  32.314  11.803   7.964
 1289POPC   C4B19198  32.339  11.834   7.664
 1290POPC   NC319199  25.306  18.264   9.464
 1290POPC   PO419200  25.310  18.277   9.164
 1290POPC   GL119201  25.312  18.289   8.864
 1290POPC   GL219202  25.418  18.287   8.864
 1290POPC   C1A19203  25.242  18.286   8.564
 1290POPC   D2A19204  25.241  18.331   8.264
 1290POPC   C3A19205  25.250  18.241   7.964
 1290POPC   C4A19206  25.271  18.264   7.664
 1290POPC   C1B19207  25.459  18.360   8.564
 1290POPC   C2B19208  25.477  18.348   8.264
 1290POPC   C3B19209  25.454  18.362   7.964
 1290POPC   C4B19210  25.484  18.381   7.664
 1291POPC   NC319211   7.444  27.622   9.464
 1291POPC   PO419212   7.380  27.641   9.164
 1291POPC   GL119213   7.376  27.598   8.864
 1291POPC   GL219214   7.268  27.588   8.864
 1291POPC   C1A19215   7.426  27.603   8.564
 1291POPC   D2A19216   7.456  27.626   8.264
 1291POPC   C3A19217   7.407  27.564   7.964
 1291POPC   C4A19218   7.375  27.605   7.664
 1291POPC   C1B19219   7.204  27.550   8.564
 1291POPC   C2B19220   7.205  27.612   8.264
 1291POPC   C3B19221   7.162  27.548   7.964
 1291POPC   C4B19222   7.201  27.576   7.664
 1292POPC   NC319223  10.535  33.005   9.464
 1292POPC   PO419224  10.523  33.005   9.164
 1292POPC   GL119225  10.555  32.988   8.864
 1292POPC   GL219226  10.371  32.930   8.864
 1292POPC   C1A19227  10.486  33.044   8.564
 1292POPC   D2A19228  10.547  33.040   8.264
 1292POPC   C3A19229  10.500  33.042   7.964
 1292POPC   C4A19230  10.519  33.017   7.664
 1292POPC   C1B19231  10.345  32.873   8.564
 1292POPC   C2B19232  10.272  32.968   8.264
 1292POPC   C3B19233  10.250  32.922   7.964
 1292POPC   C4B19234  10.283  32.934   7.664
 1293POPC   NC319235  41.523   6.641   9.464
 1293POPC   PO419236  41.544   6.645   9.164
 1293POPC   GL119237  41.572   6.628   8.864
 1293POPC   GL219238  41.594   6.531   8.864
 1293POPC   C1A19239  41.521   6.635   8.564
 1293POPC   D2A19240  41.558   6.633   8.264
 1293POPC   C3A19241  41.532   6.676   7.964
 1293POPC   C4A19242  41.559   6.653   7.664
 1293POPC   C1B19243  41.668   6.449   8.564
 1293POPC   C2B19244  41.721   6.385   8.264
 1293POPC   C3B19245  41.733   6.420   7.964
 1293POPC   C4B19246  41.687   6.395   7.664
 1294POPC   NC319247   5.121  30.702   9.464
 1294POPC   PO419248   5.123  30.686   9.164
 1294POPC   GL119249   5.121  30.679   8.864
 1294POPC   GL219250   5.199  30.826   8.864
 1294POPC   C1A19251   5.093  30.670   8.564
 1294POPC   D2A19252   5.115  30.678   8.264
 1294POPC   C3A19253   5.136  30.745   7.964
 1294POPC   C4A19254   5.079  30.731   7.664
 1294POPC   C1B19255   5.311  30.838   8.564
 1294POPC   C2B19256   5.281  30.830   8.264
 1294POPC   C3B19257   5.328  30.832   7.964
 1294POPC   C4B19258   5.320  30.875   7.664
 1295POPC   NC319259  15.134  36.909   9.464
 1295POPC   PO419260  15.218  36.862   9.164
 1295POPC   GL119261  15.158  36.932   8.864
 1295POPC   GL219262  15.256  36.827   8.864
 1295POPC   C1A19263  15.188  36.890   8.564
 1295POPC   D2A19264  15.186  36.861   8.264
 1295POPC   C3A19265  15.132  36.946   7.964
 1295POPC   C4A19266  15.138  36.885   7.664
 1295POPC   C1B19267  15.341  36.654   8.564
 1295POPC   C2B19268  15.293  36.660   8.264
 1295POPC   C3B19269  15.375  36.726   7.964
 1295POPC   C4B19270  15.292  36.667   7.664
 1296POPC   NC319271  29.121  40.827   9.464
 1296POPC   PO419272  29.190  40.826   9.164
 1296POPC   GL119273  29.097  40.813   8.864
 1296POPC   GL219274  29.190  40.863   8.864
 1296POPC   C1A19275  29.172  40.793   8.564
 1296POPC   D2A19276  29.153  40.753   8.264
 1296POPC   C3A19277  29.118  40.831   7.964
 1296POPC   C4A19278  29.115  40.829   7.664
 1296POPC   C1B19279  29.300  40.925   8.564
 1296POPC   C2B19280  29.322  40.975   8.264
 1296POPC   C3B19281  29.299  40.920   7.964
 1296POPC   C4B19282  29.339  40.919   7.664
 1297POPC   NC319283  17.467  40.007   9.464
 1297POPC   PO419284  17.553  39.969   9.164
 1297POPC   GL119285  17.502  39.968   8.864
 1297POPC   GL219286  17.392  39.941   8.864
 1297POPC   C1A19287  17.491  40.001   8.564
 1297POPC   D2A19288  17.486  40.035   8.264
 1297POPC   C3A19289  17.540  39.990   7.964
 1297POPC   C4A19290  17.527  39.976   7.664
 1297POPC   C1B19291  17.230  39.951   8.564
 1297POPC   C2B19292  17.216  39.930   8.264
 1297POPC   C3B19293  17.281  40.003   7.964
 1297POPC   C4B19294  17.289  39.980   7.664
 1298POPC   NC319295  39.988  10.558   9.464
 1298POPC   PO419296  40.038  10.558   9.164
 1298POPC   GL119297  40.041  10.513   8.864
 1298POPC   GL219298  39.911  10.504   8.864
 1298POPC   C1A19299  40.028  10.563   8.564
 1298POPC   D2A19300  40.025  10.486   8.264
 1298POPC   C3A19301  39.997  10.525   7.964
 1298POPC   C4A19302  40.035  10.550   7.664
 1298POPC   C1B19303  39.709  10.564   8.564
 1298POPC   C2B19304  39.764  10.552   8.264
 1298POPC   C3B19305  39.802  10.531   7.964
 1298POPC   C4B19306  39.785  10.565   7.664
 1299POPC   NC319307   8.948  32.974   9.464
 1299POPC   PO419308   9.014  33.043   9.164
 1299POPC   GL119309   8.987  33.008   8.864
 1299POPC   GL219310   9.031  33.100   8.864
 1299POPC   C1A19311   8.957  33.045   8.564
 1299POPC   D2A19312   8.996  32.975   8.264
 1299POPC   C3A19313   8.938  33.063   7.964
 1299POPC   C4A19314   8.984  33.053   7.664
 1299POPC   C1B19315   9.035  33.317   8.564
 1299POPC   C2B19316   9.040  33.285   8.264
 1299POPC   C3B19317   9.017  33.262   7.964
 1299POPC   C4B19318   9.031  33.289   7.664
 1300POPC   NC319319  20.601  28.373   9.464
 1300POPC   PO419320  20.647  28.359   9.164
 1300POPC   GL119321  20.582  28.410   8.864
 1300POPC   GL219322  20.556  28.409   8.864
 1300POPC   C1A19323  20.633  28.361   8.564
 1300POPC   D2A19324  20.586  28.339   8.264
 1300POPC   C3A19325  20.571  28.395   7.964
 1300POPC   C4A19326  20.624  28.377   7.664
 1300POPC   C1B19327  20.409  28.569   8.564
 1300POPC   C2B19328  20.398  28.567   8.264
 1300POPC   C3B19329  20.387  28.565   7.964
 1300POPC   C4B19330  20.471  28.556   7.664
 1301POPC   NC319331  40.763  24.474   9.464
 1301POPC   PO419332  40.764  24.491   9.164
 1301POPC   GL119333  40.735  24.487   8.864
 1301POPC   GL219334  40.841  24.342   8.864
 1301POPC   C1A19335  40.770  24.492   8.564
 1301POPC   D2A19336  40.776  24.521   8.264
 1301POPC   C3A19337  40.778  24.521   7.964
 1301POPC   C4A19338  40.745  24.458   7.664
 1301POPC   C1B19339  40.890  24.261   8.564
 1301POPC   C2B19340  40.857  24.218   8.264
 1301POPC   C3B19341  40.845  24.303   7.964
 1301POPC   C4B19342  40.865  24.284   7.664
 1302POPC   NC319343   5.884  21.424   9.464
 1302POPC   PO419344   5.830  21.404   9.164
 1302POPC   GL119345   5.855  21.373   8.864
 1302POPC   GL219346   5.978  21.386   8.864
 1302POPC   C1A19347   5.852  21.381   8.564
 1302POPC   D2A19348   5.915  21.392   8.264
 1302POPC   C3A19349   5.886  21.426   7.964
 1302POPC   C4A19350   5.861  21.359   7.664
 1302POPC   C1B19351   6.117  21.296   8.564
 1302POPC   C2B19352   6.150  21.324   8.264
 1302POPC   C3B19353   6.090  21.328   7.964
 1302POPC   C4B19354   6.052  21.331   7.664
 1303POPC   NC319355  44.628   0.477   9.464
 1303POPC   PO419356  44.665   0.432   9.164
 1303POPC   GL119357  44.667   0.460   8.864
 1303POPC   GL219358  44.773   0.308   8.864
 1303POPC   C1A19359  44.706   0.390   8.564
 1303POPC   D2A19360  44.655   0.433   8.264
 1303POPC   C3A19361  44.618   0.463   7.964
 1303POPC   C4A19362  44.654   0.487   7.664
 1303POPC   C1B19363  44.804   0.264   8.564
 1303POPC   C2B19364  44.885   0.234   8.264
 1303POPC   C3B19365  44.845   0.215   7.964
 1303POPC   C4B19366  44.807   0.300   7.664
 1304POPC   NC319367  17.476  21.382   9.464
 1304POPC   PO419368  17.534  21.388   9.164
 1304POPC   GL119369  17.528  21.347   8.864
 1304POPC   GL219370  17.578  21.506   8.864
 1304POPC   C1A19371  17.530  21.424   8.564
 1304POPC   D2A19372  17.500  21.373   8.264
 1304POPC   C3A19373  17.460  21.426   7.964
 1304POPC   C4A19374  17.528  21.393   7.664
 1304POPC   C1B19375  17.639  21.572   8.564
 1304POPC   C2B19376  17.604  21.609   8.264
 1304POPC   C3B19377  17.600  21.550   7.964
 1304POPC   C4B19378  17.636  21.549   7.664
 1305POPC   NC319379  29.893  28.341   9.464
 1305POPC   PO419380  29.897  28.329   9.164
 1305POPC   GL119381  29.891  28.361   8.864
 1305POPC   GL219382  29.943  28.248   8.864
 1305POPC   C1A19383  29.916  28.402   8.564
 1305POPC   D2A19384  29.902  28.328   8.264
 1305POPC   C3A19385  29.899  28.339   7.964
 1305POPC   C4A19386  29.912  28.405   7.664
 1305POPC   C1B19387  30.076  28.170   8.564
 1305POPC   C2B19388  30.070  28.147   8.264
 1305POPC   C3B19389  30.073  28.162   7.964
 1305POPC   C4B19390  30.100  28.175   7.664
 1306POPC   NC319391  23.727  27.613   9.464
 1306POPC   PO419392  23.687  27.609   9.164
 1306POPC   GL119393  23.692  27.598   8.864
 1306POPC   GL219394  23.610  27.615   8.864
 1306POPC   C1A19395  23.673  27.641   8.564
 1306POPC   D2A19396  23.681  27.633   8.264
 1306POPC   C3A19397  23.733  27.578   7.964
 1306POPC   C4A19398  23.679  27.564   7.664
 1306POPC   C1B19399  23.455  27.581   8.564
 1306POPC   C2B19400  23.479  27.545   8.264
 1306POPC   C3B19401  23.437  27.578   7.964
 1306POPC   C4B19402  23.424  27.563   7.664
 1307POPC   NC319403  13.601  15.980   9.464
 1307POPC   PO419404  13.670  15.960   9.164
 1307POPC   GL119405  13.586  15.913   8.864
 1307POPC   GL219406  13.576  16.030   8.864
 1307POPC   C1A19407  13.648  15.939   8.564
 1307POPC   D2A19408  13.646  15.928   8.264
 1307POPC   C3A19409  13.657  15.912   7.964
 1307POPC   C4A19410  13.625  15.971   7.664
 1307POPC   C1B19411  13.557  16.221   8.564
 1307POPC   C2B19412  13.522  16.213   8.264
 1307POPC   C3B19413  13.568  16.172   7.964
 1307POPC   C4B19414  13.567  16.206   7.664
 1308POPC   NC319415  35.317  31.473   9.464
 1308POPC   PO419416  35.401  31.516   9.164
 1308POPC   GL119417  35.307  31.488   8.864
 1308POPC   GL219418  35.254  31.577   8.864
 1308POPC   C1A19419  35.360  31.431   8.564
 1308POPC   D2A19420  35.323  31.481   8.264
 1308POPC   C3A19421  35.396  31.492   7.964
 1308POPC   C4A19422  35.354  31.470   7.664
 1308POPC   C1B19423  35.230  31.634   8.564
 1308POPC   C2B19424  35.177  31.695   8.264
 1308POPC   C3B19425  35.204  31.666   7.964
 1308POPC   C4B19426  35.164  31.637   7.664
 1309POPC   NC319427  37.678  20.581   9.464
 1309POPC   PO419428  37.659  20.575   9.164
 1309POPC   GL119429  37.634  20.622   8.864
 1309POPC   GL219430  37.816  20.605   8.864
 1309POPC   C1A19431  37.686  20.618   8.564
 1309POPC   D2A19432  37.677  20.600   8.264
 1309POPC   C3A19433  37.687  20.637   7.964
 1309POPC   C4A19434  37.633  20.575   7.664
 1309POPC   C1B19435  37.942  20.488   8.564
 1309POPC   C2B19436  37.956  20.519   8.264
 1309POPC   C3B19437  37.958  20.535   7.964
 1309POPC   C4B19438  37.903  20.536   7.664
 1310POPC   NC319439  10.505  40.810   9.464
 1310POPC   PO419440  10.571  40.825   9.164
 1310POPC   GL119441  10.560  40.743   8.864
 1310POPC   GL219442  10.439  40.880   8.864
 1310POPC   C1A19443  10.507  40.806   8.564
 1310POPC   D2A19444  10.530  40.761   8.264
 1310POPC   C3A19445  10.529  40.798   7.964
 1310POPC   C4A19446  10.533  40.767   7.664
 1310POPC   C1B19447  10.317  40.890   8.564
 1310POPC   C2B19448  10.340  40.959   8.264
 1310POPC   C3B19449  10.265  40.938   7.964
 1310POPC   C4B19450  10.341  40.869   7.664
 1311POPC   NC319451  42.330  29.941   9.464
 1311POPC   PO419452  42.324  29.945   9.164
 1311POPC   GL119453  42.353  29.932   8.864
 1311POPC   GL219454  42.410  29.997   8.864
 1311POPC   C1A19455  42.353  29.926   8.564
 1311POPC   D2A19456  42.334  29.922   8.264
 1311POPC   C3A19457  42.286  29.886   7.964
 1311POPC   C4A19458  42.332  29.888   7.664
 1311POPC   C1B19459  42.436  30.140   8.564
 1311POPC   C2B19460  42.437  30.147   8.264
 1311POPC   C3B19461  42.451  30.148   7.964
 1311POPC   C4B19462  42.513  30.170   7.664
 1312POPC   NC319463  38.466  35.331   9.464
 1312POPC   PO419464  38.443  35.307   9.164
 1312POPC   GL119465  38.439  35.340   8.864
 1312POPC   GL219466  38.429  35.428   8.864
 1312POPC   C1A19467  38.465  35.320   8.564
 1312POPC   D2A19468  38.488  35.359   8.264
 1312POPC   C3A19469  38.494  35.364   7.964
 1312POPC   C4A19470  38.492  35.332   7.664
 1312POPC   C1B19471  38.300  35.599   8.564
 1312POPC   C2B19472  38.344  35.598   8.264
 1312POPC   C3B19473  38.375  35.584   7.964
 1312POPC   C4B19474  38.398  35.580   7.664
 1313POPC   NC319475   0.479  40.020   9.464
 1313POPC   PO419476   0.441  40.013   9.164
 1313POPC   GL119477   0.401  39.981   8.864
 1313POPC   GL219478   0.451  39.845   8.864
 1313POPC   C1A19479   0.415  39.979   8.564
 1313POPC   D2A19480   0.435  39.982   8.264
 1313POPC   C3A19481   0.433  40.010   7.964
 1313POPC   C4A19482   0.432  39.981   7.664
 1313POPC   C1B19483   0.392  39.710   8.564
 1313POPC   C2B19484   0.452  39.714   8.264
 1313POPC   C3B19485   0.422  39.739   7.964
 1313POPC   C4B19486   0.451  39.758   7.664
 1314POPC   NC319487  11.320  11.341   9.464
 1314POPC   PO419488  11.331  11.320   9.164
 1314POPC   GL119489  11.309  11.347   8.864
 1314POPC   GL219490  11.443  11.313   8.864
 1314POPC   C1A19491  11.340  11.263   8.564
 1314POPC   D2A19492  11.345  11.277   8.264
 1314POPC   C3A19493  11.298  11.275   7.964
 1314POPC   C4A19494  11.289  11.298   7.664
 1314POPC   C1B19495  11.556  11.311   8.564
 1314POPC   C2B19496  11.570  11.310   8.264
 1314POPC   C3B19497  11.535  11.264   7.964
 1314POPC   C4B19498  11.583  11.277   7.664
 1315POPC   NC319499  13.646  30.725   9.464
 1315POPC   PO419500  13.631  30.733   9.164
 1315POPC   GL119501  13.583  30.680   8.864
 1315POPC   GL219502  13.773  30.737   8.864
 1315POPC   C1A19503  13.609  30.738   8.564
 1315POPC   D2A19504  13.588  30.732   8.264
 1315POPC   C3A19505  13.599  30.738   7.964
 1315POPC   C4A19506  13.607  30.723   7.664
 1315POPC   C1B19507  13.851  30.685   8.564
 1315POPC   C2B19508  13.879  30.689   8.264
 1315POPC   C3B19509  13.875  30.736   7.964
 1315POPC   C4B19510  13.904  30.760   7.664
 1316POPC   NC319511  40.761   3.512   9.464
 1316POPC   PO419512  40.782   3.524   9.164
 1316POPC   GL119513  40.742   3.544   8.864
 1316POPC   GL219514  40.864   3.563   8.864
 1316POPC   C1A19515  40.761   3.519   8.564
 1316POPC   D2A19516  40.775   3.500   8.264
 1316POPC   C3A19517  40.825   3.546   7.964
 1316POPC   C4A19518  40.814   3.591   7.664
 1316POPC   C1B19519  41.003   3.577   8.564
 1316POPC   C2B19520  41.030   3.632   8.264
 1316POPC   C3B19521  41.040   3.653   7.964
 1316POPC   C4B19522  41.016   3.600   7.664
 1317POPC   NC319523   4.310   7.400   9.464
 1317POPC   PO419524   4.294   7.400   9.164
 1317POPC   GL119525   4.274   7.411   8.864
 1317POPC   GL219526   4.427   7.297   8.864
 1317POPC   C1A19527   4.300   7.377   8.564
 1317POPC   D2A19528   4.299   7.449   8.264
 1317POPC   C3A19529   4.309   7.398   7.964
 1317POPC   C4A19530   4.268   7.438   7.664
 1317POPC   C1B19531   4.493   7.312   8.564
 1317POPC   C2B19532   4.476   7.230   8.264
 1317POPC   C3B19533   4.556   7.225   7.964
 1317POPC   C4B19534   4.482   7.234   7.664
 1318POPC   NC319535  34.586  11.343   9.464
 1318POPC   PO419536  34.543  11.291   9.164
 1318POPC   GL119537  34.572  11.290   8.864
 1318POPC   GL219538  34.658  11.226   8.864
 1318POPC   C1A19539  34.582  11.270   8.564
 1318POPC   D2A19540  34.590  11.271   8.264
 1318POPC   C3A19541  34.562  11.315   7.964
 1318POPC   C4A19542  34.581  11.295   7.664
 1318POPC   C1B19543  34.643  11.077   8.564
 1318POPC   C2B19544  34.669  11.024   8.264
 1318POPC   C3B19545  34.652  11.103   7.964
 1318POPC   C4B19546  34.685  11.096   7.664
 1319POPC   NC319547  25.300   1.224   9.464
 1319POPC   PO419548  25.261   1.180   9.164
 1319POPC   GL119549  25.230   1.262   8.864
 1319POPC   GL219550  25.177   1.259   8.864
 1319POPC   C1A19551  25.264   1.264   8.564
 1319POPC   D2A19552  25.305   1.179   8.264
 1319POPC   C3A19553  25.253   1.211   7.964
 1319POPC   C4A19554  25.293   1.253   7.664
 1319POPC   C1B19555  24.982   1.330   8.564
 1319POPC   C2B19556  24.982   1.319   8.264
 1319POPC   C3B19557  25.030   1.263   7.964
 1319POPC   C4B19558  25.045   1.308   7.664
 1320POPC   NC319559  23.706   5.862   9.464
 1320POPC   PO419560  23.751   5.902   9.164
 1320POPC   GL119561  23.701   5.903   8.864
 1320POPC   GL219562  23.722   6.025   8.864
 1320POPC   C1A19563  23.725   5.876   8.564
 1320POPC   D2A19564  23.748   5.905   8.264
 1320POPC   C3A19565  23.736   5.875   7.964
 1320POPC   C4A19566  23.692   5.904   7.664
 1320POPC   C1B19567  23.765   6.129   8.564
 1320POPC   C2B19568  23.773   6.084   8.264
 1320POPC   C3B19569  23.785   6.118   7.964
 1320POPC   C4B19570  23.745   6.077   7.664
 1321POPC   NC319571  33.796  12.894   9.464
 1321POPC   PO419572  33.790  12.844   9.164
 1321POPC   GL119573  33.834  12.884   8.864
 1321POPC   GL219574  33.831  12.961   8.864
 1321POPC   C1A19575  33.772  12.825   8.564
 1321POPC   D2A19576  33.795  12.865   8.264
 1321POPC   C3A19577  33.752  12.841   7.964
 1321POPC   C4A19578  33.784  12.825   7.664
 1321POPC   C1B19579  33.911  13.065   8.564
 1321POPC   C2B19580  33.917  13.065   8.264
 1321POPC   C3B19581  34.005  13.079   7.964
 1321POPC   C4B19582  33.981  13.070   7.664
 1322POPC   NC319583  28.391  15.911   9.464
 1322POPC   PO419584  28.320  15.913   9.164
 1322POPC   GL119585  28.390  15.995   8.864
 1322POPC   GL219586  28.427  16.083   8.864
 1322POPC   C1A19587  28.389  15.925   8.564
 1322POPC   D2A19588  28.339  15.956   8.264
 1322POPC   C3A19589  28.368  15.985   7.964
 1322POPC   C4A19590  28.401  15.951   7.664
 1322POPC   C1B19591  28.446  16.214   8.564
 1322POPC   C2B19592  28.463  16.184   8.264
 1322POPC   C3B19593  28.420  16.230   7.964
 1322POPC   C4B19594  28.476  16.236   7.664
 1323POPC   NC319595  39.964   2.728   9.464
 1323POPC   PO419596  40.047   2.748   9.164
 1323POPC   GL119597  39.973   2.814   8.864
 1323POPC   GL219598  40.138   2.786   8.864
 1323POPC   C1A19599  39.991   2.782   8.564
 1323POPC   D2A19600  39.961   2.805   8.264
 1323POPC   C3A19601  39.964   2.804   7.964
 1323POPC   C4A19602  40.025   2.768   7.664
 1323POPC   C1B19603  40.296   2.703   8.564
 1323POPC   C2B19604  40.262   2.699   8.264
 1323POPC   C3B19605  40.282   2.742   7.964
 1323POPC   C4B19606  40.258   2.705   7.664
 1324POPC   NC319607  28.324   3.525   9.464
 1324POPC   PO419608  28.394   3.541   9.164
 1324POPC   GL119609  28.418   3.531   8.864
 1324POPC   GL219610  28.223   3.502   8.864
 1324POPC   C1A19611  28.392   3.581   8.564
 1324POPC   D2A19612  28.391   3.547   8.264
 1324POPC   C3A19613  28.393   3.578   7.964
 1324POPC   C4A19614  28.344   3.538   7.664
 1324POPC   C1B19615  28.092   3.402   8.564
 1324POPC   C2B19616  28.128   3.473   8.264
 1324POPC   C3B19617  28.163   3.487   7.964
 1324POPC   C4B19618  28.170   3.480   7.664
 1325POPC   NC319619  19.803  44.615   9.464
 1325POPC   PO419620  19.870  44.677   9.164
 1325POPC   GL119621  19.823  44.638   8.864
 1325POPC   GL219622  19.860  44.517   8.864
 1325POPC   C1A19623  19.870  44.630   8.564
 1325POPC   D2A19624  19.806  44.669   8.264
 1325POPC   C3A19625  19.851  44.640   7.964
 1325POPC   C4A19626  19.796  44.663   7.664
 1325POPC   C1B19627  19.856  44.457   8.564
 1325POPC   C2B19628  19.816  44.364   8.264
 1325POPC   C3B19629  19.887  44.401   7.964
 1325POPC   C4B19630  19.864  44.436   7.664
 1326POPC   NC319631   9.701  18.246   9.464
 1326POPC   PO419632   9.707  18.296   9.164
 1326POPC   GL119633   9.724  18.267   8.864
 1326POPC   GL219634   9.809  18.405   8.864
 1326POPC   C1A19635   9.772  18.307   8.564
 1326POPC   D2A19636   9.755  18.291   8.264
 1326POPC   C3A19637   9.722  18.318   7.964
 1326POPC   C4A19638   9.768  18.243   7.664
 1326POPC   C1B19639   9.952  18.477   8.564
 1326POPC   C2B19640   9.897  18.487   8.264
 1326POPC   C3B19641   9.987  18.487   7.964
 1326POPC   C4B19642   9.891  18.492   7.664
 1327POPC   NC319643  10.545  11.349   9.464
 1327POPC   PO419644  10.539  11.334   9.164
 1327POPC   GL119645  10.555  11.296   8.864
 1327POPC   GL219646  10.683  11.372   8.864
 1327POPC   C1A19647  10.520  11.279   8.564
 1327POPC   D2A19648  10.549  11.309   8.264
 1327POPC   C3A19649  10.487  11.265   7.964
 1327POPC   C4A19650  10.543  11.291   7.664
 1327POPC   C1B19651  10.755  11.373   8.564
 1327POPC   C2B19652  10.777  11.399   8.264
 1327POPC   C3B19653  10.803  11.392   7.964
 1327POPC   C4B19654  10.766  11.340   7.664
 1328POPC   NC319655  43.936  12.823   9.464
 1328POPC   PO419656  43.900  12.898   9.164
 1328POPC   GL119657  43.867  12.817   8.864
 1328POPC   GL219658  43.768  12.779   8.864
 1328POPC   C1A19659  43.876  12.854   8.564
 1328POPC   D2A19660  43.860  12.840   8.264
 1328POPC   C3A19661  43.909  12.821   7.964
 1328POPC   C4A19662  43.867  12.822   7.664
 1328POPC   C1B19663  43.642  12.725   8.564
 1328POPC   C2B19664  43.698  12.793   8.264
 1328POPC   C3B19665  43.660  12.796   7.964
 1328POPC   C4B19666  43.683  12.788   7.664
 1329POPC   NC319667  37.674  17.520   9.464
 1329POPC   PO419668  37.672  17.525   9.164
 1329POPC   GL119669  37.647  17.488   8.864
 1329POPC   GL219670  37.618  17.674   8.864
 1329POPC   C1A19671  37.698  17.494   8.564
 1329POPC   D2A19672  37.672  17.486   8.264
 1329POPC   C3A19673  37.677  17.466   7.964
 1329POPC   C4A19674  37.636  17.473   7.664
 1329POPC   C1B19675  37.677  17.764   8.564
 1329POPC   C2B19676  37.684  17.744   8.264
 1329POPC   C3B19677  37.670  17.770   7.964
 1329POPC   C4B19678  37.682  17.763   7.664
 1330POPC   NC319679  13.644  34.558   9.464
 1330POPC   PO419680  13.667  34.593   9.164
 1330POPC   GL119681  13.594  34.529   8.864
 1330POPC   GL219682  13.732  34.576   8.864
 1330POPC   C1A19683  13.678  34.605   8.564
 1330POPC   D2A19684  13.663  34.620   8.264
 1330POPC   C3A19685  13.660  34.571   7.964
 1330POPC   C4A19686  13.591  34.604   7.664
 1330POPC   C1B19687  13.901  34.624   8.564
 1330POPC   C2B19688  13.904  34.659   8.264
 1330POPC   C3B19689  13.910  34.612   7.964
 1330POPC   C4B19690  13.903  34.603   7.664
 1331POPC   NC319691   5.894  11.284   9.464
 1331POPC   PO419692   5.851  11.289   9.164
 1331POPC   GL119693   5.890  11.263   8.864
 1331POPC   GL219694   5.919  11.411   8.864
 1331POPC   C1A19695   5.893  11.316   8.564
 1331POPC   D2A19696   5.882  11.289   8.264
 1331POPC   C3A19697   5.877  11.281   7.964
 1331POPC   C4A19698   5.858  11.298   7.664
 1331POPC   C1B19699   6.006  11.508   8.564
 1331POPC   C2B19700   6.016  11.478   8.264
 1331POPC   C3B19701   5.986  11.534   7.964
 1331POPC   C4B19702   5.987  11.507   7.664
 1332POPC   NC319703   3.589  30.740   9.464
 1332POPC   PO419704   3.551  30.722   9.164
 1332POPC   GL119705   3.512  30.699   8.864
 1332POPC   GL219706   3.514  30.622   8.864
 1332POPC   C1A19707   3.547  30.662   8.564
 1332POPC   D2A19708   3.506  30.679   8.264
 1332POPC   C3A19709   3.524  30.700   7.964
 1332POPC   C4A19710   3.551  30.710   7.664
 1332POPC   C1B19711   3.425  30.485   8.564
 1332POPC   C2B19712   3.367  30.468   8.264
 1332POPC   C3B19713   3.385  30.491   7.964
 1332POPC   C4B19714   3.381  30.443   7.664
 1333POPC   NC319715  36.951  17.548   9.464
 1333POPC   PO419716  36.897  17.496   9.164
 1333POPC   GL119717  36.912  17.464   8.864
 1333POPC   GL219718  36.810  17.462   8.864
 1333POPC   C1A19719  36.948  17.522   8.564
 1333POPC   D2A19720  36.887  17.488   8.264
 1333POPC   C3A19721  36.937  17.542   7.964
 1333POPC   C4A19722  36.941  17.531   7.664
 1333POPC   C1B19723  36.649  17.471   8.564
 1333POPC   C2B19724  36.637  17.564   8.264
 1333POPC   C3B19725  36.647  17.465   7.964
 1333POPC   C4B19726  36.652  17.558   7.664
 1334POPC   NC319727   1.959  26.076   9.464
 1334POPC   PO419728   1.940  26.087   9.164
 1334POPC   GL119729   1.969  26.015   8.864
 1334POPC   GL219730   1.916  26.043   8.864
 1334POPC   C1A19731   2.005  26.084   8.564
 1334POPC   D2A19732   1.962  26.087   8.264
 1334POPC   C3A19733   1.973  25.992   7.964
 1334POPC   C4A19734   2.002  26.078   7.664
 1334POPC   C1B19735   1.807  26.109   8.564
 1334POPC   C2B19736   1.731  26.137   8.264
 1334POPC   C3B19737   1.715  26.132   7.964
 1334POPC   C4B19738   1.797  26.115   7.664
 1335POPC   NC319739   8.246  23.682   9.464
 1335POPC   PO419740   8.156  23.668   9.164
 1335POPC   GL119741   8.219  23.690   8.864
 1335POPC   GL219742   8.272  23.655   8.864
 1335POPC   C1A19743   8.211  23.700   8.564
 1335POPC   D2A19744   8.241  23.683   8.264
 1335POPC   C3A19745   8.147  23.677   7.964
 1335POPC   C4A19746   8.155  23.715   7.664
 1335POPC   C1B19747   8.456  23.598   8.564
 1335POPC   C2B19748   8.392  23.576   8.264
 1335POPC   C3B19749   8.445  23.653   7.964
 1335POPC   C4B19750   8.387  23.639   7.664
 1336POPC   NC319751  43.920   5.140   9.464
 1336POPC   PO419752  43.933   5.122   9.164
 1336POPC   GL119753  43.869   5.067   8.864
 1336POPC   GL219754  43.799   4.976   8.864
 1336POPC   C1A19755  43.926   5.098   8.564
 1336POPC   D2A19756  43.850   5.051   8.264
 1336POPC   C3A19757  43.841   5.063   7.964
 1336POPC   C4A19758  43.933   5.065   7.664
 1336POPC   C1B19759  43.673   4.959   8.564
 1336POPC   C2B19760  43.707   4.900   8.264
 1336POPC   C3B19761  43.658   4.969   7.964
 1336POPC   C4B19762  43.697   4.923   7.664
 1337POPC   NC319763  21.425   2.791   9.464
 1337POPC   PO419764  21.424   2.762   9.164
 1337POPC   GL119765  21.342   2.727   8.864
 1337POPC   GL219766  21.413   2.666   8.864
 1337POPC   C1A19767  21.390   2.802   8.564
 1337POPC   D2A19768  21.369   2.765   8.264
 1337POPC   C3A19769  21.346   2.807   7.964
 1337POPC   C4A19770  21.381   2.775   7.664
 1337POPC   C1B19771  21.355   2.560   8.564
 1337POPC   C2B19772  21.406   2.468   8.264
 1337POPC   C3B19773  21.373   2.532   7.964
 1337POPC   C4B19774  21.363   2.495   7.664
 1338POPC   NC319775  32.229   5.859   9.464
 1338POPC   PO419776  32.246   5.910   9.164
 1338POPC   GL119777  32.271   5.875   8.864
 1338POPC   GL219778  32.290   5.736   8.864
 1338POPC   C1A19779  32.221   5.864   8.564
 1338POPC   D2A19780  32.260   5.826   8.264
 1338POPC   C3A19781  32.296   5.855   7.964
 1338POPC   C4A19782  32.222   5.839   7.664
 1338POPC   C1B19783  32.378   5.660   8.564
 1338POPC   C2B19784  32.356   5.668   8.264
 1338POPC   C3B19785  32.444   5.716   7.964
 1338POPC   C4B19786  32.402   5.656   7.664
 1339POPC   NC319787   7.420  12.811   9.464
 1339POPC   PO419788   7.430  12.829   9.164
 1339POPC   GL119789   7.461  12.896   8.864
 1339POPC   GL219790   7.411  12.944   8.864
 1339POPC   C1A19791   7.406  12.843   8.564
 1339POPC   D2A19792   7.425  12.881   8.264
 1339POPC   C3A19793   7.406  12.813   7.964
 1339POPC   C4A19794   7.428  12.813   7.664
 1339POPC   C1B19795   7.445  13.083   8.564
 1339POPC   C2B19796   7.379  13.057   8.264
 1339POPC   C3B19797   7.464  13.138   7.964
 1339POPC   C4B19798   7.375  13.134   7.664
 1340POPC   NC319799  36.897  26.849   9.464
 1340POPC   PO419800  36.883  26.848   9.164
 1340POPC   GL119801  36.884  26.840   8.864
 1340POPC   GL219802  37.014  26.729   8.864
 1340POPC   C1A19803  36.918  26.845   8.564
 1340POPC   D2A19804  36.913  26.772   8.264
 1340POPC   C3A19805  36.899  26.841   7.964
 1340POPC   C4A19806  36.869  26.843   7.664
 1340POPC   C1B19807  37.138  26.739   8.564
 1340POPC   C2B19808  37.134  26.755   8.264
 1340POPC   C3B19809  37.093  26.694   7.964
 1340POPC   C4B19810  37.101  26.693   7.664
 1341POPC   NC319811  43.088  20.644   9.464
 1341POPC   PO419812  43.115  20.596   9.164
 1341POPC   GL119813  43.065  20.652   8.864
 1341POPC   GL219814  43.018  20.499   8.864
 1341POPC   C1A19815  43.153  20.638   8.564
 1341POPC   D2A19816  43.084  20.647   8.264
 1341POPC   C3A19817  43.151  20.647   7.964
 1341POPC   C4A19818  43.100  20.657   7.664
 1341POPC   C1B19819  43.053  20.360   8.564
 1341POPC   C2B19820  43.027  20.384   8.264
 1341POPC   C3B19821  43.016  20.412   7.964
 1341POPC   C4B19822  42.995  20.341   7.664
 1342POPC   NC319823  20.621   7.414   9.464
 1342POPC   PO419824  20.642   7.397   9.164
 1342POPC   GL119825  20.621   7.387   8.864
 1342POPC   GL219826  20.479   7.485   8.864
 1342POPC   C1A19827  20.634   7.384   8.564
 1342POPC   D2A19828  20.574   7.444   8.264
 1342POPC   C3A19829  20.660   7.397   7.964
 1342POPC   C4A19830  20.621   7.403   7.664
 1342POPC   C1B19831  20.407   7.506   8.564
 1342POPC   C2B19832  20.403   7.557   8.264
 1342POPC   C3B19833  20.418   7.493   7.964
 1342POPC   C4B19834  20.427   7.531   7.664
 1343POPC   NC319835  32.292  32.275   9.464
 1343POPC   PO419836  32.270  32.287   9.164
 1343POPC   GL119837  32.199  32.229   8.864
 1343POPC   GL219838  32.346  32.318   8.864
 1343POPC   C1A19839  32.243  32.271   8.564
 1343POPC   D2A19840  32.236  32.261   8.264
 1343POPC   C3A19841  32.203  32.251   7.964
 1343POPC   C4A19842  32.216  32.275   7.664
 1343POPC   C1B19843  32.458  32.432   8.564
 1343POPC   C2B19844  32.456  32.393   8.264
 1343POPC   C3B19845  32.433  32.445   7.964
 1343POPC   C4B19846  32.429  32.396   7.664
 1344POPC   NC319847  12.096  35.355   9.464
 1344POPC   PO419848  12.115  35.401   9.164
 1344POPC   GL119849  12.100  35.326   8.864
 1344POPC   GL219850  12.051  35.509   8.864
 1344POPC   C1A19851  12.036  35.400   8.564
 1344POPC   D2A19852  12.054  35.366   8.264
 1344POPC   C3A19853  12.079  35.381   7.964
 1344POPC   C4A19854  12.108  35.318   7.664
 1344POPC   C1B19855  12.093  35.607   8.564
 1344POPC   C2B19856  12.059  35.650   8.264
 1344POPC   C3B19857  12.002  35.560   7.964
 1344POPC   C4B19858  12.064  35.620   7.664
 1345POPC   NC319859  36.137  35.351   9.464
 1345POPC   PO419860  36.081  35.303   9.164
 1345POPC   GL119861  36.093  35.355   8.864
 1345POPC   GL219862  36.080  35.285   8.864
 1345POPC   C1A19863  36.099  35.385   8.564
 1345POPC   D2A19864  36.158  35.375   8.264
 1345POPC   C3A19865  36.146  35.339   7.964
 1345POPC   C4A19866  36.134  35.318   7.664
 1345POPC   C1B19867  36.017  35.184   8.564
 1345POPC   C2B19868  36.008  35.139   8.264
 1345POPC   C3B19869  36.024  35.121   7.964
 1345POPC   C4B19870  36.000  35.178   7.664
 1346POPC   NC319871   5.834  18.255   9.464
 1346POPC   PO419872   5.889  18.323   9.164
 1346POPC   GL119873   5.904  18.243   8.864
 1346POPC   GL219874   5.907  18.193   8.864
 1346POPC   C1A19875   5.822  18.277   8.564
 1346POPC   D2A19876   5.874  18.261   8.264
 1346POPC   C3A19877   5.899  18.321   7.964
 1346POPC   C4A19878   5.879  18.294   7.664
 1346POPC   C1B19879   5.915  18.009   8.564
 1346POPC   C2B19880   5.937  18.038   8.264
 1346POPC   C3B19881   5.849  18.063   7.964
 1346POPC   C4B19882   5.932  17.986   7.664
 1347POPC   NC319883  16.684  27.637   9.464
 1347POPC   PO419884  16.723  27.549   9.164
 1347POPC   GL119885  16.732  27.606   8.864
 1347POPC   GL219886  16.687  27.516   8.864
 1347POPC   C1A19887  16.739  27.609   8.564
 1347POPC   D2A19888  16.743  27.605   8.264
 1347POPC   C3A19889  16.723  27.545   7.964
 1347POPC   C4A19890  16.773  27.620   7.664
 1347POPC   C1B19891  16.733  27.357   8.564
 1347POPC   C2B19892  16.710  27.320   8.264
 1347POPC   C3B19893  16.767  27.300   7.964
 1347POPC   C4B19894  16.766  27.375   7.664
 1348POPC   NC319895   8.192  18.274   9.464
 1348POPC   PO419896   8.239  18.252   9.164
 1348POPC   GL119897   8.155  18.326   8.864
 1348POPC   GL219898   8.232  18.361   8.864
 1348POPC   C1A19899   8.160  18.239   8.564
 1348POPC   D2A19900   8.182  18.258   8.264
 1348POPC   C3A19901   8.227  18.332   7.964
 1348POPC   C4A19902   8.175  18.260   7.664
 1348POPC   C1B19903   8.258  18.553   8.564
 1348POPC   C2B19904   8.339  18.472   8.264
 1348POPC   C3B19905   8.252  18.535   7.964
 1348POPC   C4B19906   8.286  18.503   7.664
 1349POPC   NC319907  32.288  25.291   9.464
 1349POPC   PO419908  32.236  25.234   9.164
 1349POPC   GL119909  32.240  25.299   8.864
 1349POPC   GL219910  32.315  25.399   8.864
 1349POPC   C1A19911  32.217  25.307   8.564
 1349POPC   D2A19912  32.279  25.302   8.264
 1349POPC   C3A19913  32.285  25.279   7.964
 1349POPC   C4A19914  32.213  25.306   7.664
 1349POPC   C1B19915  32.422  25.430   8.564
 1349POPC   C2B19916  32.430  25.444   8.264
 1349POPC   C3B19917  32.455  25.428   7.964
 1349POPC   C4B19918  32.404  25.470   7.664
 1350POPC   NC319919   4.333  39.973   9.464
 1350POPC   PO419920   4.319  40.019   9.164
 1350POPC   GL119921   4.326  40.040   8.864
 1350POPC   GL219922   4.292  40.160   8.864
 1350POPC   C1A19923   4.316  39.995   8.564
 1350POPC   D2A19924   4.292  40.047   8.264
 1350POPC   C3A19925   4.361  40.042   7.964
 1350POPC   C4A19926   4.354  40.004   7.664
 1350POPC   C1B19927   4.207  40.197   8.564
 1350POPC   C2B19928   4.174  40.191   8.264
 1350POPC   C3B19929   4.137  40.228   7.964
 1350POPC   C4B19930   4.222  40.255   7.664
 1351POPC   NC319931   7.409  30.742   9.464
 1351POPC   PO419932   7.436  30.649   9.164
 1351POPC   GL119933   7.382  30.660   8.864
 1351POPC   GL219934   7.493  30.546   8.864
 1351POPC   C1A19935   7.436  30.709   8.564
 1351POPC   D2A19936   7.470  30.711   8.264
 1351POPC   C3A19937   7.457  30.696   7.964
 1351POPC   C4A19938   7.440  30.735   7.664
 1351POPC   C1B19939   7.580  30.466   8.564
 1351POPC   C2B19940   7.522  30.443   8.264
 1351POPC   C3B19941   7.570  30.510   7.964
 1351POPC   C4B19942   7.535  30.499   7.664
 1352POPC   NC319943  35.397  15.169   9.464
 1352POPC   PO419944  35.305  15.202   9.164
 1352POPC   GL119945  35.353  15.181   8.864
 1352POPC   GL219946  35.426  15.068   8.864
 1352POPC   C1A19947  35.356  15.214   8.564
 1352POPC   D2A19948  35.348  15.163   8.264
 1352POPC   C3A19949  35.324  15.220   7.964
 1352POPC   C4A19950  35.330  15.191   7.664
 1352POPC   C1B19951  35.396  14.959   8.564
 1352POPC   C2B19952  35.430  14.890   8.264
 1352POPC   C3B19953  35.425  14.971   7.964
 1352POPC   C4B19954  35.371  14.971   7.664
 1353POPC   NC319955  39.192   2.752   9.464
 1353POPC   PO419956  39.210   2.776   9.164
 1353POPC   GL119957  39.255   2.748   8.864
 1353POPC   GL219958  39.322   2.799   8.864
 1353POPC   C1A19959  39.255   2.735   8.564
 1353POPC   D2A19960  39.233   2.735   8.264
 1353POPC   C3A19961  39.264   2.744   7.964
 1353POPC   C4A19962  39.243   2.800   7.664
 1353POPC   C1B19963  39.486   2.870   8.564
 1353POPC   C2B19964  39.428   2.897   8.264
 1353POPC   C3B19965  39.454   2.879   7.964
 1353POPC   C4B19966  39.433   2.834   7.664
 1354POPC   NC319967  15.997  18.302   9.464
 1354POPC   PO419968  15.910  18.276   9.164
 1354POPC   GL119969  15.985  18.305   8.864
 1354POPC   GL219970  15.822  18.281   8.864
 1354POPC   C1A19971  15.912  18.281   8.564
 1354POPC   D2A19972  15.928  18.286   8.264
 1354POPC   C3A19973  15.998  18.245   7.964
 1354POPC   C4A19974  15.918  18.258   7.664
 1354POPC   C1B19975  15.753  18.265   8.564
 1354POPC   C2B19976  15.668  18.287   8.264
 1354POPC   C3B19977  15.684  18.217   7.964
 1354POPC   C4B19978  15.720  18.270   7.664
 1355POPC   NC319979   1.208  36.946   9.464
 1355POPC   PO419980   1.179  36.926   9.164
 1355POPC   GL119981   1.243  36.887   8.864
 1355POPC   GL219982   1.300  36.914   8.864
 1355POPC   C1A19983   1.238  36.867   8.564
 1355POPC   D2A19984   1.194  36.922   8.264
 1355POPC   C3A19985   1.262  36.868   7.964
 1355POPC   C4A19986   1.237  36.876   7.664
 1355POPC   C1B19987   1.483  36.946   8.564
 1355POPC   C2B19988   1.423  36.946   8.264
 1355POPC   C3B19989   1.445  36.938   7.964
 1355POPC   C4B19990   1.513  36.873   7.664
 1356POPC   NC319991  20.652  40.787   9.464
 1356POPC   PO419992  20.647  40.742   9.164
 1356POPC   GL119993  20.630  40.769   8.864
 1356POPC   GL219994  20.519  40.913   8.864
 1356POPC   C1A19995  20.623  40.829   8.564
 1356POPC   D2A19996  20.588  40.825   8.264
 1356POPC   C3A19997  20.589  40.791   7.964
 1356POPC   C4A19998  20.594  40.757   7.664
 1356POPC   C1B19999  20.405  40.986   8.564
 1356POPC   C2B20000  20.417  40.967   8.264
 1356POPC   C3B20001  20.446  40.915   7.964
 1356POPC   C4B20002  20.390  40.983   7.664
 1357POPC   NC320003   3.591  36.948   9.464
 1357POPC   PO420004   3.551  36.918   9.164
 1357POPC   GL120005   3.542  36.897   8.864
 1357POPC   GL220006   3.626  36.828   8.864
 1357POPC   C1A20007   3.506  36.905   8.564
 1357POPC   D2A20008   3.542  36.953   8.264
 1357POPC   C3A20009   3.551  36.901   7.964
 1357POPC   C4A20010   3.567  36.919   7.664
 1357POPC   C1B20011   3.798  36.812   8.564
 1357POPC   C2B20012   3.826  36.862   8.264
 1357POPC   C3B20013   3.783  36.820   7.964
 1357POPC   C4B20014   3.772  36.831   7.664
 1358POPC   NC320015  17.551  43.152   9.464
 1358POPC   PO420016  17.507  43.103   9.164
 1358POPC   GL120017  17.488  43.147   8.864
 1358POPC   GL220018  17.393  43.082   8.864
 1358POPC   C1A20019  17.547  43.130   8.564
 1358POPC   D2A20020  17.478  43.088   8.264
 1358POPC   C3A20021  17.475  43.153   7.964
 1358POPC   C4A20022  17.551  43.089   7.664
 1358POPC   C1B20023  17.284  43.067   8.564
 1358POPC   C2B20024  17.305  43.086   8.264
 1358POPC   C3B20025  17.295  43.096   7.964
 1358POPC   C4B20026  17.229  43.106   7.664
 1359POPC   NC320027  43.105  43.061   9.464
 1359POPC   PO420028  43.072  43.136   9.164
 1359POPC   GL120029  43.098  43.101   8.864
 1359POPC   GL220030  43.268  43.140   8.864
 1359POPC   C1A20031  43.076  43.108   8.564
 1359POPC   D2A20032  43.082  43.127   8.264
 1359POPC   C3A20033  43.144  43.106   7.964
 1359POPC   C4A20034  43.137  43.094   7.664
 1359POPC   C1B20035  43.404  43.119   8.564
 1359POPC   C2B20036  43.344  43.131   8.264
 1359POPC   C3B20037  43.342  43.185   7.964
 1359POPC   C4B20038  43.322  43.158   7.664
 1360POPC   NC320039   8.204  29.914   9.464
 1360POPC   PO420040   8.238  29.952   9.164
 1360POPC   GL120041   8.229  29.874   8.864
 1360POPC   GL220042   8.135  30.026   8.864
 1360POPC   C1A20043   8.228  29.899   8.564
 1360POPC   D2A20044   8.225  29.877   8.264
 1360POPC   C3A20045   8.163  29.874   7.964
 1360POPC   C4A20046   8.207  29.874   7.664
 1360POPC   C1B20047   8.094  30.143   8.564
 1360POPC   C2B20048   8.133  30.176   8.264
 1360POPC   C3B20049   8.075  30.152   7.964
 1360POPC   C4B20050   8.165  30.179   7.664
 1361POPC   NC320051  20.659  36.919   9.464
 1361POPC   PO420052  20.582  36.876   9.164
 1361POPC   GL120053  20.574  36.942   8.864
 1361POPC   GL220054  20.486  36.795   8.864
 1361POPC   C1A20055  20.580  36.945   8.564
 1361POPC   D2A20056  20.657  36.921   8.264
 1361POPC   C3A20057  20.619  36.895   7.964
 1361POPC   C4A20058  20.589  36.920   7.664
 1361POPC   C1B20059  20.440  36.726   8.564
 1361POPC   C2B20060  20.441  36.767   8.264
 1361POPC   C3B20061  20.442  36.723   7.964
 1361POPC   C4B20062  20.448  36.790   7.664
 1362POPC   NC320063  23.696  43.101   9.464
 1362POPC   PO420064  23.759  43.134   9.164
 1362POPC   GL120065  23.761  43.149   8.864
 1362POPC   GL220066  23.826  43.206   8.864
 1362POPC   C1A20067  23.754  43.086   8.564
 1362POPC   D2A20068  23.677  43.139   8.264
 1362POPC   C3A20069  23.707  43.104   7.964
 1362POPC   C4A20070  23.713  43.126   7.664
 1362POPC   C1B20071  23.920  43.250   8.564
 1362POPC   C2B20072  23.925  43.235   8.264
 1362POPC   C3B20073  23.945  43.299   7.964
 1362POPC   C4B20074  23.946  43.258   7.664
 1363POPC   NC320075  14.374  15.920   9.464
 1363POPC   PO420076  14.389  15.993   9.164
 1363POPC   GL120077  14.357  16.005   8.864
 1363POPC   GL220078  14.329  15.951   8.864
 1363POPC   C1A20079  14.452  15.977   8.564
 1363POPC   D2A20080  14.398  15.982   8.264
 1363POPC   C3A20081  14.447  15.970   7.964
 1363POPC   C4A20082  14.436  15.993   7.664
 1363POPC   C1B20083  14.161  16.011   8.564
 1363POPC   C2B20084  14.181  16.021   8.264
 1363POPC   C3B20085  14.168  15.998   7.964
 1363POPC   C4B20086  14.116  15.976   7.664
 1364POPC   NC320087  13.666  11.345   9.464
 1364POPC   PO420088  13.639  11.284   9.164
 1364POPC   GL120089  13.582  11.251   8.864
 1364POPC   GL220090  13.696  11.436   8.864
 1364POPC   C1A20091  13.662  11.288   8.564
 1364POPC   D2A20092  13.632  11.326   8.264
 1364POPC   C3A20093  13.613  11.340   7.964
 1364POPC   C4A20094  13.627  11.307   7.664
 1364POPC   C1B20095  13.666  11.540   8.564
 1364POPC   C2B20096  13.655  11.565   8.264
 1364POPC   C3B20097  13.693  11.525   7.964
 1364POPC   C4B20098  13.678  11.493   7.664
 1365POPC   NC320099  24.465  19.076   9.464
 1365POPC   PO420100  24.510  19.027   9.164
 1365POPC   GL120101  24.464  19.044   8.864
 1365POPC   GL220102  24.393  19.136   8.864
 1365POPC   C1A20103  24.464  19.085   8.564
 1365POPC   D2A20104  24.496  19.055   8.264
 1365POPC   C3A20105  24.512  19.101   7.964
 1365POPC   C4A20106  24.443  19.102   7.664
 1365POPC   C1B20107  24.298  19.184   8.564
 1365POPC   C2B20108  24.282  19.152   8.264
 1365POPC   C3B20109  24.249  19.148   7.964
 1365POPC   C4B20110  24.227  19.147   7.664
 1366POPC   NC320111  33.037  19.799   9.464
 1366POPC   PO420112  33.031  19.864   9.164
 1366POPC   GL120113  33.017  19.847   8.864
 1366POPC   GL220114  33.158  19.834   8.864
 1366POPC   C1A20115  33.064  19.880   8.564
 1366POPC   D2A20116  32.989  19.880   8.264
 1366POPC   C3A20117  33.030  19.823   7.964
 1366POPC   C4A20118  33.037  19.857   7.664
 1366POPC   C1B20119  33.307  19.808   8.564
 1366POPC   C2B20120  33.302  19.880   8.264
 1366POPC   C3B20121  33.243  19.861   7.964
 1366POPC   C4B20122  33.284  19.801   7.664
 1367POPC   NC320123  39.957  38.432   9.464
 1367POPC   PO420124  40.041  38.453   9.164
 1367POPC   GL120125  40.038  38.448   8.864
 1367POPC   GL220126  40.084  38.464   8.864
 1367POPC   C1A20127  40.001  38.445   8.564
 1367POPC   D2A20128  40.041  38.482   8.264
 1367POPC   C3A20129  40.032  38.488   7.964
 1367POPC   C4A20130  40.037  38.474   7.664
 1367POPC   C1B20131  40.222  38.495   8.564
 1367POPC   C2B20132  40.270  38.578   8.264
 1367POPC   C3B20133  40.254  38.563   7.964
 1367POPC   C4B20134  40.262  38.525   7.664
 1368POPC   NC320135  23.717  26.053   9.464
 1368POPC   PO420136  23.693  26.035   9.164
 1368POPC   GL120137  23.665  26.022   8.864
 1368POPC   GL220138  23.574  25.956   8.864
 1368POPC   C1A20139  23.758  26.000   8.564
 1368POPC   D2A20140  23.763  26.041   8.264
 1368POPC   C3A20141  23.760  26.028   7.964
 1368POPC   C4A20142  23.694  26.032   7.664
 1368POPC   C1B20143  23.556  25.856   8.564
 1368POPC   C2B20144  23.477  25.872   8.264
 1368POPC   C3B20145  23.531  25.871   7.964
 1368POPC   C4B20146  23.537  25.895   7.664
 1369POPC   NC320147  13.634   6.691   9.464
 1369POPC   PO420148  13.608   6.685   9.164
 1369POPC   GL120149  13.627   6.644   8.864
 1369POPC   GL220150  13.616   6.532   8.864
 1369POPC   C1A20151  13.598   6.661   8.564
 1369POPC   D2A20152  13.675   6.663   8.264
 1369POPC   C3A20153  13.635   6.647   7.964
 1369POPC   C4A20154  13.614   6.675   7.664
 1369POPC   C1B20155  13.529   6.374   8.564
 1369POPC   C2B20156  13.565   6.410   8.264
 1369POPC   C3B20157  13.546   6.389   7.964
 1369POPC   C4B20158  13.553   6.449   7.664
 1370POPC   NC320159  43.893   5.901   9.464
 1370POPC   PO420160  43.890   5.884   9.164
 1370POPC   GL120161  43.892   5.880   8.864
 1370POPC   GL220162  43.987   5.831   8.864
 1370POPC   C1A20163  43.932   5.844   8.564
 1370POPC   D2A20164  43.908   5.860   8.264
 1370POPC   C3A20165  43.869   5.902   7.964
 1370POPC   C4A20166  43.854   5.834   7.664
 1370POPC   C1B20167  44.106   5.784   8.564
 1370POPC   C2B20168  44.138   5.725   8.264
 1370POPC   C3B20169  44.098   5.721   7.964
 1370POPC   C4B20170  44.070   5.791   7.664
 1371POPC   NC320171  10.540  35.319   9.464
 1371POPC   PO420172  10.503  35.323   9.164
 1371POPC   GL120173  10.565  35.356   8.864
 1371POPC   GL220174  10.633  35.403   8.864
 1371POPC   C1A20175  10.511  35.373   8.564
 1371POPC   D2A20176  10.515  35.364   8.264
 1371POPC   C3A20177  10.525  35.366   7.964
 1371POPC   C4A20178  10.484  35.378   7.664
 1371POPC   C1B20179  10.753  35.546   8.564
 1371POPC   C2B20180  10.677  35.508   8.264
 1371POPC   C3B20181  10.767  35.503   7.964
 1371POPC   C4B20182  10.700  35.504   7.664
 1372POPC   NC320183   6.660  18.316   9.464
 1372POPC   PO420184   6.650  18.310   9.164
 1372POPC   GL120185   6.599  18.239   8.864
 1372POPC   GL220186   6.568  18.401   8.864
 1372POPC   C1A20187   6.676  18.298   8.564
 1372POPC   D2A20188   6.606  18.239   8.264
 1372POPC   C3A20189   6.659  18.245   7.964
 1372POPC   C4A20190   6.692  18.328   7.664
 1372POPC   C1B20191   6.558  18.518   8.564
 1372POPC   C2B20192   6.535  18.531   8.264
 1372POPC   C3B20193   6.579  18.509   7.964
 1372POPC   C4B20194   6.565  18.506   7.664
 1373POPC   NC320195  22.907  42.353   9.464
 1373POPC   PO420196  22.950  42.318   9.164
 1373POPC   GL120197  22.966  42.355   8.864
 1373POPC   GL220198  22.835  42.212   8.864
 1373POPC   C1A20199  22.952  42.308   8.564
 1373POPC   D2A20200  22.925  42.378   8.264
 1373POPC   C3A20201  22.889  42.307   7.964
 1373POPC   C4A20202  22.953  42.310   7.664
 1373POPC   C1B20203  22.772  42.162   8.564
 1373POPC   C2B20204  22.753  42.206   8.264
 1373POPC   C3B20205  22.731  42.143   7.964
 1373POPC   C4B20206  22.756  42.195   7.664
 1374POPC   NC320207   3.542  24.478   9.464
 1374POPC   PO420208   3.528  24.501   9.164
 1374POPC   GL120209   3.582  24.447   8.864
 1374POPC   GL220210   3.643  24.422   8.864
 1374POPC   C1A20211   3.511  24.506   8.564
 1374POPC   D2A20212   3.578  24.480   8.264
 1374POPC   C3A20213   3.532  24.469   7.964
 1374POPC   C4A20214   3.500  24.479   7.664
 1374POPC   C1B20215   3.825  24.437   8.564
 1374POPC   C2B20216   3.794  24.482   8.264
 1374POPC   C3B20217   3.807  24.407   7.964
 1374POPC   C4B20218   3.764  24.439   7.664
 1375POPC   NC320219   6.659  14.359   9.464
 1375POPC   PO420220   6.626  14.440   9.164
 1375POPC   GL120221   6.603  14.451   8.864
 1375POPC   GL220222   6.655  14.266   8.864
 1375POPC   C1A20223   6.695  14.359   8.564
 1375POPC   D2A20224   6.616  14.433   8.264
 1375POPC   C3A20225   6.633  14.423   7.964
 1375POPC   C4A20226   6.685  14.418   7.664
 1375POPC   C1B20227   6.709  14.205   8.564
 1375POPC   C2B20228   6.707  14.175   8.264
 1375POPC   C3B20229   6.695  14.127   7.964
 1375POPC   C4B20230   6.701  14.167   7.664
 1376POPC   NC320231  27.608  19.033   9.464
 1376POPC   PO420232  27.574  19.013   9.164
 1376POPC   GL120233  27.561  19.092   8.864
 1376POPC   GL220234  27.690  18.975   8.864
 1376POPC   C1A20235  27.599  19.045   8.564
 1376POPC   D2A20236  27.554  19.066   8.264
 1376POPC   C3A20237  27.570  19.019   7.964
 1376POPC   C4A20238  27.602  19.036   7.664
 1376POPC   C1B20239  27.743  18.861   8.564
 1376POPC   C2B20240  27.677  18.874   8.264
 1376POPC   C3B20241  27.733  18.839   7.964
 1376POPC   C4B20242  27.709  18.787   7.664
 1377POPC   NC320243  40.767  33.791   9.464
 1377POPC   PO420244  40.740  33.777   9.164
 1377POPC   GL120245  40.767  33.825   8.864
 1377POPC   GL220246  40.844  33.667   8.864
 1377POPC   C1A20247  40.813  33.830   8.564
 1377POPC   D2A20248  40.788  33.803   8.264
 1377POPC   C3A20249  40.780  33.770   7.964
 1377POPC   C4A20250  40.796  33.771   7.664
 1377POPC   C1B20251  40.950  33.609   8.564
 1377POPC   C2B20252  40.943  33.624   8.264
 1377POPC   C3B20253  40.891  33.617   7.964
 1377POPC   C4B20254  40.940  33.639   7.664
 1378POPC   NC320255  22.922   3.545   9.464
 1378POPC   PO420256  22.957   3.587   9.164
 1378POPC   GL120257  22.891   3.512   8.864
 1378POPC   GL220258  22.880   3.637   8.864
 1378POPC   C1A20259  22.961   3.509   8.564
 1378POPC   D2A20260  22.888   3.576   8.264
 1378POPC   C3A20261  22.894   3.569   7.964
 1378POPC   C4A20262  22.938   3.562   7.664
 1378POPC   C1B20263  22.773   3.742   8.564
 1378POPC   C2B20264  22.768   3.672   8.264
 1378POPC   C3B20265  22.729   3.747   7.964
 1378POPC   C4B20266  22.756   3.714   7.664
 1379POPC   NC320267  22.939  29.948   9.464
 1379POPC   PO420268  22.948  29.882   9.164
 1379POPC   GL120269  22.900  29.891   8.864
 1379POPC   GL220270  22.999  30.064   8.864
 1379POPC   C1A20271  22.901  29.951   8.564
 1379POPC   D2A20272  22.923  29.933   8.264
 1379POPC   C3A20273  22.900  29.970   7.964
 1379POPC   C4A20274  22.938  29.887   7.664
 1379POPC   C1B20275  23.040  30.142   8.564
 1379POPC   C2B20276  22.980  30.115   8.264
 1379POPC   C3B20277  23.074  30.139   7.964
 1379POPC   C4B20278  23.038  30.184   7.664
 1380POPC   NC320279  33.844   5.080   9.464
 1380POPC   PO420280  33.781   5.072   9.164
 1380POPC   GL120281  33.846   5.051   8.864
 1380POPC   GL220282  33.693   5.028   8.864
 1380POPC   C1A20283  33.834   5.076   8.564
 1380POPC   D2A20284  33.771   5.136   8.264
 1380POPC   C3A20285  33.847   5.087   7.964
 1380POPC   C4A20286  33.811   5.130   7.664
 1380POPC   C1B20287  33.560   4.969   8.564
 1380POPC   C2B20288  33.554   4.975   8.264
 1380POPC   C3B20289  33.607   4.977   7.964
 1380POPC   C4B20290  33.526   4.993   7.664
 1381POPC   NC320291   6.675  30.689   9.464
 1381POPC   PO420292   6.630  30.665   9.164
 1381POPC   GL120293   6.635  30.724   8.864
 1381POPC   GL220294   6.722  30.593   8.864
 1381POPC   C1A20295   6.641  30.742   8.564
 1381POPC   D2A20296   6.616  30.686   8.264
 1381POPC   C3A20297   6.600  30.673   7.964
 1381POPC   C4A20298   6.684  30.653   7.664
 1381POPC   C1B20299   6.834  30.513   8.564
 1381POPC   C2B20300   6.795  30.500   8.264
 1381POPC   C3B20301   6.853  30.564   7.964
 1381POPC   C4B20302   6.827  30.483   7.664
 1382POPC   NC320303  19.789  16.001   9.464
 1382POPC   PO420304  19.839  15.961   9.164
 1382POPC   GL120305  19.837  16.001   8.864
 1382POPC   GL220306  19.723  16.092   8.864
 1382POPC   C1A20307  19.859  15.988   8.564
 1382POPC   D2A20308  19.862  15.950   8.264
 1382POPC   C3A20309  19.862  15.991   7.964
 1382POPC   C4A20310  19.804  16.000   7.664
 1382POPC   C1B20311  19.661  16.148   8.564
 1382POPC   C2B20312  19.633  16.100   8.264
 1382POPC   C3B20313  19.669  16.154   7.964
 1382POPC   C4B20314  19.696  16.158   7.664
 1383POPC   NC320315  10.500  42.298   9.464
 1383POPC   PO420316  10.496  42.357   9.164
 1383POPC   GL120317  10.488  42.328   8.864
 1383POPC   GL220318  10.624  42.480   8.864
 1383POPC   C1A20319  10.480  42.304   8.564
 1383POPC   D2A20320  10.507  42.315   8.264
 1383POPC   C3A20321  10.560  42.372   7.964
 1383POPC   C4A20322  10.543  42.359   7.664
 1383POPC   C1B20323  10.639  42.585   8.564
 1383POPC   C2B20324  10.599  42.586   8.264
 1383POPC   C3B20325  10.641  42.515   7.964
 1383POPC   C4B20326  10.661  42.514   7.664
 1384POPC   NC320327   1.197  13.609   9.464
 1384POPC   PO420328   1.194  13.606   9.164
 1384POPC   GL120329   1.175  13.592   8.864
 1384POPC   GL220330   1.142  13.569   8.864
 1384POPC   C1A20331   1.193  13.672   8.564
 1384POPC   D2A20332   1.219  13.620   8.264
 1384POPC   C3A20333   1.168  13.660   7.964
 1384POPC   C4A20334   1.215  13.587   7.664
 1384POPC   C1B20335   1.048  13.497   8.564
 1384POPC   C2B20336   1.074  13.494   8.264
 1384POPC   C3B20337   0.977  13.477   7.964
 1384POPC   C4B20338   1.021  13.453   7.664
 1385POPC   NC320339   9.005  14.426   9.464
 1385POPC   PO420340   8.924  14.444   9.164
 1385POPC   GL120341   9.022  14.367   8.864
 1385POPC   GL220342   9.095  14.406   8.864
 1385POPC   C1A20343   9.001  14.372   8.564
 1385POPC   D2A20344   9.001  14.451   8.264
 1385POPC   C3A20345   9.010  14.412   7.964
 1385POPC   C4A20346   8.981  14.420   7.664
 1385POPC   C1B20347   9.199  14.459   8.564
 1385POPC   C2B20348   9.181  14.470   8.264
 1385POPC   C3B20349   9.185  14.445   7.964
 1385POPC   C4B20350   9.237  14.473   7.664
 1386POPC   NC320351  19.087  43.932   9.464
 1386POPC   PO420352  19.091  43.878   9.164
 1386POPC   GL120353  19.010  43.889   8.864
 1386POPC   GL220354  19.071  43.803   8.864
 1386POPC   C1A20355  19.076  43.930   8.564
 1386POPC   D2A20356  19.024  43.914   8.264
 1386POPC   C3A20357  19.075  43.858   7.964
 1386POPC   C4A20358  19.040  43.894   7.664
 1386POPC   C1B20359  19.068  43.600   8.564
 1386POPC   C2B20360  19.068  43.592   8.264
 1386POPC   C3B20361  19.012  43.621   7.964
 1386POPC   C4B20362  19.079  43.655   7.664
 1387POPC   NC320363  15.151  26.800   9.464
 1387POPC   PO420364  15.147  26.811   9.164
 1387POPC   GL120365  15.175  26.861   8.864
 1387POPC   GL220366  15.290  26.699   8.864
 1387POPC   C1A20367  15.204  26.860   8.564
 1387POPC   D2A20368  15.223  26.828   8.264
 1387POPC   C3A20369  15.205  26.813   7.964
 1387POPC   C4A20370  15.188  26.850   7.664
 1387POPC   C1B20371  15.301  26.682   8.564
 1387POPC   C2B20372  15.362  26.681   8.264
 1387POPC   C3B20373  15.364  26.620   7.964
 1387POPC   C4B20374  15.307  26.646   7.664
 1388POPC   NC320375  29.945   3.556   9.464
 1388POPC   PO420376  29.908   3.566   9.164
 1388POPC   GL120377  29.951   3.581   8.864
 1388POPC   GL220378  30.088   3.503   8.864
 1388POPC   C1A20379  29.966   3.521   8.564
 1388POPC   D2A20380  29.909   3.515   8.264
 1388POPC   C3A20381  29.915   3.538   7.964
 1388POPC   C4A20382  29.877   3.537   7.664
 1388POPC   C1B20383  30.185   3.539   8.564
 1388POPC   C2B20384  30.188   3.528   8.264
 1388POPC   C3B20385  30.173   3.564   7.964
 1388POPC   C4B20386  30.137   3.516   7.664
 1389POPC   NC320387  18.303  36.167   9.464
 1389POPC   PO420388  18.299  36.134   9.164
 1389POPC   GL120389  18.271  36.151   8.864
 1389POPC   GL220390  18.345  36.225   8.864
 1389POPC   C1A20391  18.256  36.149   8.564
 1389POPC   D2A20392  18.249  36.145   8.264
 1389POPC   C3A20393  18.301  36.120   7.964
 1389POPC   C4A20394  18.280  36.145   7.664
 1389POPC   C1B20395  18.351  36.379   8.564
 1389POPC   C2B20396  18.340  36.342   8.264
 1389POPC   C3B20397  18.357  36.330   7.964
 1389POPC   C4B20398  18.350  36.310   7.664
 1390POPC   NC320399  12.091   1.252   9.464
 1390POPC   PO420400  12.111   1.198   9.164
 1390POPC   GL120401  12.095   1.190   8.864
 1390POPC   GL220402  12.000   1.150   8.864
 1390POPC   C1A20403  12.051   1.245   8.564
 1390POPC   D2A20404  12.075   1.180   8.264
 1390POPC   C3A20405  12.090   1.166   7.964
 1390POPC   C4A20406  12.116   1.226   7.664
 1390POPC   C1B20407  11.934   1.040   8.564
 1390POPC   C2B20408  11.881   1.048   8.264
 1390POPC   C3B20409  11.912   1.076   7.964
 1390POPC   C4B20410  11.860   1.054   7.664
 1391POPC   NC320411  29.897   0.463   9.464
 1391POPC   PO420412  29.914   0.402   9.164
 1391POPC   GL120413  29.903   0.462   8.864
 1391POPC   GL220414  29.777   0.432   8.864
 1391POPC   C1A20415  29.910   0.477   8.564
 1391POPC   D2A20416  29.911   0.487   8.264
 1391POPC   C3A20417  29.956   0.439   7.964
 1391POPC   C4A20418  29.875   0.447   7.664
 1391POPC   C1B20419  29.628   0.440   8.564
 1391POPC   C2B20420  29.718   0.473   8.264
 1391POPC   C3B20421  29.644   0.504   7.964
 1391POPC   C4B20422  29.700   0.493   7.664
 1392POPC   NC320423  18.287  24.482   9.464
 1392POPC   PO420424  18.280  24.480   9.164
 1392POPC   GL120425  18.281  24.531   8.864
 1392POPC   GL220426  18.364  24.616   8.864
 1392POPC   C1A20427  18.288  24.476   8.564
 1392POPC   D2A20428  18.300  24.524   8.264
 1392POPC   C3A20429  18.321  24.497   7.964
 1392POPC   C4A20430  18.252  24.507   7.664
 1392POPC   C1B20431  18.435  24.636   8.564
 1392POPC   C2B20432  18.453  24.646   8.264
 1392POPC   C3B20433  18.424  24.648   7.964
 1392POPC   C4B20434  18.447  24.657   7.664
 1393POPC   NC320435  33.008  37.698   9.464
 1393POPC   PO420436  33.060  37.634   9.164
 1393POPC   GL120437  33.023  37.657   8.864
 1393POPC   GL220438  32.886  37.780   8.864
 1393POPC   C1A20439  32.988  37.722   8.564
 1393POPC   D2A20440  33.051  37.642   8.264
 1393POPC   C3A20441  32.987  37.712   7.964
 1393POPC   C4A20442  33.041  37.656   7.664
 1393POPC   C1B20443  32.765  37.833   8.564
 1393POPC   C2B20444  32.776  37.838   8.264
 1393POPC   C3B20445  32.795  37.767   7.964
 1393POPC   C4B20446  32.848  37.802   7.664
 1394POPC   NC320447  27.574   2.024   9.464
 1394POPC   PO420448  27.633   1.954   9.164
 1394POPC   GL120449  27.564   2.022   8.864
 1394POPC   GL220450  27.695   1.942   8.864
 1394POPC   C1A20451  27.640   1.961   8.564
 1394POPC   D2A20452  27.564   1.946   8.264
 1394POPC   C3A20453  27.552   1.982   7.964
 1394POPC   C4A20454  27.624   2.024   7.664
 1394POPC   C1B20455  27.798   1.844   8.564
 1394POPC   C2B20456  27.833   1.816   8.264
 1394POPC   C3B20457  27.751   1.873   7.964
 1394POPC   C4B20458  27.789   1.818   7.664
 1395POPC   NC320459   8.245  26.775   9.464
 1395POPC   PO420460   8.159  26.775   9.164
 1395POPC   GL120461   8.227  26.847   8.864
 1395POPC   GL220462   8.286  26.872   8.864
 1395POPC   C1A20463   8.232  26.814   8.564
 1395POPC   D2A20464   8.230  26.793   8.264
 1395POPC   C3A20465   8.152  26.821   7.964
 1395POPC   C4A20466   8.183  26.826   7.664
 1395POPC   C1B20467   8.386  27.022   8.564
 1395POPC   C2B20468   8.322  27.057   8.264
 1395POPC   C3B20469   8.333  26.994   7.964
 1395POPC   C4B20470   8.363  27.053   7.664
 1396POPC   NC320471  17.514  22.911   9.464
 1396POPC   PO420472  17.516  22.921   9.164
 1396POPC   GL120473  17.533  22.921   8.864
 1396POPC   GL220474  17.597  22.837   8.864
 1396POPC   C1A20475  17.492  22.976   8.564
 1396POPC   D2A20476  17.541  22.946   8.264
 1396POPC   C3A20477  17.556  22.891   7.964
 1396POPC   C4A20478  17.485  22.930   7.664
 1396POPC   C1B20479  17.656  22.772   8.564
 1396POPC   C2B20480  17.673  22.728   8.264
 1396POPC   C3B20481  17.662  22.744   7.964
 1396POPC   C4B20482  17.629  22.781   7.664
 1397POPC   NC320483  29.188   6.599   9.464
 1397POPC   PO420484  29.158   6.668   9.164
 1397POPC   GL120485  29.140   6.634   8.864
 1397POPC   GL220486  29.255   6.601   8.864
 1397POPC   C1A20487  29.108   6.616   8.564
 1397POPC   D2A20488  29.154   6.677   8.264
 1397POPC   C3A20489  29.181   6.625   7.964
 1397POPC   C4A20490  29.142   6.691   7.664
 1397POPC   C1B20491  29.372   6.565   8.564
 1397POPC   C2B20492  29.314   6.469   8.264
 1397POPC   C3B20493  29.346   6.491   7.964
 1397POPC   C4B20494  29.319   6.526   7.664
 1398POPC   NC320495  35.355  16.706   9.464
 1398POPC   PO420496  35.330  16.735   9.164
 1398POPC   GL120497  35.384  16.758   8.864
 1398POPC   GL220498  35.222  16.832   8.864
 1398POPC   C1A20499  35.312  16.693   8.564
 1398POPC   D2A20500  35.363  16.763   8.264
 1398POPC   C3A20501  35.332  16.717   7.964
 1398POPC   C4A20502  35.320  16.746   7.664
 1398POPC   C1B20503  35.225  16.939   8.564
 1398POPC   C2B20504  35.147  16.893   8.264
 1398POPC   C3B20505  35.185  16.949   7.964
 1398POPC   C4B20506  35.154  16.897   7.664
 1399POPC   NC320507  15.991  36.899   9.464
 1399POPC   PO420508  15.913  36.945   9.164
 1399POPC   GL120509  15.965  36.926   8.864
 1399POPC   GL220510  16.036  36.932   8.864
 1399POPC   C1A20511  15.941  36.920   8.564
 1399POPC   D2A20512  15.910  36.906   8.264
 1399POPC   C3A20513  15.977  36.872   7.964
 1399POPC   C4A20514  15.919  36.911   7.664
 1399POPC   C1B20515  16.159  36.896   8.564
 1399POPC   C2B20516  16.230  36.860   8.264
 1399POPC   C3B20517  16.209  36.851   7.964
 1399POPC   C4B20518  16.171  36.891   7.664
 1400POPC   NC320519  43.909  19.086   9.464
 1400POPC   PO420520  43.904  19.056   9.164
 1400POPC   GL120521  43.862  19.080   8.864
 1400POPC   GL220522  43.886  19.217   8.864
 1400POPC   C1A20523  43.915  19.060   8.564
 1400POPC   D2A20524  43.891  19.034   8.264
 1400POPC   C3A20525  43.863  19.101   7.964
 1400POPC   C4A20526  43.866  19.097   7.664
 1400POPC   C1B20527  43.747  19.326   8.564
 1400POPC   C2B20528  43.777  19.277   8.264
 1400POPC   C3B20529  43.799  19.331   7.964
 1400POPC   C4B20530  43.746  19.243   7.664
 1401POPC   NC320531  33.820   6.655   9.464
 1401POPC   PO420532  33.829   6.693   9.164
 1401POPC   GL120533  33.797   6.615   8.864
 1401POPC   GL220534  33.684   6.717   8.864
 1401POPC   C1A20535  33.840   6.685   8.564
 1401POPC   D2A20536  33.849   6.688   8.264
 1401POPC   C3A20537  33.809   6.685   7.964
 1401POPC   C4A20538  33.796   6.694   7.664
 1401POPC   C1B20539  33.535   6.768   8.564
 1401POPC   C2B20540  33.519   6.749   8.264
 1401POPC   C3B20541  33.579   6.718   7.964
 1401POPC   C4B20542  33.594   6.701   7.664
 1402POPC   NC320543  14.374  27.551   9.464
 1402POPC   PO420544  14.438  27.571   9.164
 1402POPC   GL120545  14.373  27.608   8.864
 1402POPC   GL220546  14.369  27.731   8.864
 1402POPC   C1A20547  14.399  27.578   8.564
 1402POPC   D2A20548  14.375  27.581   8.264
 1402POPC   C3A20549  14.360  27.549   7.964
 1402POPC   C4A20550  14.400  27.604   7.664
 1402POPC   C1B20551  14.271  27.811   8.564
 1402POPC   C2B20552  14.283  27.856   8.264
 1402POPC   C3B20553  14.259  27.866   7.964
 1402POPC   C4B20554  14.344  27.819   7.664
 1403POPC   NC320555   6.624  21.358   9.464
 1403POPC   PO420556   6.661  21.423   9.164
 1403POPC   GL120557   6.675  21.348   8.864
 1403POPC   GL220558   6.613  21.218   8.864
 1403POPC   C1A20559   6.671  21.370   8.564
 1403POPC   D2A20560   6.605  21.378   8.264
 1403POPC   C3A20561   6.671  21.356   7.964
 1403POPC   C4A20562   6.661  21.357   7.664
 1403POPC   C1B20563   6.568  21.146   8.564
 1403POPC   C2B20564   6.609  21.130   8.264
 1403POPC   C3B20565   6.610  21.166   7.964
 1403POPC   C4B20566   6.615  21.188   7.664
 1404POPC   NC320567  29.187  19.860   9.464
 1404POPC   PO420568  29.182  19.834   9.164
 1404POPC   GL120569  29.096  19.851   8.864
 1404POPC   GL220570  29.070  19.815   8.864
 1404POPC   C1A20571  29.143  19.808   8.564
 1404POPC   D2A20572  29.121  19.813   8.264
 1404POPC   C3A20573  29.174  19.792   7.964
 1404POPC   C4A20574  29.194  19.788   7.664
 1404POPC   C1B20575  28.926  19.729   8.564
 1404POPC   C2B20576  28.946  19.692   8.264
 1404POPC   C3B20577  28.889  19.693   7.964
 1404POPC   C4B20578  28.929  19.756   7.664
 1405POPC   NC320579  19.867  33.037   9.464
 1405POPC   PO420580  19.880  33.020   9.164
 1405POPC   GL120581  19.785  32.999   8.864
 1405POPC   GL220582  19.779  33.126   8.864
 1405POPC   C1A20583  19.854  32.994   8.564
 1405POPC   D2A20584  19.862  33.017   8.264
 1405POPC   C3A20585  19.799  32.996   7.964
 1405POPC   C4A20586  19.838  33.052   7.664
 1405POPC   C1B20587  19.796  33.247   8.564
 1405POPC   C2B20588  19.745  33.229   8.264
 1405POPC   C3B20589  19.727  33.292   7.964
 1405POPC   C4B20590  19.714  33.251   7.664
 1406POPC   NC320591  25.309   5.905   9.464
 1406POPC   PO420592  25.257   5.881   9.164
 1406POPC   GL120593  25.250   5.869   8.864
 1406POPC   GL220594  25.189   5.819   8.864
 1406POPC   C1A20595  25.277   5.890   8.564
 1406POPC   D2A20596  25.280   5.914   8.264
 1406POPC   C3A20597  25.252   5.901   7.964
 1406POPC   C4A20598  25.229   5.873   7.664
 1406POPC   C1B20599  25.046   5.656   8.564
 1406POPC   C2B20600  25.099   5.717   8.264
 1406POPC   C3B20601  25.051   5.751   7.964
 1406POPC   C4B20602  25.097   5.686   7.664
 1407POPC   NC320603  44.661  42.313   9.464
 1407POPC   PO420604  44.697  42.371   9.164
 1407POPC   GL120605  44.704  42.320   8.864
 1407POPC   GL220606  44.558  42.219   8.864
 1407POPC   C1A20607  44.684  42.306   8.564
 1407POPC   D2A20608  44.618  42.298   8.264
 1407POPC   C3A20609  44.630  42.347   7.964
 1407POPC   C4A20610  44.639  42.347   7.664
 1407POPC   C1B20611  44.497  42.147   8.564
 1407POPC   C2B20612  44.518  42.138   8.264
 1407POPC   C3B20613  44.501  42.096   7.964
 1407POPC   C4B20614  44.543  42.095   7.664
 1408POPC   NC320615  43.911  24.482   9.464
 1408POPC   PO420616  43.837  24.537   9.164
 1408POPC   GL120617  43.899  24.488   8.864
 1408POPC   GL220618  43.904  24.578   8.864
 1408POPC   C1A20619  43.890  24.467   8.564
 1408POPC   D2A20620  43.877  24.530   8.264
 1408POPC   C3A20621  43.867  24.525   7.964
 1408POPC   C4A20622  43.863  24.485   7.664
 1408POPC   C1B20623  43.932  24.773   8.564
 1408POPC   C2B20624  43.895  24.767   8.264
 1408POPC   C3B20625  43.969  24.701   7.964
 1408POPC   C4B20626  43.960  24.732   7.664
 1409POPC   NC320627  11.281  41.522   9.464
 1409POPC   PO420628  11.284  41.602   9.164
 1409POPC   GL120629  11.330  41.577   8.864
 1409POPC   GL220630  11.363  41.635   8.864
 1409POPC   C1A20631  11.307  41.598   8.564
 1409POPC   D2A20632  11.262  41.529   8.264
 1409POPC   C3A20633  11.325  41.520   7.964
 1409POPC   C4A20634  11.282  41.571   7.664
 1409POPC   C1B20635  11.470  41.780   8.564
 1409POPC   C2B20636  11.463  41.793   8.264
 1409POPC   C3B20637  11.414  41.813   7.964
 1409POPC   C4B20638  11.441  41.817   7.664
 1410POPC   NC320639  32.284  13.625   9.464
 1410POPC   PO420640  32.218  13.626   9.164
 1410POPC   GL120641  32.221  13.640   8.864
 1410POPC   GL220642  32.240  13.783   8.864
 1410POPC   C1A20643  32.274  13.619   8.564
 1410POPC   D2A20644  32.248  13.625   8.264
 1410POPC   C3A20645  32.265  13.632   7.964
 1410POPC   C4A20646  32.209  13.600   7.664
 1410POPC   C1B20647  32.277  13.830   8.564
 1410POPC   C2B20648  32.350  13.908   8.264
 1410POPC   C3B20649  32.294  13.826   7.964
 1410POPC   C4B20650  32.341  13.848   7.664
 1411POPC   NC320651   9.698   9.766   9.464
 1411POPC   PO420652   9.772   9.719   9.164
 1411POPC   GL120653   9.733   9.703   8.864
 1411POPC   GL220654   9.834   9.864   8.864
 1411POPC   C1A20655   9.760   9.708   8.564
 1411POPC   D2A20656   9.748   9.751   8.264
 1411POPC   C3A20657   9.789   9.738   7.964
 1411POPC   C4A20658   9.773   9.761   7.664
 1411POPC   C1B20659   9.843   9.963   8.564
 1411POPC   C2B20660   9.929  10.000   8.264
 1411POPC   C3B20661   9.920   9.957   7.964
 1411POPC   C4B20662   9.925   9.937   7.664
 1412POPC   NC320663  35.378  16.003   9.464
 1412POPC   PO420664  35.347  15.949   9.164
 1412POPC   GL120665  35.307  15.935   8.864
 1412POPC   GL220666  35.444  16.030   8.864
 1412POPC   C1A20667  35.324  15.985   8.564
 1412POPC   D2A20668  35.379  15.956   8.264
 1412POPC   C3A20669  35.369  16.001   7.964
 1412POPC   C4A20670  35.320  15.913   7.664
 1412POPC   C1B20671  35.539  16.075   8.564
 1412POPC   C2B20672  35.565  16.055   8.264
 1412POPC   C3B20673  35.589  16.100   7.964
 1412POPC   C4B20674  35.557  16.095   7.664
 1413POPC   NC320675  29.185  19.032   9.464
 1413POPC   PO420676  29.126  19.062   9.164
 1413POPC   GL120677  29.149  19.044   8.864
 1413POPC   GL220678  29.070  19.218   8.864
 1413POPC   C1A20679  29.152  19.039   8.564
 1413POPC   D2A20680  29.122  19.068   8.264
 1413POPC   C3A20681  29.175  19.058   7.964
 1413POPC   C4A20682  29.161  19.059   7.664
 1413POPC   C1B20683  29.023  19.304   8.564
 1413POPC   C2B20684  29.009  19.264   8.264
 1413POPC   C3B20685  29.057  19.279   7.964
 1413POPC   C4B20686  29.026  19.259   7.664
 1414POPC   NC320687  10.510  18.294   9.464
 1414POPC   PO420688  10.558  18.281   9.164
 1414POPC   GL120689  10.502  18.295   8.864
 1414POPC   GL220690  10.591  18.218   8.864
 1414POPC   C1A20691  10.556  18.292   8.564
 1414POPC   D2A20692  10.562  18.247   8.264
 1414POPC   C3A20693  10.480  18.254   7.964
 1414POPC   C4A20694  10.491  18.252   7.664
 1414POPC   C1B20695  10.672  18.082   8.564
 1414POPC   C2B20696  10.722  18.044   8.264
 1414POPC   C3B20697  10.682  18.117   7.964
 1414POPC   C4B20698  10.665  18.055   7.664
 1415POPC   NC320699  22.927  32.252   9.464
 1415POPC   PO420700  22.928  32.246   9.164
 1415POPC   GL120701  22.931  32.219   8.864
 1415POPC   GL220702  23.011  32.321   8.864
 1415POPC   C1A20703  22.970  32.235   8.564
 1415POPC   D2A20704  22.964  32.264   8.264
 1415POPC   C3A20705  22.972  32.290   7.964
 1415POPC   C4A20706  22.928  32.221   7.664
 1415POPC   C1B20707  23.176  32.361   8.564
 1415POPC   C2B20708  23.161  32.391   8.264
 1415POPC   C3B20709  23.182  32.326   7.964
 1415POPC   C4B20710  23.201  32.369   7.664
 1416POPC   NC320711  42.372   4.318   9.464
 1416POPC   PO420712  42.297   4.297   9.164
 1416POPC   GL120713  42.384   4.282   8.864
 1416POPC   GL220714  42.222   4.227   8.864
 1416POPC   C1A20715  42.310   4.352   8.564
 1416POPC   D2A20716  42.341   4.309   8.264
 1416POPC   C3A20717  42.324   4.362   7.964
 1416POPC   C4A20718  42.318   4.367   7.664
 1416POPC   C1B20719  42.151   4.147   8.564
 1416POPC   C2B20720  42.110   4.180   8.264
 1416POPC   C3B20721  42.152   4.173   7.964
 1416POPC   C4B20722  42.114   4.190   7.664
 1417POPC   NC320723  29.155  20.653   9.464
 1417POPC   PO420724  29.095  20.579   9.164
 1417POPC   GL120725  29.143  20.593   8.864
 1417POPC   GL220726  29.077  20.678   8.864
 1417POPC   C1A20727  29.154  20.629   8.564
 1417POPC   D2A20728  29.185  20.619   8.264
 1417POPC   C3A20729  29.116  20.639   7.964
 1417POPC   C4A20730  29.173  20.614   7.664
 1417POPC   C1B20731  29.043  20.833   8.564
 1417POPC   C2B20732  29.013  20.857   8.264
 1417POPC   C3B20733  29.032  20.832   7.964
 1417POPC   C4B20734  29.102  20.806   7.664
 1418POPC   NC320735  18.251  38.436   9.464
 1418POPC   PO420736  18.327  38.418   9.164
 1418POPC   GL120737  18.271  38.475   8.864
 1418POPC   GL220738  18.148  38.394   8.864
 1418POPC   C1A20739  18.332  38.425   8.564
 1418POPC   D2A20740  18.329  38.461   8.264
 1418POPC   C3A20741  18.275  38.450   7.964
 1418POPC   C4A20742  18.287  38.500   7.664
 1418POPC   C1B20743  18.081  38.300   8.564
 1418POPC   C2B20744  18.011  38.323   8.264
 1418POPC   C3B20745  18.018  38.330   7.964
 1418POPC   C4B20746  18.100  38.301   7.664
 1419POPC   NC320747   4.315  12.807   9.464
 1419POPC   PO420748   4.322  12.826   9.164
 1419POPC   GL120749   4.329  12.804   8.864
 1419POPC   GL220750   4.185  12.798   8.864
 1419POPC   C1A20751   4.294  12.839   8.564
 1419POPC   D2A20752   4.327  12.865   8.264
 1419POPC   C3A20753   4.306  12.849   7.964
 1419POPC   C4A20754   4.341  12.879   7.664
 1419POPC   C1B20755   4.080  12.862   8.564
 1419POPC   C2B20756   4.100  12.873   8.264
 1419POPC   C3B20757   4.081  12.861   7.964
 1419POPC   C4B20758   4.096  12.809   7.664
 1420POPC   NC320759   0.418  21.413   9.464
 1420POPC   PO420760   0.485  21.404   9.164
 1420POPC   GL120761   0.481  21.422   8.864
 1420POPC   GL220762   0.383  21.229   8.864
 1420POPC   C1A20763   0.419  21.343   8.564
 1420POPC   D2A20764   0.430  21.399   8.264
 1420POPC   C3A20765   0.464  21.355   7.964
 1420POPC   C4A20766   0.434  21.420   7.664
 1420POPC   C1B20767   0.394  21.088   8.564
 1420POPC   C2B20768   0.450  21.186   8.264
 1420POPC   C3B20769   0.460  21.098   7.964
 1420POPC   C4B20770   0.427  21.111   7.664
 1421POPC   NC320771  16.746  28.342   9.464
 1421POPC   PO420772  16.703  28.347   9.164
 1421POPC   GL120773  16.722  28.349   8.864
 1421POPC   GL220774  16.836  28.475   8.864
 1421POPC   C1A20775  16.720  28.320   8.564
 1421POPC   D2A20776  16.748  28.352   8.264
 1421POPC   C3A20777  16.765  28.403   7.964
 1421POPC   C4A20778  16.761  28.414   7.664
 1421POPC   C1B20779  16.922  28.567   8.564
 1421POPC   C2B20780  16.876  28.588   8.264
 1421POPC   C3B20781  16.911  28.520   7.964
 1421POPC   C4B20782  16.910  28.582   7.664
 1422POPC   NC320783  38.419  10.487   9.464
 1422POPC   PO420784  38.428  10.496   9.164
 1422POPC   GL120785  38.458  10.509   8.864
 1422POPC   GL220786  38.460  10.427   8.864
 1422POPC   C1A20787  38.471  10.481   8.564
 1422POPC   D2A20788  38.467  10.533   8.264
 1422POPC   C3A20789  38.426  10.571   7.964
 1422POPC   C4A20790  38.452  10.483   7.664
 1422POPC   C1B20791  38.483  10.320   8.564
 1422POPC   C2B20792  38.530  10.245   8.264
 1422POPC   C3B20793  38.514  10.318   7.964
 1422POPC   C4B20794  38.445  10.291   7.664
 1423POPC   NC320795  25.263  43.838   9.464
 1423POPC   PO420796  25.220  43.888   9.164
 1423POPC   GL120797  25.248  43.884   8.864
 1423POPC   GL220798  25.103  43.900   8.864
 1423POPC   C1A20799  25.288  43.900   8.564
 1423POPC   D2A20800  25.227  43.915   8.264
 1423POPC   C3A20801  25.228  43.901   7.964
 1423POPC   C4A20802  25.236  43.926   7.664
 1423POPC   C1B20803  25.013  43.873   8.564
 1423POPC   C2B20804  25.044  43.899   8.264
 1423POPC   C3B20805  25.012  43.888   7.964
 1423POPC   C4B20806  24.986  43.841   7.664
 1424POPC   NC320807  20.624   8.936   9.464
 1424POPC   PO420808  20.643   8.954   9.164
 1424POPC   GL120809  20.574   9.004   8.864
 1424POPC   GL220810  20.742   8.976   8.864
 1424POPC   C1A20811  20.576   8.963   8.564
 1424POPC   D2A20812  20.566   8.946   8.264
 1424POPC   C3A20813  20.563   8.982   7.964
 1424POPC   C4A20814  20.656   8.925   7.664
 1424POPC   C1B20815  20.899   8.890   8.564
 1424POPC   C2B20816  20.871   8.887   8.264
 1424POPC   C3B20817  20.865   8.956   7.964
 1424POPC   C4B20818  20.900   8.907   7.664
 1425POPC   NC320819   2.743  44.702   9.464
 1425POPC   PO420820   2.729  44.645   9.164
 1425POPC   GL120821   2.743  44.703   8.864
 1425POPC   GL220822   2.715  44.799   8.864
 1425POPC   C1A20823   2.727  44.653   8.564
 1425POPC   D2A20824   2.762  44.689   8.264
 1425POPC   C3A20825   2.733  44.638   7.964
 1425POPC   C4A20826   2.728  44.707   7.664
 1425POPC   C1B20827   2.625  44.854   8.564
 1425POPC   C2B20828   2.625  44.884   8.264
 1425POPC   C3B20829   2.620  44.890   7.964
 1425POPC   C4B20830   2.650  44.845   7.664
 1426POPC   NC320831  12.811  37.694   9.464
 1426POPC   PO420832  12.872  37.636   9.164
 1426POPC   GL120833  12.871  37.661   8.864
 1426POPC   GL220834  12.992  37.658   8.864
 1426POPC   C1A20835  12.880  37.681   8.564
 1426POPC   D2A20836  12.867  37.660   8.264
 1426POPC   C3A20837  12.806  37.714   7.964
 1426POPC   C4A20838  12.850  37.680   7.664
 1426POPC   C1B20839  13.078  37.628   8.564
 1426POPC   C2B20840  13.052  37.585   8.264
 1426POPC   C3B20841  13.109  37.630   7.964
 1426POPC   C4B20842  13.067  37.635   7.664
 1427POPC   NC320843  42.344  39.252   9.464
 1427POPC   PO420844  42.361  39.202   9.164
 1427POPC   GL120845  42.314  39.214   8.864
 1427POPC   GL220846  42.490  39.203   8.864
 1427POPC   C1A20847  42.308  39.203   8.564
 1427POPC   D2A20848  42.327  39.276   8.264
 1427POPC   C3A20849  42.313  39.255   7.964
 1427POPC   C4A20850  42.324  39.215   7.664
 1427POPC   C1B20851  42.615  39.169   8.564
 1427POPC   C2B20852  42.537  39.217   8.264
 1427POPC   C3B20853  42.562  39.220   7.964
 1427POPC   C4B20854  42.579  39.239   7.664
 1428POPC   NC320855  19.808  12.856   9.464
 1428POPC   PO420856  19.791  12.814   9.164
 1428POPC   GL120857  19.883  12.824   8.864
 1428POPC   GL220858  20.003  12.813   8.864
 1428POPC   C1A20859  19.803  12.805   8.564
 1428POPC   D2A20860  19.874  12.901   8.264
 1428POPC   C3A20861  19.878  12.868   7.964
 1428POPC   C4A20862  19.803  12.897   7.664
 1428POPC   C1B20863  20.063  12.874   8.564
 1428POPC   C2B20864  20.075  12.811   8.264
 1428POPC   C3B20865  20.100  12.855   7.964
 1428POPC   C4B20866  20.064  12.844   7.664
 1429POPC   NC320867   1.965  36.944   9.464
 1429POPC   PO420868   1.957  36.856   9.164
 1429POPC   GL120869   2.028  36.855   8.864
 1429POPC   GL220870   1.846  36.971   8.864
 1429POPC   C1A20871   2.026  36.859   8.564
 1429POPC   D2A20872   1.995  36.894   8.264
 1429POPC   C3A20873   1.981  36.883   7.964
 1429POPC   C4A20874   1.964  36.868   7.664
 1429POPC   C1B20875   1.814  37.073   8.564
 1429POPC   C2B20876   1.741  37.086   8.264
 1429POPC   C3B20877   1.743  37.055   7.964
 1429POPC   C4B20878   1.785  37.050   7.664
 1430POPC   NC320879  18.238  17.539   9.464
 1430POPC   PO420880  18.306  17.549   9.164
 1430POPC   GL120881  18.242  17.552   8.864
 1430POPC   GL220882  18.356  17.501   8.864
 1430POPC   C1A20883  18.235  17.476   8.564
 1430POPC   D2A20884  18.279  17.479   8.264
 1430POPC   C3A20885  18.317  17.536   7.964
 1430POPC   C4A20886  18.288  17.508   7.664
 1430POPC   C1B20887  18.562  17.600   8.564
 1430POPC   C2B20888  18.542  17.606   8.264
 1430POPC   C3B20889  18.476  17.605   7.964
 1430POPC   C4B20890  18.484  17.575   7.664
 1431POPC   NC320891  12.856  36.078   9.464
 1431POPC   PO420892  12.865  36.087   9.164
 1431POPC   GL120893  12.832  36.173   8.864
 1431POPC   GL220894  12.761  36.236   8.864
 1431POPC   C1A20895  12.841  36.169   8.564
 1431POPC   D2A20896  12.825  36.129   8.264
 1431POPC   C3A20897  12.825  36.152   7.964
 1431POPC   C4A20898  12.829  36.096   7.664
 1431POPC   C1B20899  12.674  36.288   8.564
 1431POPC   C2B20900  12.691  36.281   8.264
 1431POPC   C3B20901  12.626  36.261   7.964
 1431POPC   C4B20902  12.670  36.278   7.664
 1432POPC   NC320903  33.004  23.741   9.464
 1432POPC   PO420904  33.039  23.713   9.164
 1432POPC   GL120905  33.060  23.686   8.864
 1432POPC   GL220906  33.150  23.704   8.864
 1432POPC   C1A20907  33.023  23.758   8.564
 1432POPC   D2A20908  32.988  23.686   8.264
 1432POPC   C3A20909  33.005  23.700   7.964
 1432POPC   C4A20910  33.057  23.749   7.664
 1432POPC   C1B20911  33.295  23.673   8.564
 1432POPC   C2B20912  33.221  23.606   8.264
 1432POPC   C3B20913  33.260  23.665   7.964
 1432POPC   C4B20914  33.247  23.601   7.664
 1433POPC   NC320915  39.988  36.896   9.464
 1433POPC   PO420916  39.971  36.887   9.164
 1433POPC   GL120917  40.026  36.865   8.864
 1433POPC   GL220918  39.972  36.811   8.864
 1433POPC   C1A20919  39.993  36.930   8.564
 1433POPC   D2A20920  40.047  36.933   8.264
 1433POPC   C3A20921  40.016  36.942   7.964
 1433POPC   C4A20922  40.003  36.897   7.664
 1433POPC   C1B20923  39.814  36.689   8.564
 1433POPC   C2B20924  39.799  36.678   8.264
 1433POPC   C3B20925  39.797  36.742   7.964
 1433POPC   C4B20926  39.802  36.681   7.664
 1434POPC   NC320927  19.025   8.958   9.464
 1434POPC   PO420928  19.055   8.932   9.164
 1434POPC   GL120929  19.036   8.979   8.864
 1434POPC   GL220930  18.999   9.046   8.864
 1434POPC   C1A20931  19.097   8.939   8.564
 1434POPC   D2A20932  19.043   8.952   8.264
 1434POPC   C3A20933  19.032   9.019   7.964
 1434POPC   C4A20934  19.096   8.972   7.664
 1434POPC   C1B20935  18.947   9.174   8.564
 1434POPC   C2B20936  19.005   9.209   8.264
 1434POPC   C3B20937  18.974   9.193   7.964
 1434POPC   C4B20938  18.999   9.197   7.664
 1435POPC   NC320939  42.316  34.564   9.464
 1435POPC   PO420940  42.337  34.577   9.164
 1435POPC   GL120941  42.343  34.536   8.864
 1435POPC   GL220942  42.206  34.658   8.864
 1435POPC   C1A20943  42.344  34.570   8.564
 1435POPC   D2A20944  42.296  34.530   8.264
 1435POPC   C3A20945  42.323  34.555   7.964
 1435POPC   C4A20946  42.320  34.615   7.664
 1435POPC   C1B20947  42.104  34.640   8.564
 1435POPC   C2B20948  42.128  34.650   8.264
 1435POPC   C3B20949  42.103  34.624   7.964
 1435POPC   C4B20950  42.054  34.648   7.664
 1436POPC   NC320951  20.658   2.736   9.464
 1436POPC   PO420952  20.595   2.775   9.164
 1436POPC   GL120953  20.610   2.799   8.864
 1436POPC   GL220954  20.700   2.903   8.864
 1436POPC   C1A20955  20.649   2.736   8.564
 1436POPC   D2A20956  20.577   2.749   8.264
 1436POPC   C3A20957  20.622   2.743   7.964
 1436POPC   C4A20958  20.586   2.730   7.664
 1436POPC   C1B20959  20.697   2.990   8.564
 1436POPC   C2B20960  20.700   3.005   8.264
 1436POPC   C3B20961  20.711   2.983   7.964
 1436POPC   C4B20962  20.704   3.013   7.664
 1437POPC   NC320963  29.131   2.742   9.464
 1437POPC   PO420964  29.149   2.743   9.164
 1437POPC   GL120965  29.123   2.737   8.864
 1437POPC   GL220966  29.220   2.783   8.864
 1437POPC   C1A20967  29.191   2.777   8.564
 1437POPC   D2A20968  29.105   2.803   8.264
 1437POPC   C3A20969  29.161   2.787   7.964
 1437POPC   C4A20970  29.120   2.799   7.664
 1437POPC   C1B20971  29.336   2.840   8.564
 1437POPC   C2B20972  29.375   2.877   8.264
 1437POPC   C3B20973  29.366   2.878   7.964
 1437POPC   C4B20974  29.427   2.822   7.664
 1438POPC   NC320975  42.369  37.648   9.464
 1438POPC   PO420976  42.365  37.672   9.164
 1438POPC   GL120977  42.300  37.686   8.864
 1438POPC   GL220978  42.357  37.573   8.864
 1438POPC   C1A20979  42.364  37.694   8.564
 1438POPC   D2A20980  42.296  37.713   8.264
 1438POPC   C3A20981  42.329  37.709   7.964
 1438POPC   C4A20982  42.295  37.655   7.664
 1438POPC   C1B20983  42.420  37.417   8.564
 1438POPC   C2B20984  42.417  37.433   8.264
 1438POPC   C3B20985  42.388  37.433   7.964
 1438POPC   C4B20986  42.372  37.484   7.664
 1439POPC   NC320987  39.980  21.338   9.464
 1439POPC   PO420988  40.017  21.421   9.164
 1439POPC   GL120989  39.984  21.349   8.864
 1439POPC   GL220990  40.155  21.345   8.864
 1439POPC   C1A20991  40.002  21.367   8.564
 1439POPC   D2A20992  40.035  21.342   8.264
 1439POPC   C3A20993  40.001  21.359   7.964
 1439POPC   C4A20994  39.971  21.389   7.664
 1439POPC   C1B20995  40.269  21.268   8.564
 1439POPC   C2B20996  40.183  21.241   8.264
 1439POPC   C3B20997  40.208  21.260   7.964
 1439POPC   C4B20998  40.211  21.284   7.664
 1440POPC   NC320999  26.003  13.634   9.464
 1440POPC   PO421000  26.090  13.586   9.164
 1440POPC   GL121001  26.009  13.677   8.864
 1440POPC   GL221002  26.078  13.774   8.864
 1440POPC   C1A21003  26.006  13.651   8.564
 1440POPC   D2A21004  26.037  13.652   8.264
 1440POPC   C3A21005  26.054  13.606   7.964
 1440POPC   C4A21006  26.014  13.660   7.664
 1440POPC   C1B21007  26.051  13.863   8.564
 1440POPC   C2B21008  26.026  13.914   8.264
 1440POPC   C3B21009  26.056  13.926   7.964
 1440POPC   C4B21010  26.044  13.875   7.664
 1441POPC   NC321011  36.172  34.603   9.464
 1441POPC   PO421012  36.129  34.614   9.164
 1441POPC   GL121013  36.098  34.551   8.864
 1441POPC   GL221014  36.081  34.651   8.864
 1441POPC   C1A21015  36.166  34.616   8.564
 1441POPC   D2A21016  36.136  34.621   8.264
 1441POPC   C3A21017  36.127  34.557   7.964
 1441POPC   C4A21018  36.139  34.571   7.664
 1441POPC   C1B21019  36.030  34.765   8.564
 1441POPC   C2B21020  35.984  34.847   8.264
 1441POPC   C3B21021  36.008  34.771   7.964
 1441POPC   C4B21022  36.011  34.780   7.664
 1442POPC   NC321023   8.175  39.966   9.464
 1442POPC   PO421024   8.168  40.037   9.164
 1442POPC   GL121025   8.152  40.054   8.864
 1442POPC   GL221026   8.086  40.040   8.864
 1442POPC   C1A21027   8.155  39.974   8.564
 1442POPC   D2A21028   8.215  39.982   8.264
 1442POPC   C3A21029   8.189  40.052   7.964
 1442POPC   C4A21030   8.177  40.030   7.664
 1442POPC   C1B21031   7.948  40.097   8.564
 1442POPC   C2B21032   7.968  40.166   8.264
 1442POPC   C3B21033   8.010  40.156   7.964
 1442POPC   C4B21034   8.035  40.159   7.664
 1443POPC   NC321035   7.418  22.960   9.464
 1443POPC   PO421036   7.377  22.958   9.164
 1443POPC   GL121037   7.374  22.902   8.864
 1443POPC   GL221038   7.282  23.056   8.864
 1443POPC   C1A21039   7.449  22.978   8.564
 1443POPC   D2A21040   7.456  22.902   8.264
 1443POPC   C3A21041   7.387  22.892   7.964
 1443POPC   C4A21042   7.403  22.973   7.664
 1443POPC   C1B21043   7.198  23.041   8.564
 1443POPC   C2B21044   7.219  23.103   8.264
 1443POPC   C3B21045   7.196  23.116   7.964
 1443POPC   C4B21046   7.223  23.117   7.664
 1444POPC   NC321047  39.980  29.163   9.464
 1444POPC   PO421048  40.021  29.173   9.164
 1444POPC   GL121049  39.968  29.121   8.864
 1444POPC   GL221050  40.112  29.213   8.864
 1444POPC   C1A21051  39.970  29.124   8.564
 1444POPC   D2A21052  40.055  29.178   8.264
 1444POPC   C3A21053  39.971  29.175   7.964
 1444POPC   C4A21054  40.047  29.148   7.664
 1444POPC   C1B21055  40.177  29.375   8.564
 1444POPC   C2B21056  40.182  29.376   8.264
 1444POPC   C3B21057  40.193  29.346   7.964
 1444POPC   C4B21058  40.195  29.384   7.664
 1445POPC   NC321059   3.521   0.440   9.464
 1445POPC   PO421060   3.588   0.401   9.164
 1445POPC   GL121061   3.544   0.476   8.864
 1445POPC   GL221062   3.476   0.285   8.864
 1445POPC   C1A21063   3.554   0.468   8.564
 1445POPC   D2A21064   3.514   0.408   8.264
 1445POPC   C3A21065   3.577   0.430   7.964
 1445POPC   C4A21066   3.538   0.486   7.664
 1445POPC   C1B21067   3.368   0.278   8.564
 1445POPC   C2B21068   3.455   0.235   8.264
 1445POPC   C3B21069   3.364   0.243   7.964
 1445POPC   C4B21070   3.447   0.226   7.664
 1446POPC   NC321071   9.752   3.538   9.464
 1446POPC   PO421072   9.736   3.578   9.164
 1446POPC   GL121073   9.744   3.540   8.864
 1446POPC   GL221074   9.860   3.569   8.864
 1446POPC   C1A21075   9.741   3.555   8.564
 1446POPC   D2A21076   9.776   3.492   8.264
 1446POPC   C3A21077   9.794   3.535   7.964
 1446POPC   C4A21078   9.715   3.512   7.664
 1446POPC   C1B21079  10.015   3.591   8.564
 1446POPC   C2B21080  10.007   3.520   8.264
 1446POPC   C3B21081   9.967   3.596   7.964
 1446POPC   C4B21082   9.949   3.513   7.664
 1447POPC   NC321083  20.629  35.337   9.464
 1447POPC   PO421084  20.619  35.324   9.164
 1447POPC   GL121085  20.610  35.307   8.864
 1447POPC   GL221086  20.521  35.496   8.864
 1447POPC   C1A21087  20.571  35.364   8.564
 1447POPC   D2A21088  20.587  35.380   8.264
 1447POPC   C3A21089  20.562  35.311   7.964
 1447POPC   C4A21090  20.648  35.340   7.664
 1447POPC   C1B21091  20.487  35.547   8.564
 1447POPC   C2B21092  20.494  35.563   8.264
 1447POPC   C3B21093  20.430  35.602   7.964
 1447POPC   C4B21094  20.475  35.530   7.664
 1448POPC   NC321095  44.703  37.690   9.464
 1448POPC   PO421096  44.638  37.635   9.164
 1448POPC   GL121097  44.620  37.686   8.864
 1448POPC   GL221098  44.771  37.817   8.864
 1448POPC   C1A21099  44.643  37.673   8.564
 1448POPC   D2A21100  44.694  37.671   8.264
 1448POPC   C3A21101  44.712  37.668   7.964
 1448POPC   C4A21102  44.627  37.651   7.664
 1448POPC   C1B21103  44.786  37.871   8.564
 1448POPC   C2B21104  44.790  37.882   8.264
 1448POPC   C3B21105  44.761  37.927   7.964
 1448POPC   C4B21106  44.768  37.915   7.664
 1449POPC   NC321107  36.944  20.636   9.464
 1449POPC   PO421108  36.893  20.636   9.164
 1449POPC   GL121109  36.909  20.627   8.864
 1449POPC   GL221110  36.804  20.695   8.864
 1449POPC   C1A21111  36.871  20.582   8.564
 1449POPC   D2A21112  36.868  20.581   8.264
 1449POPC   C3A21113  36.896  20.573   7.964
 1449POPC   C4A21114  36.879  20.599   7.664
 1449POPC   C1B21115  36.791  20.845   8.564
 1449POPC   C2B21116  36.737  20.847   8.264
 1449POPC   C3B21117  36.797  20.806   7.964
 1449POPC   C4B21118  36.751  20.804   7.664
 1450POPC   NC321119  15.917  38.439   9.464
 1450POPC   PO421120  15.989  38.481   9.164
 1450POPC   GL121121  15.915  38.497   8.864
 1450POPC   GL221122  15.931  38.600   8.864
 1450POPC   C1A21123  16.003  38.439   8.564
 1450POPC   D2A21124  15.971  38.465   8.264
 1450POPC   C3A21125  16.004  38.415   7.964
 1450POPC   C4A21126  15.913  38.408   7.664
 1450POPC   C1B21127  15.966  38.671   8.564
 1450POPC   C2B21128  15.976  38.697   8.264
 1450POPC   C3B21129  15.902  38.709   7.964
 1450POPC   C4B21130  15.957  38.675   7.664
 1451POPC   NC321131   6.611  23.704   9.464
 1451POPC   PO421132   6.635  23.725   9.164
 1451POPC   GL121133   6.630  23.721   8.864
 1451POPC   GL221134   6.579  23.592   8.864
 1451POPC   C1A21135   6.650  23.678   8.564
 1451POPC   D2A21136   6.645  23.668   8.264
 1451POPC   C3A21137   6.681  23.738   7.964
 1451POPC   C4A21138   6.680  23.724   7.664
 1451POPC   C1B21139   6.637  23.486   8.564
 1451POPC   C2B21140   6.554  23.420   8.264
 1451POPC   C3B21141   6.593  23.426   7.964
 1451POPC   C4B21142   6.608  23.477   7.664
 1452POPC   NC321143  40.050  17.492   9.464
 1452POPC   PO421144  40.026  17.541   9.164
 1452POPC   GL121145  40.035  17.489   8.864
 1452POPC   GL221146  40.077  17.626   8.864
 1452POPC   C1A21147  40.038  17.473   8.564
 1452POPC   D2A21148  40.034  17.495   8.264
 1452POPC   C3A21149  39.985  17.534   7.964
 1452POPC   C4A21150  40.009  17.548   7.664
 1452POPC   C1B21151  40.147  17.663   8.564
 1452POPC   C2B21152  40.192  17.638   8.264
 1452POPC   C3B21153  40.147  17.710   7.964
 1452POPC   C4B21154  40.230  17.702   7.664
 1453POPC   NC321155  37.648  39.202   9.464
 1453POPC   PO421156  37.640  39.210   9.164
 1453POPC   GL121157  37.707  39.258   8.864
 1453POPC   GL221158  37.635  39.155   8.864
 1453POPC   C1A21159  37.727  39.244   8.564
 1453POPC   D2A21160  37.661  39.273   8.264
 1453POPC   C3A21161  37.668  39.225   7.964
 1453POPC   C4A21162  37.664  39.213   7.664
 1453POPC   C1B21163  37.494  39.030   8.564
 1453POPC   C2B21164  37.510  39.108   8.264
 1453POPC   C3B21165  37.496  39.088   7.964
 1453POPC   C4B21166  37.496  39.083   7.664
 1454POPC   NC321167  40.805   1.988   9.464
 1454POPC   PO421168  40.797   2.014   9.164
 1454POPC   GL121169  40.778   1.967   8.864
 1454POPC   GL221170  40.794   2.068   8.864
 1454POPC   C1A21171  40.788   1.952   8.564
 1454POPC   D2A21172  40.756   1.950   8.264
 1454POPC   C3A21173  40.809   1.983   7.964
 1454POPC   C4A21174  40.739   1.964   7.664
 1454POPC   C1B21175  40.785   2.231   8.564
 1454POPC   C2B21176  40.747   2.213   8.264
 1454POPC   C3B21177  40.783   2.222   7.964
 1454POPC   C4B21178  40.768   2.203   7.664
 1455POPC   NC321179  28.345   7.409   9.464
 1455POPC   PO421180  28.386   7.372   9.164
 1455POPC   GL121181  28.325   7.396   8.864
 1455POPC   GL221182  28.468   7.357   8.864
 1455POPC   C1A21183  28.391   7.453   8.564
 1455POPC   D2A21184  28.385   7.442   8.264
 1455POPC   C3A21185  28.405   7.433   7.964
 1455POPC   C4A21186  28.414   7.401   7.664
 1455POPC   C1B21187  28.641   7.399   8.564
 1455POPC   C2B21188  28.584   7.362   8.264
 1455POPC   C3B21189  28.633   7.410   7.964
 1455POPC   C4B21190  28.571   7.338   7.664
 1456POPC   NC321191  12.822   4.319   9.464
 1456POPC   PO421192  12.812   4.361   9.164
 1456POPC   GL121193  12.810   4.296   8.864
 1456POPC   GL221194  12.962   4.225   8.864
 1456POPC   C1A21195  12.895   4.360   8.564
 1456POPC   D2A21196  12.855   4.294   8.264
 1456POPC   C3A21197  12.880   4.333   7.964
 1456POPC   C4A21198  12.842   4.342   7.664
 1456POPC   C1B21199  13.021   4.177   8.564
 1456POPC   C2B21200  13.018   4.214   8.264
 1456POPC   C3B21201  13.097   4.154   7.964
 1456POPC   C4B21202  13.076   4.194   7.664
 1457POPC   NC321203   6.682  28.399   9.464
 1457POPC   PO421204   6.632  28.391   9.164
 1457POPC   GL121205   6.683  28.356   8.864
 1457POPC   GL221206   6.723  28.271   8.864
 1457POPC   C1A21207   6.616  28.348   8.564
 1457POPC   D2A21208   6.681  28.329   8.264
 1457POPC   C3A21209   6.677  28.351   7.964
 1457POPC   C4A21210   6.688  28.387   7.664
 1457POPC   C1B21211   6.779  28.213   8.564
 1457POPC   C2B21212   6.780  28.211   8.264
 1457POPC   C3B21213   6.831  28.148   7.964
 1457POPC   C4B21214   6.777  28.158   7.664
 1458POPC   NC321215  36.163   1.991   9.464
 1458POPC   PO421216  36.156   1.949   9.164
 1458POPC   GL121217  36.156   1.944   8.864
 1458POPC   GL221218  36.059   2.061   8.864
 1458POPC   C1A21219  36.108   2.028   8.564
 1458POPC   D2A21220  36.098   1.973   8.264
 1458POPC   C3A21221  36.144   1.970   7.964
 1458POPC   C4A21222  36.175   2.004   7.664
 1458POPC   C1B21223  35.915   2.164   8.564
 1458POPC   C2B21224  35.930   2.160   8.264
 1458POPC   C3B21225  35.929   2.130   7.964
 1458POPC   C4B21226  35.944   2.148   7.664
 1459POPC   NC321227   8.950  26.829   9.464
 1459POPC   PO421228   9.005  26.847   9.164
 1459POPC   GL121229   8.958  26.857   8.864
 1459POPC   GL221230   8.890  26.844   8.864
 1459POPC   C1A21231   8.957  26.810   8.564
 1459POPC   D2A21232   9.005  26.818   8.264
 1459POPC   C3A21233   8.994  26.806   7.964
 1459POPC   C4A21234   9.019  26.800   7.664
 1459POPC   C1B21235   8.772  26.979   8.564
 1459POPC   C2B21236   8.785  26.912   8.264
 1459POPC   C3B21237   8.752  26.962   7.964
 1459POPC   C4B21238   8.718  26.909   7.664
 1460POPC   NC321239  41.564  36.134   9.464
 1460POPC   PO421240  41.607  36.115   9.164
 1460POPC   GL121241  41.580  36.090   8.864
 1460POPC   GL221242  41.476  36.103   8.864
 1460POPC   C1A21243  41.581  36.130   8.564
 1460POPC   D2A21244  41.608  36.162   8.264
 1460POPC   C3A21245  41.571  36.090   7.964
 1460POPC   C4A21246  41.524  36.176   7.664
 1460POPC   C1B21247  41.293  36.138   8.564
 1460POPC   C2B21248  41.306  36.077   8.264
 1460POPC   C3B21249  41.272  36.145   7.964
 1460POPC   C4B21250  41.266  36.075   7.664
 1461POPC   NC321251  39.217  12.901   9.464
 1461POPC   PO421252  39.187  12.813   9.164
 1461POPC   GL121253  39.215  12.900   8.864
 1461POPC   GL221254  39.220  12.936   8.864
 1461POPC   C1A21255  39.266  12.898   8.564
 1461POPC   D2A21256  39.249  12.865   8.264
 1461POPC   C3A21257  39.243  12.826   7.964
 1461POPC   C4A21258  39.202  12.877   7.664
 1461POPC   C1B21259  39.268  13.085   8.564
 1461POPC   C2B21260  39.228  13.127   8.264
 1461POPC   C3B21261  39.278  13.087   7.964
 1461POPC   C4B21262  39.199  13.117   7.664
 1462POPC   NC321263   8.958  29.171   9.464
 1462POPC   PO421264   8.931  29.119   9.164
 1462POPC   GL121265   8.994  29.100   8.864
 1462POPC   GL221266   8.916  29.059   8.864
 1462POPC   C1A21267   8.984  29.118   8.564
 1462POPC   D2A21268   8.923  29.136   8.264
 1462POPC   C3A21269   8.993  29.116   7.964
 1462POPC   C4A21270   8.983  29.163   7.664
 1462POPC   C1B21271   8.755  29.019   8.564
 1462POPC   C2B21272   8.799  28.975   8.264
 1462POPC   C3B21273   8.799  28.990   7.964
 1462POPC   C4B21274   8.782  28.960   7.664
 1463POPC   NC321275  36.949  43.893   9.464
 1463POPC   PO421276  36.858  43.858   9.164
 1463POPC   GL121277  36.889  43.924   8.864
 1463POPC   GL221278  36.957  43.950   8.864
 1463POPC   C1A21279  36.945  43.849   8.564
 1463POPC   D2A21280  36.888  43.852   8.264
 1463POPC   C3A21281  36.940  43.900   7.964
 1463POPC   C4A21282  36.904  43.925   7.664
 1463POPC   C1B21283  37.085  44.052   8.564
 1463POPC   C2B21284  37.013  44.055   8.264
 1463POPC   C3B21285  37.058  44.143   7.964
 1463POPC   C4B21286  37.016  44.131   7.664
 1464POPC   NC321287  23.748  39.996   9.464
 1464POPC   PO421288  23.694  39.998   9.164
 1464POPC   GL121289  23.669  40.050   8.864
 1464POPC   GL221290  23.834  40.017   8.864
 1464POPC   C1A21291  23.714  39.970   8.564
 1464POPC   D2A21292  23.754  40.001   8.264
 1464POPC   C3A21293  23.668  39.964   7.964
 1464POPC   C4A21294  23.755  39.989   7.664
 1464POPC   C1B21295  23.980  39.925   8.564
 1464POPC   C2B21296  23.936  39.919   8.264
 1464POPC   C3B21297  23.959  39.937   7.964
 1464POPC   C4B21298  23.925  39.981   7.664
 1465POPC   NC321299  22.973  14.395   9.464
 1465POPC   PO421300  22.921  14.446   9.164
 1465POPC   GL121301  22.930  14.398   8.864
 1465POPC   GL221302  22.794  14.460   8.864
 1465POPC   C1A21303  22.949  14.413   8.564
 1465POPC   D2A21304  22.982  14.408   8.264
 1465POPC   C3A21305  22.913  14.439   7.964
 1465POPC   C4A21306  22.940  14.434   7.664
 1465POPC   C1B21307  22.714  14.442   8.564
 1465POPC   C2B21308  22.692  14.465   8.264
 1465POPC   C3B21309  22.703  14.456   7.964
 1465POPC   C4B21310  22.672  14.476   7.664
 1466POPC   NC321311  10.497  39.189   9.464
 1466POPC   PO421312  10.480  39.191   9.164
 1466POPC   GL121313  10.529  39.247   8.864
 1466POPC   GL221314  10.620  39.238   8.864
 1466POPC   C1A21315  10.484  39.223   8.564
 1466POPC   D2A21316  10.545  39.251   8.264
 1466POPC   C3A21317  10.489  39.196   7.964
 1466POPC   C4A21318  10.544  39.271   7.664
 1466POPC   C1B21319  10.801  39.321   8.564
 1466POPC   C2B21320  10.805  39.305   8.264
 1466POPC   C3B21321  10.727  39.319   7.964
 1466POPC   C4B21322  10.736  39.310   7.664
 1467POPC   NC321323   4.275  26.085   9.464
 1467POPC   PO421324   4.316  26.047   9.164
 1467POPC   GL121325   4.313  26.062   8.864
 1467POPC   GL221326   4.430  26.005   8.864
 1467POPC   C1A21327   4.325  26.058   8.564
 1467POPC   D2A21328   4.295  26.007   8.264
 1467POPC   C3A21329   4.292  26.021   7.964
 1467POPC   C4A21330   4.323  26.069   7.664
 1467POPC   C1B21331   4.525  25.925   8.564
 1467POPC   C2B21332   4.534  25.898   8.264
 1467POPC   C3B21333   4.512  25.898   7.964
 1467POPC   C4B21334   4.517  25.895   7.664
 1468POPC   NC321335  17.471  12.886   9.464
 1468POPC   PO421336  17.546  12.817   9.164
 1468POPC   GL121337  17.505  12.814   8.864
 1468POPC   GL221338  17.660  12.865   8.864
 1468POPC   C1A21339  17.479  12.812   8.564
 1468POPC   D2A21340  17.543  12.807   8.264
 1468POPC   C3A21341  17.511  12.837   7.964
 1468POPC   C4A21342  17.459  12.892   7.664
 1468POPC   C1B21343  17.773  12.799   8.564
 1468POPC   C2B21344  17.754  12.745   8.264
 1468POPC   C3B21345  17.774  12.806   7.964
 1468POPC   C4B21346  17.705  12.808   7.664
 1469POPC   NC321347  44.708  12.092   9.464
 1469POPC   PO421348  44.646  12.043   9.164
 1469POPC   GL121349  44.634  12.099   8.864
 1469POPC   GL221350  44.682  11.963   8.864
 1469POPC   C1A21351  44.638  12.110   8.564
 1469POPC   D2A21352  44.633  12.077   8.264
 1469POPC   C3A21353  44.658  12.049   7.964
 1469POPC   C4A21354  44.670  12.107   7.664
 1469POPC   C1B21355  44.754  11.807   8.564
 1469POPC   C2B21356  44.696  11.873   8.264
 1469POPC   C3B21357  44.721  11.797   7.964
 1469POPC   C4B21358  44.746  11.880   7.664
 1470POPC   NC321359  15.196  28.332   9.464
 1470POPC   PO421360  15.177  28.381   9.164
 1470POPC   GL121361  15.160  28.416   8.864
 1470POPC   GL221362  15.206  28.207   8.864
 1470POPC   C1A21363  15.183  28.364   8.564
 1470POPC   D2A21364  15.188  28.400   8.264
 1470POPC   C3A21365  15.141  28.324   7.964
 1470POPC   C4A21366  15.144  28.378   7.664
 1470POPC   C1B21367  15.228  28.118   8.564
 1470POPC   C2B21368  15.215  28.153   8.264
 1470POPC   C3B21369  15.148  28.167   7.964
 1470POPC   C4B21370  15.173  28.126   7.664
 1471POPC   NC321371  36.872  12.081   9.464
 1471POPC   PO421372  36.863  12.062   9.164
 1471POPC   GL121373  36.932  12.094   8.864
 1471POPC   GL221374  36.813  11.985   8.864
 1471POPC   C1A21375  36.883  12.091   8.564
 1471POPC   D2A21376  36.938  12.048   8.264
 1471POPC   C3A21377  36.913  12.073   7.964
 1471POPC   C4A21378  36.896  12.096   7.664
 1471POPC   C1B21379  36.847  11.869   8.564
 1471POPC   C2B21380  36.851  11.831   8.264
 1471POPC   C3B21381  36.776  11.818   7.964
 1471POPC   C4B21382  36.802  11.891   7.664
 1472POPC   NC321383   6.684  26.768   9.464
 1472POPC   PO421384   6.671  26.773   9.164
 1472POPC   GL121385   6.602  26.829   8.864
 1472POPC   GL221386   6.592  26.956   8.864
 1472POPC   C1A21387   6.620  26.839   8.564
 1472POPC   D2A21388   6.649  26.848   8.264
 1472POPC   C3A21389   6.665  26.788   7.964
 1472POPC   C4A21390   6.598  26.780   7.664
 1472POPC   C1B21391   6.583  27.073   8.564
 1472POPC   C2B21392   6.599  27.016   8.264
 1472POPC   C3B21393   6.669  27.088   7.964
 1472POPC   C4B21394   6.609  27.098   7.664
 1473POPC   NC321395   4.348  21.405   9.464
 1473POPC   PO421396   4.303  21.338   9.164
 1473POPC   GL121397   4.349  21.378   8.864
 1473POPC   GL221398   4.242  21.219   8.864
 1473POPC   C1A21399   4.313  21.406   8.564
 1473POPC   D2A21400   4.290  21.411   8.264
 1473POPC   C3A21401   4.287  21.369   7.964
 1473POPC   C4A21402   4.282  21.369   7.664
 1473POPC   C1B21403   4.259  21.185   8.564
 1473POPC   C2B21404   4.249  21.147   8.264
 1473POPC   C3B21405   4.257  21.151   7.964
 1473POPC   C4B21406   4.247  21.126   7.664
 1474POPC   NC321407  26.837  22.133   9.464
 1474POPC   PO421408  26.788  22.156   9.164
 1474POPC   GL121409  26.836  22.184   8.864
 1474POPC   GL221410  26.739  22.285   8.864
 1474POPC   C1A21411  26.770  22.133   8.564
 1474POPC   D2A21412  26.824  22.161   8.264
 1474POPC   C3A21413  26.773  22.117   7.964
 1474POPC   C4A21414  26.829  22.151   7.664
 1474POPC   C1B21415  26.685  22.393   8.564
 1474POPC   C2B21416  26.733  22.336   8.264
 1474POPC   C3B21417  26.727  22.385   7.964
 1474POPC   C4B21418  26.696  22.392   7.664
 1475POPC   NC321419  12.091  12.888   9.464
 1475POPC   PO421420  12.034  12.817   9.164
 1475POPC   GL121421  12.049  12.873   8.864
 1475POPC   GL221422  12.120  12.786   8.864
 1475POPC   C1A21423  12.069  12.871   8.564
 1475POPC   D2A21424  12.096  12.807   8.264
 1475POPC   C3A21425  12.052  12.896   7.964
 1475POPC   C4A21426  12.117  12.847   7.664
 1475POPC   C1B21427  12.230  12.684   8.564
 1475POPC   C2B21428  12.265  12.625   8.264
 1475POPC   C3B21429  12.211  12.647   7.964
 1475POPC   C4B21430  12.283  12.626   7.664
 1476POPC   NC321431  14.412   8.169   9.464
 1476POPC   PO421432  14.414   8.225   9.164
 1476POPC   GL121433  14.364   8.188   8.864
 1476POPC   GL221434  14.371   8.268   8.864
 1476POPC   C1A21435  14.385   8.212   8.564
 1476POPC   D2A21436  14.383   8.206   8.264
 1476POPC   C3A21437  14.425   8.214   7.964
 1476POPC   C4A21438  14.444   8.148   7.664
 1476POPC   C1B21439  14.233   8.374   8.564
 1476POPC   C2B21440  14.271   8.366   8.264
 1476POPC   C3B21441  14.213   8.398   7.964
 1476POPC   C4B21442  14.199   8.437   7.664
 1477POPC   NC321443  36.153  25.997   9.464
 1477POPC   PO421444  36.161  25.995   9.164
 1477POPC   GL121445  36.129  26.001   8.864
 1477POPC   GL221446  36.268  26.066   8.864
 1477POPC   C1A21447  36.133  26.012   8.564
 1477POPC   D2A21448  36.154  26.049   8.264
 1477POPC   C3A21449  36.109  26.041   7.964
 1477POPC   C4A21450  36.170  26.051   7.664
 1477POPC   C1B21451  36.406  26.020   8.564
 1477POPC   C2B21452  36.368  26.035   8.264
 1477POPC   C3B21453  36.360  26.026   7.964
 1477POPC   C4B21454  36.406  26.041   7.664
 1478POPC   NC321455  36.869   8.159   9.464
 1478POPC   PO421456  36.888   8.221   9.164
 1478POPC   GL121457  36.927   8.225   8.864
 1478POPC   GL221458  36.826   8.174   8.864
 1478POPC   C1A21459  36.942   8.195   8.564
 1478POPC   D2A21460  36.880   8.244   8.264
 1478POPC   C3A21461  36.916   8.185   7.964
 1478POPC   C4A21462  36.937   8.194   7.664
 1478POPC   C1B21463  36.706   8.040   8.564
 1478POPC   C2B21464  36.659   8.124   8.264
 1478POPC   C3B21465  36.669   8.071   7.964
 1478POPC   C4B21466  36.704   8.115   7.664
 1479POPC   NC321467  25.310  37.660   9.464
 1479POPC   PO421468  25.301  37.718   9.164
 1479POPC   GL121469  25.224  37.659   8.864
 1479POPC   GL221470  25.183  37.781   8.864
 1479POPC   C1A21471  25.287  37.702   8.564
 1479POPC   D2A21472  25.283  37.638   8.264
 1479POPC   C3A21473  25.287  37.648   7.964
 1479POPC   C4A21474  25.273  37.719   7.664
 1479POPC   C1B21475  25.078  37.830   8.564
 1479POPC   C2B21476  25.042  37.807   8.264
 1479POPC   C3B21477  25.062  37.862   7.964
 1479POPC   C4B21478  25.101  37.890   7.664
 1480POPC   NC321479  25.287  38.460   9.464
 1480POPC   PO421480  25.294  38.423   9.164
 1480POPC   GL121481  25.252  38.405   8.864
 1480POPC   GL221482  25.319  38.350   8.864
 1480POPC   C1A21483  25.307  38.412   8.564
 1480POPC   D2A21484  25.271  38.442   8.264
 1480POPC   C3A21485  25.253  38.465   7.964
 1480POPC   C4A21486  25.284  38.408   7.664
 1480POPC   C1B21487  25.328  38.198   8.564
 1480POPC   C2B21488  25.385  38.248   8.264
 1480POPC   C3B21489  25.350  38.192   7.964
 1480POPC   C4B21490  25.362  38.188   7.664
 1481POPC   NC321491  23.731  36.914   9.464
 1481POPC   PO421492  23.711  36.878   9.164
 1481POPC   GL121493  23.668  36.915   8.864
 1481POPC   GL221494  23.622  36.897   8.864
 1481POPC   C1A21495  23.666  36.869   8.564
 1481POPC   D2A21496  23.675  36.906   8.264
 1481POPC   C3A21497  23.730  36.903   7.964
 1481POPC   C4A21498  23.753  36.882   7.664
 1481POPC   C1B21499  23.461  36.939   8.564
 1481POPC   C2B21500  23.461  36.941   8.264
 1481POPC   C3B21501  23.513  36.879   7.964
 1481POPC   C4B21502  23.481  36.877   7.664
 1482POPC   NC321503   8.184  12.104   9.464
 1482POPC   PO421504   8.167  12.121   9.164
 1482POPC   GL121505   8.232  12.124   8.864
 1482POPC   GL221506   8.237  12.174   8.864
 1482POPC   C1A21507   8.179  12.099   8.564
 1482POPC   D2A21508   8.172  12.118   8.264
 1482POPC   C3A21509   8.196  12.123   7.964
 1482POPC   C4A21510   8.150  12.076   7.664
 1482POPC   C1B21511   8.157  12.284   8.564
 1482POPC   C2B21512   8.197  12.334   8.264
 1482POPC   C3B21513   8.178  12.331   7.964
 1482POPC   C4B21514   8.233  12.283   7.664
 1483POPC   NC321515   5.142   2.758   9.464
 1483POPC   PO421516   5.086   2.766   9.164
 1483POPC   GL121517   5.116   2.717   8.864
 1483POPC   GL221518   5.154   2.863   8.864
 1483POPC   C1A21519   5.122   2.785   8.564
 1483POPC   D2A21520   5.136   2.803   8.264
 1483POPC   C3A21521   5.110   2.769   7.964
 1483POPC   C4A21522   5.096   2.806   7.664
 1483POPC   C1B21523   5.198   2.966   8.564
 1483POPC   C2B21524   5.212   3.051   8.264
 1483POPC   C3B21525   5.168   2.968   7.964
 1483POPC   C4B21526   5.165   3.038   7.664
 1484POPC   NC321527  32.256  39.239   9.464
 1484POPC   PO421528  32.290  39.211   9.164
 1484POPC   GL121529  32.282  39.266   8.864
 1484POPC   GL221530  32.321  39.114   8.864
 1484POPC   C1A21531  32.240  39.182   8.564
 1484POPC   D2A21532  32.216  39.233   8.264
 1484POPC   C3A21533  32.287  39.279   7.964
 1484POPC   C4A21534  32.233  39.196   7.664
 1484POPC   C1B21535  32.318  39.049   8.564
 1484POPC   C2B21536  32.358  39.045   8.264
 1484POPC   C3B21537  32.325  38.998   7.964
 1484POPC   C4B21538  32.374  39.038   7.664
 1485POPC   NC321539  29.877  40.022   9.464
 1485POPC   PO421540  29.918  39.983   9.164
 1485POPC   GL121541  29.878  39.989   8.864
 1485POPC   GL221542  29.851  39.948   8.864
 1485POPC   C1A21543  29.927  40.043   8.564
 1485POPC   D2A21544  29.961  40.055   8.264
 1485POPC   C3A21545  29.912  40.013   7.964
 1485POPC   C4A21546  29.902  39.967   7.664
 1485POPC   C1B21547  29.816  39.844   8.564
 1485POPC   C2B21548  29.763  39.829   8.264
 1485POPC   C3B21549  29.799  39.838   7.964
 1485POPC   C4B21550  29.795  39.791   7.664
 1486POPC   NC321551   3.498  34.610   9.464
 1486POPC   PO421552   3.525  34.553   9.164
 1486POPC   GL121553   3.504  34.550   8.864
 1486POPC   GL221554   3.425  34.564   8.864
 1486POPC   C1A21555   3.573  34.544   8.564
 1486POPC   D2A21556   3.511  34.559   8.264
 1486POPC   C3A21557   3.531  34.590   7.964
 1486POPC   C4A21558   3.576  34.586   7.664
 1486POPC   C1B21559   3.251  34.681   8.564
 1486POPC   C2B21560   3.295  34.645   8.264
 1486POPC   C3B21561   3.305  34.686   7.964
 1486POPC   C4B21562   3.344  34.679   7.664
 1487POPC   NC321563   8.164  29.131   9.464
 1487POPC   PO421564   8.210  29.144   9.164
 1487POPC   GL121565   8.187  29.104   8.864
 1487POPC   GL221566   8.237  29.073   8.864
 1487POPC   C1A21567   8.195  29.132   8.564
 1487POPC   D2A21568   8.239  29.164   8.264
 1487POPC   C3A21569   8.224  29.164   7.964
 1487POPC   C4A21570   8.221  29.135   7.664
 1487POPC   C1B21571   8.394  28.987   8.564
 1487POPC   C2B21572   8.379  28.967   8.264
 1487POPC   C3B21573   8.375  29.001   7.964
 1487POPC   C4B21574   8.376  28.968   7.664
 1488POPC   NC321575  28.396   4.306   9.464
 1488POPC   PO421576  28.405   4.307   9.164
 1488POPC   GL121577  28.389   4.307   8.864
 1488POPC   GL221578  28.313   4.402   8.864
 1488POPC   C1A21579  28.357   4.311   8.564
 1488POPC   D2A21580  28.376   4.359   8.264
 1488POPC   C3A21581  28.398   4.343   7.964
 1488POPC   C4A21582  28.387   4.351   7.664
 1488POPC   C1B21583  28.347   4.566   8.564
 1488POPC   C2B21584  28.395   4.527   8.264
 1488POPC   C3B21585  28.330   4.599   7.964
 1488POPC   C4B21586  28.320   4.581   7.664
 1489POPC   NC321587  40.803   4.280   9.464
 1489POPC   PO421588  40.774   4.349   9.164
 1489POPC   GL121589  40.767   4.287   8.864
 1489POPC   GL221590  40.719   4.230   8.864
 1489POPC   C1A21591  40.761   4.288   8.564
 1489POPC   D2A21592  40.793   4.323   8.264
 1489POPC   C3A21593  40.769   4.280   7.964
 1489POPC   C4A21594  40.825   4.307   7.664
 1489POPC   C1B21595  40.601   4.133   8.564
 1489POPC   C2B21596  40.669   4.147   8.264
 1489POPC   C3B21597  40.602   4.148   7.964
 1489POPC   C4B21598  40.640   4.119   7.664
 1490POPC   NC321599  29.928  34.551   9.464
 1490POPC   PO421600  29.967  34.625   9.164
 1490POPC   GL121601  29.930  34.605   8.864
 1490POPC   GL221602  29.838  34.585   8.864
 1490POPC   C1A21603  29.947  34.591   8.564
 1490POPC   D2A21604  29.880  34.527   8.264
 1490POPC   C3A21605  29.904  34.580   7.964
 1490POPC   C4A21606  29.879  34.569   7.664
 1490POPC   C1B21607  29.635  34.578   8.564
 1490POPC   C2B21608  29.721  34.641   8.264
 1490POPC   C3B21609  29.636  34.637   7.964
 1490POPC   C4B21610  29.674  34.638   7.664
 1491POPC   NC321611   4.288  18.257   9.464
 1491POPC   PO421612   4.355  18.318   9.164
 1491POPC   GL121613   4.338  18.268   8.864
 1491POPC   GL221614   4.278  18.368   8.864
 1491POPC   C1A21615   4.294  18.297   8.564
 1491POPC   D2A21616   4.367  18.280   8.264
 1491POPC   C3A21617   4.314  18.323   7.964
 1491POPC   C4A21618   4.355  18.298   7.664
 1491POPC   C1B21619   4.180  18.491   8.564
 1491POPC   C2B21620   4.150  18.414   8.264
 1491POPC   C3B21621   4.122  18.427   7.964
 1491POPC   C4B21622   4.179  18.490   7.664
 1492POPC   NC321623  34.600  14.363   9.464
 1492POPC   PO421624  34.530  14.419   9.164
 1492POPC   GL121625  34.566  14.450   8.864
 1492POPC   GL221626  34.721  14.365   8.864
 1492POPC   C1A21627  34.527  14.391   8.564
 1492POPC   D2A21628  34.598  14.396   8.264
 1492POPC   C3A21629  34.612  14.399   7.964
 1492POPC   C4A21630  34.530  14.430   7.664
 1492POPC   C1B21631  34.818  14.320   8.564
 1492POPC   C2B21632  34.807  14.349   8.264
 1492POPC   C3B21633  34.843  14.360   7.964
 1492POPC   C4B21634  34.825  14.348   7.664
 1493POPC   NC321635  28.419  18.302   9.464
 1493POPC   PO421636  28.326  18.241   9.164
 1493POPC   GL121637  28.332  18.250   8.864
 1493POPC   GL221638  28.241  18.361   8.864
 1493POPC   C1A21639  28.371  18.261   8.564
 1493POPC   D2A21640  28.415  18.286   8.264
 1493POPC   C3A21641  28.323  18.288   7.964
 1493POPC   C4A21642  28.377  18.289   7.664
 1493POPC   C1B21643  28.117  18.411   8.564
 1493POPC   C2B21644  28.183  18.409   8.264
 1493POPC   C3B21645  28.096  18.409   7.964
 1493POPC   C4B21646  28.188  18.335   7.664
 1494POPC   NC321647  26.052  23.702   9.464
 1494POPC   PO421648  26.059  23.695   9.164
 1494POPC   GL121649  26.065  23.743   8.864
 1494POPC   GL221650  25.878  23.714   8.864
 1494POPC   C1A21651  26.002  23.687   8.564
 1494POPC   D2A21652  26.045  23.673   8.264
 1494POPC   C3A21653  26.080  23.690   7.964
 1494POPC   C4A21654  25.998  23.715   7.664
 1494POPC   C1B21655  25.778  23.783   8.564
 1494POPC   C2B21656  25.746  23.725   8.264
 1494POPC   C3B21657  25.789  23.761   7.964
 1494POPC   C4B21658  25.818  23.740   7.664
 1495POPC   NC321659   1.171  40.043   9.464
 1495POPC   PO421660   1.202  40.049   9.164
 1495POPC   GL121661   1.244  40.041   8.864
 1495POPC   GL221662   1.214  40.094   8.864
 1495POPC   C1A21663   1.230  39.998   8.564
 1495POPC   D2A21664   1.238  39.986   8.264
 1495POPC   C3A21665   1.237  39.964   7.964
 1495POPC   C4A21666   1.229  40.030   7.664
 1495POPC   C1B21667   1.315  40.279   8.564
 1495POPC   C2B21668   1.256  40.268   8.264
 1495POPC   C3B21669   1.272  40.222   7.964
 1495POPC   C4B21670   1.320  40.288   7.664
 1496POPC   NC321671  19.819  15.181   9.464
 1496POPC   PO421672  19.821  15.192   9.164
 1496POPC   GL121673  19.839  15.212   8.864
 1496POPC   GL221674  19.938  15.087   8.864
 1496POPC   C1A21675  19.812  15.154   8.564
 1496POPC   D2A21676  19.812  15.223   8.264
 1496POPC   C3A21677  19.871  15.174   7.964
 1496POPC   C4A21678  19.840  15.137   7.664
 1496POPC   C1B21679  20.078  15.041   8.564
 1496POPC   C2B21680  20.033  15.071   8.264
 1496POPC   C3B21681  20.011  15.062   7.964
 1496POPC   C4B21682  20.008  15.006   7.664
 1497POPC   NC321683  39.229  30.690   9.464
 1497POPC   PO421684  39.205  30.669   9.164
 1497POPC   GL121685  39.196  30.677   8.864
 1497POPC   GL221686  39.178  30.765   8.864
 1497POPC   C1A21687  39.248  30.668   8.564
 1497POPC   D2A21688  39.211  30.656   8.264
 1497POPC   C3A21689  39.236  30.741   7.964
 1497POPC   C4A21690  39.236  30.689   7.664
 1497POPC   C1B21691  39.122  30.931   8.564
 1497POPC   C2B21692  39.101  30.887   8.264
 1497POPC   C3B21693  39.175  30.890   7.964
 1497POPC   C4B21694  39.176  30.917   7.664
 1498POPC   NC321695   1.218  11.304   9.464
 1498POPC   PO421696   1.263  11.327   9.164
 1498POPC   GL121697   1.255  11.274   8.864
 1498POPC   GL221698   1.063  11.281   8.864
 1498POPC   C1A21699   1.236  11.313   8.564
 1498POPC   D2A21700   1.182  11.283   8.264
 1498POPC   C3A21701   1.178  11.326   7.964
 1498POPC   C4A21702   1.211  11.290   7.664
 1498POPC   C1B21703   1.030  11.229   8.564
 1498POPC   C2B21704   0.943  11.236   8.264
 1498POPC   C3B21705   1.030  11.231   7.964
 1498POPC   C4B21706   1.037  11.166   7.664
 1499POPC   NC321707  43.102   2.757   9.464
 1499POPC   PO421708  43.106   2.745   9.164
 1499POPC   GL121709  43.155   2.741   8.864
 1499POPC   GL221710  43.262   2.746   8.864
 1499POPC   C1A21711  43.099   2.758   8.564
 1499POPC   D2A21712  43.129   2.728   8.264
 1499POPC   C3A21713  43.072   2.772   7.964
 1499POPC   C4A21714  43.141   2.746   7.664
 1499POPC   C1B21715  43.359   2.753   8.564
 1499POPC   C2B21716  43.373   2.725   8.264
 1499POPC   C3B21717  43.397   2.722   7.964
 1499POPC   C4B21718  43.401   2.692   7.664
 1500POPC   NC321719  19.864  23.709   9.464
 1500POPC   PO421720  19.823  23.764   9.164
 1500POPC   GL121721  19.788  23.690   8.864
 1500POPC   GL221722  19.888  23.874   8.864
 1500POPC   C1A21723  19.820  23.691   8.564
 1500POPC   D2A21724  19.822  23.667   8.264
 1500POPC   C3A21725  19.868  23.688   7.964
 1500POPC   C4A21726  19.832  23.693   7.664
 1500POPC   C1B21727  19.868  23.911   8.564
 1500POPC   C2B21728  19.917  23.986   8.264
 1500POPC   C3B21729  19.899  23.934   7.964
 1500POPC   C4B21730  19.887  23.942   7.664
 1501POPC   NC321731  36.120  40.760   9.464
 1501POPC   PO421732  36.094  40.831   9.164
 1501POPC   GL121733  36.097  40.779   8.864
 1501POPC   GL221734  36.222  40.725   8.864
 1501POPC   C1A21735  36.129  40.785   8.564
 1501POPC   D2A21736  36.097  40.759   8.264
 1501POPC   C3A21737  36.145  40.800   7.964
 1501POPC   C4A21738  36.119  40.749   7.664
 1501POPC   C1B21739  36.376  40.709   8.564
 1501POPC   C2B21740  36.392  40.760   8.264
 1501POPC   C3B21741  36.338  40.740   7.964
 1501POPC   C4B21742  36.350  40.786   7.664
 1502POPC   NC321743   7.470  43.142   9.464
 1502POPC   PO421744   7.467  43.135   9.164
 1502POPC   GL121745   7.375  43.088   8.864
 1502POPC   GL221746   7.533  43.170   8.864
 1502POPC   C1A21747   7.421  43.143   8.564
 1502POPC   D2A21748   7.443  43.068   8.264
 1502POPC   C3A21749   7.454  43.137   7.964
 1502POPC   C4A21750   7.452  43.083   7.664
 1502POPC   C1B21751   7.552  43.297   8.564
 1502POPC   C2B21752   7.579  43.365   8.264
 1502POPC   C3B21753   7.596  43.294   7.964
 1502POPC   C4B21754   7.580  43.305   7.664
 1503POPC   NC321755  29.925   5.901   9.464
 1503POPC   PO421756  29.930   5.918   9.164
 1503POPC   GL121757  29.956   5.898   8.864
 1503POPC   GL221758  29.919   5.985   8.864
 1503POPC   C1A21759  29.924   5.871   8.564
 1503POPC   D2A21760  29.950   5.918   8.264
 1503POPC   C3A21761  29.934   5.900   7.964
 1503POPC   C4A21762  29.874   5.893   7.664
 1503POPC   C1B21763  29.946   6.136   8.564
 1503POPC   C2B21764  29.995   6.143   8.264
 1503POPC   C3B21765  29.979   6.110   7.964
 1503POPC   C4B21766  29.994   6.155   7.664
 1504POPC   NC321767   2.763  16.777   9.464
 1504POPC   PO421768   2.735  16.748   9.164
 1504POPC   GL121769   2.780  16.701   8.864
 1504POPC   GL221770   2.905  16.758   8.864
 1504POPC   C1A21771   2.770  16.694   8.564
 1504POPC   D2A21772   2.733  16.737   8.264
 1504POPC   C3A21773   2.812  16.769   7.964
 1504POPC   C4A21774   2.730  16.720   7.664
 1504POPC   C1B21775   2.978  16.753   8.564
 1504POPC   C2B21776   2.974  16.784   8.264
 1504POPC   C3B21777   3.039  16.761   7.964
 1504POPC   C4B21778   3.027  16.740   7.664
 1505POPC   NC321779  39.265  36.874   9.464
 1505POPC   PO421780  39.268  36.949   9.164
 1505POPC   GL121781  39.218  36.936   8.864
 1505POPC   GL221782  39.313  37.060   8.864
 1505POPC   C1A21783  39.240  36.910   8.564
 1505POPC   D2A21784  39.279  36.941   8.264
 1505POPC   C3A21785  39.189  36.864   7.964
 1505POPC   C4A21786  39.236  36.915   7.664
 1505POPC   C1B21787  39.375  37.068   8.564
 1505POPC   C2B21788  39.377  37.124   8.264
 1505POPC   C3B21789  39.320  37.084   7.964
 1505POPC   C4B21790  39.330  37.112   7.664
 1506POPC   NC321791  33.759  22.971   9.464
 1506POPC   PO421792  33.798  22.918   9.164
 1506POPC   GL121793  33.814  22.893   8.864
 1506POPC   GL221794  33.897  22.831   8.864
 1506POPC   C1A21795  33.799  22.942   8.564
 1506POPC   D2A21796  33.786  22.921   8.264
 1506POPC   C3A21797  33.837  22.954   7.964
 1506POPC   C4A21798  33.802  22.948   7.664
 1506POPC   C1B21799  33.931  22.734   8.564
 1506POPC   C2B21800  33.908  22.754   8.264
 1506POPC   C3B21801  33.901  22.714   7.964
 1506POPC   C4B21802  33.959  22.743   7.664
 1507POPC   NC321803  31.485  22.144   9.464
 1507POPC   PO421804  31.466  22.199   9.164
 1507POPC   GL121805  31.434  22.152   8.864
 1507POPC   GL221806  31.583  22.083   8.864
 1507POPC   C1A21807  31.449  22.172   8.564
 1507POPC   D2A21808  31.453  22.144   8.264
 1507POPC   C3A21809  31.441  22.200   7.964
 1507POPC   C4A21810  31.448  22.199   7.664
 1507POPC   C1B21811  31.758  22.121   8.564
 1507POPC   C2B21812  31.741  22.080   8.264
 1507POPC   C3B21813  31.739  22.141   7.964
 1507POPC   C4B21814  31.733  22.113   7.664
 1508POPC   NC321815  12.845  30.720   9.464
 1508POPC   PO421816  12.810  30.673   9.164
 1508POPC   GL121817  12.844  30.704   8.864
 1508POPC   GL221818  12.700  30.764   8.864
 1508POPC   C1A21819  12.846  30.655   8.564
 1508POPC   D2A21820  12.889  30.690   8.264
 1508POPC   C3A21821  12.804  30.704   7.964
 1508POPC   C4A21822  12.817  30.708   7.664
 1508POPC   C1B21823  12.571  30.772   8.564
 1508POPC   C2B21824  12.592  30.769   8.264
 1508POPC   C3B21825  12.631  30.755   7.964
 1508POPC   C4B21826  12.605  30.758   7.664
 1509POPC   NC321827   5.129  39.965   9.464
 1509POPC   PO421828   5.070  40.036   9.164
 1509POPC   GL121829   5.101  40.017   8.864
 1509POPC   GL221830   4.947  40.025   8.864
 1509POPC   C1A21831   5.092  39.992   8.564
 1509POPC   D2A21832   5.105  39.979   8.264
 1509POPC   C3A21833   5.139  39.988   7.964
 1509POPC   C4A21834   5.113  40.018   7.664
 1509POPC   C1B21835   4.835  39.984   8.564
 1509POPC   C2B21836   4.863  39.980   8.264
 1509POPC   C3B21837   4.868  40.015   7.964
 1509POPC   C4B21838   4.826  40.030   7.664
 1510POPC   NC321839  12.894   5.130   9.464
 1510POPC   PO421840  12.862   5.086   9.164
 1510POPC   GL121841  12.883   5.116   8.864
 1510POPC   GL221842  12.936   5.171   8.864
 1510POPC   C1A21843  12.889   5.048   8.564
 1510POPC   D2A21844  12.847   5.094   8.264
 1510POPC   C3A21845  12.811   5.056   7.964
 1510POPC   C4A21846  12.868   5.093   7.664
 1510POPC   C1B21847  12.976   5.310   8.564
 1510POPC   C2B21848  13.002   5.272   8.264
 1510POPC   C3B21849  13.026   5.248   7.964
 1510POPC   C4B21850  12.988   5.244   7.664
 1511POPC   NC321851   1.207  15.995   9.464
 1511POPC   PO421852   1.221  15.967   9.164
 1511POPC   GL121853   1.219  15.911   8.864
 1511POPC   GL221854   1.353  15.990   8.864
 1511POPC   C1A21855   1.234  15.927   8.564
 1511POPC   D2A21856   1.170  16.002   8.264
 1511POPC   C3A21857   1.180  15.977   7.964
 1511POPC   C4A21858   1.237  15.996   7.664
 1511POPC   C1B21859   1.428  16.047   8.564
 1511POPC   C2B21860   1.429  16.079   8.264
 1511POPC   C3B21861   1.457  16.041   7.964
 1511POPC   C4B21862   1.458  16.075   7.664
 1512POPC   NC321863   3.541  31.432   9.464
 1512POPC   PO421864   3.495  31.456   9.164
 1512POPC   GL121865   3.586  31.509   8.864
 1512POPC   GL221866   3.603  31.551   8.864
 1512POPC   C1A21867   3.509  31.520   8.564
 1512POPC   D2A21868   3.567  31.509   8.264
 1512POPC   C3A21869   3.523  31.466   7.964
 1512POPC   C4A21870   3.565  31.475   7.664
 1512POPC   C1B21871   3.655  31.721   8.564
 1512POPC   C2B21872   3.692  31.721   8.264
 1512POPC   C3B21873   3.656  31.652   7.964
 1512POPC   C4B21874   3.714  31.631   7.664
 1513POPC   NC321875  35.326  10.566   9.464
 1513POPC   PO421876  35.397  10.545   9.164
 1513POPC   GL121877  35.385  10.523   8.864
 1513POPC   GL221878  35.432  10.459   8.864
 1513POPC   C1A21879  35.330  10.541   8.564
 1513POPC   D2A21880  35.314  10.527   8.264
 1513POPC   C3A21881  35.345  10.564   7.964
 1513POPC   C4A21882  35.360  10.522   7.664
 1513POPC   C1B21883  35.635  10.488   8.564
 1513POPC   C2B21884  35.619  10.507   8.264
 1513POPC   C3B21885  35.553  10.512   7.964
 1513POPC   C4B21886  35.559  10.498   7.664
 1514POPC   NC321887  12.891  16.717   9.464
 1514POPC   PO421888  12.818  16.702   9.164
 1514POPC   GL121889  12.875  16.775   8.864
 1514POPC   GL221890  12.925  16.808   8.864
 1514POPC   C1A21891  12.847  16.756   8.564
 1514POPC   D2A21892  12.852  16.725   8.264
 1514POPC   C3A21893  12.884  16.760   7.964
 1514POPC   C4A21894  12.818  16.691   7.664
 1514POPC   C1B21895  13.106  16.880   8.564
 1514POPC   C2B21896  13.120  16.824   8.264
 1514POPC   C3B21897  13.041  16.830   7.964
 1514POPC   C4B21898  13.090  16.848   7.664
 1515POPC   NC321899   6.670  41.550   9.464
 1515POPC   PO421900   6.650  41.510   9.164
 1515POPC   GL121901   6.603  41.541   8.864
 1515POPC   GL221902   6.729  41.617   8.864
 1515POPC   C1A21903   6.665  41.564   8.564
 1515POPC   D2A21904   6.663  41.551   8.264
 1515POPC   C3A21905   6.606  41.600   7.964
 1515POPC   C4A21906   6.600  41.569   7.664
 1515POPC   C1B21907   6.857  41.736   8.564
 1515POPC   C2B21908   6.784  41.703   8.264
 1515POPC   C3B21909   6.804  41.752   7.964
 1515POPC   C4B21910   6.873  41.760   7.664
 1516POPC   NC321911  40.793  13.583   9.464
 1516POPC   PO421912  40.751  13.663   9.164
 1516POPC   GL121913  40.772  13.622   8.864
 1516POPC   GL221914  40.680  13.725   8.864
 1516POPC   C1A21915  40.786  13.579   8.564
 1516POPC   D2A21916  40.748  13.600   8.264
 1516POPC   C3A21917  40.780  13.637   7.964
 1516POPC   C4A21918  40.764  13.618   7.664
 1516POPC   C1B21919  40.552  13.708   8.564
 1516POPC   C2B21920  40.554  13.778   8.264
 1516POPC   C3B21921  40.575  13.709   7.964
 1516POPC   C4B21922  40.590  13.795   7.664
 1517POPC   NC321923  36.176   6.689   9.464
 1517POPC   PO421924  36.078   6.614   9.164
 1517POPC   GL121925  36.142   6.641   8.864
 1517POPC   GL221926  36.288   6.688   8.864
 1517POPC   C1A21927  36.131   6.657   8.564
 1517POPC   D2A21928  36.169   6.643   8.264
 1517POPC   C3A21929  36.153   6.666   7.964
 1517POPC   C4A21930  36.118   6.681   7.664
 1517POPC   C1B21931  36.376   6.689   8.564
 1517POPC   C2B21932  36.343   6.730   8.264
 1517POPC   C3B21933  36.420   6.644   7.964
 1517POPC   C4B21934  36.387   6.686   7.664
 1518POPC   NC321935   0.420  36.151   9.464
 1518POPC   PO421936   0.476  36.175   9.164
 1518POPC   GL121937   0.475  36.166   8.864
 1518POPC   GL221938   0.575  36.107   8.864
 1518POPC   C1A21939   0.487  36.094   8.564
 1518POPC   D2A21940   0.478  36.091   8.264
 1518POPC   C3A21941   0.446  36.112   7.964
 1518POPC   C4A21942   0.416  36.092   7.664
 1518POPC   C1B21943   0.718  36.154   8.564
 1518POPC   C2B21944   0.659  36.113   8.264
 1518POPC   C3B21945   0.711  36.124   7.964
 1518POPC   C4B21946   0.657  36.138   7.664
 1519POPC   NC321947  14.418  28.331   9.464
 1519POPC   PO421948  14.372  28.371   9.164
 1519POPC   GL121949  14.357  28.322   8.864
 1519POPC   GL221950  14.571  28.377   8.864
 1519POPC   C1A21951  14.418  28.396   8.564
 1519POPC   D2A21952  14.377  28.418   8.264
 1519POPC   C3A21953  14.393  28.383   7.964
 1519POPC   C4A21954  14.371  28.369   7.664
 1519POPC   C1B21955  14.655  28.403   8.564
 1519POPC   C2B21956  14.664  28.407   8.264
 1519POPC   C3B21957  14.683  28.455   7.964
 1519POPC   C4B21958  14.632  28.397   7.664
 1520POPC   NC321959  22.973  16.743   9.464
 1520POPC   PO421960  22.940  16.715   9.164
 1520POPC   GL121961  22.964  16.696   8.864
 1520POPC   GL221962  22.935  16.849   8.864
 1520POPC   C1A21963  22.952  16.685   8.564
 1520POPC   D2A21964  22.920  16.690   8.264
 1520POPC   C3A21965  22.948  16.715   7.964
 1520POPC   C4A21966  22.943  16.735   7.664
 1520POPC   C1B21967  22.969  17.008   8.564
 1520POPC   C2B21968  22.989  16.991   8.264
 1520POPC   C3B21969  23.042  16.985   7.964
 1520POPC   C4B21970  22.953  17.004   7.664
 1521POPC   NC321971  30.709   8.171   9.464
 1521POPC   PO421972  30.727   8.199   9.164
 1521POPC   GL121973  30.720   8.229   8.864
 1521POPC   GL221974  30.770   8.098   8.864
 1521POPC   C1A21975  30.665   8.178   8.564
 1521POPC   D2A21976  30.715   8.176   8.264
 1521POPC   C3A21977  30.653   8.220   7.964
 1521POPC   C4A21978  30.653   8.236   7.664
 1521POPC   C1B21979  30.899   8.072   8.564
 1521POPC   C2B21980  30.949   8.031   8.264
 1521POPC   C3B21981  30.954   8.094   7.964
 1521POPC   C4B21982  30.873   8.066   7.664
 1522POPC   NC321983  24.466   4.282   9.464
 1522POPC   PO421984  24.520   4.293   9.164
 1522POPC   GL121985  24.534   4.283   8.864
 1522POPC   GL221986  24.613   4.345   8.864
 1522POPC   C1A21987  24.466   4.359   8.564
 1522POPC   D2A21988  24.506   4.290   8.264
 1522POPC   C3A21989  24.538   4.342   7.964
 1522POPC   C4A21990  24.499   4.338   7.664
 1522POPC   C1B21991  24.703   4.379   8.564
 1522POPC   C2B21992  24.779   4.367   8.264
 1522POPC   C3B21993  24.714   4.429   7.964
 1522POPC   C4B21994  24.753   4.412   7.664
 1523POPC   NC321995   8.244  33.782   9.464
 1523POPC   PO421996   8.187  33.826   9.164
 1523POPC   GL121997   8.184  33.762   8.864
 1523POPC   GL221998   8.330  33.767   8.864
 1523POPC   C1A21999   8.148  33.781   8.564
 1523POPC   D2A22000   8.180  33.835   8.264
 1523POPC   C3A22001   8.169  33.804   7.964
 1523POPC   C4A22002   8.218  33.806   7.664
 1523POPC   C1B22003   8.480  33.767   8.564
 1523POPC   C2B22004   8.411  33.713   8.264
 1523POPC   C3B22005   8.403  33.715   7.964
 1523POPC   C4B22006   8.388  33.755   7.664
 1524POPC   NC322007   2.026  10.488   9.464
 1524POPC   PO422008   2.030  10.499   9.164
 1524POPC   GL122009   1.998  10.510   8.864
 1524POPC   GL222010   2.012  10.678   8.864
 1524POPC   C1A22011   1.988  10.533   8.564
 1524POPC   D2A22012   1.955  10.552   8.264
 1524POPC   C3A22013   2.008  10.516   7.964
 1524POPC   C4A22014   1.989  10.510   7.664
 1524POPC   C1B22015   2.052  10.742   8.564
 1524POPC   C2B22016   2.100  10.736   8.264
 1524POPC   C3B22017   2.031  10.808   7.964
 1524POPC   C4B22018   2.019  10.779   7.664
 1525POPC   NC322019  42.298   2.748   9.464
 1525POPC   PO422020  42.299   2.789   9.164
 1525POPC   GL122021  42.342   2.766   8.864
 1525POPC   GL222022  42.259   2.748   8.864
 1525POPC   C1A22023  42.336   2.801   8.564
 1525POPC   D2A22024  42.355   2.726   8.264
 1525POPC   C3A22025  42.382   2.806   7.964
 1525POPC   C4A22026  42.286   2.724   7.664
 1525POPC   C1B22027  42.061   2.708   8.564
 1525POPC   C2B22028  42.101   2.712   8.264
 1525POPC   C3B22029  42.052   2.635   7.964
 1525POPC   C4B22030  42.093   2.678   7.664
 1526POPC   NC322031  43.855  22.945   9.464
 1526POPC   PO422032  43.919  22.942   9.164
 1526POPC   GL122033  43.842  22.915   8.864
 1526POPC   GL222034  43.935  23.054   8.864
 1526POPC   C1A22035  43.919  22.987   8.564
 1526POPC   D2A22036  43.842  22.959   8.264
 1526POPC   C3A22037  43.866  22.896   7.964
 1526POPC   C4A22038  43.863  22.928   7.664
 1526POPC   C1B22039  44.056  23.156   8.564
 1526POPC   C2B22040  44.007  23.170   8.264
 1526POPC   C3B22041  44.079  23.181   7.964
 1526POPC   C4B22042  43.998  23.146   7.664
 1527POPC   NC322043  33.769   2.791   9.464
 1527POPC   PO422044  33.803   2.781   9.164
 1527POPC   GL122045  33.750   2.726   8.864
 1527POPC   GL222046  33.674   2.758   8.864
 1527POPC   C1A22047  33.787   2.717   8.564
 1527POPC   D2A22048  33.789   2.756   8.264
 1527POPC   C3A22049  33.840   2.747   7.964
 1527POPC   C4A22050  33.777   2.744   7.664
 1527POPC   C1B22051  33.511   2.702   8.564
 1527POPC   C2B22052  33.515   2.672   8.264
 1527POPC   C3B22053  33.522   2.658   7.964
 1527POPC   C4B22054  33.541   2.725   7.664
 1528POPC   NC322055  32.999   9.766   9.464
 1528POPC   PO422056  32.999   9.734   9.164
 1528POPC   GL122057  33.050   9.699   8.864
 1528POPC   GL222058  33.063   9.611   8.864
 1528POPC   C1A22059  32.994   9.744   8.564
 1528POPC   D2A22060  33.009   9.781   8.264
 1528POPC   C3A22061  33.066   9.765   7.964
 1528POPC   C4A22062  32.988   9.796   7.664
 1528POPC   C1B22063  33.189   9.562   8.564
 1528POPC   C2B22064  33.121   9.494   8.264
 1528POPC   C3B22065  33.135   9.547   7.964
 1528POPC   C4B22066  33.170   9.497   7.664
 1529POPC   NC322067  41.600  23.735   9.464
 1529POPC   PO422068  41.547  23.698   9.164
 1529POPC   GL122069  41.517  23.682   8.864
 1529POPC   GL222070  41.463  23.789   8.864
 1529POPC   C1A22071  41.568  23.728   8.564
 1529POPC   D2A22072  41.550  23.683   8.264
 1529POPC   C3A22073  41.511  23.691   7.964
 1529POPC   C4A22074  41.568  23.731   7.664
 1529POPC   C1B22075  41.332  23.795   8.564
 1529POPC   C2B22076  41.311  23.882   8.264
 1529POPC   C3B22077  41.355  23.875   7.964
 1529POPC   C4B22078  41.394  23.888   7.664
 1530POPC   NC322079  40.820  29.897   9.464
 1530POPC   PO422080  40.817  29.892   9.164
 1530POPC   GL122081  40.800  29.906   8.864
 1530POPC   GL222082  40.955  29.887   8.864
 1530POPC   C1A22083  40.805  29.924   8.564
 1530POPC   D2A22084  40.779  29.908   8.264
 1530POPC   C3A22085  40.808  29.878   7.964
 1530POPC   C4A22086  40.742  29.921   7.664
 1530POPC   C1B22087  41.006  29.946   8.564
 1530POPC   C2B22088  41.032  29.985   8.264
 1530POPC   C3B22089  41.071  29.932   7.964
 1530POPC   C4B22090  40.993  29.966   7.664
 1531POPC   NC322091  36.145   3.532   9.464
 1531POPC   PO422092  36.152   3.591   9.164
 1531POPC   GL122093  36.177   3.539   8.864
 1531POPC   GL222094  36.150   3.619   8.864
 1531POPC   C1A22095  36.168   3.553   8.564
 1531POPC   D2A22096  36.137   3.500   8.264
 1531POPC   C3A22097  36.118   3.577   7.964
 1531POPC   C4A22098  36.152   3.555   7.664
 1531POPC   C1B22099  36.169   3.797   8.564
 1531POPC   C2B22100  36.196   3.739   8.264
 1531POPC   C3B22101  36.193   3.791   7.964
 1531POPC   C4B22102  36.254   3.764   7.664
 1532POPC   NC322103  28.404  34.599   9.464
 1532POPC   PO422104  28.365  34.611   9.164
 1532POPC   GL122105  28.364  34.570   8.864
 1532POPC   GL222106  28.242  34.618   8.864
 1532POPC   C1A22107  28.330  34.617   8.564
 1532POPC   D2A22108  28.358  34.583   8.264
 1532POPC   C3A22109  28.375  34.603   7.964
 1532POPC   C4A22110  28.390  34.570   7.664
 1532POPC   C1B22111  28.145  34.765   8.564
 1532POPC   C2B22112  28.213  34.709   8.264
 1532POPC   C3B22113  28.157  34.680   7.964
 1532POPC   C4B22114  28.185  34.764   7.664
 1533POPC   NC322115  43.894  15.969   9.464
 1533POPC   PO422116  43.901  15.980   9.164
 1533POPC   GL122117  43.838  15.960   8.864
 1533POPC   GL222118  43.741  15.911   8.864
 1533POPC   C1A22119  43.934  15.976   8.564
 1533POPC   D2A22120  43.848  15.934   8.264
 1533POPC   C3A22121  43.860  15.989   7.964
 1533POPC   C4A22122  43.848  15.973   7.664
 1533POPC   C1B22123  43.636  15.899   8.564
 1533POPC   C2B22124  43.594  15.910   8.264
 1533POPC   C3B22125  43.639  15.900   7.964
 1533POPC   C4B22126  43.664  15.954   7.664
 1534POPC   NC322127   9.712  26.809   9.464
 1534POPC   PO422128   9.777  26.779   9.164
 1534POPC   GL122129   9.795  26.816   8.864
 1534POPC   GL222130   9.920  26.882   8.864
 1534POPC   C1A22131   9.784  26.776   8.564
 1534POPC   D2A22132   9.752  26.855   8.264
 1534POPC   C3A22133   9.747  26.784   7.964
 1534POPC   C4A22134   9.736  26.785   7.664
 1534POPC   C1B22135   9.999  26.862   8.564
 1534POPC   C2B22136  10.032  26.809   8.264
 1534POPC   C3B22137  10.025  26.896   7.964
 1534POPC   C4B22138  10.042  26.833   7.664
 1535POPC   NC322139   2.012   3.590   9.464
 1535POPC   PO422140   2.019   3.590   9.164
 1535POPC   GL122141   1.960   3.502   8.864
 1535POPC   GL222142   1.922   3.507   8.864
 1535POPC   C1A22143   1.945   3.552   8.564
 1535POPC   D2A22144   2.010   3.561   8.264
 1535POPC   C3A22145   2.024   3.497   7.964
 1535POPC   C4A22146   1.964   3.503   7.664
 1535POPC   C1B22147   1.767   3.462   8.564
 1535POPC   C2B22148   1.801   3.434   8.264
 1535POPC   C3B22149   1.734   3.467   7.964
 1535POPC   C4B22150   1.791   3.413   7.664
 1536POPC   NC322151   1.225  34.590   9.464
 1536POPC   PO422152   1.169  34.567   9.164
 1536POPC   GL122153   1.256  34.592   8.864
 1536POPC   GL222154   1.368  34.594   8.864
 1536POPC   C1A22155   1.196  34.618   8.564
 1536POPC   D2A22156   1.227  34.624   8.264
 1536POPC   C3A22157   1.176  34.552   7.964
 1536POPC   C4A22158   1.244  34.555   7.664
 1536POPC   C1B22159   1.483  34.633   8.564
 1536POPC   C2B22160   1.451  34.700   8.264
 1536POPC   C3B22161   1.452  34.647   7.964
 1536POPC   C4B22162   1.465  34.710   7.664
 1537POPC   NC322163  14.431  32.987   9.464
 1537POPC   PO422164  14.406  32.990   9.164
 1537POPC   GL122165  14.420  33.040   8.864
 1537POPC   GL222166  14.420  33.108   8.864
 1537POPC   C1A22167  14.452  33.011   8.564
 1537POPC   D2A22168  14.365  33.021   8.264
 1537POPC   C3A22169  14.391  33.070   7.964
 1537POPC   C4A22170  14.411  33.062   7.664
 1537POPC   C1B22171  14.328  33.286   8.564
 1537POPC   C2B22172  14.396  33.245   8.264
 1537POPC   C3B22173  14.342  33.291   7.964
 1537POPC   C4B22174  14.332  33.242   7.664
 1538POPC   NC322175  34.528   4.342   9.464
 1538POPC   PO422176  34.595   4.275   9.164
 1538POPC   GL122177  34.585   4.284   8.864
 1538POPC   GL222178  34.558   4.232   8.864
 1538POPC   C1A22179  34.544   4.318   8.564
 1538POPC   D2A22180  34.561   4.271   8.264
 1538POPC   C3A22181  34.583   4.360   7.964
 1538POPC   C4A22182  34.591   4.268   7.664
 1538POPC   C1B22183  34.551   4.123   8.564
 1538POPC   C2B22184  34.543   4.105   8.264
 1538POPC   C3B22185  34.519   4.121   7.964
 1538POPC   C4B22186  34.533   4.086   7.664
 1539POPC   NC322187  35.320  19.826   9.464
 1539POPC   PO422188  35.374  19.845   9.164
 1539POPC   GL122189  35.364  19.835   8.864
 1539POPC   GL222190  35.261  19.732   8.864
 1539POPC   C1A22191  35.323  19.801   8.564
 1539POPC   D2A22192  35.315  19.857   8.264
 1539POPC   C3A22193  35.398  19.832   7.964
 1539POPC   C4A22194  35.330  19.823   7.664
 1539POPC   C1B22195  35.202  19.599   8.564
 1539POPC   C2B22196  35.216  19.637   8.264
 1539POPC   C3B22197  35.221  19.673   7.964
 1539POPC   C4B22198  35.169  19.593   7.664
 1540POPC   NC322199  31.465  28.325   9.464
 1540POPC   PO422200  31.501  28.322   9.164
 1540POPC   GL122201  31.426  28.322   8.864
 1540POPC   GL222202  31.452  28.535   8.864
 1540POPC   C1A22203  31.434  28.394   8.564
 1540POPC   D2A22204  31.481  28.348   8.264
 1540POPC   C3A22205  31.484  28.355   7.964
 1540POPC   C4A22206  31.442  28.332   7.664
 1540POPC   C1B22207  31.514  28.596   8.564
 1540POPC   C2B22208  31.510  28.625   8.264
 1540POPC   C3B22209  31.478  28.593   7.964
 1540POPC   C4B22210  31.501  28.588   7.664
 1541POPC   NC322211  24.475  12.103   9.464
 1541POPC   PO422212  24.487  12.110   9.164
 1541POPC   GL122213  24.471  12.109   8.864
 1541POPC   GL222214  24.523  11.957   8.864
 1541POPC   C1A22215  24.531  12.038   8.564
 1541POPC   D2A22216  24.539  12.062   8.264
 1541POPC   C3A22217  24.483  12.028   7.964
 1541POPC   C4A22218  24.455  12.037   7.664
 1541POPC   C1B22219  24.569  11.892   8.564
 1541POPC   C2B22220  24.633  11.882   8.264
 1541POPC   C3B22221  24.586  11.822   7.964
 1541POPC   C4B22222  24.627  11.821   7.664
 1542POPC   NC322223  16.752  38.471   9.464
 1542POPC   PO422224  16.717  38.468   9.164
 1542POPC   GL122225  16.721  38.439   8.864
 1542POPC   GL222226  16.718  38.324   8.864
 1542POPC   C1A22227  16.734  38.418   8.564
 1542POPC   D2A22228  16.703  38.464   8.264
 1542POPC   C3A22229  16.768  38.450   7.964
 1542POPC   C4A22230  16.724  38.464   7.664
 1542POPC   C1B22231  16.673  38.157   8.564
 1542POPC   C2B22232  16.704  38.254   8.264
 1542POPC   C3B22233  16.749  38.217   7.964
 1542POPC   C4B22234  16.736  38.203   7.664
 1543POPC   NC322235  10.574   4.294   9.464
 1543POPC   PO422236  10.488   4.295   9.164
 1543POPC   GL122237  10.535   4.280   8.864
 1543POPC   GL222238  10.600   4.266   8.864
 1543POPC   C1A22239  10.534   4.321   8.564
 1543POPC   D2A22240  10.535   4.330   8.264
 1543POPC   C3A22241  10.551   4.315   7.964
 1543POPC   C4A22242  10.550   4.330   7.664
 1543POPC   C1B22243  10.713   4.183   8.564
 1543POPC   C2B22244  10.701   4.144   8.264
 1543POPC   C3B22245  10.651   4.089   7.964
 1543POPC   C4B22246  10.719   4.172   7.664
 1544POPC   NC322247  19.872   3.558   9.464
 1544POPC   PO422248  19.836   3.514   9.164
 1544POPC   GL122249  19.859   3.507   8.864
 1544POPC   GL222250  19.864   3.439   8.864
 1544POPC   C1A22251  19.838   3.492   8.564
 1544POPC   D2A22252  19.839   3.584   8.264
 1544POPC   C3A22253  19.803   3.567   7.964
 1544POPC   C4A22254  19.785   3.519   7.664
 1544POPC   C1B22255  19.960   3.311   8.564
 1544POPC   C2B22256  20.005   3.347   8.264
 1544POPC   C3B22257  19.968   3.321   7.964
 1544POPC   C4B22258  19.955   3.324   7.664
 1545POPC   NC322259  15.189  16.689   9.464
 1545POPC   PO422260  15.181  16.683   9.164
 1545POPC   GL122261  15.147  16.724   8.864
 1545POPC   GL222262  15.283  16.672   8.864
 1545POPC   C1A22263  15.130  16.773   8.564
 1545POPC   D2A22264  15.155  16.760   8.264
 1545POPC   C3A22265  15.208  16.683   7.964
 1545POPC   C4A22266  15.222  16.727   7.664
 1545POPC   C1B22267  15.310  16.596   8.564
 1545POPC   C2B22268  15.395  16.507   8.264
 1545POPC   C3B22269  15.355  16.562   7.964
 1545POPC   C4B22270  15.356  16.508   7.664
 1546POPC   NC322271   1.979   8.216   9.464
 1546POPC   PO422272   1.994   8.195   9.164
 1546POPC   GL122273   2.031   8.223   8.864
 1546POPC   GL222274   1.890   8.154   8.864
 1546POPC   C1A22275   1.983   8.174   8.564
 1546POPC   D2A22276   1.999   8.244   8.264
 1546POPC   C3A22277   1.972   8.224   7.964
 1546POPC   C4A22278   2.007   8.187   7.664
 1546POPC   C1B22279   1.787   8.073   8.564
 1546POPC   C2B22280   1.842   8.063   8.264
 1546POPC   C3B22281   1.852   8.006   7.964
 1546POPC   C4B22282   1.837   7.985   7.664
 1547POPC   NC322283  22.118  22.203   9.464
 1547POPC   PO422284  22.118  22.119   9.164
 1547POPC   GL122285  22.132  22.151   8.864
 1547POPC   GL222286  22.098  22.287   8.864
 1547POPC   C1A22287  22.191  22.137   8.564
 1547POPC   D2A22288  22.125  22.158   8.264
 1547POPC   C3A22289  22.186  22.138   7.964
 1547POPC   C4A22290  22.155  22.114   7.664
 1547POPC   C1B22291  21.964  22.391   8.564
 1547POPC   C2B22292  22.022  22.330   8.264
 1547POPC   C3B22293  22.033  22.331   7.964
 1547POPC   C4B22294  21.961  22.323   7.664
 1548POPC   NC322295   4.331  14.422   9.464
 1548POPC   PO422296   4.357  14.407   9.164
 1548POPC   GL122297   4.273  14.400   8.864
 1548POPC   GL222298   4.398  14.298   8.864
 1548POPC   C1A22299   4.274  14.414   8.564
 1548POPC   D2A22300   4.346  14.372   8.264
 1548POPC   C3A22301   4.325  14.398   7.964
 1548POPC   C4A22302   4.285  14.389   7.664
 1548POPC   C1B22303   4.517  14.288   8.564
 1548POPC   C2B22304   4.510  14.232   8.264
 1548POPC   C3B22305   4.485  14.207   7.964
 1548POPC   C4B22306   4.535  14.240   7.664
 1549POPC   NC322307   6.627  40.754   9.464
 1549POPC   PO422308   6.685  40.791   9.164
 1549POPC   GL122309   6.618  40.754   8.864
 1549POPC   GL222310   6.732  40.722   8.864
 1549POPC   C1A22311   6.664  40.741   8.564
 1549POPC   D2A22312   6.628  40.785   8.264
 1549POPC   C3A22313   6.616  40.798   7.964
 1549POPC   C4A22314   6.680  40.786   7.664
 1549POPC   C1B22315   6.914  40.756   8.564
 1549POPC   C2B22316   6.894  40.798   8.264
 1549POPC   C3B22317   6.931  40.718   7.964
 1549POPC   C4B22318   6.928  40.782   7.664
 1550POPC   NC322319  11.315  35.318   9.464
 1550POPC   PO422320  11.322  35.380   9.164
 1550POPC   GL122321  11.335  35.393   8.864
 1550POPC   GL222322  11.435  35.373   8.864
 1550POPC   C1A22323  11.278  35.315   8.564
 1550POPC   D2A22324  11.345  35.317   8.264
 1550POPC   C3A22325  11.273  35.313   7.964
 1550POPC   C4A22326  11.305  35.346   7.664
 1550POPC   C1B22327  11.550  35.261   8.564
 1550POPC   C2B22328  11.507  35.314   8.264
 1550POPC   C3B22329  11.521  35.280   7.964
 1550POPC   C4B22330  11.564  35.307   7.664
 1551POPC   NC322331   8.937  43.887   9.464
 1551POPC   PO422332   9.006  43.842   9.164
 1551POPC   GL122333   9.015  43.892   8.864
 1551POPC   GL222334   8.855  43.927   8.864
 1551POPC   C1A22335   8.995  43.864   8.564
 1551POPC   D2A22336   8.975  43.927   8.264
 1551POPC   C3A22337   8.932  43.882   7.964
 1551POPC   C4A22338   8.967  43.928   7.664
 1551POPC   C1B22339   8.782  43.921   8.564
 1551POPC   C2B22340   8.724  43.976   8.264
 1551POPC   C3B22341   8.737  43.951   7.964
 1551POPC   C4B22342   8.730  43.964   7.664
 1552POPC   NC322343  12.834  26.068   9.464
 1552POPC   PO422344  12.880  26.084   9.164
 1552POPC   GL122345  12.882  26.043   8.864
 1552POPC   GL222346  12.780  26.137   8.864
 1552POPC   C1A22347  12.858  26.016   8.564
 1552POPC   D2A22348  12.898  26.024   8.264
 1552POPC   C3A22349  12.875  26.069   7.964
 1552POPC   C4A22350  12.843  26.011   7.664
 1552POPC   C1B22351  12.771  26.229   8.564
 1552POPC   C2B22352  12.771  26.298   8.264
 1552POPC   C3B22353  12.741  26.305   7.964
 1552POPC   C4B22354  12.690  26.246   7.664
 1553POPC   NC322355  13.640   3.531   9.464
 1553POPC   PO422356  13.613   3.572   9.164
 1553POPC   GL122357  13.670   3.510   8.864
 1553POPC   GL222358  13.567   3.619   8.864
 1553POPC   C1A22359  13.626   3.567   8.564
 1553POPC   D2A22360  13.616   3.524   8.264
 1553POPC   C3A22361  13.669   3.543   7.964
 1553POPC   C4A22362  13.640   3.531   7.664
 1553POPC   C1B22363  13.551   3.752   8.564
 1553POPC   C2B22364  13.557   3.754   8.264
 1553POPC   C3B22365  13.601   3.754   7.964
 1553POPC   C4B22366  13.613   3.817   7.664
 1554POPC   NC322367  33.002   2.716   9.464
 1554POPC   PO422368  32.999   2.734   9.164
 1554POPC   GL122369  33.048   2.796   8.864
 1554POPC   GL222370  32.880   2.728   8.864
 1554POPC   C1A22371  32.997   2.767   8.564
 1554POPC   D2A22372  33.013   2.773   8.264
 1554POPC   C3A22373  33.061   2.808   7.964
 1554POPC   C4A22374  33.000   2.718   7.664
 1554POPC   C1B22375  32.783   2.739   8.564
 1554POPC   C2B22376  32.829   2.690   8.264
 1554POPC   C3B22377  32.767   2.706   7.964
 1554POPC   C4B22378  32.780   2.693   7.664
 1555POPC   NC322379  26.820  44.678   9.464
 1555POPC   PO422380  26.775  44.641   9.164
 1555POPC   GL122381  26.849  44.688   8.864
 1555POPC   GL222382  26.976  44.721   8.864
 1555POPC   C1A22383  26.849  44.684   8.564
 1555POPC   D2A22384  26.794  44.613   8.264
 1555POPC   C3A22385  26.838  44.642   7.964
 1555POPC   C4A22386  26.851  44.705   7.664
 1555POPC   C1B22387  27.071  44.659   8.564
 1555POPC   C2B22388  27.035  44.709   8.264
 1555POPC   C3B22389  27.072  44.664   7.964
 1555POPC   C4B22390  27.113  44.649   7.664
 1556POPC   NC322391  42.355  35.314   9.464
 1556POPC   PO422392  42.328  35.378   9.164
 1556POPC   GL122393  42.350  35.344   8.864
 1556POPC   GL222394  42.179  35.426   8.864
 1556POPC   C1A22395  42.306  35.356   8.564
 1556POPC   D2A22396  42.302  35.360   8.264
 1556POPC   C3A22397  42.373  35.364   7.964
 1556POPC   C4A22398  42.343  35.383   7.664
 1556POPC   C1B22399  42.073  35.414   8.564
 1556POPC   C2B22400  42.076  35.434   8.264
 1556POPC   C3B22401  42.132  35.437   7.964
 1556POPC   C4B22402  42.116  35.437   7.664
 1557POPC   NC322403   5.899  20.586   9.464
 1557POPC   PO422404   5.871  20.574   9.164
 1557POPC   GL122405   5.832  20.618   8.864
 1557POPC   GL222406   5.709  20.587   8.864
 1557POPC   C1A22407   5.875  20.568   8.564
 1557POPC   D2A22408   5.824  20.633   8.264
 1557POPC   C3A22409   5.879  20.603   7.964
 1557POPC   C4A22410   5.910  20.611   7.664
 1557POPC   C1B22411   5.635  20.564   8.564
 1557POPC   C2B22412   5.617  20.546   8.264
 1557POPC   C3B22413   5.576  20.525   7.964
 1557POPC   C4B22414   5.580  20.587   7.664
 1558POPC   NC322415  38.458  20.636   9.464
 1558POPC   PO422416  38.427  20.598   9.164
 1558POPC   GL122417  38.427  20.602   8.864
 1558POPC   GL222418  38.566  20.488   8.864
 1558POPC   C1A22419  38.406  20.570   8.564
 1558POPC   D2A22420  38.414  20.603   8.264
 1558POPC   C3A22421  38.443  20.627   7.964
 1558POPC   C4A22422  38.411  20.639   7.664
 1558POPC   C1B22423  38.561  20.384   8.564
 1558POPC   C2B22424  38.564  20.391   8.264
 1558POPC   C3B22425  38.596  20.406   7.964
 1558POPC   C4B22426  38.595  20.408   7.664
 1559POPC   NC322427  12.033  15.228   9.464
 1559POPC   PO422428  12.103  15.151   9.164
 1559POPC   GL122429  12.124  15.217   8.864
 1559POPC   GL222430  11.977  15.236   8.864
 1559POPC   C1A22431  12.052  15.190   8.564
 1559POPC   D2A22432  12.071  15.217   8.264
 1559POPC   C3A22433  12.095  15.212   7.964
 1559POPC   C4A22434  12.077  15.148   7.664
 1559POPC   C1B22435  11.854  15.339   8.564
 1559POPC   C2B22436  11.869  15.328   8.264
 1559POPC   C3B22437  11.908  15.352   7.964
 1559POPC   C4B22438  11.883  15.260   7.664
 1560POPC   NC322439   0.434  34.536   9.464
 1560POPC   PO422440   0.452  34.605   9.164
 1560POPC   GL122441   0.433  34.615   8.864
 1560POPC   GL222442   0.450  34.699   8.864
 1560POPC   C1A22443   0.409  34.588   8.564
 1560POPC   D2A22444   0.422  34.532   8.264
 1560POPC   C3A22445   0.468  34.625   7.964
 1560POPC   C4A22446   0.484  34.607   7.664
 1560POPC   C1B22447   0.417  34.807   8.564
 1560POPC   C2B22448   0.416  34.811   8.264
 1560POPC   C3B22449   0.439  34.840   7.964
 1560POPC   C4B22450   0.465  34.806   7.664
 1561POPC   NC322451  32.270  34.564   9.464
 1561POPC   PO422452  32.240  34.624   9.164
 1561POPC   GL122453  32.227  34.547   8.864
 1561POPC   GL222454  32.181  34.552   8.864
 1561POPC   C1A22455  32.218  34.610   8.564
 1561POPC   D2A22456  32.295  34.548   8.264
 1561POPC   C3A22457  32.218  34.612   7.964
 1561POPC   C4A22458  32.286  34.576   7.664
 1561POPC   C1B22459  31.978  34.506   8.564
 1561POPC   C2B22460  31.978  34.439   8.264
 1561POPC   C3B22461  31.972  34.497   7.964
 1561POPC   C4B22462  32.033  34.500   7.664
 1562POPC   NC322463  40.019  18.296   9.464
 1562POPC   PO422464  40.051  18.270   9.164
 1562POPC   GL122465  40.034  18.253   8.864
 1562POPC   GL222466  40.001  18.188   8.864
 1562POPC   C1A22467  39.979  18.245   8.564
 1562POPC   D2A22468  40.004  18.322   8.264
 1562POPC   C3A22469  39.975  18.285   7.964
 1562POPC   C4A22470  39.979  18.270   7.664
 1562POPC   C1B22471  40.072  18.084   8.564
 1562POPC   C2B22472  40.057  18.021   8.264
 1562POPC   C3B22473  40.084  18.024   7.964
 1562POPC   C4B22474  40.102  18.018   7.664
 1563POPC   NC322475   7.462  24.496   9.464
 1563POPC   PO422476   7.416  24.497   9.164
 1563POPC   GL122477   7.391  24.497   8.864
 1563POPC   GL222478   7.550  24.428   8.864
 1563POPC   C1A22479   7.388  24.485   8.564
 1563POPC   D2A22480   7.435  24.495   8.264
 1563POPC   C3A22481   7.382  24.441   7.964
 1563POPC   C4A22482   7.376  24.473   7.664
 1563POPC   C1B22483   7.682  24.439   8.564
 1563POPC   C2B22484   7.681  24.367   8.264
 1563POPC   C3B22485   7.642  24.413   7.964
 1563POPC   C4B22486   7.634  24.381   7.664
 1564POPC   NC322487  32.217   0.436   9.464
 1564POPC   PO422488  32.228   0.393   9.164
 1564POPC   GL122489  32.216   0.475   8.864
 1564POPC   GL222490  32.379   0.367   8.864
 1564POPC   C1A22491  32.236   0.402   8.564
 1564POPC   D2A22492  32.261   0.425   8.264
 1564POPC   C3A22493  32.206   0.414   7.964
 1564POPC   C4A22494  32.253   0.464   7.664
 1564POPC   C1B22495  32.374   0.223   8.564
 1564POPC   C2B22496  32.442   0.210   8.264
 1564POPC   C3B22497  32.450   0.284   7.964
 1564POPC   C4B22498  32.454   0.248   7.664
 1565POPC   NC322499   9.733  21.385   9.464
 1565POPC   PO422500   9.790  21.428   9.164
 1565POPC   GL122501   9.794  21.365   8.864
 1565POPC   GL222502   9.611  21.446   8.864
 1565POPC   C1A22503   9.746  21.376   8.564
 1565POPC   D2A22504   9.723  21.348   8.264
 1565POPC   C3A22505   9.745  21.422   7.964
 1565POPC   C4A22506   9.742  21.358   7.664
 1565POPC   C1B22507   9.525  21.509   8.564
 1565POPC   C2B22508   9.487  21.506   8.264
 1565POPC   C3B22509   9.570  21.549   7.964
 1565POPC   C4B22510   9.524  21.533   7.664
 1566POPC   NC322511  42.326  28.358   9.464
 1566POPC   PO422512  42.314  28.412   9.164
 1566POPC   GL122513  42.337  28.399   8.864
 1566POPC   GL222514  42.241  28.524   8.864
 1566POPC   C1A22515  42.379  28.363   8.564
 1566POPC   D2A22516  42.327  28.371   8.264
 1566POPC   C3A22517  42.291  28.413   7.964
 1566POPC   C4A22518  42.352  28.325   7.664
 1566POPC   C1B22519  42.287  28.627   8.564
 1566POPC   C2B22520  42.188  28.606   8.264
 1566POPC   C3B22521  42.195  28.638   7.964
 1566POPC   C4B22522  42.269  28.618   7.664
 1567POPC   NC322523  32.992  20.589   9.464
 1567POPC   PO422524  33.071  20.612   9.164
 1567POPC   GL122525  33.045  20.653   8.864
 1567POPC   GL222526  33.133  20.553   8.864
 1567POPC   C1A22527  33.040  20.643   8.564
 1567POPC   D2A22528  33.011  20.609   8.264
 1567POPC   C3A22529  32.976  20.614   7.964
 1567POPC   C4A22530  33.048  20.603   7.664
 1567POPC   C1B22531  33.252  20.525   8.564
 1567POPC   C2B22532  33.255  20.562   8.264
 1567POPC   C3B22533  33.317  20.569   7.964
 1567POPC   C4B22534  33.219  20.566   7.664
 1568POPC   NC322535  20.568  21.363   9.464
 1568POPC   PO422536  20.586  21.392   9.164
 1568POPC   GL122537  20.584  21.415   8.864
 1568POPC   GL222538  20.527  21.378   8.864
 1568POPC   C1A22539  20.651  21.370   8.564
 1568POPC   D2A22540  20.582  21.338   8.264
 1568POPC   C3A22541  20.659  21.427   7.964
 1568POPC   C4A22542  20.637  21.389   7.664
 1568POPC   C1B22543  20.408  21.321   8.564
 1568POPC   C2B22544  20.362  21.412   8.264
 1568POPC   C3B22545  20.378  21.353   7.964
 1568POPC   C4B22546  20.338  21.375   7.664
 1569POPC   NC322547  35.397  39.970   9.464
 1569POPC   PO422548  35.339  39.962   9.164
 1569POPC   GL122549  35.383  39.986   8.864
 1569POPC   GL222550  35.292  40.090   8.864
 1569POPC   C1A22551  35.360  40.025   8.564
 1569POPC   D2A22552  35.363  40.026   8.264
 1569POPC   C3A22553  35.387  40.045   7.964
 1569POPC   C4A22554  35.309  40.009   7.664
 1569POPC   C1B22555  35.275  40.263   8.564
 1569POPC   C2B22556  35.313  40.255   8.264
 1569POPC   C3B22557  35.328  40.247   7.964
 1569POPC   C4B22558  35.329  40.207   7.664
 1570POPC   NC322559   8.937  38.456   9.464
 1570POPC   PO422560   9.006  38.472   9.164
 1570POPC   GL122561   9.014  38.407   8.864
 1570POPC   GL222562   8.996  38.354   8.864
 1570POPC   C1A22563   9.001  38.474   8.564
 1570POPC   D2A22564   8.978  38.453   8.264
 1570POPC   C3A22565   8.982  38.464   7.964
 1570POPC   C4A22566   8.951  38.418   7.664
 1570POPC   C1B22567   9.055  38.234   8.564
 1570POPC   C2B22568   9.092  38.199   8.264
 1570POPC   C3B22569   9.077  38.189   7.964
 1570POPC   C4B22570   9.085  38.185   7.664
 1571POPC   NC322571  40.056  19.835   9.464
 1571POPC   PO422572  39.967  19.807   9.164
 1571POPC   GL122573  40.007  19.809   8.864
 1571POPC   GL222574  40.026  19.665   8.864
 1571POPC   C1A22575  40.048  19.794   8.564
 1571POPC   D2A22576  39.967  19.816   8.264
 1571POPC   C3A22577  40.035  19.796   7.964
 1571POPC   C4A22578  40.014  19.811   7.664
 1571POPC   C1B22579  40.014  19.621   8.564
 1571POPC   C2B22580  40.038  19.588   8.264
 1571POPC   C3B22581  39.989  19.573   7.964
 1571POPC   C4B22582  40.008  19.576   7.664
 1572POPC   NC322583  12.064  39.274   9.464
 1572POPC   PO422584  12.050  39.210   9.164
 1572POPC   GL122585  12.086  39.221   8.864
 1572POPC   GL222586  12.105  39.313   8.864
 1572POPC   C1A22587  12.038  39.231   8.564
 1572POPC   D2A22588  12.062  39.199   8.264
 1572POPC   C3A22589  12.088  39.185   7.964
 1572POPC   C4A22590  12.074  39.242   7.664
 1572POPC   C1B22591  12.200  39.387   8.564
 1572POPC   C2B22592  12.194  39.388   8.264
 1572POPC   C3B22593  12.244  39.470   7.964
 1572POPC   C4B22594  12.204  39.474   7.664
 1573POPC   NC322595  44.697  22.136   9.464
 1573POPC   PO422596  44.642  22.150   9.164
 1573POPC   GL122597  44.701  22.125   8.864
 1573POPC   GL222598  44.778  22.279   8.864
 1573POPC   C1A22599  44.678  22.123   8.564
 1573POPC   D2A22600  44.686  22.208   8.264
 1573POPC   C3A22601  44.657  22.180   7.964
 1573POPC   C4A22602  44.671  22.162   7.664
 1573POPC   C1B22603  44.862  22.359   8.564
 1573POPC   C2B22604  44.891  22.323   8.264
 1573POPC   C3B22605  44.804  22.341   7.964
 1573POPC   C4B22606  44.847  22.301   7.664
 1574POPC   NC322607   5.838  39.983   9.464
 1574POPC   PO422608   5.878  40.033   9.164
 1574POPC   GL122609   5.893  40.047   8.864
 1574POPC   GL222610   6.004  40.032   8.864
 1574POPC   C1A22611   5.916  40.045   8.564
 1574POPC   D2A22612   5.912  40.016   8.264
 1574POPC   C3A22613   5.855  39.970   7.964
 1574POPC   C4A22614   5.850  40.014   7.664
 1574POPC   C1B22615   6.145  40.096   8.564
 1574POPC   C2B22616   6.072  40.061   8.264
 1574POPC   C3B22617   6.111  40.031   7.964
 1574POPC   C4B22618   6.164  40.015   7.664
 1575POPC   NC322619  32.251  11.319   9.464
 1575POPC   PO422620  32.230  11.292   9.164
 1575POPC   GL122621  32.224  11.255   8.864
 1575POPC   GL222622  32.122  11.350   8.864
 1575POPC   C1A22623  32.275  11.326   8.564
 1575POPC   D2A22624  32.259  11.334   8.264
 1575POPC   C3A22625  32.258  11.339   7.964
 1575POPC   C4A22626  32.202  11.317   7.664
 1575POPC   C1B22627  32.046  11.351   8.564
 1575POPC   C2B22628  31.987  11.349   8.264
 1575POPC   C3B22629  31.995  11.314   7.964
 1575POPC   C4B22630  31.959  11.255   7.664
 1576POPC   NC322631   0.405   5.122   9.464
 1576POPC   PO422632   0.443   5.090   9.164
 1576POPC   GL122633   0.458   5.118   8.864
 1576POPC   GL222634   0.358   5.150   8.864
 1576POPC   C1A22635   0.465   5.068   8.564
 1576POPC   D2A22636   0.466   5.076   8.264
 1576POPC   C3A22637   0.462   5.051   7.964
 1576POPC   C4A22638   0.447   5.117   7.664
 1576POPC   C1B22639   0.215   5.181   8.564
 1576POPC   C2B22640   0.160   5.123   8.264
 1576POPC   C3B22641   0.207   5.174   7.964
 1576POPC   C4B22642   0.153   5.144   7.664
 1577POPC   NC322643  35.358  28.359   9.464
 1577POPC   PO422644  35.353  28.415   9.164
 1577POPC   GL122645  35.387  28.357   8.864
 1577POPC   GL222646  35.214  28.438   8.864
 1577POPC   C1A22647  35.366  28.418   8.564
 1577POPC   D2A22648  35.368  28.331   8.264
 1577POPC   C3A22649  35.349  28.342   7.964
 1577POPC   C4A22650  35.375  28.332   7.664
 1577POPC   C1B22651  35.105  28.473   8.564
 1577POPC   C2B22652  35.131  28.487   8.264
 1577POPC   C3B22653  35.120  28.543   7.964
 1577POPC   C4B22654  35.091  28.500   7.664
 1578POPC   NC322655  30.736  10.543   9.464
 1578POPC   PO422656  30.678  10.493   9.164
 1578POPC   GL122657  30.735  10.563   8.864
 1578POPC   GL222658  30.537  10.500   8.864
 1578POPC   C1A22659  30.674  10.548   8.564
 1578POPC   D2A22660  30.666  10.536   8.264
 1578POPC   C3A22661  30.669  10.508   7.964
 1578POPC   C4A22662  30.682  10.513   7.664
 1578POPC   C1B22663  30.405  10.496   8.564
 1578POPC   C2B22664  30.459  10.496   8.264
 1578POPC   C3B22665  30.464  10.484   7.964
 1578POPC   C4B22666  30.446  10.450   7.664
 1579POPC   NC322667  21.344  36.098   9.464
 1579POPC   PO422668  21.359  36.161   9.164
 1579POPC   GL122669  21.394  36.148   8.864
 1579POPC   GL222670  21.305  36.011   8.864
 1579POPC   C1A22671  21.376  36.140   8.564
 1579POPC   D2A22672  21.358  36.104   8.264
 1579POPC   C3A22673  21.404  36.159   7.964
 1579POPC   C4A22674  21.343  36.099   7.664
 1579POPC   C1B22675  21.317  35.866   8.564
 1579POPC   C2B22676  21.354  35.895   8.264
 1579POPC   C3B22677  21.297  35.901   7.964
 1579POPC   C4B22678  21.348  35.936   7.664
 1580POPC   NC322679   5.914  43.126   9.464
 1580POPC   PO422680   5.872  43.118   9.164
 1580POPC   GL122681   5.868  43.151   8.864
 1580POPC   GL222682   5.720  43.193   8.864
 1580POPC   C1A22683   5.838  43.136   8.564
 1580POPC   D2A22684   5.883  43.133   8.264
 1580POPC   C3A22685   5.909  43.110   7.964
 1580POPC   C4A22686   5.895  43.063   7.664
 1580POPC   C1B22687   5.672  43.251   8.564
 1580POPC   C2B22688   5.652  43.199   8.264
 1580POPC   C3B22689   5.692  43.251   7.964
 1580POPC   C4B22690   5.628  43.233   7.664
 1581POPC   NC322691   0.450   4.361   9.464
 1581POPC   PO422692   0.452   4.316   9.164
 1581POPC   GL122693   0.408   4.310   8.864
 1581POPC   GL222694   0.485   4.382   8.864
 1581POPC   C1A22695   0.421   4.354   8.564
 1581POPC   D2A22696   0.485   4.316   8.264
 1581POPC   C3A22697   0.447   4.357   7.964
 1581POPC   C4A22698   0.474   4.313   7.664
 1581POPC   C1B22699   0.543   4.520   8.564
 1581POPC   C2B22700   0.555   4.534   8.264
 1581POPC   C3B22701   0.590   4.547   7.964
 1581POPC   C4B22702   0.582   4.577   7.664
 1582POPC   NC322703  10.486  31.490   9.464
 1582POPC   PO422704  10.554  31.461   9.164
 1582POPC   GL122705  10.518  31.434   8.864
 1582POPC   GL222706  10.604  31.553   8.864
 1582POPC   C1A22707  10.571  31.507   8.564
 1582POPC   D2A22708  10.532  31.465   8.264
 1582POPC   C3A22709  10.498  31.488   7.964
 1582POPC   C4A22710  10.514  31.439   7.664
 1582POPC   C1B22711  10.618  31.663   8.564
 1582POPC   C2B22712  10.617  31.698   8.264
 1582POPC   C3B22713  10.705  31.711   7.964
 1582POPC   C4B22714  10.696  31.727   7.664
 1583POPC   NC322715  19.019  44.660   9.464
 1583POPC   PO422716  19.031  44.674   9.164
 1583POPC   GL122717  19.037  44.679   8.864
 1583POPC   GL222718  19.158  44.748   8.864
 1583POPC   C1A22719  19.037  44.647   8.564
 1583POPC   D2A22720  19.094  44.652   8.264
 1583POPC   C3A22721  19.093  44.620   7.964
 1583POPC   C4A22722  19.056  44.613   7.664
 1583POPC   C1B22723  19.255  44.817   8.564
 1583POPC   C2B22724  19.216  44.829   8.264
 1583POPC   C3B22725  19.282  44.842   7.964
 1583POPC   C4B22726  19.253  44.872   7.664
 1584POPC   NC322727   4.359   6.683   9.464
 1584POPC   PO422728   4.293   6.617   9.164
 1584POPC   GL122729   4.329   6.682   8.864
 1584POPC   GL222730   4.213   6.766   8.864
 1584POPC   C1A22731   4.311   6.611   8.564
 1584POPC   D2A22732   4.316   6.676   8.264
 1584POPC   C3A22733   4.295   6.652   7.964
 1584POPC   C4A22734   4.323   6.629   7.664
 1584POPC   C1B22735   4.188   6.807   8.564
 1584POPC   C2B22736   4.117   6.803   8.264
 1584POPC   C3B22737   4.154   6.829   7.964
 1584POPC   C4B22738   4.116   6.871   7.664
 1585POPC   NC322739   6.598  20.626   9.464
 1585POPC   PO422740   6.649  20.642   9.164
 1585POPC   GL122741   6.634  20.652   8.864
 1585POPC   GL222742   6.687  20.783   8.864
 1585POPC   C1A22743   6.613  20.633   8.564
 1585POPC   D2A22744   6.604  20.568   8.264
 1585POPC   C3A22745   6.624  20.602   7.964
 1585POPC   C4A22746   6.621  20.657   7.664
 1585POPC   C1B22747   6.687  20.889   8.564
 1585POPC   C2B22748   6.711  20.823   8.264
 1585POPC   C3B22749   6.698  20.830   7.964
 1585POPC   C4B22750   6.659  20.901   7.664
 1586POPC   NC322751  14.423   3.495   9.464
 1586POPC   PO422752  14.427   3.494   9.164
 1586POPC   GL122753  14.445   3.505   8.864
 1586POPC   GL222754  14.335   3.482   8.864
 1586POPC   C1A22755  14.390   3.572   8.564
 1586POPC   D2A22756  14.402   3.589   8.264
 1586POPC   C3A22757  14.365   3.565   7.964
 1586POPC   C4A22758  14.430   3.562   7.664
 1586POPC   C1B22759  14.215   3.329   8.564
 1586POPC   C2B22760  14.179   3.347   8.264
 1586POPC   C3B22761  14.233   3.343   7.964
 1586POPC   C4B22762  14.195   3.335   7.664
 1587POPC   NC322763  11.325  29.959   9.464
 1587POPC   PO422764  11.336  29.936   9.164
 1587POPC   GL122765  11.284  29.885   8.864
 1587POPC   GL222766  11.141  29.917   8.864
 1587POPC   C1A22767  11.346  29.965   8.564
 1587POPC   D2A22768  11.339  29.914   8.264
 1587POPC   C3A22769  11.297  29.880   7.964
 1587POPC   C4A22770  11.288  29.916   7.664
 1587POPC   C1B22771  11.082  29.908   8.564
 1587POPC   C2B22772  11.006  29.866   8.264
 1587POPC   C3B22773  11.005  29.887   7.964
 1587POPC   C4B22774  11.031  29.877   7.664
 1588POPC   NC322775  10.556  43.130   9.464
 1588POPC   PO422776  10.476  43.116   9.164
 1588POPC   GL122777  10.481  43.075   8.864
 1588POPC   GL222778  10.492  43.218   8.864
 1588POPC   C1A22779  10.555  43.079   8.564
 1588POPC   D2A22780  10.499  43.093   8.264
 1588POPC   C3A22781  10.494  43.065   7.964
 1588POPC   C4A22782  10.536  43.128   7.664
 1588POPC   C1B22783  10.516  43.324   8.564
 1588POPC   C2B22784  10.597  43.320   8.264
 1588POPC   C3B22785  10.600  43.322   7.964
 1588POPC   C4B22786  10.514  43.358   7.664
 1589POPC   NC322787  23.731  28.360   9.464
 1589POPC   PO422788  23.730  28.361   9.164
 1589POPC   GL122789  23.667  28.355   8.864
 1589POPC   GL222790  23.796  28.302   8.864
 1589POPC   C1A22791  23.755  28.419   8.564
 1589POPC   D2A22792  23.759  28.379   8.264
 1589POPC   C3A22793  23.681  28.412   7.964
 1589POPC   C4A22794  23.666  28.392   7.664
 1589POPC   C1B22795  23.894  28.230   8.564
 1589POPC   C2B22796  23.876  28.207   8.264
 1589POPC   C3B22797  23.891  28.262   7.964
 1589POPC   C4B22798  23.880  28.209   7.664
 1590POPC   NC322799   8.201  32.977   9.464
 1590POPC   PO422800   8.210  32.989   9.164
 1590POPC   GL122801   8.191  33.061   8.864
 1590POPC   GL222802   8.133  33.098   8.864
 1590POPC   C1A22803   8.147  33.069   8.564
 1590POPC   D2A22804   8.201  33.040   8.264
 1590POPC   C3A22805   8.234  33.014   7.964
 1590POPC   C4A22806   8.224  33.018   7.664
 1590POPC   C1B22807   8.129  33.276   8.564
 1590POPC   C2B22808   8.083  33.235   8.264
 1590POPC   C3B22809   8.102  33.247   7.964
 1590POPC   C4B22810   8.136  33.256   7.664
 1591POPC   NC322811  21.408  28.341   9.464
 1591POPC   PO422812  21.386  28.341   9.164
 1591POPC   GL122813  21.395  28.363   8.864
 1591POPC   GL222814  21.249  28.421   8.864
 1591POPC   C1A22815  21.436  28.323   8.564
 1591POPC   D2A22816  21.348  28.397   8.264
 1591POPC   C3A22817  21.389  28.374   7.964
 1591POPC   C4A22818  21.435  28.379   7.664
 1591POPC   C1B22819  21.145  28.528   8.564
 1591POPC   C2B22820  21.228  28.524   8.264
 1591POPC   C3B22821  21.138  28.466   7.964
 1591POPC   C4B22822  21.182  28.508   7.664
 1592POPC   NC322823   0.458   7.460   9.464
 1592POPC   PO422824   0.449   7.456   9.164
 1592POPC   GL122825   0.448   7.463   8.864
 1592POPC   GL222826   0.517   7.393   8.864
 1592POPC   C1A22827   0.424   7.385   8.564
 1592POPC   D2A22828   0.470   7.465   8.264
 1592POPC   C3A22829   0.465   7.452   7.964
 1592POPC   C4A22830   0.431   7.384   7.664
 1592POPC   C1B22831   0.669   7.334   8.564
 1592POPC   C2B22832   0.644   7.302   8.264
 1592POPC   C3B22833   0.636   7.300   7.964
 1592POPC   C4B22834   0.668   7.265   7.664
 1593POPC   NC322835  32.207   1.249   9.464
 1593POPC   PO422836  32.293   1.190   9.164
 1593POPC   GL122837  32.238   1.222   8.864
 1593POPC   GL222838  32.361   1.197   8.864
 1593POPC   C1A22839  32.203   1.230   8.564
 1593POPC   D2A22840  32.215   1.217   8.264
 1593POPC   C3A22841  32.272   1.202   7.964
 1593POPC   C4A22842  32.246   1.213   7.664
 1593POPC   C1B22843  32.526   1.210   8.564
 1593POPC   C2B22844  32.496   1.264   8.264
 1593POPC   C3B22845  32.526   1.256   7.964
 1593POPC   C4B22846  32.496   1.258   7.664
 1594POPC   NC322847  20.566  27.597   9.464
 1594POPC   PO422848  20.569  27.630   9.164
 1594POPC   GL122849  20.572  27.601   8.864
 1594POPC   GL222850  20.490  27.542   8.864
 1594POPC   C1A22851  20.594  27.617   8.564
 1594POPC   D2A22852  20.644  27.575   8.264
 1594POPC   C3A22853  20.613  27.634   7.964
 1594POPC   C4A22854  20.615  27.586   7.664
 1594POPC   C1B22855  20.430  27.513   8.564
 1594POPC   C2B22856  20.363  27.508   8.264
 1594POPC   C3B22857  20.430  27.468   7.964
 1594POPC   C4B22858  20.399  27.513   7.664
 1595POPC   NC322859  29.937   7.416   9.464
 1595POPC   PO422860  29.959   7.416   9.164
 1595POPC   GL122861  29.944   7.411   8.864
 1595POPC   GL222862  29.826   7.391   8.864
 1595POPC   C1A22863  29.943   7.459   8.564
 1595POPC   D2A22864  29.874   7.447   8.264
 1595POPC   C3A22865  29.937   7.438   7.964
 1595POPC   C4A22866  29.964   7.403   7.664
 1595POPC   C1B22867  29.653   7.328   8.564
 1595POPC   C2B22868  29.692   7.289   8.264
 1595POPC   C3B22869  29.718   7.314   7.964
 1595POPC   C4B22870  29.700   7.309   7.664
 1596POPC   NC322871  23.670  33.043   9.464
 1596POPC   PO422872  23.728  33.067   9.164
 1596POPC   GL122873  23.682  33.037   8.864
 1596POPC   GL222874  23.846  33.133   8.864
 1596POPC   C1A22875  23.756  33.030   8.564
 1596POPC   D2A22876  23.757  33.018   8.264
 1596POPC   C3A22877  23.712  33.064   7.964
 1596POPC   C4A22878  23.761  33.006   7.664
 1596POPC   C1B22879  23.844  33.168   8.564
 1596POPC   C2B22880  23.931  33.156   8.264
 1596POPC   C3B22881  23.883  33.227   7.964
 1596POPC   C4B22882  23.898  33.245   7.664
 1597POPC   NC322883  43.918   3.565   9.464
 1597POPC   PO422884  43.889   3.523   9.164
 1597POPC   GL122885  43.839   3.518   8.864
 1597POPC   GL222886  43.819   3.625   8.864
 1597POPC   C1A22887  43.857   3.559   8.564
 1597POPC   D2A22888  43.882   3.585   8.264
 1597POPC   C3A22889  43.882   3.577   7.964
 1597POPC   C4A22890  43.922   3.501   7.664
 1597POPC   C1B22891  43.769   3.738   8.564
 1597POPC   C2B22892  43.766   3.794   8.264
 1597POPC   C3B22893  43.731   3.755   7.964
 1597POPC   C4B22894  43.770   3.730   7.664
 1598POPC   NC322895  29.961  21.389   9.464
 1598POPC   PO422896  29.910  21.401   9.164
 1598POPC   GL122897  29.958  21.366   8.864
 1598POPC   GL222898  29.982  21.471   8.864
 1598POPC   C1A22899  29.871  21.349   8.564
 1598POPC   D2A22900  29.904  21.350   8.264
 1598POPC   C3A22901  29.876  21.382   7.964
 1598POPC   C4A22902  29.875  21.374   7.664
 1598POPC   C1B22903  30.096  21.605   8.564
 1598POPC   C2B22904  30.140  21.563   8.264
 1598POPC   C3B22905  30.145  21.588   7.964
 1598POPC   C4B22906  30.061  21.594   7.664
 1599POPC   NC322907  22.944  25.249   9.464
 1599POPC   PO422908  22.986  25.244   9.164
 1599POPC   GL122909  22.978  25.294   8.864
 1599POPC   GL222910  22.916  25.122   8.864
 1599POPC   C1A22911  22.984  25.297   8.564
 1599POPC   D2A22912  22.931  25.253   8.264
 1599POPC   C3A22913  22.906  25.246   7.964
 1599POPC   C4A22914  22.889  25.226   7.664
 1599POPC   C1B22915  22.912  25.053   8.564
 1599POPC   C2B22916  22.850  24.989   8.264
 1599POPC   C3B22917  22.859  25.038   7.964
 1599POPC   C4B22918  22.832  25.042   7.664
 1600POPC   NC322919  29.190  15.134   9.464
 1600POPC   PO422920  29.152  15.175   9.164
 1600POPC   GL122921  29.097  15.196   8.864
 1600POPC   GL222922  29.063  15.279   8.864
 1600POPC   C1A22923  29.133  15.166   8.564
 1600POPC   D2A22924  29.160  15.172   8.264
 1600POPC   C3A22925  29.171  15.211   7.964
 1600POPC   C4A22926  29.103  15.174   7.664
 1600POPC   C1B22927  29.074  15.397   8.564
 1600POPC   C2B22928  29.022  15.435   8.264
 1600POPC   C3B22929  29.027  15.455   7.964
 1600POPC   C4B22930  29.091  15.417   7.664
 1601POPC   NC322931  16.731  21.422   9.464
 1601POPC   PO422932  16.754  21.359   9.164
 1601POPC   GL122933  16.681  21.379   8.864
 1601POPC   GL222934  16.879  21.357   8.864
 1601POPC   C1A22935  16.765  21.364   8.564
 1601POPC   D2A22936  16.729  21.342   8.264
 1601POPC   C3A22937  16.738  21.404   7.964
 1601POPC   C4A22938  16.711  21.384   7.664
 1601POPC   C1B22939  16.992  21.310   8.564
 1601POPC   C2B22940  16.922  21.298   8.264
 1601POPC   C3B22941  16.932  21.317   7.964
 1601POPC   C4B22942  16.995  21.320   7.664
 1602POPC   NC322943  36.095   1.217   9.464
 1602POPC   PO422944  36.153   1.179   9.164
 1602POPC   GL122945  36.142   1.206   8.864
 1602POPC   GL222946  36.086   1.128   8.864
 1602POPC   C1A22947  36.095   1.259   8.564
 1602POPC   D2A22948  36.161   1.181   8.264
 1602POPC   C3A22949  36.101   1.193   7.964
 1602POPC   C4A22950  36.092   1.188   7.664
 1602POPC   C1B22951  36.060   0.997   8.564
 1602POPC   C2B22952  36.141   0.966   8.264
 1602POPC   C3B22953  36.080   0.983   7.964
 1602POPC   C4B22954  36.089   0.959   7.664
 1603POPC   NC322955  22.185  29.144   9.464
 1603POPC   PO422956  22.154  29.110   9.164
 1603POPC   GL122957  22.132  29.098   8.864
 1603POPC   GL222958  22.274  29.239   8.864
 1603POPC   C1A22959  22.163  29.111   8.564
 1603POPC   D2A22960  22.203  29.172   8.264
 1603POPC   C3A22961  22.179  29.148   7.964
 1603POPC   C4A22962  22.197  29.100   7.664
 1603POPC   C1B22963  22.372  29.251   8.564
 1603POPC   C2B22964  22.336  29.304   8.264
 1603POPC   C3B22965  22.372  29.258   7.964
 1603POPC   C4B22966  22.341  29.286   7.664
 1604POPC   NC322967  28.359  40.056   9.464
 1604POPC   PO422968  28.412  40.011   9.164
 1604POPC   GL122969  28.362  40.009   8.864
 1604POPC   GL222970  28.355  40.137   8.864
 1604POPC   C1A22971  28.335  39.967   8.564
 1604POPC   D2A22972  28.418  39.984   8.264
 1604POPC   C3A22973  28.320  40.033   7.964
 1604POPC   C4A22974  28.324  39.960   7.664
 1604POPC   C1B22975  28.474  40.211   8.564
 1604POPC   C2B22976  28.427  40.240   8.264
 1604POPC   C3B22977  28.423  40.205   7.964
 1604POPC   C4B22978  28.418  40.251   7.664
 1605POPC   NC322979  12.873   8.965   9.464
 1605POPC   PO422980  12.876   8.978   9.164
 1605POPC   GL122981  12.852   8.977   8.864
 1605POPC   GL222982  12.833   9.133   8.864
 1605POPC   C1A22983  12.848   9.022   8.564
 1605POPC   D2A22984  12.889   8.923   8.264
 1605POPC   C3A22985  12.835   8.940   7.964
 1605POPC   C4A22986  12.857   8.943   7.664
 1605POPC   C1B22987  12.874   9.263   8.564
 1605POPC   C2B22988  12.852   9.238   8.264
 1605POPC   C3B22989  12.856   9.213   7.964
 1605POPC   C4B22990  12.872   9.268   7.664
 1606POPC   NC322991   5.132  36.102   9.464
 1606POPC   PO422992   5.125  36.104   9.164
 1606POPC   GL122993   5.108  36.143   8.864
 1606POPC   GL222994   5.191  36.053   8.864
 1606POPC   C1A22995   5.100  36.128   8.564
 1606POPC   D2A22996   5.052  36.143   8.264
 1606POPC   C3A22997   5.098  36.128   7.964
 1606POPC   C4A22998   5.099  36.178   7.664
 1606POPC   C1B22999   5.247  35.937   8.564
 1606POPC   C2B23000   5.279  35.987   8.264
 1606POPC   C3B23001   5.334  35.939   7.964
 1606POPC   C4B23002   5.256  36.013   7.664
 1607POPC   NC323003   6.671  12.804   9.464
 1607POPC   PO423004   6.671  12.858   9.164
 1607POPC   GL123005   6.678  12.829   8.864
 1607POPC   GL223006   6.680  12.993   8.864
 1607POPC   C1A23007   6.601  12.881   8.564
 1607POPC   D2A23008   6.637  12.825   8.264
 1607POPC   C3A23009   6.627  12.802   7.964
 1607POPC   C4A23010   6.647  12.887   7.664
 1607POPC   C1B23011   6.632  13.074   8.564
 1607POPC   C2B23012   6.655  13.069   8.264
 1607POPC   C3B23013   6.637  13.113   7.964
 1607POPC   C4B23014   6.660  13.124   7.664
 1608POPC   NC323015  11.268  43.150   9.464
 1608POPC   PO423016  11.276  43.137   9.164
 1608POPC   GL123017  11.282  43.081   8.864
 1608POPC   GL223018  11.161  43.109   8.864
 1608POPC   C1A23019  11.324  43.130   8.564
 1608POPC   D2A23020  11.304  43.151   8.264
 1608POPC   C3A23021  11.343  43.137   7.964
 1608POPC   C4A23022  11.299  43.151   7.664
 1608POPC   C1B23023  11.033  43.111   8.564
 1608POPC   C2B23024  11.024  43.112   8.264
 1608POPC   C3B23025  11.038  43.155   7.964
 1608POPC   C4B23026  11.050  43.172   7.664
 1609POPC   NC323027   2.004  36.078   9.464
 1609POPC   PO423028   2.016  36.078   9.164
 1609POPC   GL123029   2.038  36.115   8.864
 1609POPC   GL223030   2.141  36.178   8.864
 1609POPC   C1A23031   1.987  36.118   8.564
 1609POPC   D2A23032   2.007  36.172   8.264
 1609POPC   C3A23033   2.029  36.113   7.964
 1609POPC   C4A23034   1.998  36.105   7.664
 1609POPC   C1B23035   2.260  36.122   8.564
 1609POPC   C2B23036   2.252  36.155   8.264
 1609POPC   C3B23037   2.227  36.183   7.964
 1609POPC   C4B23038   2.251  36.112   7.664
 1610POPC   NC323039  19.103  11.328   9.464
 1610POPC   PO423040  19.043  11.340   9.164
 1610POPC   GL123041  19.058  11.253   8.864
 1610POPC   GL223042  19.081  11.418   8.864
 1610POPC   C1A23043  19.034  11.261   8.564
 1610POPC   D2A23044  19.046  11.271   8.264
 1610POPC   C3A23045  19.072  11.332   7.964
 1610POPC   C4A23046  19.023  11.289   7.664
 1610POPC   C1B23047  19.059  11.580   8.564
 1610POPC   C2B23048  19.132  11.587   8.264
 1610POPC   C3B23049  19.092  11.548   7.964
 1610POPC   C4B23050  19.080  11.532   7.664
 1611POPC   NC323051  19.791   7.438   9.464
 1611POPC   PO423052  19.883   7.449   9.164
 1611POPC   GL123053  19.859   7.391   8.864
 1611POPC   GL223054  19.914   7.367   8.864
 1611POPC   C1A23055  19.804   7.449   8.564
 1611POPC   D2A23056  19.840   7.401   8.264
 1611POPC   C3A23057  19.824   7.416   7.964
 1611POPC   C4A23058  19.843   7.390   7.664
 1611POPC   C1B23059  20.078   7.368   8.564
 1611POPC   C2B23060  20.040   7.366   8.264
 1611POPC   C3B23061  20.064   7.330   7.964
 1611POPC   C4B23062  20.042   7.348   7.664
 1612POPC   NC323063  19.826  16.712   9.464
 1612POPC   PO423064  19.849  16.751   9.164
 1612POPC   GL123065  19.854  16.723   8.864
 1612POPC   GL223066  19.673  16.741   8.864
 1612POPC   C1A23067  19.853  16.693   8.564
 1612POPC   D2A23068  19.832  16.727   8.264
 1612POPC   C3A23069  19.797  16.682   7.964
 1612POPC   C4A23070  19.830  16.683   7.664
 1612POPC   C1B23071  19.611  16.772   8.564
 1612POPC   C2B23072  19.638  16.829   8.264
 1612POPC   C3B23073  19.607  16.799   7.964
 1612POPC   C4B23074  19.551  16.769   7.664
 1613POPC   NC323075  20.623  43.912   9.464
 1613POPC   PO423076  20.650  43.849   9.164
 1613POPC   GL123077  20.628  43.894   8.864
 1613POPC   GL223078  20.707  43.852   8.864
 1613POPC   C1A23079  20.595  43.860   8.564
 1613POPC   D2A23080  20.608  43.932   8.264
 1613POPC   C3A23081  20.578  43.849   7.964
 1613POPC   C4A23082  20.639  43.883   7.664
 1613POPC   C1B23083  20.812  43.893   8.564
 1613POPC   C2B23084  20.825  43.914   8.264
 1613POPC   C3B23085  20.827  43.915   7.964
 1613POPC   C4B23086  20.811  43.929   7.664
 1614POPC   NC323087   1.236  26.000   9.464
 1614POPC   PO423088   1.181  26.029   9.164
 1614POPC   GL123089   1.214  26.038   8.864
 1614POPC   GL223090   1.286  26.073   8.864
 1614POPC   C1A23091   1.196  26.025   8.564
 1614POPC   D2A23092   1.174  26.022   8.264
 1614POPC   C3A23093   1.222  25.994   7.964
 1614POPC   C4A23094   1.190  26.040   7.664
 1614POPC   C1B23095   1.471  26.118   8.564
 1614POPC   C2B23096   1.479  26.115   8.264
 1614POPC   C3B23097   1.478  26.173   7.964
 1614POPC   C4B23098   1.439  26.095   7.664
 1615POPC   NC323099  26.797  33.784   9.464
 1615POPC   PO423100  26.824  33.777   9.164
 1615POPC   GL123101  26.850  33.776   8.864
 1615POPC   GL223102  26.976  33.773   8.864
 1615POPC   C1A23103  26.808  33.764   8.564
 1615POPC   D2A23104  26.809  33.755   8.264
 1615POPC   C3A23105  26.829  33.802   7.964
 1615POPC   C4A23106  26.810  33.756   7.664
 1615POPC   C1B23107  27.105  33.720   8.564
 1615POPC   C2B23108  27.024  33.699   8.264
 1615POPC   C3B23109  27.050  33.722   7.964
 1615POPC   C4B23110  27.085  33.693   7.664
 1616POPC   NC323111  15.190  30.735   9.464
 1616POPC   PO423112  15.154  30.736   9.164
 1616POPC   GL123113  15.213  30.676   8.864
 1616POPC   GL223114  15.274  30.814   8.864
 1616POPC   C1A23115  15.146  30.701   8.564
 1616POPC   D2A23116  15.212  30.669   8.264
 1616POPC   C3A23117  15.131  30.744   7.964
 1616POPC   C4A23118  15.187  30.657   7.664
 1616POPC   C1B23119  15.407  30.908   8.564
 1616POPC   C2B23120  15.378  30.877   8.264
 1616POPC   C3B23121  15.363  30.826   7.964
 1616POPC   C4B23122  15.395  30.908   7.664
 1617POPC   NC323123  24.449  11.309   9.464
 1617POPC   PO423124  24.519  11.305   9.164
 1617POPC   GL123125  24.447  11.330   8.864
 1617POPC   GL223126  24.608  11.276   8.864
 1617POPC   C1A23127  24.513  11.298   8.564
 1617POPC   D2A23128  24.499  11.349   8.264
 1617POPC   C3A23129  24.484  11.323   7.964
 1617POPC   C4A23130  24.452  11.346   7.664
 1617POPC   C1B23131  24.703  11.151   8.564
 1617POPC   C2B23132  24.675  11.159   8.264
 1617POPC   C3B23133  24.670  11.169   7.964
 1617POPC   C4B23134  24.729  11.214   7.664
 1618POPC   NC323135  24.524  25.260   9.464
 1618POPC   PO423136  24.515  25.252   9.164
 1618POPC   GL123137  24.446  25.313   8.864
 1618POPC   GL223138  24.623  25.235   8.864
 1618POPC   C1A23139  24.451  25.236   8.564
 1618POPC   D2A23140  24.442  25.315   8.264
 1618POPC   C3A23141  24.512  25.248   7.964
 1618POPC   C4A23142  24.512  25.282   7.664
 1618POPC   C1B23143  24.664  25.116   8.564
 1618POPC   C2B23144  24.683  25.060   8.264
 1618POPC   C3B23145  24.636  25.154   7.964
 1618POPC   C4B23146  24.679  25.153   7.664
 1619POPC   NC323147  18.236  25.236   9.464
 1619POPC   PO423148  18.318  25.252   9.164
 1619POPC   GL123149  18.316  25.273   8.864
 1619POPC   GL223150  18.150  25.244   8.864
 1619POPC   C1A23151  18.271  25.292   8.564
 1619POPC   D2A23152  18.274  25.298   8.264
 1619POPC   C3A23153  18.233  25.237   7.964
 1619POPC   C4A23154  18.236  25.231   7.664
 1619POPC   C1B23155  18.038  25.262   8.564
 1619POPC   C2B23156  18.015  25.273   8.264
 1619POPC   C3B23157  17.994  25.276   7.964
 1619POPC   C4B23158  18.053  25.236   7.664
 1620POPC   NC323159  30.663  39.191   9.464
 1620POPC   PO423160  30.738  39.271   9.164
 1620POPC   GL123161  30.734  39.236   8.864
 1620POPC   GL223162  30.608  39.364   8.864
 1620POPC   C1A23163  30.716  39.266   8.564
 1620POPC   D2A23164  30.647  39.217   8.264
 1620POPC   C3A23165  30.714  39.243   7.964
 1620POPC   C4A23166  30.709  39.274   7.664
 1620POPC   C1B23167  30.505  39.472   8.564
 1620POPC   C2B23168  30.501  39.406   8.264
 1620POPC   C3B23169  30.540  39.448   7.964
 1620POPC   C4B23170  30.538  39.472   7.664
 1621POPC   NC323171  20.601  32.251   9.464
 1621POPC   PO423172  20.583  32.272   9.164
 1621POPC   GL123173  20.618  32.219   8.864
 1621POPC   GL223174  20.742  32.318   8.864
 1621POPC   C1A23175  20.602  32.273   8.564
 1621POPC   D2A23176  20.633  32.244   8.264
 1621POPC   C3A23177  20.622  32.207   7.964
 1621POPC   C4A23178  20.657  32.206   7.664
 1621POPC   C1B23179  20.794  32.358   8.564
 1621POPC   C2B23180  20.805  32.387   8.264
 1621POPC   C3B23181  20.875  32.334   7.964
 1621POPC   C4B23182  20.795  32.328   7.664
 1622POPC   NC323183  40.742  27.607   9.464
 1622POPC   PO423184  40.742  27.582   9.164
 1622POPC   GL123185  40.761  27.567   8.864
 1622POPC   GL223186  40.910  27.584   8.864
 1622POPC   C1A23187  40.824  27.582   8.564
 1622POPC   D2A23188  40.774  27.564   8.264
 1622POPC   C3A23189  40.827  27.641   7.964
 1622POPC   C4A23190  40.743  27.610   7.664
 1622POPC   C1B23191  41.047  27.478   8.564
 1622POPC   C2B23192  41.014  27.474   8.264
 1622POPC   C3B23193  41.024  27.490   7.964
 1622POPC   C4B23194  41.013  27.480   7.664
 1623POPC   NC323195  27.603  21.389   9.464
 1623POPC   PO423196  27.638  21.366   9.164
 1623POPC   GL123197  27.586  21.427   8.864
 1623POPC   GL223198  27.472  21.437   8.864
 1623POPC   C1A23199  27.567  21.415   8.564
 1623POPC   D2A23200  27.596  21.374   8.264
 1623POPC   C3A23201  27.579  21.401   7.964
 1623POPC   C4A23202  27.596  21.430   7.664
 1623POPC   C1B23203  27.354  21.475   8.564
 1623POPC   C2B23204  27.377  21.452   8.264
 1623POPC   C3B23205  27.343  21.438   7.964
 1623POPC   C4B23206  27.369  21.442   7.664
 1624POPC   NC323207   4.341  41.537   9.464
 1624POPC   PO423208   4.341  41.509   9.164
 1624POPC   GL123209   4.352  41.582   8.864
 1624POPC   GL223210   4.232  41.571   8.864
 1624POPC   C1A23211   4.297  41.572   8.564
 1624POPC   D2A23212   4.310  41.595   8.264
 1624POPC   C3A23213   4.314  41.566   7.964
 1624POPC   C4A23214   4.356  41.547   7.664
 1624POPC   C1B23215   4.123  41.651   8.564
 1624POPC   C2B23216   4.065  41.667   8.264
 1624POPC   C3B23217   4.069  41.600   7.964
 1624POPC   C4B23218   4.116  41.632   7.664
 1625POPC   NC323219  27.551   5.909   9.464
 1625POPC   PO423220  27.607   5.867   9.164
 1625POPC   GL123221  27.589   5.831   8.864
 1625POPC   GL223222  27.718   5.776   8.864
 1625POPC   C1A23223  27.611   5.848   8.564
 1625POPC   D2A23224  27.576   5.850   8.264
 1625POPC   C3A23225  27.592   5.919   7.964
 1625POPC   C4A23226  27.559   5.844   7.664
 1625POPC   C1B23227  27.730   5.700   8.564
 1625POPC   C2B23228  27.742   5.636   8.264
 1625POPC   C3B23229  27.782   5.650   7.964
 1625POPC   C4B23230  27.807   5.699   7.664
 1626POPC   NC323231  30.698  43.844   9.464
 1626POPC   PO423232  30.714  43.859   9.164
 1626POPC   GL123233  30.705  43.871   8.864
 1626POPC   GL223234  30.593  43.944   8.864
 1626POPC   C1A23235  30.702  43.836   8.564
 1626POPC   D2A23236  30.740  43.847   8.264
 1626POPC   C3A23237  30.720  43.928   7.964
 1626POPC   C4A23238  30.737  43.861   7.664
 1626POPC   C1B23239  30.493  44.015   8.564
 1626POPC   C2B23240  30.457  43.960   8.264
 1626POPC   C3B23241  30.449  43.972   7.964
 1626POPC   C4B23242  30.462  43.997   7.664
 1627POPC   NC323243  44.695  11.283   9.464
 1627POPC   PO423244  44.688  11.327   9.164
 1627POPC   GL123245  44.708  11.291   8.864
 1627POPC   GL223246  44.634  11.418   8.864
 1627POPC   C1A23247  44.681  11.281   8.564
 1627POPC   D2A23248  44.638  11.253   8.264
 1627POPC   C3A23249  44.648  11.269   7.964
 1627POPC   C4A23250  44.691  11.271   7.664
 1627POPC   C1B23251  44.679  11.553   8.564
 1627POPC   C2B23252  44.652  11.552   8.264
 1627POPC   C3B23253  44.619  11.547   7.964
 1627POPC   C4B23254  44.693  11.576   7.664
 1628POPC   NC323255  25.289  33.050   9.464
 1628POPC   PO423256  25.238  33.059   9.164
 1628POPC   GL123257  25.302  33.000   8.864
 1628POPC   GL223258  25.145  32.897   8.864
 1628POPC   C1A23259  25.219  33.016   8.564
 1628POPC   D2A23260  25.256  32.975   8.264
 1628POPC   C3A23261  25.246  32.978   7.964
 1628POPC   C4A23262  25.276  33.019   7.664
 1628POPC   C1B23263  25.100  32.830   8.564
 1628POPC   C2B23264  25.089  32.798   8.264
 1628POPC   C3B23265  25.162  32.801   7.964
 1628POPC   C4B23266  25.142  32.826   7.664
 1629POPC   NC323267   9.769   2.744   9.464
 1629POPC   PO423268   9.794   2.815   9.164
 1629POPC   GL123269   9.724   2.729   8.864
 1629POPC   GL223270   9.844   2.845   8.864
 1629POPC   C1A23271   9.715   2.813   8.564
 1629POPC   D2A23272   9.775   2.781   8.264
 1629POPC   C3A23273   9.739   2.807   7.964
 1629POPC   C4A23274   9.783   2.779   7.664
 1629POPC   C1B23275   9.917   2.926   8.564
 1629POPC   C2B23276   9.905   2.952   8.264
 1629POPC   C3B23277   9.920   2.912   7.964
 1629POPC   C4B23278   9.911   2.978   7.664
 1630POPC   NC323279  30.671  36.157   9.464
 1630POPC   PO423280  30.681  36.107   9.164
 1630POPC   GL123281  30.721  36.081   8.864
 1630POPC   GL223282  30.787  36.108   8.864
 1630POPC   C1A23283  30.663  36.149   8.564
 1630POPC   D2A23284  30.657  36.157   8.264
 1630POPC   C3A23285  30.669  36.177   7.964
 1630POPC   C4A23286  30.739  36.173   7.664
 1630POPC   C1B23287  30.951  36.085   8.564
 1630POPC   C2B23288  30.938  36.126   8.264
 1630POPC   C3B23289  30.898  36.157   7.964
 1630POPC   C4B23290  30.979  36.120   7.664
 1631POPC   NC323291   8.208   3.579   9.464
 1631POPC   PO423292   8.215   3.562   9.164
 1631POPC   GL123293   8.175   3.573   8.864
 1631POPC   GL223294   8.099   3.519   8.864
 1631POPC   C1A23295   8.230   3.500   8.564
 1631POPC   D2A23296   8.163   3.547   8.264
 1631POPC   C3A23297   8.214   3.499   7.964
 1631POPC   C4A23298   8.151   3.559   7.664
 1631POPC   C1B23299   7.977   3.544   8.564
 1631POPC   C2B23300   7.965   3.605   8.264
 1631POPC   C3B23301   7.913   3.598   7.964
 1631POPC   C4B23302   7.991   3.627   7.664
 1632POPC   NC323303   2.803   2.016   9.464
 1632POPC   PO423304   2.770   1.987   9.164
 1632POPC   GL123305   2.745   2.033   8.864
 1632POPC   GL223306   2.843   1.818   8.864
 1632POPC   C1A23307   2.799   1.966   8.564
 1632POPC   D2A23308   2.748   2.029   8.264
 1632POPC   C3A23309   2.800   1.991   7.964
 1632POPC   C4A23310   2.740   1.969   7.664
 1632POPC   C1B23311   2.850   1.790   8.564
 1632POPC   C2B23312   2.854   1.744   8.264
 1632POPC   C3B23313   2.787   1.757   7.964
 1632POPC   C4B23314   2.772   1.786   7.664
 1633POPC   NC323315  23.719  36.101   9.464
 1633POPC   PO423316  23.721  36.098   9.164
 1633POPC   GL123317  23.753  36.108   8.864
 1633POPC   GL223318  23.854  36.037   8.864
 1633POPC   C1A23319  23.708  36.104   8.564
 1633POPC   D2A23320  23.696  36.118   8.264
 1633POPC   C3A23321  23.705  36.130   7.964
 1633POPC   C4A23322  23.668  36.106   7.664
 1633POPC   C1B23323  23.929  35.976   8.564
 1633POPC   C2B23324  23.912  36.001   8.264
 1633POPC   C3B23325  23.937  35.920   7.964
 1633POPC   C4B23326  23.943  35.994   7.664
 1634POPC   NC323327  29.891   8.925   9.464
 1634POPC   PO423328  29.923   9.006   9.164
 1634POPC   GL123329  29.941   8.955   8.864
 1634POPC   GL223330  29.995   8.924   8.864
 1634POPC   C1A23331  29.938   8.984   8.564
 1634POPC   D2A23332  29.927   8.955   8.264
 1634POPC   C3A23333  29.950   8.988   7.964
 1634POPC   C4A23334  29.920   8.925   7.664
 1634POPC   C1B23335  30.196   8.914   8.564
 1634POPC   C2B23336  30.173   8.941   8.264
 1634POPC   C3B23337  30.170   8.974   7.964
 1634POPC   C4B23338  30.154   8.981   7.664
 1635POPC   NC323339  38.503  32.214   9.464
 1635POPC   PO423340  38.443  32.270   9.164
 1635POPC   GL123341  38.460  32.248   8.864
 1635POPC   GL223342  38.549  32.228   8.864
 1635POPC   C1A23343  38.467  32.286   8.564
 1635POPC   D2A23344  38.434  32.234   8.264
 1635POPC   C3A23345  38.467  32.211   7.964
 1635POPC   C4A23346  38.414  32.203   7.664
 1635POPC   C1B23347  38.686  32.253   8.564
 1635POPC   C2B23348  38.745  32.324   8.264
 1635POPC   C3B23349  38.724  32.282   7.964
 1635POPC   C4B23350  38.682  32.249   7.664
 1636POPC   NC323351  22.182  26.783   9.464
 1636POPC   PO423352  22.142  26.810   9.164
 1636POPC   GL123353  22.128  26.851   8.864
 1636POPC   GL223354  22.265  26.926   8.864
 1636POPC   C1A23355  22.135  26.858   8.564
 1636POPC   D2A23356  22.167  26.862   8.264
 1636POPC   C3A23357  22.151  26.836   7.964
 1636POPC   C4A23358  22.163  26.780   7.664
 1636POPC   C1B23359  22.396  26.929   8.564
 1636POPC   C2B23360  22.379  26.997   8.264
 1636POPC   C3B23361  22.313  26.969   7.964
 1636POPC   C4B23362  22.317  26.973   7.664
 1637POPC   NC323363  44.691  41.562   9.464
 1637POPC   PO423364  44.644  41.539   9.164
 1637POPC   GL123365  44.679  41.583   8.864
 1637POPC   GL223366  44.599  41.456   8.864
 1637POPC   C1A23367  44.647  41.525   8.564
 1637POPC   D2A23368  44.659  41.541   8.264
 1637POPC   C3A23369  44.631  41.603   7.964
 1637POPC   C4A23370  44.663  41.550   7.664
 1637POPC   C1B23371  44.476  41.327   8.564
 1637POPC   C2B23372  44.502  41.315   8.264
 1637POPC   C3B23373  44.533  41.312   7.964
 1637POPC   C4B23374  44.519  41.399   7.664
 1638POPC   NC323375  35.327   9.729   9.464
 1638POPC   PO423376  35.372   9.796   9.164
 1638POPC   GL123377  35.361   9.733   8.864
 1638POPC   GL223378  35.396   9.881   8.864
 1638POPC   C1A23379  35.398   9.763   8.564
 1638POPC   D2A23380  35.345   9.761   8.264
 1638POPC   C3A23381  35.371   9.710   7.964
 1638POPC   C4A23382  35.327   9.739   7.664
 1638POPC   C1B23383  35.472   9.981   8.564
 1638POPC   C2B23384  35.481   9.925   8.264
 1638POPC   C3B23385  35.429   9.986   7.964
 1638POPC   C4B23386  35.445   9.971   7.664
 1639POPC   NC323387   3.558   4.342   9.464
 1639POPC   PO423388   3.558   4.344   9.164
 1639POPC   GL123389   3.563   4.304   8.864
 1639POPC   GL223390   3.627   4.299   8.864
 1639POPC   C1A23391   3.573   4.313   8.564
 1639POPC   D2A23392   3.523   4.297   8.264
 1639POPC   C3A23393   3.532   4.308   7.964
 1639POPC   C4A23394   3.534   4.343   7.664
 1639POPC   C1B23395   3.745   4.269   8.564
 1639POPC   C2B23396   3.799   4.309   8.264
 1639POPC   C3B23397   3.778   4.290   7.964
 1639POPC   C4B23398   3.798   4.340   7.664
 1640POPC   NC323399   5.133  12.074   9.464
 1640POPC   PO423400   5.105  12.030   9.164
 1640POPC   GL123401   5.129  12.120   8.864
 1640POPC   GL223402   5.059  11.949   8.864
 1640POPC   C1A23403   5.135  12.033   8.564
 1640POPC   D2A23404   5.072  12.092   8.264
 1640POPC   C3A23405   5.062  12.062   7.964
 1640POPC   C4A23406   5.063  12.086   7.664
 1640POPC   C1B23407   5.103  11.823   8.564
 1640POPC   C2B23408   5.103  11.847   8.264
 1640POPC   C3B23409   5.070  11.802   7.964
 1640POPC   C4B23410   5.076  11.779   7.664
 1641POPC   NC323411  44.649   1.260   9.464
 1641POPC   PO423412  44.668   1.189   9.164
 1641POPC   GL123413  44.686   1.197   8.864
 1641POPC   GL223414  44.593   1.142   8.864
 1641POPC   C1A23415  44.650   1.169   8.564
 1641POPC   D2A23416  44.699   1.194   8.264
 1641POPC   C3A23417  44.625   1.200   7.964
 1641POPC   C4A23418  44.702   1.192   7.664
 1641POPC   C1B23419  44.529   1.019   8.564
 1641POPC   C2B23420  44.528   1.071   8.264
 1641POPC   C3B23421  44.507   0.995   7.964
 1641POPC   C4B23422  44.483   1.062   7.664
 1642POPC   NC323423   6.670  25.302   9.464
 1642POPC   PO423424   6.682  25.275   9.164
 1642POPC   GL123425   6.615  25.295   8.864
 1642POPC   GL223426   6.524  25.355   8.864
 1642POPC   C1A23427   6.667  25.277   8.564
 1642POPC   D2A23428   6.619  25.304   8.264
 1642POPC   C3A23429   6.636  25.264   7.964
 1642POPC   C4A23430   6.632  25.267   7.664
 1642POPC   C1B23431   6.425  25.443   8.564
 1642POPC   C2B23432   6.445  25.382   8.264
 1642POPC   C3B23433   6.406  25.386   7.964
 1642POPC   C4B23434   6.466  25.440   7.664
 1643POPC   NC323435  25.216  19.825   9.464
 1643POPC   PO423436  25.255  19.849   9.164
 1643POPC   GL123437  25.260  19.812   8.864
 1643POPC   GL223438  25.157  19.905   8.864
 1643POPC   C1A23439  25.293  19.861   8.564
 1643POPC   D2A23440  25.231  19.822   8.264
 1643POPC   C3A23441  25.238  19.795   7.964
 1643POPC   C4A23442  25.226  19.801   7.664
 1643POPC   C1B23443  25.004  19.948   8.564
 1643POPC   C2B23444  25.076  19.937   8.264
 1643POPC   C3B23445  25.090  19.951   7.964
 1643POPC   C4B23446  25.085  19.946   7.664
 1644POPC   NC323447  36.925  15.214   9.464
 1644POPC   PO423448  36.928  15.185   9.164
 1644POPC   GL123449  36.939  15.205   8.864
 1644POPC   GL223450  36.869  15.095   8.864
 1644POPC   C1A23451  36.917  15.130   8.564
 1644POPC   D2A23452  36.889  15.131   8.264
 1644POPC   C3A23453  36.879  15.165   7.964
 1644POPC   C4A23454  36.906  15.210   7.664
 1644POPC   C1B23455  36.738  14.925   8.564
 1644POPC   C2B23456  36.791  14.961   8.264
 1644POPC   C3B23457  36.801  15.009   7.964
 1644POPC   C4B23458  36.721  14.935   7.664
 1645POPC   NC323459  39.230  37.652   9.464
 1645POPC   PO423460  39.237  37.679   9.164
 1645POPC   GL123461  39.244  37.711   8.864
 1645POPC   GL223462  39.317  37.789   8.864
 1645POPC   C1A23463  39.209  37.699   8.564
 1645POPC   D2A23464  39.243  37.703   8.264
 1645POPC   C3A23465  39.279  37.676   7.964
 1645POPC   C4A23466  39.269  37.655   7.664
 1645POPC   C1B23467  39.356  37.920   8.564
 1645POPC   C2B23468  39.272  37.898   8.264
 1645POPC   C3B23469  39.281  37.867   7.964
 1645POPC   C4B23470  39.356  37.956   7.664
 1646POPC   NC323471   6.672  13.653   9.464
 1646POPC   PO423472   6.607  13.619   9.164
 1646POPC   GL123473   6.630  13.671   8.864
 1646POPC   GL223474   6.779  13.527   8.864
 1646POPC   C1A23475   6.656  13.643   8.564
 1646POPC   D2A23476   6.692  13.662   8.264
 1646POPC   C3A23477   6.598  13.606   7.964
 1646POPC   C4A23478   6.660  13.616   7.664
 1646POPC   C1B23479   6.828  13.507   8.564
 1646POPC   C2B23480   6.921  13.538   8.264
 1646POPC   C3B23481   6.850  13.562   7.964
 1646POPC   C4B23482   6.850  13.527   7.664
 1647POPC   NC323483  12.071  36.163   9.464
 1647POPC   PO423484  12.034  36.115   9.164
 1647POPC   GL123485  12.049  36.154   8.864
 1647POPC   GL223486  12.031  36.039   8.864
 1647POPC   C1A23487  12.042  36.083   8.564
 1647POPC   D2A23488  12.029  36.141   8.264
 1647POPC   C3A23489  12.029  36.137   7.964
 1647POPC   C4A23490  12.034  36.142   7.664
 1647POPC   C1B23491  11.993  35.934   8.564
 1647POPC   C2B23492  11.953  35.918   8.264
 1647POPC   C3B23493  12.000  35.939   7.964
 1647POPC   C4B23494  12.021  35.901   7.664
 1648POPC   NC323495   5.100  41.598   9.464
 1648POPC   PO423496   5.131  41.595   9.164
 1648POPC   GL123497   5.058  41.550   8.864
 1648POPC   GL223498   5.090  41.653   8.864
 1648POPC   C1A23499   5.059  41.553   8.564
 1648POPC   D2A23500   5.116  41.564   8.264
 1648POPC   C3A23501   5.114  41.592   7.964
 1648POPC   C4A23502   5.093  41.543   7.664
 1648POPC   C1B23503   5.022  41.818   8.564
 1648POPC   C2B23504   5.043  41.822   8.264
 1648POPC   C3B23505   5.021  41.797   7.964
 1648POPC   C4B23506   5.083  41.809   7.664
 1649POPC   NC323507  12.062   9.761   9.464
 1649POPC   PO423508  12.112   9.789   9.164
 1649POPC   GL123509  12.036   9.729   8.864
 1649POPC   GL223510  12.152   9.820   8.864
 1649POPC   C1A23511  12.070   9.701   8.564
 1649POPC   D2A23512  12.035   9.738   8.264
 1649POPC   C3A23513  12.037   9.762   7.964
 1649POPC   C4A23514  12.052   9.758   7.664
 1649POPC   C1B23515  12.178  10.007   8.564
 1649POPC   C2B23516  12.195   9.937   8.264
 1649POPC   C3B23517  12.202   9.970   7.964
 1649POPC   C4B23518  12.214   9.970   7.664
 1650POPC   NC323519  43.116  35.350   9.464
 1650POPC   PO423520  43.142  35.302   9.164
 1650POPC   GL123521  43.142  35.367   8.864
 1650POPC   GL223522  43.246  35.357   8.864
 1650POPC   C1A23523  43.080  35.387   8.564
 1650POPC   D2A23524  43.102  35.372   8.264
 1650POPC   C3A23525  43.149  35.328   7.964
 1650POPC   C4A23526  43.112  35.358   7.664
 1650POPC   C1B23527  43.340  35.270   8.564
 1650POPC   C2B23528  43.389  35.312   8.264
 1650POPC   C3B23529  43.305  35.312   7.964
 1650POPC   C4B23530  43.315  35.284   7.664
 1651POPC   NC323531  18.251  26.860   9.464
 1651POPC   PO423532  18.253  26.778   9.164
 1651POPC   GL123533  18.286  26.823   8.864
 1651POPC   GL223534  18.261  26.905   8.864
 1651POPC   C1A23535  18.289  26.849   8.564
 1651POPC   D2A23536  18.276  26.774   8.264
 1651POPC   C3A23537  18.246  26.786   7.964
 1651POPC   C4A23538  18.271  26.775   7.664
 1651POPC   C1B23539  18.324  27.021   8.564
 1651POPC   C2B23540  18.302  27.114   8.264
 1651POPC   C3B23541  18.298  27.115   7.964
 1651POPC   C4B23542  18.273  27.069   7.664
 1652POPC   NC323543   1.968   1.259   9.464
 1652POPC   PO423544   1.944   1.254   9.164
 1652POPC   GL123545   1.964   1.183   8.864
 1652POPC   GL223546   2.092   1.256   8.864
 1652POPC   C1A23547   1.960   1.208   8.564
 1652POPC   D2A23548   1.960   1.257   8.264
 1652POPC   C3A23549   2.039   1.260   7.964
 1652POPC   C4A23550   1.988   1.171   7.664
 1652POPC   C1B23551   2.285   1.180   8.564
 1652POPC   C2B23552   2.204   1.199   8.264
 1652POPC   C3B23553   2.287   1.185   7.964
 1652POPC   C4B23554   2.247   1.203   7.664
 1653POPC   NC323555   8.953  40.782   9.464
 1653POPC   PO423556   8.985  40.753   9.164
 1653POPC   GL123557   8.989  40.806   8.864
 1653POPC   GL223558   9.089  40.756   8.864
 1653POPC   C1A23559   8.930  40.761   8.564
 1653POPC   D2A23560   9.004  40.812   8.264
 1653POPC   C3A23561   8.989  40.740   7.964
 1653POPC   C4A23562   8.986  40.777   7.664
 1653POPC   C1B23563   9.234  40.732   8.564
 1653POPC   C2B23564   9.174  40.742   8.264
 1653POPC   C3B23565   9.217  40.708   7.964
 1653POPC   C4B23566   9.172  40.688   7.664
 1654POPC   NC323567  32.224   5.094   9.464
 1654POPC   PO423568  32.213   5.108   9.164
 1654POPC   GL123569  32.201   5.138   8.864
 1654POPC   GL223570  32.124   5.054   8.864
 1654POPC   C1A23571  32.251   5.087   8.564
 1654POPC   D2A23572  32.243   5.105   8.264
 1654POPC   C3A23573  32.276   5.128   7.964
 1654POPC   C4A23574  32.288   5.087   7.664
 1654POPC   C1B23575  32.038   5.116   8.564
 1654POPC   C2B23576  32.038   5.079   8.264
 1654POPC   C3B23577  32.045   5.143   7.964
 1654POPC   C4B23578  32.017   5.074   7.664
 1655POPC   NC323579  13.649  38.488   9.464
 1655POPC   PO423580  13.578  38.490   9.164
 1655POPC   GL123581  13.647  38.418   8.864
 1655POPC   GL223582  13.738  38.458   8.864
 1655POPC   C1A23583  13.671  38.442   8.564
 1655POPC   D2A23584  13.587  38.454   8.264
 1655POPC   C3A23585  13.606  38.503   7.964
 1655POPC   C4A23586  13.630  38.477   7.664
 1655POPC   C1B23587  13.857  38.511   8.564
 1655POPC   C2B23588  13.859  38.498   8.264
 1655POPC   C3B23589  13.902  38.508   7.964
 1655POPC   C4B23590  13.888  38.493   7.664
 1656POPC   NC323591  26.833  34.551   9.464
 1656POPC   PO423592  26.782  34.533   9.164
 1656POPC   GL123593  26.840  34.563   8.864
 1656POPC   GL223594  26.922  34.452   8.864
 1656POPC   C1A23595  26.844  34.560   8.564
 1656POPC   D2A23596  26.850  34.538   8.264
 1656POPC   C3A23597  26.779  34.559   7.964
 1656POPC   C4A23598  26.804  34.570   7.664
 1656POPC   C1B23599  26.956  34.338   8.564
 1656POPC   C2B23600  26.934  34.345   8.264
 1656POPC   C3B23601  26.977  34.397   7.964
 1656POPC   C4B23602  26.930  34.339   7.664
 1657POPC   NC323603  25.218  12.823   9.464
 1657POPC   PO423604  25.229  12.867   9.164
 1657POPC   GL123605  25.253  12.897   8.864
 1657POPC   GL223606  25.261  12.952   8.864
 1657POPC   C1A23607  25.281  12.847   8.564
 1657POPC   D2A23608  25.233  12.901   8.264
 1657POPC   C3A23609  25.290  12.883   7.964
 1657POPC   C4A23610  25.227  12.873   7.664
 1657POPC   C1B23611  25.156  13.120   8.564
 1657POPC   C2B23612  25.129  13.090   8.264
 1657POPC   C3B23613  25.186  13.117   7.964
 1657POPC   C4B23614  25.178  13.128   7.664
 1658POPC   NC323615  33.797  13.596   9.464
 1658POPC   PO423616  33.842  13.667   9.164
 1658POPC   GL123617  33.775  13.675   8.864
 1658POPC   GL223618  33.859  13.766   8.864
 1658POPC   C1A23619  33.847  13.633   8.564
 1658POPC   D2A23620  33.757  13.676   8.264
 1658POPC   C3A23621  33.846  13.654   7.964
 1658POPC   C4A23622  33.809  13.676   7.664
 1658POPC   C1B23623  33.927  13.811   8.564
 1658POPC   C2B23624  33.971  13.844   8.264
 1658POPC   C3B23625  33.911  13.830   7.964
 1658POPC   C4B23626  33.999  13.814   7.664
 1659POPC   NC323627  40.787  40.780   9.464
 1659POPC   PO423628  40.819  40.749   9.164
 1659POPC   GL123629  40.737  40.800   8.864
 1659POPC   GL223630  40.764  40.924   8.864
 1659POPC   C1A23631  40.748  40.832   8.564
 1659POPC   D2A23632  40.737  40.811   8.264
 1659POPC   C3A23633  40.819  40.760   7.964
 1659POPC   C4A23634  40.769  40.784   7.664
 1659POPC   C1B23635  40.851  40.996   8.564
 1659POPC   C2B23636  40.819  41.023   8.264
 1659POPC   C3B23637  40.798  41.037   7.964
 1659POPC   C4B23638  40.763  41.080   7.664
 1660POPC   NC323639   1.233  20.649   9.464
 1660POPC   PO423640   1.176  20.586   9.164
 1660POPC   GL123641   1.246  20.652   8.864
 1660POPC   GL223642   1.206  20.510   8.864
 1660POPC   C1A23643   1.254  20.572   8.564
 1660POPC   D2A23644   1.201  20.561   8.264
 1660POPC   C3A23645   1.178  20.651   7.964
 1660POPC   C4A23646   1.263  20.653   7.664
 1660POPC   C1B23647   1.092  20.424   8.564
 1660POPC   C2B23648   1.113  20.424   8.264
 1660POPC   C3B23649   1.082  20.378   7.964
 1660POPC   C4B23650   1.114  20.400   7.664
 1661POPC   NC323651   7.434  26.850   9.464
 1661POPC   PO423652   7.397  26.848   9.164
 1661POPC   GL123653   7.452  26.831   8.864
 1661POPC   GL223654   7.556  26.740   8.864
 1661POPC   C1A23655   7.406  26.837   8.564
 1661POPC   D2A23656   7.455  26.820   8.264
 1661POPC   C3A23657   7.389  26.831   7.964
 1661POPC   C4A23658   7.392  26.844   7.664
 1661POPC   C1B23659   7.653  26.671   8.564
 1661POPC   C2B23660   7.584  26.658   8.264
 1661POPC   C3B23661   7.594  26.671   7.964
 1661POPC   C4B23662   7.625  26.667   7.664
 1662POPC   NC323663  40.812  28.381   9.464
 1662POPC   PO423664  40.751  28.384   9.164
 1662POPC   GL123665  40.767  28.374   8.864
 1662POPC   GL223666  40.924  28.364   8.864
 1662POPC   C1A23667  40.816  28.321   8.564
 1662POPC   D2A23668  40.790  28.390   8.264
 1662POPC   C3A23669  40.788  28.418   7.964
 1662POPC   C4A23670  40.796  28.379   7.664
 1662POPC   C1B23671  41.065  28.393   8.564
 1662POPC   C2B23672  41.061  28.472   8.264
 1662POPC   C3B23673  41.052  28.397   7.964
 1662POPC   C4B23674  40.998  28.433   7.664
 1663POPC   NC323675  28.403  19.097   9.464
 1663POPC   PO423676  28.405  19.067   9.164
 1663POPC   GL123677  28.416  19.069   8.864
 1663POPC   GL223678  28.339  19.208   8.864
 1663POPC   C1A23679  28.368  19.069   8.564
 1663POPC   D2A23680  28.331  19.016   8.264
 1663POPC   C3A23681  28.408  19.064   7.964
 1663POPC   C4A23682  28.367  19.067   7.664
 1663POPC   C1B23683  28.352  19.319   8.564
 1663POPC   C2B23684  28.356  19.282   8.264
 1663POPC   C3B23685  28.337  19.320   7.964
 1663POPC   C4B23686  28.322  19.357   7.664
 1664POPC   NC323687  13.603  18.272   9.464
 1664POPC   PO423688  13.610  18.271   9.164
 1664POPC   GL123689  13.628  18.277   8.864
 1664POPC   GL223690  13.518  18.265   8.864
 1664POPC   C1A23691  13.616  18.332   8.564
 1664POPC   D2A23692  13.626  18.329   8.264
 1664POPC   C3A23693  13.670  18.281   7.964
 1664POPC   C4A23694  13.592  18.300   7.664
 1664POPC   C1B23695  13.358  18.301   8.564
 1664POPC   C2B23696  13.387  18.234   8.264
 1664POPC   C3B23697  13.371  18.237   7.964
 1664POPC   C4B23698  13.368  18.206   7.664
 1665POPC   NC323699   0.433   6.603   9.464
 1665POPC   PO423700   0.424   6.668   9.164
 1665POPC   GL123701   0.480   6.596   8.864
 1665POPC   GL223702   0.530   6.725   8.864
 1665POPC   C1A23703   0.428   6.652   8.564
 1665POPC   D2A23704   0.476   6.664   8.264
 1665POPC   C3A23705   0.438   6.598   7.964
 1665POPC   C4A23706   0.467   6.610   7.664
 1665POPC   C1B23707   0.717   6.774   8.564
 1665POPC   C2B23708   0.671   6.769   8.264
 1665POPC   C3B23709   0.715   6.722   7.964
 1665POPC   C4B23710   0.698   6.713   7.664
 1666POPC   NC323711  12.839  33.067   9.464
 1666POPC   PO423712  12.820  33.052   9.164
 1666POPC   GL123713  12.847  32.990   8.864
 1666POPC   GL223714  12.926  32.998   8.864
 1666POPC   C1A23715  12.850  33.033   8.564
 1666POPC   D2A23716  12.884  32.993   8.264
 1666POPC   C3A23717  12.818  32.983   7.964
 1666POPC   C4A23718  12.818  33.062   7.664
 1666POPC   C1B23719  13.083  32.988   8.564
 1666POPC   C2B23720  13.111  32.950   8.264
 1666POPC   C3B23721  13.131  32.968   7.964
 1666POPC   C4B23722  13.079  32.928   7.664
 1667POPC   NC323723   3.494  15.178   9.464
 1667POPC   PO423724   3.528  15.138   9.164
 1667POPC   GL123725   3.561  15.182   8.864
 1667POPC   GL223726   3.503  15.340   8.864
 1667POPC   C1A23727   3.553  15.208   8.564
 1667POPC   D2A23728   3.562  15.143   8.264
 1667POPC   C3A23729   3.577  15.153   7.964
 1667POPC   C4A23730   3.497  15.134   7.664
 1667POPC   C1B23731   3.501  15.427   8.564
 1667POPC   C2B23732   3.541  15.421   8.264
 1667POPC   C3B23733   3.588  15.434   7.964
 1667POPC   C4B23734   3.562  15.421   7.664
 1668POPC   NC323735  29.191  21.337   9.464
 1668POPC   PO423736  29.152  21.344   9.164
 1668POPC   GL123737  29.127  21.407   8.864
 1668POPC   GL223738  29.186  21.243   8.864
 1668POPC   C1A23739  29.131  21.376   8.564
 1668POPC   D2A23740  29.129  21.426   8.264
 1668POPC   C3A23741  29.193  21.379   7.964
 1668POPC   C4A23742  29.144  21.429   7.664
 1668POPC   C1B23743  29.135  21.162   8.564
 1668POPC   C2B23744  29.132  21.095   8.264
 1668POPC   C3B23745  29.188  21.109   7.964
 1668POPC   C4B23746  29.145  21.124   7.664
 1669POPC   NC323747  26.828  20.570   9.464
 1669POPC   PO423748  26.792  20.588   9.164
 1669POPC   GL123749  26.778  20.599   8.864
 1669POPC   GL223750  26.822  20.767   8.864
 1669POPC   C1A23751  26.795  20.579   8.564
 1669POPC   D2A23752  26.851  20.582   8.264
 1669POPC   C3A23753  26.812  20.656   7.964
 1669POPC   C4A23754  26.861  20.598   7.664
 1669POPC   C1B23755  26.834  20.836   8.564
 1669POPC   C2B23756  26.809  20.815   8.264
 1669POPC   C3B23757  26.845  20.864   7.964
 1669POPC   C4B23758  26.803  20.874   7.664
 1670POPC   NC323759  11.338  44.675   9.464
 1670POPC   PO423760  11.308  44.682   9.164
 1670POPC   GL123761  11.300  44.695   8.864
 1670POPC   GL223762  11.210  44.514   8.864
 1670POPC   C1A23763  11.323  44.629   8.564
 1670POPC   D2A23764  11.341  44.684   8.264
 1670POPC   C3A23765  11.325  44.654   7.964
 1670POPC   C4A23766  11.285  44.684   7.664
 1670POPC   C1B23767  11.223  44.406   8.564
 1670POPC   C2B23768  11.212  44.452   8.264
 1670POPC   C3B23769  11.192  44.451   7.964
 1670POPC   C4B23770  11.165  44.460   7.664
 1671POPC   NC323771  28.323   8.954   9.464
 1671POPC   PO423772  28.382   9.011   9.164
 1671POPC   GL123773  28.322   8.930   8.864
 1671POPC   GL223774  28.534   8.947   8.864
 1671POPC   C1A23775  28.413   8.974   8.564
 1671POPC   D2A23776  28.399   8.944   8.264
 1671POPC   C3A23777  28.378   8.958   7.964
 1671POPC   C4A23778  28.335   9.012   7.664
 1671POPC   C1B23779  28.620   8.917   8.564
 1671POPC   C2B23780  28.622   8.862   8.264
 1671POPC   C3B23781  28.626   8.913   7.964
 1671POPC   C4B23782  28.610   8.835   7.664
 1672POPC   NC323783  39.244  22.128   9.464
 1672POPC   PO423784  39.274  22.152   9.164
 1672POPC   GL123785  39.225  22.116   8.864
 1672POPC   GL223786  39.174  22.284   8.864
 1672POPC   C1A23787  39.258  22.191   8.564
 1672POPC   D2A23788  39.270  22.128   8.264
 1672POPC   C3A23789  39.205  22.133   7.964
 1672POPC   C4A23790  39.185  22.154   7.664
 1672POPC   C1B23791  39.106  22.380   8.564
 1672POPC   C2B23792  39.124  22.386   8.264
 1672POPC   C3B23793  39.135  22.351   7.964
 1672POPC   C4B23794  39.108  22.361   7.664
 1673POPC   NC323795  20.649   9.714   9.464
 1673POPC   PO423796  20.645   9.792   9.164
 1673POPC   GL123797  20.563   9.777   8.864
 1673POPC   GL223798  20.723   9.837   8.864
 1673POPC   C1A23799  20.611   9.734   8.564
 1673POPC   D2A23800  20.656   9.763   8.264
 1673POPC   C3A23801  20.561   9.782   7.964
 1673POPC   C4A23802  20.647   9.726   7.664
 1673POPC   C1B23803  20.836   9.860   8.564
 1673POPC   C2B23804  20.773   9.913   8.264
 1673POPC   C3B23805  20.774   9.895   7.964
 1673POPC   C4B23806  20.845   9.949   7.664
 1674POPC   NC323807  36.133   0.449   9.464
 1674POPC   PO423808  36.170   0.421   9.164
 1674POPC   GL123809  36.118   0.425   8.864
 1674POPC   GL223810  36.142   0.550   8.864
 1674POPC   C1A23811  36.169   0.418   8.564
 1674POPC   D2A23812  36.159   0.409   8.264
 1674POPC   C3A23813  36.104   0.444   7.964
 1674POPC   C4A23814  36.128   0.474   7.664
 1674POPC   C1B23815  36.187   0.642   8.564
 1674POPC   C2B23816  36.196   0.621   8.264
 1674POPC   C3B23817  36.194   0.626   7.964
 1674POPC   C4B23818  36.231   0.656   7.664
 1675POPC   NC323819  40.018  32.242   9.464
 1675POPC   PO423820  40.027  32.268   9.164
 1675POPC   GL123821  39.968  32.270   8.864
 1675POPC   GL223822  40.160  32.266   8.864
 1675POPC   C1A23823  39.965  32.263   8.564
 1675POPC   D2A23824  39.974  32.294   8.264
 1675POPC   C3A23825  40.008  32.233   7.964
 1675POPC   C4A23826  40.053  32.243   7.664
 1675POPC   C1B23827  40.258  32.277   8.564
 1675POPC   C2B23828  40.302  32.272   8.264
 1675POPC   C3B23829  40.248  32.274   7.964
 1675POPC   C4B23830  40.235  32.218   7.664
 1676POPC   NC323831  39.259  26.828   9.464
 1676POPC   PO423832  39.243  26.813   9.164
 1676POPC   GL123833  39.210  26.836   8.864
 1676POPC   GL223834  39.096  26.811   8.864
 1676POPC   C1A23835  39.197  26.843   8.564
 1676POPC   D2A23836  39.183  26.772   8.264
 1676POPC   C3A23837  39.275  26.824   7.964
 1676POPC   C4A23838  39.271  26.839   7.664
 1676POPC   C1B23839  39.013  26.724   8.564
 1676POPC   C2B23840  39.020  26.749   8.264
 1676POPC   C3B23841  39.005  26.726   7.964
 1676POPC   C4B23842  38.953  26.761   7.664
 1677POPC   NC323843  40.051   6.668   9.464
 1677POPC   PO423844  40.022   6.682   9.164
 1677POPC   GL123845  40.030   6.609   8.864
 1677POPC   GL223846  39.978   6.731   8.864
 1677POPC   C1A23847  40.036   6.621   8.564
 1677POPC   D2A23848  40.014   6.620   8.264
 1677POPC   C3A23849  40.024   6.639   7.964
 1677POPC   C4A23850  39.969   6.621   7.664
 1677POPC   C1B23851  39.998   6.934   8.564
 1677POPC   C2B23852  39.980   6.943   8.264
 1677POPC   C3B23853  39.939   6.884   7.964
 1677POPC   C4B23854  39.965   6.920   7.664
 1678POPC   NC323855  36.866  13.641   9.464
 1678POPC   PO423856  36.907  13.590   9.164
 1678POPC   GL123857  36.945  13.588   8.864
 1678POPC   GL223858  36.743  13.656   8.864
 1678POPC   C1A23859  36.876  13.607   8.564
 1678POPC   D2A23860  36.886  13.652   8.264
 1678POPC   C3A23861  36.908  13.595   7.964
 1678POPC   C4A23862  36.924  13.656   7.664
 1678POPC   C1B23863  36.648  13.591   8.564
 1678POPC   C2B23864  36.609  13.644   8.264
 1678POPC   C3B23865  36.680  13.654   7.964
 1678POPC   C4B23866  36.674  13.619   7.664
 1679POPC   NC323867   8.174  22.892   9.464
 1679POPC   PO423868   8.233  22.961   9.164
 1679POPC   GL123869   8.240  22.894   8.864
 1679POPC   GL223870   8.248  23.100   8.864
 1679POPC   C1A23871   8.161  22.975   8.564
 1679POPC   D2A23872   8.178  22.930   8.264
 1679POPC   C3A23873   8.201  22.922   7.964
 1679POPC   C4A23874   8.200  22.949   7.664
 1679POPC   C1B23875   8.269  23.182   8.564
 1679POPC   C2B23876   8.208  23.173   8.264
 1679POPC   C3B23877   8.196  23.197   7.964
 1679POPC   C4B23878   8.178  23.200   7.664
 1680POPC   NC323879  11.304  12.074   9.464
 1680POPC   PO423880  11.256  12.088   9.164
 1680POPC   GL123881  11.344  12.095   8.864
 1680POPC   GL223882  11.432  12.123   8.864
 1680POPC   C1A23883  11.308  12.062   8.564
 1680POPC   D2A23884  11.292  12.116   8.264
 1680POPC   C3A23885  11.272  12.090   7.964
 1680POPC   C4A23886  11.260  12.050   7.664
 1680POPC   C1B23887  11.520  12.250   8.564
 1680POPC   C2B23888  11.489  12.276   8.264
 1680POPC   C3B23889  11.434  12.225   7.964
 1680POPC   C4B23890  11.452  12.269   7.664
 1681POPC   NC323891  35.379  36.916   9.464
 1681POPC   PO423892  35.346  36.941   9.164
 1681POPC   GL123893  35.357  36.907   8.864
 1681POPC   GL223894  35.223  36.956   8.864
 1681POPC   C1A23895  35.352  36.915   8.564
 1681POPC   D2A23896  35.338  36.929   8.264
 1681POPC   C3A23897  35.376  36.877   7.964
 1681POPC   C4A23898  35.370  36.883   7.664
 1681POPC   C1B23899  35.173  37.049   8.564
 1681POPC   C2B23900  35.119  36.996   8.264
 1681POPC   C3B23901  35.129  37.014   7.964
 1681POPC   C4B23902  35.132  37.021   7.664
 1682POPC   NC323903   7.468  15.209   9.464
 1682POPC   PO423904   7.398  15.179   9.164
 1682POPC   GL123905   7.424  15.226   8.864
 1682POPC   GL223906   7.416  15.273   8.864
 1682POPC   C1A23907   7.422  15.176   8.564
 1682POPC   D2A23908   7.380  15.226   8.264
 1682POPC   C3A23909   7.414  15.152   7.964
 1682POPC   C4A23910   7.393  15.182   7.664
 1682POPC   C1B23911   7.273  15.396   8.564
 1682POPC   C2B23912   7.365  15.434   8.264
 1682POPC   C3B23913   7.364  15.363   7.964
 1682POPC   C4B23914   7.338  15.444   7.664
 1683POPC   NC323915   8.999  28.347   9.464
 1683POPC   PO423916   8.932  28.413   9.164
 1683POPC   GL123917   8.951  28.396   8.864
 1683POPC   GL223918   8.838  28.355   8.864
 1683POPC   C1A23919   9.006  28.361   8.564
 1683POPC   D2A23920   9.007  28.416   8.264
 1683POPC   C3A23921   8.948  28.380   7.964
 1683POPC   C4A23922   9.005  28.371   7.664
 1683POPC   C1B23923   8.756  28.414   8.564
 1683POPC   C2B23924   8.732  28.371   8.264
 1683POPC   C3B23925   8.745  28.352   7.964
 1683POPC   C4B23926   8.752  28.366   7.664
 1684POPC   NC323927  43.090  30.726   9.464
 1684POPC   PO423928  43.084  30.722   9.164
 1684POPC   GL123929  43.072  30.724   8.864
 1684POPC   GL223930  43.018  30.556   8.864
 1684POPC   C1A23931  43.148  30.667   8.564
 1684POPC   D2A23932  43.152  30.692   8.264
 1684POPC   C3A23933  43.106  30.690   7.964
 1684POPC   C4A23934  43.076  30.723   7.664
 1684POPC   C1B23935  43.012  30.515   8.564
 1684POPC   C2B23936  43.002  30.491   8.264
 1684POPC   C3B23937  43.021  30.497   7.964
 1684POPC   C4B23938  43.042  30.498   7.664
 1685POPC   NC323939  24.452   0.411   9.464
 1685POPC   PO423940  24.480   0.460   9.164
 1685POPC   GL123941  24.487   0.409   8.864
 1685POPC   GL223942  24.393   0.396   8.864
 1685POPC   C1A23943  24.459   0.430   8.564
 1685POPC   D2A23944  24.522   0.447   8.264
 1685POPC   C3A23945  24.507   0.436   7.964
 1685POPC   C4A23946  24.482   0.465   7.664
 1685POPC   C1B23947  24.226   0.411   8.564
 1685POPC   C2B23948  24.217   0.395   8.264
 1685POPC   C3B23949  24.250   0.382   7.964
 1685POPC   C4B23950  24.206   0.316   7.664
 1686POPC   NC323951  14.378  26.004   9.464
 1686POPC   PO423952  14.354  26.068   9.164
 1686POPC   GL123953  14.387  26.024   8.864
 1686POPC   GL223954  14.542  26.075   8.864
 1686POPC   C1A23955  14.403  26.084   8.564
 1686POPC   D2A23956  14.378  26.083   8.264
 1686POPC   C3A23957  14.415  26.026   7.964
 1686POPC   C4A23958  14.449  25.999   7.664
 1686POPC   C1B23959  14.677  26.064   8.564
 1686POPC   C2B23960  14.644  26.154   8.264
 1686POPC   C3B23961  14.672  26.101   7.964
 1686POPC   C4B23962  14.626  26.086   7.664
 1687POPC   NC323963   3.531   2.775   9.464
 1687POPC   PO423964   3.544   2.756   9.164
 1687POPC   GL123965   3.553   2.740   8.864
 1687POPC   GL223966   3.507   2.688   8.864
 1687POPC   C1A23967   3.499   2.763   8.564
 1687POPC   D2A23968   3.575   2.794   8.264
 1687POPC   C3A23969   3.550   2.777   7.964
 1687POPC   C4A23970   3.512   2.764   7.664
 1687POPC   C1B23971   3.538   2.474   8.564
 1687POPC   C2B23972   3.587   2.492   8.264
 1687POPC   C3B23973   3.583   2.483   7.964
 1687POPC   C4B23974   3.610   2.530   7.664
 1688POPC   NC323975   5.881   7.439   9.464
 1688POPC   PO423976   5.917   7.406   9.164
 1688POPC   GL123977   5.848   7.378   8.864
 1688POPC   GL223978   5.709   7.458   8.864
 1688POPC   C1A23979   5.859   7.406   8.564
 1688POPC   D2A23980   5.821   7.391   8.264
 1688POPC   C3A23981   5.879   7.377   7.964
 1688POPC   C4A23982   5.893   7.392   7.664
 1688POPC   C1B23983   5.606   7.545   8.564
 1688POPC   C2B23984   5.626   7.562   8.264
 1688POPC   C3B23985   5.663   7.535   7.964
 1688POPC   C4B23986   5.636   7.565   7.664
 1689POPC   NC323987   0.396  29.154   9.464
 1689POPC   PO423988   0.404  29.098   9.164
 1689POPC   GL123989   0.474  29.187   8.864
 1689POPC   GL223990   0.370  29.273   8.864
 1689POPC   C1A23991   0.474  29.187   8.564
 1689POPC   D2A23992   0.456  29.112   8.264
 1689POPC   C3A23993   0.391  29.143   7.964
 1689POPC   C4A23994   0.465  29.186   7.664
 1689POPC   C1B23995   0.287  29.401   8.564
 1689POPC   C2B23996   0.341  29.378   8.264
 1689POPC   C3B23997   0.308  29.380   7.964
 1689POPC   C4B23998   0.304  29.359   7.664
 1690POPC   NC323999  36.948  21.379   9.464
 1690POPC   PO424000  36.861  21.357   9.164
 1690POPC   GL124001  36.938  21.389   8.864
 1690POPC   GL224002  36.924  21.301   8.864
 1690POPC   C1A24003  36.942  21.423   8.564
 1690POPC   D2A24004  36.869  21.415   8.264
 1690POPC   C3A24005  36.874  21.417   7.964
 1690POPC   C4A24006  36.866  21.346   7.664
 1690POPC   C1B24007  36.951  21.177   8.564
 1690POPC   C2B24008  36.963  21.146   8.264
 1690POPC   C3B24009  36.940  21.170   7.964
 1690POPC   C4B24010  36.930  21.157   7.664
 1691POPC   NC324011   1.239  22.153   9.464
 1691POPC   PO424012   1.176  22.133   9.164
 1691POPC   GL124013   1.211  22.142   8.864
 1691POPC   GL224014   1.139  22.157   8.864
 1691POPC   C1A24015   1.176  22.122   8.564
 1691POPC   D2A24016   1.225  22.159   8.264
 1691POPC   C3A24017   1.190  22.161   7.964
 1691POPC   C4A24018   1.228  22.180   7.664
 1691POPC   C1B24019   0.995  22.237   8.564
 1691POPC   C2B24020   1.013  22.284   8.264
 1691POPC   C3B24021   0.933  22.284   7.964
 1691POPC   C4B24022   1.019  22.263   7.664
 1692POPC   NC324023  12.118   7.410   9.464
 1692POPC   PO424024  12.079   7.430   9.164
 1692POPC   GL124025  12.040   7.409   8.864
 1692POPC   GL224026  11.933   7.388   8.864
 1692POPC   C1A24027  12.048   7.391   8.564
 1692POPC   D2A24028  12.112   7.394   8.264
 1692POPC   C3A24029  12.046   7.419   7.964
 1692POPC   C4A24030  12.034   7.450   7.664
 1692POPC   C1B24031  11.866   7.385   8.564
 1692POPC   C2B24032  11.854   7.367   8.264
 1692POPC   C3B24033  11.830   7.431   7.964
 1692POPC   C4B24034  11.825   7.361   7.664
 1693POPC   NC324035  20.567  23.752   9.464
 1693POPC   PO424036  20.638  23.761   9.164
 1693POPC   GL124037  20.646  23.696   8.864
 1693POPC   GL224038  20.732  23.696   8.864
 1693POPC   C1A24039  20.563  23.683   8.564
 1693POPC   D2A24040  20.608  23.720   8.264
 1693POPC   C3A24041  20.571  23.675   7.964
 1693POPC   C4A24042  20.588  23.725   7.664
 1693POPC   C1B24043  20.833  23.670   8.564
 1693POPC   C2B24044  20.833  23.649   8.264
 1693POPC   C3B24045  20.861  23.659   7.964
 1693POPC   C4B24046  20.846  23.610   7.664
 1694POPC   NC324047   8.230   2.026   9.464
 1694POPC   PO424048   8.161   1.974   9.164
 1694POPC   GL124049   8.175   2.022   8.864
 1694POPC   GL224050   8.252   2.049   8.864
 1694POPC   C1A24051   8.175   1.999   8.564
 1694POPC   D2A24052   8.239   1.944   8.264
 1694POPC   C3A24053   8.150   1.987   7.964
 1694POPC   C4A24054   8.240   1.961   7.664
 1694POPC   C1B24055   8.420   2.108   8.564
 1694POPC   C2B24056   8.401   2.139   8.264
 1694POPC   C3B24057   8.415   2.181   7.964
 1694POPC   C4B24058   8.404   2.158   7.664
 1695POPC   NC324059   8.963  30.740   9.464
 1695POPC   PO424060   8.993  30.695   9.164
 1695POPC   GL124061   8.938  30.652   8.864
 1695POPC   GL224062   8.908  30.837   8.864
 1695POPC   C1A24063   9.000  30.658   8.564
 1695POPC   D2A24064   8.982  30.724   8.264
 1695POPC   C3A24065   8.940  30.722   7.964
 1695POPC   C4A24066   9.004  30.741   7.664
 1695POPC   C1B24067   8.922  30.954   8.564
 1695POPC   C2B24068   8.873  30.931   8.264
 1695POPC   C3B24069   8.864  30.921   7.964
 1695POPC   C4B24070   8.951  30.922   7.664
 1696POPC   NC324071   1.989  37.703   9.464
 1696POPC   PO424072   1.955  37.657   9.164
 1696POPC   GL124073   1.965  37.720   8.864
 1696POPC   GL224074   1.978  37.814   8.864
 1696POPC   C1A24075   1.956  37.711   8.564
 1696POPC   D2A24076   2.037  37.640   8.264
 1696POPC   C3A24077   1.994  37.679   7.964
 1696POPC   C4A24078   1.998  37.723   7.664
 1696POPC   C1B24079   1.931  37.888   8.564
 1696POPC   C2B24080   1.923  37.955   8.264
 1696POPC   C3B24081   1.870  37.921   7.964
 1696POPC   C4B24082   1.892  37.914   7.664
 1697POPC   NC324083  16.712  23.664   9.464
 1697POPC   PO424084  16.705  23.759   9.164
 1697POPC   GL124085  16.693  23.669   8.864
 1697POPC   GL224086  16.678  23.608   8.864
 1697POPC   C1A24087  16.736  23.682   8.564
 1697POPC   D2A24088  16.723  23.675   8.264
 1697POPC   C3A24089  16.749  23.721   7.964
 1697POPC   C4A24090  16.725  23.719   7.664
 1697POPC   C1B24091  16.654  23.542   8.564
 1697POPC   C2B24092  16.638  23.498   8.264
 1697POPC   C3B24093  16.566  23.458   7.964
 1697POPC   C4B24094  16.643  23.524   7.664
 1698POPC   NC324095   9.720  36.139   9.464
 1698POPC   PO424096   9.780  36.099   9.164
 1698POPC   GL124097   9.706  36.144   8.864
 1698POPC   GL224098   9.852  36.090   8.864
 1698POPC   C1A24099   9.713  36.145   8.564
 1698POPC   D2A24100   9.788  36.177   8.264
 1698POPC   C3A24101   9.773  36.175   7.964
 1698POPC   C4A24102   9.741  36.118   7.664
 1698POPC   C1B24103  10.011  36.001   8.564
 1698POPC   C2B24104   9.956  36.020   8.264
 1698POPC   C3B24105   9.972  36.044   7.964
 1698POPC   C4B24106   9.948  36.042   7.664
 1699POPC   NC324107  32.982   5.093   9.464
 1699POPC   PO424108  33.062   5.075   9.164
 1699POPC   GL124109  33.008   5.124   8.864
 1699POPC   GL224110  33.125   5.159   8.864
 1699POPC   C1A24111  33.025   5.118   8.564
 1699POPC   D2A24112  33.062   5.111   8.264
 1699POPC   C3A24113  33.069   5.078   7.964
 1699POPC   C4A24114  33.030   5.054   7.664
 1699POPC   C1B24115  33.240   5.292   8.564
 1699POPC   C2B24116  33.265   5.290   8.264
 1699POPC   C3B24117  33.200   5.214   7.964
 1699POPC   C4B24118  33.266   5.238   7.664
 1700POPC   NC324119  29.909  15.943   9.464
 1700POPC   PO424120  29.960  15.934   9.164
 1700POPC   GL124121  29.959  16.000   8.864
 1700POPC   GL224122  29.970  15.848   8.864
 1700POPC   C1A24123  29.874  15.955   8.564
 1700POPC   D2A24124  29.906  15.937   8.264
 1700POPC   C3A24125  29.929  15.990   7.964
 1700POPC   C4A24126  29.884  15.954   7.664
 1700POPC   C1B24127  29.950  15.715   8.564
 1700POPC   C2B24128  29.985  15.694   8.264
 1700POPC   C3B24129  29.973  15.677   7.964
 1700POPC   C4B24130  29.968  15.668   7.664
 1701POPC   NC324131  22.124  15.951   9.464
 1701POPC   PO424132  22.168  15.914   9.164
 1701POPC   GL124133  22.175  15.952   8.864
 1701POPC   GL224134  21.988  15.996   8.864
 1701POPC   C1A24135  22.180  15.955   8.564
 1701POPC   D2A24136  22.138  15.908   8.264
 1701POPC   C3A24137  22.203  15.978   7.964
 1701POPC   C4A24138  22.167  15.936   7.664
 1701POPC   C1B24139  21.905  15.990   8.564
 1701POPC   C2B24140  21.906  15.953   8.264
 1701POPC   C3B24141  21.919  15.909   7.964
 1701POPC   C4B24142  21.942  15.993   7.664
 1702POPC   NC324143  21.435  12.882   9.464
 1702POPC   PO424144  21.398  12.822   9.164
 1702POPC   GL124145  21.392  12.882   8.864
 1702POPC   GL224146  21.489  12.916   8.864
 1702POPC   C1A24147  21.393  12.815   8.564
 1702POPC   D2A24148  21.369  12.872   8.264
 1702POPC   C3A24149  21.411  12.868   7.964
 1702POPC   C4A24150  21.351  12.873   7.664
 1702POPC   C1B24151  21.508  13.075   8.564
 1702POPC   C2B24152  21.517  13.076   8.264
 1702POPC   C3B24153  21.511  13.038   7.964
 1702POPC   C4B24154  21.549  13.098   7.664
 1703POPC   NC324155  21.429  26.788   9.464
 1703POPC   PO424156  21.344  26.832   9.164
 1703POPC   GL124157  21.403  26.783   8.864
 1703POPC   GL224158  21.392  26.646   8.864
 1703POPC   C1A24159  21.378  26.770   8.564
 1703POPC   D2A24160  21.352  26.832   8.264
 1703POPC   C3A24161  21.401  26.813   7.964
 1703POPC   C4A24162  21.339  26.866   7.664
 1703POPC   C1B24163  21.398  26.533   8.564
 1703POPC   C2B24164  21.431  26.594   8.264
 1703POPC   C3B24165  21.457  26.601   7.964
 1703POPC   C4B24166  21.381  26.552   7.664
 1704POPC   NC324167  37.653  42.344   9.464
 1704POPC   PO424168  37.681  42.310   9.164
 1704POPC   GL124169  37.716  42.336   8.864
 1704POPC   GL224170  37.609  42.195   8.864
 1704POPC   C1A24171  37.712  42.342   8.564
 1704POPC   D2A24172  37.723  42.317   8.264
 1704POPC   C3A24173  37.637  42.324   7.964
 1704POPC   C4A24174  37.649  42.328   7.664
 1704POPC   C1B24175  37.524  42.133   8.564
 1704POPC   C2B24176  37.588  42.116   8.264
 1704POPC   C3B24177  37.588  42.113   7.964
 1704POPC   C4B24178  37.566  42.173   7.664
 1705POPC   NC324179  17.512  18.261   9.464
 1705POPC   PO424180  17.530  18.280   9.164
 1705POPC   GL124181  17.458  18.300   8.864
 1705POPC   GL224182  17.625  18.232   8.864
 1705POPC   C1A24183  17.501  18.296   8.564
 1705POPC   D2A24184  17.489  18.241   8.264
 1705POPC   C3A24185  17.465  18.234   7.964
 1705POPC   C4A24186  17.460  18.316   7.664
 1705POPC   C1B24187  17.632  18.096   8.564
 1705POPC   C2B24188  17.706  18.097   8.264
 1705POPC   C3B24189  17.691  18.044   7.964
 1705POPC   C4B24190  17.682  18.059   7.664
 1706POPC   NC324191  44.659  26.853   9.464
 1706POPC   PO424192  44.633  26.854   9.164
 1706POPC   GL124193  44.614  26.825   8.864
 1706POPC   GL224194  44.779  26.705   8.864
 1706POPC   C1A24195  44.641  26.777   8.564
 1706POPC   D2A24196  44.705  26.859   8.264
 1706POPC   C3A24197  44.648  26.818   7.964
 1706POPC   C4A24198  44.613  26.783   7.664
 1706POPC   C1B24199  44.857  26.670   8.564
 1706POPC   C2B24200  44.892  26.690   8.264
 1706POPC   C3B24201  44.872  26.659   7.964
 1706POPC   C4B24202  44.910  26.672   7.664
 1707POPC   NC324203  12.107  26.065   9.464
 1707POPC   PO424204  12.110  26.065   9.164
 1707POPC   GL124205  12.073  26.065   8.864
 1707POPC   GL224206  11.915  25.955   8.864
 1707POPC   C1A24207  12.103  26.066   8.564
 1707POPC   D2A24208  12.063  26.050   8.264
 1707POPC   C3A24209  12.082  26.010   7.964
 1707POPC   C4A24210  12.032  25.998   7.664
 1707POPC   C1B24211  11.832  26.000   8.564
 1707POPC   C2B24212  11.808  26.006   8.264
 1707POPC   C3B24213  11.855  25.949   7.964
 1707POPC   C4B24214  11.853  25.950   7.664
 1708POPC   NC324215  36.908  31.509   9.464
 1708POPC   PO424216  36.879  31.485   9.164
 1708POPC   GL124217  36.905  31.441   8.864
 1708POPC   GL224218  36.999  31.403   8.864
 1708POPC   C1A24219  36.897  31.494   8.564
 1708POPC   D2A24220  36.883  31.501   8.264
 1708POPC   C3A24221  36.946  31.494   7.964
 1708POPC   C4A24222  36.870  31.508   7.664
 1708POPC   C1B24223  37.009  31.251   8.564
 1708POPC   C2B24224  36.979  31.291   8.264
 1708POPC   C3B24225  36.997  31.217   7.964
 1708POPC   C4B24226  36.985  31.255   7.664
 1709POPC   NC324227  35.357  14.367   9.464
 1709POPC   PO424228  35.337  14.383   9.164
 1709POPC   GL124229  35.311  14.397   8.864
 1709POPC   GL224230  35.209  14.387   8.864
 1709POPC   C1A24231  35.302  14.406   8.564
 1709POPC   D2A24232  35.353  14.360   8.264
 1709POPC   C3A24233  35.330  14.413   7.964
 1709POPC   C4A24234  35.333  14.421   7.664
 1709POPC   C1B24235  35.139  14.292   8.564
 1709POPC   C2B24236  35.102  14.345   8.264
 1709POPC   C3B24237  35.167  14.293   7.964
 1709POPC   C4B24238  35.133  14.317   7.664
 1710POPC   NC324239  40.822  12.117   9.464
 1710POPC   PO424240  40.764  12.036   9.164
 1710POPC   GL124241  40.793  12.077   8.864
 1710POPC   GL224242  40.895  12.140   8.864
 1710POPC   C1A24243  40.790  12.111   8.564
 1710POPC   D2A24244  40.743  12.099   8.264
 1710POPC   C3A24245  40.760  12.051   7.964
 1710POPC   C4A24246  40.780  12.048   7.664
 1710POPC   C1B24247  40.929  12.300   8.564
 1710POPC   C2B24248  40.967  12.284   8.264
 1710POPC   C3B24249  40.907  12.278   7.964
 1710POPC   C4B24250  40.941  12.229   7.664
 1711POPC   NC324251  41.581  32.245   9.464
 1711POPC   PO424252  41.589  32.251   9.164
 1711POPC   GL124253  41.591  32.253   8.864
 1711POPC   GL224254  41.678  32.176   8.864
 1711POPC   C1A24255  41.604  32.258   8.564
 1711POPC   D2A24256  41.536  32.289   8.264
 1711POPC   C3A24257  41.556  32.287   7.964
 1711POPC   C4A24258  41.576  32.254   7.664
 1711POPC   C1B24259  41.766  32.079   8.564
 1711POPC   C2B24260  41.711  32.112   8.264
 1711POPC   C3B24261  41.739  32.085   7.964
 1711POPC   C4B24262  41.747  32.031   7.664
 1712POPC   NC324263  11.332  28.377   9.464
 1712POPC   PO424264  11.336  28.388   9.164
 1712POPC   GL124265  11.281  28.396   8.864
 1712POPC   GL224266  11.262  28.312   8.864
 1712POPC   C1A24267  11.337  28.383   8.564
 1712POPC   D2A24268  11.285  28.418   8.264
 1712POPC   C3A24269  11.348  28.352   7.964
 1712POPC   C4A24270  11.322  28.392   7.664
 1712POPC   C1B24271  11.105  28.168   8.564
 1712POPC   C2B24272  11.106  28.164   8.264
 1712POPC   C3B24273  11.089  28.152   7.964
 1712POPC   C4B24274  11.120  28.175   7.664
 1713POPC   NC324275   1.950   5.831   9.464
 1713POPC   PO424276   1.993   5.846   9.164
 1713POPC   GL124277   2.023   5.840   8.864
 1713POPC   GL224278   2.125   5.808   8.864
 1713POPC   C1A24279   1.978   5.908   8.564
 1713POPC   D2A24280   1.953   5.883   8.264
 1713POPC   C3A24281   1.973   5.888   7.964
 1713POPC   C4A24282   1.993   5.889   7.664
 1713POPC   C1B24283   2.233   5.754   8.564
 1713POPC   C2B24284   2.193   5.789   8.264
 1713POPC   C3B24285   2.186   5.775   7.964
 1713POPC   C4B24286   2.242   5.808   7.664
 1714POPC   NC324287   8.988  27.618   9.464
 1714POPC   PO424288   8.937  27.594   9.164
 1714POPC   GL124289   9.012  27.613   8.864
 1714POPC   GL224290   9.078  27.591   8.864
 1714POPC   C1A24291   8.968  27.595   8.564
 1714POPC   D2A24292   9.002  27.591   8.264
 1714POPC   C3A24293   8.939  27.556   7.964
 1714POPC   C4A24294   8.925  27.560   7.664
 1714POPC   C1B24295   9.201  27.616   8.564
 1714POPC   C2B24296   9.192  27.661   8.264
 1714POPC   C3B24297   9.238  27.630   7.964
 1714POPC   C4B24298   9.233  27.582   7.664
 1715POPC   NC324299  19.810   5.077   9.464
 1715POPC   PO424300  19.853   5.110   9.164
 1715POPC   GL124301  19.859   5.122   8.864
 1715POPC   GL224302  19.904   5.195   8.864
 1715POPC   C1A24303  19.800   5.107   8.564
 1715POPC   D2A24304  19.858   5.057   8.264
 1715POPC   C3A24305  19.799   5.075   7.964
 1715POPC   C4A24306  19.789   5.112   7.664
 1715POPC   C1B24307  19.921   5.350   8.564
 1715POPC   C2B24308  19.912   5.339   8.264
 1715POPC   C3B24309  19.833   5.346   7.964
 1715POPC   C4B24310  19.850   5.385   7.664
 1716POPC   NC324311  33.835  35.398   9.464
 1716POPC   PO424312  33.813  35.391   9.164
 1716POPC   GL124313  33.803  35.388   8.864
 1716POPC   GL224314  33.935  35.274   8.864
 1716POPC   C1A24315  33.849  35.355   8.564
 1716POPC   D2A24316  33.831  35.363   8.264
 1716POPC   C3A24317  33.834  35.338   7.964
 1716POPC   C4A24318  33.838  35.400   7.664
 1716POPC   C1B24319  34.022  35.231   8.564
 1716POPC   C2B24320  34.053  35.257   8.264
 1716POPC   C3B24321  33.972  35.251   7.964
 1716POPC   C4B24322  34.063  35.186   7.664
 1717POPC   NC324323   2.761  33.010   9.464
 1717POPC   PO424324   2.785  33.012   9.164
 1717POPC   GL124325   2.720  33.048   8.864
 1717POPC   GL224326   2.611  33.007   8.864
 1717POPC   C1A24327   2.727  33.018   8.564
 1717POPC   D2A24328   2.811  33.060   8.264
 1717POPC   C3A24329   2.716  32.979   7.964
 1717POPC   C4A24330   2.803  33.021   7.664
 1717POPC   C1B24331   2.566  32.939   8.564
 1717POPC   C2B24332   2.532  32.920   8.264
 1717POPC   C3B24333   2.562  32.914   7.964
 1717POPC   C4B24334   2.564  32.957   7.664
 1718POPC   NC324335  33.774  40.819   9.464
 1718POPC   PO424336  33.785  40.740   9.164
 1718POPC   GL124337  33.779  40.757   8.864
 1718POPC   GL224338  33.770  40.883   8.864
 1718POPC   C1A24339  33.827  40.818   8.564
 1718POPC   D2A24340  33.771  40.795   8.264
 1718POPC   C3A24341  33.793  40.745   7.964
 1718POPC   C4A24342  33.785  40.747   7.664
 1718POPC   C1B24343  33.600  41.029   8.564
 1718POPC   C2B24344  33.607  40.953   8.264
 1718POPC   C3B24345  33.675  41.032   7.964
 1718POPC   C4B24346  33.632  40.985   7.664
 1719POPC   NC324347  26.803  25.273   9.464
 1719POPC   PO424348  26.845  25.272   9.164
 1719POPC   GL124349  26.834  25.231   8.864
 1719POPC   GL224350  26.723  25.159   8.864
 1719POPC   C1A24351  26.842  25.268   8.564
 1719POPC   D2A24352  26.841  25.226   8.264
 1719POPC   C3A24353  26.799  25.260   7.964
 1719POPC   C4A24354  26.801  25.286   7.664
 1719POPC   C1B24355  26.695  25.110   8.564
 1719POPC   C2B24356  26.677  25.045   8.264
 1719POPC   C3B24357  26.678  25.120   7.964
 1719POPC   C4B24358  26.698  25.037   7.664
 1720POPC   NC324359  12.845  19.027   9.464
 1720POPC   PO424360  12.891  19.093   9.164
 1720POPC   GL124361  12.848  19.026   8.864
 1720POPC   GL224362  12.749  18.915   8.864
 1720POPC   C1A24363  12.842  19.067   8.564
 1720POPC   D2A24364  12.807  19.102   8.264
 1720POPC   C3A24365  12.860  19.107   7.964
 1720POPC   C4A24366  12.850  19.029   7.664
 1720POPC   C1B24367  12.742  18.825   8.564
 1720POPC   C2B24368  12.687  18.885   8.264
 1720POPC   C3B24369  12.731  18.822   7.964
 1720POPC   C4B24370  12.697  18.843   7.664
 1721POPC   NC324371   1.215   8.997   9.464
 1721POPC   PO424372   1.214   8.932   9.164
 1721POPC   GL124373   1.199   8.971   8.864
 1721POPC   GL224374   1.157   9.005   8.864
 1721POPC   C1A24375   1.260   8.999   8.564
 1721POPC   D2A24376   1.188   8.985   8.264
 1721POPC   C3A24377   1.239   8.977   7.964
 1721POPC   C4A24378   1.171   8.969   7.664
 1721POPC   C1B24379   1.040   9.109   8.564
 1721POPC   C2B24380   1.040   9.104   8.264
 1721POPC   C3B24381   0.968   9.112   7.964
 1721POPC   C4B24382   1.040   9.108   7.664
 1722POPC   NC324383   1.976  15.996   9.464
 1722POPC   PO424384   1.974  15.992   9.164
 1722POPC   GL124385   2.029  15.979   8.864
 1722POPC   GL224386   1.900  16.057   8.864
 1722POPC   C1A24387   1.995  15.951   8.564
 1722POPC   D2A24388   2.017  15.951   8.264
 1722POPC   C3A24389   1.970  15.976   7.964
 1722POPC   C4A24390   2.019  15.912   7.664
 1722POPC   C1B24391   1.735  16.122   8.564
 1722POPC   C2B24392   1.810  16.077   8.264
 1722POPC   C3B24393   1.743  16.105   7.964
 1722POPC   C4B24394   1.793  16.091   7.664
 1723POPC   NC324395  12.819  41.552   9.464
 1723POPC   PO424396  12.899  41.518   9.164
 1723POPC   GL124397  12.814  41.590   8.864
 1723POPC   GL224398  12.758  41.559   8.864
 1723POPC   C1A24399  12.850  41.555   8.564
 1723POPC   D2A24400  12.879  41.515   8.264
 1723POPC   C3A24401  12.817  41.591   7.964
 1723POPC   C4A24402  12.871  41.603   7.664
 1723POPC   C1B24403  12.668  41.606   8.564
 1723POPC   C2B24404  12.609  41.606   8.264
 1723POPC   C3B24405  12.573  41.605   7.964
 1723POPC   C4B24406  12.646  41.622   7.664
 1724POPC   NC324407   9.792  23.676   9.464
 1724POPC   PO424408   9.758  23.700   9.164
 1724POPC   GL124409   9.729  23.695   8.864
 1724POPC   GL224410   9.632  23.599   8.864
 1724POPC   C1A24411   9.735  23.673   8.564
 1724POPC   D2A24412   9.709  23.739   8.264
 1724POPC   C3A24413   9.768  23.703   7.964
 1724POPC   C4A24414   9.776  23.698   7.664
 1724POPC   C1B24415   9.581  23.512   8.564
 1724POPC   C2B24416   9.527  23.537   8.264
 1724POPC   C3B24417   9.593  23.508   7.964
 1724POPC   C4B24418   9.559  23.565   7.664
 1725POPC   NC324419  15.971  11.344   9.464
 1725POPC   PO424420  15.937  11.292   9.164
 1725POPC   GL124421  15.907  11.300   8.864
 1725POPC   GL224422  16.028  11.153   8.864
 1725POPC   C1A24423  15.911  11.302   8.564
 1725POPC   D2A24424  15.965  11.268   8.264
 1725POPC   C3A24425  15.991  11.344   7.964
 1725POPC   C4A24426  15.988  11.315   7.664
 1725POPC   C1B24427  16.027  11.043   8.564
 1725POPC   C2B24428  16.055  11.077   8.264
 1725POPC   C3B24429  15.997  11.017   7.964
 1725POPC   C4B24430  16.067  11.073   7.664
 1726POPC   NC324431  39.240  31.448   9.464
 1726POPC   PO424432  39.235  31.468   9.164
 1726POPC   GL124433  39.277  31.431   8.864
 1726POPC   GL224434  39.280  31.376   8.864
 1726POPC   C1A24435  39.239  31.437   8.564
 1726POPC   D2A24436  39.248  31.495   8.264
 1726POPC   C3A24437  39.281  31.488   7.964
 1726POPC   C4A24438  39.261  31.490   7.664
 1726POPC   C1B24439  39.353  31.247   8.564
 1726POPC   C2B24440  39.285  31.212   8.264
 1726POPC   C3B24441  39.381  31.293   7.964
 1726POPC   C4B24442  39.300  31.240   7.664
 1727POPC   NC324443  26.001  37.708   9.464
 1727POPC   PO424444  26.091  37.727   9.164
 1727POPC   GL124445  26.078  37.656   8.864
 1727POPC   GL224446  26.122  37.578   8.864
 1727POPC   C1A24447  26.038  37.643   8.564
 1727POPC   D2A24448  26.056  37.636   8.264
 1727POPC   C3A24449  26.026  37.709   7.964
 1727POPC   C4A24450  26.003  37.665   7.664
 1727POPC   C1B24451  26.130  37.469   8.564
 1727POPC   C2B24452  26.183  37.463   8.264
 1727POPC   C3B24453  26.201  37.407   7.964
 1727POPC   C4B24454  26.175  37.462   7.664
 1728POPC   NC324455  20.652   2.032   9.464
 1728POPC   PO424456  20.625   1.968   9.164
 1728POPC   GL124457  20.586   1.993   8.864
 1728POPC   GL224458  20.479   1.856   8.864
 1728POPC   C1A24459  20.619   2.008   8.564
 1728POPC   D2A24460  20.615   2.005   8.264
 1728POPC   C3A24461  20.578   2.036   7.964
 1728POPC   C4A24462  20.640   2.014   7.664
 1728POPC   C1B24463  20.479   1.803   8.564
 1728POPC   C2B24464  20.404   1.804   8.264
 1728POPC   C3B24465  20.485   1.825   7.964
 1728POPC   C4B24466  20.465   1.806   7.664
 1729POPC   NC324467   9.787  10.481   9.464
 1729POPC   PO424468   9.740  10.568   9.164
 1729POPC   GL124469   9.790  10.538   8.864
 1729POPC   GL224470   9.742  10.629   8.864
 1729POPC   C1A24471   9.706  10.573   8.564
 1729POPC   D2A24472   9.759  10.519   8.264
 1729POPC   C3A24473   9.729  10.530   7.964
 1729POPC   C4A24474   9.784  10.561   7.664
 1729POPC   C1B24475   9.821  10.804   8.564
 1729POPC   C2B24476   9.749  10.747   8.264
 1729POPC   C3B24477   9.778  10.821   7.964
 1729POPC   C4B24478   9.744  10.812   7.664
 1730POPC   NC324479   2.749  40.038   9.464
 1730POPC   PO424480   2.796  40.026   9.164
 1730POPC   GL124481   2.729  40.018   8.864
 1730POPC   GL224482   2.823  39.888   8.864
 1730POPC   C1A24483   2.769  40.007   8.564
 1730POPC   D2A24484   2.781  40.037   8.264
 1730POPC   C3A24485   2.805  39.961   7.964
 1730POPC   C4A24486   2.766  40.033   7.664
 1730POPC   C1B24487   2.858  39.809   8.564
 1730POPC   C2B24488   2.775  39.811   8.264
 1730POPC   C3B24489   2.843  39.763   7.964
 1730POPC   C4B24490   2.826  39.767   7.664
 1731POPC   NC324491  18.313  12.879   9.464
 1731POPC   PO424492  18.251  12.815   9.164
 1731POPC   GL124493  18.308  12.808   8.864
 1731POPC   GL224494  18.424  12.876   8.864
 1731POPC   C1A24495  18.265  12.850   8.564
 1731POPC   D2A24496  18.251  12.874   8.264
 1731POPC   C3A24497  18.322  12.897   7.964
 1731POPC   C4A24498  18.274  12.871   7.664
 1731POPC   C1B24499  18.513  12.935   8.564
 1731POPC   C2B24500  18.543  12.861   8.264
 1731POPC   C3B24501  18.574  12.874   7.964
 1731POPC   C4B24502  18.550  12.928   7.664
 1732POPC   NC324503  33.772  32.250   9.464
 1732POPC   PO424504  33.762  32.292   9.164
 1732POPC   GL124505  33.816  32.214   8.864
 1732POPC   GL224506  33.884  32.219   8.864
 1732POPC   C1A24507  33.756  32.246   8.564
 1732POPC   D2A24508  33.780  32.268   8.264
 1732POPC   C3A24509  33.768  32.207   7.964
 1732POPC   C4A24510  33.835  32.240   7.664
 1732POPC   C1B24511  33.967  32.138   8.564
 1732POPC   C2B24512  33.962  32.119   8.264
 1732POPC   C3B24513  33.977  32.138   7.964
 1732POPC   C4B24514  34.021  32.131   7.664
 1733POPC   NC324515  28.321  23.734   9.464
 1733POPC   PO424516  28.331  23.722   9.164
 1733POPC   GL124517  28.376  23.710   8.864
 1733POPC   GL224518  28.233  23.768   8.864
 1733POPC   C1A24519  28.341  23.701   8.564
 1733POPC   D2A24520  28.381  23.729   8.264
 1733POPC   C3A24521  28.374  23.729   7.964
 1733POPC   C4A24522  28.359  23.727   7.664
 1733POPC   C1B24523  28.193  23.866   8.564
 1733POPC   C2B24524  28.218  23.858   8.264
 1733POPC   C3B24525  28.212  23.870   7.964
 1733POPC   C4B24526  28.144  23.837   7.664
 1734POPC   NC324527  38.458  27.617   9.464
 1734POPC   PO424528  38.486  27.583   9.164
 1734POPC   GL124529  38.459  27.605   8.864
 1734POPC   GL224530  38.576  27.599   8.864
 1734POPC   C1A24531  38.451  27.586   8.564
 1734POPC   D2A24532  38.439  27.599   8.264
 1734POPC   C3A24533  38.451  27.600   7.964
 1734POPC   C4A24534  38.488  27.543   7.664
 1734POPC   C1B24535  38.739  27.521   8.564
 1734POPC   C2B24536  38.737  27.487   8.264
 1734POPC   C3B24537  38.699  27.531   7.964
 1734POPC   C4B24538  38.658  27.554   7.664
 1735POPC   NC324539   5.824  43.919   9.464
 1735POPC   PO424540   5.897  43.876   9.164
 1735POPC   GL124541   5.892  43.884   8.864
 1735POPC   GL224542   5.825  43.781   8.864
 1735POPC   C1A24543   5.864  43.876   8.564
 1735POPC   D2A24544   5.913  43.860   8.264
 1735POPC   C3A24545   5.910  43.873   7.964
 1735POPC   C4A24546   5.903  43.929   7.664
 1735POPC   C1B24547   5.814  43.698   8.564
 1735POPC   C2B24548   5.789  43.701   8.264
 1735POPC   C3B24549   5.807  43.688   7.964
 1735POPC   C4B24550   5.815  43.686   7.664
 1736POPC   NC324551  24.440  26.838   9.464
 1736POPC   PO424552  24.493  26.823   9.164
 1736POPC   GL124553  24.453  26.812   8.864
 1736POPC   GL224554  24.590  26.902   8.864
 1736POPC   C1A24555  24.510  26.812   8.564
 1736POPC   D2A24556  24.486  26.816   8.264
 1736POPC   C3A24557  24.480  26.857   7.964
 1736POPC   C4A24558  24.444  26.854   7.664
 1736POPC   C1B24559  24.744  26.986   8.564
 1736POPC   C2B24560  24.736  26.939   8.264
 1736POPC   C3B24561  24.733  26.905   7.964
 1736POPC   C4B24562  24.713  26.902   7.664
 1737POPC   NC324563  19.842   4.314   9.464
 1737POPC   PO424564  19.858   4.317   9.164
 1737POPC   GL124565  19.857   4.344   8.864
 1737POPC   GL224566  19.881   4.190   8.864
 1737POPC   C1A24567  19.876   4.276   8.564
 1737POPC   D2A24568  19.818   4.351   8.264
 1737POPC   C3A24569  19.838   4.327   7.964
 1737POPC   C4A24570  19.867   4.347   7.664
 1737POPC   C1B24571  19.923   4.085   8.564
 1737POPC   C2B24572  19.939   4.100   8.264
 1737POPC   C3B24573  19.943   4.139   7.964
 1737POPC   C4B24574  19.956   4.137   7.664
 1738POPC   NC324575  44.647   7.434   9.464
 1738POPC   PO424576  44.660   7.431   9.164
 1738POPC   GL124577  44.703   7.402   8.864
 1738POPC   GL224578  44.668   7.328   8.864
 1738POPC   C1A24579  44.643   7.429   8.564
 1738POPC   D2A24580  44.706   7.445   8.264
 1738POPC   C3A24581  44.667   7.382   7.964
 1738POPC   C4A24582  44.629   7.413   7.664
 1738POPC   C1B24583  44.703   7.171   8.564
 1738POPC   C2B24584  44.717   7.200   8.264
 1738POPC   C3B24585  44.717   7.209   7.964
 1738POPC   C4B24586  44.696   7.125   7.664
 1739POPC   NC324587   1.215   2.018   9.464
 1739POPC   PO424588   1.202   1.954   9.164
 1739POPC   GL124589   1.214   2.016   8.864
 1739POPC   GL224590   1.111   1.933   8.864
 1739POPC   C1A24591   1.165   2.012   8.564
 1739POPC   D2A24592   1.260   1.965   8.264
 1739POPC   C3A24593   1.193   2.024   7.964
 1739POPC   C4A24594   1.206   1.994   7.664
 1739POPC   C1B24595   0.984   1.839   8.564
 1739POPC   C2B24596   0.977   1.859   8.264
 1739POPC   C3B24597   0.954   1.847   7.964
 1739POPC   C4B24598   1.039   1.848   7.664
 1740POPC   NC324599  18.248  37.693   9.464
 1740POPC   PO424600  18.292  37.643   9.164
 1740POPC   GL124601  18.234  37.657   8.864
 1740POPC   GL224602  18.274  37.760   8.864
 1740POPC   C1A24603  18.260  37.699   8.564
 1740POPC   D2A24604  18.314  37.710   8.264
 1740POPC   C3A24605  18.283  37.633   7.964
 1740POPC   C4A24606  18.293  37.659   7.664
 1740POPC   C1B24607  18.341  37.930   8.564
 1740POPC   C2B24608  18.258  37.882   8.264
 1740POPC   C3B24609  18.269  37.942   7.964
 1740POPC   C4B24610  18.292  37.905   7.664
 1741POPC   NC324611  22.113  13.589   9.464
 1741POPC   PO424612  22.169  13.653   9.164
 1741POPC   GL124613  22.148  13.644   8.864
 1741POPC   GL224614  22.239  13.674   8.864
 1741POPC   C1A24615  22.183  13.671   8.564
 1741POPC   D2A24616  22.200  13.614   8.264
 1741POPC   C3A24617  22.135  13.614   7.964
 1741POPC   C4A24618  22.164  13.637   7.664
 1741POPC   C1B24619  22.412  13.745   8.564
 1741POPC   C2B24620  22.434  13.735   8.264
 1741POPC   C3B24621  22.407  13.745   7.964
 1741POPC   C4B24622  22.351  13.719   7.664
 1742POPC   NC324623  27.597   4.288   9.464
 1742POPC   PO424624  27.607   4.367   9.164
 1742POPC   GL124625  27.592   4.322   8.864
 1742POPC   GL224626  27.656   4.175   8.864
 1742POPC   C1A24627  27.629   4.270   8.564
 1742POPC   D2A24628  27.577   4.268   8.264
 1742POPC   C3A24629  27.631   4.342   7.964
 1742POPC   C4A24630  27.620   4.295   7.664
 1742POPC   C1B24631  27.751   4.148   8.564
 1742POPC   C2B24632  27.759   4.176   8.264
 1742POPC   C3B24633  27.749   4.117   7.964
 1742POPC   C4B24634  27.737   4.140   7.664
 1743POPC   NC324635  15.160  11.344   9.464
 1743POPC   PO424636  15.169  11.320   9.164
 1743POPC   GL124637  15.131  11.293   8.864
 1743POPC   GL224638  15.337  11.316   8.864
 1743POPC   C1A24639  15.161  11.279   8.564
 1743POPC   D2A24640  15.160  11.335   8.264
 1743POPC   C3A24641  15.208  11.266   7.964
 1743POPC   C4A24642  15.170  11.341   7.664
 1743POPC   C1B24643  15.396  11.211   8.564
 1743POPC   C2B24644  15.440  11.264   8.264
 1743POPC   C3B24645  15.432  11.260   7.964
 1743POPC   C4B24646  15.459  11.290   7.664
 1744POPC   NC324647  39.235  23.744   9.464
 1744POPC   PO424648  39.266  23.715   9.164
 1744POPC   GL124649  39.215  23.738   8.864
 1744POPC   GL224650  39.145  23.756   8.864
 1744POPC   C1A24651  39.244  23.756   8.564
 1744POPC   D2A24652  39.262  23.707   8.264
 1744POPC   C3A24653  39.258  23.751   7.964
 1744POPC   C4A24654  39.252  23.714   7.664
 1744POPC   C1B24655  39.029  23.868   8.564
 1744POPC   C2B24656  39.011  23.869   8.264
 1744POPC   C3B24657  39.005  23.812   7.964
 1744POPC   C4B24658  39.052  23.823   7.664
 1745POPC   NC324659   0.429   9.021   9.464
 1745POPC   PO424660   0.475   9.021   9.164
 1745POPC   GL124661   0.420   9.000   8.864
 1745POPC   GL224662   0.380   8.878   8.864
 1745POPC   C1A24663   0.440   8.958   8.564
 1745POPC   D2A24664   0.428   8.988   8.264
 1745POPC   C3A24665   0.407   9.002   7.964
 1745POPC   C4A24666   0.422   8.948   7.664
 1745POPC   C1B24667   0.234   8.811   8.564
 1745POPC   C2B24668   0.331   8.750   8.264
 1745POPC   C3B24669   0.308   8.816   7.964
 1745POPC   C4B24670   0.288   8.803   7.664
 1746POPC   NC324671   8.206  22.153   9.464
 1746POPC   PO424672   8.208  22.210   9.164
 1746POPC   GL124673   8.170  22.117   8.864
 1746POPC   GL224674   8.139  22.276   8.864
 1746POPC   C1A24675   8.199  22.151   8.564
 1746POPC   D2A24676   8.169  22.175   8.264
 1746POPC   C3A24677   8.192  22.182   7.964
 1746POPC   C4A24678   8.156  22.127   7.664
 1746POPC   C1B24679   8.092  22.432   8.564
 1746POPC   C2B24680   8.130  22.423   8.264
 1746POPC   C3B24681   8.103  22.354   7.964
 1746POPC   C4B24682   8.091  22.371   7.664
 1747POPC   NC324683  32.291  31.474   9.464
 1747POPC   PO424684  32.287  31.445   9.164
 1747POPC   GL124685  32.289  31.428   8.864
 1747POPC   GL224686  32.280  31.620   8.864
 1747POPC   C1A24687  32.280  31.432   8.564
 1747POPC   D2A24688  32.275  31.490   8.264
 1747POPC   C3A24689  32.288  31.479   7.964
 1747POPC   C4A24690  32.266  31.444   7.664
 1747POPC   C1B24691  32.340  31.694   8.564
 1747POPC   C2B24692  32.330  31.657   8.264
 1747POPC   C3B24693  32.374  31.746   7.964
 1747POPC   C4B24694  32.347  31.658   7.664
 1748POPC   NC324695  36.132  40.015   9.464
 1748POPC   PO424696  36.140  40.010   9.164
 1748POPC   GL124697  36.138  39.960   8.864
 1748POPC   GL224698  36.252  40.005   8.864
 1748POPC   C1A24699  36.121  40.030   8.564
 1748POPC   D2A24700  36.137  40.009   8.264
 1748POPC   C3A24701  36.093  39.979   7.964
 1748POPC   C4A24702  36.085  39.971   7.664
 1748POPC   C1B24703  36.393  39.897   8.564
 1748POPC   C2B24704  36.321  39.906   8.264
 1748POPC   C3B24705  36.391  39.880   7.964
 1748POPC   C4B24706  36.361  39.883   7.664
 1749POPC   NC324707  37.705  11.296   9.464
 1749POPC   PO424708  37.654  11.297   9.164
 1749POPC   GL124709  37.645  11.338   8.864
 1749POPC   GL224710  37.676  11.426   8.864
 1749POPC   C1A24711  37.646  11.344   8.564
 1749POPC   D2A24712  37.677  11.340   8.264
 1749POPC   C3A24713  37.674  11.326   7.964
 1749POPC   C4A24714  37.679  11.281   7.664
 1749POPC   C1B24715  37.615  11.575   8.564
 1749POPC   C2B24716  37.543  11.548   8.264
 1749POPC   C3B24717  37.535  11.507   7.964
 1749POPC   C4B24718  37.562  11.498   7.664
 1750POPC   NC324719  29.105  43.090   9.464
 1750POPC   PO424720  29.118  43.144   9.164
 1750POPC   GL124721  29.155  43.086   8.864
 1750POPC   GL224722  29.020  43.240   8.864
 1750POPC   C1A24723  29.102  43.154   8.564
 1750POPC   D2A24724  29.180  43.106   8.264
 1750POPC   C3A24725  29.098  43.116   7.964
 1750POPC   C4A24726  29.135  43.133   7.664
 1750POPC   C1B24727  28.920  43.277   8.564
 1750POPC   C2B24728  28.961  43.294   8.264
 1750POPC   C3B24729  28.925  43.298   7.964
 1750POPC   C4B24730  29.010  43.333   7.664
 1751POPC   NC324731  31.426  25.291   9.464
 1751POPC   PO424732  31.481  25.261   9.164
 1751POPC   GL124733  31.434  25.311   8.864
 1751POPC   GL224734  31.374  25.194   8.864
 1751POPC   C1A24735  31.488  25.287   8.564
 1751POPC   D2A24736  31.509  25.243   8.264
 1751POPC   C3A24737  31.448  25.244   7.964
 1751POPC   C4A24738  31.466  25.231   7.664
 1751POPC   C1B24739  31.217  25.178   8.564
 1751POPC   C2B24740  31.253  25.174   8.264
 1751POPC   C3B24741  31.273  25.236   7.964
 1751POPC   C4B24742  31.270  25.219   7.664
 1752POPC   NC324743  13.590  39.241   9.464
 1752POPC   PO424744  13.670  39.226   9.164
 1752POPC   GL124745  13.654  39.252   8.864
 1752POPC   GL224746  13.472  39.199   8.864
 1752POPC   C1A24747  13.651  39.189   8.564
 1752POPC   D2A24748  13.659  39.213   8.264
 1752POPC   C3A24749  13.604  39.191   7.964
 1752POPC   C4A24750  13.677  39.248   7.664
 1752POPC   C1B24751  13.380  39.194   8.564
 1752POPC   C2B24752  13.348  39.232   8.264
 1752POPC   C3B24753  13.346  39.176   7.964
 1752POPC   C4B24754  13.386  39.187   7.664
 1753POPC   NC324755  33.065  13.581   9.464
 1753POPC   PO424756  32.993  13.659   9.164
 1753POPC   GL124757  32.982  13.650   8.864
 1753POPC   GL224758  33.099  13.667   8.864
 1753POPC   C1A24759  33.017  13.652   8.564
 1753POPC   D2A24760  33.072  13.676   8.264
 1753POPC   C3A24761  33.032  13.655   7.964
 1753POPC   C4A24762  33.016  13.658   7.664
 1753POPC   C1B24763  33.300  13.691   8.564
 1753POPC   C2B24764  33.249  13.737   8.264
 1753POPC   C3B24765  33.233  13.716   7.964
 1753POPC   C4B24766  33.270  13.694   7.664
 1754POPC   NC324767  30.650  42.337   9.464
 1754POPC   PO424768  30.679  42.309   9.164
 1754POPC   GL124769  30.670  42.370   8.864
 1754POPC   GL224770  30.789  42.447   8.864
 1754POPC   C1A24771  30.745  42.335   8.564
 1754POPC   D2A24772  30.705  42.291   8.264
 1754POPC   C3A24773  30.677  42.365   7.964
 1754POPC   C4A24774  30.739  42.367   7.664
 1754POPC   C1B24775  30.856  42.570   8.564
 1754POPC   C2B24776  30.804  42.558   8.264
 1754POPC   C3B24777  30.842  42.492   7.964
 1754POPC   C4B24778  30.871  42.547   7.664
 1755POPC   NC324779   5.055  44.619   9.464
 1755POPC   PO424780   5.052  44.622   9.164
 1755POPC   GL124781   5.102  44.631   8.864
 1755POPC   GL224782   5.268  44.648   8.864
 1755POPC   C1A24783   5.070  44.681   8.564
 1755POPC   D2A24784   5.108  44.638   8.264
 1755POPC   C3A24785   5.098  44.696   7.964
 1755POPC   C4A24786   5.054  44.625   7.664
 1755POPC   C1B24787   5.298  44.706   8.564
 1755POPC   C2B24788   5.375  44.672   8.264
 1755POPC   C3B24789   5.384  44.640   7.964
 1755POPC   C4B24790   5.326  44.710   7.664
 1756POPC   NC324791  15.132   8.997   9.464
 1756POPC   PO424792  15.150   8.948   9.164
 1756POPC   GL124793  15.175   8.933   8.864
 1756POPC   GL224794  15.252   8.961   8.864
 1756POPC   C1A24795  15.214   8.924   8.564
 1756POPC   D2A24796  15.148   9.017   8.264
 1756POPC   C3A24797  15.228   9.007   7.964
 1756POPC   C4A24798  15.152   9.013   7.664
 1756POPC   C1B24799  15.426   8.867   8.564
 1756POPC   C2B24800  15.429   8.918   8.264
 1756POPC   C3B24801  15.369   8.861   7.964
 1756POPC   C4B24802  15.397   8.924   7.664
 1757POPC   NC324803  42.376  22.905   9.464
 1757POPC   PO424804  42.358  22.890   9.164
 1757POPC   GL124805  42.293  22.949   8.864
 1757POPC   GL224806  42.468  23.005   8.864
 1757POPC   C1A24807  42.321  22.914   8.564
 1757POPC   D2A24808  42.349  22.929   8.264
 1757POPC   C3A24809  42.291  22.917   7.964
 1757POPC   C4A24810  42.296  22.888   7.664
 1757POPC   C1B24811  42.558  23.072   8.564
 1757POPC   C2B24812  42.592  23.040   8.264
 1757POPC   C3B24813  42.547  23.031   7.964
 1757POPC   C4B24814  42.563  23.082   7.664
 1758POPC   NC324815   6.693  19.832   9.464
 1758POPC   PO424816   6.671  19.790   9.164
 1758POPC   GL124817   6.648  19.797   8.864
 1758POPC   GL224818   6.714  19.948   8.864
 1758POPC   C1A24819   6.668  19.824   8.564
 1758POPC   D2A24820   6.650  19.823   8.264
 1758POPC   C3A24821   6.599  19.853   7.964
 1758POPC   C4A24822   6.687  19.878   7.664
 1758POPC   C1B24823   6.702  20.094   8.564
 1758POPC   C2B24824   6.697  20.115   8.264
 1758POPC   C3B24825   6.670  20.107   7.964
 1758POPC   C4B24826   6.706  20.057   7.664
 1759POPC   NC324827   0.393  38.405   9.464
 1759POPC   PO424828   0.420  38.423   9.164
 1759POPC   GL124829   0.442  38.419   8.864
 1759POPC   GL224830   0.445  38.557   8.864
 1759POPC   C1A24831   0.403  38.445   8.564
 1759POPC   D2A24832   0.435  38.449   8.264
 1759POPC   C3A24833   0.470  38.458   7.964
 1759POPC   C4A24834   0.423  38.444   7.664
 1759POPC   C1B24835   0.388  38.679   8.564
 1759POPC   C2B24836   0.342  38.713   8.264
 1759POPC   C3B24837   0.338  38.647   7.964
 1759POPC   C4B24838   0.408  38.678   7.664
 1760POPC   NC324839   2.019  12.884   9.464
 1760POPC   PO424840   1.978  12.883   9.164
 1760POPC   GL124841   1.982  12.862   8.864
 1760POPC   GL224842   1.960  12.751   8.864
 1760POPC   C1A24843   1.945  12.847   8.564
 1760POPC   D2A24844   2.037  12.880   8.264
 1760POPC   C3A24845   1.943  12.871   7.964
 1760POPC   C4A24846   1.986  12.815   7.664
 1760POPC   C1B24847   1.798  12.612   8.564
 1760POPC   C2B24848   1.824  12.639   8.264
 1760POPC   C3B24849   1.886  12.606   7.964
 1760POPC   C4B24850   1.880  12.615   7.664
 1761POPC   NC324851  11.294  30.724   9.464
 1761POPC   PO424852  11.312  30.717   9.164
 1761POPC   GL124853  11.332  30.694   8.864
 1761POPC   GL224854  11.388  30.555   8.864
 1761POPC   C1A24855  11.321  30.716   8.564
 1761POPC   D2A24856  11.340  30.697   8.264
 1761POPC   C3A24857  11.279  30.736   7.964
 1761POPC   C4A24858  11.263  30.711   7.664
 1761POPC   C1B24859  11.415  30.466   8.564
 1761POPC   C2B24860  11.426  30.506   8.264
 1761POPC   C3B24861  11.359  30.449   7.964
 1761POPC   C4B24862  11.414  30.426   7.664
 1762POPC   NC324863  29.182   8.930   9.464
 1762POPC   PO424864  29.174   8.990   9.164
 1762POPC   GL124865  29.098   9.022   8.864
 1762POPC   GL224866  28.991   8.980   8.864
 1762POPC   C1A24867  29.121   8.958   8.564
 1762POPC   D2A24868  29.167   8.982   8.264
 1762POPC   C3A24869  29.181   8.942   7.964
 1762POPC   C4A24870  29.160   8.960   7.664
 1762POPC   C1B24871  28.907   9.019   8.564
 1762POPC   C2B24872  28.917   8.994   8.264
 1762POPC   C3B24873  28.874   8.979   7.964
 1762POPC   C4B24874  28.938   9.049   7.664
 1763POPC   NC324875  15.949   7.377   9.464
 1763POPC   PO424876  15.956   7.447   9.164
 1763POPC   GL124877  15.942   7.386   8.864
 1763POPC   GL224878  15.867   7.434   8.864
 1763POPC   C1A24879  15.992   7.438   8.564
 1763POPC   D2A24880  16.002   7.442   8.264
 1763POPC   C3A24881  15.937   7.371   7.964
 1763POPC   C4A24882  15.986   7.383   7.664
 1763POPC   C1B24883  15.680   7.423   8.564
 1763POPC   C2B24884  15.665   7.451   8.264
 1763POPC   C3B24885  15.747   7.442   7.964
 1763POPC   C4B24886  15.737   7.387   7.664
 1764POPC   NC324887  37.711  19.079   9.464
 1764POPC   PO424888  37.670  19.086   9.164
 1764POPC   GL124889  37.669  19.020   8.864
 1764POPC   GL224890  37.662  18.943   8.864
 1764POPC   C1A24891  37.653  19.055   8.564
 1764POPC   D2A24892  37.729  19.036   8.264
 1764POPC   C3A24893  37.682  19.023   7.964
 1764POPC   C4A24894  37.630  19.075   7.664
 1764POPC   C1B24895  37.580  18.799   8.564
 1764POPC   C2B24896  37.613  18.859   8.264
 1764POPC   C3B24897  37.605  18.824   7.964
 1764POPC   C4B24898  37.578  18.811   7.664
 1765POPC   NC324899  23.681  29.109   9.464
 1765POPC   PO424900  23.750  29.125   9.164
 1765POPC   GL124901  23.721  29.166   8.864
 1765POPC   GL224902  23.806  29.224   8.864
 1765POPC   C1A24903  23.722  29.164   8.564
 1765POPC   D2A24904  23.709  29.107   8.264
 1765POPC   C3A24905  23.728  29.137   7.964
 1765POPC   C4A24906  23.735  29.146   7.664
 1765POPC   C1B24907  23.891  29.335   8.564
 1765POPC   C2B24908  23.952  29.257   8.264
 1765POPC   C3B24909  23.898  29.341   7.964
 1765POPC   C4B24910  23.911  29.325   7.664
 1766POPC   NC324911   3.499  25.236   9.464
 1766POPC   PO424912   3.499  25.275   9.164
 1766POPC   GL124913   3.587  25.307   8.864
 1766POPC   GL224914   3.558  25.104   8.864
 1766POPC   C1A24915   3.557  25.231   8.564
 1766POPC   D2A24916   3.581  25.291   8.264
 1766POPC   C3A24917   3.499  25.287   7.964
 1766POPC   C4A24918   3.504  25.276   7.664
 1766POPC   C1B24919   3.586  25.040   8.564
 1766POPC   C2B24920   3.583  25.062   8.264
 1766POPC   C3B24921   3.622  25.020   7.964
 1766POPC   C4B24922   3.650  25.016   7.664
 1767POPC   NC324923  19.820  22.124   9.464
 1767POPC   PO424924  19.856  22.173   9.164
 1767POPC   GL124925  19.799  22.201   8.864
 1767POPC   GL224926  19.854  22.059   8.864
 1767POPC   C1A24927  19.815  22.194   8.564
 1767POPC   D2A24928  19.838  22.196   8.264
 1767POPC   C3A24929  19.800  22.153   7.964
 1767POPC   C4A24930  19.803  22.146   7.664
 1767POPC   C1B24931  19.879  21.915   8.564
 1767POPC   C2B24932  19.929  21.942   8.264
 1767POPC   C3B24933  19.886  21.935   7.964
 1767POPC   C4B24934  19.879  21.877   7.664
 1768POPC   NC324935   9.778  19.814   9.464
 1768POPC   PO424936   9.759  19.875   9.164
 1768POPC   GL124937   9.781  19.829   8.864
 1768POPC   GL224938   9.686  19.695   8.864
 1768POPC   C1A24939   9.719  19.815   8.564
 1768POPC   D2A24940   9.755  19.816   8.264
 1768POPC   C3A24941   9.784  19.792   7.964
 1768POPC   C4A24942   9.701  19.793   7.664
 1768POPC   C1B24943   9.728  19.541   8.564
 1768POPC   C2B24944   9.739  19.552   8.264
 1768POPC   C3B24945   9.732  19.581   7.964
 1768POPC   C4B24946   9.708  19.600   7.664
 1769POPC   NC324947  41.593  33.806   9.464
 1769POPC   PO424948  41.572  33.849   9.164
 1769POPC   GL124949  41.528  33.756   8.864
 1769POPC   GL224950  41.476  33.925   8.864
 1769POPC   C1A24951  41.559  33.765   8.564
 1769POPC   D2A24952  41.555  33.808   8.264
 1769POPC   C3A24953  41.527  33.786   7.964
 1769POPC   C4A24954  41.590  33.850   7.664
 1769POPC   C1B24955  41.451  33.991   8.564
 1769POPC   C2B24956  41.528  34.087   8.264
 1769POPC   C3B24957  41.489  34.055   7.964
 1769POPC   C4B24958  41.466  34.025   7.664
 1770POPC   NC324959  12.096  43.849   9.464
 1770POPC   PO424960  12.057  43.868   9.164
 1770POPC   GL124961  12.028  43.870   8.864
 1770POPC   GL224962  12.081  44.016   8.864
 1770POPC   C1A24963  12.036  43.914   8.564
 1770POPC   D2A24964  12.051  43.886   8.264
 1770POPC   C3A24965  12.052  43.909   7.964
 1770POPC   C4A24966  12.057  43.935   7.664
 1770POPC   C1B24967  12.087  44.175   8.564
 1770POPC   C2B24968  12.033  44.101   8.264
 1770POPC   C3B24969  12.052  44.176   7.964
 1770POPC   C4B24970  12.065  44.098   7.664
 1771POPC   NC324971   5.836  12.867   9.464
 1771POPC   PO424972   5.835  12.829   9.164
 1771POPC   GL124973   5.880  12.830   8.864
 1771POPC   GL224974   5.986  12.800   8.864
 1771POPC   C1A24975   5.830  12.811   8.564
 1771POPC   D2A24976   5.835  12.827   8.264
 1771POPC   C3A24977   5.917  12.844   7.964
 1771POPC   C4A24978   5.911  12.875   7.664
 1771POPC   C1B24979   6.070  12.808   8.564
 1771POPC   C2B24980   6.087  12.783   8.264
 1771POPC   C3B24981   6.068  12.807   7.964
 1771POPC   C4B24982   6.065  12.827   7.664
 1772POPC   NC324983  19.080  13.593   9.464
 1772POPC   PO424984  19.036  13.622   9.164
 1772POPC   GL124985  19.050  13.674   8.864
 1772POPC   GL224986  18.937  13.564   8.864
 1772POPC   C1A24987  19.072  13.637   8.564
 1772POPC   D2A24988  19.021  13.610   8.264
 1772POPC   C3A24989  19.079  13.662   7.964
 1772POPC   C4A24990  19.045  13.607   7.664
 1772POPC   C1B24991  18.912  13.414   8.564
 1772POPC   C2B24992  18.914  13.419   8.264
 1772POPC   C3B24993  18.923  13.463   7.964
 1772POPC   C4B24994  18.866  13.434   7.664
 1773POPC   NC324995  43.107  36.080   9.464
 1773POPC   PO424996  43.149  36.094   9.164
 1773POPC   GL124997  43.143  36.095   8.864
 1773POPC   GL224998  42.987  36.120   8.864
 1773POPC   C1A24999  43.143  36.139   8.564
 1773POPC   D2A25000  43.135  36.100   8.264
 1773POPC   C3A25001  43.113  36.132   7.964
 1773POPC   C4A25002  43.112  36.117   7.664
 1773POPC   C1B25003  42.899  36.158   8.564
 1773POPC   C2B25004  42.876  36.074   8.264
 1773POPC   C3B25005  42.863  36.100   7.964
 1773POPC   C4B25006  42.877  36.155   7.664
 1774POPC   NC325007  43.901   2.765   9.464
 1774POPC   PO425008  43.840   2.787   9.164
 1774POPC   GL125009  43.891   2.779   8.864
 1774POPC   GL225010  43.949   2.636   8.864
 1774POPC   C1A25011  43.915   2.742   8.564
 1774POPC   D2A25012  43.878   2.748   8.264
 1774POPC   C3A25013  43.899   2.763   7.964
 1774POPC   C4A25014  43.922   2.769   7.664
 1774POPC   C1B25015  43.910   2.513   8.564
 1774POPC   C2B25016  43.945   2.474   8.264
 1774POPC   C3B25017  43.949   2.513   7.964
 1774POPC   C4B25018  43.916   2.486   7.664
 1775POPC   NC325019  26.015  12.041   9.464
 1775POPC   PO425020  25.994  12.077   9.164
 1775POPC   GL125021  26.006  12.116   8.864
 1775POPC   GL225022  25.880  12.085   8.864
 1775POPC   C1A25023  26.016  12.043   8.564
 1775POPC   D2A25024  26.025  12.086   8.264
 1775POPC   C3A25025  26.085  12.051   7.964
 1775POPC   C4A25026  26.021  12.093   7.664
 1775POPC   C1B25027  25.807  12.213   8.564
 1775POPC   C2B25028  25.819  12.201   8.264
 1775POPC   C3B25029  25.860  12.183   7.964
 1775POPC   C4B25030  25.834  12.214   7.664
 1776POPC   NC325031   1.177   5.077   9.464
 1776POPC   PO425032   1.169   5.107   9.164
 1776POPC   GL125033   1.198   5.109   8.864
 1776POPC   GL225034   1.298   4.975   8.864
 1776POPC   C1A25035   1.197   5.082   8.564
 1776POPC   D2A25036   1.175   5.137   8.264
 1776POPC   C3A25037   1.185   5.117   7.964
 1776POPC   C4A25038   1.250   5.072   7.664
 1776POPC   C1B25039   1.340   4.853   8.564
 1776POPC   C2B25040   1.317   4.846   8.264
 1776POPC   C3B25041   1.347   4.894   7.964
 1776POPC   C4B25042   1.300   4.855   7.664
 1777POPC   NC325043  23.747  33.754   9.464
 1777POPC   PO425044  23.728  33.767   9.164
 1777POPC   GL125045  23.693  33.798   8.864
 1777POPC   GL225046  23.840  33.691   8.864
 1777POPC   C1A25047  23.724  33.775   8.564
 1777POPC   D2A25048  23.690  33.754   8.264
 1777POPC   C3A25049  23.703  33.791   7.964
 1777POPC   C4A25050  23.733  33.824   7.664
 1777POPC   C1B25051  23.897  33.697   8.564
 1777POPC   C2B25052  23.881  33.673   8.264
 1777POPC   C3B25053  23.880  33.709   7.964
 1777POPC   C4B25054  23.883  33.662   7.664
 1778POPC   NC325055  13.666   8.203   9.464
 1778POPC   PO425056  13.591   8.206   9.164
 1778POPC   GL125057  13.581   8.178   8.864
 1778POPC   GL225058  13.720   8.325   8.864
 1778POPC   C1A25059  13.612   8.157   8.564
 1778POPC   D2A25060  13.578   8.188   8.264
 1778POPC   C3A25061  13.665   8.153   7.964
 1778POPC   C4A25062  13.580   8.216   7.664
 1778POPC   C1B25063  13.682   8.400   8.564
 1778POPC   C2B25064  13.727   8.405   8.264
 1778POPC   C3B25065  13.709   8.412   7.964
 1778POPC   C4B25066  13.716   8.429   7.664
 1779POPC   NC325067  36.165  44.622   9.464
 1779POPC   PO425068  36.113  44.645   9.164
 1779POPC   GL125069  36.090  44.690   8.864
 1779POPC   GL225070  36.202  44.737   8.864
 1779POPC   C1A25071  36.145  44.628   8.564
 1779POPC   D2A25072  36.163  44.617   8.264
 1779POPC   C3A25073  36.131  44.681   7.964
 1779POPC   C4A25074  36.088  44.708   7.664
 1779POPC   C1B25075  36.349  44.863   8.564
 1779POPC   C2B25076  36.309  44.806   8.264
 1779POPC   C3B25077  36.263  44.849   7.964
 1779POPC   C4B25078  36.280  44.822   7.664
 1780POPC   NC325079  23.740  26.850   9.464
 1780POPC   PO425080  23.760  26.847   9.164
 1780POPC   GL125081  23.738  26.856   8.864
 1780POPC   GL225082  23.608  26.789   8.864
 1780POPC   C1A25083  23.725  26.839   8.564
 1780POPC   D2A25084  23.747  26.831   8.264
 1780POPC   C3A25085  23.724  26.820   7.964
 1780POPC   C4A25086  23.670  26.779   7.664
 1780POPC   C1B25087  23.514  26.679   8.564
 1780POPC   C2B25088  23.504  26.709   8.264
 1780POPC   C3B25089  23.493  26.765   7.964
 1780POPC   C4B25090  23.495  26.727   7.664
 1781POPC   NC325091  28.380  38.432   9.464
 1781POPC   PO425092  28.396  38.481   9.164
 1781POPC   GL125093  28.385  38.451   8.864
 1781POPC   GL225094  28.490  38.531   8.864
 1781POPC   C1A25095  28.406  38.407   8.564
 1781POPC   D2A25096  28.366  38.452   8.264
 1781POPC   C3A25097  28.340  38.431   7.964
 1781POPC   C4A25098  28.406  38.491   7.664
 1781POPC   C1B25099  28.577  38.539   8.564
 1781POPC   C2B25100  28.627  38.576   8.264
 1781POPC   C3B25101  28.565  38.570   7.964
 1781POPC   C4B25102  28.571  38.499   7.664
 1782POPC   NC325103  42.363  22.159   9.464
 1782POPC   PO425104  42.340  22.119   9.164
 1782POPC   GL125105  42.295  22.173   8.864
 1782POPC   GL225106  42.450  22.149   8.864
 1782POPC   C1A25107  42.320  22.124   8.564
 1782POPC   D2A25108  42.366  22.124   8.264
 1782POPC   C3A25109  42.384  22.189   7.964
 1782POPC   C4A25110  42.329  22.200   7.664
 1782POPC   C1B25111  42.623  22.257   8.564
 1782POPC   C2B25112  42.582  22.205   8.264
 1782POPC   C3B25113  42.606  22.263   7.964
 1782POPC   C4B25114  42.604  22.195   7.664
 1783POPC   NC325115  22.942  39.233   9.464
 1783POPC   PO425116  22.897  39.184   9.164
 1783POPC   GL125117  22.924  39.232   8.864
 1783POPC   GL225118  23.036  39.153   8.864
 1783POPC   C1A25119  22.912  39.243   8.564
 1783POPC   D2A25120  22.959  39.268   8.264
 1783POPC   C3A25121  22.955  39.252   7.964
 1783POPC   C4A25122  22.893  39.187   7.664
 1783POPC   C1B25123  23.078  39.040   8.564
 1783POPC   C2B25124  23.107  39.069   8.264
 1783POPC   C3B25125  23.110  39.013   7.964
 1783POPC   C4B25126  23.088  39.059   7.664
 1784POPC   NC325127   2.034  42.345   9.464
 1784POPC   PO425128   1.994  42.356   9.164
 1784POPC   GL125129   1.945  42.316   8.864
 1784POPC   GL225130   1.975  42.443   8.864
 1784POPC   C1A25131   1.978  42.309   8.564
 1784POPC   D2A25132   2.010  42.288   8.264
 1784POPC   C3A25133   1.960  42.374   7.964
 1784POPC   C4A25134   1.950  42.335   7.664
 1784POPC   C1B25135   1.867  42.506   8.564
 1784POPC   C2B25136   1.884  42.529   8.264
 1784POPC   C3B25137   1.904  42.564   7.964
 1784POPC   C4B25138   1.825  42.587   7.664
 1785POPC   NC325139  39.272  20.645   9.464
 1785POPC   PO425140  39.252  20.629   9.164
 1785POPC   GL125141  39.240  20.617   8.864
 1785POPC   GL225142  39.271  20.465   8.864
 1785POPC   C1A25143  39.255  20.598   8.564
 1785POPC   D2A25144  39.247  20.584   8.264
 1785POPC   C3A25145  39.205  20.621   7.964
 1785POPC   C4A25146  39.201  20.615   7.664
 1785POPC   C1B25147  39.386  20.449   8.564
 1785POPC   C2B25148  39.402  20.365   8.264
 1785POPC   C3B25149  39.334  20.404   7.964
 1785POPC   C4B25150  39.424  20.456   7.664
 1786POPC   NC325151  16.764   9.741   9.464
 1786POPC   PO425152  16.733   9.740   9.164
 1786POPC   GL125153  16.774   9.726   8.864
 1786POPC   GL225154  16.780   9.617   8.864
 1786POPC   C1A25155  16.758   9.753   8.564
 1786POPC   D2A25156  16.741   9.729   8.264
 1786POPC   C3A25157  16.727   9.747   7.964
 1786POPC   C4A25158  16.730   9.713   7.664
 1786POPC   C1B25159  16.830   9.491   8.564
 1786POPC   C2B25160  16.788   9.510   8.264
 1786POPC   C3B25161  16.848   9.523   7.964
 1786POPC   C4B25162  16.783   9.559   7.664
 1787POPC   NC325163  14.429   2.022   9.464
 1787POPC   PO425164  14.365   1.945   9.164
 1787POPC   GL125165  14.441   1.965   8.864
 1787POPC   GL225166  14.470   2.087   8.864
 1787POPC   C1A25167  14.446   2.033   8.564
 1787POPC   D2A25168  14.443   1.976   8.264
 1787POPC   C3A25169  14.443   1.956   7.964
 1787POPC   C4A25170  14.448   1.993   7.664
 1787POPC   C1B25171  14.552   2.138   8.564
 1787POPC   C2B25172  14.531   2.188   8.264
 1787POPC   C3B25173  14.594   2.154   7.964
 1787POPC   C4B25174  14.534   2.176   7.664
 1788POPC   NC325175  26.087  18.281   9.464
 1788POPC   PO425176  26.084  18.314   9.164
 1788POPC   GL125177  26.059  18.307   8.864
 1788POPC   GL225178  26.066  18.442   8.864
 1788POPC   C1A25179  26.084  18.261   8.564
 1788POPC   D2A25180  26.027  18.248   8.264
 1788POPC   C3A25181  26.047  18.289   7.964
 1788POPC   C4A25182  25.995  18.238   7.664
 1788POPC   C1B25183  26.138  18.562   8.564
 1788POPC   C2B25184  26.092  18.565   8.264
 1788POPC   C3B25185  26.094  18.575   7.964
 1788POPC   C4B25186  26.060  18.498   7.664
 1789POPC   NC325187  33.824  30.737   9.464
 1789POPC   PO425188  33.792  30.670   9.164
 1789POPC   GL125189  33.802  30.700   8.864
 1789POPC   GL225190  33.813  30.792   8.864
 1789POPC   C1A25191  33.752  30.713   8.564
 1789POPC   D2A25192  33.798  30.678   8.264
 1789POPC   C3A25193  33.808  30.657   7.964
 1789POPC   C4A25194  33.823  30.695   7.664
 1789POPC   C1B25195  33.809  30.898   8.564
 1789POPC   C2B25196  33.875  30.908   8.264
 1789POPC   C3B25197  33.860  30.986   7.964
 1789POPC   C4B25198  33.906  30.964   7.664
 1790POPC   NC325199  25.289   1.998   9.464
 1790POPC   PO425200  25.307   1.996   9.164
 1790POPC   GL125201  25.276   2.011   8.864
 1790POPC   GL225202  25.423   2.040   8.864
 1790POPC   C1A25203  25.273   2.032   8.564
 1790POPC   D2A25204  25.286   1.940   8.264
 1790POPC   C3A25205  25.293   1.991   7.964
 1790POPC   C4A25206  25.314   1.983   7.664
 1790POPC   C1B25207  25.519   2.040   8.564
 1790POPC   C2B25208  25.487   2.054   8.264
 1790POPC   C3B25209  25.532   2.090   7.964
 1790POPC   C4B25210  25.558   2.063   7.664
 1791POPC   NC325211   5.905  25.311   9.464
 1791POPC   PO425212   5.852  25.267   9.164
 1791POPC   GL125213   5.849  25.216   8.864
 1791POPC   GL225214   5.816  25.385   8.864
 1791POPC   C1A25215   5.872  25.228   8.564
 1791POPC   D2A25216   5.891  25.227   8.264
 1791POPC   C3A25217   5.876  25.217   7.964
 1791POPC   C4A25218   5.873  25.265   7.664
 1791POPC   C1B25219   5.816  25.469   8.564
 1791POPC   C2B25220   5.793  25.526   8.264
 1791POPC   C3B25221   5.797  25.520   7.964
 1791POPC   C4B25222   5.857  25.524   7.664
 1792POPC   NC325223  34.584  12.077   9.464
 1792POPC   PO425224  34.598  12.078   9.164
 1792POPC   GL125225  34.607  12.029   8.864
 1792POPC   GL225226  34.569  11.953   8.864
 1792POPC   C1A25227  34.570  12.044   8.564
 1792POPC   D2A25228  34.591  12.125   8.264
 1792POPC   C3A25229  34.606  12.094   7.964
 1792POPC   C4A25230  34.542  12.103   7.664
 1792POPC   C1B25231  34.518  11.826   8.564
 1792POPC   C2B25232  34.510  11.825   8.264
 1792POPC   C3B25233  34.590  11.838   7.964
 1792POPC   C4B25234  34.559  11.850   7.664
 1793POPC   NC325235  11.293  17.522   9.464
 1793POPC   PO425236  11.307  17.538   9.164
 1793POPC   GL125237  11.343  17.527   8.864
 1793POPC   GL225238  11.190  17.586   8.864
 1793POPC   C1A25239  11.254  17.457   8.564
 1793POPC   D2A25240  11.338  17.547   8.264
 1793POPC   C3A25241  11.331  17.494   7.964
 1793POPC   C4A25242  11.323  17.536   7.664
 1793POPC   C1B25243  11.105  17.674   8.564
 1793POPC   C2B25244  11.124  17.658   8.264
 1793POPC   C3B25245  11.096  17.639   7.964
 1793POPC   C4B25246  11.074  17.620   7.664
 1794POPC   NC325247  33.800  34.569   9.464
 1794POPC   PO425248  33.784  34.587   9.164
 1794POPC   GL125249  33.797  34.569   8.864
 1794POPC   GL225250  33.654  34.540   8.864
 1794POPC   C1A25251  33.790  34.570   8.564
 1794POPC   D2A25252  33.815  34.582   8.264
 1794POPC   C3A25253  33.833  34.527   7.964
 1794POPC   C4A25254  33.752  34.552   7.664
 1794POPC   C1B25255  33.508  34.529   8.564
 1794POPC   C2B25256  33.579  34.547   8.264
 1794POPC   C3B25257  33.508  34.511   7.964
 1794POPC   C4B25258  33.562  34.516   7.664
 1795POPC   NC325259  38.473   2.013   9.464
 1795POPC   PO425260  38.441   1.943   9.164
 1795POPC   GL125261  38.499   1.957   8.864
 1795POPC   GL225262  38.341   2.034   8.864
 1795POPC   C1A25263  38.484   1.940   8.564
 1795POPC   D2A25264  38.461   1.972   8.264
 1795POPC   C3A25265  38.461   1.993   7.964
 1795POPC   C4A25266  38.446   1.952   7.664
 1795POPC   C1B25267  38.221   2.004   8.564
 1795POPC   C2B25268  38.205   2.043   8.264
 1795POPC   C3B25269  38.213   2.062   7.964
 1795POPC   C4B25270  38.208   2.046   7.664
 1796POPC   NC325271  22.207  39.279   9.464
 1796POPC   PO425272  22.172  39.256   9.164
 1796POPC   GL125273  22.197  39.244   8.864
 1796POPC   GL225274  22.208  39.367   8.864
 1796POPC   C1A25275  22.208  39.254   8.564
 1796POPC   D2A25276  22.119  39.255   8.264
 1796POPC   C3A25277  22.195  39.232   7.964
 1796POPC   C4A25278  22.173  39.280   7.664
 1796POPC   C1B25279  22.249  39.473   8.564
 1796POPC   C2B25280  22.330  39.401   8.264
 1796POPC   C3B25281  22.240  39.463   7.964
 1796POPC   C4B25282  22.312  39.465   7.664
 1797POPC   NC325283  19.823  26.052   9.464
 1797POPC   PO425284  19.810  26.010   9.164
 1797POPC   GL125285  19.830  26.026   8.864
 1797POPC   GL225286  19.979  26.045   8.864
 1797POPC   C1A25287  19.865  26.074   8.564
 1797POPC   D2A25288  19.852  26.063   8.264
 1797POPC   C3A25289  19.869  25.992   7.964
 1797POPC   C4A25290  19.799  26.016   7.664
 1797POPC   C1B25291  20.081  26.147   8.564
 1797POPC   C2B25292  20.087  26.128   8.264
 1797POPC   C3B25293  20.100  26.100   7.964
 1797POPC   C4B25294  20.061  26.079   7.664
 1798POPC   NC325295  20.605  13.651   9.464
 1798POPC   PO425296  20.639  13.612   9.164
 1798POPC   GL125297  20.600  13.607   8.864
 1798POPC   GL225298  20.674  13.505   8.864
 1798POPC   C1A25299  20.571  13.596   8.564
 1798POPC   D2A25300  20.580  13.592   8.264
 1798POPC   C3A25301  20.584  13.622   7.964
 1798POPC   C4A25302  20.562  13.615   7.664
 1798POPC   C1B25303  20.672  13.426   8.564
 1798POPC   C2B25304  20.727  13.380   8.264
 1798POPC   C3B25305  20.649  13.435   7.964
 1798POPC   C4B25306  20.729  13.440   7.664
 1799POPC   NC325307   8.995  32.239   9.464
 1799POPC   PO425308   9.013  32.241   9.164
 1799POPC   GL125309   9.001  32.232   8.864
 1799POPC   GL225310   9.027  32.085   8.864
 1799POPC   C1A25311   9.017  32.263   8.564
 1799POPC   D2A25312   8.929  32.254   8.264
 1799POPC   C3A25313   8.941  32.258   7.964
 1799POPC   C4A25314   9.003  32.263   7.664
 1799POPC   C1B25315   9.036  32.004   8.564
 1799POPC   C2B25316   8.999  32.046   8.264
 1799POPC   C3B25317   9.064  32.034   7.964
 1799POPC   C4B25318   9.043  31.987   7.664
 1800POPC   NC325319  40.023  34.584   9.464
 1800POPC   PO425320  40.041  34.535   9.164
 1800POPC   GL125321  39.960  34.605   8.864
 1800POPC   GL225322  39.938  34.669   8.864
 1800POPC   C1A25323  40.050  34.563   8.564
 1800POPC   D2A25324  39.981  34.570   8.264
 1800POPC   C3A25325  39.985  34.559   7.964
 1800POPC   C4A25326  40.033  34.592   7.664
 1800POPC   C1B25327  39.767  34.707   8.564
 1800POPC   C2B25328  39.751  34.677   8.264
 1800POPC   C3B25329  39.781  34.660   7.964
 1800POPC   C4B25330  39.761  34.680   7.664
 1801POPC   NC325331   8.244  44.708   9.464
 1801POPC   PO425332   8.164  44.711   9.164
 1801POPC   GL125333   8.234  44.628   8.864
 1801POPC   GL225334   8.133  44.768   8.864
 1801POPC   C1A25335   8.157  44.655   8.564
 1801POPC   D2A25336   8.179  44.616   8.264
 1801POPC   C3A25337   8.159  44.700   7.964
 1801POPC   C4A25338   8.226  44.685   7.664
 1801POPC   C1B25339   8.017  44.830   8.564
 1801POPC   C2B25340   7.987  44.815   8.264
 1801POPC   C3B25341   7.984  44.820   7.964
 1801POPC   C4B25342   8.030  44.805   7.664
 1802POPC   NC325343   7.433  19.803   9.464
 1802POPC   PO425344   7.396  19.840   9.164
 1802POPC   GL125345   7.445  19.875   8.864
 1802POPC   GL225346   7.525  19.958   8.864
 1802POPC   C1A25347   7.415  19.809   8.564
 1802POPC   D2A25348   7.393  19.806   8.264
 1802POPC   C3A25349   7.375  19.832   7.964
 1802POPC   C4A25350   7.417  19.808   7.664
 1802POPC   C1B25351   7.560  20.045   8.564
 1802POPC   C2B25352   7.549  20.048   8.264
 1802POPC   C3B25353   7.562  19.991   7.964
 1802POPC   C4B25354   7.611  20.000   7.664
 1803POPC   NC325355  10.553  10.539   9.464
 1803POPC   PO425356  10.519  10.570   9.164
 1803POPC   GL125357  10.509  10.538   8.864
 1803POPC   GL225358  10.666  10.468   8.864
 1803POPC   C1A25359  10.549  10.560   8.564
 1803POPC   D2A25360  10.479  10.538   8.264
 1803POPC   C3A25361  10.498  10.561   7.964
 1803POPC   C4A25362  10.559  10.480   7.664
 1803POPC   C1B25363  10.709  10.377   8.564
 1803POPC   C2B25364  10.688  10.380   8.264
 1803POPC   C3B25365  10.670  10.365   7.964
 1803POPC   C4B25366  10.711  10.403   7.664
 1804POPC   NC325367  44.613   6.671   9.464
 1804POPC   PO425368  44.630   6.661   9.164
 1804POPC   GL125369  44.640   6.692   8.864
 1804POPC   GL225370  44.511   6.696   8.864
 1804POPC   C1A25371  44.634   6.616   8.564
 1804POPC   D2A25372  44.662   6.600   8.264
 1804POPC   C3A25373  44.704   6.684   7.964
 1804POPC   C4A25374  44.621   6.656   7.664
 1804POPC   C1B25375  44.384   6.656   8.564
 1804POPC   C2B25376  44.434   6.681   8.264
 1804POPC   C3B25377  44.453   6.659   7.964
 1804POPC   C4B25378  44.448   6.639   7.664
 1805POPC   NC325379   4.298  11.302   9.464
 1805POPC   PO425380   4.277  11.286   9.164
 1805POPC   GL125381   4.307  11.265   8.864
 1805POPC   GL225382   4.446  11.396   8.864
 1805POPC   C1A25383   4.350  11.338   8.564
 1805POPC   D2A25384   4.325  11.342   8.264
 1805POPC   C3A25385   4.325  11.305   7.964
 1805POPC   C4A25386   4.314  11.294   7.664
 1805POPC   C1B25387   4.501  11.445   8.564
 1805POPC   C2B25388   4.518  11.436   8.264
 1805POPC   C3B25389   4.494  11.359   7.964
 1805POPC   C4B25390   4.564  11.417   7.664
 1806POPC   NC325391  26.031  17.484   9.464
 1806POPC   PO425392  26.079  17.536   9.164
 1806POPC   GL125393  26.043  17.465   8.864
 1806POPC   GL225394  25.906  17.529   8.864
 1806POPC   C1A25395  26.037  17.505   8.564
 1806POPC   D2A25396  26.068  17.549   8.264
 1806POPC   C3A25397  26.008  17.467   7.964
 1806POPC   C4A25398  26.034  17.488   7.664
 1806POPC   C1B25399  25.785  17.657   8.564
 1806POPC   C2B25400  25.794  17.631   8.264
 1806POPC   C3B25401  25.773  17.607   7.964
 1806POPC   C4B25402  25.833  17.638   7.664
 1807POPC   NC325403  40.763  20.610   9.464
 1807POPC   PO425404  40.799  20.566   9.164
 1807POPC   GL125405  40.818  20.599   8.864
 1807POPC   GL225406  40.907  20.617   8.864
 1807POPC   C1A25407  40.770  20.628   8.564
 1807POPC   D2A25408  40.816  20.598   8.264
 1807POPC   C3A25409  40.792  20.637   7.964
 1807POPC   C4A25410  40.791  20.599   7.664
 1807POPC   C1B25411  41.064  20.650   8.564
 1807POPC   C2B25412  40.968  20.674   8.264
 1807POPC   C3B25413  41.021  20.690   7.964
 1807POPC   C4B25414  41.048  20.746   7.664
 1808POPC   NC325415  20.645  26.827   9.464
 1808POPC   PO425416  20.601  26.827   9.164
 1808POPC   GL125417  20.575  26.796   8.864
 1808POPC   GL225418  20.468  26.902   8.864
 1808POPC   C1A25419  20.564  26.815   8.564
 1808POPC   D2A25420  20.613  26.817   8.264
 1808POPC   C3A25421  20.580  26.820   7.964
 1808POPC   C4A25422  20.592  26.832   7.664
 1808POPC   C1B25423  20.378  26.905   8.564
 1808POPC   C2B25424  20.362  26.943   8.264
 1808POPC   C3B25425  20.350  26.951   7.964
 1808POPC   C4B25426  20.362  26.865   7.664
 1809POPC   NC325427   4.313  43.081   9.464
 1809POPC   PO425428   4.320  43.111   9.164
 1809POPC   GL125429   4.274  43.124   8.864
 1809POPC   GL225430   4.463  43.140   8.864
 1809POPC   C1A25431   4.337  43.142   8.564
 1809POPC   D2A25432   4.274  43.079   8.264
 1809POPC   C3A25433   4.325  43.070   7.964
 1809POPC   C4A25434   4.364  43.117   7.664
 1809POPC   C1B25435   4.520  43.213   8.564
 1809POPC   C2B25436   4.524  43.209   8.264
 1809POPC   C3B25437   4.551  43.233   7.964
 1809POPC   C4B25438   4.574  43.277   7.664
 1810POPC   NC325439  12.120  37.697   9.464
 1810POPC   PO425440  12.081  37.632   9.164
 1810POPC   GL125441  12.104  37.670   8.864
 1810POPC   GL225442  12.200  37.643   8.864
 1810POPC   C1A25443  12.122  37.654   8.564
 1810POPC   D2A25444  12.052  37.676   8.264
 1810POPC   C3A25445  12.041  37.635   7.964
 1810POPC   C4A25446  12.088  37.713   7.664
 1810POPC   C1B25447  12.317  37.627   8.564
 1810POPC   C2B25448  12.278  37.702   8.264
 1810POPC   C3B25449  12.294  37.651   7.964
 1810POPC   C4B25450  12.350  37.633   7.664
 1811POPC   NC325451  28.408  24.495   9.464
 1811POPC   PO425452  28.384  24.459   9.164
 1811POPC   GL125453  28.327  24.507   8.864
 1811POPC   GL225454  28.431  24.569   8.864
 1811POPC   C1A25455  28.343  24.449   8.564
 1811POPC   D2A25456  28.404  24.458   8.264
 1811POPC   C3A25457  28.394  24.481   7.964
 1811POPC   C4A25458  28.327  24.518   7.664
 1811POPC   C1B25459  28.506  24.677   8.564
 1811POPC   C2B25460  28.574  24.702   8.264
 1811POPC   C3B25461  28.516  24.635   7.964
 1811POPC   C4B25462  28.580  24.656   7.664
 1812POPC   NC325463  43.122  39.973   9.464
 1812POPC   PO425464  43.121  39.994   9.164
 1812POPC   GL125465  43.105  40.044   8.864
 1812POPC   GL225466  43.206  40.153   8.864
 1812POPC   C1A25467  43.121  39.989   8.564
 1812POPC   D2A25468  43.118  40.045   8.264
 1812POPC   C3A25469  43.134  40.020   7.964
 1812POPC   C4A25470  43.126  39.972   7.664
 1812POPC   C1B25471  43.184  40.265   8.564
 1812POPC   C2B25472  43.216  40.223   8.264
 1812POPC   C3B25473  43.163  40.259   7.964
 1812POPC   C4B25474  43.206  40.263   7.664
 1813POPC   NC325475   0.403  30.677   9.464
 1813POPC   PO425476   0.407  30.737   9.164
 1813POPC   GL125477   0.398  30.731   8.864
 1813POPC   GL225478   0.578  30.714   8.864
 1813POPC   C1A25479   0.450  30.647   8.564
 1813POPC   D2A25480   0.415  30.738   8.264
 1813POPC   C3A25481   0.467  30.720   7.964
 1813POPC   C4A25482   0.436  30.743   7.664
 1813POPC   C1B25483   0.666  30.784   8.564
 1813POPC   C2B25484   0.702  30.736   8.264
 1813POPC   C3B25485   0.679  30.751   7.964
 1813POPC   C4B25486   0.669  30.735   7.664
 1814POPC   NC325487  15.918  15.222   9.464
 1814POPC   PO425488  15.999  15.203   9.164
 1814POPC   GL125489  15.968  15.176   8.864
 1814POPC   GL225490  16.004  15.024   8.864
 1814POPC   C1A25491  15.967  15.215   8.564
 1814POPC   D2A25492  15.980  15.180   8.264
 1814POPC   C3A25493  15.969  15.222   7.964
 1814POPC   C4A25494  15.907  15.172   7.664
 1814POPC   C1B25495  15.987  14.892   8.564
 1814POPC   C2B25496  15.978  14.954   8.264
 1814POPC   C3B25497  15.960  14.947   7.964
 1814POPC   C4B25498  16.004  14.926   7.664
 1815POPC   NC325499  14.447  19.842   9.464
 1815POPC   PO425500  14.442  19.819   9.164
 1815POPC   GL125501  14.418  19.817   8.864
 1815POPC   GL225502  14.290  19.831   8.864
 1815POPC   C1A25503  14.431  19.826   8.564
 1815POPC   D2A25504  14.428  19.803   8.264
 1815POPC   C3A25505  14.415  19.804   7.964
 1815POPC   C4A25506  14.439  19.807   7.664
 1815POPC   C1B25507  14.196  19.718   8.564
 1815POPC   C2B25508  14.202  19.711   8.264
 1815POPC   C3B25509  14.214  19.721   7.964
 1815POPC   C4B25510  14.197  19.766   7.664
 1816POPC   NC325511  34.585  15.917   9.464
 1816POPC   PO425512  34.591  15.939   9.164
 1816POPC   GL125513  34.539  15.978   8.864
 1816POPC   GL225514  34.609  16.070   8.864
 1816POPC   C1A25515  34.574  15.933   8.564
 1816POPC   D2A25516  34.542  15.989   8.264
 1816POPC   C3A25517  34.586  15.958   7.964
 1816POPC   C4A25518  34.606  15.973   7.664
 1816POPC   C1B25519  34.654  16.145   8.564
 1816POPC   C2B25520  34.717  16.134   8.264
 1816POPC   C3B25521  34.672  16.155   7.964
 1816POPC   C4B25522  34.664  16.210   7.664
 1817POPC   NC325523  40.013  22.969   9.464
 1817POPC   PO425524  39.981  22.923   9.164
 1817POPC   GL125525  39.989  22.928   8.864
 1817POPC   GL225526  40.021  23.050   8.864
 1817POPC   C1A25527  39.981  22.930   8.564
 1817POPC   D2A25528  40.045  22.949   8.264
 1817POPC   C3A25529  39.985  22.966   7.964
 1817POPC   C4A25530  39.977  22.918   7.664
 1817POPC   C1B25531  40.100  23.220   8.564
 1817POPC   C2B25532  40.120  23.204   8.264
 1817POPC   C3B25533  40.083  23.173   7.964
 1817POPC   C4B25534  40.112  23.193   7.664
 1818POPC   NC325535  30.716   9.745   9.464
 1818POPC   PO425536  30.679   9.737   9.164
 1818POPC   GL125537  30.693   9.758   8.864
 1818POPC   GL225538  30.677   9.882   8.864
 1818POPC   C1A25539  30.677   9.727   8.564
 1818POPC   D2A25540  30.695   9.771   8.264
 1818POPC   C3A25541  30.649   9.784   7.964
 1818POPC   C4A25542  30.657   9.724   7.664
 1818POPC   C1B25543  30.620   9.934   8.564
 1818POPC   C2B25544  30.624   9.983   8.264
 1818POPC   C3B25545  30.567   9.960   7.964
 1818POPC   C4B25546  30.637   9.995   7.664
 1819POPC   NC325547  22.902   0.468   9.464
 1819POPC   PO425548  22.979   0.423   9.164
 1819POPC   GL125549  22.952   0.394   8.864
 1819POPC   GL225550  22.956   0.293   8.864
 1819POPC   C1A25551  22.898   0.448   8.564
 1819POPC   D2A25552  22.923   0.461   8.264
 1819POPC   C3A25553  22.985   0.430   7.964
 1819POPC   C4A25554  22.899   0.461   7.664
 1819POPC   C1B25555  22.922   0.147   8.564
 1819POPC   C2B25556  22.954   0.237   8.264
 1819POPC   C3B25557  22.901   0.140   7.964
 1819POPC   C4B25558  22.908   0.157   7.664
 1820POPC   NC325559  16.732   9.016   9.464
 1820POPC   PO425560  16.725   8.941   9.164
 1820POPC   GL125561  16.749   9.005   8.864
 1820POPC   GL225562  16.863   9.065   8.864
 1820POPC   C1A25563  16.682   9.001   8.564
 1820POPC   D2A25564  16.751   8.985   8.264
 1820POPC   C3A25565  16.754   8.977   7.964
 1820POPC   C4A25566  16.749   9.004   7.664
 1820POPC   C1B25567  16.940   9.029   8.564
 1820POPC   C2B25568  16.921   9.033   8.264
 1820POPC   C3B25569  16.935   9.111   7.964
 1820POPC   C4B25570  16.925   9.049   7.664
 1821POPC   NC325571  43.850   6.640   9.464
 1821POPC   PO425572  43.916   6.678   9.164
 1821POPC   GL125573  43.862   6.645   8.864
 1821POPC   GL225574  43.918   6.780   8.864
 1821POPC   C1A25575  43.920   6.686   8.564
 1821POPC   D2A25576  43.929   6.659   8.264
 1821POPC   C3A25577  43.906   6.633   7.964
 1821POPC   C4A25578  43.866   6.672   7.664
 1821POPC   C1B25579  44.019   6.796   8.564
 1821POPC   C2B25580  44.071   6.857   8.264
 1821POPC   C3B25581  44.010   6.800   7.964
 1821POPC   C4B25582  44.086   6.834   7.664
 1822POPC   NC325583  17.530  39.232   9.464
 1822POPC   PO425584  17.534  39.211   9.164
 1822POPC   GL125585  17.473  39.206   8.864
 1822POPC   GL225586  17.395  39.172   8.864
 1822POPC   C1A25587  17.458  39.191   8.564
 1822POPC   D2A25588  17.551  39.214   8.264
 1822POPC   C3A25589  17.529  39.271   7.964
 1822POPC   C4A25590  17.465  39.248   7.664
 1822POPC   C1B25591  17.262  39.132   8.564
 1822POPC   C2B25592  17.266  39.048   8.264
 1822POPC   C3B25593  17.316  39.126   7.964
 1822POPC   C4B25594  17.321  39.072   7.664
 1823POPC   NC325595   0.420  32.207   9.464
 1823POPC   PO425596   0.432  32.290   9.164
 1823POPC   GL125597   0.388  32.294   8.864
 1823POPC   GL225598   0.551  32.259   8.864
 1823POPC   C1A25599   0.444  32.222   8.564
 1823POPC   D2A25600   0.468  32.258   8.264
 1823POPC   C3A25601   0.477  32.257   7.964
 1823POPC   C4A25602   0.420  32.224   7.664
 1823POPC   C1B25603   0.642  32.319   8.564
 1823POPC   C2B25604   0.675  32.383   8.264
 1823POPC   C3B25605   0.669  32.310   7.964
 1823POPC   C4B25606   0.691  32.345   7.664
 1824POPC   NC325607   4.271  42.354   9.464
 1824POPC   PO425608   4.362  42.298   9.164
 1824POPC   GL125609   4.301  42.288   8.864
 1824POPC   GL225610   4.400  42.377   8.864
 1824POPC   C1A25611   4.269  42.376   8.564
 1824POPC   D2A25612   4.340  42.286   8.264
 1824POPC   C3A25613   4.321  42.322   7.964
 1824POPC   C4A25614   4.334  42.356   7.664
 1824POPC   C1B25615   4.560  42.453   8.564
 1824POPC   C2B25616   4.528  42.439   8.264
 1824POPC   C3B25617   4.561  42.380   7.964
 1824POPC   C4B25618   4.567  42.441   7.664
 1825POPC   NC325619  12.882   3.557   9.464
 1825POPC   PO425620  12.850   3.539   9.164
 1825POPC   GL125621  12.808   3.496   8.864
 1825POPC   GL225622  12.994   3.492   8.864
 1825POPC   C1A25623  12.813   3.529   8.564
 1825POPC   D2A25624  12.898   3.497   8.264
 1825POPC   C3A25625  12.811   3.511   7.964
 1825POPC   C4A25626  12.860   3.521   7.664
 1825POPC   C1B25627  13.101   3.508   8.564
 1825POPC   C2B25628  13.078   3.504   8.264
 1825POPC   C3B25629  13.061   3.452   7.964
 1825POPC   C4B25630  13.144   3.497   7.664
 1826POPC   NC325631  15.929  40.034   9.464
 1826POPC   PO425632  15.950  40.005   9.164
 1826POPC   GL125633  15.981  39.959   8.864
 1826POPC   GL225634  15.935  40.102   8.864
 1826POPC   C1A25635  15.969  39.981   8.564
 1826POPC   D2A25636  15.959  39.965   8.264
 1826POPC   C3A25637  15.975  39.997   7.964
 1826POPC   C4A25638  15.921  40.003   7.664
 1826POPC   C1B25639  15.826  40.258   8.564
 1826POPC   C2B25640  15.846  40.257   8.264
 1826POPC   C3B25641  15.791  40.236   7.964
 1826POPC   C4B25642  15.829  40.254   7.664
 1827POPC   NC325643  24.531  17.459   9.464
 1827POPC   PO425644  24.527  17.533   9.164
 1827POPC   GL125645  24.535  17.514   8.864
 1827POPC   GL225646  24.628  17.573   8.864
 1827POPC   C1A25647  24.487  17.488   8.564
 1827POPC   D2A25648  24.461  17.531   8.264
 1827POPC   C3A25649  24.465  17.500   7.964
 1827POPC   C4A25650  24.516  17.468   7.664
 1827POPC   C1B25651  24.701  17.655   8.564
 1827POPC   C2B25652  24.755  17.655   8.264
 1827POPC   C3B25653  24.722  17.570   7.964
 1827POPC   C4B25654  24.718  17.660   7.664
 1828POPC   NC325655  20.631  15.160   9.464
 1828POPC   PO425656  20.649  15.222   9.164
 1828POPC   GL125657  20.634  15.176   8.864
 1828POPC   GL225658  20.605  15.246   8.864
 1828POPC   C1A25659  20.621  15.190   8.564
 1828POPC   D2A25660  20.589  15.152   8.264
 1828POPC   C3A25661  20.647  15.135   7.964
 1828POPC   C4A25662  20.612  15.169   7.664
 1828POPC   C1B25663  20.504  15.400   8.564
 1828POPC   C2B25664  20.522  15.357   8.264
 1828POPC   C3B25665  20.517  15.372   7.964
 1828POPC   C4B25666  20.528  15.369   7.664
 1829POPC   NC325667  17.479  40.790   9.464
 1829POPC   PO425668  17.495  40.773   9.164
 1829POPC   GL125669  17.533  40.787   8.864
 1829POPC   GL225670  17.524  40.630   8.864
 1829POPC   C1A25671  17.513  40.733   8.564
 1829POPC   D2A25672  17.481  40.823   8.264
 1829POPC   C3A25673  17.464  40.768   7.964
 1829POPC   C4A25674  17.538  40.737   7.664
 1829POPC   C1B25675  17.600  40.596   8.564
 1829POPC   C2B25676  17.548  40.526   8.264
 1829POPC   C3B25677  17.599  40.509   7.964
 1829POPC   C4B25678  17.647  40.524   7.664
 1830POPC   NC325679  16.764   4.344   9.464
 1830POPC   PO425680  16.715   4.344   9.164
 1830POPC   GL125681  16.777   4.273   8.864
 1830POPC   GL225682  16.582   4.363   8.864
 1830POPC   C1A25683  16.699   4.352   8.564
 1830POPC   D2A25684  16.765   4.324   8.264
 1830POPC   C3A25685  16.764   4.324   7.964
 1830POPC   C4A25686  16.732   4.339   7.664
 1830POPC   C1B25687  16.483   4.389   8.564
 1830POPC   C2B25688  16.482   4.411   8.264
 1830POPC   C3B25689  16.468   4.403   7.964
 1830POPC   C4B25690  16.531   4.412   7.664
 1831POPC   NC325691  26.849  26.811   9.464
 1831POPC   PO425692  26.830  26.858   9.164
 1831POPC   GL125693  26.867  26.786   8.864
 1831POPC   GL225694  26.733  26.833   8.864
 1831POPC   C1A25695  26.844  26.825   8.564
 1831POPC   D2A25696  26.771  26.820   8.264
 1831POPC   C3A25697  26.804  26.866   7.964
 1831POPC   C4A25698  26.787  26.826   7.664
 1831POPC   C1B25699  26.632  26.926   8.564
 1831POPC   C2B25700  26.611  26.933   8.264
 1831POPC   C3B25701  26.597  26.900   7.964
 1831POPC   C4B25702  26.620  26.909   7.664
 1832POPC   NC325703  34.577  27.585   9.464
 1832POPC   PO425704  34.576  27.613   9.164
 1832POPC   GL125705  34.572  27.623   8.864
 1832POPC   GL225706  34.550  27.503   8.864
 1832POPC   C1A25707  34.589  27.615   8.564
 1832POPC   D2A25708  34.587  27.580   8.264
 1832POPC   C3A25709  34.547  27.575   7.964
 1832POPC   C4A25710  34.561  27.551   7.664
 1832POPC   C1B25711  34.556  27.305   8.564
 1832POPC   C2B25712  34.597  27.357   8.264
 1832POPC   C3B25713  34.627  27.362   7.964
 1832POPC   C4B25714  34.567  27.380   7.664
 1833POPC   NC325715  18.268  10.480   9.464
 1833POPC   PO425716  18.276  10.514   9.164
 1833POPC   GL125717  18.328  10.482   8.864
 1833POPC   GL225718  18.205  10.508   8.864
 1833POPC   C1A25719  18.279  10.487   8.564
 1833POPC   D2A25720  18.301  10.502   8.264
 1833POPC   C3A25721  18.276  10.492   7.964
 1833POPC   C4A25722  18.305  10.501   7.664
 1833POPC   C1B25723  18.048  10.499   8.564
 1833POPC   C2B25724  18.044  10.476   8.264
 1833POPC   C3B25725  18.061  10.447   7.964
 1833POPC   C4B25726  18.073  10.446   7.664
 1834POPC   NC325727  24.504  42.349   9.464
 1834POPC   PO425728  24.509  42.296   9.164
 1834POPC   GL125729  24.447  42.301   8.864
 1834POPC   GL225730  24.561  42.305   8.864
 1834POPC   C1A25731  24.482  42.307   8.564
 1834POPC   D2A25732  24.440  42.350   8.264
 1834POPC   C3A25733  24.534  42.363   7.964
 1834POPC   C4A25734  24.523  42.305   7.664
 1834POPC   C1B25735  24.737  42.195   8.564
 1834POPC   C2B25736  24.684  42.188   8.264
 1834POPC   C3B25737  24.745  42.246   7.964
 1834POPC   C4B25738  24.763  42.282   7.664
 1835POPC   NC325739   2.803  26.028   9.464
 1835POPC   PO425740   2.716  26.037   9.164
 1835POPC   GL125741   2.722  26.003   8.864
 1835POPC   GL225742   2.655  26.117   8.864
 1835POPC   C1A25743   2.747  26.010   8.564
 1835POPC   D2A25744   2.794  26.070   8.264
 1835POPC   C3A25745   2.741  26.037   7.964
 1835POPC   C4A25746   2.777  26.019   7.664
 1835POPC   C1B25747   2.577  26.197   8.564
 1835POPC   C2B25748   2.529  26.200   8.264
 1835POPC   C3B25749   2.546  26.117   7.964
 1835POPC   C4B25750   2.530  26.163   7.664
 1836POPC   NC325751  10.561   3.563   9.464
 1836POPC   PO425752  10.539   3.507   9.164
 1836POPC   GL125753  10.565   3.525   8.864
 1836POPC   GL225754  10.435   3.610   8.864
 1836POPC   C1A25755  10.512   3.498   8.564
 1836POPC   D2A25756  10.563   3.513   8.264
 1836POPC   C3A25757  10.548   3.495   7.964
 1836POPC   C4A25758  10.530   3.589   7.664
 1836POPC   C1B25759  10.357   3.731   8.564
 1836POPC   C2B25760  10.318   3.765   8.264
 1836POPC   C3B25761  10.398   3.752   7.964
 1836POPC   C4B25762  10.362   3.685   7.664
 1837POPC   NC325763  22.211  28.405   9.464
 1837POPC   PO425764  22.119  28.335   9.164
 1837POPC   GL125765  22.149  28.338   8.864
 1837POPC   GL225766  22.131  28.251   8.864
 1837POPC   C1A25767  22.154  28.377   8.564
 1837POPC   D2A25768  22.138  28.408   8.264
 1837POPC   C3A25769  22.168  28.358   7.964
 1837POPC   C4A25770  22.149  28.320   7.664
 1837POPC   C1B25771  22.146  28.072   8.564
 1837POPC   C2B25772  22.164  28.077   8.264
 1837POPC   C3B25773  22.087  28.142   7.964
 1837POPC   C4B25774  22.095  28.089   7.664
 1838POPC   NC325775   5.877  12.086   9.464
 1838POPC   PO425776   5.881  12.042   9.164
 1838POPC   GL125777   5.864  12.052   8.864
 1838POPC   GL225778   5.738  12.021   8.864
 1838POPC   C1A25779   5.862  12.104   8.564
 1838POPC   D2A25780   5.877  12.066   8.264
 1838POPC   C3A25781   5.868  12.076   7.964
 1838POPC   C4A25782   5.881  12.075   7.664
 1838POPC   C1B25783   5.664  12.039   8.564
 1838POPC   C2B25784   5.621  11.983   8.264
 1838POPC   C3B25785   5.626  12.063   7.964
 1838POPC   C4B25786   5.618  12.041   7.664
 1839POPC   NC325787  37.631  10.514   9.464
 1839POPC   PO425788  37.712  10.561   9.164
 1839POPC   GL125789  37.668  10.519   8.864
 1839POPC   GL225790  37.657  10.350   8.864
 1839POPC   C1A25791  37.658  10.496   8.564
 1839POPC   D2A25792  37.720  10.516   8.264
 1839POPC   C3A25793  37.677  10.475   7.964
 1839POPC   C4A25794  37.648  10.521   7.664
 1839POPC   C1B25795  37.720  10.290   8.564
 1839POPC   C2B25796  37.730  10.323   8.264
 1839POPC   C3B25797  37.734  10.263   7.964
 1839POPC   C4B25798  37.685  10.297   7.664
 1840POPC   NC325799  17.484  28.347   9.464
 1840POPC   PO425800  17.481  28.398   9.164
 1840POPC   GL125801  17.467  28.357   8.864
 1840POPC   GL225802  17.519  28.513   8.864
 1840POPC   C1A25803  17.482  28.370   8.564
 1840POPC   D2A25804  17.498  28.413   8.264
 1840POPC   C3A25805  17.525  28.408   7.964
 1840POPC   C4A25806  17.532  28.393   7.664
 1840POPC   C1B25807  17.499  28.569   8.564
 1840POPC   C2B25808  17.468  28.657   8.264
 1840POPC   C3B25809  17.483  28.642   7.964
 1840POPC   C4B25810  17.461  28.608   7.664
 1841POPC   NC325811   3.551  39.966   9.464
 1841POPC   PO425812   3.590  39.970   9.164
 1841POPC   GL125813   3.519  40.000   8.864
 1841POPC   GL225814   3.609  40.121   8.864
 1841POPC   C1A25815   3.589  39.978   8.564
 1841POPC   D2A25816   3.563  40.038   8.264
 1841POPC   C3A25817   3.553  40.003   7.964
 1841POPC   C4A25818   3.579  40.007   7.664
 1841POPC   C1B25819   3.712  40.158   8.564
 1841POPC   C2B25820   3.687  40.247   8.264
 1841POPC   C3B25821   3.706  40.215   7.964
 1841POPC   C4B25822   3.673  40.169   7.664
 1842POPC   NC325823   8.160  24.489   9.464
 1842POPC   PO425824   8.154  24.469   9.164
 1842POPC   GL125825   8.160  24.461   8.864
 1842POPC   GL225826   8.150  24.387   8.864
 1842POPC   C1A25827   8.203  24.460   8.564
 1842POPC   D2A25828   8.245  24.523   8.264
 1842POPC   C3A25829   8.149  24.503   7.964
 1842POPC   C4A25830   8.147  24.450   7.664
 1842POPC   C1B25831   8.053  24.329   8.564
 1842POPC   C2B25832   7.998  24.317   8.264
 1842POPC   C3B25833   7.989  24.309   7.964
 1842POPC   C4B25834   8.063  24.344   7.664
 1843POPC   NC325835  43.097  11.285   9.464
 1843POPC   PO425836  43.138  11.314   9.164
 1843POPC   GL125837  43.108  11.253   8.864
 1843POPC   GL225838  43.278  11.253   8.864
 1843POPC   C1A25839  43.097  11.309   8.564
 1843POPC   D2A25840  43.134  11.326   8.264
 1843POPC   C3A25841  43.088  11.314   7.964
 1843POPC   C4A25842  43.101  11.301   7.664
 1843POPC   C1B25843  43.400  11.288   8.564
 1843POPC   C2B25844  43.374  11.214   8.264
 1843POPC   C3B25845  43.361  11.254   7.964
 1843POPC   C4B25846  43.385  11.271   7.664
 1844POPC   NC325847  14.441  10.528   9.464
 1844POPC   PO425848  14.429  10.481   9.164
 1844POPC   GL125849  14.376  10.569   8.864
 1844POPC   GL225850  14.278  10.556   8.864
 1844POPC   C1A25851  14.419  10.489   8.564
 1844POPC   D2A25852  14.407  10.530   8.264
 1844POPC   C3A25853  14.390  10.551   7.964
 1844POPC   C4A25854  14.378  10.521   7.664
 1844POPC   C1B25855  14.147  10.582   8.564
 1844POPC   C2B25856  14.145  10.666   8.264
 1844POPC   C3B25857  14.214  10.595   7.964
 1844POPC   C4B25858  14.171  10.643   7.664
 1845POPC   NC325859  12.820   8.148   9.464
 1845POPC   PO425860  12.867   8.182   9.164
 1845POPC   GL125861  12.811   8.210   8.864
 1845POPC   GL225862  12.787   8.121   8.864
 1845POPC   C1A25863  12.841   8.190   8.564
 1845POPC   D2A25864  12.866   8.188   8.264
 1845POPC   C3A25865  12.807   8.226   7.964
 1845POPC   C4A25866  12.870   8.189   7.664
 1845POPC   C1B25867  12.586   8.064   8.564
 1845POPC   C2B25868  12.658   8.078   8.264
 1845POPC   C3B25869  12.621   8.113   7.964
 1845POPC   C4B25870  12.605   8.099   7.664
 1846POPC   NC325871  19.801  40.017   9.464
 1846POPC   PO425872  19.854  40.010   9.164
 1846POPC   GL125873  19.800  39.959   8.864
 1846POPC   GL225874  19.675  39.944   8.864
 1846POPC   C1A25875  19.831  40.008   8.564
 1846POPC   D2A25876  19.843  40.009   8.264
 1846POPC   C3A25877  19.848  40.024   7.964
 1846POPC   C4A25878  19.847  40.018   7.664
 1846POPC   C1B25879  19.622  39.850   8.564
 1846POPC   C2B25880  19.573  39.876   8.264
 1846POPC   C3B25881  19.624  39.853   7.964
 1846POPC   C4B25882  19.657  39.856   7.664
 1847POPC   NC325883  34.593  19.808   9.464
 1847POPC   PO425884  34.554  19.854   9.164
 1847POPC   GL125885  34.528  19.818   8.864
 1847POPC   GL225886  34.580  19.762   8.864
 1847POPC   C1A25887  34.575  19.846   8.564
 1847POPC   D2A25888  34.545  19.829   8.264
 1847POPC   C3A25889  34.558  19.876   7.964
 1847POPC   C4A25890  34.544  19.789   7.664
 1847POPC   C1B25891  34.480  19.639   8.564
 1847POPC   C2B25892  34.528  19.579   8.264
 1847POPC   C3B25893  34.524  19.627   7.964
 1847POPC   C4B25894  34.529  19.573   7.664
 1848POPC   NC325895  15.972  41.527   9.464
 1848POPC   PO425896  15.945  41.592   9.164
 1848POPC   GL125897  15.970  41.577   8.864
 1848POPC   GL225898  16.127  41.603   8.864
 1848POPC   C1A25899  15.990  41.597   8.564
 1848POPC   D2A25900  15.939  41.586   8.264
 1848POPC   C3A25901  16.005  41.582   7.964
 1848POPC   C4A25902  15.941  41.578   7.664
 1848POPC   C1B25903  16.237  41.556   8.564
 1848POPC   C2B25904  16.191  41.567   8.264
 1848POPC   C3B25905  16.204  41.542   7.964
 1848POPC   C4B25906  16.245  41.592   7.664
 1849POPC   NC325907   8.970  22.916   9.464
 1849POPC   PO425908   9.010  22.965   9.164
 1849POPC   GL125909   8.942  22.974   8.864
 1849POPC   GL225910   8.905  22.846   8.864
 1849POPC   C1A25911   8.953  22.909   8.564
 1849POPC   D2A25912   8.971  22.978   8.264
 1849POPC   C3A25913   8.962  22.959   7.964
 1849POPC   C4A25914   8.992  22.966   7.664
 1849POPC   C1B25915   8.778  22.743   8.564
 1849POPC   C2B25916   8.803  22.745   8.264
 1849POPC   C3B25917   8.782  22.795   7.964
 1849POPC   C4B25918   8.734  22.803   7.664
 1850POPC   NC325919  16.769  40.822   9.464
 1850POPC   PO425920  16.691  40.817   9.164
 1850POPC   GL125921  16.733  40.736   8.864
 1850POPC   GL225922  16.561  40.758   8.864
 1850POPC   C1A25923  16.697  40.799   8.564
 1850POPC   D2A25924  16.694  40.781   8.264
 1850POPC   C3A25925  16.732  40.748   7.964
 1850POPC   C4A25926  16.720  40.768   7.664
 1850POPC   C1B25927  16.467  40.806   8.564
 1850POPC   C2B25928  16.471  40.836   8.264
 1850POPC   C3B25929  16.496  40.845   7.964
 1850POPC   C4B25930  16.457  40.837   7.664
 1851POPC   NC325931  20.607  22.198   9.464
 1851POPC   PO425932  20.611  22.115   9.164
 1851POPC   GL125933  20.633  22.159   8.864
 1851POPC   GL225934  20.539  22.071   8.864
 1851POPC   C1A25935  20.615  22.114   8.564
 1851POPC   D2A25936  20.585  22.206   8.264
 1851POPC   C3A25937  20.657  22.186   7.964
 1851POPC   C4A25938  20.639  22.166   7.664
 1851POPC   C1B25939  20.521  21.896   8.564
 1851POPC   C2B25940  20.543  21.899   8.264
 1851POPC   C3B25941  20.470  21.959   7.964
 1851POPC   C4B25942  20.528  21.890   7.664
 1852POPC   NC325943  20.620  38.414   9.464
 1852POPC   PO425944  20.561  38.471   9.164
 1852POPC   GL125945  20.627  38.440   8.864
 1852POPC   GL225946  20.471  38.580   8.864
 1852POPC   C1A25947  20.647  38.503   8.564
 1852POPC   D2A25948  20.644  38.439   8.264
 1852POPC   C3A25949  20.572  38.503   7.964
 1852POPC   C4A25950  20.652  38.417   7.664
 1852POPC   C1B25951  20.395  38.580   8.564
 1852POPC   C2B25952  20.373  38.645   8.264
 1852POPC   C3B25953  20.387  38.571   7.964
 1852POPC   C4B25954  20.453  38.613   7.664
 1853POPC   NC325955  36.103  18.272   9.464
 1853POPC   PO425956  36.114  18.327   9.164
 1853POPC   GL125957  36.162  18.289   8.864
 1853POPC   GL225958  36.014  18.222   8.864
 1853POPC   C1A25959  36.106  18.254   8.564
 1853POPC   D2A25960  36.160  18.332   8.264
 1853POPC   C3A25961  36.115  18.307   7.964
 1853POPC   C4A25962  36.125  18.284   7.664
 1853POPC   C1B25963  35.922  18.246   8.564
 1853POPC   C2B25964  35.916  18.205   8.264
 1853POPC   C3B25965  35.845  18.185   7.964
 1853POPC   C4B25966  35.896  18.237   7.664
 1854POPC   NC325967  19.095   4.332   9.464
 1854POPC   PO425968  19.032   4.356   9.164
 1854POPC   GL125969  19.107   4.304   8.864
 1854POPC   GL225970  18.905   4.225   8.864
 1854POPC   C1A25971  19.065   4.294   8.564
 1854POPC   D2A25972  19.049   4.310   8.264
 1854POPC   C3A25973  19.100   4.312   7.964
 1854POPC   C4A25974  19.030   4.324   7.664
 1854POPC   C1B25975  18.840   4.245   8.564
 1854POPC   C2B25976  18.795   4.217   8.264
 1854POPC   C3B25977  18.825   4.203   7.964
 1854POPC   C4B25978  18.821   4.229   7.664
 1855POPC   NC325979  15.220   5.843   9.464
 1855POPC   PO425980  15.188   5.891   9.164
 1855POPC   GL125981  15.133   5.918   8.864
 1855POPC   GL225982  15.141   6.008   8.864
 1855POPC   C1A25983  15.197   5.856   8.564
 1855POPC   D2A25984  15.178   5.906   8.264
 1855POPC   C3A25985  15.144   5.910   7.964
 1855POPC   C4A25986  15.199   5.906   7.664
 1855POPC   C1B25987  15.193   6.071   8.564
 1855POPC   C2B25988  15.147   6.163   8.264
 1855POPC   C3B25989  15.198   6.093   7.964
 1855POPC   C4B25990  15.235   6.100   7.664
 1856POPC   NC325991  26.018   2.789   9.464
 1856POPC   PO425992  26.071   2.739   9.164
 1856POPC   GL125993  26.053   2.734   8.864
 1856POPC   GL225994  25.964   2.778   8.864
 1856POPC   C1A25995  26.004   2.736   8.564
 1856POPC   D2A25996  26.086   2.758   8.264
 1856POPC   C3A25997  26.044   2.762   7.964
 1856POPC   C4A25998  26.047   2.803   7.664
 1856POPC   C1B25999  25.784   2.715   8.564
 1856POPC   C2B26000  25.816   2.731   8.264
 1856POPC   C3B26001  25.742   2.787   7.964
 1856POPC   C4B26002  25.788   2.761   7.664
 1857POPC   NC326003  44.683   2.004   9.464
 1857POPC   PO426004  44.689   1.942   9.164
 1857POPC   GL126005  44.624   2.039   8.864
 1857POPC   GL226006  44.680   1.819   8.864
 1857POPC   C1A26007  44.707   2.027   8.564
 1857POPC   D2A26008  44.622   2.010   8.264
 1857POPC   C3A26009  44.613   2.023   7.964
 1857POPC   C4A26010  44.625   1.990   7.664
 1857POPC   C1B26011  44.667   1.761   8.564
 1857POPC   C2B26012  44.668   1.761   8.264
 1857POPC   C3B26013  44.695   1.773   7.964
 1857POPC   C4B26014  44.703   1.737   7.664
 1858POPC   NC326015  15.202  12.816   9.464
 1858POPC   PO426016  15.174  12.806   9.164
 1858POPC   GL126017  15.154  12.837   8.864
 1858POPC   GL226018  15.071  12.866   8.864
 1858POPC   C1A26019  15.150  12.872   8.564
 1858POPC   D2A26020  15.156  12.829   8.264
 1858POPC   C3A26021  15.226  12.829   7.964
 1858POPC   C4A26022  15.169  12.870   7.664
 1858POPC   C1B26023  14.910  12.874   8.564
 1858POPC   C2B26024  14.920  12.868   8.264
 1858POPC   C3B26025  14.953  12.954   7.964
 1858POPC   C4B26026  14.980  12.881   7.664
 1859POPC   NC326027  31.430  14.414   9.464
 1859POPC   PO426028  31.503  14.404   9.164
 1859POPC   GL126029  31.440  14.434   8.864
 1859POPC   GL226030  31.384  14.452   8.864
 1859POPC   C1A26031  31.499  14.418   8.564
 1859POPC   D2A26032  31.514  14.365   8.264
 1859POPC   C3A26033  31.463  14.417   7.964
 1859POPC   C4A26034  31.444  14.361   7.664
 1859POPC   C1B26035  31.207  14.437   8.564
 1859POPC   C2B26036  31.190  14.450   8.264
 1859POPC   C3B26037  31.224  14.455   7.964
 1859POPC   C4B26038  31.279  14.472   7.664
 1860POPC   NC326039  23.711  30.721   9.464
 1860POPC   PO426040  23.762  30.729   9.164
 1860POPC   GL126041  23.705  30.699   8.864
 1860POPC   GL226042  23.693  30.595   8.864
 1860POPC   C1A26043  23.680  30.647   8.564
 1860POPC   D2A26044  23.732  30.728   8.264
 1860POPC   C3A26045  23.737  30.694   7.964
 1860POPC   C4A26046  23.741  30.690   7.664
 1860POPC   C1B26047  23.713  30.403   8.564
 1860POPC   C2B26048  23.718  30.439   8.264
 1860POPC   C3B26049  23.664  30.413   7.964
 1860POPC   C4B26050  23.697  30.493   7.664
 1861POPC   NC326051  43.843  12.037   9.464
 1861POPC   PO426052  43.848  12.064   9.164
 1861POPC   GL126053  43.881  12.124   8.864
 1861POPC   GL226054  43.816  11.916   8.864
 1861POPC   C1A26055  43.869  12.030   8.564
 1861POPC   D2A26056  43.884  12.124   8.264
 1861POPC   C3A26057  43.916  12.068   7.964
 1861POPC   C4A26058  43.850  12.115   7.664
 1861POPC   C1B26059  43.829  11.876   8.564
 1861POPC   C2B26060  43.771  11.828   8.264
 1861POPC   C3B26061  43.780  11.836   7.964
 1861POPC   C4B26062  43.801  11.836   7.664
 1862POPC   NC326063  31.521  12.878   9.464
 1862POPC   PO426064  31.458  12.891   9.164
 1862POPC   GL126065  31.520  12.851   8.864
 1862POPC   GL226066  31.505  12.973   8.864
 1862POPC   C1A26067  31.452  12.819   8.564
 1862POPC   D2A26068  31.474  12.833   8.264
 1862POPC   C3A26069  31.478  12.820   7.964
 1862POPC   C4A26070  31.506  12.896   7.664
 1862POPC   C1B26071  31.555  13.138   8.564
 1862POPC   C2B26072  31.533  13.135   8.264
 1862POPC   C3B26073  31.491  13.118   7.964
 1862POPC   C4B26074  31.501  13.082   7.664
 1863POPC   NC326075  28.358   8.224   9.464
 1863POPC   PO426076  28.347   8.160   9.164
 1863POPC   GL126077  28.405   8.204   8.864
 1863POPC   GL226078  28.506   8.141   8.864
 1863POPC   C1A26079  28.353   8.182   8.564
 1863POPC   D2A26080  28.333   8.226   8.264
 1863POPC   C3A26081  28.346   8.211   7.964
 1863POPC   C4A26082  28.407   8.199   7.664
 1863POPC   C1B26083  28.545   8.055   8.564
 1863POPC   C2B26084  28.515   8.026   8.264
 1863POPC   C3B26085  28.565   8.047   7.964
 1863POPC   C4B26086  28.584   8.063   7.664
 1864POPC   NC326087  24.503  36.883   9.464
 1864POPC   PO426088  24.532  36.951   9.164
 1864POPC   GL126089  24.528  36.857   8.864
 1864POPC   GL226090  24.467  36.734   8.864
 1864POPC   C1A26091  24.500  36.892   8.564
 1864POPC   D2A26092  24.445  36.855   8.264
 1864POPC   C3A26093  24.460  36.867   7.964
 1864POPC   C4A26094  24.533  36.866   7.664
 1864POPC   C1B26095  24.429  36.630   8.564
 1864POPC   C2B26096  24.462  36.624   8.264
 1864POPC   C3B26097  24.388  36.692   7.964
 1864POPC   C4B26098  24.407  36.698   7.664
 1865POPC   NC326099  29.116  29.134   9.464
 1865POPC   PO426100  29.130  29.193   9.164
 1865POPC   GL126101  29.182  29.146   8.864
 1865POPC   GL226102  29.115  29.017   8.864
 1865POPC   C1A26103  29.166  29.122   8.564
 1865POPC   D2A26104  29.132  29.191   8.264
 1865POPC   C3A26105  29.117  29.180   7.964
 1865POPC   C4A26106  29.180  29.099   7.664
 1865POPC   C1B26107  28.957  28.950   8.564
 1865POPC   C2B26108  29.019  28.946   8.264
 1865POPC   C3B26109  28.951  28.918   7.964
 1865POPC   C4B26110  28.962  28.937   7.664
 1866POPC   NC326111  23.760  29.877   9.464
 1866POPC   PO426112  23.704  29.878   9.164
 1866POPC   GL126113  23.692  29.902   8.864
 1866POPC   GL226114  23.859  29.963   8.864
 1866POPC   C1A26115  23.760  29.932   8.564
 1866POPC   D2A26116  23.734  29.873   8.264
 1866POPC   C3A26117  23.688  29.893   7.964
 1866POPC   C4A26118  23.742  29.905   7.664
 1866POPC   C1B26119  23.964  30.035   8.564
 1866POPC   C2B26120  23.951  30.074   8.264
 1866POPC   C3B26121  23.935  30.041   7.964
 1866POPC   C4B26122  23.890  30.068   7.664
 1867POPC   NC326123  40.057  19.020   9.464
 1867POPC   PO426124  39.976  19.038   9.164
 1867POPC   GL126125  40.040  19.100   8.864
 1867POPC   GL226126  39.964  18.980   8.864
 1867POPC   C1A26127  40.053  19.099   8.564
 1867POPC   D2A26128  39.958  19.059   8.264
 1867POPC   C3A26129  39.972  19.077   7.964
 1867POPC   C4A26130  39.985  19.099   7.664
 1867POPC   C1B26131  39.946  18.836   8.564
 1867POPC   C2B26132  39.973  18.848   8.264
 1867POPC   C3B26133  40.037  18.759   7.964
 1867POPC   C4B26134  39.942  18.761   7.664
 1868POPC   NC326135  29.960   6.648   9.464
 1868POPC   PO426136  29.955   6.596   9.164
 1868POPC   GL126137  29.944   6.675   8.864
 1868POPC   GL226138  30.070   6.751   8.864
 1868POPC   C1A26139  29.909   6.675   8.564
 1868POPC   D2A26140  29.967   6.689   8.264
 1868POPC   C3A26141  29.966   6.694   7.964
 1868POPC   C4A26142  29.970   6.642   7.664
 1868POPC   C1B26143  30.080   6.805   8.564
 1868POPC   C2B26144  30.080   6.804   8.264
 1868POPC   C3B26145  30.092   6.795   7.964
 1868POPC   C4B26146  30.100   6.751   7.664
 1869POPC   NC326147  38.449  21.427   9.464
 1869POPC   PO426148  38.409  21.434   9.164
 1869POPC   GL126149  38.425  21.415   8.864
 1869POPC   GL226150  38.512  21.482   8.864
 1869POPC   C1A26151  38.419  21.378   8.564
 1869POPC   D2A26152  38.444  21.402   8.264
 1869POPC   C3A26153  38.444  21.353   7.964
 1869POPC   C4A26154  38.449  21.412   7.664
 1869POPC   C1B26155  38.605  21.577   8.564
 1869POPC   C2B26156  38.631  21.594   8.264
 1869POPC   C3B26157  38.593  21.596   7.964
 1869POPC   C4B26158  38.588  21.615   7.664
 1870POPC   NC326159  32.261  36.936   9.464
 1870POPC   PO426160  32.263  36.924   9.164
 1870POPC   GL126161  32.212  36.943   8.864
 1870POPC   GL226162  32.163  37.017   8.864
 1870POPC   C1A26163  32.260  36.872   8.564
 1870POPC   D2A26164  32.293  36.904   8.264
 1870POPC   C3A26165  32.285  36.941   7.964
 1870POPC   C4A26166  32.242  36.922   7.664
 1870POPC   C1B26167  32.147  37.119   8.564
 1870POPC   C2B26168  32.193  37.131   8.264
 1870POPC   C3B26169  32.138  37.157   7.964
 1870POPC   C4B26170  32.197  37.153   7.664
 1871POPC   NC326171  14.391  19.023   9.464
 1871POPC   PO426172  14.376  19.063   9.164
 1871POPC   GL126173  14.400  19.103   8.864
 1871POPC   GL226174  14.518  19.129   8.864
 1871POPC   C1A26175  14.449  19.012   8.564
 1871POPC   D2A26176  14.424  19.077   8.264
 1871POPC   C3A26177  14.388  19.056   7.964
 1871POPC   C4A26178  14.442  19.092   7.664
 1871POPC   C1B26179  14.561  19.312   8.564
 1871POPC   C2B26180  14.517  19.260   8.264
 1871POPC   C3B26181  14.585  19.223   7.964
 1871POPC   C4B26182  14.541  19.222   7.664
 1872POPC   NC326183  22.130   3.569   9.464
 1872POPC   PO426184  22.152   3.570   9.164
 1872POPC   GL126185  22.161   3.499   8.864
 1872POPC   GL226186  22.283   3.491   8.864
 1872POPC   C1A26187  22.130   3.552   8.564
 1872POPC   D2A26188  22.183   3.545   8.264
 1872POPC   C3A26189  22.199   3.527   7.964
 1872POPC   C4A26190  22.114   3.519   7.664
 1872POPC   C1B26191  22.368   3.377   8.564
 1872POPC   C2B26192  22.371   3.312   8.264
 1872POPC   C3B26193  22.360   3.319   7.964
 1872POPC   C4B26194  22.294   3.400   7.664
 1873POPC   NC326195  11.250  40.744   9.464
 1873POPC   PO426196  11.295  40.810   9.164
 1873POPC   GL126197  11.310  40.819   8.864
 1873POPC   GL226198  11.222  40.820   8.864
 1873POPC   C1A26199  11.345  40.777   8.564
 1873POPC   D2A26200  11.343  40.753   8.264
 1873POPC   C3A26201  11.271  40.790   7.964
 1873POPC   C4A26202  11.347  40.762   7.664
 1873POPC   C1B26203  11.145  40.937   8.564
 1873POPC   C2B26204  11.154  40.977   8.264
 1873POPC   C3B26205  11.158  40.947   7.964
 1873POPC   C4B26206  11.094  40.995   7.664
 1874POPC   NC326207  25.306  35.321   9.464
 1874POPC   PO426208  25.301  35.396   9.164
 1874POPC   GL126209  25.305  35.372   8.864
 1874POPC   GL226210  25.341  35.419   8.864
 1874POPC   C1A26211  25.250  35.312   8.564
 1874POPC   D2A26212  25.219  35.346   8.264
 1874POPC   C3A26213  25.300  35.369   7.964
 1874POPC   C4A26214  25.243  35.330   7.664
 1874POPC   C1B26215  25.431  35.533   8.564
 1874POPC   C2B26216  25.455  35.527   8.264
 1874POPC   C3B26217  25.404  35.505   7.964
 1874POPC   C4B26218  25.443  35.496   7.664
 1875POPC   NC326219   1.195  37.681   9.464
 1875POPC   PO426220   1.206  37.726   9.164
 1875POPC   GL126221   1.172  37.706   8.864
 1875POPC   GL226222   1.209  37.604   8.864
 1875POPC   C1A26223   1.248  37.641   8.564
 1875POPC   D2A26224   1.197  37.726   8.264
 1875POPC   C3A26225   1.207  37.687   7.964
 1875POPC   C4A26226   1.193  37.728   7.664
 1875POPC   C1B26227   1.246  37.462   8.564
 1875POPC   C2B26228   1.240  37.427   8.264
 1875POPC   C3B26229   1.311  37.480   7.964
 1875POPC   C4B26230   1.239  37.446   7.664
 1876POPC   NC326231  24.478  40.003   9.464
 1876POPC   PO426232  24.519  40.028   9.164
 1876POPC   GL126233  24.480  40.017   8.864
 1876POPC   GL226234  24.656  40.002   8.864
 1876POPC   C1A26235  24.495  39.986   8.564
 1876POPC   D2A26236  24.508  39.963   8.264
 1876POPC   C3A26237  24.506  39.977   7.964
 1876POPC   C4A26238  24.462  39.970   7.664
 1876POPC   C1B26239  24.706  39.876   8.564
 1876POPC   C2B26240  24.698  39.892   8.264
 1876POPC   C3B26241  24.711  39.885   7.964
 1876POPC   C4B26242  24.743  39.913   7.664
 1877POPC   NC326243  42.352  30.740   9.464
 1877POPC   PO426244  42.347  30.700   9.164
 1877POPC   GL126245  42.372  30.664   8.864
 1877POPC   GL226246  42.397  30.662   8.864
 1877POPC   C1A26247  42.361  30.732   8.564
 1877POPC   D2A26248  42.325  30.709   8.264
 1877POPC   C3A26249  42.317  30.683   7.964
 1877POPC   C4A26250  42.315  30.705   7.664
 1877POPC   C1B26251  42.482  30.521   8.564
 1877POPC   C2B26252  42.510  30.586   8.264
 1877POPC   C3B26253  42.538  30.539   7.964
 1877POPC   C4B26254  42.571  30.562   7.664
 1878POPC   NC326255  30.683  41.606   9.464
 1878POPC   PO426256  30.727  41.524   9.164
 1878POPC   GL126257  30.706  41.526   8.864
 1878POPC   GL226258  30.694  41.642   8.864
 1878POPC   C1A26259  30.679  41.579   8.564
 1878POPC   D2A26260  30.657  41.559   8.264
 1878POPC   C3A26261  30.675  41.560   7.964
 1878POPC   C4A26262  30.687  41.528   7.664
 1878POPC   C1B26263  30.655  41.846   8.564
 1878POPC   C2B26264  30.682  41.802   8.264
 1878POPC   C3B26265  30.695  41.776   7.964
 1878POPC   C4B26266  30.666  41.847   7.664
 1879POPC   NC326267   2.796   5.085   9.464
 1879POPC   PO426268   2.797   5.052   9.164
 1879POPC   GL126269   2.815   5.134   8.864
 1879POPC   GL226270   2.792   5.217   8.864
 1879POPC   C1A26271   2.784   5.134   8.564
 1879POPC   D2A26272   2.742   5.134   8.264
 1879POPC   C3A26273   2.771   5.112   7.964
 1879POPC   C4A26274   2.739   5.081   7.664
 1879POPC   C1B26275   2.877   5.284   8.564
 1879POPC   C2B26276   2.910   5.332   8.264
 1879POPC   C3B26277   2.873   5.319   7.964
 1879POPC   C4B26278   2.852   5.345   7.664
 1880POPC   NC326279  33.779  38.412   9.464
 1880POPC   PO426280  33.809  38.418   9.164
 1880POPC   GL126281  33.767  38.500   8.864
 1880POPC   GL226282  33.906  38.440   8.864
 1880POPC   C1A26283  33.757  38.486   8.564
 1880POPC   D2A26284  33.785  38.416   8.264
 1880POPC   C3A26285  33.752  38.499   7.964
 1880POPC   C4A26286  33.770  38.447   7.664
 1880POPC   C1B26287  34.029  38.464   8.564
 1880POPC   C2B26288  34.053  38.430   8.264
 1880POPC   C3B26289  34.030  38.447   7.964
 1880POPC   C4B26290  34.090  38.441   7.664
 1881POPC   NC326291   4.332  20.657   9.464
 1881POPC   PO426292   4.313  20.619   9.164
 1881POPC   GL126293   4.271  20.603   8.864
 1881POPC   GL226294   4.198  20.604   8.864
 1881POPC   C1A26295   4.319  20.602   8.564
 1881POPC   D2A26296   4.300  20.652   8.264
 1881POPC   C3A26297   4.311  20.589   7.964
 1881POPC   C4A26298   4.303  20.580   7.664
 1881POPC   C1B26299   4.048  20.566   8.564
 1881POPC   C2B26300   4.073  20.608   8.264
 1881POPC   C3B26301   4.067  20.620   7.964
 1881POPC   C4B26302   4.083  20.617   7.664
 1882POPC   NC326303  39.251  10.554   9.464
 1882POPC   PO426304  39.252  10.489   9.164
 1882POPC   GL126305  39.220  10.518   8.864
 1882POPC   GL226306  39.355  10.565   8.864
 1882POPC   C1A26307  39.219  10.478   8.564
 1882POPC   D2A26308  39.223  10.478   8.264
 1882POPC   C3A26309  39.190  10.531   7.964
 1882POPC   C4A26310  39.256  10.572   7.664
 1882POPC   C1B26311  39.500  10.659   8.564
 1882POPC   C2B26312  39.430  10.629   8.264
 1882POPC   C3B26313  39.447  10.673   7.964
 1882POPC   C4B26314  39.454  10.664   7.664
 1883POPC   NC326315  22.205  31.465   9.464
 1883POPC   PO426316  22.210  31.490   9.164
 1883POPC   GL126317  22.162  31.473   8.864
 1883POPC   GL226318  22.075  31.551   8.864
 1883POPC   C1A26319  22.212  31.489   8.564
 1883POPC   D2A26320  22.142  31.513   8.264
 1883POPC   C3A26321  22.188  31.441   7.964
 1883POPC   C4A26322  22.172  31.483   7.664
 1883POPC   C1B26323  21.895  31.508   8.564
 1883POPC   C2B26324  21.889  31.546   8.264
 1883POPC   C3B26325  21.877  31.548   7.964
 1883POPC   C4B26326  21.910  31.520   7.664
 1884POPC   NC326327  35.363   4.294   9.464
 1884POPC   PO426328  35.357   4.293   9.164
 1884POPC   GL126329  35.387   4.332   8.864
 1884POPC   GL226330  35.285   4.348   8.864
 1884POPC   C1A26331  35.323   4.308   8.564
 1884POPC   D2A26332  35.394   4.280   8.264
 1884POPC   C3A26333  35.382   4.309   7.964
 1884POPC   C4A26334  35.337   4.348   7.664
 1884POPC   C1B26335  35.087   4.434   8.564
 1884POPC   C2B26336  35.133   4.384   8.264
 1884POPC   C3B26337  35.121   4.438   7.964
 1884POPC   C4B26338  35.087   4.443   7.664
 1885POPC   NC326339  20.632  34.539   9.464
 1885POPC   PO426340  20.619  34.527   9.164
 1885POPC   GL126341  20.637  34.527   8.864
 1885POPC   GL226342  20.593  34.478   8.864
 1885POPC   C1A26343  20.574  34.587   8.564
 1885POPC   D2A26344  20.622  34.572   8.264
 1885POPC   C3A26345  20.641  34.569   7.964
 1885POPC   C4A26346  20.634  34.624   7.664
 1885POPC   C1B26347  20.474  34.341   8.564
 1885POPC   C2B26348  20.463  34.349   8.264
 1885POPC   C3B26349  20.533  34.351   7.964
 1885POPC   C4B26350  20.510  34.395   7.664
 1886POPC   NC326351   3.497  43.855   9.464
 1886POPC   PO426352   3.494  43.891   9.164
 1886POPC   GL126353   3.551  43.850   8.864
 1886POPC   GL226354   3.448  43.922   8.864
 1886POPC   C1A26355   3.565  43.917   8.564
 1886POPC   D2A26356   3.519  43.897   8.264
 1886POPC   C3A26357   3.537  43.863   7.964
 1886POPC   C4A26358   3.571  43.930   7.664
 1886POPC   C1B26359   3.323  43.989   8.564
 1886POPC   C2B26360   3.327  44.012   8.264
 1886POPC   C3B26361   3.342  44.031   7.964
 1886POPC   C4B26362   3.318  44.039   7.664
 1887POPC   NC326363   5.077  23.740   9.464
 1887POPC   PO426364   5.054  23.742   9.164
 1887POPC   GL126365   5.102  23.692   8.864
 1887POPC   GL226366   5.035  23.807   8.864
 1887POPC   C1A26367   5.135  23.752   8.564
 1887POPC   D2A26368   5.102  23.731   8.264
 1887POPC   C3A26369   5.128  23.733   7.964
 1887POPC   C4A26370   5.114  23.723   7.664
 1887POPC   C1B26371   4.979  23.957   8.564
 1887POPC   C2B26372   4.911  23.937   8.264
 1887POPC   C3B26373   4.977  23.954   7.964
 1887POPC   C4B26374   5.004  23.953   7.664
 1888POPC   NC326375   2.000  33.785   9.464
 1888POPC   PO426376   1.996  33.839   9.164
 1888POPC   GL126377   1.940  33.796   8.864
 1888POPC   GL226378   2.079  33.747   8.864
 1888POPC   C1A26379   1.948  33.806   8.564
 1888POPC   D2A26380   1.985  33.778   8.264
 1888POPC   C3A26381   1.994  33.850   7.964
 1888POPC   C4A26382   2.039  33.778   7.664
 1888POPC   C1B26383   2.189  33.714   8.564
 1888POPC   C2B26384   2.282  33.733   8.264
 1888POPC   C3B26385   2.197  33.760   7.964
 1888POPC   C4B26386   2.185  33.707   7.664
 1889POPC   NC326387  19.842  18.305   9.464
 1889POPC   PO426388  19.813  18.329   9.164
 1889POPC   GL126389  19.874  18.313   8.864
 1889POPC   GL226390  19.898  18.370   8.864
 1889POPC   C1A26391  19.831  18.289   8.564
 1889POPC   D2A26392  19.798  18.272   8.264
 1889POPC   C3A26393  19.786  18.309   7.964
 1889POPC   C4A26394  19.802  18.283   7.664
 1889POPC   C1B26395  19.923  18.532   8.564
 1889POPC   C2B26396  19.902  18.532   8.264
 1889POPC   C3B26397  19.961  18.505   7.964
 1889POPC   C4B26398  19.948  18.560   7.664
 1890POPC   NC326399  38.495  16.724   9.464
 1890POPC   PO426400  38.422  16.762   9.164
 1890POPC   GL126401  38.469  16.779   8.864
 1890POPC   GL226402  38.580  16.597   8.864
 1890POPC   C1A26403  38.494  16.698   8.564
 1890POPC   D2A26404  38.462  16.756   8.264
 1890POPC   C3A26405  38.412  16.701   7.964
 1890POPC   C4A26406  38.428  16.747   7.664
 1890POPC   C1B26407  38.635  16.543   8.564
 1890POPC   C2B26408  38.635  16.525   8.264
 1890POPC   C3B26409  38.630  16.499   7.964
 1890POPC   C4B26410  38.592  16.591   7.664
 1891POPC   NC326411  17.539  25.269   9.464
 1891POPC   PO426412  17.479  25.255   9.164
 1891POPC   GL126413  17.469  25.307   8.864
 1891POPC   GL226414  17.601  25.312   8.864
 1891POPC   C1A26415  17.493  25.299   8.564
 1891POPC   D2A26416  17.530  25.312   8.264
 1891POPC   C3A26417  17.531  25.236   7.964
 1891POPC   C4A26418  17.528  25.299   7.664
 1891POPC   C1B26419  17.681  25.428   8.564
 1891POPC   C2B26420  17.709  25.361   8.264
 1891POPC   C3B26421  17.686  25.441   7.964
 1891POPC   C4B26422  17.722  25.424   7.664
 1892POPC   NC326423  43.847   0.392   9.464
 1892POPC   PO426424  43.893   0.437   9.164
 1892POPC   GL126425  43.874   0.389   8.864
 1892POPC   GL226426  44.047   0.445   8.864
 1892POPC   C1A26427  43.896   0.480   8.564
 1892POPC   D2A26428  43.928   0.407   8.264
 1892POPC   C3A26429  43.864   0.472   7.964
 1892POPC   C4A26430  43.917   0.442   7.664
 1892POPC   C1B26431  44.162   0.439   8.564
 1892POPC   C2B26432  44.166   0.418   8.264
 1892POPC   C3B26433  44.111   0.397   7.964
 1892POPC   C4B26434  44.168   0.437   7.664
 1893POPC   NC326435   4.335   8.236   9.464
 1893POPC   PO426436   4.295   8.188   9.164
 1893POPC   GL126437   4.343   8.219   8.864
 1893POPC   GL226438   4.283   8.320   8.864
 1893POPC   C1A26439   4.275   8.208   8.564
 1893POPC   D2A26440   4.271   8.147   8.264
 1893POPC   C3A26441   4.299   8.151   7.964
 1893POPC   C4A26442   4.296   8.219   7.664
 1893POPC   C1B26443   4.239   8.472   8.564
 1893POPC   C2B26444   4.187   8.441   8.264
 1893POPC   C3B26445   4.240   8.390   7.964
 1893POPC   C4B26446   4.227   8.437   7.664
 1894POPC   NC326447  40.792  32.291   9.464
 1894POPC   PO426448  40.747  32.204   9.164
 1894POPC   GL126449  40.765  32.213   8.864
 1894POPC   GL226450  40.838  32.112   8.864
 1894POPC   C1A26451  40.741  32.263   8.564
 1894POPC   D2A26452  40.773  32.263   8.264
 1894POPC   C3A26453  40.781  32.279   7.964
 1894POPC   C4A26454  40.780  32.206   7.664
 1894POPC   C1B26455  40.922  31.983   8.564
 1894POPC   C2B26456  40.946  32.002   8.264
 1894POPC   C3B26457  40.938  32.070   7.964
 1894POPC   C4B26458  40.902  32.008   7.664
 1895POPC   NC326459  30.686  34.614   9.464
 1895POPC   PO426460  30.710  34.589   9.164
 1895POPC   GL126461  30.697  34.581   8.864
 1895POPC   GL226462  30.632  34.439   8.864
 1895POPC   C1A26463  30.716  34.610   8.564
 1895POPC   D2A26464  30.664  34.583   8.264
 1895POPC   C3A26465  30.723  34.616   7.964
 1895POPC   C4A26466  30.664  34.538   7.664
 1895POPC   C1B26467  30.637  34.305   8.564
 1895POPC   C2B26468  30.595  34.300   8.264
 1895POPC   C3B26469  30.663  34.335   7.964
 1895POPC   C4B26470  30.660  34.340   7.664
 1896POPC   NC326471  39.979  29.889   9.464
 1896POPC   PO426472  39.957  29.951   9.164
 1896POPC   GL126473  40.034  29.884   8.864
 1896POPC   GL226474  40.127  29.869   8.864
 1896POPC   C1A26475  39.959  29.902   8.564
 1896POPC   D2A26476  39.981  29.968   8.264
 1896POPC   C3A26477  39.971  29.882   7.964
 1896POPC   C4A26478  40.044  29.966   7.664
 1896POPC   C1B26479  40.260  29.823   8.564
 1896POPC   C2B26480  40.243  29.890   8.264
 1896POPC   C3B26481  40.209  29.849   7.964
 1896POPC   C4B26482  40.271  29.867   7.664
 1897POPC   NC326483   5.062  18.331   9.464
 1897POPC   PO426484   5.049  18.267   9.164
 1897POPC   GL126485   5.103  18.298   8.864
 1897POPC   GL226486   5.182  18.408   8.864
 1897POPC   C1A26487   5.132  18.243   8.564
 1897POPC   D2A26488   5.094  18.239   8.264
 1897POPC   C3A26489   5.061  18.244   7.964
 1897POPC   C4A26490   5.117  18.267   7.664
 1897POPC   C1B26491   5.217  18.447   8.564
 1897POPC   C2B26492   5.231  18.520   8.264
 1897POPC   C3B26493   5.271  18.459   7.964
 1897POPC   C4B26494   5.261  18.482   7.664
 1898POPC   NC326495  27.598  34.532   9.464
 1898POPC   PO426496  27.555  34.611   9.164
 1898POPC   GL126497  27.580  34.590   8.864
 1898POPC   GL226498  27.464  34.706   8.864
 1898POPC   C1A26499  27.635  34.544   8.564
 1898POPC   D2A26500  27.643  34.620   8.264
 1898POPC   C3A26501  27.624  34.545   7.964
 1898POPC   C4A26502  27.549  34.555   7.664
 1898POPC   C1B26503  27.468  34.760   8.564
 1898POPC   C2B26504  27.404  34.790   8.264
 1898POPC   C3B26505  27.395  34.767   7.964
 1898POPC   C4B26506  27.461  34.767   7.664
 1899POPC   NC326507  21.421  18.329   9.464
 1899POPC   PO426508  21.363  18.243   9.164
 1899POPC   GL126509  21.386  18.277   8.864
 1899POPC   GL226510  21.301  18.346   8.864
 1899POPC   C1A26511  21.404  18.299   8.564
 1899POPC   D2A26512  21.373  18.279   8.264
 1899POPC   C3A26513  21.362  18.328   7.964
 1899POPC   C4A26514  21.389  18.325   7.664
 1899POPC   C1B26515  21.178  18.371   8.564
 1899POPC   C2B26516  21.197  18.394   8.264
 1899POPC   C3B26517  21.153  18.360   7.964
 1899POPC   C4B26518  21.184  18.398   7.664
 1900POPC   NC326519  27.543  26.807   9.464
 1900POPC   PO426520  27.625  26.808   9.164
 1900POPC   GL126521  27.586  26.806   8.864
 1900POPC   GL226522  27.606  26.972   8.864
 1900POPC   C1A26523  27.602  26.858   8.564
 1900POPC   D2A26524  27.579  26.797   8.264
 1900POPC   C3A26525  27.614  26.778   7.964
 1900POPC   C4A26526  27.627  26.806   7.664
 1900POPC   C1B26527  27.566  27.040   8.564
 1900POPC   C2B26528  27.620  27.096   8.264
 1900POPC   C3B26529  27.649  27.079   7.964
 1900POPC   C4B26530  27.647  27.049   7.664
 1901POPC   NC326531   5.893  23.699   9.464
 1901POPC   PO426532   5.835  23.691   9.164
 1901POPC   GL126533   5.854  23.668   8.864
 1901POPC   GL226534   5.974  23.791   8.864
 1901POPC   C1A26535   5.856  23.736   8.564
 1901POPC   D2A26536   5.913  23.686   8.264
 1901POPC   C3A26537   5.825  23.751   7.964
 1901POPC   C4A26538   5.915  23.726   7.664
 1901POPC   C1B26539   6.071  23.865   8.564
 1901POPC   C2B26540   6.088  23.858   8.264
 1901POPC   C3B26541   6.040  23.867   7.964
 1901POPC   C4B26542   6.023  23.902   7.664
 1902POPC   NC326543   9.014  33.830   9.464
 1902POPC   PO426544   9.021  33.840   9.164
 1902POPC   GL126545   8.941  33.819   8.864
 1902POPC   GL226546   8.973  33.900   8.864
 1902POPC   C1A26547   8.936  33.803   8.564
 1902POPC   D2A26548   9.002  33.759   8.264
 1902POPC   C3A26549   8.980  33.753   7.964
 1902POPC   C4A26550   8.946  33.843   7.664
 1902POPC   C1B26551   8.970  34.006   8.564
 1902POPC   C2B26552   8.967  34.073   8.264
 1902POPC   C3B26553   8.946  34.031   7.964
 1902POPC   C4B26554   8.911  34.016   7.664
 1903POPC   NC326555  20.581  25.314   9.464
 1903POPC   PO426556  20.614  25.226   9.164
 1903POPC   GL126557  20.634  25.287   8.864
 1903POPC   GL226558  20.741  25.267   8.864
 1903POPC   C1A26559  20.639  25.314   8.564
 1903POPC   D2A26560  20.602  25.220   8.264
 1903POPC   C3A26561  20.580  25.265   7.964
 1903POPC   C4A26562  20.585  25.255   7.664
 1903POPC   C1B26563  20.792  25.344   8.564
 1903POPC   C2B26564  20.855  25.318   8.264
 1903POPC   C3B26565  20.854  25.364   7.964
 1903POPC   C4B26566  20.857  25.351   7.664
 1904POPC   NC326567   1.179  41.596   9.464
 1904POPC   PO426568   1.263  41.601   9.164
 1904POPC   GL126569   1.209  41.517   8.864
 1904POPC   GL226570   1.098  41.570   8.864
 1904POPC   C1A26571   1.218  41.574   8.564
 1904POPC   D2A26572   1.256  41.542   8.264
 1904POPC   C3A26573   1.168  41.509   7.964
 1904POPC   C4A26574   1.226  41.543   7.664
 1904POPC   C1B26575   0.970  41.619   8.564
 1904POPC   C2B26576   1.019  41.666   8.264
 1904POPC   C3B26577   0.942  41.695   7.964
 1904POPC   C4B26578   1.007  41.649   7.664
 1905POPC   NC326579  36.942  42.365   9.464
 1905POPC   PO426580  36.910  42.348   9.164
 1905POPC   GL126581  36.909  42.352   8.864
 1905POPC   GL226582  37.051  42.337   8.864
 1905POPC   C1A26583  36.868  42.358   8.564
 1905POPC   D2A26584  36.881  42.347   8.264
 1905POPC   C3A26585  36.930  42.369   7.964
 1905POPC   C4A26586  36.953  42.354   7.664
 1905POPC   C1B26587  37.178  42.413   8.564
 1905POPC   C2B26588  37.176  42.366   8.264
 1905POPC   C3B26589  37.102  42.359   7.964
 1905POPC   C4B26590  37.171  42.362   7.664
 1906POPC   NC326591  36.117  15.926   9.464
 1906POPC   PO426592  36.151  15.960   9.164
 1906POPC   GL126593  36.105  15.992   8.864
 1906POPC   GL226594  36.067  15.833   8.864
 1906POPC   C1A26595  36.135  15.921   8.564
 1906POPC   D2A26596  36.139  15.970   8.264
 1906POPC   C3A26597  36.081  15.909   7.964
 1906POPC   C4A26598  36.085  15.981   7.664
 1906POPC   C1B26599  35.972  15.751   8.564
 1906POPC   C2B26600  36.010  15.708   8.264
 1906POPC   C3B26601  35.983  15.758   7.964
 1906POPC   C4B26602  35.951  15.779   7.664
 1907POPC   NC326603   2.729  22.165   9.464
 1907POPC   PO426604   2.809  22.160   9.164
 1907POPC   GL126605   2.734  22.129   8.864
 1907POPC   GL226606   2.887  22.211   8.864
 1907POPC   C1A26607   2.778  22.138   8.564
 1907POPC   D2A26608   2.741  22.204   8.264
 1907POPC   C3A26609   2.812  22.198   7.964
 1907POPC   C4A26610   2.807  22.151   7.664
 1907POPC   C1B26611   3.013  22.285   8.564
 1907POPC   C2B26612   3.004  22.297   8.264
 1907POPC   C3B26613   2.987  22.265   7.964
 1907POPC   C4B26614   2.949  22.298   7.664
 1908POPC   NC326615  26.072   1.986   9.464
 1908POPC   PO426616  26.019   2.035   9.164
 1908POPC   GL126617  26.081   2.018   8.864
 1908POPC   GL226618  26.063   1.829   8.864
 1908POPC   C1A26619  26.063   2.026   8.564
 1908POPC   D2A26620  26.043   2.012   8.264
 1908POPC   C3A26621  26.054   1.989   7.964
 1908POPC   C4A26622  26.066   2.030   7.664
 1908POPC   C1B26623  26.126   1.760   8.564
 1908POPC   C2B26624  26.180   1.759   8.264
 1908POPC   C3B26625  26.128   1.734   7.964
 1908POPC   C4B26626  26.111   1.802   7.664
 1909POPC   NC326627  32.975   7.425   9.464
 1909POPC   PO426628  33.064   7.396   9.164
 1909POPC   GL126629  33.020   7.449   8.864
 1909POPC   GL226630  33.122   7.335   8.864
 1909POPC   C1A26631  33.028   7.441   8.564
 1909POPC   D2A26632  33.027   7.410   8.264
 1909POPC   C3A26633  32.999   7.431   7.964
 1909POPC   C4A26634  33.056   7.442   7.664
 1909POPC   C1B26635  33.214   7.281   8.564
 1909POPC   C2B26636  33.224   7.225   8.264
 1909POPC   C3B26637  33.203   7.246   7.964
 1909POPC   C4B26638  33.174   7.282   7.664
 1910POPC   NC326639  33.825   5.910   9.464
 1910POPC   PO426640  33.808   5.886   9.164
 1910POPC   GL126641  33.844   5.883   8.864
 1910POPC   GL226642  33.777   5.969   8.864
 1910POPC   C1A26643  33.772   5.884   8.564
 1910POPC   D2A26644  33.812   5.841   8.264
 1910POPC   C3A26645  33.803   5.890   7.964
 1910POPC   C4A26646  33.831   5.916   7.664
 1910POPC   C1B26647  33.817   6.132   8.564
 1910POPC   C2B26648  33.831   6.131   8.264
 1910POPC   C3B26649  33.897   6.067   7.964
 1910POPC   C4B26650  33.880   6.093   7.664
 1911POPC   NC326651  20.604  15.929   9.464
 1911POPC   PO426652  20.613  15.937   9.164
 1911POPC   GL126653  20.654  15.989   8.864
 1911POPC   GL226654  20.569  16.045   8.864
 1911POPC   C1A26655  20.602  15.946   8.564
 1911POPC   D2A26656  20.608  15.960   8.264
 1911POPC   C3A26657  20.567  15.919   7.964
 1911POPC   C4A26658  20.582  15.958   7.664
 1911POPC   C1B26659  20.592  16.229   8.564
 1911POPC   C2B26660  20.593  16.212   8.264
 1911POPC   C3B26661  20.650  16.160   7.964
 1911POPC   C4B26662  20.591  16.239   7.664
 1912POPC   NC326663  36.159  39.193   9.464
 1912POPC   PO426664  36.162  39.217   9.164
 1912POPC   GL126665  36.126  39.190   8.864
 1912POPC   GL226666  36.261  39.144   8.864
 1912POPC   C1A26667  36.081  39.236   8.564
 1912POPC   D2A26668  36.124  39.188   8.264
 1912POPC   C3A26669  36.141  39.210   7.964
 1912POPC   C4A26670  36.095  39.204   7.664
 1912POPC   C1B26671  36.316  39.111   8.564
 1912POPC   C2B26672  36.286  39.099   8.264
 1912POPC   C3B26673  36.330  39.064   7.964
 1912POPC   C4B26674  36.356  39.044   7.664
 1913POPC   NC326675  32.223   4.308   9.464
 1913POPC   PO426676  32.221   4.280   9.164
 1913POPC   GL126677  32.227   4.366   8.864
 1913POPC   GL226678  32.227   4.412   8.864
 1913POPC   C1A26679  32.198   4.312   8.564
 1913POPC   D2A26680  32.216   4.269   8.264
 1913POPC   C3A26681  32.294   4.322   7.964
 1913POPC   C4A26682  32.281   4.343   7.664
 1913POPC   C1B26683  32.155   4.556   8.564
 1913POPC   C2B26684  32.200   4.583   8.264
 1913POPC   C3B26685  32.184   4.534   7.964
 1913POPC   C4B26686  32.156   4.562   7.664
 1914POPC   NC326687  22.979  34.620   9.464
 1914POPC   PO426688  22.959  34.560   9.164
 1914POPC   GL126689  22.957  34.534   8.864
 1914POPC   GL226690  22.781  34.569   8.864
 1914POPC   C1A26691  22.909  34.608   8.564
 1914POPC   D2A26692  22.954  34.552   8.264
 1914POPC   C3A26693  22.962  34.548   7.964
 1914POPC   C4A26694  22.984  34.544   7.664
 1914POPC   C1B26695  22.710  34.563   8.564
 1914POPC   C2B26696  22.688  34.518   8.264
 1914POPC   C3B26697  22.718  34.592   7.964
 1914POPC   C4B26698  22.716  34.590   7.664
 1915POPC   NC326699  23.693  25.288   9.464
 1915POPC   PO426700  23.735  25.278   9.164
 1915POPC   GL126701  23.739  25.312   8.864
 1915POPC   GL226702  23.773  25.328   8.864
 1915POPC   C1A26703  23.729  25.283   8.564
 1915POPC   D2A26704  23.681  25.275   8.264
 1915POPC   C3A26705  23.761  25.253   7.964
 1915POPC   C4A26706  23.755  25.265   7.664
 1915POPC   C1B26707  23.872  25.462   8.564
 1915POPC   C2B26708  23.905  25.502   8.264
 1915POPC   C3B26709  23.813  25.515   7.964
 1915POPC   C4B26710  23.818  25.449   7.664
 1916POPC   NC326711  24.505  44.709   9.464
 1916POPC   PO426712  24.509  44.685   9.164
 1916POPC   GL126713  24.475  44.712   8.864
 1916POPC   GL226714  24.571  44.765   8.864
 1916POPC   C1A26715  24.497  44.614   8.564
 1916POPC   D2A26716  24.539  44.642   8.264
 1916POPC   C3A26717  24.532  44.663   7.964
 1916POPC   C4A26718  24.509  44.691   7.664
 1916POPC   C1B26719  24.636  44.899   8.564
 1916POPC   C2B26720  24.660  44.811   8.264
 1916POPC   C3B26721  24.614  44.876   7.964
 1916POPC   C4B26722  24.662  44.831   7.664
 1917POPC   NC326723  41.509  12.867   9.464
 1917POPC   PO426724  41.527  12.806   9.164
 1917POPC   GL126725  41.602  12.876   8.864
 1917POPC   GL226726  41.633  12.780   8.864
 1917POPC   C1A26727  41.510  12.834   8.564
 1917POPC   D2A26728  41.556  12.863   8.264
 1917POPC   C3A26729  41.571  12.835   7.964
 1917POPC   C4A26730  41.557  12.828   7.664
 1917POPC   C1B26731  41.643  12.610   8.564
 1917POPC   C2B26732  41.626  12.590   8.264
 1917POPC   C3B26733  41.651  12.649   7.964
 1917POPC   C4B26734  41.601  12.577   7.664
 1918POPC   NC326735  40.738  17.521   9.464
 1918POPC   PO426736  40.809  17.495   9.164
 1918POPC   GL126737  40.754  17.510   8.864
 1918POPC   GL226738  40.890  17.452   8.864
 1918POPC   C1A26739  40.747  17.510   8.564
 1918POPC   D2A26740  40.777  17.542   8.264
 1918POPC   C3A26741  40.825  17.505   7.964
 1918POPC   C4A26742  40.814  17.484   7.664
 1918POPC   C1B26743  40.985  17.474   8.564
 1918POPC   C2B26744  41.025  17.457   8.264
 1918POPC   C3B26745  40.990  17.436   7.964
 1918POPC   C4B26746  41.008  17.409   7.664
 1919POPC   NC326747  22.906  23.667   9.464
 1919POPC   PO426748  22.919  23.683   9.164
 1919POPC   GL126749  22.983  23.760   8.864
 1919POPC   GL226750  23.023  23.631   8.864
 1919POPC   C1A26751  22.927  23.753   8.564
 1919POPC   D2A26752  22.910  23.760   8.264
 1919POPC   C3A26753  22.937  23.685   7.964
 1919POPC   C4A26754  22.936  23.708   7.664
 1919POPC   C1B26755  23.146  23.535   8.564
 1919POPC   C2B26756  23.102  23.559   8.264
 1919POPC   C3B26757  23.118  23.554   7.964
 1919POPC   C4B26758  23.151  23.556   7.664
 1920POPC   NC326759  14.421  42.361   9.464
 1920POPC   PO426760  14.436  42.372   9.164
 1920POPC   GL126761  14.361  42.333   8.864
 1920POPC   GL226762  14.557  42.301   8.864
 1920POPC   C1A26763  14.380  42.324   8.564
 1920POPC   D2A26764  14.369  42.350   8.264
 1920POPC   C3A26765  14.421  42.358   7.964
 1920POPC   C4A26766  14.402  42.342   7.664
 1920POPC   C1B26767  14.603  42.220   8.564
 1920POPC   C2B26768  14.659  42.185   8.264
 1920POPC   C3B26769  14.588  42.247   7.964
 1920POPC   C4B26770  14.676  42.214   7.664
 1921POPC   NC326771  28.379  44.634   9.464
 1921POPC   PO426772  28.419  44.702   9.164
 1921POPC   GL126773  28.391  44.697   8.864
 1921POPC   GL226774  28.278  44.698   8.864
 1921POPC   C1A26775  28.343  44.709   8.564
 1921POPC   D2A26776  28.330  44.695   8.264
 1921POPC   C3A26777  28.354  44.637   7.964
 1921POPC   C4A26778  28.391  44.637   7.664
 1921POPC   C1B26779  28.149  44.646   8.564
 1921POPC   C2B26780  28.109  44.661   8.264
 1921POPC   C3B26781  28.151  44.652   7.964
 1921POPC   C4B26782  28.156  44.596   7.664
 1922POPC   NC326783  18.298  39.189   9.464
 1922POPC   PO426784  18.279  39.256   9.164
 1922POPC   GL126785  18.293  39.217   8.864
 1922POPC   GL226786  18.199  39.336   8.864
 1922POPC   C1A26787  18.261  39.263   8.564
 1922POPC   D2A26788  18.288  39.260   8.264
 1922POPC   C3A26789  18.297  39.272   7.964
 1922POPC   C4A26790  18.295  39.225   7.664
 1922POPC   C1B26791  18.150  39.460   8.564
 1922POPC   C2B26792  18.137  39.427   8.264
 1922POPC   C3B26793  18.179  39.424   7.964
 1922POPC   C4B26794  18.143  39.464   7.664
 1923POPC   NC326795  36.939  39.973   9.464
 1923POPC   PO426796  36.899  39.979   9.164
 1923POPC   GL126797  36.859  40.031   8.864
 1923POPC   GL226798  36.882  40.086   8.864
 1923POPC   C1A26799  36.953  40.009   8.564
 1923POPC   D2A26800  36.874  39.961   8.264
 1923POPC   C3A26801  36.897  39.967   7.964
 1923POPC   C4A26802  36.882  39.965   7.664
 1923POPC   C1B26803  36.928  40.285   8.564
 1923POPC   C2B26804  36.893  40.275   8.264
 1923POPC   C3B26805  36.960  40.236   7.964
 1923POPC   C4B26806  36.897  40.220   7.664
 1924POPC   NC326807  36.154  14.399   9.464
 1924POPC   PO426808  36.102  14.396   9.164
 1924POPC   GL126809  36.144  14.440   8.864
 1924POPC   GL226810  36.068  14.537   8.864
 1924POPC   C1A26811  36.086  14.442   8.564
 1924POPC   D2A26812  36.114  14.442   8.264
 1924POPC   C3A26813  36.096  14.410   7.964
 1924POPC   C4A26814  36.172  14.437   7.664
 1924POPC   C1B26815  35.956  14.559   8.564
 1924POPC   C2B26816  35.948  14.603   8.264
 1924POPC   C3B26817  35.932  14.641   7.964
 1924POPC   C4B26818  35.929  14.550   7.664
 1925POPC   NC326819  35.326  29.114   9.464
 1925POPC   PO426820  35.312  29.127   9.164
 1925POPC   GL126821  35.312  29.126   8.864
 1925POPC   GL226822  35.428  29.067   8.864
 1925POPC   C1A26823  35.389  29.147   8.564
 1925POPC   D2A26824  35.321  29.173   8.264
 1925POPC   C3A26825  35.401  29.156   7.964
 1925POPC   C4A26826  35.330  29.181   7.664
 1925POPC   C1B26827  35.435  28.916   8.564
 1925POPC   C2B26828  35.446  28.881   8.264
 1925POPC   C3B26829  35.361  28.876   7.964
 1925POPC   C4B26830  35.366  28.908   7.664
 1926POPC   NC326831  33.826   0.403   9.464
 1926POPC   PO426832  33.837   0.468   9.164
 1926POPC   GL126833  33.835   0.429   8.864
 1926POPC   GL226834  33.791   0.559   8.864
 1926POPC   C1A26835  33.795   0.457   8.564
 1926POPC   D2A26836  33.804   0.434   8.264
 1926POPC   C3A26837  33.834   0.392   7.964
 1926POPC   C4A26838  33.826   0.437   7.664
 1926POPC   C1B26839  33.886   0.667   8.564
 1926POPC   C2B26840  33.829   0.642   8.264
 1926POPC   C3B26841  33.849   0.668   7.964
 1926POPC   C4B26842  33.901   0.688   7.664
 1927POPC   NC326843   7.459   3.527   9.464
 1927POPC   PO426844   7.436   3.574   9.164
 1927POPC   GL126845   7.422   3.498   8.864
 1927POPC   GL226846   7.420   3.446   8.864
 1927POPC   C1A26847   7.391   3.588   8.564
 1927POPC   D2A26848   7.421   3.545   8.264
 1927POPC   C3A26849   7.434   3.504   7.964
 1927POPC   C4A26850   7.406   3.519   7.664
 1927POPC   C1B26851   7.411   3.264   8.564
 1927POPC   C2B26852   7.387   3.277   8.264
 1927POPC   C3B26853   7.364   3.294   7.964
 1927POPC   C4B26854   7.407   3.269   7.664
 1928POPC   NC326855  22.912   1.960   9.464
 1928POPC   PO426856  22.979   1.987   9.164
 1928POPC   GL126857  22.936   2.031   8.864
 1928POPC   GL226858  22.896   2.097   8.864
 1928POPC   C1A26859  22.889   1.960   8.564
 1928POPC   D2A26860  22.974   2.010   8.264
 1928POPC   C3A26861  22.977   1.962   7.964
 1928POPC   C4A26862  22.908   2.017   7.664
 1928POPC   C1B26863  22.818   2.250   8.564
 1928POPC   C2B26864  22.859   2.211   8.264
 1928POPC   C3B26865  22.806   2.259   7.964
 1928POPC   C4B26866  22.848   2.249   7.664
 1929POPC   NC326867   2.735   7.449   9.464
 1929POPC   PO426868   2.748   7.441   9.164
 1929POPC   GL126869   2.814   7.395   8.864
 1929POPC   GL226870   2.709   7.279   8.864
 1929POPC   C1A26871   2.767   7.385   8.564
 1929POPC   D2A26872   2.802   7.374   8.264
 1929POPC   C3A26873   2.754   7.447   7.964
 1929POPC   C4A26874   2.796   7.406   7.664
 1929POPC   C1B26875   2.747   7.197   8.564
 1929POPC   C2B26876   2.715   7.135   8.264
 1929POPC   C3B26877   2.743   7.155   7.964
 1929POPC   C4B26878   2.668   7.219   7.664
 1930POPC   NC326879  43.135   3.587   9.464
 1930POPC   PO426880  43.121   3.512   9.164
 1930POPC   GL126881  43.138   3.522   8.864
 1930POPC   GL226882  43.197   3.481   8.864
 1930POPC   C1A26883  43.063   3.554   8.564
 1930POPC   D2A26884  43.104   3.527   8.264
 1930POPC   C3A26885  43.123   3.512   7.964
 1930POPC   C4A26886  43.125   3.523   7.664
 1930POPC   C1B26887  43.336   3.509   8.564
 1930POPC   C2B26888  43.337   3.446   8.264
 1930POPC   C3B26889  43.353   3.527   7.964
 1930POPC   C4B26890  43.374   3.495   7.664
 1931POPC   NC326891  42.310   7.394   9.464
 1931POPC   PO426892  42.311   7.380   9.164
 1931POPC   GL126893  42.352   7.405   8.864
 1931POPC   GL226894  42.198   7.304   8.864
 1931POPC   C1A26895  42.363   7.438   8.564
 1931POPC   D2A26896  42.287   7.372   8.264
 1931POPC   C3A26897  42.348   7.429   7.964
 1931POPC   C4A26898  42.290   7.438   7.664
 1931POPC   C1B26899  42.165   7.247   8.564
 1931POPC   C2B26900  42.114   7.282   8.264
 1931POPC   C3B26901  42.119   7.246   7.964
 1931POPC   C4B26902  42.148   7.287   7.664
 1932POPC   NC326903  39.247  19.040   9.464
 1932POPC   PO426904  39.214  19.068   9.164
 1932POPC   GL126905  39.205  19.017   8.864
 1932POPC   GL226906  39.259  19.180   8.864
 1932POPC   C1A26907  39.259  19.040   8.564
 1932POPC   D2A26908  39.248  19.092   8.264
 1932POPC   C3A26909  39.217  19.085   7.964
 1932POPC   C4A26910  39.261  19.047   7.664
 1932POPC   C1B26911  39.367  19.280   8.564
 1932POPC   C2B26912  39.363  19.255   8.264
 1932POPC   C3B26913  39.363  19.273   7.964
 1932POPC   C4B26914  39.323  19.238   7.664
 1933POPC   NC326915  29.132  13.669   9.464
 1933POPC   PO426916  29.119  13.619   9.164
 1933POPC   GL126917  29.158  13.611   8.864
 1933POPC   GL226918  29.068  13.760   8.864
 1933POPC   C1A26919  29.152  13.578   8.564
 1933POPC   D2A26920  29.193  13.643   8.264
 1933POPC   C3A26921  29.137  13.657   7.964
 1933POPC   C4A26922  29.163  13.664   7.664
 1933POPC   C1B26923  28.991  13.862   8.564
 1933POPC   C2B26924  29.038  13.812   8.264
 1933POPC   C3B26925  29.066  13.863   7.964
 1933POPC   C4B26926  28.999  13.842   7.664
 1934POPC   NC326927  39.229   9.751   9.464
 1934POPC   PO426928  39.230   9.730   9.164
 1934POPC   GL126929  39.259   9.724   8.864
 1934POPC   GL226930  39.207   9.606   8.864
 1934POPC   C1A26931  39.215   9.756   8.564
 1934POPC   D2A26932  39.213   9.755   8.264
 1934POPC   C3A26933  39.269   9.703   7.964
 1934POPC   C4A26934  39.190   9.739   7.664
 1934POPC   C1B26935  39.237   9.503   8.564
 1934POPC   C2B26936  39.243   9.488   8.264
 1934POPC   C3B26937  39.287   9.535   7.964
 1934POPC   C4B26938  39.306   9.492   7.664
 1935POPC   NC326939   8.166  41.578   9.464
 1935POPC   PO426940   8.236  41.529   9.164
 1935POPC   GL126941   8.190  41.583   8.864
 1935POPC   GL226942   8.284  41.637   8.864
 1935POPC   C1A26943   8.187  41.530   8.564
 1935POPC   D2A26944   8.190  41.543   8.264
 1935POPC   C3A26945   8.156  41.555   7.964
 1935POPC   C4A26946   8.226  41.599   7.664
 1935POPC   C1B26947   8.420  41.657   8.564
 1935POPC   C2B26948   8.430  41.628   8.264
 1935POPC   C3B26949   8.427  41.616   7.964
 1935POPC   C4B26950   8.397  41.591   7.664
 1936POPC   NC326951  11.285  14.400   9.464
 1936POPC   PO426952  11.251  14.358   9.164
 1936POPC   GL126953  11.295  14.446   8.864
 1936POPC   GL226954  11.200  14.401   8.864
 1936POPC   C1A26955  11.283  14.433   8.564
 1936POPC   D2A26956  11.313  14.407   8.264
 1936POPC   C3A26957  11.256  14.371   7.964
 1936POPC   C4A26958  11.300  14.432   7.664
 1936POPC   C1B26959  11.081  14.409   8.564
 1936POPC   C2B26960  11.098  14.424   8.264
 1936POPC   C3B26961  11.093  14.422   7.964
 1936POPC   C4B26962  11.069  14.442   7.664
 1937POPC   NC326963   9.720   0.475   9.464
 1937POPC   PO426964   9.795   0.451   9.164
 1937POPC   GL126965   9.754   0.406   8.864
 1937POPC   GL226966   9.726   0.305   8.864
 1937POPC   C1A26967   9.708   0.469   8.564
 1937POPC   D2A26968   9.715   0.389   8.264
 1937POPC   C3A26969   9.796   0.419   7.964
 1937POPC   C4A26970   9.792   0.464   7.664
 1937POPC   C1B26971   9.699   0.187   8.564
 1937POPC   C2B26972   9.655   0.187   8.264
 1937POPC   C3B26973   9.650   0.171   7.964
 1937POPC   C4B26974   9.718   0.196   7.664
 1938POPC   NC326975   2.760  33.841   9.464
 1938POPC   PO426976   2.758  33.821   9.164
 1938POPC   GL126977   2.756  33.797   8.864
 1938POPC   GL226978   2.878  33.749   8.864
 1938POPC   C1A26979   2.729  33.753   8.564
 1938POPC   D2A26980   2.768  33.776   8.264
 1938POPC   C3A26981   2.780  33.756   7.964
 1938POPC   C4A26982   2.787  33.774   7.664
 1938POPC   C1B26983   2.936  33.631   8.564
 1938POPC   C2B26984   3.006  33.704   8.264
 1938POPC   C3B26985   2.934  33.644   7.964
 1938POPC   C4B26986   3.011  33.725   7.664
 1939POPC   NC326987   3.507   7.466   9.464
 1939POPC   PO426988   3.551   7.428   9.164
 1939POPC   GL126989   3.524   7.422   8.864
 1939POPC   GL226990   3.390   7.395   8.864
 1939POPC   C1A26991   3.563   7.393   8.564
 1939POPC   D2A26992   3.559   7.383   8.264
 1939POPC   C3A26993   3.545   7.405   7.964
 1939POPC   C4A26994   3.559   7.422   7.664
 1939POPC   C1B26995   3.281   7.427   8.564
 1939POPC   C2B26996   3.261   7.370   8.264
 1939POPC   C3B26997   3.336   7.381   7.964
 1939POPC   C4B26998   3.324   7.357   7.664
 1940POPC   NC326999  30.692  19.845   9.464
 1940POPC   PO427000  30.656  19.806   9.164
 1940POPC   GL127001  30.743  19.850   8.864
 1940POPC   GL227002  30.828  19.749   8.864
 1940POPC   C1A27003  30.665  19.847   8.564
 1940POPC   D2A27004  30.692  19.817   8.264
 1940POPC   C3A27005  30.648  19.864   7.964
 1940POPC   C4A27006  30.675  19.824   7.664
 1940POPC   C1B27007  30.884  19.647   8.564
 1940POPC   C2B27008  30.876  19.613   8.264
 1940POPC   C3B27009  30.893  19.688   7.964
 1940POPC   C4B27010  30.875  19.631   7.664
 1941POPC   NC327011  37.667  27.564   9.464
 1941POPC   PO427012  37.721  27.598   9.164
 1941POPC   GL127013  37.656  27.565   8.864
 1941POPC   GL227014  37.601  27.631   8.864
 1941POPC   C1A27015  37.635  27.549   8.564
 1941POPC   D2A27016  37.677  27.643   8.264
 1941POPC   C3A27017  37.696  27.634   7.964
 1941POPC   C4A27018  37.669  27.546   7.664
 1941POPC   C1B27019  37.414  27.587   8.564
 1941POPC   C2B27020  37.462  27.623   8.264
 1941POPC   C3B27021  37.430  27.587   7.964
 1941POPC   C4B27022  37.382  27.575   7.664
 1942POPC   NC327023   5.860  33.791   9.464
 1942POPC   PO427024   5.868  33.759   9.164
 1942POPC   GL127025   5.896  33.807   8.864
 1942POPC   GL227026   5.955  33.832   8.864
 1942POPC   C1A27027   5.918  33.805   8.564
 1942POPC   D2A27028   5.830  33.811   8.264
 1942POPC   C3A27029   5.823  33.781   7.964
 1942POPC   C4A27030   5.851  33.771   7.664
 1942POPC   C1B27031   6.109  33.846   8.564
 1942POPC   C2B27032   6.072  33.842   8.264
 1942POPC   C3B27033   6.072  33.897   7.964
 1942POPC   C4B27034   6.061  33.914   7.664
 1943POPC   NC327035  34.530  43.928   9.464
 1943POPC   PO427036  34.580  43.858   9.164
 1943POPC   GL127037  34.569  43.878   8.864
 1943POPC   GL227038  34.737  43.884   8.864
 1943POPC   C1A27039  34.625  43.889   8.564
 1943POPC   D2A27040  34.536  43.873   8.264
 1943POPC   C3A27041  34.598  43.900   7.964
 1943POPC   C4A27042  34.582  43.908   7.664
 1943POPC   C1B27043  34.858  43.856   8.564
 1943POPC   C2B27044  34.806  43.851   8.264
 1943POPC   C3B27045  34.778  43.855   7.964
 1943POPC   C4B27046  34.801  43.846   7.664
 1944POPC   NC327047  39.259  24.456   9.464
 1944POPC   PO427048  39.226  24.484   9.164
 1944POPC   GL127049  39.196  24.520   8.864
 1944POPC   GL227050  39.353  24.459   8.864
 1944POPC   C1A27051  39.204  24.467   8.564
 1944POPC   D2A27052  39.204  24.460   8.264
 1944POPC   C3A27053  39.249  24.511   7.964
 1944POPC   C4A27054  39.183  24.474   7.664
 1944POPC   C1B27055  39.489  24.392   8.564
 1944POPC   C2B27056  39.470  24.478   8.264
 1944POPC   C3B27057  39.429  24.441   7.964
 1944POPC   C4B27058  39.497  24.394   7.664
 1945POPC   NC327059  37.643  12.874   9.464
 1945POPC   PO427060  37.639  12.891   9.164
 1945POPC   GL127061  37.636  12.861   8.864
 1945POPC   GL227062  37.607  12.789   8.864
 1945POPC   C1A27063  37.665  12.875   8.564
 1945POPC   D2A27064  37.644  12.886   8.264
 1945POPC   C3A27065  37.676  12.845   7.964
 1945POPC   C4A27066  37.683  12.899   7.664
 1945POPC   C1B27067  37.523  12.682   8.564
 1945POPC   C2B27068  37.552  12.630   8.264
 1945POPC   C3B27069  37.544  12.644   7.964
 1945POPC   C4B27070  37.563  12.654   7.664
 1946POPC   NC327071   5.093  28.343   9.464
 1946POPC   PO427072   5.110  28.326   9.164
 1946POPC   GL127073   5.107  28.332   8.864
 1946POPC   GL227074   5.251  28.366   8.864
 1946POPC   C1A27075   5.050  28.390   8.564
 1946POPC   D2A27076   5.065  28.367   8.264
 1946POPC   C3A27077   5.065  28.367   7.964
 1946POPC   C4A27078   5.059  28.357   7.664
 1946POPC   C1B27079   5.310  28.448   8.564
 1946POPC   C2B27080   5.337  28.433   8.264
 1946POPC   C3B27081   5.339  28.434   7.964
 1946POPC   C4B27082   5.314  28.416   7.664
 1947POPC   NC327083  34.623   8.164   9.464
 1947POPC   PO427084  34.621   8.164   9.164
 1947POPC   GL127085  34.600   8.214   8.864
 1947POPC   GL227086  34.692   8.250   8.864
 1947POPC   C1A27087  34.615   8.212   8.564
 1947POPC   D2A27088  34.532   8.235   8.264
 1947POPC   C3A27089  34.577   8.151   7.964
 1947POPC   C4A27090  34.609   8.228   7.664
 1947POPC   C1B27091  34.813   8.244   8.564
 1947POPC   C2B27092  34.799   8.280   8.264
 1947POPC   C3B27093  34.836   8.211   7.964
 1947POPC   C4B27094  34.848   8.283   7.664
 1948POPC   NC327095  26.030  21.424   9.464
 1948POPC   PO427096  26.067  21.396   9.164
 1948POPC   GL127097  26.063  21.345   8.864
 1948POPC   GL227098  26.096  21.509   8.864
 1948POPC   C1A27099  26.055  21.379   8.564
 1948POPC   D2A27100  26.089  21.405   8.264
 1948POPC   C3A27101  26.056  21.422   7.964
 1948POPC   C4A27102  26.022  21.400   7.664
 1948POPC   C1B27103  26.217  21.539   8.564
 1948POPC   C2B27104  26.271  21.505   8.264
 1948POPC   C3B27105  26.270  21.521   7.964
 1948POPC   C4B27106  26.227  21.590   7.664
 1949POPC   NC327107  40.765  30.704   9.464
 1949POPC   PO427108  40.829  30.741   9.164
 1949POPC   GL127109  40.798  30.715   8.864
 1949POPC   GL227110  40.688  30.615   8.864
 1949POPC   C1A27111  40.747  30.692   8.564
 1949POPC   D2A27112  40.825  30.741   8.264
 1949POPC   C3A27113  40.807  30.669   7.964
 1949POPC   C4A27114  40.760  30.741   7.664
 1949POPC   C1B27115  40.580  30.596   8.564
 1949POPC   C2B27116  40.508  30.602   8.264
 1949POPC   C3B27117  40.599  30.548   7.964
 1949POPC   C4B27118  40.547  30.631   7.664
 1950POPC   NC327119  27.597  28.321   9.464
 1950POPC   PO427120  27.600  28.403   9.164
 1950POPC   GL127121  27.640  28.403   8.864
 1950POPC   GL227122  27.735  28.363   8.864
 1950POPC   C1A27123  27.619  28.415   8.564
 1950POPC   D2A27124  27.588  28.338   8.264
 1950POPC   C3A27125  27.549  28.384   7.964
 1950POPC   C4A27126  27.589  28.396   7.664
 1950POPC   C1B27127  27.876  28.417   8.564
 1950POPC   C2B27128  27.828  28.483   8.264
 1950POPC   C3B27129  27.861  28.462   7.964
 1950POPC   C4B27130  27.786  28.442   7.664
 1951POPC   NC327131  27.548   5.087   9.464
 1951POPC   PO427132  27.573   5.088   9.164
 1951POPC   GL127133  27.567   5.065   8.864
 1951POPC   GL227134  27.726   5.080   8.864
 1951POPC   C1A27135  27.586   5.135   8.564
 1951POPC   D2A27136  27.614   5.066   8.264
 1951POPC   C3A27137  27.544   5.124   7.964
 1951POPC   C4A27138  27.562   5.141   7.664
 1951POPC   C1B27139  27.791   4.966   8.564
 1951POPC   C2B27140  27.783   5.003   8.264
 1951POPC   C3B27141  27.807   5.026   7.964
 1951POPC   C4B27142  27.832   4.980   7.664
 1952POPC   NC327143  17.470   5.861   9.464
 1952POPC   PO427144  17.515   5.892   9.164
 1952POPC   GL127145  17.506   5.854   8.864
 1952POPC   GL227146  17.381   5.931   8.864
 1952POPC   C1A27147  17.548   5.866   8.564
 1952POPC   D2A27148  17.458   5.890   8.264
 1952POPC   C3A27149  17.543   5.838   7.964
 1952POPC   C4A27150  17.554   5.820   7.664
 1952POPC   C1B27151  17.288   5.959   8.564
 1952POPC   C2B27152  17.270   5.948   8.264
 1952POPC   C3B27153  17.314   6.002   7.964
 1952POPC   C4B27154  17.237   5.968   7.664
 1953POPC   NC327155   1.962  23.755   9.464
 1953POPC   PO427156   1.957  23.693   9.164
 1953POPC   GL127157   2.008  23.681   8.864
 1953POPC   GL227158   2.120  23.778   8.864
 1953POPC   C1A27159   1.979  23.759   8.564
 1953POPC   D2A27160   2.022  23.667   8.264
 1953POPC   C3A27161   2.028  23.670   7.964
 1953POPC   C4A27162   2.006  23.700   7.664
 1953POPC   C1B27163   2.173  23.906   8.564
 1953POPC   C2B27164   2.152  23.859   8.264
 1953POPC   C3B27165   2.176  23.835   7.964
 1953POPC   C4B27166   2.202  23.874   7.664
 1954POPC   NC327167   9.785  14.376   9.464
 1954POPC   PO427168   9.733  14.423   9.164
 1954POPC   GL127169   9.753  14.449   8.864
 1954POPC   GL227170   9.776  14.528   8.864
 1954POPC   C1A27171   9.750  14.434   8.564
 1954POPC   D2A27172   9.797  14.383   8.264
 1954POPC   C3A27173   9.720  14.362   7.964
 1954POPC   C4A27174   9.730  14.373   7.664
 1954POPC   C1B27175   9.912  14.593   8.564
 1954POPC   C2B27176   9.873  14.598   8.264
 1954POPC   C3B27177   9.877  14.606   7.964
 1954POPC   C4B27178   9.870  14.620   7.664
 1955POPC   NC327179  38.481   5.876   9.464
 1955POPC   PO427180  38.470   5.912   9.164
 1955POPC   GL127181  38.492   5.829   8.864
 1955POPC   GL227182  38.590   5.867   8.864
 1955POPC   C1A27183  38.418   5.864   8.564
 1955POPC   D2A27184  38.418   5.875   8.264
 1955POPC   C3A27185  38.432   5.894   7.964
 1955POPC   C4A27186  38.491   5.887   7.664
 1955POPC   C1B27187  38.725   5.733   8.564
 1955POPC   C2B27188  38.701   5.806   8.264
 1955POPC   C3B27189  38.722   5.806   7.964
 1955POPC   C4B27190  38.729   5.749   7.664
 1956POPC   NC327191   1.174  19.819   9.464
 1956POPC   PO427192   1.232  19.785   9.164
 1956POPC   GL127193   1.257  19.870   8.864
 1956POPC   GL227194   1.208  19.916   8.864
 1956POPC   C1A27195   1.195  19.882   8.564
 1956POPC   D2A27196   1.228  19.799   8.264
 1956POPC   C3A27197   1.201  19.818   7.964
 1956POPC   C4A27198   1.185  19.815   7.664
 1956POPC   C1B27199   1.225  20.052   8.564
 1956POPC   C2B27200   1.207  20.107   8.264
 1956POPC   C3B27201   1.190  20.035   7.964
 1956POPC   C4B27202   1.226  20.091   7.664
 1957POPC   NC327203   5.057   4.295   9.464
 1957POPC   PO427204   5.070   4.299   9.164
 1957POPC   GL127205   5.118   4.286   8.864
 1957POPC   GL227206   5.053   4.416   8.864
 1957POPC   C1A27207   5.117   4.351   8.564
 1957POPC   D2A27208   5.125   4.362   8.264
 1957POPC   C3A27209   5.135   4.344   7.964
 1957POPC   C4A27210   5.045   4.299   7.664
 1957POPC   C1B27211   4.958   4.510   8.564
 1957POPC   C2B27212   4.907   4.522   8.264
 1957POPC   C3B27213   4.926   4.466   7.964
 1957POPC   C4B27214   4.898   4.547   7.664
 1958POPC   NC327215  33.783  31.481   9.464
 1958POPC   PO427216  33.838  31.440   9.164
 1958POPC   GL127217  33.827  31.514   8.864
 1958POPC   GL227218  33.685  31.535   8.864
 1958POPC   C1A27219  33.795  31.430   8.564
 1958POPC   D2A27220  33.817  31.423   8.264
 1958POPC   C3A27221  33.766  31.463   7.964
 1958POPC   C4A27222  33.834  31.494   7.664
 1958POPC   C1B27223  33.584  31.649   8.564
 1958POPC   C2B27224  33.569  31.576   8.264
 1958POPC   C3B27225  33.570  31.555   7.964
 1958POPC   C4B27226  33.588  31.558   7.664
 1959POPC   NC327227  41.510   2.801   9.464
 1959POPC   PO427228  41.567   2.718   9.164
 1959POPC   GL127229  41.553   2.805   8.864
 1959POPC   GL227230  41.687   2.791   8.864
 1959POPC   C1A27231  41.540   2.789   8.564
 1959POPC   D2A27232  41.593   2.767   8.264
 1959POPC   C3A27233  41.548   2.800   7.964
 1959POPC   C4A27234  41.532   2.808   7.664
 1959POPC   C1B27235  41.776   2.820   8.564
 1959POPC   C2B27236  41.778   2.780   8.264
 1959POPC   C3B27237  41.774   2.799   7.964
 1959POPC   C4B27238  41.813   2.772   7.664
 1960POPC   NC327239  25.280  36.884   9.464
 1960POPC   PO427240  25.292  36.906   9.164
 1960POPC   GL127241  25.276  36.907   8.864
 1960POPC   GL227242  25.350  36.847   8.864
 1960POPC   C1A27243  25.280  36.948   8.564
 1960POPC   D2A27244  25.298  36.928   8.264
 1960POPC   C3A27245  25.217  36.885   7.964
 1960POPC   C4A27246  25.240  36.909   7.664
 1960POPC   C1B27247  25.429  36.733   8.564
 1960POPC   C2B27248  25.379  36.720   8.264
 1960POPC   C3B27249  25.377  36.722   7.964
 1960POPC   C4B27250  25.389  36.757   7.664
 1961POPC   NC327251  42.331   6.668   9.464
 1961POPC   PO427252  42.339   6.688   9.164
 1961POPC   GL127253  42.374   6.635   8.864
 1961POPC   GL227254  42.391   6.574   8.864
 1961POPC   C1A27255  42.347   6.662   8.564
 1961POPC   D2A27256  42.342   6.634   8.264
 1961POPC   C3A27257  42.369   6.625   7.964
 1961POPC   C4A27258  42.352   6.644   7.664
 1961POPC   C1B27259  42.395   6.384   8.564
 1961POPC   C2B27260  42.419   6.441   8.264
 1961POPC   C3B27261  42.482   6.429   7.964
 1961POPC   C4B27262  42.450   6.410   7.664
 1962POPC   NC327263  32.227  29.187   9.464
 1962POPC   PO427264  32.245  29.143   9.164
 1962POPC   GL127265  32.217  29.174   8.864
 1962POPC   GL227266  32.133  29.261   8.864
 1962POPC   C1A27267  32.296  29.100   8.564
 1962POPC   D2A27268  32.273  29.098   8.264
 1962POPC   C3A27269  32.256  29.172   7.964
 1962POPC   C4A27270  32.296  29.146   7.664
 1962POPC   C1B27271  32.024  29.265   8.564
 1962POPC   C2B27272  32.094  29.325   8.264
 1962POPC   C3B27273  32.056  29.330   7.964
 1962POPC   C4B27274  32.023  29.299   7.664
 1963POPC   NC327275  13.598  26.863   9.464
 1963POPC   PO427276  13.640  26.775   9.164
 1963POPC   GL127277  13.650  26.835   8.864
 1963POPC   GL227278  13.734  26.686   8.864
 1963POPC   C1A27279  13.632  26.825   8.564
 1963POPC   D2A27280  13.642  26.832   8.264
 1963POPC   C3A27281  13.675  26.838   7.964
 1963POPC   C4A27282  13.587  26.813   7.664
 1963POPC   C1B27283  13.807  26.614   8.564
 1963POPC   C2B27284  13.736  26.590   8.264
 1963POPC   C3B27285  13.810  26.664   7.964
 1963POPC   C4B27286  13.724  26.654   7.664
 1964POPC   NC327287   5.141   5.897   9.464
 1964POPC   PO427288   5.127   5.857   9.164
 1964POPC   GL127289   5.074   5.840   8.864
 1964POPC   GL227290   5.159   5.750   8.864
 1964POPC   C1A27291   5.086   5.858   8.564
 1964POPC   D2A27292   5.115   5.852   8.264
 1964POPC   C3A27293   5.082   5.909   7.964
 1964POPC   C4A27294   5.075   5.876   7.664
 1964POPC   C1B27295   5.228   5.733   8.564
 1964POPC   C2B27296   5.311   5.729   8.264
 1964POPC   C3B27297   5.256   5.719   7.964
 1964POPC   C4B27298   5.230   5.695   7.664
 1965POPC   NC327299  14.365  13.661   9.464
 1965POPC   PO427300  14.384  13.668   9.164
 1965POPC   GL127301  14.373  13.619   8.864
 1965POPC   GL227302  14.516  13.712   8.864
 1965POPC   C1A27303  14.403  13.591   8.564
 1965POPC   D2A27304  14.377  13.590   8.264
 1965POPC   C3A27305  14.390  13.636   7.964
 1965POPC   C4A27306  14.398  13.632   7.664
 1965POPC   C1B27307  14.646  13.683   8.564
 1965POPC   C2B27308  14.630  13.690   8.264
 1965POPC   C3B27309  14.620  13.726   7.964
 1965POPC   C4B27310  14.685  13.740   7.664
 1966POPC   NC327311  10.553   9.726   9.464
 1966POPC   PO427312  10.490   9.797   9.164
 1966POPC   GL127313  10.567   9.723   8.864
 1966POPC   GL227314  10.558   9.646   8.864
 1966POPC   C1A27315  10.511   9.743   8.564
 1966POPC   D2A27316  10.496   9.741   8.264
 1966POPC   C3A27317  10.560   9.719   7.964
 1966POPC   C4A27318  10.535   9.737   7.664
 1966POPC   C1B27319  10.540   9.516   8.564
 1966POPC   C2B27320  10.483   9.496   8.264
 1966POPC   C3B27321  10.475   9.511   7.964
 1966POPC   C4B27322  10.569   9.493   7.664
 1967POPC   NC327323  32.288  14.428   9.464
 1967POPC   PO427324  32.273  14.441   9.164
 1967POPC   GL127325  32.222  14.431   8.864
 1967POPC   GL227326  32.129  14.371   8.864
 1967POPC   C1A27327  32.236  14.386   8.564
 1967POPC   D2A27328  32.236  14.363   8.264
 1967POPC   C3A27329  32.215  14.358   7.964
 1967POPC   C4A27330  32.237  14.423   7.664
 1967POPC   C1B27331  31.991  14.292   8.564
 1967POPC   C2B27332  32.007  14.250   8.264
 1967POPC   C3B27333  32.053  14.283   7.964
 1967POPC   C4B27334  31.994  14.255   7.664
 1968POPC   NC327335   1.187   0.457   9.464
 1968POPC   PO427336   1.172   0.476   9.164
 1968POPC   GL127337   1.213   0.436   8.864
 1968POPC   GL227338   1.305   0.501   8.864
 1968POPC   C1A27339   1.249   0.394   8.564
 1968POPC   D2A27340   1.187   0.424   8.264
 1968POPC   C3A27341   1.251   0.455   7.964
 1968POPC   C4A27342   1.197   0.406   7.664
 1968POPC   C1B27343   1.422   0.507   8.564
 1968POPC   C2B27344   1.428   0.519   8.264
 1968POPC   C3B27345   1.478   0.487   7.964
 1968POPC   C4B27346   1.451   0.449   7.664
 1969POPC   NC327347  17.554  43.853   9.464
 1969POPC   PO427348  17.557  43.890   9.164
 1969POPC   GL127349  17.515  43.866   8.864
 1969POPC   GL227350  17.628  44.023   8.864
 1969POPC   C1A27351  17.523  43.887   8.564
 1969POPC   D2A27352  17.501  43.859   8.264
 1969POPC   C3A27353  17.514  43.862   7.964
 1969POPC   C4A27354  17.465  43.897   7.664
 1969POPC   C1B27355  17.690  44.041   8.564
 1969POPC   C2B27356  17.673  44.066   8.264
 1969POPC   C3B27357  17.691  44.058   7.964
 1969POPC   C4B27358  17.718  44.034   7.664
 1970POPC   NC327359  14.435  32.286   9.464
 1970POPC   PO427360  14.453  32.246   9.164
 1970POPC   GL127361  14.404  32.246   8.864
 1970POPC   GL227362  14.472  32.320   8.864
 1970POPC   C1A27363  14.398  32.288   8.564
 1970POPC   D2A27364  14.367  32.257   8.264
 1970POPC   C3A27365  14.375  32.284   7.964
 1970POPC   C4A27366  14.374  32.223   7.664
 1970POPC   C1B27367  14.608  32.388   8.564
 1970POPC   C2B27368  14.629  32.386   8.264
 1970POPC   C3B27369  14.597  32.335   7.964
 1970POPC   C4B27370  14.671  32.304   7.664
 1971POPC   NC327371  17.548  19.055   9.464
 1971POPC   PO427372  17.538  19.020   9.164
 1971POPC   GL127373  17.468  19.090   8.864
 1971POPC   GL227374  17.584  19.077   8.864
 1971POPC   C1A27375  17.556  19.102   8.564
 1971POPC   D2A27376  17.485  19.010   8.264
 1971POPC   C3A27377  17.532  19.092   7.964
 1971POPC   C4A27378  17.490  19.041   7.664
 1971POPC   C1B27379  17.713  19.003   8.564
 1971POPC   C2B27380  17.717  19.002   8.264
 1971POPC   C3B27381  17.791  19.018   7.964
 1971POPC   C4B27382  17.707  19.033   7.664
 1972POPC   NC327383  29.906  12.079   9.464
 1972POPC   PO427384  29.897  12.051   9.164
 1972POPC   GL127385  29.912  12.074   8.864
 1972POPC   GL227386  29.940  12.202   8.864
 1972POPC   C1A27387  29.901  12.079   8.564
 1972POPC   D2A27388  29.962  12.118   8.264
 1972POPC   C3A27389  29.958  12.038   7.964
 1972POPC   C4A27390  29.882  12.115   7.664
 1972POPC   C1B27391  29.927  12.285   8.564
 1972POPC   C2B27392  29.959  12.326   8.264
 1972POPC   C3B27393  29.925  12.320   7.964
 1972POPC   C4B27394  29.882  12.315   7.664
 1973POPC   NC327395  25.312  14.394   9.464
 1973POPC   PO427396  25.278  14.378   9.164
 1973POPC   GL127397  25.259  14.389   8.864
 1973POPC   GL227398  25.396  14.436   8.864
 1973POPC   C1A27399  25.293  14.419   8.564
 1973POPC   D2A27400  25.268  14.355   8.264
 1973POPC   C3A27401  25.237  14.382   7.964
 1973POPC   C4A27402  25.298  14.368   7.664
 1973POPC   C1B27403  25.548  14.414   8.564
 1973POPC   C2B27404  25.523  14.363   8.264
 1973POPC   C3B27405  25.472  14.368   7.964
 1973POPC   C4B27406  25.509  14.409   7.664
 1974POPC   NC327407  44.700  39.280   9.464
 1974POPC   PO427408  44.630  39.254   9.164
 1974POPC   GL127409  44.645  39.246   8.864
 1974POPC   GL227410  44.541  39.229   8.864
 1974POPC   C1A27411  44.619  39.190   8.564
 1974POPC   D2A27412  44.618  39.200   8.264
 1974POPC   C3A27413  44.703  39.236   7.964
 1974POPC   C4A27414  44.683  39.212   7.664
 1974POPC   C1B27415  44.372  39.209   8.564
 1974POPC   C2B27416  44.455  39.210   8.264
 1974POPC   C3B27417  44.435  39.249   7.964
 1974POPC   C4B27418  44.391  39.210   7.664
 1975POPC   NC327419  40.775  12.858   9.464
 1975POPC   PO427420  40.773  12.810   9.164
 1975POPC   GL127421  40.753  12.892   8.864
 1975POPC   GL227422  40.669  12.887   8.864
 1975POPC   C1A27423  40.789  12.818   8.564
 1975POPC   D2A27424  40.771  12.884   8.264
 1975POPC   C3A27425  40.780  12.810   7.964
 1975POPC   C4A27426  40.795  12.893   7.664
 1975POPC   C1B27427  40.581  12.919   8.564
 1975POPC   C2B27428  40.566  12.934   8.264
 1975POPC   C3B27429  40.562  12.923   7.964
 1975POPC   C4B27430  40.524  12.998   7.664
 1976POPC   NC327431  29.164  44.698   9.464
 1976POPC   PO427432  29.143  44.626   9.164
 1976POPC   GL127433  29.111  44.621   8.864
 1976POPC   GL227434  29.203  44.559   8.864
 1976POPC   C1A27435  29.193  44.660   8.564
 1976POPC   D2A27436  29.116  44.680   8.264
 1976POPC   C3A27437  29.133  44.656   7.964
 1976POPC   C4A27438  29.110  44.681   7.664
 1976POPC   C1B27439  29.315  44.434   8.564
 1976POPC   C2B27440  29.327  44.449   8.264
 1976POPC   C3B27441  29.306  44.438   7.964
 1976POPC   C4B27442  29.312  44.466   7.664
 1977POPC   NC327443  26.030  43.156   9.464
 1977POPC   PO427444  26.051  43.121   9.164
 1977POPC   GL127445  26.080  43.074   8.864
 1977POPC   GL227446  25.990  43.065   8.864
 1977POPC   C1A27447  26.054  43.121   8.564
 1977POPC   D2A27448  26.002  43.067   8.264
 1977POPC   C3A27449  26.038  43.086   7.964
 1977POPC   C4A27450  26.055  43.084   7.664
 1977POPC   C1B27451  25.834  42.940   8.564
 1977POPC   C2B27452  25.889  42.949   8.264
 1977POPC   C3B27453  25.863  42.921   7.964
 1977POPC   C4B27454  25.880  42.945   7.664
 1978POPC   NC327455  16.720  43.134   9.464
 1978POPC   PO427456  16.698  43.117   9.164
 1978POPC   GL127457  16.746  43.112   8.864
 1978POPC   GL227458  16.734  43.231   8.864
 1978POPC   C1A27459  16.737  43.066   8.564
 1978POPC   D2A27460  16.739  43.140   8.264
 1978POPC   C3A27461  16.682  43.142   7.964
 1978POPC   C4A27462  16.753  43.137   7.664
 1978POPC   C1B27463  16.765  43.324   8.564
 1978POPC   C2B27464  16.837  43.309   8.264
 1978POPC   C3B27465  16.802  43.372   7.964
 1978POPC   C4B27466  16.829  43.366   7.664
 1979POPC   NC327467  38.443  41.567   9.464
 1979POPC   PO427468  38.456  41.585   9.164
 1979POPC   GL127469  38.491  41.519   8.864
 1979POPC   GL227470  38.357  41.606   8.864
 1979POPC   C1A27471  38.498  41.565   8.564
 1979POPC   D2A27472  38.465  41.533   8.264
 1979POPC   C3A27473  38.428  41.585   7.964
 1979POPC   C4A27474  38.425  41.552   7.664
 1979POPC   C1B27475  38.214  41.555   8.564
 1979POPC   C2B27476  38.190  41.547   8.264
 1979POPC   C3B27477  38.229  41.644   7.964
 1979POPC   C4B27478  38.181  41.638   7.664
 1980POPC   NC327479  19.076  33.817   9.464
 1980POPC   PO427480  19.058  33.753   9.164
 1980POPC   GL127481  19.052  33.811   8.864
 1980POPC   GL227482  18.967  33.727   8.864
 1980POPC   C1A27483  19.076  33.824   8.564
 1980POPC   D2A27484  19.034  33.785   8.264
 1980POPC   C3A27485  19.088  33.753   7.964
 1980POPC   C4A27486  19.012  33.775   7.664
 1980POPC   C1B27487  18.913  33.601   8.564
 1980POPC   C2B27488  18.897  33.633   8.264
 1980POPC   C3B27489  18.941  33.627   7.964
 1980POPC   C4B27490  18.887  33.550   7.664
 1981POPC   NC327491  36.922   0.415   9.464
 1981POPC   PO427492  36.897   0.463   9.164
 1981POPC   GL127493  36.880   0.474   8.864
 1981POPC   GL227494  37.042   0.376   8.864
 1981POPC   C1A27495  36.903   0.428   8.564
 1981POPC   D2A27496  36.867   0.445   8.264
 1981POPC   C3A27497  36.865   0.415   7.964
 1981POPC   C4A27498  36.920   0.450   7.664
 1981POPC   C1B27499  37.102   0.327   8.564
 1981POPC   C2B27500  37.111   0.377   8.264
 1981POPC   C3B27501  37.118   0.320   7.964
 1981POPC   C4B27502  37.121   0.381   7.664
 1982POPC   NC327503   9.771  43.125   9.464
 1982POPC   PO427504   9.789  43.127   9.164
 1982POPC   GL127505   9.741  43.077   8.864
 1982POPC   GL227506   9.809  43.010   8.864
 1982POPC   C1A27507   9.793  43.114   8.564
 1982POPC   D2A27508   9.733  43.154   8.264
 1982POPC   C3A27509   9.745  43.079   7.964
 1982POPC   C4A27510   9.715  43.078   7.664
 1982POPC   C1B27511   9.831  42.856   8.564
 1982POPC   C2B27512   9.904  42.835   8.264
 1982POPC   C3B27513   9.895  42.901   7.964
 1982POPC   C4B27514   9.839  42.915   7.664
 1983POPC   NC327515  34.617  44.694   9.464
 1983POPC   PO427516  34.613  44.692   9.164
 1983POPC   GL127517  34.539  44.638   8.864
 1983POPC   GL227518  34.567  44.817   8.864
 1983POPC   C1A27519  34.565  44.712   8.564
 1983POPC   D2A27520  34.593  44.664   8.264
 1983POPC   C3A27521  34.563  44.704   7.964
 1983POPC   C4A27522  34.549  44.645   7.664
 1983POPC   C1B27523  34.611  44.915   8.564
 1983POPC   C2B27524  34.583  44.861   8.264
 1983POPC   C3B27525  34.573  44.912   7.964
 1983POPC   C4B27526  34.582  44.904   7.664
 1984POPC   NC327527   8.236  17.556   9.464
 1984POPC   PO427528   8.226  17.521   9.164
 1984POPC   GL127529   8.213  17.497   8.864
 1984POPC   GL227530   8.135  17.570   8.864
 1984POPC   C1A27531   8.170  17.538   8.564
 1984POPC   D2A27532   8.232  17.547   8.264
 1984POPC   C3A27533   8.150  17.459   7.964
 1984POPC   C4A27534   8.217  17.543   7.664
 1984POPC   C1B27535   8.019  17.746   8.564
 1984POPC   C2B27536   8.057  17.729   8.264
 1984POPC   C3B27537   8.036  17.719   7.964
 1984POPC   C4B27538   8.010  17.706   7.664
 1985POPC   NC327539   0.470  17.496   9.464
 1985POPC   PO427540   0.446  17.463   9.164
 1985POPC   GL127541   0.397  17.497   8.864
 1985POPC   GL227542   0.406  17.345   8.864
 1985POPC   C1A27543   0.488  17.512   8.564
 1985POPC   D2A27544   0.453  17.506   8.264
 1985POPC   C3A27545   0.395  17.462   7.964
 1985POPC   C4A27546   0.448  17.489   7.664
 1985POPC   C1B27547   0.427  17.289   8.564
 1985POPC   C2B27548   0.482  17.219   8.264
 1985POPC   C3B27549   0.460  17.277   7.964
 1985POPC   C4B27550   0.456  17.260   7.664
 1986POPC   NC327551   4.349  39.190   9.464
 1986POPC   PO427552   4.350  39.268   9.164
 1986POPC   GL127553   4.326  39.256   8.864
 1986POPC   GL227554   4.351  39.355   8.864
 1986POPC   C1A27555   4.272  39.209   8.564
 1986POPC   D2A27556   4.326  39.199   8.264
 1986POPC   C3A27557   4.288  39.208   7.964
 1986POPC   C4A27558   4.293  39.224   7.664
 1986POPC   C1B27559   4.506  39.378   8.564
 1986POPC   C2B27560   4.529  39.378   8.264
 1986POPC   C3B27561   4.507  39.381   7.964
 1986POPC   C4B27562   4.495  39.467   7.664
 1987POPC   NC327563   3.529   9.000   9.464
 1987POPC   PO427564   3.584   8.959   9.164
 1987POPC   GL127565   3.511   9.018   8.864
 1987POPC   GL227566   3.631   8.905   8.864
 1987POPC   C1A27567   3.578   8.979   8.564
 1987POPC   D2A27568   3.556   8.974   8.264
 1987POPC   C3A27569   3.566   8.946   7.964
 1987POPC   C4A27570   3.549   9.011   7.664
 1987POPC   C1B27571   3.582   8.765   8.564
 1987POPC   C2B27572   3.619   8.716   8.264
 1987POPC   C3B27573   3.641   8.688   7.964
 1987POPC   C4B27574   3.608   8.774   7.664
 1988POPC   NC327575  10.533  15.987   9.464
 1988POPC   PO427576  10.553  15.921   9.164
 1988POPC   GL127577  10.493  15.993   8.864
 1988POPC   GL227578  10.491  15.808   8.864
 1988POPC   C1A27579  10.490  15.976   8.564
 1988POPC   D2A27580  10.499  15.979   8.264
 1988POPC   C3A27581  10.572  15.918   7.964
 1988POPC   C4A27582  10.560  15.910   7.664
 1988POPC   C1B27583  10.519  15.655   8.564
 1988POPC   C2B27584  10.506  15.741   8.264
 1988POPC   C3B27585  10.580  15.724   7.964
 1988POPC   C4B27586  10.577  15.741   7.664
 1989POPC   NC327587  32.297  27.583   9.464
 1989POPC   PO427588  32.262  27.605   9.164
 1989POPC   GL127589  32.219  27.553   8.864
 1989POPC   GL227590  32.315  27.427   8.864
 1989POPC   C1A27591  32.246  27.577   8.564
 1989POPC   D2A27592  32.217  27.551   8.264
 1989POPC   C3A27593  32.237  27.606   7.964
 1989POPC   C4A27594  32.213  27.598   7.664
 1989POPC   C1B27595  32.327  27.333   8.564
 1989POPC   C2B27596  32.307  27.324   8.264
 1989POPC   C3B27597  32.317  27.392   7.964
 1989POPC   C4B27598  32.308  27.370   7.664
 1990POPC   NC327599  12.080  42.383   9.464
 1990POPC   PO427600  12.051  42.336   9.164
 1990POPC   GL127601  12.040  42.312   8.864
 1990POPC   GL227602  12.061  42.407   8.864
 1990POPC   C1A27603  12.063  42.342   8.564
 1990POPC   D2A27604  12.080  42.361   8.264
 1990POPC   C3A27605  12.068  42.291   7.964
 1990POPC   C4A27606  12.051  42.366   7.664
 1990POPC   C1B27607  12.097  42.573   8.564
 1990POPC   C2B27608  12.127  42.604   8.264
 1990POPC   C3B27609  12.101  42.535   7.964
 1990POPC   C4B27610  12.118  42.612   7.664
 1991POPC   NC327611  37.712  15.229   9.464
 1991POPC   PO427612  37.710  15.132   9.164
 1991POPC   GL127613  37.664  15.178   8.864
 1991POPC   GL227614  37.646  15.056   8.864
 1991POPC   C1A27615  37.660  15.219   8.564
 1991POPC   D2A27616  37.665  15.180   8.264
 1991POPC   C3A27617  37.657  15.202   7.964
 1991POPC   C4A27618  37.705  15.168   7.664
 1991POPC   C1B27619  37.572  14.957   8.564
 1991POPC   C2B27620  37.628  14.938   8.264
 1991POPC   C3B27621  37.594  14.944   7.964
 1991POPC   C4B27622  37.572  14.913   7.664
 1992POPC   NC327623  28.359  16.686   9.464
 1992POPC   PO427624  28.412  16.772   9.164
 1992POPC   GL127625  28.369  16.739   8.864
 1992POPC   GL227626  28.467  16.731   8.864
 1992POPC   C1A27627  28.418  16.760   8.564
 1992POPC   D2A27628  28.416  16.766   8.264
 1992POPC   C3A27629  28.328  16.767   7.964
 1992POPC   C4A27630  28.356  16.775   7.664
 1992POPC   C1B27631  28.569  16.793   8.564
 1992POPC   C2B27632  28.650  16.826   8.264
 1992POPC   C3B27633  28.571  16.740   7.964
 1992POPC   C4B27634  28.611  16.767   7.664
 1993POPC   NC327635  26.844   0.408   9.464
 1993POPC   PO427636  26.789   0.400   9.164
 1993POPC   GL127637  26.840   0.430   8.864
 1993POPC   GL227638  26.694   0.371   8.864
 1993POPC   C1A27639  26.866   0.398   8.564
 1993POPC   D2A27640  26.823   0.449   8.264
 1993POPC   C3A27641  26.861   0.461   7.964
 1993POPC   C4A27642  26.784   0.428   7.664
 1993POPC   C1B27643  26.605   0.375   8.564
 1993POPC   C2B27644  26.594   0.379   8.264
 1993POPC   C3B27645  26.641   0.379   7.964
 1993POPC   C4B27646  26.618   0.304   7.664
 1994POPC   NC327647  41.553   8.201   9.464
 1994POPC   PO427648  41.534   8.227   9.164
 1994POPC   GL127649  41.558   8.147   8.864
 1994POPC   GL227650  41.636   8.234   8.864
 1994POPC   C1A27651  41.603   8.166   8.564
 1994POPC   D2A27652  41.573   8.206   8.264
 1994POPC   C3A27653  41.565   8.202   7.964
 1994POPC   C4A27654  41.545   8.163   7.664
 1994POPC   C1B27655  41.760   8.339   8.564
 1994POPC   C2B27656  41.801   8.319   8.264
 1994POPC   C3B27657  41.809   8.303   7.964
 1994POPC   C4B27658  41.802   8.300   7.664
 1995POPC   NC327659  29.135   2.020   9.464
 1995POPC   PO427660  29.167   2.014   9.164
 1995POPC   GL127661  29.147   1.972   8.864
 1995POPC   GL227662  29.161   1.902   8.864
 1995POPC   C1A27663  29.189   1.940   8.564
 1995POPC   D2A27664  29.103   1.973   8.264
 1995POPC   C3A27665  29.156   2.028   7.964
 1995POPC   C4A27666  29.141   1.994   7.664
 1995POPC   C1B27667  29.241   1.801   8.564
 1995POPC   C2B27668  29.188   1.721   8.264
 1995POPC   C3B27669  29.274   1.756   7.964
 1995POPC   C4B27670  29.276   1.772   7.664
 1996POPC   NC327671   5.869  22.127   9.464
 1996POPC   PO427672   5.878  22.173   9.164
 1996POPC   GL127673   5.861  22.119   8.864
 1996POPC   GL227674   5.905  22.321   8.864
 1996POPC   C1A27675   5.868  22.157   8.564
 1996POPC   D2A27676   5.896  22.123   8.264
 1996POPC   C3A27677   5.912  22.173   7.964
 1996POPC   C4A27678   5.848  22.129   7.664
 1996POPC   C1B27679   5.960  22.429   8.564
 1996POPC   C2B27680   5.978  22.445   8.264
 1996POPC   C3B27681   5.971  22.431   7.964
 1996POPC   C4B27682   5.916  22.423   7.664
 1997POPC   NC327683  25.263   0.452   9.464
 1997POPC   PO427684  25.278   0.457   9.164
 1997POPC   GL127685  25.278   0.449   8.864
 1997POPC   GL227686  25.360   0.324   8.864
 1997POPC   C1A27687  25.245   0.454   8.564
 1997POPC   D2A27688  25.271   0.465   8.264
 1997POPC   C3A27689  25.267   0.424   7.964
 1997POPC   C4A27690  25.295   0.442   7.664
 1997POPC   C1B27691  25.479   0.290   8.564
 1997POPC   C2B27692  25.448   0.308   8.264
 1997POPC   C3B27693  25.501   0.341   7.964
 1997POPC   C4B27694  25.449   0.277   7.664
 1998POPC   NC327695  19.818  42.311   9.464
 1998POPC   PO427696  19.790  42.378   9.164
 1998POPC   GL127697  19.815  42.370   8.864
 1998POPC   GL227698  19.722  42.263   8.864
 1998POPC   C1A27699  19.821  42.380   8.564
 1998POPC   D2A27700  19.840  42.383   8.264
 1998POPC   C3A27701  19.811  42.362   7.964
 1998POPC   C4A27702  19.822  42.362   7.664
 1998POPC   C1B27703  19.618  42.205   8.564
 1998POPC   C2B27704  19.622  42.202   8.264
 1998POPC   C3B27705  19.605  42.183   7.964
 1998POPC   C4B27706  19.619  42.191   7.664
 1999POPC   NC327707  16.751  33.771   9.464
 1999POPC   PO427708  16.770  33.760   9.164
 1999POPC   GL127709  16.704  33.828   8.864
 1999POPC   GL227710  16.599  33.702   8.864
 1999POPC   C1A27711  16.738  33.763   8.564
 1999POPC   D2A27712  16.744  33.811   8.264
 1999POPC   C3A27713  16.713  33.797   7.964
 1999POPC   C4A27714  16.721  33.818   7.664
 1999POPC   C1B27715  16.511  33.617   8.564
 1999POPC   C2B27716  16.563  33.703   8.264
 1999POPC   C3B27717  16.547  33.706   7.964
 1999POPC   C4B27718  16.532  33.620   7.664
 2000POPC   NC327719  34.549  29.901   9.464
 2000POPC   PO427720  34.614  29.928   9.164
 2000POPC   GL127721  34.620  29.948   8.864
 2000POPC   GL227722  34.666  29.926   8.864
 2000POPC   C1A27723  34.590  29.896   8.564
 2000POPC   D2A27724  34.547  29.959   8.264
 2000POPC   C3A27725  34.541  29.893   7.964
 2000POPC   C4A27726  34.545  29.949   7.664
 2000POPC   C1B27727  34.754  30.020   8.564
 2000POPC   C2B27728  34.826  29.977   8.264
 2000POPC   C3B27729  34.833  29.990   7.964
 2000POPC   C4B27730  34.813  30.061   7.664
 2001POPC   NC327731  33.022  44.674   9.464
 2001POPC   PO427732  33.024  44.649   9.164
 2001POPC   GL127733  33.000  44.656   8.864
 2001POPC   GL227734  32.927  44.737   8.864
 2001POPC   C1A27735  33.067  44.660   8.564
 2001POPC   D2A27736  33.029  44.615   8.264
 2001POPC   C3A27737  33.051  44.667   7.964
 2001POPC   C4A27738  33.058  44.659   7.664
 2001POPC   C1B27739  32.867  44.918   8.564
 2001POPC   C2B27740  32.931  44.850   8.264
 2001POPC   C3B27741  32.889  44.846   7.964
 2001POPC   C4B27742  32.954  44.932   7.664
 2002POPC   NC327743  12.896  10.491   9.464
 2002POPC   PO427744  12.845  10.547   9.164
 2002POPC   GL127745  12.882  10.478   8.864
 2002POPC   GL227746  12.772  10.512   8.864
 2002POPC   C1A27747  12.889  10.523   8.564
 2002POPC   D2A27748  12.875  10.515   8.264
 2002POPC   C3A27749  12.841  10.568   7.964
 2002POPC   C4A27750  12.868  10.515   7.664
 2002POPC   C1B27751  12.588  10.445   8.564
 2002POPC   C2B27752  12.567  10.492   8.264
 2002POPC   C3B27753  12.604  10.522   7.964
 2002POPC   C4B27754  12.609  10.435   7.664
 2003POPC   NC327755  29.891   4.366   9.464
 2003POPC   PO427756  29.955   4.336   9.164
 2003POPC   GL127757  29.912   4.280   8.864
 2003POPC   GL227758  30.059   4.365   8.864
 2003POPC   C1A27759  29.945   4.291   8.564
 2003POPC   D2A27760  29.924   4.295   8.264
 2003POPC   C3A27761  29.879   4.318   7.964
 2003POPC   C4A27762  29.936   4.277   7.664
 2003POPC   C1B27763  30.186   4.459   8.564
 2003POPC   C2B27764  30.143   4.421   8.264
 2003POPC   C3B27765  30.122   4.462   7.964
 2003POPC   C4B27766  30.156   4.441   7.664
 2004POPC   NC327767  43.913  37.726   9.464
 2004POPC   PO427768  43.922  37.672   9.164
 2004POPC   GL127769  43.872  37.651   8.864
 2004POPC   GL227770  43.782  37.775   8.864
 2004POPC   C1A27771  43.852  37.656   8.564
 2004POPC   D2A27772  43.901  37.681   8.264
 2004POPC   C3A27773  43.918  37.631   7.964
 2004POPC   C4A27774  43.895  37.653   7.664
 2004POPC   C1B27775  43.733  37.873   8.564
 2004POPC   C2B27776  43.773  37.897   8.264
 2004POPC   C3B27777  43.782  37.850   7.964
 2004POPC   C4B27778  43.738  37.839   7.664
 2005POPC   NC327779  21.396  12.026   9.464
 2005POPC   PO427780  21.434  12.108   9.164
 2005POPC   GL127781  21.347  12.124   8.864
 2005POPC   GL227782  21.298  12.161   8.864
 2005POPC   C1A27783  21.402  12.099   8.564
 2005POPC   D2A27784  21.364  12.123   8.264
 2005POPC   C3A27785  21.368  12.027   7.964
 2005POPC   C4A27786  21.410  12.038   7.664
 2005POPC   C1B27787  21.278  12.273   8.564
 2005POPC   C2B27788  21.212  12.260   8.264
 2005POPC   C3B27789  21.210  12.328   7.964
 2005POPC   C4B27790  21.237  12.328   7.664
 2006POPC   NC327791  13.677  43.907   9.464
 2006POPC   PO427792  13.617  43.874   9.164
 2006POPC   GL127793  13.608  43.890   8.864
 2006POPC   GL227794  13.638  43.982   8.864
 2006POPC   C1A27795  13.623  43.846   8.564
 2006POPC   D2A27796  13.648  43.853   8.264
 2006POPC   C3A27797  13.578  43.853   7.964
 2006POPC   C4A27798  13.649  43.857   7.664
 2006POPC   C1B27799  13.655  44.121   8.564
 2006POPC   C2B27800  13.716  44.133   8.264
 2006POPC   C3B27801  13.704  44.131   7.964
 2006POPC   C4B27802  13.671  44.145   7.664
 2007POPC   NC327803  19.049  38.477   9.464
 2007POPC   PO427804  19.055  38.487   9.164
 2007POPC   GL127805  19.033  38.451   8.864
 2007POPC   GL227806  19.216  38.407   8.864
 2007POPC   C1A27807  19.070  38.498   8.564
 2007POPC   D2A27808  19.078  38.496   8.264
 2007POPC   C3A27809  19.099  38.412   7.964
 2007POPC   C4A27810  19.095  38.482   7.664
 2007POPC   C1B27811  19.299  38.424   8.564
 2007POPC   C2B27812  19.339  38.414   8.264
 2007POPC   C3B27813  19.297  38.388   7.964
 2007POPC   C4B27814  19.343  38.405   7.664
 2008POPC   NC327815  15.166  40.832   9.464
 2008POPC   PO427816  15.180  40.813   9.164
 2008POPC   GL127817  15.214  40.780   8.864
 2008POPC   GL227818  15.055  40.906   8.864
 2008POPC   C1A27819  15.203  40.819   8.564
 2008POPC   D2A27820  15.167  40.779   8.264
 2008POPC   C3A27821  15.209  40.793   7.964
 2008POPC   C4A27822  15.176  40.737   7.664
 2008POPC   C1B27823  14.995  40.948   8.564
 2008POPC   C2B27824  14.955  40.992   8.264
 2008POPC   C3B27825  14.955  40.980   7.964
 2008POPC   C4B27826  15.027  40.927   7.664
 2009POPC   NC327827   5.074  21.375   9.464
 2009POPC   PO427828   5.128  21.400   9.164
 2009POPC   GL127829   5.073  21.393   8.864
 2009POPC   GL227830   4.950  21.340   8.864
 2009POPC   C1A27831   5.129  21.431   8.564
 2009POPC   D2A27832   5.113  21.400   8.264
 2009POPC   C3A27833   5.044  21.364   7.964
 2009POPC   C4A27834   5.085  21.352   7.664
 2009POPC   C1B27835   4.831  21.325   8.564
 2009POPC   C2B27836   4.883  21.332   8.264
 2009POPC   C3B27837   4.823  21.331   7.964
 2009POPC   C4B27838   4.873  21.258   7.664
 2010POPC   NC327839   5.875   0.439   9.464
 2010POPC   PO427840   5.825   0.401   9.164
 2010POPC   GL127841   5.854   0.442   8.864
 2010POPC   GL227842   5.887   0.361   8.864
 2010POPC   C1A27843   5.888   0.457   8.564
 2010POPC   D2A27844   5.857   0.409   8.264
 2010POPC   C3A27845   5.844   0.476   7.964
 2010POPC   C4A27846   5.837   0.393   7.664
 2010POPC   C1B27847   5.939   0.176   8.564
 2010POPC   C2B27848   5.869   0.221   8.264
 2010POPC   C3B27849   5.906   0.217   7.964
 2010POPC   C4B27850   5.877   0.233   7.664
 2011POPC   NC327851  26.018   8.986   9.464
 2011POPC   PO427852  26.067   9.014   9.164
 2011POPC   GL127853  26.080   9.017   8.864
 2011POPC   GL227854  25.991   9.062   8.864
 2011POPC   C1A27855  26.023   8.944   8.564
 2011POPC   D2A27856  26.067   8.964   8.264
 2011POPC   C3A27857  26.066   9.016   7.964
 2011POPC   C4A27858  26.062   8.989   7.664
 2011POPC   C1B27859  25.845   9.175   8.564
 2011POPC   C2B27860  25.881   9.140   8.264
 2011POPC   C3B27861  25.816   9.111   7.964
 2011POPC   C4B27862  25.800   9.122   7.664
 2012POPC   NC327863  12.091  38.491   9.464
 2012POPC   PO427864  12.118  38.411   9.164
 2012POPC   GL127865  12.100  38.457   8.864
 2012POPC   GL227866  12.006  38.562   8.864
 2012POPC   C1A27867  12.073  38.445   8.564
 2012POPC   D2A27868  12.079  38.441   8.264
 2012POPC   C3A27869  12.123  38.489   7.964
 2012POPC   C4A27870  12.048  38.459   7.664
 2012POPC   C1B27871  11.909  38.628   8.564
 2012POPC   C2B27872  11.868  38.624   8.264
 2012POPC   C3B27873  11.905  38.644   7.964
 2012POPC   C4B27874  11.876  38.600   7.664
 2013POPC   NC327875   0.398  29.942   9.464
 2013POPC   PO427876   0.486  29.875   9.164
 2013POPC   GL127877   0.438  29.876   8.864
 2013POPC   GL227878   0.456  30.053   8.864
 2013POPC   C1A27879   0.441  29.966   8.564
 2013POPC   D2A27880   0.462  29.882   8.264
 2013POPC   C3A27881   0.391  29.905   7.964
 2013POPC   C4A27882   0.488  29.898   7.664
 2013POPC   C1B27883   0.506  30.120   8.564
 2013POPC   C2B27884   0.503  30.149   8.264
 2013POPC   C3B27885   0.527  30.150   7.964
 2013POPC   C4B27886   0.564  30.186   7.664
 2014POPC   NC327887   1.959  12.096   9.464
 2014POPC   PO427888   1.951  12.107   9.164
 2014POPC   GL127889   2.032  12.123   8.864
 2014POPC   GL227890   2.069  12.015   8.864
 2014POPC   C1A27891   1.973  12.088   8.564
 2014POPC   D2A27892   2.034  12.097   8.264
 2014POPC   C3A27893   1.958  12.037   7.964
 2014POPC   C4A27894   1.999  12.090   7.664
 2014POPC   C1B27895   2.120  11.862   8.564
 2014POPC   C2B27896   2.132  11.917   8.264
 2014POPC   C3B27897   2.173  11.947   7.964
 2014POPC   C4B27898   2.132  11.934   7.664
 2015POPC   NC327899   2.729  19.072   9.464
 2015POPC   PO427900   2.786  19.054   9.164
 2015POPC   GL127901   2.780  19.087   8.864
 2015POPC   GL227902   2.604  19.078   8.864
 2015POPC   C1A27903   2.764  19.048   8.564
 2015POPC   D2A27904   2.799  19.067   8.264
 2015POPC   C3A27905   2.781  19.093   7.964
 2015POPC   C4A27906   2.807  19.063   7.664
 2015POPC   C1B27907   2.502  19.032   8.564
 2015POPC   C2B27908   2.540  19.039   8.264
 2015POPC   C3B27909   2.540  19.040   7.964
 2015POPC   C4B27910   2.518  19.022   7.664
 2016POPC   NC327911   2.788  19.800   9.464
 2016POPC   PO427912   2.769  19.785   9.164
 2016POPC   GL127913   2.771  19.827   8.864
 2016POPC   GL227914   2.819  19.926   8.864
 2016POPC   C1A27915   2.724  19.870   8.564
 2016POPC   D2A27916   2.808  19.826   8.264
 2016POPC   C3A27917   2.800  19.850   7.964
 2016POPC   C4A27918   2.743  19.861   7.664
 2016POPC   C1B27919   2.769  20.116   8.564
 2016POPC   C2B27920   2.760  20.129   8.264
 2016POPC   C3B27921   2.778  20.131   7.964
 2016POPC   C4B27922   2.840  20.056   7.664
 2017POPC   NC327923  15.198  29.173   9.464
 2017POPC   PO427924  15.225  29.141   9.164
 2017POPC   GL127925  15.172  29.138   8.864
 2017POPC   GL227926  15.040  29.198   8.864
 2017POPC   C1A27927  15.172  29.189   8.564
 2017POPC   D2A27928  15.213  29.132   8.264
 2017POPC   C3A27929  15.139  29.178   7.964
 2017POPC   C4A27930  15.142  29.154   7.664
 2017POPC   C1B27931  14.922  29.160   8.564
 2017POPC   C2B27932  14.904  29.168   8.264
 2017POPC   C3B27933  14.963  29.146   7.964
 2017POPC   C4B27934  14.926  29.226   7.664
 2018POPC   NC327935  35.372  35.365   9.464
 2018POPC   PO427936  35.310  35.323   9.164
 2018POPC   GL127937  35.373  35.310   8.864
 2018POPC   GL227938  35.226  35.440   8.864
 2018POPC   C1A27939  35.332  35.365   8.564
 2018POPC   D2A27940  35.345  35.388   8.264
 2018POPC   C3A27941  35.378  35.360   7.964
 2018POPC   C4A27942  35.332  35.380   7.664
 2018POPC   C1B27943  35.105  35.496   8.564
 2018POPC   C2B27944  35.164  35.485   8.264
 2018POPC   C3B27945  35.117  35.495   7.964
 2018POPC   C4B27946  35.125  35.475   7.664
 2019POPC   NC327947   5.846  10.513   9.464
 2019POPC   PO427948   5.864  10.502   9.164
 2019POPC   GL127949   5.911  10.569   8.864
 2019POPC   GL227950   5.808  10.456   8.864
 2019POPC   C1A27951   5.879  10.508   8.564
 2019POPC   D2A27952   5.852  10.482   8.264
 2019POPC   C3A27953   5.889  10.497   7.964
 2019POPC   C4A27954   5.869  10.489   7.664
 2019POPC   C1B27955   5.679  10.373   8.564
 2019POPC   C2B27956   5.722  10.327   8.264
 2019POPC   C3B27957   5.678  10.318   7.964
 2019POPC   C4B27958   5.710  10.348   7.664
 2020POPC   NC327959  15.927   5.903   9.464
 2020POPC   PO427960  15.964   5.821   9.164
 2020POPC   GL127961  15.996   5.897   8.864
 2020POPC   GL227962  16.084   5.831   8.864
 2020POPC   C1A27963  15.967   5.847   8.564
 2020POPC   D2A27964  15.990   5.866   8.264
 2020POPC   C3A27965  16.001   5.914   7.964
 2020POPC   C4A27966  15.992   5.901   7.664
 2020POPC   C1B27967  16.224   5.891   8.564
 2020POPC   C2B27968  16.156   5.829   8.264
 2020POPC   C3B27969  16.169   5.893   7.964
 2020POPC   C4B27970  16.171   5.825   7.664
 2021POPC   NC327971  15.192  26.050   9.464
 2021POPC   PO427972  15.178  26.052   9.164
 2021POPC   GL127973  15.164  26.069   8.864
 2021POPC   GL227974  15.058  26.077   8.864
 2021POPC   C1A27975  15.207  26.073   8.564
 2021POPC   D2A27976  15.147  26.024   8.264
 2021POPC   C3A27977  15.132  26.007   7.964
 2021POPC   C4A27978  15.222  26.080   7.664
 2021POPC   C1B27979  14.957  26.054   8.564
 2021POPC   C2B27980  14.913  26.055   8.264
 2021POPC   C3B27981  14.902  26.073   7.964
 2021POPC   C4B27982  14.965  26.073   7.664
 2022POPC   NC327983  21.357  16.731   9.464
 2022POPC   PO427984  21.383  16.754   9.164
 2022POPC   GL127985  21.358  16.704   8.864
 2022POPC   GL227986  21.505  16.701   8.864
 2022POPC   C1A27987  21.388  16.698   8.564
 2022POPC   D2A27988  21.389  16.699   8.264
 2022POPC   C3A27989  21.402  16.708   7.964
 2022POPC   C4A27990  21.425  16.681   7.664
 2022POPC   C1B27991  21.568  16.585   8.564
 2022POPC   C2B27992  21.569  16.653   8.264
 2022POPC   C3B27993  21.654  16.583   7.964
 2022POPC   C4B27994  21.640  16.582   7.664
 2023POPC   NC327995  35.381  12.854   9.464
 2023POPC   PO427996  35.323  12.855   9.164
 2023POPC   GL127997  35.346  12.835   8.864
 2023POPC   GL227998  35.295  12.956   8.864
 2023POPC   C1A27999  35.357  12.809   8.564
 2023POPC   D2A28000  35.398  12.835   8.264
 2023POPC   C3A28001  35.348  12.847   7.964
 2023POPC   C4A28002  35.400  12.813   7.664
 2023POPC   C1B28003  35.346  13.068   8.564
 2023POPC   C2B28004  35.304  13.101   8.264
 2023POPC   C3B28005  35.288  13.117   7.964
 2023POPC   C4B28006  35.356  13.053   7.664
 2024POPC   NC328007  17.512  42.349   9.464
 2024POPC   PO428008  17.511  42.339   9.164
 2024POPC   GL128009  17.534  42.293   8.864
 2024POPC   GL228010  17.397  42.330   8.864
 2024POPC   C1A28011  17.496  42.288   8.564
 2024POPC   D2A28012  17.535  42.319   8.264
 2024POPC   C3A28013  17.486  42.375   7.964
 2024POPC   C4A28014  17.512  42.302   7.664
 2024POPC   C1B28015  17.267  42.431   8.564
 2024POPC   C2B28016  17.239  42.390   8.264
 2024POPC   C3B28017  17.262  42.370   7.964
 2024POPC   C4B28018  17.220  42.376   7.664
 2025POPC   NC328019  13.652  27.641   9.464
 2025POPC   PO428020  13.587  27.567   9.164
 2025POPC   GL128021  13.590  27.550   8.864
 2025POPC   GL228022  13.704  27.449   8.864
 2025POPC   C1A28023  13.591  27.592   8.564
 2025POPC   D2A28024  13.655  27.601   8.264
 2025POPC   C3A28025  13.652  27.616   7.964
 2025POPC   C4A28026  13.651  27.569   7.664
 2025POPC   C1B28027  13.680  27.321   8.564
 2025POPC   C2B28028  13.663  27.362   8.264
 2025POPC   C3B28029  13.659  27.316   7.964
 2025POPC   C4B28030  13.748  27.385   7.664
 2026POPC   NC328031   3.524  43.133   9.464
 2026POPC   PO428032   3.548  43.154   9.164
 2026POPC   GL128033   3.552  43.126   8.864
 2026POPC   GL228034   3.659  43.096   8.864
 2026POPC   C1A28035   3.550  43.072   8.564
 2026POPC   D2A28036   3.500  43.137   8.264
 2026POPC   C3A28037   3.590  43.069   7.964
 2026POPC   C4A28038   3.568  43.157   7.664
 2026POPC   C1B28039   3.734  43.050   8.564
 2026POPC   C2B28040   3.758  43.088   8.264
 2026POPC   C3B28041   3.770  43.049   7.964
 2026POPC   C4B28042   3.751  43.050   7.664
 2027POPC   NC328043  11.311  31.448   9.464
 2027POPC   PO428044  11.277  31.487   9.164
 2027POPC   GL128045  11.275  31.458   8.864
 2027POPC   GL228046  11.175  31.435   8.864
 2027POPC   C1A28047  11.292  31.485   8.564
 2027POPC   D2A28048  11.318  31.430   8.264
 2027POPC   C3A28049  11.261  31.469   7.964
 2027POPC   C4A28050  11.274  31.453   7.664
 2027POPC   C1B28051  11.007  31.484   8.564
 2027POPC   C2B28052  11.018  31.467   8.264
 2027POPC   C3B28053  11.049  31.508   7.964
 2027POPC   C4B28054  11.012  31.485   7.664
 2028POPC   NC328055  40.010   3.523   9.464
 2028POPC   PO428056  39.975   3.514   9.164
 2028POPC   GL128057  39.974   3.555   8.864
 2028POPC   GL228058  39.863   3.545   8.864
 2028POPC   C1A28059  40.004   3.554   8.564
 2028POPC   D2A28060  39.973   3.534   8.264
 2028POPC   C3A28061  39.968   3.528   7.964
 2028POPC   C4A28062  40.053   3.561   7.664
 2028POPC   C1B28063  39.777   3.577   8.564
 2028POPC   C2B28064  39.748   3.593   8.264
 2028POPC   C3B28065  39.784   3.607   7.964
 2028POPC   C4B28066  39.731   3.617   7.664
 2029POPC   NC328067  32.267   7.462   9.464
 2029POPC   PO428068  32.209   7.381   9.164
 2029POPC   GL128069  32.207   7.439   8.864
 2029POPC   GL228070  32.323   7.485   8.864
 2029POPC   C1A28071  32.241   7.418   8.564
 2029POPC   D2A28072  32.245   7.415   8.264
 2029POPC   C3A28073  32.260   7.421   7.964
 2029POPC   C4A28074  32.234   7.459   7.664
 2029POPC   C1B28075  32.511   7.473   8.564
 2029POPC   C2B28076  32.435   7.522   8.264
 2029POPC   C3B28077  32.449   7.486   7.964
 2029POPC   C4B28078  32.493   7.494   7.664
 2030POPC   NC328079   9.702  13.631   9.464
 2030POPC   PO428080   9.796  13.661   9.164
 2030POPC   GL128081   9.755  13.586   8.864
 2030POPC   GL228082   9.881  13.721   8.864
 2030POPC   C1A28083   9.794  13.652   8.564
 2030POPC   D2A28084   9.742  13.596   8.264
 2030POPC   C3A28085   9.733  13.656   7.964
 2030POPC   C4A28086   9.730  13.630   7.664
 2030POPC   C1B28087   9.910  13.769   8.564
 2030POPC   C2B28088   9.996  13.783   8.264
 2030POPC   C3B28089   9.925  13.782   7.964
 2030POPC   C4B28090  10.006  13.790   7.664
 2031POPC   NC328091  43.871  18.303   9.464
 2031POPC   PO428092  43.930  18.315   9.164
 2031POPC   GL128093  43.870  18.302   8.864
 2031POPC   GL228094  43.961  18.327   8.864
 2031POPC   C1A28095  43.895  18.276   8.564
 2031POPC   D2A28096  43.905  18.272   8.264
 2031POPC   C3A28097  43.930  18.323   7.964
 2031POPC   C4A28098  43.877  18.287   7.664
 2031POPC   C1B28099  44.080  18.427   8.564
 2031POPC   C2B28100  44.135  18.352   8.264
 2031POPC   C3B28101  44.164  18.426   7.964
 2031POPC   C4B28102  44.083  18.344   7.664
 2032POPC   NC328103   9.778  39.998   9.464
 2032POPC   PO428104   9.785  39.976   9.164
 2032POPC   GL128105   9.784  40.009   8.864
 2032POPC   GL228106   9.590  39.990   8.864
 2032POPC   C1A28107   9.743  40.021   8.564
 2032POPC   D2A28108   9.777  40.012   8.264
 2032POPC   C3A28109   9.795  39.959   7.964
 2032POPC   C4A28110   9.783  39.968   7.664
 2032POPC   C1B28111   9.515  39.875   8.564
 2032POPC   C2B28112   9.558  39.922   8.264
 2032POPC   C3B28113   9.509  39.868   7.964
 2032POPC   C4B28114   9.487  39.909   7.664
 2033POPC   NC328115   3.567  38.420   9.464
 2033POPC   PO428116   3.508  38.409   9.164
 2033POPC   GL128117   3.565  38.473   8.864
 2033POPC   GL228118   3.516  38.305   8.864
 2033POPC   C1A28119   3.510  38.501   8.564
 2033POPC   D2A28120   3.494  38.500   8.264
 2033POPC   C3A28121   3.577  38.495   7.964
 2033POPC   C4A28122   3.498  38.427   7.664
 2033POPC   C1B28123   3.500  38.183   8.564
 2033POPC   C2B28124   3.515  38.175   8.264
 2033POPC   C3B28125   3.449  38.212   7.964
 2033POPC   C4B28126   3.462  38.220   7.664
 2034POPC   NC328127  40.000   5.118   9.464
 2034POPC   PO428128  39.972   5.135   9.164
 2034POPC   GL128129  40.051   5.130   8.864
 2034POPC   GL228130  40.119   4.960   8.864
 2034POPC   C1A28131  40.030   5.078   8.564
 2034POPC   D2A28132  40.041   5.128   8.264
 2034POPC   C3A28133  39.985   5.069   7.964
 2034POPC   C4A28134  39.962   5.092   7.664
 2034POPC   C1B28135  40.103   4.929   8.564
 2034POPC   C2B28136  40.107   4.885   8.264
 2034POPC   C3B28137  40.141   4.888   7.964
 2034POPC   C4B28138  40.187   4.926   7.664
 2035POPC   NC328139   8.161  11.349   9.464
 2035POPC   PO428140   8.185  11.331   9.164
 2035POPC   GL128141   8.225  11.266   8.864
 2035POPC   GL228142   8.139  11.391   8.864
 2035POPC   C1A28143   8.223  11.317   8.564
 2035POPC   D2A28144   8.156  11.263   8.264
 2035POPC   C3A28145   8.180  11.254   7.964
 2035POPC   C4A28146   8.228  11.294   7.664
 2035POPC   C1B28147   8.091  11.561   8.564
 2035POPC   C2B28148   8.065  11.481   8.264
 2035POPC   C3B28149   8.140  11.566   7.964
 2035POPC   C4B28150   8.136  11.537   7.664
 2036POPC   NC328151  22.162  25.220   9.464
 2036POPC   PO428152  22.177  25.303   9.164
 2036POPC   GL128153  22.117  25.265   8.864
 2036POPC   GL228154  22.290  25.190   8.864
 2036POPC   C1A28155  22.201  25.223   8.564
 2036POPC   D2A28156  22.186  25.276   8.264
 2036POPC   C3A28157  22.154  25.272   7.964
 2036POPC   C4A28158  22.192  25.268   7.664
 2036POPC   C1B28159  22.297  25.042   8.564
 2036POPC   C2B28160  22.285  25.102   8.264
 2036POPC   C3B28161  22.380  25.086   7.964
 2036POPC   C4B28162  22.378  25.056   7.664
 2037POPC   NC328163  22.906  38.469   9.464
 2037POPC   PO428164  22.908  38.457   9.164
 2037POPC   GL128165  22.983  38.492   8.864
 2037POPC   GL228166  23.047  38.496   8.864
 2037POPC   C1A28167  22.945  38.421   8.564
 2037POPC   D2A28168  22.948  38.422   8.264
 2037POPC   C3A28169  22.950  38.487   7.964
 2037POPC   C4A28170  22.909  38.452   7.664
 2037POPC   C1B28171  23.169  38.650   8.564
 2037POPC   C2B28172  23.144  38.572   8.264
 2037POPC   C3B28173  23.125  38.630   7.964
 2037POPC   C4B28174  23.132  38.576   7.664
 2038POPC   NC328175   6.653   9.751   9.464
 2038POPC   PO428176   6.693   9.796   9.164
 2038POPC   GL128177   6.611   9.717   8.864
 2038POPC   GL228178   6.547   9.844   8.864
 2038POPC   C1A28179   6.672   9.702   8.564
 2038POPC   D2A28180   6.694   9.718   8.264
 2038POPC   C3A28181   6.668   9.747   7.964
 2038POPC   C4A28182   6.623   9.706   7.664
 2038POPC   C1B28183   6.468   9.923   8.564
 2038POPC   C2B28184   6.495   9.918   8.264
 2038POPC   C3B28185   6.506   9.928   7.964
 2038POPC   C4B28186   6.503   9.869   7.664
 2039POPC   NC328187  26.068  36.133   9.464
 2039POPC   PO428188  26.065  36.146   9.164
 2039POPC   GL128189  26.008  36.110   8.864
 2039POPC   GL228190  25.900  36.145   8.864
 2039POPC   C1A28191  26.087  36.145   8.564
 2039POPC   D2A28192  26.084  36.173   8.264
 2039POPC   C3A28193  26.060  36.085   7.964
 2039POPC   C4A28194  26.005  36.132   7.664
 2039POPC   C1B28195  25.786  36.270   8.564
 2039POPC   C2B28196  25.859  36.231   8.264
 2039POPC   C3B28197  25.869  36.214   7.964
 2039POPC   C4B28198  25.774  36.230   7.664
 2040POPC   NC328199   4.350  36.869   9.464
 2040POPC   PO428200   4.329  36.868   9.164
 2040POPC   GL128201   4.334  36.856   8.864
 2040POPC   GL228202   4.398  36.817   8.864
 2040POPC   C1A28203   4.270  36.884   8.564
 2040POPC   D2A28204   4.312  36.882   8.264
 2040POPC   C3A28205   4.290  36.947   7.964
 2040POPC   C4A28206   4.281  36.946   7.664
 2040POPC   C1B28207   4.494  36.746   8.564
 2040POPC   C2B28208   4.550  36.773   8.264
 2040POPC   C3B28209   4.575  36.751   7.964
 2040POPC   C4B28210   4.564  36.781   7.664
 2041POPC   NC328211  33.045  25.248   9.464
 2041POPC   PO428212  32.980  25.292   9.164
 2041POPC   GL128213  32.979  25.274   8.864
 2041POPC   GL228214  33.046  25.424   8.864
 2041POPC   C1A28215  33.026  25.231   8.564
 2041POPC   D2A28216  33.047  25.232   8.264
 2041POPC   C3A28217  32.984  25.304   7.964
 2041POPC   C4A28218  33.025  25.312   7.664
 2041POPC   C1B28219  33.118  25.489   8.564
 2041POPC   C2B28220  33.102  25.485   8.264
 2041POPC   C3B28221  33.084  25.460   7.964
 2041POPC   C4B28222  33.114  25.540   7.664
 2042POPC   NC328223  29.931  22.210   9.464
 2042POPC   PO428224  29.893  22.192   9.164
 2042POPC   GL128225  29.957  22.184   8.864
 2042POPC   GL228226  29.848  22.162   8.864
 2042POPC   C1A28227  29.911  22.196   8.564
 2042POPC   D2A28228  29.911  22.209   8.264
 2042POPC   C3A28229  29.958  22.205   7.964
 2042POPC   C4A28230  29.959  22.168   7.664
 2042POPC   C1B28231  29.686  22.111   8.564
 2042POPC   C2B28232  29.720  22.096   8.264
 2042POPC   C3B28233  29.712  22.093   7.964
 2042POPC   C4B28234  29.694  22.035   7.664
 2043POPC   NC328235  20.604  39.265   9.464
 2043POPC   PO428236  20.583  39.250   9.164
 2043POPC   GL128237  20.606  39.188   8.864
 2043POPC   GL228238  20.653  39.105   8.864
 2043POPC   C1A28239  20.652  39.227   8.564
 2043POPC   D2A28240  20.580  39.227   8.264
 2043POPC   C3A28241  20.629  39.275   7.964
 2043POPC   C4A28242  20.610  39.189   7.664
 2043POPC   C1B28243  20.702  38.967   8.564
 2043POPC   C2B28244  20.702  38.987   8.264
 2043POPC   C3B28245  20.690  38.972   7.964
 2043POPC   C4B28246  20.685  39.034   7.664
 2044POPC   NC328247   6.638  27.611   9.464
 2044POPC   PO428248   6.684  27.570   9.164
 2044POPC   GL128249   6.684  27.639   8.864
 2044POPC   GL228250   6.576  27.648   8.864
 2044POPC   C1A28251   6.616  27.589   8.564
 2044POPC   D2A28252   6.644  27.555   8.264
 2044POPC   C3A28253   6.628  27.555   7.964
 2044POPC   C4A28254   6.634  27.641   7.664
 2044POPC   C1B28255   6.508  27.770   8.564
 2044POPC   C2B28256   6.496  27.745   8.264
 2044POPC   C3B28257   6.432  27.722   7.964
 2044POPC   C4B28258   6.425  27.730   7.664
 2045POPC   NC328259  19.827   8.987   9.464
 2045POPC   PO428260  19.837   8.928   9.164
 2045POPC   GL128261  19.849   8.999   8.864
 2045POPC   GL228262  19.976   9.018   8.864
 2045POPC   C1A28263  19.849   9.012   8.564
 2045POPC   D2A28264  19.791   8.931   8.264
 2045POPC   C3A28265  19.878   8.992   7.964
 2045POPC   C4A28266  19.802   9.015   7.664
 2045POPC   C1B28267  20.009   9.049   8.564
 2045POPC   C2B28268  20.054   9.098   8.264
 2045POPC   C3B28269  20.078   9.050   7.964
 2045POPC   C4B28270  20.095   9.124   7.664
 2046POPC   NC328271  41.530  18.261   9.464
 2046POPC   PO428272  41.598  18.287   9.164
 2046POPC   GL128273  41.559  18.280   8.864
 2046POPC   GL228274  41.493  18.223   8.864
 2046POPC   C1A28275  41.520  18.270   8.564
 2046POPC   D2A28276  41.525  18.314   8.264
 2046POPC   C3A28277  41.577  18.282   7.964
 2046POPC   C4A28278  41.552  18.284   7.664
 2046POPC   C1B28279  41.399  18.149   8.564
 2046POPC   C2B28280  41.361  18.147   8.264
 2046POPC   C3B28281  41.306  18.180   7.964
 2046POPC   C4B28282  41.360  18.110   7.664
 2047POPC   NC328283  29.162  12.815   9.464
 2047POPC   PO428284  29.097  12.851   9.164
 2047POPC   GL128285  29.164  12.896   8.864
 2047POPC   GL228286  29.063  12.993   8.864
 2047POPC   C1A28287  29.193  12.836   8.564
 2047POPC   D2A28288  29.139  12.826   8.264
 2047POPC   C3A28289  29.108  12.846   7.964
 2047POPC   C4A28290  29.134  12.818   7.664
 2047POPC   C1B28291  28.985  13.074   8.564
 2047POPC   C2B28292  29.021  13.027   8.264
 2047POPC   C3B28293  29.031  13.051   7.964
 2047POPC   C4B28294  29.049  13.028   7.664
 2048POPC   NC328295  37.729  36.874   9.464
 2048POPC   PO428296  37.673  36.892   9.164
 2048POPC   GL128297  37.703  36.940   8.864
 2048POPC   GL228298  37.771  37.054   8.864
 2048POPC   C1A28299  37.678  36.899   8.564
 2048POPC   D2A28300  37.720  36.879   8.264
 2048POPC   C3A28301  37.691  36.874   7.964
 2048POPC   C4A28302  37.660  36.875   7.664
 2048POPC   C1B28303  37.771  37.162   8.564
 2048POPC   C2B28304  37.822  37.089   8.264
 2048POPC   C3B28305  37.848  37.157   7.964
 2048POPC   C4B28306  37.814  37.161   7.664
 2049POPC   NC328307  43.859   4.363   9.464
 2049POPC   PO428308  43.874   4.324   9.164
 2049POPC   GL128309  43.846   4.349   8.864
 2049POPC   GL228310  43.869   4.458   8.864
 2049POPC   C1A28311  43.887   4.275   8.564
 2049POPC   D2A28312  43.936   4.323   8.264
 2049POPC   C3A28313  43.898   4.339   7.964
 2049POPC   C4A28314  43.862   4.311   7.664
 2049POPC   C1B28315  43.817   4.548   8.564
 2049POPC   C2B28316  43.859   4.521   8.264
 2049POPC   C3B28317  43.861   4.532   7.964
 2049POPC   C4B28318  43.875   4.547   7.664
 2050POPC   NC328319   8.957  26.090   9.464
 2050POPC   PO428320   8.997  26.022   9.164
 2050POPC   GL128321   9.005  26.024   8.864
 2050POPC   GL228322   8.970  25.942   8.864
 2050POPC   C1A28323   8.943  26.052   8.564
 2050POPC   D2A28324   8.996  26.040   8.264
 2050POPC   C3A28325   9.013  26.078   7.964
 2050POPC   C4A28326   9.003  25.994   7.664
 2050POPC   C1B28327   9.044  25.750   8.564
 2050POPC   C2B28328   9.014  25.845   8.264
 2050POPC   C3B28329   9.034  25.813   7.964
 2050POPC   C4B28330   9.055  25.798   7.664
 2051POPC   NC328331  26.801  42.298   9.464
 2051POPC   PO428332  26.858  42.352   9.164
 2051POPC   GL128333  26.800  42.346   8.864
 2051POPC   GL228334  26.847  42.213   8.864
 2051POPC   C1A28335  26.810  42.362   8.564
 2051POPC   D2A28336  26.784  42.377   8.264
 2051POPC   C3A28337  26.836  42.358   7.964
 2051POPC   C4A28338  26.846  42.366   7.664
 2051POPC   C1B28339  26.884  42.065   8.564
 2051POPC   C2B28340  26.879  42.139   8.264
 2051POPC   C3B28341  26.924  42.074   7.964
 2051POPC   C4B28342  26.937  42.068   7.664
 2052POPC   NC328343  21.414  43.063   9.464
 2052POPC   PO428344  21.346  43.160   9.164
 2052POPC   GL128345  21.418  43.140   8.864
 2052POPC   GL228346  21.409  43.020   8.864
 2052POPC   C1A28347  21.368  43.071   8.564
 2052POPC   D2A28348  21.402  43.106   8.264
 2052POPC   C3A28349  21.405  43.067   7.964
 2052POPC   C4A28350  21.422  43.089   7.664
 2052POPC   C1B28351  21.397  42.828   8.564
 2052POPC   C2B28352  21.430  42.912   8.264
 2052POPC   C3B28353  21.439  42.888   7.964
 2052POPC   C4B28354  21.450  42.866   7.664
 2053POPC   NC328355  43.150   6.633   9.464
 2053POPC   PO428356  43.088   6.647   9.164
 2053POPC   GL128357  43.158   6.619   8.864
 2053POPC   GL228358  43.174   6.746   8.864
 2053POPC   C1A28359  43.137   6.616   8.564
 2053POPC   D2A28360  43.145   6.608   8.264
 2053POPC   C3A28361  43.061   6.676   7.964
 2053POPC   C4A28362  43.062   6.682   7.664
 2053POPC   C1B28363  43.332   6.812   8.564
 2053POPC   C2B28364  43.285   6.787   8.264
 2053POPC   C3B28365  43.260   6.808   7.964
 2053POPC   C4B28366  43.322   6.795   7.664
 2054POPC   NC328367  43.083  28.398   9.464
 2054POPC   PO428368  43.128  28.373   9.164
 2054POPC   GL128369  43.094  28.329   8.864
 2054POPC   GL228370  43.189  28.288   8.864
 2054POPC   C1A28371  43.151  28.399   8.564
 2054POPC   D2A28372  43.115  28.381   8.264
 2054POPC   C3A28373  43.108  28.342   7.964
 2054POPC   C4A28374  43.063  28.327   7.664
 2054POPC   C1B28375  43.224  28.165   8.564
 2054POPC   C2B28376  43.129  28.158   8.264
 2054POPC   C3B28377  43.162  28.102   7.964
 2054POPC   C4B28378  43.227  28.084   7.664
 2055POPC   NC328379   6.599  43.065   9.464
 2055POPC   PO428380   6.639  43.064   9.164
 2055POPC   GL128381   6.680  43.113   8.864
 2055POPC   GL228382   6.530  43.053   8.864
 2055POPC   C1A28383   6.684  43.083   8.564
 2055POPC   D2A28384   6.664  43.116   8.264
 2055POPC   C3A28385   6.600  43.088   7.964
 2055POPC   C4A28386   6.672  43.103   7.664
 2055POPC   C1B28387   6.426  42.969   8.564
 2055POPC   C2B28388   6.409  42.939   8.264
 2055POPC   C3B28389   6.458  42.954   7.964
 2055POPC   C4B28390   6.393  42.942   7.664
 2056POPC   NC328391  42.342  40.812   9.464
 2056POPC   PO428392  42.337  40.766   9.164
 2056POPC   GL128393  42.375  40.762   8.864
 2056POPC   GL228394  42.183  40.774   8.864
 2056POPC   C1A28395  42.303  40.780   8.564
 2056POPC   D2A28396  42.364  40.783   8.264
 2056POPC   C3A28397  42.315  40.751   7.964
 2056POPC   C4A28398  42.353  40.798   7.664
 2056POPC   C1B28399  42.045  40.781   8.564
 2056POPC   C2B28400  42.109  40.803   8.264
 2056POPC   C3B28401  42.073  40.823   7.964
 2056POPC   C4B28402  42.112  40.785   7.664
 2057POPC   NC328403  30.660   0.397   9.464
 2057POPC   PO428404  30.698   0.404   9.164
 2057POPC   GL128405  30.687   0.406   8.864
 2057POPC   GL228406  30.589   0.480   8.864
 2057POPC   C1A28407  30.678   0.449   8.564
 2057POPC   D2A28408  30.711   0.422   8.264
 2057POPC   C3A28409  30.730   0.402   7.964
 2057POPC   C4A28410  30.693   0.408   7.664
 2057POPC   C1B28411  30.405   0.467   8.564
 2057POPC   C2B28412  30.480   0.473   8.264
 2057POPC   C3B28413  30.479   0.532   7.964
 2057POPC   C4B28414  30.499   0.539   7.664
 2058POPC   NC328415   1.205  19.085   9.464
 2058POPC   PO428416   1.260  19.068   9.164
 2058POPC   GL128417   1.231  19.098   8.864
 2058POPC   GL228418   1.108  19.116   8.864
 2058POPC   C1A28419   1.250  19.053   8.564
 2058POPC   D2A28420   1.237  19.081   8.264
 2058POPC   C3A28421   1.187  19.057   7.964
 2058POPC   C4A28422   1.242  19.061   7.664
 2058POPC   C1B28423   1.047  19.263   8.564
 2058POPC   C2B28424   1.097  19.308   8.264
 2058POPC   C3B28425   1.130  19.309   7.964
 2058POPC   C4B28426   1.126  19.270   7.664
 2059POPC   NC328427   2.749   4.342   9.464
 2059POPC   PO428428   2.730   4.272   9.164
 2059POPC   GL128429   2.744   4.356   8.864
 2059POPC   GL228430   2.761   4.396   8.864
 2059POPC   C1A28431   2.730   4.357   8.564
 2059POPC   D2A28432   2.788   4.360   8.264
 2059POPC   C3A28433   2.807   4.306   7.964
 2059POPC   C4A28434   2.763   4.307   7.664
 2059POPC   C1B28435   2.727   4.540   8.564
 2059POPC   C2B28436   2.728   4.537   8.264
 2059POPC   C3B28437   2.729   4.582   7.964
 2059POPC   C4B28438   2.709   4.612   7.664
 2060POPC   NC328439  29.182   7.470   9.464
 2060POPC   PO428440  29.168   7.375   9.164
 2060POPC   GL128441  29.129   7.431   8.864
 2060POPC   GL228442  29.259   7.572   8.864
 2060POPC   C1A28443  29.128   7.427   8.564
 2060POPC   D2A28444  29.115   7.471   8.264
 2060POPC   C3A28445  29.129   7.470   7.964
 2060POPC   C4A28446  29.110   7.397   7.664
 2060POPC   C1B28447  29.326   7.651   8.564
 2060POPC   C2B28448  29.297   7.634   8.264
 2060POPC   C3B28449  29.287   7.650   7.964
 2060POPC   C4B28450  29.243   7.632   7.664
 2061POPC   NC328451  37.722   2.767   9.464
 2061POPC   PO428452  37.713   2.795   9.164
 2061POPC   GL128453  37.683   2.808   8.864
 2061POPC   GL228454  37.548   2.802   8.864
 2061POPC   C1A28455  37.644   2.812   8.564
 2061POPC   D2A28456  37.643   2.724   8.264
 2061POPC   C3A28457  37.654   2.738   7.964
 2061POPC   C4A28458  37.727   2.737   7.664
 2061POPC   C1B28459  37.455   2.836   8.564
 2061POPC   C2B28460  37.488   2.793   8.264
 2061POPC   C3B28461  37.457   2.854   7.964
 2061POPC   C4B28462  37.475   2.826   7.664
 2062POPC   NC328463  26.042  19.851   9.464
 2062POPC   PO428464  26.029  19.838   9.164
 2062POPC   GL128465  26.076  19.787   8.864
 2062POPC   GL228466  26.021  19.770   8.864
 2062POPC   C1A28467  26.043  19.791   8.564
 2062POPC   D2A28468  26.023  19.855   8.264
 2062POPC   C3A28469  26.082  19.877   7.964
 2062POPC   C4A28470  26.020  19.842   7.664
 2062POPC   C1B28471  25.951  19.624   8.564
 2062POPC   C2B28472  25.929  19.573   8.264
 2062POPC   C3B28473  25.939  19.597   7.964
 2062POPC   C4B28474  25.865  19.613   7.664
 2063POPC   NC328475   1.191   9.739   9.464
 2063POPC   PO428476   1.230   9.716   9.164
 2063POPC   GL128477   1.198   9.734   8.864
 2063POPC   GL228478   1.135   9.591   8.864
 2063POPC   C1A28479   1.248   9.762   8.564
 2063POPC   D2A28480   1.231   9.783   8.264
 2063POPC   C3A28481   1.176   9.726   7.964
 2063POPC   C4A28482   1.203   9.705   7.664
 2063POPC   C1B28483   1.121   9.530   8.564
 2063POPC   C2B28484   1.089   9.484   8.264
 2063POPC   C3B28485   1.105   9.552   7.964
 2063POPC   C4B28486   1.147   9.474   7.664
 2064POPC   NC328487  44.643   3.505   9.464
 2064POPC   PO428488  44.711   3.545   9.164
 2064POPC   GL128489  44.706   3.578   8.864
 2064POPC   GL228490  44.574   3.520   8.864
 2064POPC   C1A28491  44.656   3.554   8.564
 2064POPC   D2A28492  44.697   3.494   8.264
 2064POPC   C3A28493  44.664   3.574   7.964
 2064POPC   C4A28494  44.620   3.572   7.664
 2064POPC   C1B28495  44.399   3.486   8.564
 2064POPC   C2B28496  44.419   3.494   8.264
 2064POPC   C3B28497  44.431   3.501   7.964
 2064POPC   C4B28498  44.380   3.466   7.664
 2065POPC   NC328499  17.553  13.613   9.464
 2065POPC   PO428500  17.496  13.660   9.164
 2065POPC   GL128501  17.489  13.614   8.864
 2065POPC   GL228502  17.501  13.521   8.864
 2065POPC   C1A28503  17.535  13.607   8.564
 2065POPC   D2A28504  17.514  13.598   8.264
 2065POPC   C3A28505  17.496  13.638   7.964
 2065POPC   C4A28506  17.464  13.594   7.664
 2065POPC   C1B28507  17.392  13.375   8.564
 2065POPC   C2B28508  17.430  13.369   8.264
 2065POPC   C3B28509  17.454  13.369   7.964
 2065POPC   C4B28510  17.375  13.361   7.664
 2066POPC   NC328511  30.689  25.286   9.464
 2066POPC   PO428512  30.693  25.227   9.164
 2066POPC   GL128513  30.703  25.268   8.864
 2066POPC   GL228514  30.721  25.423   8.864
 2066POPC   C1A28515  30.703  25.233   8.564
 2066POPC   D2A28516  30.694  25.283   8.264
 2066POPC   C3A28517  30.701  25.265   7.964
 2066POPC   C4A28518  30.695  25.271   7.664
 2066POPC   C1B28519  30.794  25.504   8.564
 2066POPC   C2B28520  30.712  25.478   8.264
 2066POPC   C3B28521  30.765  25.498   7.964
 2066POPC   C4B28522  30.725  25.515   7.664
 2067POPC   NC328523   4.350  33.776   9.464
 2067POPC   PO428524   4.308  33.834   9.164
 2067POPC   GL128525   4.337  33.783   8.864
 2067POPC   GL228526   4.481  33.842   8.864
 2067POPC   C1A28527   4.313  33.825   8.564
 2067POPC   D2A28528   4.303  33.779   8.264
 2067POPC   C3A28529   4.269  33.778   7.964
 2067POPC   C4A28530   4.320  33.781   7.664
 2067POPC   C1B28531   4.551  33.829   8.564
 2067POPC   C2B28532   4.553  33.765   8.264
 2067POPC   C3B28533   4.518  33.773   7.964
 2067POPC   C4B28534   4.548  33.806   7.664
 2068POPC   NC328535   2.795  36.101   9.464
 2068POPC   PO428536   2.741  36.105   9.164
 2068POPC   GL128537   2.746  36.089   8.864
 2068POPC   GL228538   2.736  36.031   8.864
 2068POPC   C1A28539   2.744  36.150   8.564
 2068POPC   D2A28540   2.782  36.155   8.264
 2068POPC   C3A28541   2.729  36.137   7.964
 2068POPC   C4A28542   2.720  36.176   7.664
 2068POPC   C1B28543   2.782  35.898   8.564
 2068POPC   C2B28544   2.750  35.854   8.264
 2068POPC   C3B28545   2.762  35.901   7.964
 2068POPC   C4B28546   2.712  35.858   7.664
 2069POPC   NC328547  33.835  42.330   9.464
 2069POPC   PO428548  33.830  42.373   9.164
 2069POPC   GL128549  33.835  42.367   8.864
 2069POPC   GL228550  33.689  42.394   8.864
 2069POPC   C1A28551  33.846  42.326   8.564
 2069POPC   D2A28552  33.760  42.313   8.264
 2069POPC   C3A28553  33.792  42.310   7.964
 2069POPC   C4A28554  33.789  42.314   7.664
 2069POPC   C1B28555  33.684  42.572   8.564
 2069POPC   C2B28556  33.689  42.532   8.264
 2069POPC   C3B28557  33.709  42.525   7.964
 2069POPC   C4B28558  33.668  42.523   7.664
 2070POPC   NC328559  29.173   9.787   9.464
 2070POPC   PO428560  29.098   9.740   9.164
 2070POPC   GL128561  29.193   9.721   8.864
 2070POPC   GL228562  29.080   9.860   8.864
 2070POPC   C1A28563  29.186   9.786   8.564
 2070POPC   D2A28564  29.186   9.789   8.264
 2070POPC   C3A28565  29.176   9.785   7.964
 2070POPC   C4A28566  29.117   9.731   7.664
 2070POPC   C1B28567  28.999   9.942   8.564
 2070POPC   C2B28568  28.991   9.898   8.264
 2070POPC   C3B28569  29.023   9.957   7.964
 2070POPC   C4B28570  28.993   9.932   7.664
 2071POPC   NC328571  19.046  22.890   9.464
 2071POPC   PO428572  19.068  22.951   9.164
 2071POPC   GL128573  19.045  22.982   8.864
 2071POPC   GL228574  18.968  22.853   8.864
 2071POPC   C1A28575  19.043  22.960   8.564
 2071POPC   D2A28576  19.019  22.960   8.264
 2071POPC   C3A28577  19.020  22.974   7.964
 2071POPC   C4A28578  19.039  22.940   7.664
 2071POPC   C1B28579  18.955  22.736   8.564
 2071POPC   C2B28580  18.922  22.733   8.264
 2071POPC   C3B28581  18.908  22.712   7.964
 2071POPC   C4B28582  18.887  22.693   7.664
 2072POPC   NC328583  26.005  19.036   9.464
 2072POPC   PO428584  25.996  19.106   9.164
 2072POPC   GL128585  26.028  19.022   8.864
 2072POPC   GL228586  25.869  19.079   8.864
 2072POPC   C1A28587  26.028  19.036   8.564
 2072POPC   D2A28588  26.008  19.024   8.264
 2072POPC   C3A28589  26.004  19.076   7.964
 2072POPC   C4A28590  26.070  19.012   7.664
 2072POPC   C1B28591  25.747  19.079   8.564
 2072POPC   C2B28592  25.809  19.124   8.264
 2072POPC   C3B28593  25.758  19.040   7.964
 2072POPC   C4B28594  25.840  19.090   7.664
 2073POPC   NC328595  34.543  24.472   9.464
 2073POPC   PO428596  34.591  24.519   9.164
 2073POPC   GL128597  34.546  24.442   8.864
 2073POPC   GL228598  34.681  24.483   8.864
 2073POPC   C1A28599  34.570  24.454   8.564
 2073POPC   D2A28600  34.558  24.506   8.264
 2073POPC   C3A28601  34.598  24.513   7.964
 2073POPC   C4A28602  34.617  24.451   7.664
 2073POPC   C1B28603  34.805  24.482   8.564
 2073POPC   C2B28604  34.839  24.408   8.264
 2073POPC   C3B28605  34.870  24.445   7.964
 2073POPC   C4B28606  34.859  24.443   7.664
 2074POPC   NC328607  40.001  13.673   9.464
 2074POPC   PO428608  40.012  13.651   9.164
 2074POPC   GL128609  40.026  13.626   8.864
 2074POPC   GL228610  39.951  13.484   8.864
 2074POPC   C1A28611  39.991  13.665   8.564
 2074POPC   D2A28612  39.963  13.597   8.264
 2074POPC   C3A28613  39.993  13.586   7.964
 2074POPC   C4A28614  39.967  13.649   7.664
 2074POPC   C1B28615  39.881  13.437   8.564
 2074POPC   C2B28616  39.897  13.376   8.264
 2074POPC   C3B28617  39.868  13.391   7.964
 2074POPC   C4B28618  39.876  13.433   7.664
 2075POPC   NC328619  36.098  26.813   9.464
 2075POPC   PO428620  36.091  26.777   9.164
 2075POPC   GL128621  36.159  26.817   8.864
 2075POPC   GL228622  36.299  26.866   8.864
 2075POPC   C1A28623  36.121  26.860   8.564
 2075POPC   D2A28624  36.101  26.773   8.264
 2075POPC   C3A28625  36.175  26.860   7.964
 2075POPC   C4A28626  36.107  26.826   7.664
 2075POPC   C1B28627  36.392  26.826   8.564
 2075POPC   C2B28628  36.346  26.850   8.264
 2075POPC   C3B28629  36.409  26.861   7.964
 2075POPC   C4B28630  36.332  26.878   7.664
 2076POPC   NC328631  40.006  12.050   9.464
 2076POPC   PO428632  40.033  12.087   9.164
 2076POPC   GL128633  40.049  12.062   8.864
 2076POPC   GL228634  39.926  12.184   8.864
 2076POPC   C1A28635  40.051  12.072   8.564
 2076POPC   D2A28636  40.017  12.036   8.264
 2076POPC   C3A28637  40.047  12.071   7.964
 2076POPC   C4A28638  40.056  12.094   7.664
 2076POPC   C1B28639  39.830  12.255   8.564
 2076POPC   C2B28640  39.827  12.229   8.264
 2076POPC   C3B28641  39.828  12.243   7.964
 2076POPC   C4B28642  39.800  12.213   7.664
 2077POPC   NC328643  41.561  22.151   9.464
 2077POPC   PO428644  41.603  22.193   9.164
 2077POPC   GL128645  41.589  22.207   8.864
 2077POPC   GL228646  41.385  22.144   8.864
 2077POPC   C1A28647  41.571  22.164   8.564
 2077POPC   D2A28648  41.557  22.138   8.264
 2077POPC   C3A28649  41.554  22.130   7.964
 2077POPC   C4A28650  41.541  22.189   7.664
 2077POPC   C1B28651  41.303  22.151   8.564
 2077POPC   C2B28652  41.329  22.176   8.264
 2077POPC   C3B28653  41.263  22.121   7.964
 2077POPC   C4B28654  41.286  22.104   7.664
 2078POPC   NC328655  40.022  27.554   9.464
 2078POPC   PO428656  40.023  27.597   9.164
 2078POPC   GL128657  40.018  27.557   8.864
 2078POPC   GL228658  40.051  27.450   8.864
 2078POPC   C1A28659  39.994  27.636   8.564
 2078POPC   D2A28660  40.046  27.575   8.264
 2078POPC   C3A28661  39.966  27.593   7.964
 2078POPC   C4A28662  39.970  27.579   7.664
 2078POPC   C1B28663  40.126  27.435   8.564
 2078POPC   C2B28664  40.191  27.379   8.264
 2078POPC   C3B28665  40.169  27.378   7.964
 2078POPC   C4B28666  40.109  27.433   7.664
 2079POPC   NC328667  14.420   5.124   9.464
 2079POPC   PO428668  14.407   5.107   9.164
 2079POPC   GL128669  14.360   5.122   8.864
 2079POPC   GL228670  14.558   5.054   8.864
 2079POPC   C1A28671  14.422   5.094   8.564
 2079POPC   D2A28672  14.417   5.097   8.264
 2079POPC   C3A28673  14.373   5.088   7.964
 2079POPC   C4A28674  14.395   5.113   7.664
 2079POPC   C1B28675  14.607   5.135   8.564
 2079POPC   C2B28676  14.655   5.145   8.264
 2079POPC   C3B28677  14.651   5.118   7.964
 2079POPC   C4B28678  14.683   5.077   7.664
 2080POPC   NC328679  17.544   6.605   9.464
 2080POPC   PO428680  17.542   6.629   9.164
 2080POPC   GL128681  17.506   6.684   8.864
 2080POPC   GL228682  17.624   6.661   8.864
 2080POPC   C1A28683  17.491   6.679   8.564
 2080POPC   D2A28684  17.538   6.616   8.264
 2080POPC   C3A28685  17.507   6.597   7.964
 2080POPC   C4A28686  17.490   6.672   7.664
 2080POPC   C1B28687  17.761   6.726   8.564
 2080POPC   C2B28688  17.755   6.715   8.264
 2080POPC   C3B28689  17.773   6.760   7.964
 2080POPC   C4B28690  17.772   6.684   7.664
 2081POPC   NC328691   4.316   2.016   9.464
 2081POPC   PO428692   4.349   2.026   9.164
 2081POPC   GL128693   4.305   2.002   8.864
 2081POPC   GL228694   4.378   2.101   8.864
 2081POPC   C1A28695   4.364   1.956   8.564
 2081POPC   D2A28696   4.296   1.960   8.264
 2081POPC   C3A28697   4.328   2.039   7.964
 2081POPC   C4A28698   4.269   1.944   7.664
 2081POPC   C1B28699   4.326   2.272   8.564
 2081POPC   C2B28700   4.351   2.280   8.264
 2081POPC   C3B28701   4.379   2.279   7.964
 2081POPC   C4B28702   4.379   2.229   7.664
 2082POPC   NC328703   5.045   1.951   9.464
 2082POPC   PO428704   5.113   1.951   9.164
 2082POPC   GL128705   5.113   2.019   8.864
 2082POPC   GL228706   5.024   2.054   8.864
 2082POPC   C1A28707   5.138   2.013   8.564
 2082POPC   D2A28708   5.060   1.980   8.264
 2082POPC   C3A28709   5.126   1.951   7.964
 2082POPC   C4A28710   5.080   1.993   7.664
 2082POPC   C1B28711   4.933   2.176   8.564
 2082POPC   C2B28712   4.945   2.198   8.264
 2082POPC   C3B28713   4.970   2.210   7.964
 2082POPC   C4B28714   4.976   2.191   7.664
 2083POPC   NC328715  18.317  22.893   9.464
 2083POPC   PO428716  18.332  22.970   9.164
 2083POPC   GL128717  18.331  22.939   8.864
 2083POPC   GL228718  18.276  23.043   8.864
 2083POPC   C1A28719  18.302  22.968   8.564
 2083POPC   D2A28720  18.265  22.899   8.264
 2083POPC   C3A28721  18.309  22.901   7.964
 2083POPC   C4A28722  18.242  22.908   7.664
 2083POPC   C1B28723  18.250  23.165   8.564
 2083POPC   C2B28724  18.274  23.189   8.264
 2083POPC   C3B28725  18.224  23.187   7.964
 2083POPC   C4B28726  18.229  23.181   7.664
 2084POPC   NC328727  43.862  26.864   9.464
 2084POPC   PO428728  43.911  26.780   9.164
 2084POPC   GL128729  43.861  26.831   8.864
 2084POPC   GL228730  43.823  26.934   8.864
 2084POPC   C1A28731  43.848  26.852   8.564
 2084POPC   D2A28732  43.852  26.788   8.264
 2084POPC   C3A28733  43.863  26.859   7.964
 2084POPC   C4A28734  43.848  26.866   7.664
 2084POPC   C1B28735  43.808  27.089   8.564
 2084POPC   C2B28736  43.804  27.008   8.264
 2084POPC   C3B28737  43.777  27.075   7.964
 2084POPC   C4B28738  43.838  27.015   7.664
 2085POPC   NC328739  16.714  12.040   9.464
 2085POPC   PO428740  16.765  12.073   9.164
 2085POPC   GL128741  16.751  12.068   8.864
 2085POPC   GL228742  16.644  12.103   8.864
 2085POPC   C1A28743  16.740  12.086   8.564
 2085POPC   D2A28744  16.708  12.077   8.264
 2085POPC   C3A28745  16.761  12.044   7.964
 2085POPC   C4A28746  16.695  12.054   7.664
 2085POPC   C1B28747  16.511  12.018   8.564
 2085POPC   C2B28748  16.441  12.044   8.264
 2085POPC   C3B28749  16.509  12.091   7.964
 2085POPC   C4B28750  16.455  12.067   7.664
 2086POPC   NC328751  41.588   7.412   9.464
 2086POPC   PO428752  41.587   7.447   9.164
 2086POPC   GL128753  41.562   7.400   8.864
 2086POPC   GL228754  41.727   7.399   8.864
 2086POPC   C1A28755  41.562   7.411   8.564
 2086POPC   D2A28756  41.588   7.409   8.264
 2086POPC   C3A28757  41.561   7.409   7.964
 2086POPC   C4A28758  41.539   7.428   7.664
 2086POPC   C1B28759  41.822   7.401   8.564
 2086POPC   C2B28760  41.762   7.431   8.264
 2086POPC   C3B28761  41.793   7.473   7.964
 2086POPC   C4B28762  41.760   7.388   7.664
 2087POPC   NC328763  26.011  33.831   9.464
 2087POPC   PO428764  26.047  33.797   9.164
 2087POPC   GL128765  26.035  33.752   8.864
 2087POPC   GL228766  26.202  33.820   8.864
 2087POPC   C1A28767  26.070  33.811   8.564
 2087POPC   D2A28768  26.001  33.751   8.264
 2087POPC   C3A28769  26.046  33.811   7.964
 2087POPC   C4A28770  26.067  33.780   7.664
 2087POPC   C1B28771  26.251  33.840   8.564
 2087POPC   C2B28772  26.290  33.896   8.264
 2087POPC   C3B28773  26.240  33.837   7.964
 2087POPC   C4B28774  26.261  33.816   7.664
 2088POPC   NC328775  29.925  43.922   9.464
 2088POPC   PO428776  29.919  43.885   9.164
 2088POPC   GL128777  29.912  43.863   8.864
 2088POPC   GL228778  29.909  44.036   8.864
 2088POPC   C1A28779  29.940  43.882   8.564
 2088POPC   D2A28780  29.900  43.933   8.264
 2088POPC   C3A28781  29.964  43.896   7.964
 2088POPC   C4A28782  29.951  43.894   7.664
 2088POPC   C1B28783  29.938  44.096   8.564
 2088POPC   C2B28784  29.866  44.160   8.264
 2088POPC   C3B28785  29.894  44.132   7.964
 2088POPC   C4B28786  29.852  44.160   7.664
 2089POPC   NC328787  38.408  30.716   9.464
 2089POPC   PO428788  38.446  30.688   9.164
 2089POPC   GL128789  38.464  30.655   8.864
 2089POPC   GL228790  38.571  30.600   8.864
 2089POPC   C1A28791  38.501  30.671   8.564
 2089POPC   D2A28792  38.420  30.691   8.264
 2089POPC   C3A28793  38.488  30.676   7.964
 2089POPC   C4A28794  38.442  30.701   7.664
 2089POPC   C1B28795  38.651  30.525   8.564
 2089POPC   C2B28796  38.613  30.531   8.264
 2089POPC   C3B28797  38.631  30.467   7.964
 2089POPC   C4B28798  38.568  30.467   7.664
 2090POPC   NC328799  39.222  38.435   9.464
 2090POPC   PO428800  39.212  38.406   9.164
 2090POPC   GL128801  39.249  38.449   8.864
 2090POPC   GL228802  39.081  38.423   8.864
 2090POPC   C1A28803  39.228  38.478   8.564
 2090POPC   D2A28804  39.277  38.454   8.264
 2090POPC   C3A28805  39.259  38.494   7.964
 2090POPC   C4A28806  39.278  38.498   7.664
 2090POPC   C1B28807  39.040  38.426   8.564
 2090POPC   C2B28808  38.950  38.369   8.264
 2090POPC   C3B28809  38.996  38.361   7.964
 2090POPC   C4B28810  38.955  38.342   7.664
 2091POPC   NC328811  15.175  15.224   9.464
 2091POPC   PO428812  15.206  15.171   9.164
 2091POPC   GL128813  15.166  15.205   8.864
 2091POPC   GL228814  15.264  15.109   8.864
 2091POPC   C1A28815  15.137  15.205   8.564
 2091POPC   D2A28816  15.190  15.208   8.264
 2091POPC   C3A28817  15.228  15.132   7.964
 2091POPC   C4A28818  15.225  15.190   7.664
 2091POPC   C1B28819  15.395  15.012   8.564
 2091POPC   C2B28820  15.339  14.971   8.264
 2091POPC   C3B28821  15.399  15.007   7.964
 2091POPC   C4B28822  15.390  15.027   7.664
 2092POPC   NC328823  44.624  36.931   9.464
 2092POPC   PO428824  44.690  36.915   9.164
 2092POPC   GL128825  44.711  36.886   8.864
 2092POPC   GL228826  44.632  36.989   8.864
 2092POPC   C1A28827  44.667  36.870   8.564
 2092POPC   D2A28828  44.626  36.934   8.264
 2092POPC   C3A28829  44.703  36.925   7.964
 2092POPC   C4A28830  44.685  36.901   7.664
 2092POPC   C1B28831  44.570  37.082   8.564
 2092POPC   C2B28832  44.521  37.162   8.264
 2092POPC   C3B28833  44.577  37.151   7.964
 2092POPC   C4B28834  44.549  37.171   7.664
 2093POPC   NC328835  43.129  15.193   9.464
 2093POPC   PO428836  43.149  15.224   9.164
 2093POPC   GL128837  43.087  15.168   8.864
 2093POPC   GL228838  42.993  15.170   8.864
 2093POPC   C1A28839  43.096  15.186   8.564
 2093POPC   D2A28840  43.061  15.190   8.264
 2093POPC   C3A28841  43.140  15.136   7.964
 2093POPC   C4A28842  43.111  15.148   7.664
 2093POPC   C1B28843  42.860  15.192   8.564
 2093POPC   C2B28844  42.871  15.243   8.264
 2093POPC   C3B28845  42.837  15.197   7.964
 2093POPC   C4B28846  42.849  15.239   7.664
 2094POPC   NC328847  20.600  17.488   9.464
 2094POPC   PO428848  20.632  17.514   9.164
 2094POPC   GL128849  20.594  17.483   8.864
 2094POPC   GL228850  20.546  17.420   8.864
 2094POPC   C1A28851  20.583  17.539   8.564
 2094POPC   D2A28852  20.577  17.459   8.264
 2094POPC   C3A28853  20.571  17.492   7.964
 2094POPC   C4A28854  20.601  17.469   7.664
 2094POPC   C1B28855  20.353  17.364   8.564
 2094POPC   C2B28856  20.422  17.436   8.264
 2094POPC   C3B28857  20.414  17.374   7.964
 2094POPC   C4B28858  20.398  17.349   7.664
 2095POPC   NC328859  36.880  43.136   9.464
 2095POPC   PO428860  36.886  43.137   9.164
 2095POPC   GL128861  36.915  43.063   8.864
 2095POPC   GL228862  37.056  43.166   8.864
 2095POPC   C1A28863  36.886  43.133   8.564
 2095POPC   D2A28864  36.935  43.065   8.264
 2095POPC   C3A28865  36.904  43.069   7.964
 2095POPC   C4A28866  36.862  43.095   7.664
 2095POPC   C1B28867  37.140  43.207   8.564
 2095POPC   C2B28868  37.101  43.212   8.264
 2095POPC   C3B28869  37.077  43.246   7.964
 2095POPC   C4B28870  37.105  43.256   7.664
 2096POPC   NC328871   4.270  24.473   9.464
 2096POPC   PO428872   4.318  24.486   9.164
 2096POPC   GL128873   4.365  24.501   8.864
 2096POPC   GL228874   4.228  24.650   8.864
 2096POPC   C1A28875   4.336  24.497   8.564
 2096POPC   D2A28876   4.321  24.495   8.264
 2096POPC   C3A28877   4.292  24.454   7.964
 2096POPC   C4A28878   4.332  24.456   7.664
 2096POPC   C1B28879   4.212  24.728   8.564
 2096POPC   C2B28880   4.261  24.693   8.264
 2096POPC   C3B28881   4.209  24.691   7.964
 2096POPC   C4B28882   4.225  24.750   7.664
 2097POPC   NC328883  10.492  44.656   9.464
 2097POPC   PO428884  10.479  44.705   9.164
 2097POPC   GL128885  10.548  44.632   8.864
 2097POPC   GL228886  10.506  44.556   8.864
 2097POPC   C1A28887  10.548  44.705   8.564
 2097POPC   D2A28888  10.478  44.690   8.264
 2097POPC   C3A28889  10.568  44.670   7.964
 2097POPC   C4A28890  10.492  44.709   7.664
 2097POPC   C1B28891  10.355  44.466   8.564
 2097POPC   C2B28892  10.428  44.482   8.264
 2097POPC   C3B28893  10.435  44.465   7.964
 2097POPC   C4B28894  10.389  44.405   7.664
 2098POPC   NC328895  38.491  15.928   9.464
 2098POPC   PO428896  38.488  15.986   9.164
 2098POPC   GL128897  38.436  15.948   8.864
 2098POPC   GL228898  38.521  16.081   8.864
 2098POPC   C1A28899  38.494  15.980   8.564
 2098POPC   D2A28900  38.473  15.918   8.264
 2098POPC   C3A28901  38.446  15.973   7.964
 2098POPC   C4A28902  38.444  16.003   7.664
 2098POPC   C1B28903  38.487  16.189   8.564
 2098POPC   C2B28904  38.481  16.223   8.264
 2098POPC   C3B28905  38.508  16.192   7.964
 2098POPC   C4B28906  38.520  16.237   7.664
 2099POPC   NC328907  34.552  32.995   9.464
 2099POPC   PO428908  34.598  33.039   9.164
 2099POPC   GL128909  34.621  33.069   8.864
 2099POPC   GL228910  34.660  33.066   8.864
 2099POPC   C1A28911  34.620  32.991   8.564
 2099POPC   D2A28912  34.556  33.011   8.264
 2099POPC   C3A28913  34.534  33.067   7.964
 2099POPC   C4A28914  34.599  32.986   7.664
 2099POPC   C1B28915  34.817  33.193   8.564
 2099POPC   C2B28916  34.797  33.173   8.264
 2099POPC   C3B28917  34.765  33.198   7.964
 2099POPC   C4B28918  34.743  33.163   7.664
 2100POPC   NC328919  26.822  38.459   9.464
 2100POPC   PO428920  26.782  38.422   9.164
 2100POPC   GL128921  26.792  38.501   8.864
 2100POPC   GL228922  26.708  38.367   8.864
 2100POPC   C1A28923  26.813  38.411   8.564
 2100POPC   D2A28924  26.811  38.445   8.264
 2100POPC   C3A28925  26.827  38.468   7.964
 2100POPC   C4A28926  26.866  38.453   7.664
 2100POPC   C1B28927  26.567  38.386   8.564
 2100POPC   C2B28928  26.600  38.370   8.264
 2100POPC   C3B28929  26.575  38.405   7.964
 2100POPC   C4B28930  26.619  38.402   7.664
 2101POPC   NC328931  36.861  10.572   9.464
 2101POPC   PO428932  36.867  10.505   9.164
 2101POPC   GL128933  36.930  10.521   8.864
 2101POPC   GL228934  37.029  10.607   8.864
 2101POPC   C1A28935  36.868  10.481   8.564
 2101POPC   D2A28936  36.914  10.522   8.264
 2101POPC   C3A28937  36.893  10.522   7.964
 2101POPC   C4A28938  36.938  10.539   7.664
 2101POPC   C1B28939  37.086  10.650   8.564
 2101POPC   C2B28940  37.039  10.664   8.264
 2101POPC   C3B28941  37.091  10.647   7.964
 2101POPC   C4B28942  37.122  10.673   7.664
 2102POPC   NC328943  19.863  17.533   9.464
 2102POPC   PO428944  19.797  17.469   9.164
 2102POPC   GL128945  19.861  17.544   8.864
 2102POPC   GL228946  19.799  17.577   8.864
 2102POPC   C1A28947  19.874  17.489   8.564
 2102POPC   D2A28948  19.826  17.522   8.264
 2102POPC   C3A28949  19.831  17.536   7.964
 2102POPC   C4A28950  19.878  17.555   7.664
 2102POPC   C1B28951  19.723  17.709   8.564
 2102POPC   C2B28952  19.679  17.683   8.264
 2102POPC   C3B28953  19.700  17.766   7.964
 2102POPC   C4B28954  19.748  17.753   7.664
 2103POPC   NC328955   2.752  35.378   9.464
 2103POPC   PO428956   2.731  35.306   9.164
 2103POPC   GL128957   2.748  35.393   8.864
 2103POPC   GL228958   2.777  35.453   8.864
 2103POPC   C1A28959   2.742  35.302   8.564
 2103POPC   D2A28960   2.735  35.391   8.264
 2103POPC   C3A28961   2.766  35.356   7.964
 2103POPC   C4A28962   2.815  35.338   7.664
 2103POPC   C1B28963   2.689  35.620   8.564
 2103POPC   C2B28964   2.651  35.640   8.264
 2103POPC   C3B28965   2.699  35.598   7.964
 2103POPC   C4B28966   2.691  35.584   7.664
 2104POPC   NC328967  33.008  11.286   9.464
 2104POPC   PO428968  32.996  11.311   9.164
 2104POPC   GL128969  32.999  11.321   8.864
 2104POPC   GL228970  32.913  11.274   8.864
 2104POPC   C1A28971  33.006  11.255   8.564
 2104POPC   D2A28972  32.993  11.319   8.264
 2104POPC   C3A28973  32.989  11.303   7.964
 2104POPC   C4A28974  32.997  11.325   7.664
 2104POPC   C1B28975  32.770  11.233   8.564
 2104POPC   C2B28976  32.805  11.282   8.264
 2104POPC   C3B28977  32.766  11.277   7.964
 2104POPC   C4B28978  32.802  11.273   7.664
 2105POPC   NC328979   9.712  17.498   9.464
 2105POPC   PO428980   9.754  17.503   9.164
 2105POPC   GL128981   9.782  17.525   8.864
 2105POPC   GL228982   9.658  17.420   8.864
 2105POPC   C1A28983   9.776  17.509   8.564
 2105POPC   D2A28984   9.761  17.533   8.264
 2105POPC   C3A28985   9.794  17.495   7.964
 2105POPC   C4A28986   9.791  17.475   7.664
 2105POPC   C1B28987   9.518  17.342   8.564
 2105POPC   C2B28988   9.500  17.399   8.264
 2105POPC   C3B28989   9.557  17.390   7.964
 2105POPC   C4B28990   9.578  17.347   7.664
 2106POPC   NC328991  16.716   5.065   9.464
 2106POPC   PO428992  16.731   5.091   9.164
 2106POPC   GL128993  16.740   5.047   8.864
 2106POPC   GL228994  16.623   5.038   8.864
 2106POPC   C1A28995  16.713   5.125   8.564
 2106POPC   D2A28996  16.779   5.099   8.264
 2106POPC   C3A28997  16.746   5.091   7.964
 2106POPC   C4A28998  16.689   5.074   7.664
 2106POPC   C1B28999  16.519   4.913   8.564
 2106POPC   C2B29000  16.610   4.940   8.264
 2106POPC   C3B29001  16.576   4.881   7.964
 2106POPC   C4B29002  16.542   4.907   7.664
 2107POPC   NC329003  11.266  21.383   9.464
 2107POPC   PO429004  11.332  21.405   9.164
 2107POPC   GL129005  11.287  21.369   8.864
 2107POPC   GL229006  11.301  21.247   8.864
 2107POPC   C1A29007  11.287  21.424   8.564
 2107POPC   D2A29008  11.286  21.340   8.264
 2107POPC   C3A29009  11.293  21.376   7.964
 2107POPC   C4A29010  11.280  21.355   7.664
 2107POPC   C1B29011  11.283  21.153   8.564
 2107POPC   C2B29012  11.333  21.141   8.264
 2107POPC   C3B29013  11.300  21.115   7.964
 2107POPC   C4B29014  11.356  21.176   7.664
 2108POPC   NC329015  40.759  15.153   9.464
 2108POPC   PO429016  40.831  15.190   9.164
 2108POPC   GL129017  40.778  15.137   8.864
 2108POPC   GL229018  40.886  15.252   8.864
 2108POPC   C1A29019  40.807  15.161   8.564
 2108POPC   D2A29020  40.780  15.159   8.264
 2108POPC   C3A29021  40.769  15.225   7.964
 2108POPC   C4A29022  40.745  15.129   7.664
 2108POPC   C1B29023  40.988  15.270   8.564
 2108POPC   C2B29024  41.028  15.276   8.264
 2108POPC   C3B29025  41.056  15.289   7.964
 2108POPC   C4B29026  41.015  15.275   7.664
 2109POPC   NC329027   1.209  35.338   9.464
 2109POPC   PO429028   1.259  35.363   9.164
 2109POPC   GL129029   1.180  35.304   8.864
 2109POPC   GL229030   1.264  35.416   8.864
 2109POPC   C1A29031   1.215  35.322   8.564
 2109POPC   D2A29032   1.230  35.365   8.264
 2109POPC   C3A29033   1.246  35.360   7.964
 2109POPC   C4A29034   1.245  35.379   7.664
 2109POPC   C1B29035   1.354  35.541   8.564
 2109POPC   C2B29036   1.393  35.535   8.264
 2109POPC   C3B29037   1.420  35.524   7.964
 2109POPC   C4B29038   1.374  35.501   7.664
 2110POPC   NC329039   3.510  19.026   9.464
 2110POPC   PO429040   3.582  19.053   9.164
 2110POPC   GL129041   3.587  19.042   8.864
 2110POPC   GL229042   3.595  19.158   8.864
 2110POPC   C1A29043   3.533  19.052   8.564
 2110POPC   D2A29044   3.498  19.074   8.264
 2110POPC   C3A29045   3.539  19.030   7.964
 2110POPC   C4A29046   3.590  19.093   7.664
 2110POPC   C1B29047   3.631  19.236   8.564
 2110POPC   C2B29048   3.674  19.272   8.264
 2110POPC   C3B29049   3.724  19.263   7.964
 2110POPC   C4B29050   3.657  19.272   7.664
 2111POPC   NC329051  43.882  15.211   9.464
 2111POPC   PO429052  43.903  15.216   9.164
 2111POPC   GL129053  43.918  15.196   8.864
 2111POPC   GL229054  43.910  15.084   8.864
 2111POPC   C1A29055  43.868  15.180   8.564
 2111POPC   D2A29056  43.891  15.160   8.264
 2111POPC   C3A29057  43.845  15.211   7.964
 2111POPC   C4A29058  43.910  15.155   7.664
 2111POPC   C1B29059  43.973  14.903   8.564
 2111POPC   C2B29060  43.882  14.912   8.264
 2111POPC   C3B29061  43.929  14.941   7.964
 2111POPC   C4B29062  43.898  14.902   7.664
 2112POPC   NC329063  30.720  28.336   9.464
 2112POPC   PO429064  30.701  28.334   9.164
 2112POPC   GL129065  30.721  28.338   8.864
 2112POPC   GL229066  30.670  28.257   8.864
 2112POPC   C1A29067  30.659  28.397   8.564
 2112POPC   D2A29068  30.714  28.343   8.264
 2112POPC   C3A29069  30.707  28.341   7.964
 2112POPC   C4A29070  30.720  28.340   7.664
 2112POPC   C1B29071  30.633  28.149   8.564
 2112POPC   C2B29072  30.694  28.127   8.264
 2112POPC   C3B29073  30.670  28.077   7.964
 2112POPC   C4B29074  30.683  28.147   7.664
 2113POPC   NC329075  43.084  39.184   9.464
 2113POPC   PO429076  43.160  39.213   9.164
 2113POPC   GL129077  43.078  39.214   8.864
 2113POPC   GL229078  43.071  39.324   8.864
 2113POPC   C1A29079  43.128  39.248   8.564
 2113POPC   D2A29080  43.125  39.235   8.264
 2113POPC   C3A29081  43.068  39.241   7.964
 2113POPC   C4A29082  43.106  39.261   7.664
 2113POPC   C1B29083  43.117  39.486   8.564
 2113POPC   C2B29084  43.071  39.527   8.264
 2113POPC   C3B29085  43.140  39.448   7.964
 2113POPC   C4B29086  43.097  39.495   7.664
 2114POPC   NC329087   1.178   1.166   9.464
 2114POPC   PO429088   1.176   1.253   9.164
 2114POPC   GL129089   1.186   1.237   8.864
 2114POPC   GL229090   1.098   1.242   8.864
 2114POPC   C1A29091   1.193   1.249   8.564
 2114POPC   D2A29092   1.227   1.239   8.264
 2114POPC   C3A29093   1.231   1.251   7.964
 2114POPC   C4A29094   1.167   1.248   7.664
 2114POPC   C1B29095   1.062   1.336   8.564
 2114POPC   C2B29096   1.061   1.351   8.264
 2114POPC   C3B29097   1.058   1.415   7.964
 2114POPC   C4B29098   0.973   1.405   7.664
 2115POPC   NC329099  39.182  19.827   9.464
 2115POPC   PO429100  39.244  19.835   9.164
 2115POPC   GL129101  39.261  19.810   8.864
 2115POPC   GL229102  39.082  19.752   8.864
 2115POPC   C1A29103  39.270  19.833   8.564
 2115POPC   D2A29104  39.277  19.829   8.264
 2115POPC   C3A29105  39.209  19.859   7.964
 2115POPC   C4A29106  39.267  19.850   7.664
 2115POPC   C1B29107  39.067  19.646   8.564
 2115POPC   C2B29108  38.998  19.645   8.264
 2115POPC   C3B29109  39.003  19.692   7.964
 2115POPC   C4B29110  38.996  19.692   7.664
 2116POPC   NC329111  29.154  28.348   9.464
 2116POPC   PO429112  29.138  28.367   9.164
 2116POPC   GL129113  29.112  28.380   8.864
 2116POPC   GL229114  29.049  28.456   8.864
 2116POPC   C1A29115  29.194  28.323   8.564
 2116POPC   D2A29116  29.128  28.372   8.264
 2116POPC   C3A29117  29.135  28.348   7.964
 2116POPC   C4A29118  29.171  28.337   7.664
 2116POPC   C1B29119  29.074  28.602   8.564
 2116POPC   C2B29120  29.003  28.601   8.264
 2116POPC   C3B29121  29.080  28.610   7.964
 2116POPC   C4B29122  29.003  28.631   7.664
 2117POPC   NC329123   6.642   2.764   9.464
 2117POPC   PO429124   6.680   2.782   9.164
 2117POPC   GL129125   6.603   2.756   8.864
 2117POPC   GL229126   6.694   2.633   8.864
 2117POPC   C1A29127   6.644   2.761   8.564
 2117POPC   D2A29128   6.620   2.754   8.264
 2117POPC   C3A29129   6.648   2.806   7.964
 2117POPC   C4A29130   6.693   2.792   7.664
 2117POPC   C1B29131   6.791   2.504   8.564
 2117POPC   C2B29132   6.783   2.517   8.264
 2117POPC   C3B29133   6.779   2.574   7.964
 2117POPC   C4B29134   6.743   2.556   7.664
 2118POPC   NC329135  26.049   6.610   9.464
 2118POPC   PO429136  26.009   6.676   9.164
 2118POPC   GL129137  26.091   6.695   8.864
 2118POPC   GL229138  26.057   6.543   8.864
 2118POPC   C1A29139  26.016   6.654   8.564
 2118POPC   D2A29140  26.089   6.601   8.264
 2118POPC   C3A29141  26.000   6.619   7.964
 2118POPC   C4A29142  26.061   6.671   7.664
 2118POPC   C1B29143  26.118   6.370   8.564
 2118POPC   C2B29144  26.054   6.356   8.264
 2118POPC   C3B29145  26.063   6.428   7.964
 2118POPC   C4B29146  26.057   6.376   7.664
 2119POPC   NC329147  11.333  20.570   9.464
 2119POPC   PO429148  11.268  20.660   9.164
 2119POPC   GL129149  11.305  20.599   8.864
 2119POPC   GL229150  11.344  20.743   8.864
 2119POPC   C1A29151  11.288  20.625   8.564
 2119POPC   D2A29152  11.301  20.602   8.264
 2119POPC   C3A29153  11.293  20.577   7.964
 2119POPC   C4A29154  11.348  20.587   7.664
 2119POPC   C1B29155  11.324  20.884   8.564
 2119POPC   C2B29156  11.308  20.877   8.264
 2119POPC   C3B29157  11.314  20.825   7.964
 2119POPC   C4B29158  11.266  20.869   7.664
 2120POPC   NC329159  37.718   4.327   9.464
 2120POPC   PO429160  37.651   4.281   9.164
 2120POPC   GL129161  37.697   4.349   8.864
 2120POPC   GL229162  37.699   4.219   8.864
 2120POPC   C1A29163  37.719   4.344   8.564
 2120POPC   D2A29164  37.701   4.325   8.264
 2120POPC   C3A29165  37.663   4.343   7.964
 2120POPC   C4A29166  37.711   4.318   7.664
 2120POPC   C1B29167  37.777   4.047   8.564
 2120POPC   C2B29168  37.786   4.052   8.264
 2120POPC   C3B29169  37.787   4.053   7.964
 2120POPC   C4B29170  37.734   4.114   7.664
 2121POPC   NC329171   2.730   0.413   9.464
 2121POPC   PO429172   2.787   0.421   9.164
 2121POPC   GL129173   2.792   0.449   8.864
 2121POPC   GL229174   2.633   0.386   8.864
 2121POPC   C1A29175   2.788   0.432   8.564
 2121POPC   D2A29176   2.720   0.462   8.264
 2121POPC   C3A29177   2.805   0.456   7.964
 2121POPC   C4A29178   2.791   0.393   7.664
 2121POPC   C1B29179   2.593   0.364   8.564
 2121POPC   C2B29180   2.529   0.342   8.264
 2121POPC   C3B29181   2.550   0.355   7.964
 2121POPC   C4B29182   2.515   0.326   7.664
 2122POPC   NC329183  44.709   9.707   9.464
 2122POPC   PO429184  44.637   9.742   9.164
 2122POPC   GL129185  44.655   9.753   8.864
 2122POPC   GL229186  44.629   9.811   8.864
 2122POPC   C1A29187  44.677   9.757   8.564
 2122POPC   D2A29188  44.678   9.739   8.264
 2122POPC   C3A29189  44.693   9.784   7.964
 2122POPC   C4A29190  44.636   9.743   7.664
 2122POPC   C1B29191  44.503   9.968   8.564
 2122POPC   C2B29192  44.541   9.960   8.264
 2122POPC   C3B29193  44.512   9.970   7.964
 2122POPC   C4B29194  44.504  10.007   7.664
 2123POPC   NC329195  10.487  29.874   9.464
 2123POPC   PO429196  10.553  29.951   9.164
 2123POPC   GL129197  10.503  29.955   8.864
 2123POPC   GL229198  10.436  29.878   8.864
 2123POPC   C1A29199  10.560  29.947   8.564
 2123POPC   D2A29200  10.551  29.950   8.264
 2123POPC   C3A29201  10.559  29.929   7.964
 2123POPC   C4A29202  10.550  29.905   7.664
 2123POPC   C1B29203  10.319  29.917   8.564
 2123POPC   C2B29204  10.271  29.909   8.264
 2123POPC   C3B29205  10.246  29.901   7.964
 2123POPC   C4B29206  10.273  29.937   7.664
 2124POPC   NC329207  35.369   5.863   9.464
 2124POPC   PO429208  35.371   5.839   9.164
 2124POPC   GL129209  35.401   5.862   8.864
 2124POPC   GL229210  35.267   5.951   8.864
 2124POPC   C1A29211  35.342   5.831   8.564
 2124POPC   D2A29212  35.332   5.872   8.264
 2124POPC   C3A29213  35.335   5.834   7.964
 2124POPC   C4A29214  35.340   5.912   7.664
 2124POPC   C1B29215  35.139   5.975   8.564
 2124POPC   C2B29216  35.112   5.986   8.264
 2124POPC   C3B29217  35.109   5.923   7.964
 2124POPC   C4B29218  35.104   6.005   7.664
 2125POPC   NC329219  26.807  13.597   9.464
 2125POPC   PO429220  26.836  13.600   9.164
 2125POPC   GL129221  26.839  13.594   8.864
 2125POPC   GL229222  26.737  13.535   8.864
 2125POPC   C1A29223  26.819  13.630   8.564
 2125POPC   D2A29224  26.781  13.667   8.264
 2125POPC   C3A29225  26.814  13.641   7.964
 2125POPC   C4A29226  26.767  13.677   7.664
 2125POPC   C1B29227  26.607  13.426   8.564
 2125POPC   C2B29228  26.611  13.457   8.264
 2125POPC   C3B29229  26.583  13.505   7.964
 2125POPC   C4B29230  26.639  13.418   7.664
 2126POPC   NC329231  42.321  10.538   9.464
 2126POPC   PO429232  42.301  10.567   9.164
 2126POPC   GL129233  42.381  10.518   8.864
 2126POPC   GL229234  42.484  10.544   8.864
 2126POPC   C1A29235  42.336  10.552   8.564
 2126POPC   D2A29236  42.382  10.555   8.264
 2126POPC   C3A29237  42.308  10.485   7.964
 2126POPC   C4A29238  42.332  10.546   7.664
 2126POPC   C1B29239  42.542  10.459   8.564
 2126POPC   C2B29240  42.553  10.514   8.264
 2126POPC   C3B29241  42.593  10.496   7.964
 2126POPC   C4B29242  42.543  10.496   7.664
 2127POPC   NC329243  11.256  22.175   9.464
 2127POPC   PO429244  11.272  22.176   9.164
 2127POPC   GL129245  11.322  22.116   8.864
 2127POPC   GL229246  11.180  22.223   8.864
 2127POPC   C1A29247  11.337  22.153   8.564
 2127POPC   D2A29248  11.335  22.163   8.264
 2127POPC   C3A29249  11.294  22.184   7.964
 2127POPC   C4A29250  11.347  22.196   7.664
 2127POPC   C1B29251  11.118  22.235   8.564
 2127POPC   C2B29252  11.065  22.248   8.264
 2127POPC   C3B29253  11.109  22.303   7.964
 2127POPC   C4B29254  11.034  22.301   7.664
 2128POPC   NC329255  17.483  22.184   9.464
 2128POPC   PO429256  17.516  22.138   9.164
 2128POPC   GL129257  17.514  22.173   8.864
 2128POPC   GL229258  17.504  22.276   8.864
 2128POPC   C1A29259  17.531  22.208   8.564
 2128POPC   D2A29260  17.530  22.150   8.264
 2128POPC   C3A29261  17.501  22.190   7.964
 2128POPC   C4A29262  17.541  22.157   7.664
 2128POPC   C1B29263  17.476  22.398   8.564
 2128POPC   C2B29264  17.563  22.384   8.264
 2128POPC   C3B29265  17.538  22.449   7.964
 2128POPC   C4B29266  17.538  22.401   7.664
 2129POPC   NC329267   8.938   2.799   9.464
 2129POPC   PO429268   8.996   2.792   9.164
 2129POPC   GL129269   9.015   2.765   8.864
 2129POPC   GL229270   9.146   2.818   8.864
 2129POPC   C1A29271   8.948   2.756   8.564
 2129POPC   D2A29272   9.009   2.784   8.264
 2129POPC   C3A29273   8.939   2.737   7.964
 2129POPC   C4A29274   8.988   2.745   7.664
 2129POPC   C1B29275   9.263   2.764   8.564
 2129POPC   C2B29276   9.179   2.790   8.264
 2129POPC   C3B29277   9.240   2.810   7.964
 2129POPC   C4B29278   9.268   2.807   7.664
 2130POPC   NC329279  38.477   5.064   9.464
 2130POPC   PO429280  38.505   5.087   9.164
 2130POPC   GL129281  38.424   5.054   8.864
 2130POPC   GL229282  38.449   4.960   8.864
 2130POPC   C1A29283  38.452   5.112   8.564
 2130POPC   D2A29284  38.470   5.066   8.264
 2130POPC   C3A29285  38.448   5.048   7.964
 2130POPC   C4A29286  38.447   5.060   7.664
 2130POPC   C1B29287  38.356   4.879   8.564
 2130POPC   C2B29288  38.397   4.885   8.264
 2130POPC   C3B29289  38.400   4.815   7.964
 2130POPC   C4B29290  38.357   4.821   7.664
 2131POPC   NC329291   8.955  17.498   9.464
 2131POPC   PO429292   8.933  17.535   9.164
 2131POPC   GL129293   8.990  17.515   8.864
 2131POPC   GL229294   8.822  17.481   8.864
 2131POPC   C1A29295   9.007  17.489   8.564
 2131POPC   D2A29296   8.942  17.543   8.264
 2131POPC   C3A29297   8.975  17.489   7.964
 2131POPC   C4A29298   9.020  17.529   7.664
 2131POPC   C1B29299   8.721  17.549   8.564
 2131POPC   C2B29300   8.706  17.527   8.264
 2131POPC   C3B29301   8.687  17.528   7.964
 2131POPC   C4B29302   8.747  17.530   7.664
 2132POPC   NC329303  18.238  41.528   9.464
 2132POPC   PO429304  18.266  41.568   9.164
 2132POPC   GL129305  18.324  41.583   8.864
 2132POPC   GL229306  18.126  41.511   8.864
 2132POPC   C1A29307  18.300  41.602   8.564
 2132POPC   D2A29308  18.255  41.542   8.264
 2132POPC   C3A29309  18.302  41.516   7.964
 2132POPC   C4A29310  18.328  41.537   7.664
 2132POPC   C1B29311  18.040  41.546   8.564
 2132POPC   C2B29312  18.012  41.511   8.264
 2132POPC   C3B29313  18.030  41.492   7.964
 2132POPC   C4B29314  18.070  41.529   7.664
 2133POPC   NC329315  25.993  39.959   9.464
 2133POPC   PO429316  26.033  39.994   9.164
 2133POPC   GL129317  25.997  40.020   8.864
 2133POPC   GL229318  26.179  40.057   8.864
 2133POPC   C1A29319  26.064  39.971   8.564
 2133POPC   D2A29320  26.069  40.025   8.264
 2133POPC   C3A29321  26.033  40.015   7.964
 2133POPC   C4A29322  26.040  39.985   7.664
 2133POPC   C1B29323  26.319  40.072   8.564
 2133POPC   C2B29324  26.337  40.074   8.264
 2133POPC   C3B29325  26.239  40.079   7.964
 2133POPC   C4B29326  26.292  40.031   7.664
 2134POPC   NC329327  43.856  22.131   9.464
 2134POPC   PO429328  43.927  22.189   9.164
 2134POPC   GL129329  43.851  22.201   8.864
 2134POPC   GL229330  43.792  22.095   8.864
 2134POPC   C1A29331  43.857  22.188   8.564
 2134POPC   D2A29332  43.852  22.120   8.264
 2134POPC   C3A29333  43.874  22.132   7.964
 2134POPC   C4A29334  43.838  22.190   7.664
 2134POPC   C1B29335  43.688  21.999   8.564
 2134POPC   C2B29336  43.664  21.978   8.264
 2134POPC   C3B29337  43.679  21.970   7.964
 2134POPC   C4B29338  43.719  22.014   7.664
 2135POPC   NC329339  33.795  20.588   9.464
 2135POPC   PO429340  33.793  20.655   9.164
 2135POPC   GL129341  33.800  20.598   8.864
 2135POPC   GL229342  33.740  20.471   8.864
 2135POPC   C1A29343  33.768  20.616   8.564
 2135POPC   D2A29344  33.820  20.618   8.264
 2135POPC   C3A29345  33.782  20.654   7.964
 2135POPC   C4A29346  33.817  20.597   7.664
 2135POPC   C1B29347  33.666  20.369   8.564
 2135POPC   C2B29348  33.675  20.349   8.264
 2135POPC   C3B29349  33.686  20.360   7.964
 2135POPC   C4B29350  33.680  20.352   7.664
 2136POPC   NC329351  12.086  18.270   9.464
 2136POPC   PO429352  12.104  18.329   9.164
 2136POPC   GL129353  12.102  18.300   8.864
 2136POPC   GL229354  11.981  18.197   8.864
 2136POPC   C1A29355  12.045  18.258   8.564
 2136POPC   D2A29356  12.089  18.271   8.264
 2136POPC   C3A29357  12.074  18.282   7.964
 2136POPC   C4A29358  12.077  18.265   7.664
 2136POPC   C1B29359  11.979  18.049   8.564
 2136POPC   C2B29360  11.996  18.073   8.264
 2136POPC   C3B29361  12.016  18.050   7.964
 2136POPC   C4B29362  12.015  18.078   7.664
 2137POPC   NC329363  23.736   7.433   9.464
 2137POPC   PO429364  23.726   7.465   9.164
 2137POPC   GL129365  23.669   7.374   8.864
 2137POPC   GL229366  23.774   7.456   8.864
 2137POPC   C1A29367  23.708   7.432   8.564
 2137POPC   D2A29368  23.716   7.374   8.264
 2137POPC   C3A29369  23.745   7.425   7.964
 2137POPC   C4A29370  23.674   7.466   7.664
 2137POPC   C1B29371  23.855   7.545   8.564
 2137POPC   C2B29372  23.879   7.562   8.264
 2137POPC   C3B29373  23.927   7.632   7.964
 2137POPC   C4B29374  23.884   7.615   7.664
 2138POPC   NC329375  14.384  44.682   9.464
 2138POPC   PO429376  14.406  44.708   9.164
 2138POPC   GL129377  14.366  44.688   8.864
 2138POPC   GL229378  14.240  44.590   8.864
 2138POPC   C1A29379  14.446  44.694   8.564
 2138POPC   D2A29380  14.354  44.696   8.264
 2138POPC   C3A29381  14.438  44.622   7.964
 2138POPC   C4A29382  14.445  44.655   7.664
 2138POPC   C1B29383  14.215  44.590   8.564
 2138POPC   C2B29384  14.149  44.622   8.264
 2138POPC   C3B29385  14.197  44.602   7.964
 2138POPC   C4B29386  14.218  44.533   7.664
 2139POPC   NC329387  32.282  15.134   9.464
 2139POPC   PO429388  32.207  15.210   9.164
 2139POPC   GL129389  32.280  15.135   8.864
 2139POPC   GL229390  32.297  15.023   8.864
 2139POPC   C1A29391  32.200  15.145   8.564
 2139POPC   D2A29392  32.261  15.203   8.264
 2139POPC   C3A29393  32.240  15.171   7.964
 2139POPC   C4A29394  32.240  15.138   7.664
 2139POPC   C1B29395  32.374  14.947   8.564
 2139POPC   C2B29396  32.375  14.996   8.264
 2139POPC   C3B29397  32.302  14.960   7.964
 2139POPC   C4B29398  32.367  14.910   7.664
 2140POPC   NC329399  33.812  33.813   9.464
 2140POPC   PO429400  33.772  33.803   9.164
 2140POPC   GL129401  33.810  33.752   8.864
 2140POPC   GL229402  33.919  33.873   8.864
 2140POPC   C1A29403  33.790  33.850   8.564
 2140POPC   D2A29404  33.838  33.782   8.264
 2140POPC   C3A29405  33.815  33.779   7.964
 2140POPC   C4A29406  33.833  33.815   7.664
 2140POPC   C1B29407  34.086  33.918   8.564
 2140POPC   C2B29408  34.071  33.825   8.264
 2140POPC   C3B29409  34.000  33.870   7.964
 2140POPC   C4B29410  34.056  33.911   7.664
 2141POPC   NC329411   1.986  38.483   9.464
 2141POPC   PO429412   1.989  38.500   9.164
 2141POPC   GL129413   2.015  38.469   8.864
 2141POPC   GL229414   2.016  38.383   8.864
 2141POPC   C1A29415   1.945  38.449   8.564
 2141POPC   D2A29416   1.942  38.481   8.264
 2141POPC   C3A29417   1.968  38.465   7.964
 2141POPC   C4A29418   1.946  38.424   7.664
 2141POPC   C1B29419   2.157  38.233   8.564
 2141POPC   C2B29420   2.165  38.211   8.264
 2141POPC   C3B29421   2.070  38.247   7.964
 2141POPC   C4B29422   2.099  38.224   7.664
 2142POPC   NC329423  16.719  12.810   9.464
 2142POPC   PO429424  16.710  12.840   9.164
 2142POPC   GL129425  16.758  12.819   8.864
 2142POPC   GL229426  16.672  12.753   8.864
 2142POPC   C1A29427  16.746  12.859   8.564
 2142POPC   D2A29428  16.744  12.807   8.264
 2142POPC   C3A29429  16.732  12.819   7.964
 2142POPC   C4A29430  16.752  12.897   7.664
 2142POPC   C1B29431  16.683  12.590   8.564
 2142POPC   C2B29432  16.629  12.650   8.264
 2142POPC   C3B29433  16.646  12.604   7.964
 2142POPC   C4B29434  16.618  12.587   7.664
 2143POPC   NC329435   4.362  28.353   9.464
 2143POPC   PO429436   4.269  28.329   9.164
 2143POPC   GL129437   4.307  28.329   8.864
 2143POPC   GL229438   4.348  28.541   8.864
 2143POPC   C1A29439   4.318  28.392   8.564
 2143POPC   D2A29440   4.352  28.357   8.264
 2143POPC   C3A29441   4.349  28.338   7.964
 2143POPC   C4A29442   4.292  28.416   7.664
 2143POPC   C1B29443   4.314  28.633   8.564
 2143POPC   C2B29444   4.327  28.611   8.264
 2143POPC   C3B29445   4.305  28.616   7.964
 2143POPC   C4B29446   4.284  28.635   7.664
 2144POPC   NC329447  42.344  14.419   9.464
 2144POPC   PO429448  42.380  14.443   9.164
 2144POPC   GL129449  42.353  14.399   8.864
 2144POPC   GL229450  42.436  14.522   8.864
 2144POPC   C1A29451  42.294  14.357   8.564
 2144POPC   D2A29452  42.347  14.368   8.264
 2144POPC   C3A29453  42.321  14.452   7.964
 2144POPC   C4A29454  42.378  14.409   7.664
 2144POPC   C1B29455  42.516  14.590   8.564
 2144POPC   C2B29456  42.470  14.555   8.264
 2144POPC   C3B29457  42.523  14.590   7.964
 2144POPC   C4B29458  42.458  14.551   7.664
 2145POPC   NC329459  19.053  37.668   9.464
 2145POPC   PO429460  19.009  37.632   9.164
 2145POPC   GL129461  19.037  37.706   8.864
 2145POPC   GL229462  19.142  37.740   8.864
 2145POPC   C1A29463  19.097  37.652   8.564
 2145POPC   D2A29464  19.032  37.643   8.264
 2145POPC   C3A29465  19.047  37.638   7.964
 2145POPC   C4A29466  19.089  37.639   7.664
 2145POPC   C1B29467  19.269  37.856   8.564
 2145POPC   C2B29468  19.208  37.816   8.264
 2145POPC   C3B29469  19.240  37.880   7.964
 2145POPC   C4B29470  19.256  37.897   7.664
 2146POPC   NC329471  43.098   8.178   9.464
 2146POPC   PO429472  43.063   8.225   9.164
 2146POPC   GL129473  43.157   8.207   8.864
 2146POPC   GL229474  43.189   8.311   8.864
 2146POPC   C1A29475  43.073   8.198   8.564
 2146POPC   D2A29476  43.085   8.187   8.264
 2146POPC   C3A29477  43.131   8.211   7.964
 2146POPC   C4A29478  43.080   8.228   7.664
 2146POPC   C1B29479  43.346   8.336   8.564
 2146POPC   C2B29480  43.323   8.291   8.264
 2146POPC   C3B29481  43.335   8.291   7.964
 2146POPC   C4B29482  43.268   8.301   7.664
 2147POPC   NC329483  39.278   6.687   9.464
 2147POPC   PO429484  39.181   6.676   9.164
 2147POPC   GL129485  39.201   6.624   8.864
 2147POPC   GL229486  39.155   6.618   8.864
 2147POPC   C1A29487  39.241   6.693   8.564
 2147POPC   D2A29488  39.280   6.609   8.264
 2147POPC   C3A29489  39.249   6.640   7.964
 2147POPC   C4A29490  39.222   6.675   7.664
 2147POPC   C1B29491  38.932   6.701   8.564
 2147POPC   C2B29492  38.956   6.643   8.264
 2147POPC   C3B29493  39.022   6.633   7.964
 2147POPC   C4B29494  38.996   6.648   7.664
 2148POPC   NC329495  26.005  11.263   9.464
 2148POPC   PO429496  26.046  11.299   9.164
 2148POPC   GL129497  26.075  11.285   8.864
 2148POPC   GL229498  26.074  11.217   8.864
 2148POPC   C1A29499  26.075  11.285   8.564
 2148POPC   D2A29500  26.084  11.251   8.264
 2148POPC   C3A29501  26.039  11.298   7.964
 2148POPC   C4A29502  26.084  11.293   7.664
 2148POPC   C1B29503  26.077  11.066   8.564
 2148POPC   C2B29504  26.155  11.105   8.264
 2148POPC   C3B29505  26.135  11.093   7.964
 2148POPC   C4B29506  26.138  11.099   7.664
 2149POPC   NC329507   0.407  16.751   9.464
 2149POPC   PO429508   0.444  16.684   9.164
 2149POPC   GL129509   0.461  16.730   8.864
 2149POPC   GL229510   0.534  16.646   8.864
 2149POPC   C1A29511   0.479  16.758   8.564
 2149POPC   D2A29512   0.473  16.701   8.264
 2149POPC   C3A29513   0.486  16.726   7.964
 2149POPC   C4A29514   0.393  16.770   7.664
 2149POPC   C1B29515   0.665  16.605   8.564
 2149POPC   C2B29516   0.642  16.574   8.264
 2149POPC   C3B29517   0.650  16.608   7.964
 2149POPC   C4B29518   0.620  16.629   7.664
 2150POPC   NC329519  16.746   3.583   9.464
 2150POPC   PO429520  16.753   3.535   9.164
 2150POPC   GL129521  16.776   3.559   8.864
 2150POPC   GL229522  16.793   3.461   8.864
 2150POPC   C1A29523  16.724   3.522   8.564
 2150POPC   D2A29524  16.741   3.496   8.264
 2150POPC   C3A29525  16.683   3.519   7.964
 2150POPC   C4A29526  16.748   3.499   7.664
 2150POPC   C1B29527  16.882   3.355   8.564
 2150POPC   C2B29528  16.877   3.304   8.264
 2150POPC   C3B29529  16.853   3.283   7.964
 2150POPC   C4B29530  16.891   3.319   7.664
 2151POPC   NC329531  19.788  14.439   9.464
 2151POPC   PO429532  19.807  14.366   9.164
 2151POPC   GL129533  19.867  14.431   8.864
 2151POPC   GL229534  19.775  14.525   8.864
 2151POPC   C1A29535  19.830  14.359   8.564
 2151POPC   D2A29536  19.814  14.374   8.264
 2151POPC   C3A29537  19.794  14.385   7.964
 2151POPC   C4A29538  19.874  14.362   7.664
 2151POPC   C1B29539  19.816  14.623   8.564
 2151POPC   C2B29540  19.755  14.655   8.264
 2151POPC   C3B29541  19.833  14.612   7.964
 2151POPC   C4B29542  19.759  14.613   7.664
 2152POPC   NC329543   0.473   0.428   9.464
 2152POPC   PO429544   0.450   0.390   9.164
 2152POPC   GL129545   0.473   0.449   8.864
 2152POPC   GL229546   0.440   0.277   8.864
 2152POPC   C1A29547   0.403   0.422   8.564
 2152POPC   D2A29548   0.463   0.476   8.264
 2152POPC   C3A29549   0.444   0.409   7.964
 2152POPC   C4A29550   0.427   0.476   7.664
 2152POPC   C1B29551   0.382   0.210   8.564
 2152POPC   C2B29552   0.353   0.146   8.264
 2152POPC   C3B29553   0.451   0.184   7.964
 2152POPC   C4B29554   0.363   0.225   7.664
 2153POPC   NC329555  37.661  26.774   9.464
 2153POPC   PO429556  37.687  26.790   9.164
 2153POPC   GL129557  37.691  26.834   8.864
 2153POPC   GL229558  37.624  26.985   8.864
 2153POPC   C1A29559  37.723  26.834   8.564
 2153POPC   D2A29560  37.652  26.847   8.264
 2153POPC   C3A29561  37.690  26.864   7.964
 2153POPC   C4A29562  37.709  26.809   7.664
 2153POPC   C1B29563  37.633  27.038   8.564
 2153POPC   C2B29564  37.642  27.038   8.264
 2153POPC   C3B29565  37.689  27.064   7.964
 2153POPC   C4B29566  37.602  27.024   7.664
 2154POPC   NC329567  26.794   2.771   9.464
 2154POPC   PO429568  26.852   2.721   9.164
 2154POPC   GL129569  26.828   2.752   8.864
 2154POPC   GL229570  26.858   2.688   8.864
 2154POPC   C1A29571  26.788   2.742   8.564
 2154POPC   D2A29572  26.813   2.754   8.264
 2154POPC   C3A29573  26.842   2.812   7.964
 2154POPC   C4A29574  26.837   2.780   7.664
 2154POPC   C1B29575  26.962   2.525   8.564
 2154POPC   C2B29576  26.936   2.562   8.264
 2154POPC   C3B29577  26.943   2.616   7.964
 2154POPC   C4B29578  26.978   2.565   7.664
 2155POPC   NC329579   3.585  15.983   9.464
 2155POPC   PO429580   3.559  15.985   9.164
 2155POPC   GL129581   3.551  15.981   8.864
 2155POPC   GL229582   3.504  16.033   8.864
 2155POPC   C1A29583   3.564  16.002   8.564
 2155POPC   D2A29584   3.523  15.981   8.264
 2155POPC   C3A29585   3.511  15.914   7.964
 2155POPC   C4A29586   3.586  15.921   7.664
 2155POPC   C1B29587   3.364  16.159   8.564
 2155POPC   C2B29588   3.386  16.158   8.264
 2155POPC   C3B29589   3.417  16.171   7.964
 2155POPC   C4B29590   3.364  16.193   7.664
 2156POPC   NC329591  23.698   0.391   9.464
 2156POPC   PO429592  23.749   0.459   9.164
 2156POPC   GL129593  23.667   0.441   8.864
 2156POPC   GL229594  23.727   0.557   8.864
 2156POPC   C1A29595  23.719   0.481   8.564
 2156POPC   D2A29596  23.686   0.481   8.264
 2156POPC   C3A29597  23.677   0.478   7.964
 2156POPC   C4A29598  23.680   0.390   7.664
 2156POPC   C1B29599  23.766   0.621   8.564
 2156POPC   C2B29600  23.799   0.623   8.264
 2156POPC   C3B29601  23.833   0.651   7.964
 2156POPC   C4B29602  23.807   0.620   7.664
 2157POPC   NC329603  41.573  26.775   9.464
 2157POPC   PO429604  41.541  26.789   9.164
 2157POPC   GL129605  41.602  26.852   8.864
 2157POPC   GL229606  41.446  26.829   8.864
 2157POPC   C1A29607  41.571  26.790   8.564
 2157POPC   D2A29608  41.526  26.849   8.264
 2157POPC   C3A29609  41.601  26.812   7.964
 2157POPC   C4A29610  41.591  26.779   7.664
 2157POPC   C1B29611  41.286  26.891   8.564
 2157POPC   C2B29612  41.356  26.964   8.264
 2157POPC   C3B29613  41.370  26.900   7.964
 2157POPC   C4B29614  41.302  26.914   7.664
 2158POPC   NC329615  28.363  13.610   9.464
 2158POPC   PO429616  28.327  13.587   9.164
 2158POPC   GL129617  28.338  13.606   8.864
 2158POPC   GL229618  28.363  13.455   8.864
 2158POPC   C1A29619  28.327  13.583   8.564
 2158POPC   D2A29620  28.403  13.626   8.264
 2158POPC   C3A29621  28.404  13.633   7.964
 2158POPC   C4A29622  28.325  13.608   7.664
 2158POPC   C1B29623  28.364  13.360   8.564
 2158POPC   C2B29624  28.341  13.397   8.264
 2158POPC   C3B29625  28.383  13.390   7.964
 2158POPC   C4B29626  28.377  13.416   7.664
 2159POPC   NC329627  18.314  28.395   9.464
 2159POPC   PO429628  18.323  28.345   9.164
 2159POPC   GL129629  18.292  28.367   8.864
 2159POPC   GL229630  18.353  28.423   8.864
 2159POPC   C1A29631  18.277  28.331   8.564
 2159POPC   D2A29632  18.270  28.327   8.264
 2159POPC   C3A29633  18.271  28.374   7.964
 2159POPC   C4A29634  18.294  28.335   7.664
 2159POPC   C1B29635  18.416  28.551   8.564
 2159POPC   C2B29636  18.448  28.519   8.264
 2159POPC   C3B29637  18.399  28.542   7.964
 2159POPC   C4B29638  18.435  28.579   7.664
 2160POPC   NC329639   0.407  19.790   9.464
 2160POPC   PO429640   0.418  19.850   9.164
 2160POPC   GL129641   0.475  19.807   8.864
 2160POPC   GL229642   0.372  19.715   8.864
 2160POPC   C1A29643   0.417  19.860   8.564
 2160POPC   D2A29644   0.410  19.872   8.264
 2160POPC   C3A29645   0.394  19.816   7.964
 2160POPC   C4A29646   0.462  19.822   7.664
 2160POPC   C1B29647   0.222  19.634   8.564
 2160POPC   C2B29648   0.258  19.687   8.264
 2160POPC   C3B29649   0.255  19.694   7.964
 2160POPC   C4B29650   0.299  19.645   7.664
 2161POPC   NC329651  23.756  17.496   9.464
 2161POPC   PO429652  23.693  17.480   9.164
 2161POPC   GL129653  23.751  17.516   8.864
 2161POPC   GL229654  23.592  17.508   8.864
 2161POPC   C1A29655  23.710  17.534   8.564
 2161POPC   D2A29656  23.748  17.531   8.264
 2161POPC   C3A29657  23.743  17.523   7.964
 2161POPC   C4A29658  23.677  17.491   7.664
 2161POPC   C1B29659  23.425  17.507   8.564
 2161POPC   C2B29660  23.513  17.469   8.264
 2161POPC   C3B29661  23.498  17.508   7.964
 2161POPC   C4B29662  23.461  17.521   7.664
 2162POPC   NC329663  19.884   8.215   9.464
 2162POPC   PO429664  19.790   8.196   9.164
 2162POPC   GL129665  19.813   8.166   8.864
 2162POPC   GL229666  19.779   8.315   8.864
 2162POPC   C1A29667  19.870   8.156   8.564
 2162POPC   D2A29668  19.815   8.230   8.264
 2162POPC   C3A29669  19.872   8.155   7.964
 2162POPC   C4A29670  19.856   8.224   7.664
 2162POPC   C1B29671  19.708   8.426   8.564
 2162POPC   C2B29672  19.703   8.384   8.264
 2162POPC   C3B29673  19.728   8.462   7.964
 2162POPC   C4B29674  19.745   8.447   7.664
 2163POPC   NC329675  40.756  19.038   9.464
 2163POPC   PO429676  40.808  19.069   9.164
 2163POPC   GL129677  40.822  19.027   8.864
 2163POPC   GL229678  40.786  19.178   8.864
 2163POPC   C1A29679  40.823  19.075   8.564
 2163POPC   D2A29680  40.779  19.081   8.264
 2163POPC   C3A29681  40.809  19.107   7.964
 2163POPC   C4A29682  40.832  19.040   7.664
 2163POPC   C1B29683  40.769  19.327   8.564
 2163POPC   C2B29684  40.748  19.332   8.264
 2163POPC   C3B29685  40.821  19.303   7.964
 2163POPC   C4B29686  40.804  19.259   7.664
 2164POPC   NC329687  12.114  14.378   9.464
 2164POPC   PO429688  12.041  14.381   9.164
 2164POPC   GL129689  12.117  14.437   8.864
 2164POPC   GL229690  12.193  14.457   8.864
 2164POPC   C1A29691  12.109  14.443   8.564
 2164POPC   D2A29692  12.100  14.377   8.264
 2164POPC   C3A29693  12.107  14.386   7.964
 2164POPC   C4A29694  12.112  14.428   7.664
 2164POPC   C1B29695  12.342  14.535   8.564
 2164POPC   C2B29696  12.290  14.481   8.264
 2164POPC   C3B29697  12.333  14.530   7.964
 2164POPC   C4B29698  12.281  14.480   7.664
 2165POPC   NC329699  12.846  21.364   9.464
 2165POPC   PO429700  12.823  21.425   9.164
 2165POPC   GL129701  12.834  21.397   8.864
 2165POPC   GL229702  12.785  21.520   8.864
 2165POPC   C1A29703  12.836  21.355   8.564
 2165POPC   D2A29704  12.815  21.435   8.264
 2165POPC   C3A29705  12.873  21.412   7.964
 2165POPC   C4A29706  12.841  21.366   7.664
 2165POPC   C1B29707  12.694  21.626   8.564
 2165POPC   C2B29708  12.726  21.575   8.264
 2165POPC   C3B29709  12.761  21.571   7.964
 2165POPC   C4B29710  12.736  21.558   7.664
 2166POPC   NC329711  26.833   8.237   9.464
 2166POPC   PO429712  26.845   8.209   9.164
 2166POPC   GL129713  26.839   8.161   8.864
 2166POPC   GL229714  26.773   8.295   8.864
 2166POPC   C1A29715  26.805   8.182   8.564
 2166POPC   D2A29716  26.803   8.160   8.264
 2166POPC   C3A29717  26.797   8.170   7.964
 2166POPC   C4A29718  26.826   8.160   7.664
 2166POPC   C1B29719  26.797   8.481   8.564
 2166POPC   C2B29720  26.763   8.394   8.264
 2166POPC   C3B29721  26.810   8.448   7.964
 2166POPC   C4B29722  26.735   8.441   7.664
 2167POPC   NC329723  40.791  26.826   9.464
 2167POPC   PO429724  40.772  26.844   9.164
 2167POPC   GL129725  40.770  26.779   8.864
 2167POPC   GL229726  40.743  26.676   8.864
 2167POPC   C1A29727  40.780  26.863   8.564
 2167POPC   D2A29728  40.766  26.825   8.264
 2167POPC   C3A29729  40.815  26.816   7.964
 2167POPC   C4A29730  40.814  26.841   7.664
 2167POPC   C1B29731  40.803  26.598   8.564
 2167POPC   C2B29732  40.738  26.602   8.264
 2167POPC   C3B29733  40.798  26.598   7.964
 2167POPC   C4B29734  40.810  26.589   7.664
 2168POPC   NC329735   5.082  22.114   9.464
 2168POPC   PO429736   5.077  22.114   9.164
 2168POPC   GL129737   5.143  22.160   8.864
 2168POPC   GL229738   5.067  22.294   8.864
 2168POPC   C1A29739   5.059  22.173   8.564
 2168POPC   D2A29740   5.052  22.142   8.264
 2168POPC   C3A29741   5.123  22.174   7.964
 2168POPC   C4A29742   5.128  22.197   7.664
 2168POPC   C1B29743   5.056  22.451   8.564
 2168POPC   C2B29744   5.094  22.446   8.264
 2168POPC   C3B29745   5.052  22.413   7.964
 2168POPC   C4B29746   5.083  22.459   7.664
 2169POPC   NC329747  21.404  14.450   9.464
 2169POPC   PO429748  21.431  14.407   9.164
 2169POPC   GL129749  21.418  14.429   8.864
 2169POPC   GL229750  21.421  14.552   8.864
 2169POPC   C1A29751  21.376  14.403   8.564
 2169POPC   D2A29752  21.427  14.369   8.264
 2169POPC   C3A29753  21.403  14.447   7.964
 2169POPC   C4A29754  21.414  14.448   7.664
 2169POPC   C1B29755  21.553  14.612   8.564
 2169POPC   C2B29756  21.543  14.663   8.264
 2169POPC   C3B29757  21.507  14.601   7.964
 2169POPC   C4B29758  21.542  14.577   7.664
 2170POPC   NC329759   6.642   7.432   9.464
 2170POPC   PO429760   6.616   7.451   9.164
 2170POPC   GL129761   6.661   7.469   8.864
 2170POPC   GL229762   6.583   7.536   8.864
 2170POPC   C1A29763   6.614   7.434   8.564
 2170POPC   D2A29764   6.638   7.454   8.264
 2170POPC   C3A29765   6.677   7.400   7.964
 2170POPC   C4A29766   6.665   7.379   7.664
 2170POPC   C1B29767   6.494   7.624   8.564
 2170POPC   C2B29768   6.539   7.673   8.264
 2170POPC   C3B29769   6.559   7.612   7.964
 2170POPC   C4B29770   6.546   7.615   7.664
 2171POPC   NC329771  27.561  39.200   9.464
 2171POPC   PO429772  27.606  39.263   9.164
 2171POPC   GL129773  27.604  39.199   8.864
 2171POPC   GL229774  27.666  39.300   8.864
 2171POPC   C1A29775  27.586  39.280   8.564
 2171POPC   D2A29776  27.571  39.240   8.264
 2171POPC   C3A29777  27.570  39.227   7.964
 2171POPC   C4A29778  27.596  39.194   7.664
 2171POPC   C1B29779  27.639  39.460   8.564
 2171POPC   C2B29780  27.711  39.489   8.264
 2171POPC   C3B29781  27.687  39.446   7.964
 2171POPC   C4B29782  27.708  39.489   7.664
 2172POPC   NC329783  15.186  21.409   9.464
 2172POPC   PO429784  15.184  21.361   9.164
 2172POPC   GL129785  15.181  21.400   8.864
 2172POPC   GL229786  15.168  21.277   8.864
 2172POPC   C1A29787  15.149  21.426   8.564
 2172POPC   D2A29788  15.156  21.355   8.264
 2172POPC   C3A29789  15.204  21.432   7.964
 2172POPC   C4A29790  15.224  21.421   7.664
 2172POPC   C1B29791  15.074  21.117   8.564
 2172POPC   C2B29792  15.098  21.182   8.264
 2172POPC   C3B29793  15.050  21.194   7.964
 2172POPC   C4B29794  15.093  21.131   7.664
 2173POPC   NC329795  17.490  12.098   9.464
 2173POPC   PO429796  17.474  12.031   9.164
 2173POPC   GL129797  17.551  12.072   8.864
 2173POPC   GL229798  17.623  12.178   8.864
 2173POPC   C1A29799  17.555  12.057   8.564
 2173POPC   D2A29800  17.501  12.028   8.264
 2173POPC   C3A29801  17.458  12.096   7.964
 2173POPC   C4A29802  17.537  12.045   7.664
 2173POPC   C1B29803  17.652  12.230   8.564
 2173POPC   C2B29804  17.713  12.197   8.264
 2173POPC   C3B29805  17.684  12.210   7.964
 2173POPC   C4B29806  17.734  12.217   7.664
 2174POPC   NC329807   3.537  44.655   9.464
 2174POPC   PO429808   3.538  44.678   9.164
 2174POPC   GL129809   3.520  44.636   8.864
 2174POPC   GL229810   3.441  44.628   8.864
 2174POPC   C1A29811   3.511  44.613   8.564
 2174POPC   D2A29812   3.556  44.677   8.264
 2174POPC   C3A29813   3.560  44.710   7.964
 2174POPC   C4A29814   3.556  44.624   7.664
 2174POPC   C1B29815   3.297  44.508   8.564
 2174POPC   C2B29816   3.273  44.568   8.264
 2174POPC   C3B29817   3.285  44.558   7.964
 2174POPC   C4B29818   3.288  44.508   7.664
 2175POPC   NC329819  12.037   0.481   9.464
 2175POPC   PO429820  12.108   0.486   9.164
 2175POPC   GL129821  12.059   0.452   8.864
 2175POPC   GL229822  11.955   0.451   8.864
 2175POPC   C1A29823  12.098   0.391   8.564
 2175POPC   D2A29824  12.097   0.461   8.264
 2175POPC   C3A29825  12.099   0.394   7.964
 2175POPC   C4A29826  12.123   0.486   7.664
 2175POPC   C1B29827  11.787   0.488   8.564
 2175POPC   C2B29828  11.821   0.533   8.264
 2175POPC   C3B29829  11.837   0.537   7.964
 2175POPC   C4B29830  11.798   0.558   7.664
 2176POPC   NC329831  14.406  35.344   9.464
 2176POPC   PO429832  14.414  35.347   9.164
 2176POPC   GL129833  14.399  35.399   8.864
 2176POPC   GL229834  14.356  35.490   8.864
 2176POPC   C1A29835  14.444  35.339   8.564
 2176POPC   D2A29836  14.365  35.361   8.264
 2176POPC   C3A29837  14.398  35.369   7.964
 2176POPC   C4A29838  14.355  35.393   7.664
 2176POPC   C1B29839  14.430  35.615   8.564
 2176POPC   C2B29840  14.423  35.558   8.264
 2176POPC   C3B29841  14.373  35.637   7.964
 2176POPC   C4B29842  14.373  35.638   7.664
 2177POPC   NC329843  18.309   8.168   9.464
 2177POPC   PO429844  18.330   8.163   9.164
 2177POPC   GL129845  18.300   8.187   8.864
 2177POPC   GL229846  18.411   8.238   8.864
 2177POPC   C1A29847  18.307   8.153   8.564
 2177POPC   D2A29848  18.248   8.214   8.264
 2177POPC   C3A29849  18.252   8.243   7.964
 2177POPC   C4A29850  18.276   8.173   7.664
 2177POPC   C1B29851  18.516   8.360   8.564
 2177POPC   C2B29852  18.460   8.334   8.264
 2177POPC   C3B29853  18.513   8.378   7.964
 2177POPC   C4B29854  18.526   8.311   7.664
 2178POPC   NC329855  26.024  14.414   9.464
 2178POPC   PO429856  26.019  14.449   9.164
 2178POPC   GL129857  26.006  14.448   8.864
 2178POPC   GL229858  25.958  14.481   8.864
 2178POPC   C1A29859  26.063  14.424   8.564
 2178POPC   D2A29860  26.067  14.378   8.264
 2178POPC   C3A29861  26.016  14.438   7.964
 2178POPC   C4A29862  26.051  14.445   7.664
 2178POPC   C1B29863  25.851  14.579   8.564
 2178POPC   C2B29864  25.872  14.559   8.264
 2178POPC   C3B29865  25.811  14.553   7.964
 2178POPC   C4B29866  25.826  14.560   7.664
 2179POPC   NC329867  33.050  34.569   9.464
 2179POPC   PO429868  33.024  34.604   9.164
 2179POPC   GL129869  33.060  34.593   8.864
 2179POPC   GL229870  33.016  34.500   8.864
 2179POPC   C1A29871  33.061  34.534   8.564
 2179POPC   D2A29872  32.998  34.585   8.264
 2179POPC   C3A29873  33.068  34.539   7.964
 2179POPC   C4A29874  33.007  34.577   7.664
 2179POPC   C1B29875  32.990  34.289   8.564
 2179POPC   C2B29876  32.982  34.300   8.264
 2179POPC   C3B29877  33.001  34.316   7.964
 2179POPC   C4B29878  33.013  34.282   7.664
 2180POPC   NC329879  22.162  43.106   9.464
 2180POPC   PO429880  22.157  43.092   9.164
 2180POPC   GL129881  22.150  43.127   8.864
 2180POPC   GL229882  22.059  43.054   8.864
 2180POPC   C1A29883  22.212  43.104   8.564
 2180POPC   D2A29884  22.135  43.097   8.264
 2180POPC   C3A29885  22.115  43.147   7.964
 2180POPC   C4A29886  22.183  43.064   7.664
 2180POPC   C1B29887  22.009  42.895   8.564
 2180POPC   C2B29888  22.025  42.946   8.264
 2180POPC   C3B29889  21.979  42.905   7.964
 2180POPC   C4B29890  22.039  42.952   7.664
 2181POPC   NC329891  43.867  25.218   9.464
 2181POPC   PO429892  43.898  25.230   9.164
 2181POPC   GL129893  43.848  25.270   8.864
 2181POPC   GL229894  43.942  25.183   8.864
 2181POPC   C1A29895  43.921  25.228   8.564
 2181POPC   D2A29896  43.863  25.301   8.264
 2181POPC   C3A29897  43.926  25.268   7.964
 2181POPC   C4A29898  43.836  25.227   7.664
 2181POPC   C1B29899  43.867  25.001   8.564
 2181POPC   C2B29900  43.865  25.062   8.264
 2181POPC   C3B29901  43.942  25.053   7.964
 2181POPC   C4B29902  43.895  25.002   7.664
 2182POPC   NC329903  28.405  28.338   9.464
 2182POPC   PO429904  28.378  28.377   9.164
 2182POPC   GL129905  28.394  28.396   8.864
 2182POPC   GL229906  28.229  28.326   8.864
 2182POPC   C1A29907  28.326  28.359   8.564
 2182POPC   D2A29908  28.391  28.356   8.264
 2182POPC   C3A29909  28.386  28.402   7.964
 2182POPC   C4A29910  28.351  28.374   7.664
 2182POPC   C1B29911  28.177  28.304   8.564
 2182POPC   C2B29912  28.105  28.326   8.264
 2182POPC   C3B29913  28.177  28.277   7.964
 2182POPC   C4B29914  28.107  28.275   7.664
 2183POPC   NC329915  10.538  40.021   9.464
 2183POPC   PO429916  10.551  39.971   9.164
 2183POPC   GL129917  10.528  39.971   8.864
 2183POPC   GL229918  10.549  40.171   8.864
 2183POPC   C1A29919  10.543  40.006   8.564
 2183POPC   D2A29920  10.489  40.007   8.264
 2183POPC   C3A29921  10.555  40.048   7.964
 2183POPC   C4A29922  10.549  40.008   7.664
 2183POPC   C1B29923  10.517  40.277   8.564
 2183POPC   C2B29924  10.504  40.230   8.264
 2183POPC   C3B29925  10.464  40.296   7.964
 2183POPC   C4B29926  10.524  40.282   7.664
 2184POPC   NC329927  15.935  10.566   9.464
 2184POPC   PO429928  15.982  10.519   9.164
 2184POPC   GL129929  15.930  10.503   8.864
 2184POPC   GL229930  16.051  10.522   8.864
 2184POPC   C1A29931  15.967  10.475   8.564
 2184POPC   D2A29932  15.993  10.544   8.264
 2184POPC   C3A29933  15.915  10.528   7.964
 2184POPC   C4A29934  15.930  10.515   7.664
 2184POPC   C1B29935  16.237  10.630   8.564
 2184POPC   C2B29936  16.190  10.584   8.264
 2184POPC   C3B29937  16.180  10.565   7.964
 2184POPC   C4B29938  16.197  10.632   7.664
 2185POPC   NC329939  42.311  20.614   9.464
 2185POPC   PO429940  42.316  20.653   9.164
 2185POPC   GL129941  42.375  20.646   8.864
 2185POPC   GL229942  42.271  20.663   8.864
 2185POPC   C1A29943  42.297  20.615   8.564
 2185POPC   D2A29944  42.359  20.586   8.264
 2185POPC   C3A29945  42.327  20.579   7.964
 2185POPC   C4A29946  42.320  20.586   7.664
 2185POPC   C1B29947  42.203  20.814   8.564
 2185POPC   C2B29948  42.123  20.780   8.264
 2185POPC   C3B29949  42.198  20.801   7.964
 2185POPC   C4B29950  42.166  20.741   7.664
 2186POPC   NC329951  41.565   5.048   9.464
 2186POPC   PO429952  41.543   5.130   9.164
 2186POPC   GL129953  41.604   5.054   8.864
 2186POPC   GL229954  41.498   4.990   8.864
 2186POPC   C1A29955  41.549   5.087   8.564
 2186POPC   D2A29956  41.602   5.136   8.264
 2186POPC   C3A29957  41.561   5.126   7.964
 2186POPC   C4A29958  41.550   5.133   7.664
 2186POPC   C1B29959  41.391   4.854   8.564
 2186POPC   C2B29960  41.452   4.925   8.264
 2186POPC   C3B29961  41.404   4.917   7.964
 2186POPC   C4B29962  41.385   4.880   7.664
 2187POPC   NC329963  25.270  23.689   9.464
 2187POPC   PO429964  25.250  23.685   9.164
 2187POPC   GL129965  25.243  23.711   8.864
 2187POPC   GL229966  25.138  23.649   8.864
 2187POPC   C1A29967  25.294  23.728   8.564
 2187POPC   D2A29968  25.275  23.746   8.264
 2187POPC   C3A29969  25.289  23.705   7.964
 2187POPC   C4A29970  25.259  23.756   7.664
 2187POPC   C1B29971  25.032  23.605   8.564
 2187POPC   C2B29972  25.009  23.544   8.264
 2187POPC   C3B29973  25.012  23.602   7.964
 2187POPC   C4B29974  25.079  23.591   7.664
 2188POPC   NC329975  35.343   7.401   9.464
 2188POPC   PO429976  35.383   7.454   9.164
 2188POPC   GL129977  35.395   7.402   8.864
 2188POPC   GL229978  35.342   7.557   8.864
 2188POPC   C1A29979  35.357   7.371   8.564
 2188POPC   D2A29980  35.373   7.403   8.264
 2188POPC   C3A29981  35.307   7.435   7.964
 2188POPC   C4A29982  35.348   7.403   7.664
 2188POPC   C1B29983  35.319   7.685   8.564
 2188POPC   C2B29984  35.296   7.692   8.264
 2188POPC   C3B29985  35.313   7.637   7.964
 2188POPC   C4B29986  35.337   7.685   7.664
 2189POPC   NC329987  27.567  12.830   9.464
 2189POPC   PO429988  27.575  12.833   9.164
 2189POPC   GL129989  27.620  12.867   8.864
 2189POPC   GL229990  27.701  12.801   8.864
 2189POPC   C1A29991  27.633  12.885   8.564
 2189POPC   D2A29992  27.629  12.844   8.264
 2189POPC   C3A29993  27.568  12.811   7.964
 2189POPC   C4A29994  27.569  12.843   7.664
 2189POPC   C1B29995  27.792  12.750   8.564
 2189POPC   C2B29996  27.835  12.724   8.264
 2189POPC   C3B29997  27.827  12.726   7.964
 2189POPC   C4B29998  27.827  12.737   7.664
 2190POPC   NC329999  22.136  27.573   9.464
 2190POPC   PO430000  22.177  27.616   9.164
 2190POPC   GL130001  22.127  27.553   8.864
 2190POPC   GL230002  21.998  27.601   8.864
 2190POPC   C1A30003  22.159  27.636   8.564
 2190POPC   D2A30004  22.208  27.638   8.264
 2190POPC   C3A30005  22.210  27.605   7.964
 2190POPC   C4A30006  22.148  27.556   7.664
 2190POPC   C1B30007  21.953  27.549   8.564
 2190POPC   C2B30008  21.960  27.530   8.264
 2190POPC   C3B30009  21.904  27.567   7.964
 2190POPC   C4B30010  21.947  27.623   7.664
 2191POPC   NC330011  29.147  12.089   9.464
 2191POPC   PO430012  29.142  12.056   9.164
 2191POPC   GL130013  29.124  12.088   8.864
 2191POPC   GL230014  29.109  11.929   8.864
 2191POPC   C1A30015  29.108  12.113   8.564
 2191POPC   D2A30016  29.106  12.124   8.264
 2191POPC   C3A30017  29.183  12.114   7.964
 2191POPC   C4A30018  29.194  12.109   7.664
 2191POPC   C1B30019  29.066  11.849   8.564
 2191POPC   C2B30020  29.089  11.825   8.264
 2191POPC   C3B30021  29.098  11.809   7.964
 2191POPC   C4B30022  29.072  11.829   7.664
 2192POPC   NC330023  29.161   5.076   9.464
 2192POPC   PO430024  29.178   5.089   9.164
 2192POPC   GL130025  29.182   5.140   8.864
 2192POPC   GL230026  29.111   5.236   8.864
 2192POPC   C1A30027  29.115   5.136   8.564
 2192POPC   D2A30028  29.139   5.056   8.264
 2192POPC   C3A30029  29.102   5.130   7.964
 2192POPC   C4A30030  29.109   5.104   7.664
 2192POPC   C1B30031  28.980   5.318   8.564
 2192POPC   C2B30032  28.991   5.320   8.264
 2192POPC   C3B30033  28.996   5.294   7.964
 2192POPC   C4B30034  29.061   5.265   7.664
 2193POPC   NC330035   1.956  17.496   9.464
 2193POPC   PO430036   1.952  17.523   9.164
 2193POPC   GL130037   1.998  17.514   8.864
 2193POPC   GL230038   1.912  17.610   8.864
 2193POPC   C1A30039   1.980  17.470   8.564
 2193POPC   D2A30040   2.036  17.509   8.264
 2193POPC   C3A30041   1.952  17.514   7.964
 2193POPC   C4A30042   2.005  17.513   7.664
 2193POPC   C1B30043   1.860  17.720   8.564
 2193POPC   C2B30044   1.852  17.767   8.264
 2193POPC   C3B30045   1.928  17.786   7.964
 2193POPC   C4B30046   1.910  17.771   7.664
 2194POPC   NC330047  10.548  15.182   9.464
 2194POPC   PO430048  10.561  15.183   9.164
 2194POPC   GL130049  10.563  15.206   8.864
 2194POPC   GL230050  10.483  15.033   8.864
 2194POPC   C1A30051  10.551  15.136   8.564
 2194POPC   D2A30052  10.560  15.222   8.264
 2194POPC   C3A30053  10.517  15.131   7.964
 2194POPC   C4A30054  10.561  15.159   7.664
 2194POPC   C1B30055  10.339  15.001   8.564
 2194POPC   C2B30056  10.422  14.974   8.264
 2194POPC   C3B30057  10.388  14.962   7.964
 2194POPC   C4B30058  10.357  15.010   7.664
 2195POPC   NC330059  30.658  33.073   9.464
 2195POPC   PO430060  30.738  32.998   9.164
 2195POPC   GL130061  30.684  33.043   8.864
 2195POPC   GL230062  30.562  32.997   8.864
 2195POPC   C1A30063  30.687  33.015   8.564
 2195POPC   D2A30064  30.738  32.990   8.264
 2195POPC   C3A30065  30.680  33.024   7.964
 2195POPC   C4A30066  30.713  33.068   7.664
 2195POPC   C1B30067  30.509  32.910   8.564
 2195POPC   C2B30068  30.493  32.937   8.264
 2195POPC   C3B30069  30.458  32.941   7.964
 2195POPC   C4B30070  30.503  32.938   7.664
 2196POPC   NC330071  30.713  37.667   9.464
 2196POPC   PO430072  30.675  37.708   9.164
 2196POPC   GL130073  30.676  37.696   8.864
 2196POPC   GL230074  30.617  37.597   8.864
 2196POPC   C1A30075  30.710  37.643   8.564
 2196POPC   D2A30076  30.728  37.724   8.264
 2196POPC   C3A30077  30.723  37.728   7.964
 2196POPC   C4A30078  30.678  37.648   7.664
 2196POPC   C1B30079  30.485  37.480   8.564
 2196POPC   C2B30080  30.540  37.496   8.264
 2196POPC   C3B30081  30.499  37.544   7.964
 2196POPC   C4B30082  30.460  37.487   7.664
 2197POPC   NC330083  11.309   8.972   9.464
 2197POPC   PO430084  11.320   9.012   9.164
 2197POPC   GL130085  11.254   8.951   8.864
 2197POPC   GL230086  11.218   8.999   8.864
 2197POPC   C1A30087  11.338   8.945   8.564
 2197POPC   D2A30088  11.299   8.991   8.264
 2197POPC   C3A30089  11.284   9.005   7.964
 2197POPC   C4A30090  11.290   9.013   7.664
 2197POPC   C1B30091  11.150   9.080   8.564
 2197POPC   C2B30092  11.090   9.091   8.264
 2197POPC   C3B30093  11.114   9.082   7.964
 2197POPC   C4B30094  11.066   9.121   7.664
 2198POPC   NC330095  17.547   8.189   9.464
 2198POPC   PO430096  17.523   8.193   9.164
 2198POPC   GL130097  17.465   8.203   8.864
 2198POPC   GL230098  17.534   8.358   8.864
 2198POPC   C1A30099  17.499   8.199   8.564
 2198POPC   D2A30100  17.509   8.220   8.264
 2198POPC   C3A30101  17.475   8.154   7.964
 2198POPC   C4A30102  17.530   8.193   7.664
 2198POPC   C1B30103  17.459   8.430   8.564
 2198POPC   C2B30104  17.465   8.485   8.264
 2198POPC   C3B30105  17.462   8.482   7.964
 2198POPC   C4B30106  17.502   8.433   7.664
 2199POPC   NC330107  32.253  44.681   9.464
 2199POPC   PO430108  32.213  44.676   9.164
 2199POPC   GL130109  32.266  44.623   8.864
 2199POPC   GL230110  32.110  44.677   8.864
 2199POPC   C1A30111  32.225  44.688   8.564
 2199POPC   D2A30112  32.281  44.674   8.264
 2199POPC   C3A30113  32.254  44.680   7.964
 2199POPC   C4A30114  32.277  44.681   7.664
 2199POPC   C1B30115  32.012  44.669   8.564
 2199POPC   C2B30116  31.948  44.627   8.264
 2199POPC   C3B30117  31.959  44.653   7.964
 2199POPC   C4B30118  31.978  44.647   7.664
 2200POPC   NC330119  16.759  16.710   9.464
 2200POPC   PO430120  16.744  16.753   9.164
 2200POPC   GL130121  16.763  16.775   8.864
 2200POPC   GL230122  16.766  16.627   8.864
 2200POPC   C1A30123  16.696  16.776   8.564
 2200POPC   D2A30124  16.689  16.761   8.264
 2200POPC   C3A30125  16.714  16.699   7.964
 2200POPC   C4A30126  16.776  16.737   7.664
 2200POPC   C1B30127  16.760  16.435   8.564
 2200POPC   C2B30128  16.734  16.456   8.264
 2200POPC   C3B30129  16.699  16.481   7.964
 2200POPC   C4B30130  16.677  16.454   7.664
 2201POPC   NC330131  43.113  14.387   9.464
 2201POPC   PO430132  43.158  14.443   9.164
 2201POPC   GL130133  43.123  14.353   8.864
 2201POPC   GL230134  43.078  14.293   8.864
 2201POPC   C1A30135  43.088  14.440   8.564
 2201POPC   D2A30136  43.091  14.371   8.264
 2201POPC   C3A30137  43.097  14.444   7.964
 2201POPC   C4A30138  43.091  14.434   7.664
 2201POPC   C1B30139  42.990  14.204   8.564
 2201POPC   C2B30140  43.006  14.203   8.264
 2201POPC   C3B30141  42.997  14.169   7.964
 2201POPC   C4B30142  42.926  14.172   7.664
 2202POPC   NC330143  30.656  38.502   9.464
 2202POPC   PO430144  30.727  38.436   9.164
 2202POPC   GL130145  30.681  38.490   8.864
 2202POPC   GL230146  30.656  38.592   8.864
 2202POPC   C1A30147  30.650  38.503   8.564
 2202POPC   D2A30148  30.647  38.444   8.264
 2202POPC   C3A30149  30.709  38.469   7.964
 2202POPC   C4A30150  30.724  38.427   7.664
 2202POPC   C1B30151  30.519  38.681   8.564
 2202POPC   C2B30152  30.556  38.656   8.264
 2202POPC   C3B30153  30.512  38.636   7.964
 2202POPC   C4B30154  30.504  38.657   7.664
 2203POPC   NC330155   6.649   1.175   9.464
 2203POPC   PO430156   6.624   1.216   9.164
 2203POPC   GL130157   6.629   1.246   8.864
 2203POPC   GL230158   6.720   1.084   8.864
 2203POPC   C1A30159   6.628   1.261   8.564
 2203POPC   D2A30160   6.637   1.242   8.264
 2203POPC   C3A30161   6.629   1.201   7.964
 2203POPC   C4A30162   6.649   1.214   7.664
 2203POPC   C1B30163   6.657   0.980   8.564
 2203POPC   C2B30164   6.739   0.959   8.264
 2203POPC   C3B30165   6.711   0.931   7.964
 2203POPC   C4B30166   6.666   0.956   7.664
 2204POPC   NC330167   7.375  43.867   9.464
 2204POPC   PO430168   7.408  43.935   9.164
 2204POPC   GL130169   7.410  43.907   8.864
 2204POPC   GL230170   7.492  43.977   8.864
 2204POPC   C1A30171   7.468  43.918   8.564
 2204POPC   D2A30172   7.405  43.843   8.264
 2204POPC   C3A30173   7.381  43.842   7.964
 2204POPC   C4A30174   7.443  43.887   7.664
 2204POPC   C1B30175   7.574  44.023   8.564
 2204POPC   C2B30176   7.622  44.044   8.264
 2204POPC   C3B30177   7.657  44.091   7.964
 2204POPC   C4B30178   7.595  44.031   7.664
 2205POPC   NC330179  26.008  33.051   9.464
 2205POPC   PO430180  26.057  32.981   9.164
 2205POPC   GL130181  26.045  32.981   8.864
 2205POPC   GL230182  25.933  33.076   8.864
 2205POPC   C1A30183  26.062  33.011   8.564
 2205POPC   D2A30184  26.056  32.979   8.264
 2205POPC   C3A30185  26.027  33.032   7.964
 2205POPC   C4A30186  26.066  33.038   7.664
 2205POPC   C1B30187  25.865  33.219   8.564
 2205POPC   C2B30188  25.878  33.244   8.264
 2205POPC   C3B30189  25.841  33.184   7.964
 2205POPC   C4B30190  25.909  33.236   7.664
 2206POPC   NC330191  35.347  30.703   9.464
 2206POPC   PO430192  35.355  30.664   9.164
 2206POPC   GL130193  35.321  30.671   8.864
 2206POPC   GL230194  35.286  30.793   8.864
 2206POPC   C1A30195  35.352  30.713   8.564
 2206POPC   D2A30196  35.365  30.704   8.264
 2206POPC   C3A30197  35.353  30.692   7.964
 2206POPC   C4A30198  35.342  30.675   7.664
 2206POPC   C1B30199  35.295  30.899   8.564
 2206POPC   C2B30200  35.245  30.960   8.264
 2206POPC   C3B30201  35.235  30.962   7.964
 2206POPC   C4B30202  35.298  30.881   7.664
 2207POPC   NC330203  15.977   9.792   9.464
 2207POPC   PO430204  15.966   9.788   9.164
 2207POPC   GL130205  15.939   9.775   8.864
 2207POPC   GL230206  15.892   9.680   8.864
 2207POPC   C1A30207  15.995   9.743   8.564
 2207POPC   D2A30208  15.939   9.708   8.264
 2207POPC   C3A30209  15.907   9.710   7.964
 2207POPC   C4A30210  15.981   9.762   7.664
 2207POPC   C1B30211  15.739   9.595   8.564
 2207POPC   C2B30212  15.786   9.574   8.264
 2207POPC   C3B30213  15.811   9.552   7.964
 2207POPC   C4B30214  15.786   9.547   7.664
 2208POPC   NC330215  27.586  43.121   9.464
 2208POPC   PO430216  27.555  43.146   9.164
 2208POPC   GL130217  27.579  43.062   8.864
 2208POPC   GL230218  27.549  43.227   8.864
 2208POPC   C1A30219  27.553  43.149   8.564
 2208POPC   D2A30220  27.555  43.075   8.264
 2208POPC   C3A30221  27.554  43.099   7.964
 2208POPC   C4A30222  27.615  43.158   7.664
 2208POPC   C1B30223  27.505  43.310   8.564
 2208POPC   C2B30224  27.475  43.311   8.264
 2208POPC   C3B30225  27.478  43.354   7.964
 2208POPC   C4B30226  27.444  43.387   7.664
 2209POPC   NC330227   3.565  11.287   9.464
 2209POPC   PO430228   3.548  11.274   9.164
 2209POPC   GL130229   3.535  11.267   8.864
 2209POPC   GL230230   3.709  11.316   8.864
 2209POPC   C1A30231   3.515  11.346   8.564
 2209POPC   D2A30232   3.497  11.283   8.264
 2209POPC   C3A30233   3.539  11.337   7.964
 2209POPC   C4A30234   3.546  11.328   7.664
 2209POPC   C1B30235   3.746  11.292   8.564
 2209POPC   C2B30236   3.827  11.277   8.264
 2209POPC   C3B30237   3.763  11.301   7.964
 2209POPC   C4B30238   3.802  11.304   7.664
 2210POPC   NC330239  21.402  35.318   9.464
 2210POPC   PO430240  21.351  35.341   9.164
 2210POPC   GL130241  21.425  35.394   8.864
 2210POPC   GL230242  21.404  35.226   8.864
 2210POPC   C1A30243  21.401  35.345   8.564
 2210POPC   D2A30244  21.412  35.319   8.264
 2210POPC   C3A30245  21.401  35.370   7.964
 2210POPC   C4A30246  21.353  35.400   7.664
 2210POPC   C1B30247  21.554  35.152   8.564
 2210POPC   C2B30248  21.518  35.129   8.264
 2210POPC   C3B30249  21.558  35.138   7.964
 2210POPC   C4B30250  21.511  35.173   7.664
 2211POPC   NC330251  22.208  17.528   9.464
 2211POPC   PO430252  22.117  17.457   9.164
 2211POPC   GL130253  22.142  17.544   8.864
 2211POPC   GL230254  22.290  17.559   8.864
 2211POPC   C1A30255  22.138  17.469   8.564
 2211POPC   D2A30256  22.127  17.544   8.264
 2211POPC   C3A30257  22.192  17.539   7.964
 2211POPC   C4A30258  22.193  17.473   7.664
 2211POPC   C1B30259  22.367  17.660   8.564
 2211POPC   C2B30260  22.381  17.660   8.264
 2211POPC   C3B30261  22.421  17.655   7.964
 2211POPC   C4B30262  22.432  17.632   7.664
 2212POPC   NC330263  32.981   4.290   9.464
 2212POPC   PO430264  33.016   4.358   9.164
 2212POPC   GL130265  33.048   4.340   8.864
 2212POPC   GL230266  33.082   4.459   8.864
 2212POPC   C1A30267  33.011   4.327   8.564
 2212POPC   D2A30268  32.980   4.361   8.264
 2212POPC   C3A30269  33.062   4.305   7.964
 2212POPC   C4A30270  32.978   4.296   7.664
 2212POPC   C1B30271  33.123   4.485   8.564
 2212POPC   C2B30272  33.172   4.563   8.264
 2212POPC   C3B30273  33.114   4.539   7.964
 2212POPC   C4B30274  33.129   4.501   7.664
 2213POPC   NC330275  23.741  40.786   9.464
 2213POPC   PO430276  23.750  40.818   9.164
 2213POPC   GL130277  23.758  40.751   8.864
 2213POPC   GL230278  23.684  40.875   8.864
 2213POPC   C1A30279  23.732  40.736   8.564
 2213POPC   D2A30280  23.727  40.816   8.264
 2213POPC   C3A30281  23.717  40.809   7.964
 2213POPC   C4A30282  23.716  40.791   7.664
 2213POPC   C1B30283  23.568  40.940   8.564
 2213POPC   C2B30284  23.534  40.986   8.264
 2213POPC   C3B30285  23.547  40.989   7.964
 2213POPC   C4B30286  23.555  41.031   7.664
 2214POPC   NC330287  12.092   9.016   9.464
 2214POPC   PO430288  12.080   8.978   9.164
 2214POPC   GL130289  12.085   8.997   8.864
 2214POPC   GL230290  12.242   9.027   8.864
 2214POPC   C1A30291  12.099   8.950   8.564
 2214POPC   D2A30292  12.077   8.994   8.264
 2214POPC   C3A30293  12.099   8.946   7.964
 2214POPC   C4A30294  12.068   9.017   7.664
 2214POPC   C1B30295  12.345   9.042   8.564
 2214POPC   C2B30296  12.337   9.058   8.264
 2214POPC   C3B30297  12.273   9.042   7.964
 2214POPC   C4B30298  12.267   9.075   7.664
 2215POPC   NC330299   2.814  26.775   9.464
 2215POPC   PO430300   2.737  26.865   9.164
 2215POPC   GL130301   2.765  26.835   8.864
 2215POPC   GL230302   2.656  26.838   8.864
 2215POPC   C1A30303   2.729  26.795   8.564
 2215POPC   D2A30304   2.751  26.796   8.264
 2215POPC   C3A30305   2.774  26.835   7.964
 2215POPC   C4A30306   2.737  26.834   7.664
 2215POPC   C1B30307   2.568  26.929   8.564
 2215POPC   C2B30308   2.519  26.869   8.264
 2215POPC   C3B30309   2.534  26.895   7.964
 2215POPC   C4B30310   2.541  26.923   7.664
 2216POPC   NC330311  12.060  25.272   9.464
 2216POPC   PO430312  12.056  25.293   9.164
 2216POPC   GL130313  12.080  25.285   8.864
 2216POPC   GL230314  12.042  25.144   8.864
 2216POPC   C1A30315  12.052  25.303   8.564
 2216POPC   D2A30316  12.093  25.286   8.264
 2216POPC   C3A30317  12.048  25.267   7.964
 2216POPC   C4A30318  12.092  25.302   7.664
 2216POPC   C1B30319  12.020  25.072   8.564
 2216POPC   C2B30320  11.965  25.002   8.264
 2216POPC   C3B30321  12.022  25.076   7.964
 2216POPC   C4B30322  12.019  24.987   7.664
 2217POPC   NC330323  36.118  30.721   9.464
 2217POPC   PO430324  36.155  30.725   9.164
 2217POPC   GL130325  36.161  30.688   8.864
 2217POPC   GL230326  36.003  30.738   8.864
 2217POPC   C1A30327  36.171  30.743   8.564
 2217POPC   D2A30328  36.121  30.684   8.264
 2217POPC   C3A30329  36.172  30.671   7.964
 2217POPC   C4A30330  36.095  30.717   7.664
 2217POPC   C1B30331  35.908  30.775   8.564
 2217POPC   C2B30332  35.861  30.749   8.264
 2217POPC   C3B30333  35.845  30.803   7.964
 2217POPC   C4B30334  35.926  30.735   7.664
 2218POPC   NC330335  26.835  43.114   9.464
 2218POPC   PO430336  26.845  43.074   9.164
 2218POPC   GL130337  26.793  43.120   8.864
 2218POPC   GL230338  26.719  43.169   8.864
 2218POPC   C1A30339  26.860  43.123   8.564
 2218POPC   D2A30340  26.775  43.129   8.264
 2218POPC   C3A30341  26.797  43.096   7.964
 2218POPC   C4A30342  26.796  43.135   7.664
 2218POPC   C1B30343  26.589  43.201   8.564
 2218POPC   C2B30344  26.569  43.206   8.264
 2218POPC   C3B30345  26.568  43.243   7.964
 2218POPC   C4B30346  26.644  43.273   7.664
 2219POPC   NC330347   9.016  39.222   9.464
 2219POPC   PO430348   8.987  39.246   9.164
 2219POPC   GL130349   9.015  39.271   8.864
 2219POPC   GL230350   8.910  39.247   8.864
 2219POPC   C1A30351   9.011  39.221   8.564
 2219POPC   D2A30352   8.928  39.187   8.264
 2219POPC   C3A30353   8.990  39.202   7.964
 2219POPC   C4A30354   8.974  39.193   7.664
 2219POPC   C1B30355   8.803  39.407   8.564
 2219POPC   C2B30356   8.738  39.407   8.264
 2219POPC   C3B30357   8.708  39.350   7.964
 2219POPC   C4B30358   8.761  39.317   7.664
 2220POPC   NC330359   5.069  15.171   9.464
 2220POPC   PO430360   5.115  15.164   9.164
 2220POPC   GL130361   5.092  15.163   8.864
 2220POPC   GL230362   5.137  15.307   8.864
 2220POPC   C1A30363   5.082  15.189   8.564
 2220POPC   D2A30364   5.131  15.190   8.264
 2220POPC   C3A30365   5.077  15.200   7.964
 2220POPC   C4A30366   5.114  15.203   7.664
 2220POPC   C1B30367   5.190  15.388   8.564
 2220POPC   C2B30368   5.196  15.378   8.264
 2220POPC   C3B30369   5.238  15.428   7.964
 2220POPC   C4B30370   5.224  15.431   7.664
 2221POPC   NC330371  44.682  43.873   9.464
 2221POPC   PO430372  44.696  43.905   9.164
 2221POPC   GL130373  44.621  43.886   8.864
 2221POPC   GL230374  44.537  43.970   8.864
 2221POPC   C1A30375  44.614  43.844   8.564
 2221POPC   D2A30376  44.701  43.895   8.264
 2221POPC   C3A30377  44.637  43.857   7.964
 2221POPC   C4A30378  44.646  43.936   7.664
 2221POPC   C1B30379  44.478  44.003   8.564
 2221POPC   C2B30380  44.475  44.046   8.264
 2221POPC   C3B30381  44.499  43.995   7.964
 2221POPC   C4B30382  44.467  43.984   7.664
 2222POPC   NC330383  20.660  14.372   9.464
 2222POPC   PO430384  20.581  14.409   9.164
 2222POPC   GL130385  20.623  14.359   8.864
 2222POPC   GL230386  20.630  14.244   8.864
 2222POPC   C1A30387  20.584  14.413   8.564
 2222POPC   D2A30388  20.641  14.448   8.264
 2222POPC   C3A30389  20.651  14.414   7.964
 2222POPC   C4A30390  20.568  14.420   7.664
 2222POPC   C1B30391  20.659  14.175   8.564
 2222POPC   C2B30392  20.635  14.147   8.264
 2222POPC   C3B30393  20.592  14.167   7.964
 2222POPC   C4B30394  20.589  14.136   7.664
 2223POPC   NC330395  14.385   2.730   9.464
 2223POPC   PO430396  14.451   2.764   9.164
 2223POPC   GL130397  14.371   2.756   8.864
 2223POPC   GL230398  14.402   2.681   8.864
 2223POPC   C1A30399  14.380   2.794   8.564
 2223POPC   D2A30400  14.401   2.763   8.264
 2223POPC   C3A30401  14.422   2.742   7.964
 2223POPC   C4A30402  14.360   2.795   7.664
 2223POPC   C1B30403  14.449   2.467   8.564
 2223POPC   C2B30404  14.392   2.556   8.264
 2223POPC   C3B30405  14.438   2.565   7.964
 2223POPC   C4B30406  14.442   2.490   7.664
 2224POPC   NC330407  39.187  18.269   9.464
 2224POPC   PO430408  39.242  18.305   9.164
 2224POPC   GL130409  39.201  18.309   8.864
 2224POPC   GL230410  39.104  18.299   8.864
 2224POPC   C1A30411  39.184  18.277   8.564
 2224POPC   D2A30412  39.227  18.289   8.264
 2224POPC   C3A30413  39.222  18.255   7.964
 2224POPC   C4A30414  39.233  18.304   7.664
 2224POPC   C1B30415  38.948  18.281   8.564
 2224POPC   C2B30416  38.932  18.269   8.264
 2224POPC   C3B30417  38.980  18.263   7.964
 2224POPC   C4B30418  38.959  18.248   7.664
 2225POPC   NC330419  42.312   1.958   9.464
 2225POPC   PO430420  42.319   1.985   9.164
 2225POPC   GL130421  42.285   1.980   8.864
 2225POPC   GL230422  42.251   2.086   8.864
 2225POPC   C1A30423  42.323   2.029   8.564
 2225POPC   D2A30424  42.359   1.979   8.264
 2225POPC   C3A30425  42.360   1.958   7.964
 2225POPC   C4A30426  42.359   2.033   7.664
 2225POPC   C1B30427  42.266   2.201   8.564
 2225POPC   C2B30428  42.171   2.169   8.264
 2225POPC   C3B30429  42.237   2.199   7.964
 2225POPC   C4B30430  42.176   2.218   7.664
 2226POPC   NC330431  12.092  29.971   9.464
 2226POPC   PO430432  12.087  29.933   9.164
 2226POPC   GL130433  12.031  29.909   8.864
 2226POPC   GL230434  12.042  30.081   8.864
 2226POPC   C1A30435  12.036  29.959   8.564
 2226POPC   D2A30436  12.100  29.941   8.264
 2226POPC   C3A30437  12.068  29.915   7.964
 2226POPC   C4A30438  12.052  29.941   7.664
 2226POPC   C1B30439  12.025  30.215   8.564
 2226POPC   C2B30440  12.079  30.133   8.264
 2226POPC   C3B30441  12.051  30.200   7.964
 2226POPC   C4B30442  11.996  30.211   7.664
 2227POPC   NC330443   0.393  36.915   9.464
 2227POPC   PO430444   0.403  36.938   9.164
 2227POPC   GL130445   0.436  36.876   8.864
 2227POPC   GL230446   0.452  37.018   8.864
 2227POPC   C1A30447   0.408  36.884   8.564
 2227POPC   D2A30448   0.431  36.861   8.264
 2227POPC   C3A30449   0.388  36.920   7.964
 2227POPC   C4A30450   0.425  36.944   7.664
 2227POPC   C1B30451   0.428  37.150   8.564
 2227POPC   C2B30452   0.448  37.146   8.264
 2227POPC   C3B30453   0.452  37.191   7.964
 2227POPC   C4B30454   0.381  37.133   7.664
 2228POPC   NC330455  12.834   0.398   9.464
 2228POPC   PO430456  12.893   0.427   9.164
 2228POPC   GL130457  12.898   0.418   8.864
 2228POPC   GL230458  12.787   0.357   8.864
 2228POPC   C1A30459  12.831   0.476   8.564
 2228POPC   D2A30460  12.841   0.393   8.264
 2228POPC   C3A30461  12.901   0.429   7.964
 2228POPC   C4A30462  12.892   0.429   7.664
 2228POPC   C1B30463  12.797   0.209   8.564
 2228POPC   C2B30464  12.798   0.161   8.264
 2228POPC   C3B30465  12.742   0.162   7.964
 2228POPC   C4B30466  12.792   0.222   7.664
 2229POPC   NC330467  12.853  12.808   9.464
 2229POPC   PO430468  12.889  12.813   9.164
 2229POPC   GL130469  12.849  12.865   8.864
 2229POPC   GL230470  12.828  12.946   8.864
 2229POPC   C1A30471  12.863  12.822   8.564
 2229POPC   D2A30472  12.855  12.862   8.264
 2229POPC   C3A30473  12.833  12.861   7.964
 2229POPC   C4A30474  12.840  12.820   7.664
 2229POPC   C1B30475  12.691  13.068   8.564
 2229POPC   C2B30476  12.665  13.090   8.264
 2229POPC   C3B30477  12.729  13.099   7.964
 2229POPC   C4B30478  12.699  13.011   7.664
 2230POPC   NC330479  20.639  33.065   9.464
 2230POPC   PO430480  20.625  33.038   9.164
 2230POPC   GL130481  20.574  32.975   8.864
 2230POPC   GL230482  20.536  33.002   8.864
 2230POPC   C1A30483  20.641  33.005   8.564
 2230POPC   D2A30484  20.579  33.011   8.264
 2230POPC   C3A30485  20.630  32.988   7.964
 2230POPC   C4A30486  20.580  33.071   7.664
 2230POPC   C1B30487  20.392  32.926   8.564
 2230POPC   C2B30488  20.373  32.898   8.264
 2230POPC   C3B30489  20.366  32.908   7.964
 2230POPC   C4B30490  20.377  32.924   7.664
 2231POPC   NC330491  28.332   5.087   9.464
 2231POPC   PO430492  28.381   5.125   9.164
 2231POPC   GL130493  28.415   5.102   8.864
 2231POPC   GL230494  28.264   5.094   8.864
 2231POPC   C1A30495  28.361   5.138   8.564
 2231POPC   D2A30496  28.371   5.093   8.264
 2231POPC   C3A30497  28.339   5.130   7.964
 2231POPC   C4A30498  28.383   5.140   7.664
 2231POPC   C1B30499  28.171   4.950   8.564
 2231POPC   C2B30500  28.114   4.991   8.264
 2231POPC   C3B30501  28.092   4.979   7.964
 2231POPC   C4B30502  28.108   5.038   7.664
 2232POPC   NC330503  34.586  12.864   9.464
 2232POPC   PO430504  34.566  12.848   9.164
 2232POPC   GL130505  34.534  12.896   8.864
 2232POPC   GL230506  34.587  12.958   8.864
 2232POPC   C1A30507  34.562  12.847   8.564
 2232POPC   D2A30508  34.557  12.883   8.264
 2232POPC   C3A30509  34.569  12.872   7.964
 2232POPC   C4A30510  34.548  12.851   7.664
 2232POPC   C1B30511  34.659  13.136   8.564
 2232POPC   C2B30512  34.673  13.090   8.264
 2232POPC   C3B30513  34.634  13.108   7.964
 2232POPC   C4B30514  34.630  13.101   7.664
 2233POPC   NC330515  10.507  26.069   9.464
 2233POPC   PO430516  10.562  26.081   9.164
 2233POPC   GL130517  10.494  26.034   8.864
 2233POPC   GL230518  10.635  26.018   8.864
 2233POPC   C1A30519  10.480  26.021   8.564
 2233POPC   D2A30520  10.541  26.025   8.264
 2233POPC   C3A30521  10.485  26.055   7.964
 2233POPC   C4A30522  10.549  26.039   7.664
 2233POPC   C1B30523  10.728  26.009   8.564
 2233POPC   C2B30524  10.730  26.067   8.264
 2233POPC   C3B30525  10.763  26.005   7.964
 2233POPC   C4B30526  10.724  26.017   7.664
 2234POPC   NC330527  16.005  29.116   9.464
 2234POPC   PO430528  15.918  29.186   9.164
 2234POPC   GL130529  15.993  29.102   8.864
 2234POPC   GL230530  15.907  29.058   8.864
 2234POPC   C1A30531  15.982  29.171   8.564
 2234POPC   D2A30532  15.944  29.181   8.264
 2234POPC   C3A30533  15.916  29.181   7.964
 2234POPC   C4A30534  15.939  29.174   7.664
 2234POPC   C1B30535  15.829  28.955   8.564
 2234POPC   C2B30536  15.813  28.937   8.264
 2234POPC   C3B30537  15.791  28.940   7.964
 2234POPC   C4B30538  15.840  28.938   7.664
 2235POPC   NC330539  36.876  29.108   9.464
 2235POPC   PO430540  36.899  29.134   9.164
 2235POPC   GL130541  36.885  29.163   8.864
 2235POPC   GL230542  36.991  29.036   8.864
 2235POPC   C1A30543  36.932  29.162   8.564
 2235POPC   D2A30544  36.933  29.167   8.264
 2235POPC   C3A30545  36.950  29.111   7.964
 2235POPC   C4A30546  36.953  29.180   7.664
 2235POPC   C1B30547  36.972  28.918   8.564
 2235POPC   C2B30548  36.987  28.930   8.264
 2235POPC   C3B30549  36.952  28.865   7.964
 2235POPC   C4B30550  36.991  28.951   7.664
 2236POPC   NC330551  15.948  17.530   9.464
 2236POPC   PO430552  15.948  17.543   9.164
 2236POPC   GL130553  15.917  17.512   8.864
 2236POPC   GL230554  15.795  17.458   8.864
 2236POPC   C1A30555  15.935  17.555   8.564
 2236POPC   D2A30556  16.001  17.464   8.264
 2236POPC   C3A30557  15.949  17.475   7.964
 2236POPC   C4A30558  15.932  17.538   7.664
 2236POPC   C1B30559  15.691  17.397   8.564
 2236POPC   C2B30560  15.719  17.425   8.264
 2236POPC   C3B30561  15.741  17.370   7.964
 2236POPC   C4B30562  15.772  17.366   7.664
 2237POPC   NC330563  13.623   9.742   9.464
 2237POPC   PO430564  13.622   9.788   9.164
 2237POPC   GL130565  13.615   9.743   8.864
 2237POPC   GL230566  13.669   9.617   8.864
 2237POPC   C1A30567  13.654   9.730   8.564
 2237POPC   D2A30568  13.607   9.775   8.264
 2237POPC   C3A30569  13.593   9.702   7.964
 2237POPC   C4A30570  13.663   9.745   7.664
 2237POPC   C1B30571  13.667   9.534   8.564
 2237POPC   C2B30572  13.669   9.518   8.264
 2237POPC   C3B30573  13.629   9.492   7.964
 2237POPC   C4B30574  13.675   9.454   7.664
 2238POPC   NC330575  41.552  40.780   9.464
 2238POPC   PO430576  41.577  40.815   9.164
 2238POPC   GL130577  41.606  40.792   8.864
 2238POPC   GL230578  41.431  40.925   8.864
 2238POPC   C1A30579  41.552  40.818   8.564
 2238POPC   D2A30580  41.536  40.763   8.264
 2238POPC   C3A30581  41.587  40.742   7.964
 2238POPC   C4A30582  41.540  40.791   7.664
 2238POPC   C1B30583  41.407  40.995   8.564
 2238POPC   C2B30584  41.405  41.005   8.264
 2238POPC   C3B30585  41.429  41.015   7.964
 2238POPC   C4B30586  41.406  40.935   7.664
 2239POPC   NC330587   1.182  18.284   9.464
 2239POPC   PO430588   1.244  18.313   9.164
 2239POPC   GL130589   1.212  18.255   8.864
 2239POPC   GL230590   1.359  18.355   8.864
 2239POPC   C1A30591   1.256  18.244   8.564
 2239POPC   D2A30592   1.203  18.317   8.264
 2239POPC   C3A30593   1.193  18.324   7.964
 2239POPC   C4A30594   1.249  18.254   7.664
 2239POPC   C1B30595   1.429  18.436   8.564
 2239POPC   C2B30596   1.399  18.417   8.264
 2239POPC   C3B30597   1.444  18.449   7.964
 2239POPC   C4B30598   1.444  18.423   7.664
 2240POPC   NC330599   6.604  16.744   9.464
 2240POPC   PO430600   6.648  16.697   9.164
 2240POPC   GL130601   6.684  16.781   8.864
 2240POPC   GL230602   6.558  16.615   8.864
 2240POPC   C1A30603   6.630  16.766   8.564
 2240POPC   D2A30604   6.690  16.682   8.264
 2240POPC   C3A30605   6.669  16.712   7.964
 2240POPC   C4A30606   6.674  16.686   7.664
 2240POPC   C1B30607   6.430  16.612   8.564
 2240POPC   C2B30608   6.439  16.563   8.264
 2240POPC   C3B30609   6.406  16.578   7.964
 2240POPC   C4B30610   6.443  16.574   7.664
 2241POPC   NC330611   3.509  20.637   9.464
 2241POPC   PO430612   3.567  20.658   9.164
 2241POPC   GL130613   3.510  20.571   8.864
 2241POPC   GL230614   3.629  20.550   8.864
 2241POPC   C1A30615   3.533  20.575   8.564
 2241POPC   D2A30616   3.550  20.657   8.264
 2241POPC   C3A30617   3.559  20.645   7.964
 2241POPC   C4A30618   3.571  20.590   7.664
 2241POPC   C1B30619   3.709  20.503   8.564
 2241POPC   C2B30620   3.770  20.467   8.264
 2241POPC   C3B30621   3.739  20.416   7.964
 2241POPC   C4B30622   3.785  20.488   7.664
 2242POPC   NC330623   8.978  15.220   9.464
 2242POPC   PO430624   8.974  15.209   9.164
 2242POPC   GL130625   8.981  15.179   8.864
 2242POPC   GL230626   9.017  15.319   8.864
 2242POPC   C1A30627   8.931  15.205   8.564
 2242POPC   D2A30628   8.958  15.159   8.264
 2242POPC   C3A30629   8.958  15.186   7.964
 2242POPC   C4A30630   8.942  15.196   7.664
 2242POPC   C1B30631   8.997  15.420   8.564
 2242POPC   C2B30632   9.011  15.379   8.264
 2242POPC   C3B30633   9.051  15.427   7.964
 2242POPC   C4B30634   8.997  15.457   7.664
 2243POPC   NC330635   1.961   9.735   9.464
 2243POPC   PO430636   1.986   9.716   9.164
 2243POPC   GL130637   1.946   9.792   8.864
 2243POPC   GL230638   2.059   9.633   8.864
 2243POPC   C1A30639   2.031   9.773   8.564
 2243POPC   D2A30640   1.993   9.729   8.264
 2243POPC   C3A30641   1.996   9.766   7.964
 2243POPC   C4A30642   2.029   9.762   7.664
 2243POPC   C1B30643   2.101   9.549   8.564
 2243POPC   C2B30644   2.122   9.507   8.264
 2243POPC   C3B30645   2.119   9.556   7.964
 2243POPC   C4B30646   2.121   9.495   7.664
 2244POPC   NC330647  25.303  36.135   9.464
 2244POPC   PO430648  25.231  36.154   9.164
 2244POPC   GL130649  25.267  36.113   8.864
 2244POPC   GL230650  25.250  36.052   8.864
 2244POPC   C1A30651  25.242  36.151   8.564
 2244POPC   D2A30652  25.271  36.156   8.264
 2244POPC   C3A30653  25.296  36.091   7.964
 2244POPC   C4A30654  25.245  36.153   7.664
 2244POPC   C1B30655  25.268  35.834   8.564
 2244POPC   C2B30656  25.248  35.918   8.264
 2244POPC   C3B30657  25.216  35.924   7.964
 2244POPC   C4B30658  25.205  35.869   7.664
 2245POPC   NC330659  40.024  12.837   9.464
 2245POPC   PO430660  39.958  12.861   9.164
 2245POPC   GL130661  39.965  12.846   8.864
 2245POPC   GL230662  39.837  12.860   8.864
 2245POPC   C1A30663  40.029  12.814   8.564
 2245POPC   D2A30664  40.022  12.827   8.264
 2245POPC   C3A30665  39.996  12.851   7.964
 2245POPC   C4A30666  39.966  12.813   7.664
 2245POPC   C1B30667  39.757  12.828   8.564
 2245POPC   C2B30668  39.805  12.811   8.264
 2245POPC   C3B30669  39.732  12.757   7.964
 2245POPC   C4B30670  39.725  12.805   7.664
 2246POPC   NC330671  33.052   5.882   9.464
 2246POPC   PO430672  33.057   5.916   9.164
 2246POPC   GL130673  33.071   5.861   8.864
 2246POPC   GL230674  33.110   5.790   8.864
 2246POPC   C1A30675  33.067   5.915   8.564
 2246POPC   D2A30676  32.979   5.884   8.264
 2246POPC   C3A30677  33.018   5.851   7.964
 2246POPC   C4A30678  32.982   5.825   7.664
 2246POPC   C1B30679  33.171   5.665   8.564
 2246POPC   C2B30680  33.167   5.601   8.264
 2246POPC   C3B30681  33.107   5.689   7.964
 2246POPC   C4B30682  33.101   5.678   7.664
 2247POPC   NC330683  32.248  43.098   9.464
 2247POPC   PO430684  32.255  43.090   9.164
 2247POPC   GL130685  32.257  43.080   8.864
 2247POPC   GL230686  32.095  43.139   8.864
 2247POPC   C1A30687  32.216  43.141   8.564
 2247POPC   D2A30688  32.275  43.143   8.264
 2247POPC   C3A30689  32.284  43.090   7.964
 2247POPC   C4A30690  32.246  43.143   7.664
 2247POPC   C1B30691  31.998  43.179   8.564
 2247POPC   C2B30692  32.071  43.255   8.264
 2247POPC   C3B30693  31.977  43.230   7.964
 2247POPC   C4B30694  32.044  43.273   7.664
 2248POPC   NC330695  32.275  26.088   9.464
 2248POPC   PO430696  32.249  25.993   9.164
 2248POPC   GL130697  32.205  26.049   8.864
 2248POPC   GL230698  32.239  26.195   8.864
 2248POPC   C1A30699  32.202  26.000   8.564
 2248POPC   D2A30700  32.257  25.995   8.264
 2248POPC   C3A30701  32.235  26.006   7.964
 2248POPC   C4A30702  32.276  26.068   7.664
 2248POPC   C1B30703  32.218  26.318   8.564
 2248POPC   C2B30704  32.267  26.291   8.264
 2248POPC   C3B30705  32.264  26.319   7.964
 2248POPC   C4B30706  32.225  26.308   7.664
 2249POPC   NC330707   2.018  40.019   9.464
 2249POPC   PO430708   1.997  40.037   9.164
 2249POPC   GL130709   2.018  39.980   8.864
 2249POPC   GL230710   1.831  40.049   8.864
 2249POPC   C1A30711   1.952  39.973   8.564
 2249POPC   D2A30712   1.957  39.985   8.264
 2249POPC   C3A30713   1.958  39.968   7.964
 2249POPC   C4A30714   1.955  40.013   7.664
 2249POPC   C1B30715   1.796  40.113   8.564
 2249POPC   C2B30716   1.716  40.108   8.264
 2249POPC   C3B30717   1.763  40.061   7.964
 2249POPC   C4B30718   1.772  40.070   7.664
 2250POPC   NC330719   7.448  14.449   9.464
 2250POPC   PO430720   7.441  14.453   9.164
 2250POPC   GL130721   7.417  14.394   8.864
 2250POPC   GL230722   7.407  14.537   8.864
 2250POPC   C1A30723   7.435  14.417   8.564
 2250POPC   D2A30724   7.381  14.418   8.264
 2250POPC   C3A30725   7.447  14.390   7.964
 2250POPC   C4A30726   7.378  14.401   7.664
 2250POPC   C1B30727   7.426  14.606   8.564
 2250POPC   C2B30728   7.342  14.694   8.264
 2250POPC   C3B30729   7.372  14.660   7.964
 2250POPC   C4B30730   7.426  14.607   7.664
 2251POPC   NC330731  44.679  34.527   9.464
 2251POPC   PO430732  44.689  34.613   9.164
 2251POPC   GL130733  44.663  34.625   8.864
 2251POPC   GL230734  44.553  34.526   8.864
 2251POPC   C1A30735  44.712  34.622   8.564
 2251POPC   D2A30736  44.626  34.598   8.264
 2251POPC   C3A30737  44.658  34.614   7.964
 2251POPC   C4A30738  44.655  34.570   7.664
 2251POPC   C1B30739  44.515  34.351   8.564
 2251POPC   C2B30740  44.467  34.367   8.264
 2251POPC   C3B30741  44.457  34.410   7.964
 2251POPC   C4B30742  44.533  34.355   7.664
 2252POPC   NC330743   1.967  43.925   9.464
 2252POPC   PO430744   1.990  43.933   9.164
 2252POPC   GL130745   2.002  43.883   8.864
 2252POPC   GL230746   1.979  44.053   8.864
 2252POPC   C1A30747   2.001  43.856   8.564
 2252POPC   D2A30748   2.007  43.860   8.264
 2252POPC   C3A30749   1.966  43.862   7.964
 2252POPC   C4A30750   1.951  43.856   7.664
 2252POPC   C1B30751   2.016  44.154   8.564
 2252POPC   C2B30752   2.044  44.178   8.264
 2252POPC   C3B30753   2.025  44.127   7.964
 2252POPC   C4B30754   1.962  44.111   7.664
 2253POPC   NC330755   2.799   8.997   9.464
 2253POPC   PO430756   2.757   9.012   9.164
 2253POPC   GL130757   2.764   9.012   8.864
 2253POPC   GL230758   2.699   8.906   8.864
 2253POPC   C1A30759   2.795   9.008   8.564
 2253POPC   D2A30760   2.773   8.981   8.264
 2253POPC   C3A30761   2.788   8.940   7.964
 2253POPC   C4A30762   2.814   9.002   7.664
 2253POPC   C1B30763   2.631   8.771   8.564
 2253POPC   C2B30764   2.635   8.763   8.264
 2253POPC   C3B30765   2.626   8.785   7.964
 2253POPC   C4B30766   2.624   8.747   7.664
 2254POPC   NC330767  22.949  20.569   9.464
 2254POPC   PO430768  22.988  20.634   9.164
 2254POPC   GL130769  22.902  20.613   8.864
 2254POPC   GL230770  23.016  20.596   8.864
 2254POPC   C1A30771  22.968  20.603   8.564
 2254POPC   D2A30772  22.959  20.580   8.264
 2254POPC   C3A30773  22.961  20.621   7.964
 2254POPC   C4A30774  22.902  20.615   7.664
 2254POPC   C1B30775  23.231  20.577   8.564
 2254POPC   C2B30776  23.153  20.564   8.264
 2254POPC   C3B30777  23.195  20.515   7.964
 2254POPC   C4B30778  23.166  20.525   7.664
 2255POPC   NC330779  42.363  39.957   9.464
 2255POPC   PO430780  42.313  40.012   9.164
 2255POPC   GL130781  42.304  40.032   8.864
 2255POPC   GL230782  42.216  40.023   8.864
 2255POPC   C1A30783  42.304  39.989   8.564
 2255POPC   D2A30784  42.314  40.025   8.264
 2255POPC   C3A30785  42.374  40.005   7.964
 2255POPC   C4A30786  42.325  39.986   7.664
 2255POPC   C1B30787  42.070  40.093   8.564
 2255POPC   C2B30788  42.063  40.129   8.264
 2255POPC   C3B30789  42.131  40.107   7.964
 2255POPC   C4B30790  42.129  40.086   7.664
 2256POPC   NC330791  25.275  32.207   9.464
 2256POPC   PO430792  25.300  32.206   9.164
 2256POPC   GL130793  25.290  32.253   8.864
 2256POPC   GL230794  25.232  32.398   8.864
 2256POPC   C1A30795  25.225  32.219   8.564
 2256POPC   D2A30796  25.286  32.249   8.264
 2256POPC   C3A30797  25.304  32.203   7.964
 2256POPC   C4A30798  25.256  32.278   7.664
 2256POPC   C1B30799  25.171  32.486   8.564
 2256POPC   C2B30800  25.150  32.485   8.264
 2256POPC   C3B30801  25.127  32.446   7.964
 2256POPC   C4B30802  25.126  32.495   7.664
 2257POPC   NC330803  38.458  33.777   9.464
 2257POPC   PO430804  38.503  33.757   9.164
 2257POPC   GL130805  38.493  33.807   8.864
 2257POPC   GL230806  38.392  33.683   8.864
 2257POPC   C1A30807  38.499  33.848   8.564
 2257POPC   D2A30808  38.492  33.834   8.264
 2257POPC   C3A30809  38.457  33.836   7.964
 2257POPC   C4A30810  38.468  33.848   7.664
 2257POPC   C1B30811  38.260  33.700   8.564
 2257POPC   C2B30812  38.256  33.610   8.264
 2257POPC   C3B30813  38.285  33.642   7.964
 2257POPC   C4B30814  38.206  33.681   7.664
 2258POPC   NC330815  10.486  25.255   9.464
 2258POPC   PO430816  10.540  25.225   9.164
 2258POPC   GL130817  10.491  25.229   8.864
 2258POPC   GL230818  10.376  25.322   8.864
 2258POPC   C1A30819  10.478  25.294   8.564
 2258POPC   D2A30820  10.561  25.297   8.264
 2258POPC   C3A30821  10.479  25.249   7.964
 2258POPC   C4A30822  10.559  25.292   7.664
 2258POPC   C1B30823  10.289  25.352   8.564
 2258POPC   C2B30824  10.262  25.332   8.264
 2258POPC   C3B30825  10.273  25.349   7.964
 2258POPC   C4B30826  10.292  25.417   7.664
 2259POPC   NC330827  31.490  12.046   9.464
 2259POPC   PO430828  31.515  12.066   9.164
 2259POPC   GL130829  31.431  12.095   8.864
 2259POPC   GL230830  31.378  12.201   8.864
 2259POPC   C1A30831  31.505  12.095   8.564
 2259POPC   D2A30832  31.471  12.056   8.264
 2259POPC   C3A30833  31.463  12.067   7.964
 2259POPC   C4A30834  31.502  12.060   7.664
 2259POPC   C1B30835  31.249  12.210   8.564
 2259POPC   C2B30836  31.333  12.222   8.264
 2259POPC   C3B30837  31.304  12.259   7.964
 2259POPC   C4B30838  31.331  12.211   7.664
 2260POPC   NC330839  18.314  40.737   9.464
 2260POPC   PO430840  18.271  40.809   9.164
 2260POPC   GL130841  18.287  40.826   8.864
 2260POPC   GL230842  18.188  40.708   8.864
 2260POPC   C1A30843  18.313  40.808   8.564
 2260POPC   D2A30844  18.278  40.757   8.264
 2260POPC   C3A30845  18.314  40.778   7.964
 2260POPC   C4A30846  18.251  40.733   7.664
 2260POPC   C1B30847  18.049  40.631   8.564
 2260POPC   C2B30848  18.085  40.582   8.264
 2260POPC   C3B30849  18.073  40.605   7.964
 2260POPC   C4B30850  18.069  40.596   7.664
 2261POPC   NC330851  13.640  26.029   9.464
 2261POPC   PO430852  13.651  26.047   9.164
 2261POPC   GL130853  13.589  26.072   8.864
 2261POPC   GL230854  13.561  25.927   8.864
 2261POPC   C1A30855  13.657  26.070   8.564
 2261POPC   D2A30856  13.587  26.045   8.264
 2261POPC   C3A30857  13.600  26.045   7.964
 2261POPC   C4A30858  13.636  26.044   7.664
 2261POPC   C1B30859  13.466  25.806   8.564
 2261POPC   C2B30860  13.546  25.800   8.264
 2261POPC   C3B30861  13.476  25.800   7.964
 2261POPC   C4B30862  13.528  25.841   7.664
 2262POPC   NC330863  13.629  29.895   9.464
 2262POPC   PO430864  13.620  29.937   9.164
 2262POPC   GL130865  13.579  29.938   8.864
 2262POPC   GL230866  13.777  29.946   8.864
 2262POPC   C1A30867  13.641  29.932   8.564
 2262POPC   D2A30868  13.589  29.903   8.264
 2262POPC   C3A30869  13.600  29.887   7.964
 2262POPC   C4A30870  13.662  29.916   7.664
 2262POPC   C1B30871  13.833  29.923   8.564
 2262POPC   C2B30872  13.887  29.862   8.264
 2262POPC   C3B30873  13.910  29.910   7.964
 2262POPC   C4B30874  13.918  29.915   7.664
 2263POPC   NC330875  12.834   5.824   9.464
 2263POPC   PO430876  12.899   5.825   9.164
 2263POPC   GL130877  12.807   5.889   8.864
 2263POPC   GL230878  12.776   5.864   8.864
 2263POPC   C1A30879  12.864   5.825   8.564
 2263POPC   D2A30880  12.881   5.889   8.264
 2263POPC   C3A30881  12.875   5.888   7.964
 2263POPC   C4A30882  12.881   5.895   7.664
 2263POPC   C1B30883  12.606   5.762   8.564
 2263POPC   C2B30884  12.598   5.812   8.264
 2263POPC   C3B30885  12.622   5.820   7.964
 2263POPC   C4B30886  12.590   5.817   7.664
 2264POPC   NC330887  23.698  20.590   9.464
 2264POPC   PO430888  23.747  20.643   9.164
 2264POPC   GL130889  23.736  20.659   8.864
 2264POPC   GL230890  23.649  20.538   8.864
 2264POPC   C1A30891  23.680  20.586   8.564
 2264POPC   D2A30892  23.707  20.564   8.264
 2264POPC   C3A30893  23.666  20.605   7.964
 2264POPC   C4A30894  23.733  20.591   7.664
 2264POPC   C1B30895  23.576  20.459   8.564
 2264POPC   C2B30896  23.559  20.426   8.264
 2264POPC   C3B30897  23.517  20.454   7.964
 2264POPC   C4B30898  23.543  20.403   7.664
 2265POPC   NC330899  25.999  22.145   9.464
 2265POPC   PO430900  26.008  22.176   9.164
 2265POPC   GL130901  26.076  22.185   8.864
 2265POPC   GL230902  26.008  22.091   8.864
 2265POPC   C1A30903  26.031  22.176   8.564
 2265POPC   D2A30904  26.027  22.127   8.264
 2265POPC   C3A30905  26.024  22.113   7.964
 2265POPC   C4A30906  26.019  22.157   7.664
 2265POPC   C1B30907  25.960  21.892   8.564
 2265POPC   C2B30908  25.994  21.962   8.264
 2265POPC   C3B30909  25.974  21.918   7.964
 2265POPC   C4B30910  25.957  21.967   7.664
 2266POPC   NC330911  18.307  12.089   9.464
 2266POPC   PO430912  18.298  12.084   9.164
 2266POPC   GL130913  18.259  12.048   8.864
 2266POPC   GL230914  18.165  12.002   8.864
 2266POPC   C1A30915  18.296  12.109   8.564
 2266POPC   D2A30916  18.285  12.097   8.264
 2266POPC   C3A30917  18.269  12.075   7.964
 2266POPC   C4A30918  18.245  12.028   7.664
 2266POPC   C1B30919  18.085  11.931   8.564
 2266POPC   C2B30920  18.100  11.865   8.264
 2266POPC   C3B30921  18.146  11.880   7.964
 2266POPC   C4B30922  18.112  11.920   7.664
 2267POPC   NC330923   5.095   9.006   9.464
 2267POPC   PO430924   5.074   9.007   9.164
 2267POPC   GL130925   5.142   8.944   8.864
 2267POPC   GL230926   5.148   9.130   8.864
 2267POPC   C1A30927   5.119   8.927   8.564
 2267POPC   D2A30928   5.136   9.010   8.264
 2267POPC   C3A30929   5.087   8.961   7.964
 2267POPC   C4A30930   5.055   9.019   7.664
 2267POPC   C1B30931   5.198   9.169   8.564
 2267POPC   C2B30932   5.230   9.147   8.264
 2267POPC   C3B30933   5.255   9.200   7.964
 2267POPC   C4B30934   5.182   9.202   7.664
 2268POPC   NC330935  40.032  25.269   9.464
 2268POPC   PO430936  39.969  25.256   9.164
 2268POPC   GL130937  40.040  25.315   8.864
 2268POPC   GL230938  39.936  25.177   8.864
 2268POPC   C1A30939  39.989  25.297   8.564
 2268POPC   D2A30940  40.041  25.266   8.264
 2268POPC   C3A30941  40.052  25.295   7.964
 2268POPC   C4A30942  40.014  25.264   7.664
 2268POPC   C1B30943  39.852  25.022   8.564
 2268POPC   C2B30944  39.901  25.055   8.264
 2268POPC   C3B30945  39.915  25.032   7.964
 2268POPC   C4B30946  39.928  25.051   7.664
 2269POPC   NC330947  19.867  26.867   9.464
 2269POPC   PO430948  19.822  26.828   9.164
 2269POPC   GL130949  19.834  26.813   8.864
 2269POPC   GL230950  19.943  26.784   8.864
 2269POPC   C1A30951  19.844  26.796   8.564
 2269POPC   D2A30952  19.800  26.789   8.264
 2269POPC   C3A30953  19.796  26.857   7.964
 2269POPC   C4A30954  19.835  26.798   7.664
 2269POPC   C1B30955  20.007  26.676   8.564
 2269POPC   C2B30956  20.044  26.638   8.264
 2269POPC   C3B30957  20.070  26.703   7.964
 2269POPC   C4B30958  20.046  26.685   7.664
 2270POPC   NC330959  26.077  16.712   9.464
 2270POPC   PO430960  26.050  16.723   9.164
 2270POPC   GL130961  26.076  16.732   8.864
 2270POPC   GL230962  26.050  16.631   8.864
 2270POPC   C1A30963  26.060  16.754   8.564
 2270POPC   D2A30964  26.030  16.717   8.264
 2270POPC   C3A30965  26.060  16.767   7.964
 2270POPC   C4A30966  26.035  16.767   7.664
 2270POPC   C1B30967  25.991  16.509   8.564
 2270POPC   C2B30968  25.927  16.482   8.264
 2270POPC   C3B30969  25.928  16.506   7.964
 2270POPC   C4B30970  25.917  16.528   7.664
 2271POPC   NC330971  20.611  44.657   9.464
 2271POPC   PO430972  20.610  44.627   9.164
 2271POPC   GL130973  20.635  44.632   8.864
 2271POPC   GL230974  20.639  44.738   8.864
 2271POPC   C1A30975  20.580  44.707   8.564
 2271POPC   D2A30976  20.608  44.691   8.264
 2271POPC   C3A30977  20.605  44.622   7.964
 2271POPC   C4A30978  20.585  44.623   7.664
 2271POPC   C1B30979  20.746  44.900   8.564
 2271POPC   C2B30980  20.681  44.847   8.264
 2271POPC   C3B30981  20.679  44.866   7.964
 2271POPC   C4B30982  20.665  44.885   7.664
 2272POPC   NC330983  11.339   5.078   9.464
 2272POPC   PO430984  11.337   5.116   9.164
 2272POPC   GL130985  11.295   5.068   8.864
 2272POPC   GL230986  11.220   4.977   8.864
 2272POPC   C1A30987  11.290   5.059   8.564
 2272POPC   D2A30988  11.342   5.126   8.264
 2272POPC   C3A30989  11.312   5.109   7.964
 2272POPC   C4A30990  11.274   5.106   7.664
 2272POPC   C1B30991  11.241   4.894   8.564
 2272POPC   C2B30992  11.271   4.839   8.264
 2272POPC   C3B30993  11.280   4.822   7.964
 2272POPC   C4B30994  11.210   4.892   7.664
 2273POPC   NC330995  12.823   1.234   9.464
 2273POPC   PO430996  12.889   1.202   9.164
 2273POPC   GL130997  12.845   1.173   8.864
 2273POPC   GL230998  12.780   1.263   8.864
 2273POPC   C1A30999  12.816   1.185   8.564
 2273POPC   D2A31000  12.869   1.167   8.264
 2273POPC   C3A31001  12.900   1.184   7.964
 2273POPC   C4A31002  12.835   1.171   7.664
 2273POPC   C1B31003  12.671   1.386   8.564
 2273POPC   C2B31004  12.658   1.444   8.264
 2273POPC   C3B31005  12.723   1.374   7.964
 2273POPC   C4B31006  12.674   1.424   7.664
 2274POPC   NC331007  29.906  25.269   9.464
 2274POPC   PO431008  29.873  25.278   9.164
 2274POPC   GL131009  29.914  25.251   8.864
 2274POPC   GL231010  29.975  25.349   8.864
 2274POPC   C1A31011  29.947  25.270   8.564
 2274POPC   D2A31012  29.968  25.283   8.264
 2274POPC   C3A31013  29.925  25.272   7.964
 2274POPC   C4A31014  29.874  25.290   7.664
 2274POPC   C1B31015  30.088  25.384   8.564
 2274POPC   C2B31016  30.145  25.448   8.264
 2274POPC   C3B31017  30.111  25.458   7.964
 2274POPC   C4B31018  30.131  25.432   7.664
 2275POPC   NC331019  36.136  33.838   9.464
 2275POPC   PO431020  36.138  33.769   9.164
 2275POPC   GL131021  36.139  33.789   8.864
 2275POPC   GL231022  36.003  33.759   8.864
 2275POPC   C1A31023  36.120  33.841   8.564
 2275POPC   D2A31024  36.110  33.770   8.264
 2275POPC   C3A31025  36.112  33.756   7.964
 2275POPC   C4A31026  36.150  33.811   7.664
 2275POPC   C1B31027  35.921  33.680   8.564
 2275POPC   C2B31028  35.938  33.617   8.264
 2275POPC   C3B31029  35.927  33.706   7.964
 2275POPC   C4B31030  35.879  33.635   7.664
 2276POPC   NC331031  29.925   2.726   9.464
 2276POPC   PO431032  29.942   2.811   9.164
 2276POPC   GL131033  29.909   2.768   8.864
 2276POPC   GL231034  29.839   2.698   8.864
 2276POPC   C1A31035  29.941   2.797   8.564
 2276POPC   D2A31036  29.916   2.722   8.264
 2276POPC   C3A31037  29.884   2.806   7.964
 2276POPC   C4A31038  29.939   2.740   7.664
 2276POPC   C1B31039  29.797   2.551   8.564
 2276POPC   C2B31040  29.795   2.533   8.264
 2276POPC   C3B31041  29.798   2.560   7.964
 2276POPC   C4B31042  29.824   2.528   7.664
 2277POPC   NC331043  36.864  14.450   9.464
 2277POPC   PO431044  36.929  14.434   9.164
 2277POPC   GL131045  36.945  14.442   8.864
 2277POPC   GL231046  36.851  14.484   8.864
 2277POPC   C1A31047  36.880  14.366   8.564
 2277POPC   D2A31048  36.888  14.447   8.264
 2277POPC   C3A31049  36.932  14.419   7.964
 2277POPC   C4A31050  36.925  14.422   7.664
 2277POPC   C1B31051  36.668  14.531   8.564
 2277POPC   C2B31052  36.739  14.579   8.264
 2277POPC   C3B31053  36.711  14.616   7.964
 2277POPC   C4B31054  36.682  14.553   7.664
 2278POPC   NC331055  36.081  27.623   9.464
 2278POPC   PO431056  36.128  27.624   9.164
 2278POPC   GL131057  36.150  27.589   8.864
 2278POPC   GL231058  36.036  27.722   8.864
 2278POPC   C1A31059  36.137  27.551   8.564
 2278POPC   D2A31060  36.094  27.640   8.264
 2278POPC   C3A31061  36.093  27.546   7.964
 2278POPC   C4A31062  36.132  27.589   7.664
 2278POPC   C1B31063  35.957  27.740   8.564
 2278POPC   C2B31064  35.968  27.788   8.264
 2278POPC   C3B31065  35.949  27.739   7.964
 2278POPC   C4B31066  35.916  27.762   7.664
 2279POPC   NC331067  27.602  40.055   9.464
 2279POPC   PO431068  27.570  40.017   9.164
 2279POPC   GL131069  27.595  39.980   8.864
 2279POPC   GL231070  27.655  39.877   8.864
 2279POPC   C1A31071  27.554  40.005   8.564
 2279POPC   D2A31072  27.558  39.974   8.264
 2279POPC   C3A31073  27.597  39.964   7.964
 2279POPC   C4A31074  27.619  40.040   7.664
 2279POPC   C1B31075  27.779  39.763   8.564
 2279POPC   C2B31076  27.771  39.791   8.264
 2279POPC   C3B31077  27.779  39.812   7.964
 2279POPC   C4B31078  27.791  39.807   7.664
 2280POPC   NC331079  42.360  12.056   9.464
 2280POPC   PO431080  42.307  12.116   9.164
 2280POPC   GL131081  42.324  12.118   8.864
 2280POPC   GL231082  42.448  12.048   8.864
 2280POPC   C1A31083  42.349  12.073   8.564
 2280POPC   D2A31084  42.288  12.122   8.264
 2280POPC   C3A31085  42.338  12.060   7.964
 2280POPC   C4A31086  42.328  12.039   7.664
 2280POPC   C1B31087  42.568  12.010   8.564
 2280POPC   C2B31088  42.560  12.000   8.264
 2280POPC   C3B31089  42.584  12.019   7.964
 2280POPC   C4B31090  42.545  11.960   7.664
 2281POPC   NC331091   8.245  21.396   9.464
 2281POPC   PO431092   8.214  21.357   9.164
 2281POPC   GL131093   8.208  21.422   8.864
 2281POPC   GL231094   8.049  21.388   8.864
 2281POPC   C1A31095   8.179  21.357   8.564
 2281POPC   D2A31096   8.187  21.341   8.264
 2281POPC   C3A31097   8.205  21.416   7.964
 2281POPC   C4A31098   8.199  21.386   7.664
 2281POPC   C1B31099   7.931  21.368   8.564
 2281POPC   C2B31100   7.901  21.419   8.264
 2281POPC   C3B31101   7.949  21.429   7.964
 2281POPC   C4B31102   7.935  21.360   7.664
 2282POPC   NC331103  20.657  39.996   9.464
 2282POPC   PO431104  20.660  39.969   9.164
 2282POPC   GL131105  20.652  39.958   8.864
 2282POPC   GL231106  20.752  40.052   8.864
 2282POPC   C1A31107  20.642  39.969   8.564
 2282POPC   D2A31108  20.566  40.011   8.264
 2282POPC   C3A31109  20.640  40.043   7.964
 2282POPC   C4A31110  20.652  40.047   7.664
 2282POPC   C1B31111  20.824  40.165   8.564
 2282POPC   C2B31112  20.813  40.179   8.264
 2282POPC   C3B31113  20.776  40.169   7.964
 2282POPC   C4B31114  20.767  40.169   7.664
 2283POPC   NC331115   8.241  30.738   9.464
 2283POPC   PO431116   8.225  30.736   9.164
 2283POPC   GL131117   8.213  30.728   8.864
 2283POPC   GL231118   8.268  30.546   8.864
 2283POPC   C1A31119   8.221  30.672   8.564
 2283POPC   D2A31120   8.147  30.739   8.264
 2283POPC   C3A31121   8.199  30.668   7.964
 2283POPC   C4A31122   8.208  30.665   7.664
 2283POPC   C1B31123   8.336  30.483   8.564
 2283POPC   C2B31124   8.310  30.429   8.264
 2283POPC   C3B31125   8.302  30.467   7.964
 2283POPC   C4B31126   8.281  30.481   7.664
 2284POPC   NC331127  10.574  43.872   9.464
 2284POPC   PO431128  10.485  43.913   9.164
 2284POPC   GL131129  10.513  43.846   8.864
 2284POPC   GL231130  10.600  43.753   8.864
 2284POPC   C1A31131  10.495  43.902   8.564
 2284POPC   D2A31132  10.518  43.896   8.264
 2284POPC   C3A31133  10.490  43.882   7.964
 2284POPC   C4A31134  10.519  43.870   7.664
 2284POPC   C1B31135  10.736  43.696   8.564
 2284POPC   C2B31136  10.672  43.718   8.264
 2284POPC   C3B31137  10.721  43.692   7.964
 2284POPC   C4B31138  10.714  43.663   7.664
 2285POPC   NC331139   1.223  43.150   9.464
 2285POPC   PO431140   1.195  43.099   9.164
 2285POPC   GL131141   1.198  43.064   8.864
 2285POPC   GL231142   1.172  43.178   8.864
 2285POPC   C1A31143   1.263  43.113   8.564
 2285POPC   D2A31144   1.255  43.131   8.264
 2285POPC   C3A31145   1.261  43.094   7.964
 2285POPC   C4A31146   1.208  43.130   7.664
 2285POPC   C1B31147   1.099  43.349   8.564
 2285POPC   C2B31148   1.107  43.366   8.264
 2285POPC   C3B31149   1.096  43.354   7.964
 2285POPC   C4B31150   1.063  43.300   7.664
 2286POPC   NC331151  25.258  17.486   9.464
 2286POPC   PO431152  25.243  17.521   9.164
 2286POPC   GL131153  25.314  17.513   8.864
 2286POPC   GL231154  25.356  17.473   8.864
 2286POPC   C1A31155  25.308  17.497   8.564
 2286POPC   D2A31156  25.268  17.473   8.264
 2286POPC   C3A31157  25.293  17.503   7.964
 2286POPC   C4A31158  25.267  17.552   7.664
 2286POPC   C1B31159  25.427  17.397   8.564
 2286POPC   C2B31160  25.444  17.347   8.264
 2286POPC   C3B31161  25.467  17.413   7.964
 2286POPC   C4B31162  25.512  17.366   7.664
 2287POPC   NC331163  37.674  33.062   9.464
 2287POPC   PO431164  37.653  33.004   9.164
 2287POPC   GL131165  37.698  33.052   8.864
 2287POPC   GL231166  37.696  33.104   8.864
 2287POPC   C1A31167  37.666  33.040   8.564
 2287POPC   D2A31168  37.693  32.999   8.264
 2287POPC   C3A31169  37.687  33.072   7.964
 2287POPC   C4A31170  37.704  32.995   7.664
 2287POPC   C1B31171  37.714  33.264   8.564
 2287POPC   C2B31172  37.709  33.222   8.264
 2287POPC   C3B31173  37.733  33.250   7.964
 2287POPC   C4B31174  37.768  33.247   7.664
 2288POPC   NC331175  18.330  19.864   9.464
 2288POPC   PO431176  18.245  19.874   9.164
 2288POPC   GL131177  18.274  19.843   8.864
 2288POPC   GL231178  18.235  19.934   8.864
 2288POPC   C1A31179  18.293  19.835   8.564
 2288POPC   D2A31180  18.261  19.869   8.264
 2288POPC   C3A31181  18.295  19.853   7.964
 2288POPC   C4A31182  18.262  19.872   7.664
 2288POPC   C1B31183  18.294  20.038   8.564
 2288POPC   C2B31184  18.262  20.068   8.264
 2288POPC   C3B31185  18.290  20.045   7.964
 2288POPC   C4B31186  18.285  20.120   7.664
 2289POPC   NC331187  10.495  37.728   9.464
 2289POPC   PO431188  10.484  37.708   9.164
 2289POPC   GL131189  10.531  37.686   8.864
 2289POPC   GL231190  10.448  37.781   8.864
 2289POPC   C1A31191  10.508  37.722   8.564
 2289POPC   D2A31192  10.534  37.668   8.264
 2289POPC   C3A31193  10.562  37.698   7.964
 2289POPC   C4A31194  10.573  37.679   7.664
 2289POPC   C1B31195  10.428  37.914   8.564
 2289POPC   C2B31196  10.435  37.894   8.264
 2289POPC   C3B31197  10.498  37.895   7.964
 2289POPC   C4B31198  10.462  37.882   7.664
 2290POPC   NC331199   5.091  24.444   9.464
 2290POPC   PO431200   5.095  24.510   9.164
 2290POPC   GL131201   5.109  24.510   8.864
 2290POPC   GL231202   5.169  24.569   8.864
 2290POPC   C1A31203   5.114  24.502   8.564
 2290POPC   D2A31204   5.107  24.490   8.264
 2290POPC   C3A31205   5.128  24.484   7.964
 2290POPC   C4A31206   5.080  24.463   7.664
 2290POPC   C1B31207   5.237  24.696   8.564
 2290POPC   C2B31208   5.199  24.751   8.264
 2290POPC   C3B31209   5.203  24.655   7.964
 2290POPC   C4B31210   5.252  24.698   7.664
 2291POPC   NC331211   0.415   3.588   9.464
 2291POPC   PO431212   0.477   3.562   9.164
 2291POPC   GL131213   0.405   3.525   8.864
 2291POPC   GL231214   0.507   3.683   8.864
 2291POPC   C1A31215   0.464   3.515   8.564
 2291POPC   D2A31216   0.476   3.525   8.264
 2291POPC   C3A31217   0.461   3.535   7.964
 2291POPC   C4A31218   0.466   3.541   7.664
 2291POPC   C1B31219   0.534   3.788   8.564
 2291POPC   C2B31220   0.497   3.813   8.264
 2291POPC   C3B31221   0.527   3.745   7.964
 2291POPC   C4B31222   0.472   3.753   7.664
 2292POPC   NC331223  40.809   2.750   9.464
 2292POPC   PO431224  40.812   2.756   9.164
 2292POPC   GL131225  40.801   2.775   8.864
 2292POPC   GL231226  40.797   2.634   8.864
 2292POPC   C1A31227  40.743   2.779   8.564
 2292POPC   D2A31228  40.766   2.758   8.264
 2292POPC   C3A31229  40.804   2.815   7.964
 2292POPC   C4A31230  40.742   2.760   7.664
 2292POPC   C1B31231  40.755   2.507   8.564
 2292POPC   C2B31232  40.790   2.490   8.264
 2292POPC   C3B31233  40.779   2.545   7.964
 2292POPC   C4B31234  40.805   2.521   7.664
 2293POPC   NC331235  33.836   8.999   9.464
 2293POPC   PO431236  33.841   8.971   9.164
 2293POPC   GL131237  33.846   8.941   8.864
 2293POPC   GL231238  33.964   8.975   8.864
 2293POPC   C1A31239  33.778   8.977   8.564
 2293POPC   D2A31240  33.841   8.956   8.264
 2293POPC   C3A31241  33.789   9.009   7.964
 2293POPC   C4A31242  33.772   8.972   7.664
 2293POPC   C1B31243  34.027   8.965   8.564
 2293POPC   C2B31244  34.089   8.959   8.264
 2293POPC   C3B31245  34.062   8.931   7.964
 2293POPC   C4B31246  34.061   8.975   7.664
 2294POPC   NC331247   2.753  13.636   9.464
 2294POPC   PO431248   2.803  13.640   9.164
 2294POPC   GL131249   2.716  13.618   8.864
 2294POPC   GL231250   2.659  13.689   8.864
 2294POPC   C1A31251   2.754  13.624   8.564
 2294POPC   D2A31252   2.813  13.645   8.264
 2294POPC   C3A31253   2.727  13.600   7.964
 2294POPC   C4A31254   2.731  13.656   7.664
 2294POPC   C1B31255   2.582  13.828   8.564
 2294POPC   C2B31256   2.590  13.806   8.264
 2294POPC   C3B31257   2.602  13.779   7.964
 2294POPC   C4B31258   2.576  13.845   7.664
 2295POPC   NC331259  44.684  13.590   9.464
 2295POPC   PO431260  44.638  13.655   9.164
 2295POPC   GL131261  44.678  13.640   8.864
 2295POPC   GL231262  44.634  13.491   8.864
 2295POPC   C1A31263  44.682  13.635   8.564
 2295POPC   D2A31264  44.625  13.646   8.264
 2295POPC   C3A31265  44.638  13.671   7.964
 2295POPC   C4A31266  44.661  13.599   7.664
 2295POPC   C1B31267  44.645  13.333   8.564
 2295POPC   C2B31268  44.681  13.330   8.264
 2295POPC   C3B31269  44.634  13.416   7.964
 2295POPC   C4B31270  44.703  13.358   7.664
 2296POPC   NC331271   9.707   1.174   9.464
 2296POPC   PO431272   9.714   1.259   9.164
 2296POPC   GL131273   9.762   1.179   8.864
 2296POPC   GL231274   9.728   1.137   8.864
 2296POPC   C1A31275   9.794   1.172   8.564
 2296POPC   D2A31276   9.772   1.186   8.264
 2296POPC   C3A31277   9.754   1.189   7.964
 2296POPC   C4A31278   9.728   1.239   7.664
 2296POPC   C1B31279   9.801   0.921   8.564
 2296POPC   C2B31280   9.721   0.947   8.264
 2296POPC   C3B31281   9.810   0.982   7.964
 2296POPC   C4B31282   9.786   0.972   7.664
 2297POPC   NC331283  26.828  35.325   9.464
 2297POPC   PO431284  26.818  35.321   9.164
 2297POPC   GL131285  26.845  35.303   8.864
 2297POPC   GL231286  26.682  35.385   8.864
 2297POPC   C1A31287  26.768  35.354   8.564
 2297POPC   D2A31288  26.778  35.334   8.264
 2297POPC   C3A31289  26.771  35.388   7.964
 2297POPC   C4A31290  26.788  35.320   7.664
 2297POPC   C1B31291  26.577  35.409   8.564
 2297POPC   C2B31292  26.618  35.410   8.264
 2297POPC   C3B31293  26.581  35.456   7.964
 2297POPC   C4B31294  26.607  35.487   7.664
 2298POPC   NC331295  30.673   2.741   9.464
 2298POPC   PO431296  30.695   2.767   9.164
 2298POPC   GL131297  30.741   2.801   8.864
 2298POPC   GL231298  30.838   2.846   8.864
 2298POPC   C1A31299  30.656   2.760   8.564
 2298POPC   D2A31300  30.666   2.768   8.264
 2298POPC   C3A31301  30.726   2.761   7.964
 2298POPC   C4A31302  30.701   2.735   7.664
 2298POPC   C1B31303  30.911   2.815   8.564
 2298POPC   C2B31304  30.963   2.830   8.264
 2298POPC   C3B31305  30.947   2.872   7.964
 2298POPC   C4B31306  30.909   2.868   7.664
 2299POPC   NC331307   5.070   7.409   9.464
 2299POPC   PO431308   5.081   7.448   9.164
 2299POPC   GL131309   5.133   7.439   8.864
 2299POPC   GL231310   5.207   7.351   8.864
 2299POPC   C1A31311   5.045   7.409   8.564
 2299POPC   D2A31312   5.108   7.443   8.264
 2299POPC   C3A31313   5.089   7.404   7.964
 2299POPC   C4A31314   5.120   7.445   7.664
 2299POPC   C1B31315   5.261   7.287   8.564
 2299POPC   C2B31316   5.328   7.275   8.264
 2299POPC   C3B31317   5.323   7.296   7.964
 2299POPC   C4B31318   5.339   7.255   7.664
 2300POPC   NC331319  15.229  33.065   9.464
 2300POPC   PO431320  15.176  33.001   9.164
 2300POPC   GL131321  15.166  33.027   8.864
 2300POPC   GL231322  15.072  32.996   8.864
 2300POPC   C1A31323  15.171  33.064   8.564
 2300POPC   D2A31324  15.138  32.989   8.264
 2300POPC   C3A31325  15.187  32.977   7.964
 2300POPC   C4A31326  15.213  32.975   7.664
 2300POPC   C1B31327  14.941  32.942   8.564
 2300POPC   C2B31328  14.957  32.897   8.264
 2300POPC   C3B31329  14.915  32.938   7.964
 2300POPC   C4B31330  14.915  32.883   7.664
 2301POPC   NC331331  36.934  34.586   9.464
 2301POPC   PO431332  36.893  34.616   9.164
 2301POPC   GL131333  36.870  34.576   8.864
 2301POPC   GL231334  36.994  34.414   8.864
 2301POPC   C1A31335  36.881  34.596   8.564
 2301POPC   D2A31336  36.860  34.589   8.264
 2301POPC   C3A31337  36.934  34.552   7.964
 2301POPC   C4A31338  36.916  34.592   7.664
 2301POPC   C1B31339  36.996  34.311   8.564
 2301POPC   C2B31340  37.002  34.313   8.264
 2301POPC   C3B31341  36.964  34.351   7.964
 2301POPC   C4B31342  36.976  34.314   7.664
 2302POPC   NC331343  40.755   5.836   9.464
 2302POPC   PO431344  40.801   5.917   9.164
 2302POPC   GL131345  40.797   5.901   8.864
 2302POPC   GL231346  40.797   5.749   8.864
 2302POPC   C1A31347  40.776   5.837   8.564
 2302POPC   D2A31348  40.806   5.828   8.264
 2302POPC   C3A31349  40.815   5.831   7.964
 2302POPC   C4A31350  40.824   5.850   7.664
 2302POPC   C1B31351  40.703   5.614   8.564
 2302POPC   C2B31352  40.732   5.606   8.264
 2302POPC   C3B31353  40.747   5.654   7.964
 2302POPC   C4B31354  40.753   5.630   7.664
 2303POPC   NC331355   9.015  44.691   9.464
 2303POPC   PO431356   8.974  44.630   9.164
 2303POPC   GL131357   8.993  44.691   8.864
 2303POPC   GL231358   8.965  44.777   8.864
 2303POPC   C1A31359   8.999  44.615   8.564
 2303POPC   D2A31360   8.942  44.682   8.264
 2303POPC   C3A31361   8.949  44.645   7.964
 2303POPC   C4A31362   8.954  44.650   7.664
 2303POPC   C1B31363   9.034  44.889   8.564
 2303POPC   C2B31364   9.043  44.924   8.264
 2303POPC   C3B31365   9.001  44.935   7.964
 2303POPC   C4B31366   9.026  44.865   7.664
 2304POPC   NC331367  40.011  28.343   9.464
 2304POPC   PO431368  39.989  28.372   9.164
 2304POPC   GL131369  39.988  28.347   8.864
 2304POPC   GL231370  39.869  28.337   8.864
 2304POPC   C1A31371  40.001  28.359   8.564
 2304POPC   D2A31372  40.028  28.396   8.264
 2304POPC   C3A31373  40.056  28.332   7.964
 2304POPC   C4A31374  39.960  28.356   7.664
 2304POPC   C1B31375  39.727  28.352   8.564
 2304POPC   C2B31376  39.748  28.411   8.264
 2304POPC   C3B31377  39.776  28.376   7.964
 2304POPC   C4B31378  39.787  28.411   7.664
 2305POPC   NC331379  19.878  33.840   9.464
 2305POPC   PO431380  19.823  33.775   9.164
 2305POPC   GL131381  19.813  33.847   8.864
 2305POPC   GL231382  19.850  33.899   8.864
 2305POPC   C1A31383  19.840  33.754   8.564
 2305POPC   D2A31384  19.843  33.765   8.264
 2305POPC   C3A31385  19.787  33.840   7.964
 2305POPC   C4A31386  19.820  33.785   7.664
 2305POPC   C1B31387  19.908  34.052   8.564
 2305POPC   C2B31388  19.899  34.003   8.264
 2305POPC   C3B31389  19.873  34.048   7.964
 2305POPC   C4B31390  19.853  34.030   7.664
 2306POPC   NC331391  33.799  43.906   9.464
 2306POPC   PO431392  33.769  43.906   9.164
 2306POPC   GL131393  33.802  43.908   8.864
 2306POPC   GL231394  33.669  43.758   8.864
 2306POPC   C1A31395  33.829  43.903   8.564
 2306POPC   D2A31396  33.835  43.883   8.264
 2306POPC   C3A31397  33.752  43.923   7.964
 2306POPC   C4A31398  33.764  43.865   7.664
 2306POPC   C1B31399  33.669  43.749   8.564
 2306POPC   C2B31400  33.612  43.727   8.264
 2306POPC   C3B31401  33.581  43.699   7.964
 2306POPC   C4B31402  33.582  43.751   7.664
 2307POPC   NC331403  23.754  35.388   9.464
 2307POPC   PO431404  23.703  35.399   9.164
 2307POPC   GL131405  23.738  35.368   8.864
 2307POPC   GL231406  23.595  35.394   8.864
 2307POPC   C1A31407  23.736  35.369   8.564
 2307POPC   D2A31408  23.685  35.340   8.264
 2307POPC   C3A31409  23.682  35.354   7.964
 2307POPC   C4A31410  23.749  35.372   7.664
 2307POPC   C1B31411  23.464  35.364   8.564
 2307POPC   C2B31412  23.508  35.329   8.264
 2307POPC   C3B31413  23.502  35.317   7.964
 2307POPC   C4B31414  23.510  35.294   7.664
 2308POPC   NC331415  33.847  25.266   9.464
 2308POPC   PO431416  33.756  25.299   9.164
 2308POPC   GL131417  33.845  25.223   8.864
 2308POPC   GL231418  33.814  25.159   8.864
 2308POPC   C1A31419  33.753  25.268   8.564
 2308POPC   D2A31420  33.767  25.245   8.264
 2308POPC   C3A31421  33.788  25.261   7.964
 2308POPC   C4A31422  33.786  25.253   7.664
 2308POPC   C1B31423  33.786  25.056   8.564
 2308POPC   C2B31424  33.744  24.967   8.264
 2308POPC   C3B31425  33.834  25.016   7.964
 2308POPC   C4B31426  33.831  25.019   7.664
 2309POPC   NC331427   1.980  14.394   9.464
 2309POPC   PO431428   1.941  14.431   9.164
 2309POPC   GL131429   1.976  14.430   8.864
 2309POPC   GL231430   1.860  14.331   8.864
 2309POPC   C1A31431   1.995  14.416   8.564
 2309POPC   D2A31432   2.001  14.362   8.264
 2309POPC   C3A31433   2.018  14.446   7.964
 2309POPC   C4A31434   1.961  14.362   7.664
 2309POPC   C1B31435   1.739  14.278   8.564
 2309POPC   C2B31436   1.786  14.284   8.264
 2309POPC   C3B31437   1.818  14.236   7.964
 2309POPC   C4B31438   1.777  14.309   7.664
 2310POPC   NC331439   2.811   2.718   9.464
 2310POPC   PO431440   2.783   2.722   9.164
 2310POPC   GL131441   2.716   2.746   8.864
 2310POPC   GL231442   2.668   2.746   8.864
 2310POPC   C1A31443   2.759   2.787   8.564
 2310POPC   D2A31444   2.777   2.723   8.264
 2310POPC   C3A31445   2.779   2.752   7.964
 2310POPC   C4A31446   2.753   2.805   7.664
 2310POPC   C1B31447   2.508   2.787   8.564
 2310POPC   C2B31448   2.505   2.760   8.264
 2310POPC   C3B31449   2.483   2.751   7.964
 2310POPC   C4B31450   2.467   2.711   7.664
 2311POPC   NC331451  35.309  26.005   9.464
 2311POPC   PO431452  35.341  26.051   9.164
 2311POPC   GL131453  35.354  26.056   8.864
 2311POPC   GL231454  35.506  26.074   8.864
 2311POPC   C1A31455  35.391  26.031   8.564
 2311POPC   D2A31456  35.338  26.009   8.264
 2311POPC   C3A31457  35.374  26.070   7.964
 2311POPC   C4A31458  35.344  26.039   7.664
 2311POPC   C1B31459  35.575  26.124   8.564
 2311POPC   C2B31460  35.600  26.220   8.264
 2311POPC   C3B31461  35.533  26.138   7.964
 2311POPC   C4B31462  35.565  26.157   7.664
 2312POPC   NC331463  29.883  20.603   9.464
 2312POPC   PO431464  29.924  20.641   9.164
 2312POPC   GL131465  29.965  20.653   8.864
 2312POPC   GL231466  29.984  20.751   8.864
 2312POPC   C1A31467  29.943  20.653   8.564
 2312POPC   D2A31468  29.954  20.572   8.264
 2312POPC   C3A31469  29.878  20.577   7.964
 2312POPC   C4A31470  29.924  20.580   7.664
 2312POPC   C1B31471  30.088  20.757   8.564
 2312POPC   C2B31472  30.094  20.762   8.264
 2312POPC   C3B31473  30.054  20.780   7.964
 2312POPC   C4B31474  30.124  20.822   7.664
 2313POPC   NC331475  29.927  36.945   9.464
 2313POPC   PO431476  29.874  36.858   9.164
 2313POPC   GL131477  29.952  36.879   8.864
 2313POPC   GL231478  29.840  36.776   8.864
 2313POPC   C1A31479  29.914  36.902   8.564
 2313POPC   D2A31480  29.925  36.900   8.264
 2313POPC   C3A31481  29.934  36.921   7.964
 2313POPC   C4A31482  29.924  36.933   7.664
 2313POPC   C1B31483  29.799  36.650   8.564
 2313POPC   C2B31484  29.800  36.715   8.264
 2313POPC   C3B31485  29.756  36.683   7.964
 2313POPC   C4B31486  29.808  36.701   7.664
 2314POPC   NC331487  26.069  15.193   9.464
 2314POPC   PO431488  26.038  15.150   9.164
 2314POPC   GL131489  26.021  15.163   8.864
 2314POPC   GL231490  26.032  15.252   8.864
 2314POPC   C1A31491  26.089  15.217   8.564
 2314POPC   D2A31492  26.018  15.222   8.264
 2314POPC   C3A31493  26.049  15.136   7.964
 2314POPC   C4A31494  26.010  15.188   7.664
 2314POPC   C1B31495  25.949  15.417   8.564
 2314POPC   C2B31496  26.019  15.385   8.264
 2314POPC   C3B31497  25.974  15.457   7.964
 2314POPC   C4B31498  25.956  15.376   7.664
 2315POPC   NC331499  11.325  32.989   9.464
 2315POPC   PO431500  11.279  33.056   9.164
 2315POPC   GL131501  11.336  33.007   8.864
 2315POPC   GL231502  11.358  32.963   8.864
 2315POPC   C1A31503  11.250  33.060   8.564
 2315POPC   D2A31504  11.263  32.993   8.264
 2315POPC   C3A31505  11.294  33.059   7.964
 2315POPC   C4A31506  11.285  32.991   7.664
 2315POPC   C1B31507  11.441  32.839   8.564
 2315POPC   C2B31508  11.511  32.857   8.264
 2315POPC   C3B31509  11.506  32.851   7.964
 2315POPC   C4B31510  11.451  32.820   7.664
 2316POPC   NC331511  25.299   7.424   9.464
 2316POPC   PO431512  25.291   7.429   9.164
 2316POPC   GL131513  25.313   7.420   8.864
 2316POPC   GL231514  25.283   7.299   8.864
 2316POPC   C1A31515  25.263   7.376   8.564
 2316POPC   D2A31516  25.273   7.447   8.264
 2316POPC   C3A31517  25.275   7.390   7.964
 2316POPC   C4A31518  25.227   7.465   7.664
 2316POPC   C1B31519  25.418   7.196   8.564
 2316POPC   C2B31520  25.380   7.201   8.264
 2316POPC   C3B31521  25.417   7.171   7.964
 2316POPC   C4B31522  25.402   7.185   7.664
 2317POPC   NC331523  36.941  27.602   9.464
 2317POPC   PO431524  36.877  27.642   9.164
 2317POPC   GL131525  36.938  27.632   8.864
 2317POPC   GL231526  36.843  27.479   8.864
 2317POPC   C1A31527  36.863  27.605   8.564
 2317POPC   D2A31528  36.935  27.623   8.264
 2317POPC   C3A31529  36.908  27.635   7.964
 2317POPC   C4A31530  36.889  27.561   7.664
 2317POPC   C1B31531  36.672  27.406   8.564
 2317POPC   C2B31532  36.685  27.405   8.264
 2317POPC   C3B31533  36.687  27.465   7.964
 2317POPC   C4B31534  36.715  27.483   7.664
 2318POPC   NC331535  22.888  35.335   9.464
 2318POPC   PO431536  22.983  35.363   9.164
 2318POPC   GL131537  22.935  35.317   8.864
 2318POPC   GL231538  23.029  35.331   8.864
 2318POPC   C1A31539  22.956  35.315   8.564
 2318POPC   D2A31540  22.950  35.396   8.264
 2318POPC   C3A31541  22.934  35.400   7.964
 2318POPC   C4A31542  22.904  35.348   7.664
 2318POPC   C1B31543  23.197  35.341   8.564
 2318POPC   C2B31544  23.155  35.375   8.264
 2318POPC   C3B31545  23.201  35.412   7.964
 2318POPC   C4B31546  23.171  35.418   7.664
 2319POPC   NC331547  23.693  16.696   9.464
 2319POPC   PO431548  23.702  16.748   9.164
 2319POPC   GL131549  23.746  16.700   8.864
 2319POPC   GL231550  23.887  16.706   8.864
 2319POPC   C1A31551  23.681  16.780   8.564
 2319POPC   D2A31552  23.733  16.761   8.264
 2319POPC   C3A31553  23.692  16.759   7.964
 2319POPC   C4A31554  23.754  16.748   7.664
 2319POPC   C1B31555  23.972  16.713   8.564
 2319POPC   C2B31556  23.917  16.744   8.264
 2319POPC   C3B31557  23.956  16.666   7.964
 2319POPC   C4B31558  23.960  16.682   7.664
 2320POPC   NC331559  31.425  11.336   9.464
 2320POPC   PO431560  31.454  11.305   9.164
 2320POPC   GL131561  31.493  11.255   8.864
 2320POPC   GL231562  31.565  11.430   8.864
 2320POPC   C1A31563  31.470  11.277   8.564
 2320POPC   D2A31564  31.449  11.261   8.264
 2320POPC   C3A31565  31.494  11.280   7.964
 2320POPC   C4A31566  31.467  11.340   7.664
 2320POPC   C1B31567  31.674  11.528   8.564
 2320POPC   C2B31568  31.637  11.466   8.264
 2320POPC   C3B31569  31.655  11.482   7.964
 2320POPC   C4B31570  31.676  11.528   7.664
 2321POPC   NC331571  36.947  44.655   9.464
 2321POPC   PO431572  36.887  44.648   9.164
 2321POPC   GL131573  36.879  44.684   8.864
 2321POPC   GL231574  36.902  44.547   8.864
 2321POPC   C1A31575  36.893  44.662   8.564
 2321POPC   D2A31576  36.943  44.663   8.264
 2321POPC   C3A31577  36.861  44.655   7.964
 2321POPC   C4A31578  36.934  44.649   7.664
 2321POPC   C1B31579  36.900  44.382   8.564
 2321POPC   C2B31580  36.941  44.395   8.264
 2321POPC   C3B31581  36.850  44.406   7.964
 2321POPC   C4B31582  36.885  44.433   7.664
 2322POPC   NC331583  19.838   5.915   9.464
 2322POPC   PO431584  19.840   5.912   9.164
 2322POPC   GL131585  19.810   5.842   8.864
 2322POPC   GL231586  19.854   6.002   8.864
 2322POPC   C1A31587  19.828   5.839   8.564
 2322POPC   D2A31588  19.786   5.913   8.264
 2322POPC   C3A31589  19.812   5.843   7.964
 2322POPC   C4A31590  19.840   5.827   7.664
 2322POPC   C1B31591  19.785   6.102   8.564
 2322POPC   C2B31592  19.825   6.079   8.264
 2322POPC   C3B31593  19.769   6.123   7.964
 2322POPC   C4B31594  19.759   6.092   7.664
 2323POPC   NC331595   5.061   8.210   9.464
 2323POPC   PO431596   5.081   8.200   9.164
 2323POPC   GL131597   5.123   8.239   8.864
 2323POPC   GL231598   5.128   8.124   8.864
 2323POPC   C1A31599   5.115   8.185   8.564
 2323POPC   D2A31600   5.125   8.190   8.264
 2323POPC   C3A31601   5.136   8.244   7.964
 2323POPC   C4A31602   5.092   8.186   7.664
 2323POPC   C1B31603   5.192   7.975   8.564
 2323POPC   C2B31604   5.154   7.947   8.264
 2323POPC   C3B31605   5.117   7.990   7.964
 2323POPC   C4B31606   5.142   7.994   7.664
 2324POPC   NC331607   3.501  41.560   9.464
 2324POPC   PO431608   3.515  41.605   9.164
 2324POPC   GL131609   3.529  41.590   8.864
 2324POPC   GL231610   3.698  41.643   8.864
 2324POPC   C1A31611   3.527  41.556   8.564
 2324POPC   D2A31612   3.533  41.590   8.264
 2324POPC   C3A31613   3.578  41.554   7.964
 2324POPC   C4A31614   3.501  41.587   7.664
 2324POPC   C1B31615   3.807  41.626   8.564
 2324POPC   C2B31616   3.722  41.642   8.264
 2324POPC   C3B31617   3.733  41.614   7.964
 2324POPC   C4B31618   3.782  41.656   7.664
 2325POPC   NC331619  29.944  26.018   9.464
 2325POPC   PO431620  29.938  26.087   9.164
 2325POPC   GL131621  29.871  26.000   8.864
 2325POPC   GL231622  30.050  26.003   8.864
 2325POPC   C1A31623  29.942  26.064   8.564
 2325POPC   D2A31624  29.961  26.052   8.264
 2325POPC   C3A31625  29.902  26.056   7.964
 2325POPC   C4A31626  29.927  26.048   7.664
 2325POPC   C1B31627  30.122  25.912   8.564
 2325POPC   C2B31628  30.122  25.851   8.264
 2325POPC   C3B31629  30.173  25.910   7.964
 2325POPC   C4B31630  30.156  25.923   7.664
 2326POPC   NC331631  15.969  28.413   9.464
 2326POPC   PO431632  15.939  28.344   9.164
 2326POPC   GL131633  15.967  28.376   8.864
 2326POPC   GL231634  15.852  28.503   8.864
 2326POPC   C1A31635  15.925  28.350   8.564
 2326POPC   D2A31636  15.981  28.379   8.264
 2326POPC   C3A31637  15.991  28.397   7.964
 2326POPC   C4A31638  15.939  28.359   7.664
 2326POPC   C1B31639  15.813  28.564   8.564
 2326POPC   C2B31640  15.787  28.556   8.264
 2326POPC   C3B31641  15.812  28.529   7.964
 2326POPC   C4B31642  15.775  28.584   7.664
 2327POPC   NC331643   5.098  43.113   9.464
 2327POPC   PO431644   5.108  43.087   9.164
 2327POPC   GL131645   5.133  43.088   8.864
 2327POPC   GL231646   5.179  42.993   8.864
 2327POPC   C1A31647   5.108  43.120   8.564
 2327POPC   D2A31648   5.136  43.093   8.264
 2327POPC   C3A31649   5.116  43.085   7.964
 2327POPC   C4A31650   5.094  43.158   7.664
 2327POPC   C1B31651   5.187  42.946   8.564
 2327POPC   C2B31652   5.260  42.918   8.264
 2327POPC   C3B31653   5.226  42.887   7.964
 2327POPC   C4B31654   5.207  42.862   7.664
 2328POPC   NC331655  39.210   7.380   9.464
 2328POPC   PO431656  39.197   7.389   9.164
 2328POPC   GL131657  39.202   7.437   8.864
 2328POPC   GL231658  39.274   7.576   8.864
 2328POPC   C1A31659  39.243   7.425   8.564
 2328POPC   D2A31660  39.208   7.447   8.264
 2328POPC   C3A31661  39.221   7.445   7.964
 2328POPC   C4A31662  39.271   7.416   7.664
 2328POPC   C1B31663  39.322   7.615   8.564
 2328POPC   C2B31664  39.331   7.618   8.264
 2328POPC   C3B31665  39.321   7.689   7.964
 2328POPC   C4B31666  39.269   7.706   7.664
 2329POPC   NC331667  43.132  19.015   9.464
 2329POPC   PO431668  43.076  19.021   9.164
 2329POPC   GL131669  43.121  19.076   8.864
 2329POPC   GL231670  42.996  18.956   8.864
 2329POPC   C1A31671  43.121  19.063   8.564
 2329POPC   D2A31672  43.143  19.098   8.264
 2329POPC   C3A31673  43.105  19.055   7.964
 2329POPC   C4A31674  43.089  19.027   7.664
 2329POPC   C1B31675  42.943  18.876   8.564
 2329POPC   C2B31676  42.912  18.848   8.264
 2329POPC   C3B31677  42.980  18.822   7.964
 2329POPC   C4B31678  42.973  18.899   7.664
 2330POPC   NC331679  12.850  42.351   9.464
 2330POPC   PO431680  12.872  42.312   9.164
 2330POPC   GL131681  12.802  42.321   8.864
 2330POPC   GL231682  12.731  42.299   8.864
 2330POPC   C1A31683  12.832  42.380   8.564
 2330POPC   D2A31684  12.810  42.379   8.264
 2330POPC   C3A31685  12.884  42.380   7.964
 2330POPC   C4A31686  12.877  42.383   7.664
 2330POPC   C1B31687  12.642  42.301   8.564
 2330POPC   C2B31688  12.586  42.266   8.264
 2330POPC   C3B31689  12.596  42.307   7.964
 2330POPC   C4B31690  12.640  42.328   7.664
 2331POPC   NC331691  44.710  16.761   9.464
 2331POPC   PO431692  44.649  16.737   9.164
 2331POPC   GL131693  44.695  16.775   8.864
 2331POPC   GL231694  44.755  16.682   8.864
 2331POPC   C1A31695  44.711  16.735   8.564
 2331POPC   D2A31696  44.693  16.705   8.264
 2331POPC   C3A31697  44.703  16.777   7.964
 2331POPC   C4A31698  44.661  16.744   7.664
 2331POPC   C1B31699  44.833  16.630   8.564
 2331POPC   C2B31700  44.893  16.583   8.264
 2331POPC   C3B31701  44.907  16.551   7.964
 2331POPC   C4B31702  44.817  16.636   7.664
 2332POPC   NC331703  16.734   6.663   9.464
 2332POPC   PO431704  16.751   6.600   9.164
 2332POPC   GL131705  16.777   6.630   8.864
 2332POPC   GL231706  16.743   6.496   8.864
 2332POPC   C1A31707  16.720   6.684   8.564
 2332POPC   D2A31708  16.688   6.668   8.264
 2332POPC   C3A31709  16.710   6.609   7.964
 2332POPC   C4A31710  16.760   6.636   7.664
 2332POPC   C1B31711  16.783   6.423   8.564
 2332POPC   C2B31712  16.685   6.423   8.264
 2332POPC   C3B31713  16.740   6.406   7.964
 2332POPC   C4B31714  16.716   6.350   7.664
 2333POPC   NC331715  40.797  23.722   9.464
 2333POPC   PO431716  40.824  23.747   9.164
 2333POPC   GL131717  40.738  23.670   8.864
 2333POPC   GL231718  40.689  23.793   8.864
 2333POPC   C1A31719  40.759  23.763   8.564
 2333POPC   D2A31720  40.775  23.694   8.264
 2333POPC   C3A31721  40.780  23.707   7.964
 2333POPC   C4A31722  40.817  23.756   7.664
 2333POPC   C1B31723  40.662  23.876   8.564
 2333POPC   C2B31724  40.622  23.908   8.264
 2333POPC   C3B31725  40.652  23.927   7.964
 2333POPC   C4B31726  40.656  23.914   7.664
 2334POPC   NC331727   6.656   4.332   9.464
 2334POPC   PO431728   6.676   4.334   9.164
 2334POPC   GL131729   6.673   4.353   8.864
 2334POPC   GL231730   6.748   4.407   8.864
 2334POPC   C1A31731   6.624   4.334   8.564
 2334POPC   D2A31732   6.671   4.356   8.264
 2334POPC   C3A31733   6.639   4.283   7.964
 2334POPC   C4A31734   6.630   4.308   7.664
 2334POPC   C1B31735   6.862   4.482   8.564
 2334POPC   C2B31736   6.828   4.454   8.264
 2334POPC   C3B31737   6.912   4.466   7.964
 2334POPC   C4B31738   6.876   4.465   7.664
 2335POPC   NC331739  22.152  42.295   9.464
 2335POPC   PO431740  22.192  42.314   9.164
 2335POPC   GL131741  22.195  42.348   8.864
 2335POPC   GL231742  22.186  42.183   8.864
 2335POPC   C1A31743  22.114  42.334   8.564
 2335POPC   D2A31744  22.158  42.301   8.264
 2335POPC   C3A31745  22.196  42.309   7.964
 2335POPC   C4A31746  22.212  42.322   7.664
 2335POPC   C1B31747  22.219  42.068   8.564
 2335POPC   C2B31748  22.233  42.136   8.264
 2335POPC   C3B31749  22.259  42.130   7.964
 2335POPC   C4B31750  22.228  42.125   7.664
 2336POPC   NC331751  12.840  12.045   9.464
 2336POPC   PO431752  12.838  12.124   9.164
 2336POPC   GL131753  12.851  12.037   8.864
 2336POPC   GL231754  12.806  12.011   8.864
 2336POPC   C1A31755  12.852  12.086   8.564
 2336POPC   D2A31756  12.858  12.061   8.264
 2336POPC   C3A31757  12.878  12.126   7.964
 2336POPC   C4A31758  12.884  12.043   7.664
 2336POPC   C1B31759  12.743  11.886   8.564
 2336POPC   C2B31760  12.714  11.843   8.264
 2336POPC   C3B31761  12.683  11.833   7.964
 2336POPC   C4B31762  12.749  11.814   7.664
 2337POPC   NC331763  12.824  29.891   9.464
 2337POPC   PO431764  12.899  29.912   9.164
 2337POPC   GL131765  12.893  29.966   8.864
 2337POPC   GL231766  12.897  29.774   8.864
 2337POPC   C1A31767  12.824  29.890   8.564
 2337POPC   D2A31768  12.818  29.886   8.264
 2337POPC   C3A31769  12.846  29.888   7.964
 2337POPC   C4A31770  12.878  29.965   7.664
 2337POPC   C1B31771  13.003  29.748   8.564
 2337POPC   C2B31772  13.020  29.741   8.264
 2337POPC   C3B31773  13.002  29.738   7.964
 2337POPC   C4B31774  13.011  29.742   7.664
 2338POPC   NC331775  12.823  40.019   9.464
 2338POPC   PO431776  12.868  39.958   9.164
 2338POPC   GL131777  12.882  40.010   8.864
 2338POPC   GL231778  12.992  39.960   8.864
 2338POPC   C1A31779  12.882  40.055   8.564
 2338POPC   D2A31780  12.812  39.981   8.264
 2338POPC   C3A31781  12.878  40.021   7.964
 2338POPC   C4A31782  12.865  39.958   7.664
 2338POPC   C1B31783  13.146  40.043   8.564
 2338POPC   C2B31784  13.129  39.992   8.264
 2338POPC   C3B31785  13.136  40.012   7.964
 2338POPC   C4B31786  13.114  39.968   7.664
 2339POPC   NC331787  15.983  36.084   9.464
 2339POPC   PO431788  15.963  36.177   9.164
 2339POPC   GL131789  15.998  36.173   8.864
 2339POPC   GL231790  16.060  36.143   8.864
 2339POPC   C1A31791  16.004  36.164   8.564
 2339POPC   D2A31792  15.936  36.118   8.264
 2339POPC   C3A31793  15.937  36.090   7.964
 2339POPC   C4A31794  15.933  36.133   7.664
 2339POPC   C1B31795  16.203  36.156   8.564
 2339POPC   C2B31796  16.201  36.151   8.264
 2339POPC   C3B31797  16.170  36.171   7.964
 2339POPC   C4B31798  16.178  36.170   7.664
 2340POPC   NC331799   7.424  13.641   9.464
 2340POPC   PO431800   7.428  13.615   9.164
 2340POPC   GL131801   7.409  13.586   8.864
 2340POPC   GL231802   7.331  13.673   8.864
 2340POPC   C1A31803   7.464  13.659   8.564
 2340POPC   D2A31804   7.415  13.613   8.264
 2340POPC   C3A31805   7.380  13.616   7.964
 2340POPC   C4A31806   7.393  13.649   7.664
 2340POPC   C1B31807   7.187  13.713   8.564
 2340POPC   C2B31808   7.196  13.792   8.264
 2340POPC   C3B31809   7.209  13.745   7.964
 2340POPC   C4B31810   7.224  13.718   7.664
 2341POPC   NC331811   7.438  33.031   9.464
 2341POPC   PO431812   7.398  33.009   9.164
 2341POPC   GL131813   7.447  32.987   8.864
 2341POPC   GL231814   7.531  32.975   8.864
 2341POPC   C1A31815   7.394  32.985   8.564
 2341POPC   D2A31816   7.377  33.073   8.264
 2341POPC   C3A31817   7.413  33.006   7.964
 2341POPC   C4A31818   7.395  33.030   7.664
 2341POPC   C1B31819   7.591  32.858   8.564
 2341POPC   C2B31820   7.641  32.921   8.264
 2341POPC   C3B31821   7.614  32.877   7.964
 2341POPC   C4B31822   7.621  32.858   7.664
 2342POPC   NC331823  28.407  10.540   9.464
 2342POPC   PO431824  28.392  10.533   9.164
 2342POPC   GL131825  28.380  10.571   8.864
 2342POPC   GL231826  28.303  10.513   8.864
 2342POPC   C1A31827  28.321  10.509   8.564
 2342POPC   D2A31828  28.415  10.505   8.264
 2342POPC   C3A31829  28.365  10.499   7.964
 2342POPC   C4A31830  28.405  10.504   7.664
 2342POPC   C1B31831  28.099  10.385   8.564
 2342POPC   C2B31832  28.141  10.382   8.264
 2342POPC   C3B31833  28.139  10.370   7.964
 2342POPC   C4B31834  28.094  10.422   7.664
 2343POPC   NC331835  31.512   8.154   9.464
 2343POPC   PO431836  31.447   8.161   9.164
 2343POPC   GL131837  31.474   8.154   8.864
 2343POPC   GL231838  31.342   8.293   8.864
 2343POPC   C1A31839  31.448   8.174   8.564
 2343POPC   D2A31840  31.460   8.192   8.264
 2343POPC   C3A31841  31.495   8.166   7.964
 2343POPC   C4A31842  31.487   8.218   7.664
 2343POPC   C1B31843  31.294   8.326   8.564
 2343POPC   C2B31844  31.255   8.327   8.264
 2343POPC   C3B31845  31.271   8.372   7.964
 2343POPC   C4B31846  31.276   8.337   7.664
 2344POPC   NC331847  32.978  40.771   9.464
 2344POPC   PO431848  32.998  40.754   9.164
 2344POPC   GL131849  33.042  40.796   8.864
 2344POPC   GL231850  33.096  40.860   8.864
 2344POPC   C1A31851  33.014  40.764   8.564
 2344POPC   D2A31852  32.985  40.807   8.264
 2344POPC   C3A31853  33.046  40.791   7.964
 2344POPC   C4A31854  33.042  40.801   7.664
 2344POPC   C1B31855  33.106  40.991   8.564
 2344POPC   C2B31856  33.053  40.980   8.264
 2344POPC   C3B31857  33.047  41.000   7.964
 2344POPC   C4B31858  33.081  41.054   7.664
 2345POPC   NC331859  18.235  27.600   9.464
 2345POPC   PO431860  18.314  27.612   9.164
 2345POPC   GL131861  18.277  27.638   8.864
 2345POPC   GL231862  18.209  27.717   8.864
 2345POPC   C1A31863  18.330  27.611   8.564
 2345POPC   D2A31864  18.253  27.632   8.264
 2345POPC   C3A31865  18.311  27.631   7.964
 2345POPC   C4A31866  18.282  27.625   7.664
 2345POPC   C1B31867  18.206  27.863   8.564
 2345POPC   C2B31868  18.173  27.824   8.264
 2345POPC   C3B31869  18.223  27.827   7.964
 2345POPC   C4B31870  18.218  27.836   7.664
 2346POPC   NC331871  22.972  22.980   9.464
 2346POPC   PO431872  22.967  22.947   9.164
 2346POPC   GL131873  22.931  22.908   8.864
 2346POPC   GL231874  22.854  22.982   8.864
 2346POPC   C1A31875  22.951  22.971   8.564
 2346POPC   D2A31876  22.898  22.971   8.264
 2346POPC   C3A31877  22.913  22.915   7.964
 2346POPC   C4A31878  22.936  22.911   7.664
 2346POPC   C1B31879  22.767  23.119   8.564
 2346POPC   C2B31880  22.718  23.154   8.264
 2346POPC   C3B31881  22.725  23.138   7.964
 2346POPC   C4B31882  22.728  23.100   7.664
 2347POPC   NC331883  24.441  43.933   9.464
 2347POPC   PO431884  24.495  43.905   9.164
 2347POPC   GL131885  24.488  43.882   8.864
 2347POPC   GL231886  24.484  43.747   8.864
 2347POPC   C1A31887  24.495  43.852   8.564
 2347POPC   D2A31888  24.529  43.883   8.264
 2347POPC   C3A31889  24.536  43.886   7.964
 2347POPC   C4A31890  24.531  43.837   7.664
 2347POPC   C1B31891  24.432  43.669   8.564
 2347POPC   C2B31892  24.514  43.679   8.264
 2347POPC   C3B31893  24.481  43.662   7.964
 2347POPC   C4B31894  24.525  43.615   7.664
 2348POPC   NC331895  21.350   0.415   9.464
 2348POPC   PO431896  21.398   0.442   9.164
 2348POPC   GL131897  21.413   0.395   8.864
 2348POPC   GL231898  21.364   0.372   8.864
 2348POPC   C1A31899  21.386   0.436   8.564
 2348POPC   D2A31900  21.416   0.486   8.264
 2348POPC   C3A31901  21.341   0.439   7.964
 2348POPC   C4A31902  21.360   0.488   7.664
 2348POPC   C1B31903  21.270   0.180   8.564
 2348POPC   C2B31904  21.224   0.237   8.264
 2348POPC   C3B31905  21.253   0.263   7.964
 2348POPC   C4B31906  21.303   0.235   7.664
 2349POPC   NC331907   3.548  10.479   9.464
 2349POPC   PO431908   3.589  10.477   9.164
 2349POPC   GL131909   3.535  10.556   8.864
 2349POPC   GL231910   3.479  10.503   8.864
 2349POPC   C1A31911   3.494  10.553   8.564
 2349POPC   D2A31912   3.572  10.551   8.264
 2349POPC   C3A31913   3.540  10.554   7.964
 2349POPC   C4A31914   3.545  10.513   7.664
 2349POPC   C1B31915   3.339  10.421   8.564
 2349POPC   C2B31916   3.316  10.395   8.264
 2349POPC   C3B31917   3.311  10.438   7.964
 2349POPC   C4B31918   3.326  10.447   7.664
 2350POPC   NC331919  14.423  36.928   9.464
 2350POPC   PO431920  14.411  36.927   9.164
 2350POPC   GL131921  14.423  36.866   8.864
 2350POPC   GL231922  14.488  36.905   8.864
 2350POPC   C1A31923  14.415  36.921   8.564
 2350POPC   D2A31924  14.403  36.898   8.264
 2350POPC   C3A31925  14.420  36.945   7.964
 2350POPC   C4A31926  14.357  36.912   7.664
 2350POPC   C1B31927  14.623  36.911   8.564
 2350POPC   C2B31928  14.693  36.864   8.264
 2350POPC   C3B31929  14.698  36.895   7.964
 2350POPC   C4B31930  14.686  36.930   7.664
 2351POPC   NC331931  42.359  31.432   9.464
 2351POPC   PO431932  42.332  31.467   9.164
 2351POPC   GL131933  42.318  31.488   8.864
 2351POPC   GL231934  42.378  31.564   8.864
 2351POPC   C1A31935  42.314  31.518   8.564
 2351POPC   D2A31936  42.363  31.443   8.264
 2351POPC   C3A31937  42.286  31.455   7.964
 2351POPC   C4A31938  42.359  31.461   7.664
 2351POPC   C1B31939  42.326  31.723   8.564
 2351POPC   C2B31940  42.307  31.716   8.264
 2351POPC   C3B31941  42.347  31.742   7.964
 2351POPC   C4B31942  42.389  31.679   7.664
 2352POPC   NC331943   8.951  31.521   9.464
 2352POPC   PO431944   8.945  31.472   9.164
 2352POPC   GL131945   8.950  31.490   8.864
 2352POPC   GL231946   8.924  31.411   8.864
 2352POPC   C1A31947   8.995  31.429   8.564
 2352POPC   D2A31948   8.923  31.473   8.264
 2352POPC   C3A31949   8.938  31.499   7.964
 2352POPC   C4A31950   8.999  31.447   7.664
 2352POPC   C1B31951   8.859  31.222   8.564
 2352POPC   C2B31952   8.847  31.250   8.264
 2352POPC   C3B31953   8.854  31.260   7.964
 2352POPC   C4B31954   8.876  31.213   7.664
 2353POPC   NC331955  29.155  27.605   9.464
 2353POPC   PO431956  29.122  27.592   9.164
 2353POPC   GL131957  29.182  27.581   8.864
 2353POPC   GL231958  29.129  27.471   8.864
 2353POPC   C1A31959  29.099  27.609   8.564
 2353POPC   D2A31960  29.165  27.547   8.264
 2353POPC   C3A31961  29.097  27.582   7.964
 2353POPC   C4A31962  29.173  27.626   7.664
 2353POPC   C1B31963  29.133  27.353   8.564
 2353POPC   C2B31964  29.218  27.356   8.264
 2353POPC   C3B31965  29.129  27.317   7.964
 2353POPC   C4B31966  29.135  27.352   7.664
 2354POPC   NC331967   7.422  31.444   9.464
 2354POPC   PO431968   7.422  31.514   9.164
 2354POPC   GL131969   7.393  31.456   8.864
 2354POPC   GL231970   7.538  31.413   8.864
 2354POPC   C1A31971   7.388  31.469   8.564
 2354POPC   D2A31972   7.401  31.501   8.264
 2354POPC   C3A31973   7.372  31.441   7.964
 2354POPC   C4A31974   7.416  31.516   7.664
 2354POPC   C1B31975   7.705  31.457   8.564
 2354POPC   C2B31976   7.632  31.426   8.264
 2354POPC   C3B31977   7.714  31.440   7.964
 2354POPC   C4B31978   7.683  31.417   7.664
 2355POPC   NC331979   1.993  28.336   9.464
 2355POPC   PO431980   1.966  28.413   9.164
 2355POPC   GL131981   2.014  28.413   8.864
 2355POPC   GL231982   2.071  28.428   8.864
 2355POPC   C1A31983   2.028  28.365   8.564
 2355POPC   D2A31984   1.961  28.341   8.264
 2355POPC   C3A31985   2.034  28.418   7.964
 2355POPC   C4A31986   2.034  28.351   7.664
 2355POPC   C1B31987   2.199  28.452   8.564
 2355POPC   C2B31988   2.226  28.507   8.264
 2355POPC   C3B31989   2.185  28.493   7.964
 2355POPC   C4B31990   2.171  28.534   7.664
 2356POPC   NC331991   2.801  18.273   9.464
 2356POPC   PO431992   2.747  18.234   9.164
 2356POPC   GL131993   2.782  18.285   8.864
 2356POPC   GL231994   2.845  18.275   8.864
 2356POPC   C1A31995   2.770  18.308   8.564
 2356POPC   D2A31996   2.808  18.295   8.264
 2356POPC   C3A31997   2.776  18.268   7.964
 2356POPC   C4A31998   2.736  18.262   7.664
 2356POPC   C1B31999   2.988  18.287   8.564
 2356POPC   C2B32000   3.017  18.202   8.264
 2356POPC   C3B32001   3.008  18.253   7.964
 2356POPC   C4B32002   3.031  18.206   7.664
 2357POPC   NC332003  22.159  30.672   9.464
 2357POPC   PO432004  22.165  30.726   9.164
 2357POPC   GL132005  22.168  30.649   8.864
 2357POPC   GL232006  22.277  30.687   8.864
 2357POPC   C1A32007  22.133  30.709   8.564
 2357POPC   D2A32008  22.128  30.669   8.264
 2357POPC   C3A32009  22.209  30.719   7.964
 2357POPC   C4A32010  22.132  30.697   7.664
 2357POPC   C1B32011  22.448  30.663   8.564
 2357POPC   C2B32012  22.415  30.618   8.264
 2357POPC   C3B32013  22.398  30.660   7.964
 2357POPC   C4B32014  22.360  30.616   7.664
 2358POPC   NC332015   5.126  33.776   9.464
 2358POPC   PO432016   5.095  33.799   9.164
 2358POPC   GL132017   5.089  33.836   8.864
 2358POPC   GL232018   5.006  33.816   8.864
 2358POPC   C1A32019   5.072  33.834   8.564
 2358POPC   D2A32020   5.116  33.770   8.264
 2358POPC   C3A32021   5.142  33.769   7.964
 2358POPC   C4A32022   5.119  33.782   7.664
 2358POPC   C1B32023   4.898  33.773   8.564
 2358POPC   C2B32024   4.821  33.761   8.264
 2358POPC   C3B32025   4.888  33.703   7.964
 2358POPC   C4B32026   4.888  33.704   7.664
 2359POPC   NC332027  39.276   1.940   9.464
 2359POPC   PO432028  39.264   1.952   9.164
 2359POPC   GL132029  39.184   1.954   8.864
 2359POPC   GL232030  39.200   2.109   8.864
 2359POPC   C1A32031  39.185   1.945   8.564
 2359POPC   D2A32032  39.189   1.947   8.264
 2359POPC   C3A32033  39.233   2.027   7.964
 2359POPC   C4A32034  39.226   1.957   7.664
 2359POPC   C1B32035  39.118   2.187   8.564
 2359POPC   C2B32036  39.102   2.178   8.264
 2359POPC   C3B32037  39.042   2.222   7.964
 2359POPC   C4B32038  39.111   2.190   7.664
 2360POPC   NC332039   1.247  38.413   9.464
 2360POPC   PO432040   1.170  38.419   9.164
 2360POPC   GL132041   1.182  38.435   8.864
 2360POPC   GL232042   1.326  38.337   8.864
 2360POPC   C1A32043   1.165  38.445   8.564
 2360POPC   D2A32044   1.176  38.483   8.264
 2360POPC   C3A32045   1.183  38.415   7.964
 2360POPC   C4A32046   1.226  38.446   7.664
 2360POPC   C1B32047   1.400  38.299   8.564
 2360POPC   C2B32048   1.402  38.325   8.264
 2360POPC   C3B32049   1.367  38.292   7.964
 2360POPC   C4B32050   1.404  38.253   7.664
 2361POPC   NC332051  40.759  21.391   9.464
 2361POPC   PO432052  40.809  21.356   9.164
 2361POPC   GL132053  40.823  21.428   8.864
 2361POPC   GL232054  40.749  21.526   8.864
 2361POPC   C1A32055  40.761  21.367   8.564
 2361POPC   D2A32056  40.784  21.373   8.264
 2361POPC   C3A32057  40.832  21.345   7.964
 2361POPC   C4A32058  40.780  21.395   7.664
 2361POPC   C1B32059  40.829  21.684   8.564
 2361POPC   C2B32060  40.740  21.654   8.264
 2361POPC   C3B32061  40.779  21.654   7.964
 2361POPC   C4B32062  40.771  21.642   7.664
 2362POPC   NC332063  22.121  12.057   9.464
 2362POPC   PO432064  22.156  12.083   9.164
 2362POPC   GL132065  22.135  12.070   8.864
 2362POPC   GL232066  22.198  11.991   8.864
 2362POPC   C1A32067  22.117  12.086   8.564
 2362POPC   D2A32068  22.137  12.114   8.264
 2362POPC   C3A32069  22.205  12.088   7.964
 2362POPC   C4A32070  22.184  12.115   7.664
 2362POPC   C1B32071  22.279  11.905   8.564
 2362POPC   C2B32072  22.261  11.865   8.264
 2362POPC   C3B32073  22.262  11.844   7.964
 2362POPC   C4B32074  22.276  11.876   7.664
 2363POPC   NC332075   5.847   8.164   9.464
 2363POPC   PO432076   5.858   8.158   9.164
 2363POPC   GL132077   5.843   8.185   8.864
 2363POPC   GL232078   6.021   8.255   8.864
 2363POPC   C1A32079   5.840   8.176   8.564
 2363POPC   D2A32080   5.860   8.246   8.264
 2363POPC   C3A32081   5.869   8.236   7.964
 2363POPC   C4A32082   5.895   8.233   7.664
 2363POPC   C1B32083   6.142   8.258   8.564
 2363POPC   C2B32084   6.133   8.307   8.264
 2363POPC   C3B32085   6.052   8.314   7.964
 2363POPC   C4B32086   6.087   8.243   7.664
 2364POPC   NC332087  41.564  15.194   9.464
 2364POPC   PO432088  41.511  15.191   9.164
 2364POPC   GL132089  41.539  15.216   8.864
 2364POPC   GL232090  41.628  15.017   8.864
 2364POPC   C1A32091  41.607  15.145   8.564
 2364POPC   D2A32092  41.586  15.160   8.264
 2364POPC   C3A32093  41.556  15.168   7.964
 2364POPC   C4A32094  41.516  15.174   7.664
 2364POPC   C1B32095  41.656  14.959   8.564
 2364POPC   C2B32096  41.661  14.954   8.264
 2364POPC   C3B32097  41.608  14.935   7.964
 2364POPC   C4B32098  41.643  14.913   7.664
 2365POPC   NC332099  21.359  29.955   9.464
 2365POPC   PO432100  21.354  29.940   9.164
 2365POPC   GL132101  21.401  29.933   8.864
 2365POPC   GL232102  21.517  29.907   8.864
 2365POPC   C1A32103  21.347  29.871   8.564
 2365POPC   D2A32104  21.410  29.889   8.264
 2365POPC   C3A32105  21.360  29.958   7.964
 2365POPC   C4A32106  21.404  29.959   7.664
 2365POPC   C1B32107  21.570  29.794   8.564
 2365POPC   C2B32108  21.575  29.820   8.264
 2365POPC   C3B32109  21.605  29.771   7.964
 2365POPC   C4B32110  21.614  29.827   7.664
 2366POPC   NC332111   4.320  16.685   9.464
 2366POPC   PO432112   4.317  16.750   9.164
 2366POPC   GL132113   4.288  16.749   8.864
 2366POPC   GL232114   4.260  16.566   8.864
 2366POPC   C1A32115   4.323  16.710   8.564
 2366POPC   D2A32116   4.282  16.750   8.264
 2366POPC   C3A32117   4.276  16.755   7.964
 2366POPC   C4A32118   4.346  16.701   7.664
 2366POPC   C1B32119   4.284  16.451   8.564
 2366POPC   C2B32120   4.311  16.532   8.264
 2366POPC   C3B32121   4.257  16.530   7.964
 2366POPC   C4B32122   4.258  16.496   7.664
 2367POPC   NC332123   8.207  19.883   9.464
 2367POPC   PO432124   8.182  19.810   9.164
 2367POPC   GL132125   8.206  19.878   8.864
 2367POPC   GL232126   8.097  19.891   8.864
 2367POPC   C1A32127   8.192  19.874   8.564
 2367POPC   D2A32128   8.153  19.860   8.264
 2367POPC   C3A32129   8.189  19.851   7.964
 2367POPC   C4A32130   8.245  19.846   7.664
 2367POPC   C1B32131   8.010  20.009   8.564
 2367POPC   C2B32132   8.072  20.065   8.264
 2367POPC   C3B32133   8.034  20.011   7.964
 2367POPC   C4B32134   8.025  19.984   7.664
 2368POPC   NC332135  43.896  34.593   9.464
 2368POPC   PO432136  43.911  34.539   9.164
 2368POPC   GL132137  43.837  34.612   8.864
 2368POPC   GL232138  44.019  34.545   8.864
 2368POPC   C1A32139  43.927  34.611   8.564
 2368POPC   D2A32140  43.901  34.616   8.264
 2368POPC   C3A32141  43.879  34.585   7.964
 2368POPC   C4A32142  43.899  34.587   7.664
 2368POPC   C1B32143  44.176  34.541   8.564
 2368POPC   C2B32144  44.091  34.554   8.264
 2368POPC   C3B32145  44.095  34.588   7.964
 2368POPC   C4B32146  44.174  34.540   7.664
 2369POPC   NC332147  25.293  26.003   9.464
 2369POPC   PO432148  25.234  26.005   9.164
 2369POPC   GL132149  25.294  26.029   8.864
 2369POPC   GL232150  25.345  26.178   8.864
 2369POPC   C1A32151  25.315  26.077   8.564
 2369POPC   D2A32152  25.242  26.061   8.264
 2369POPC   C3A32153  25.225  26.010   7.964
 2369POPC   C4A32154  25.291  26.002   7.664
 2369POPC   C1B32155  25.307  26.309   8.564
 2369POPC   C2B32156  25.355  26.271   8.264
 2369POPC   C3B32157  25.376  26.286   7.964
 2369POPC   C4B32158  25.369  26.310   7.664
 2370POPC   NC332159  20.631  12.117   9.464
 2370POPC   PO432160  20.647  12.051   9.164
 2370POPC   GL132161  20.603  12.096   8.864
 2370POPC   GL232162  20.469  12.175   8.864
 2370POPC   C1A32163  20.574  12.046   8.564
 2370POPC   D2A32164  20.637  12.077   8.264
 2370POPC   C3A32165  20.622  12.119   7.964
 2370POPC   C4A32166  20.606  12.097   7.664
 2370POPC   C1B32167  20.412  12.162   8.564
 2370POPC   C2B32168  20.440  12.227   8.264
 2370POPC   C3B32169  20.409  12.151   7.964
 2370POPC   C4B32170  20.391  12.218   7.664
 2371POPC   NC332171  40.797  31.430   9.464
 2371POPC   PO432172  40.769  31.480   9.164
 2371POPC   GL132173  40.823  31.502   8.864
 2371POPC   GL232174  40.706  31.550   8.864
 2371POPC   C1A32175  40.796  31.478   8.564
 2371POPC   D2A32176  40.805  31.459   8.264
 2371POPC   C3A32177  40.749  31.432   7.964
 2371POPC   C4A32178  40.791  31.424   7.664
 2371POPC   C1B32179  40.550  31.641   8.564
 2371POPC   C2B32180  40.567  31.590   8.264
 2371POPC   C3B32181  40.566  31.577   7.964
 2371POPC   C4B32182  40.615  31.637   7.664
 2372POPC   NC332183  33.010  24.454   9.464
 2372POPC   PO432184  33.001  24.500   9.164
 2372POPC   GL132185  32.985  24.470   8.864
 2372POPC   GL232186  33.158  24.358   8.864
 2372POPC   C1A32187  32.996  24.447   8.564
 2372POPC   D2A32188  33.041  24.480   8.264
 2372POPC   C3A32189  33.049  24.473   7.964
 2372POPC   C4A32190  32.988  24.457   7.664
 2372POPC   C1B32191  33.182  24.337   8.564
 2372POPC   C2B32192  33.160  24.299   8.264
 2372POPC   C3B32193  33.234  24.339   7.964
 2372POPC   C4B32194  33.174  24.277   7.664
 2373POPC   NC332195  39.249  34.596   9.464
 2373POPC   PO432196  39.196  34.607   9.164
 2373POPC   GL132197  39.224  34.540   8.864
 2373POPC   GL232198  39.195  34.417   8.864
 2373POPC   C1A32199  39.270  34.560   8.564
 2373POPC   D2A32200  39.247  34.601   8.264
 2373POPC   C3A32201  39.220  34.611   7.964
 2373POPC   C4A32202  39.206  34.537   7.664
 2373POPC   C1B32203  39.144  34.337   8.564
 2373POPC   C2B32204  39.140  34.396   8.264
 2373POPC   C3B32205  39.117  34.323   7.964
 2373POPC   C4B32206  39.112  34.399   7.664
 2374POPC   NC332207  35.347   0.445   9.464
 2374POPC   PO432208  35.348   0.437   9.164
 2374POPC   GL132209  35.388   0.417   8.864
 2374POPC   GL232210  35.212   0.415   8.864
 2374POPC   C1A32211  35.362   0.395   8.564
 2374POPC   D2A32212  35.307   0.399   8.264
 2374POPC   C3A32213  35.380   0.475   7.964
 2374POPC   C4A32214  35.397   0.481   7.664
 2374POPC   C1B32215  35.097   0.415   8.564
 2374POPC   C2B32216  35.148   0.480   8.264
 2374POPC   C3B32217  35.110   0.420   7.964
 2374POPC   C4B32218  35.145   0.478   7.664
 2375POPC   NC332219  39.226  14.451   9.464
 2375POPC   PO432220  39.253  14.393   9.164
 2375POPC   GL132221  39.232  14.429   8.864
 2375POPC   GL232222  39.269  14.326   8.864
 2375POPC   C1A32223  39.211  14.371   8.564
 2375POPC   D2A32224  39.268  14.374   8.264
 2375POPC   C3A32225  39.264  14.445   7.964
 2375POPC   C4A32226  39.255  14.365   7.664
 2375POPC   C1B32227  39.358  14.228   8.564
 2375POPC   C2B32228  39.397  14.230   8.264
 2375POPC   C3B32229  39.381  14.150   7.964
 2375POPC   C4B32230  39.321  14.198   7.664
 2376POPC   NC332231  16.691  26.047   9.464
 2376POPC   PO432232  16.773  26.060   9.164
 2376POPC   GL132233  16.767  26.086   8.864
 2376POPC   GL232234  16.673  25.961   8.864
 2376POPC   C1A32235  16.687  26.008   8.564
 2376POPC   D2A32236  16.697  26.014   8.264
 2376POPC   C3A32237  16.758  26.045   7.964
 2376POPC   C4A32238  16.687  25.999   7.664
 2376POPC   C1B32239  16.594  25.772   8.564
 2376POPC   C2B32240  16.598  25.825   8.264
 2376POPC   C3B32241  16.665  25.853   7.964
 2376POPC   C4B32242  16.676  25.812   7.664
 2377POPC   NC332243  37.640   8.964   9.464
 2377POPC   PO432244  37.682   8.925   9.164
 2377POPC   GL132245  37.639   8.923   8.864
 2377POPC   GL232246  37.657   9.083   8.864
 2377POPC   C1A32247  37.667   8.998   8.564
 2377POPC   D2A32248  37.724   9.018   8.264
 2377POPC   C3A32249  37.686   8.991   7.964
 2377POPC   C4A32250  37.699   8.975   7.664
 2377POPC   C1B32251  37.683   9.210   8.564
 2377POPC   C2B32252  37.675   9.256   8.264
 2377POPC   C3B32253  37.670   9.204   7.964
 2377POPC   C4B32254  37.615   9.195   7.664
 2378POPC   NC332255  42.347  17.528   9.464
 2378POPC   PO432256  42.322  17.475   9.164
 2378POPC   GL132257  42.350  17.493   8.864
 2378POPC   GL232258  42.376  17.379   8.864
 2378POPC   C1A32259  42.344  17.458   8.564
 2378POPC   D2A32260  42.286  17.459   8.264
 2378POPC   C3A32261  42.339  17.515   7.964
 2378POPC   C4A32262  42.368  17.480   7.664
 2378POPC   C1B32263  42.298  17.252   8.564
 2378POPC   C2B32264  42.312  17.293   8.264
 2378POPC   C3B32265  42.384  17.222   7.964
 2378POPC   C4B32266  42.297  17.250   7.664
 2379POPC   NC332267  34.550  28.333   9.464
 2379POPC   PO432268  34.605  28.402   9.164
 2379POPC   GL132269  34.575  28.414   8.864
 2379POPC   GL232270  34.453  28.417   8.864
 2379POPC   C1A32271  34.597  28.324   8.564
 2379POPC   D2A32272  34.576  28.347   8.264
 2379POPC   C3A32273  34.529  28.336   7.964
 2379POPC   C4A32274  34.530  28.350   7.664
 2379POPC   C1B32275  34.367  28.511   8.564
 2379POPC   C2B32276  34.340  28.485   8.264
 2379POPC   C3B32277  34.338  28.500   7.964
 2379POPC   C4B32278  34.397  28.497   7.664
 2380POPC   NC332279   7.444  25.253   9.464
 2380POPC   PO432280   7.393  25.260   9.164
 2380POPC   GL132281   7.380  25.276   8.864
 2380POPC   GL232282   7.474  25.168   8.864
 2380POPC   C1A32283   7.431  25.309   8.564
 2380POPC   D2A32284   7.461  25.264   8.264
 2380POPC   C3A32285   7.457  25.299   7.964
 2380POPC   C4A32286   7.438  25.306   7.664
 2380POPC   C1B32287   7.601  25.043   8.564
 2380POPC   C2B32288   7.638  25.112   8.264
 2380POPC   C3B32289   7.638  25.064   7.964
 2380POPC   C4B32290   7.598  25.138   7.664
 2381POPC   NC332291   1.203  31.457   9.464
 2381POPC   PO432292   1.185  31.451   9.164
 2381POPC   GL132293   1.195  31.518   8.864
 2381POPC   GL232294   1.359  31.531   8.864
 2381POPC   C1A32295   1.213  31.494   8.564
 2381POPC   D2A32296   1.252  31.478   8.264
 2381POPC   C3A32297   1.224  31.507   7.964
 2381POPC   C4A32298   1.233  31.518   7.664
 2381POPC   C1B32299   1.432  31.471   8.564
 2381POPC   C2B32300   1.444  31.494   8.264
 2381POPC   C3B32301   1.495  31.456   7.964
 2381POPC   C4B32302   1.490  31.508   7.664
 2382POPC   NC332303  27.543  23.704   9.464
 2382POPC   PO432304  27.560  23.687   9.164
 2382POPC   GL132305  27.553  23.719   8.864
 2382POPC   GL232306  27.570  23.620   8.864
 2382POPC   C1A32307  27.638  23.694   8.564
 2382POPC   D2A32308  27.596  23.732   8.264
 2382POPC   C3A32309  27.612  23.748   7.964
 2382POPC   C4A32310  27.630  23.746   7.664
 2382POPC   C1B32311  27.451  23.460   8.564
 2382POPC   C2B32312  27.512  23.496   8.264
 2382POPC   C3B32313  27.494  23.486   7.964
 2382POPC   C4B32314  27.422  23.487   7.664
 2383POPC   NC332315  36.900   5.914   9.464
 2383POPC   PO432316  36.935   5.886   9.164
 2383POPC   GL132317  36.881   5.873   8.864
 2383POPC   GL232318  36.885   5.993   8.864
 2383POPC   C1A32319  36.951   5.882   8.564
 2383POPC   D2A32320  36.912   5.916   8.264
 2383POPC   C3A32321  36.915   5.853   7.964
 2383POPC   C4A32322  36.855   5.831   7.664
 2383POPC   C1B32323  36.880   6.070   8.564
 2383POPC   C2B32324  36.861   6.130   8.264
 2383POPC   C3B32325  36.842   6.151   7.964
 2383POPC   C4B32326  36.872   6.074   7.664
 2384POPC   NC332327   2.020  13.594   9.464
 2384POPC   PO432328   1.959  13.587   9.164
 2384POPC   GL132329   1.991  13.661   8.864
 2384POPC   GL232330   1.936  13.746   8.864
 2384POPC   C1A32331   1.949  13.644   8.564
 2384POPC   D2A32332   2.028  13.584   8.264
 2384POPC   C3A32333   2.020  13.611   7.964
 2384POPC   C4A32334   2.020  13.612   7.664
 2384POPC   C1B32335   1.860  13.804   8.564
 2384POPC   C2B32336   1.826  13.844   8.264
 2384POPC   C3B32337   1.832  13.843   7.964
 2384POPC   C4B32338   1.783  13.838   7.664
 2385POPC   NC332339  30.729   2.039   9.464
 2385POPC   PO432340  30.697   1.981   9.164
 2385POPC   GL132341  30.675   2.012   8.864
 2385POPC   GL232342  30.777   1.965   8.864
 2385POPC   C1A32343  30.652   2.036   8.564
 2385POPC   D2A32344  30.685   1.981   8.264
 2385POPC   C3A32345  30.662   1.982   7.964
 2385POPC   C4A32346  30.659   1.993   7.664
 2385POPC   C1B32347  30.877   1.851   8.564
 2385POPC   C2B32348  30.851   1.819   8.264
 2385POPC   C3B32349  30.857   1.891   7.964
 2385POPC   C4B32350  30.885   1.844   7.664
 2386POPC   NC332351  30.746  23.673   9.464
 2386POPC   PO432352  30.685  23.670   9.164
 2386POPC   GL132353  30.659  23.738   8.864
 2386POPC   GL232354  30.675  23.871   8.864
 2386POPC   C1A32355  30.695  23.742   8.564
 2386POPC   D2A32356  30.697  23.685   8.264
 2386POPC   C3A32357  30.689  23.696   7.964
 2386POPC   C4A32358  30.715  23.722   7.664
 2386POPC   C1B32359  30.633  23.970   8.564
 2386POPC   C2B32360  30.606  23.976   8.264
 2386POPC   C3B32361  30.636  23.908   7.964
 2386POPC   C4B32362  30.560  23.905   7.664
 2387POPC   NC332363  25.228   9.727   9.464
 2387POPC   PO432364  25.288   9.703   9.164
 2387POPC   GL132365  25.298   9.746   8.864
 2387POPC   GL232366  25.387   9.615   8.864
 2387POPC   C1A32367  25.313   9.760   8.564
 2387POPC   D2A32368  25.260   9.796   8.264
 2387POPC   C3A32369  25.297   9.723   7.964
 2387POPC   C4A32370  25.260   9.738   7.664
 2387POPC   C1B32371  25.452   9.602   8.564
 2387POPC   C2B32372  25.426   9.528   8.264
 2387POPC   C3B32373  25.460   9.554   7.964
 2387POPC   C4B32374  25.473   9.519   7.664
 2388POPC   NC332375   4.326  40.792   9.464
 2388POPC   PO432376   4.277  40.817   9.164
 2388POPC   GL132377   4.285  40.819   8.864
 2388POPC   GL232378   4.197  40.641   8.864
 2388POPC   C1A32379   4.272  40.765   8.564
 2388POPC   D2A32380   4.326  40.792   8.264
 2388POPC   C3A32381   4.355  40.748   7.964
 2388POPC   C4A32382   4.307  40.798   7.664
 2388POPC   C1B32383   4.110  40.617   8.564
 2388POPC   C2B32384   4.172  40.632   8.264
 2388POPC   C3B32385   4.132  40.587   7.964
 2388POPC   C4B32386   4.188  40.624   7.664
 2389POPC   NC332387  31.455   7.447   9.464
 2389POPC   PO432388  31.449   7.439   9.164
 2389POPC   GL132389  31.428   7.448   8.864
 2389POPC   GL232390  31.545   7.329   8.864
 2389POPC   C1A32391  31.444   7.468   8.564
 2389POPC   D2A32392  31.438   7.431   8.264
 2389POPC   C3A32393  31.441   7.426   7.964
 2389POPC   C4A32394  31.443   7.399   7.664
 2389POPC   C1B32395  31.518   7.197   8.564
 2389POPC   C2B32396  31.518   7.212   8.264
 2389POPC   C3B32397  31.589   7.223   7.964
 2389POPC   C4B32398  31.581   7.198   7.664
 2390POPC   NC332399  13.600   1.993   9.464
 2390POPC   PO432400  13.592   1.987   9.164
 2390POPC   GL132401  13.593   2.025   8.864
 2390POPC   GL232402  13.731   2.053   8.864
 2390POPC   C1A32403  13.677   1.988   8.564
 2390POPC   D2A32404  13.630   2.034   8.264
 2390POPC   C3A32405  13.659   1.993   7.964
 2390POPC   C4A32406  13.644   1.972   7.664
 2390POPC   C1B32407  13.894   2.090   8.564
 2390POPC   C2B32408  13.840   2.113   8.264
 2390POPC   C3B32409  13.895   2.148   7.964
 2390POPC   C4B32410  13.892   2.132   7.664
 2391POPC   NC332411  29.914   5.051   9.464
 2391POPC   PO432412  29.889   5.119   9.164
 2391POPC   GL132413  29.902   5.059   8.864
 2391POPC   GL232414  30.056   5.053   8.864
 2391POPC   C1A32415  29.912   5.059   8.564
 2391POPC   D2A32416  29.947   5.088   8.264
 2391POPC   C3A32417  29.874   5.088   7.964
 2391POPC   C4A32418  29.873   5.065   7.664
 2391POPC   C1B32419  30.121   4.882   8.564
 2391POPC   C2B32420  30.145   4.942   8.264
 2391POPC   C3B32421  30.136   4.916   7.964
 2391POPC   C4B32422  30.149   4.908   7.664
 2392POPC   NC332423   2.745  41.550   9.464
 2392POPC   PO432424   2.743  41.592   9.164
 2392POPC   GL132425   2.777  41.542   8.864
 2392POPC   GL232426   2.868  41.445   8.864
 2392POPC   C1A32427   2.801  41.510   8.564
 2392POPC   D2A32428   2.798  41.591   8.264
 2392POPC   C3A32429   2.755  41.532   7.964
 2392POPC   C4A32430   2.732  41.599   7.664
 2392POPC   C1B32431   3.000  41.355   8.564
 2392POPC   C2B32432   2.974  41.406   8.264
 2392POPC   C3B32433   2.943  41.376   7.964
 2392POPC   C4B32434   2.984  41.419   7.664
 2393POPC   NC332435  12.813  14.380   9.464
 2393POPC   PO432436  12.844  14.416   9.164
 2393POPC   GL132437  12.833  14.432   8.864
 2393POPC   GL232438  12.851  14.263   8.864
 2393POPC   C1A32439  12.872  14.362   8.564
 2393POPC   D2A32440  12.845  14.398   8.264
 2393POPC   C3A32441  12.852  14.439   7.964
 2393POPC   C4A32442  12.852  14.425   7.664
 2393POPC   C1B32443  12.777  14.124   8.564
 2393POPC   C2B32444  12.846  14.193   8.264
 2393POPC   C3B32445  12.800  14.110   7.964
 2393POPC   C4B32446  12.764  14.166   7.664
 2394POPC   NC332447   7.411  19.041   9.464
 2394POPC   PO432448   7.377  19.056   9.164
 2394POPC   GL132449   7.432  19.034   8.864
 2394POPC   GL232450   7.587  19.071   8.864
 2394POPC   C1A32451   7.457  19.068   8.564
 2394POPC   D2A32452   7.390  19.093   8.264
 2394POPC   C3A32453   7.462  19.019   7.964
 2394POPC   C4A32454   7.463  19.090   7.664
 2394POPC   C1B32455   7.676  19.129   8.564
 2394POPC   C2B32456   7.648  19.111   8.264
 2394POPC   C3B32457   7.706  19.090   7.964
 2394POPC   C4B32458   7.712  19.047   7.664
 2395POPC   NC332459  43.867  42.322   9.464
 2395POPC   PO432460  43.911  42.287   9.164
 2395POPC   GL132461  43.916  42.306   8.864
 2395POPC   GL232462  44.001  42.299   8.864
 2395POPC   C1A32463  43.890  42.306   8.564
 2395POPC   D2A32464  43.915  42.317   8.264
 2395POPC   C3A32465  43.878  42.299   7.964
 2395POPC   C4A32466  43.929  42.295   7.664
 2395POPC   C1B32467  44.058  42.249   8.564
 2395POPC   C2B32468  44.132  42.191   8.264
 2395POPC   C3B32469  44.149  42.216   7.964
 2395POPC   C4B32470  44.129  42.205   7.664
 2396POPC   NC332471  15.164   6.602   9.464
 2396POPC   PO432472  15.155   6.653   9.164
 2396POPC   GL132473  15.177   6.694   8.864
 2396POPC   GL232474  15.081   6.768   8.864
 2396POPC   C1A32475  15.200   6.665   8.564
 2396POPC   D2A32476  15.154   6.643   8.264
 2396POPC   C3A32477  15.144   6.693   7.964
 2396POPC   C4A32478  15.155   6.668   7.664
 2396POPC   C1B32479  14.986   6.828   8.564
 2396POPC   C2B32480  14.952   6.807   8.264
 2396POPC   C3B32481  15.010   6.811   7.964
 2396POPC   C4B32482  14.979   6.825   7.664
 2397POPC   NC332483   8.229  43.099   9.464
 2397POPC   PO432484   8.195  43.070   9.164
 2397POPC   GL132485   8.174  43.094   8.864
 2397POPC   GL232486   8.149  43.179   8.864
 2397POPC   C1A32487   8.163  43.072   8.564
 2397POPC   D2A32488   8.197  43.061   8.264
 2397POPC   C3A32489   8.174  43.087   7.964
 2397POPC   C4A32490   8.194  43.080   7.664
 2397POPC   C1B32491   8.026  43.288   8.564
 2397POPC   C2B32492   8.057  43.332   8.264
 2397POPC   C3B32493   8.077  43.296   7.964
 2397POPC   C4B32494   8.022  43.340   7.664
 2398POPC   NC332495  44.631  36.111   9.464
 2398POPC   PO432496  44.650  36.177   9.164
 2398POPC   GL132497  44.705  36.134   8.864
 2398POPC   GL232498  44.560  36.246   8.864
 2398POPC   C1A32499  44.619  36.135   8.564
 2398POPC   D2A32500  44.634  36.118   8.264
 2398POPC   C3A32501  44.625  36.122   7.964
 2398POPC   C4A32502  44.705  36.105   7.664
 2398POPC   C1B32503  44.586  36.385   8.564
 2398POPC   C2B32504  44.523  36.365   8.264
 2398POPC   C3B32505  44.575  36.375   7.964
 2398POPC   C4B32506  44.577  36.341   7.664
 2399POPC   NC332507  44.685  12.823   9.464
 2399POPC   PO432508  44.666  12.812   9.164
 2399POPC   GL132509  44.707  12.824   8.864
 2399POPC   GL232510  44.564  12.730   8.864
 2399POPC   C1A32511  44.686  12.870   8.564
 2399POPC   D2A32512  44.641  12.845   8.264
 2399POPC   C3A32513  44.620  12.823   7.964
 2399POPC   C4A32514  44.701  12.804   7.664
 2399POPC   C1B32515  44.508  12.659   8.564
 2399POPC   C2B32516  44.426  12.683   8.264
 2399POPC   C3B32517  44.441  12.672   7.964
 2399POPC   C4B32518  44.443  12.668   7.664
 2400POPC   NC332519  29.912  29.919   9.464
 2400POPC   PO432520  29.886  29.951   9.164
 2400POPC   GL132521  29.877  29.919   8.864
 2400POPC   GL232522  30.044  29.809   8.864
 2400POPC   C1A32523  29.935  29.884   8.564
 2400POPC   D2A32524  29.956  29.911   8.264
 2400POPC   C3A32525  29.907  29.887   7.964
 2400POPC   C4A32526  29.953  29.934   7.664
 2400POPC   C1B32527  30.164  29.784   8.564
 2400POPC   C2B32528  30.095  29.788   8.264
 2400POPC   C3B32529  30.167  29.805   7.964
 2400POPC   C4B32530  30.129  29.801   7.664
 2401POPC   NC332531  34.626  37.667   9.464
 2401POPC   PO432532  34.592  37.707   9.164
 2401POPC   GL132533  34.526  37.723   8.864
 2401POPC   GL232534  34.568  37.848   8.864
 2401POPC   C1A32535  34.620  37.694   8.564
 2401POPC   D2A32536  34.623  37.698   8.264
 2401POPC   C3A32537  34.597  37.701   7.964
 2401POPC   C4A32538  34.544  37.715   7.664
 2401POPC   C1B32539  34.654  37.916   8.564
 2401POPC   C2B32540  34.600  37.889   8.264
 2401POPC   C3B32541  34.638  37.974   7.964
 2401POPC   C4B32542  34.622  37.923   7.664
 2402POPC   NC332543  25.243  39.222   9.464
 2402POPC   PO432544  25.221  39.220   9.164
 2402POPC   GL132545  25.226  39.222   8.864
 2402POPC   GL232546  25.264  39.158   8.864
 2402POPC   C1A32547  25.275  39.268   8.564
 2402POPC   D2A32548  25.257  39.242   8.264
 2402POPC   C3A32549  25.265  39.260   7.964
 2402POPC   C4A32550  25.238  39.261   7.664
 2402POPC   C1B32551  25.330  38.973   8.564
 2402POPC   C2B32552  25.324  38.956   8.264
 2402POPC   C3B32553  25.327  39.011   7.964
 2402POPC   C4B32554  25.356  39.014   7.664
 2403POPC   NC332555  26.780  16.758   9.464
 2403POPC   PO432556  26.771  16.692   9.164
 2403POPC   GL132557  26.845  16.745   8.864
 2403POPC   GL232558  26.696  16.686   8.864
 2403POPC   C1A32559  26.770  16.759   8.564
 2403POPC   D2A32560  26.826  16.685   8.264
 2403POPC   C3A32561  26.817  16.751   7.964
 2403POPC   C4A32562  26.795  16.739   7.664
 2403POPC   C1B32563  26.603  16.594   8.564
 2403POPC   C2B32564  26.587  16.606   8.264
 2403POPC   C3B32565  26.649  16.563   7.964
 2403POPC   C4B32566  26.556  16.628   7.664
 2404POPC   NC332567  22.175  23.669   9.464
 2404POPC   PO432568  22.209  23.695   9.164
 2404POPC   GL132569  22.191  23.685   8.864
 2404POPC   GL232570  22.016  23.773   8.864
 2404POPC   C1A32571  22.170  23.707   8.564
 2404POPC   D2A32572  22.192  23.708   8.264
 2404POPC   C3A32573  22.149  23.708   7.964
 2404POPC   C4A32574  22.137  23.690   7.664
 2404POPC   C1B32575  21.953  23.768   8.564
 2404POPC   C2B32576  21.874  23.716   8.264
 2404POPC   C3B32577  21.949  23.784   7.964
 2404POPC   C4B32578  21.920  23.714   7.664
 2405POPC   NC332579  27.562  18.268   9.464
 2405POPC   PO432580  27.596  18.249   9.164
 2405POPC   GL132581  27.633  18.236   8.864
 2405POPC   GL232582  27.631  18.175   8.864
 2405POPC   C1A32583  27.626  18.248   8.564
 2405POPC   D2A32584  27.570  18.252   8.264
 2405POPC   C3A32585  27.568  18.276   7.964
 2405POPC   C4A32586  27.611  18.244   7.664
 2405POPC   C1B32587  27.708  18.036   8.564
 2405POPC   C2B32588  27.785  18.079   8.264
 2405POPC   C3B32589  27.750  18.114   7.964
 2405POPC   C4B32590  27.698  18.057   7.664
 2406POPC   NC332591  32.992  15.220   9.464
 2406POPC   PO432592  33.007  15.216   9.164
 2406POPC   GL132593  33.000  15.156   8.864
 2406POPC   GL232594  33.162  15.073   8.864
 2406POPC   C1A32595  32.976  15.135   8.564
 2406POPC   D2A32596  33.065  15.175   8.264
 2406POPC   C3A32597  32.987  15.189   7.964
 2406POPC   C4A32598  33.002  15.202   7.664
 2406POPC   C1B32599  33.226  14.994   8.564
 2406POPC   C2B32600  33.219  14.992   8.264
 2406POPC   C3B32601  33.194  15.041   7.964
 2406POPC   C4B32602  33.174  15.029   7.664
 2407POPC   NC332603  19.825  40.773   9.464
 2407POPC   PO432604  19.836  40.798   9.164
 2407POPC   GL132605  19.863  40.774   8.864
 2407POPC   GL232606  19.909  40.688   8.864
 2407POPC   C1A32607  19.854  40.813   8.564
 2407POPC   D2A32608  19.854  40.737   8.264
 2407POPC   C3A32609  19.881  40.831   7.964
 2407POPC   C4A32610  19.846  40.813   7.664
 2407POPC   C1B32611  19.971  40.590   8.564
 2407POPC   C2B32612  20.037  40.637   8.264
 2407POPC   C3B32613  20.035  40.624   7.964
 2407POPC   C4B32614  20.034  40.542   7.664
 2408POPC   NC332615   2.729  28.408   9.464
 2408POPC   PO432616   2.771  28.326   9.164
 2408POPC   GL132617   2.814  28.327   8.864
 2408POPC   GL232618   2.654  28.431   8.864
 2408POPC   C1A32619   2.741  28.389   8.564
 2408POPC   D2A32620   2.726  28.400   8.264
 2408POPC   C3A32621   2.808  28.415   7.964
 2408POPC   C4A32622   2.733  28.389   7.664
 2408POPC   C1B32623   2.483  28.447   8.564
 2408POPC   C2B32624   2.563  28.411   8.264
 2408POPC   C3B32625   2.527  28.480   7.964
 2408POPC   C4B32626   2.576  28.439   7.664
 2409POPC   NC332627  42.320   5.863   9.464
 2409POPC   PO432628  42.311   5.872   9.164
 2409POPC   GL132629  42.306   5.916   8.864
 2409POPC   GL232630  42.429   5.830   8.864
 2409POPC   C1A32631  42.379   5.848   8.564
 2409POPC   D2A32632  42.315   5.857   8.264
 2409POPC   C3A32633  42.318   5.875   7.964
 2409POPC   C4A32634  42.308   5.831   7.664
 2409POPC   C1B32635  42.595   5.833   8.564
 2409POPC   C2B32636  42.575   5.877   8.264
 2409POPC   C3B32637  42.550   5.834   7.964
 2409POPC   C4B32638  42.615   5.787   7.664
 2410POPC   NC332639  30.706  26.837   9.464
 2410POPC   PO432640  30.693  26.836   9.164
 2410POPC   GL132641  30.674  26.823   8.864
 2410POPC   GL232642  30.568  26.955   8.864
 2410POPC   C1A32643  30.741  26.838   8.564
 2410POPC   D2A32644  30.647  26.862   8.264
 2410POPC   C3A32645  30.687  26.852   7.964
 2410POPC   C4A32646  30.728  26.855   7.664
 2410POPC   C1B32647  30.477  26.988   8.564
 2410POPC   C2B32648  30.489  27.009   8.264
 2410POPC   C3B32649  30.540  27.045   7.964
 2410POPC   C4B32650  30.537  26.989   7.664
 2411POPC   NC332651   2.790  27.581   9.464
 2411POPC   PO432652   2.752  27.603   9.164
 2411POPC   GL132653   2.815  27.639   8.864
 2411POPC   GL232654   2.627  27.582   8.864
 2411POPC   C1A32655   2.750  27.557   8.564
 2411POPC   D2A32656   2.752  27.633   8.264
 2411POPC   C3A32657   2.775  27.627   7.964
 2411POPC   C4A32658   2.736  27.574   7.664
 2411POPC   C1B32659   2.534  27.447   8.564
 2411POPC   C2B32660   2.546  27.448   8.264
 2411POPC   C3B32661   2.494  27.485   7.964
 2411POPC   C4B32662   2.534  27.442   7.664
 2412POPC   NC332663  43.095   5.861   9.464
 2412POPC   PO432664  43.095   5.846   9.164
 2412POPC   GL132665  43.144   5.860   8.864
 2412POPC   GL232666  43.108   5.758   8.864
 2412POPC   C1A32667  43.119   5.838   8.564
 2412POPC   D2A32668  43.150   5.900   8.264
 2412POPC   C3A32669  43.076   5.865   7.964
 2412POPC   C4A32670  43.117   5.825   7.664
 2412POPC   C1B32671  42.989   5.587   8.564
 2412POPC   C2B32672  42.981   5.666   8.264
 2412POPC   C3B32673  42.997   5.655   7.964
 2412POPC   C4B32674  43.063   5.642   7.664
 2413POPC   NC332675  41.512   9.753   9.464
 2413POPC   PO432676  41.534   9.765   9.164
 2413POPC   GL132677  41.553   9.784   8.864
 2413POPC   GL232678  41.664   9.631   8.864
 2413POPC   C1A32679  41.603   9.795   8.564
 2413POPC   D2A32680  41.552   9.746   8.264
 2413POPC   C3A32681  41.514   9.770   7.964
 2413POPC   C4A32682  41.534   9.763   7.664
 2413POPC   C1B32683  41.724   9.563   8.564
 2413POPC   C2B32684  41.798   9.636   8.264
 2413POPC   C3B32685  41.711   9.594   7.964
 2413POPC   C4B32686  41.765   9.629   7.664
 2414POPC   NC332687  39.258  16.719   9.464
 2414POPC   PO432688  39.277  16.723   9.164
 2414POPC   GL132689  39.247  16.723   8.864
 2414POPC   GL232690  39.072  16.660   8.864
 2414POPC   C1A32691  39.244  16.720   8.564
 2414POPC   D2A32692  39.249  16.708   8.264
 2414POPC   C3A32693  39.214  16.696   7.964
 2414POPC   C4A32694  39.215  16.769   7.664
 2414POPC   C1B32695  38.944  16.649   8.564
 2414POPC   C2B32696  38.985  16.624   8.264
 2414POPC   C3B32697  38.987  16.654   7.964
 2414POPC   C4B32698  38.996  16.671   7.664
 2415POPC   NC332699  19.065  35.401   9.464
 2415POPC   PO432700  19.083  35.357   9.164
 2415POPC   GL132701  19.037  35.303   8.864
 2415POPC   GL232702  19.148  35.288   8.864
 2415POPC   C1A32703  19.040  35.348   8.564
 2415POPC   D2A32704  19.081  35.382   8.264
 2415POPC   C3A32705  19.062  35.383   7.964
 2415POPC   C4A32706  19.078  35.371   7.664
 2415POPC   C1B32707  19.235  35.124   8.564
 2415POPC   C2B32708  19.223  35.191   8.264
 2415POPC   C3B32709  19.197  35.110   7.964
 2415POPC   C4B32710  19.178  35.124   7.664
 2416POPC   NC332711   0.429  35.339   9.464
 2416POPC   PO432712   0.468  35.385   9.164
 2416POPC   GL132713   0.412  35.335   8.864
 2416POPC   GL232714   0.356  35.303   8.864
 2416POPC   C1A32715   0.459  35.365   8.564
 2416POPC   D2A32716   0.487  35.323   8.264
 2416POPC   C3A32717   0.475  35.340   7.964
 2416POPC   C4A32718   0.444  35.388   7.664
 2416POPC   C1B32719   0.291  35.136   8.564
 2416POPC   C2B32720   0.282  35.225   8.264
 2416POPC   C3B32721   0.288  35.196   7.964
 2416POPC   C4B32722   0.250  35.213   7.664
 2417POPC   NC332723  13.658  16.682   9.464
 2417POPC   PO432724  13.638  16.684   9.164
 2417POPC   GL132725  13.630  16.775   8.864
 2417POPC   GL232726  13.512  16.814   8.864
 2417POPC   C1A32727  13.669  16.686   8.564
 2417POPC   D2A32728  13.600  16.760   8.264
 2417POPC   C3A32729  13.589  16.761   7.964
 2417POPC   C4A32730  13.658  16.740   7.664
 2417POPC   C1B32731  13.379  16.834   8.564
 2417POPC   C2B32732  13.412  16.831   8.264
 2417POPC   C3B32733  13.392  16.850   7.964
 2417POPC   C4B32734  13.389  16.844   7.664
 2418POPC   NC332735   5.064  33.013   9.464
 2418POPC   PO432736   5.088  32.983   9.164
 2418POPC   GL132737   5.096  33.020   8.864
 2418POPC   GL232738   5.173  33.127   8.864
 2418POPC   C1A32739   5.129  33.049   8.564
 2418POPC   D2A32740   5.096  33.020   8.264
 2418POPC   C3A32741   5.103  33.056   7.964
 2418POPC   C4A32742   5.119  32.986   7.664
 2418POPC   C1B32743   5.167  33.242   8.564
 2418POPC   C2B32744   5.226  33.281   8.264
 2418POPC   C3B32745   5.158  33.288   7.964
 2418POPC   C4B32746   5.186  33.222   7.664
 2419POPC   NC332747  28.333  35.309   9.464
 2419POPC   PO432748  28.319  35.402   9.164
 2419POPC   GL132749  28.416  35.352   8.864
 2419POPC   GL232750  28.501  35.390   8.864
 2419POPC   C1A32751  28.365  35.401   8.564
 2419POPC   D2A32752  28.347  35.350   8.264
 2419POPC   C3A32753  28.361  35.358   7.964
 2419POPC   C4A32754  28.372  35.370   7.664
 2419POPC   C1B32755  28.589  35.482   8.564
 2419POPC   C2B32756  28.638  35.489   8.264
 2419POPC   C3B32757  28.605  35.434   7.964
 2419POPC   C4B32758  28.545  35.473   7.664
 2420POPC   NC332759  44.627  40.053   9.464
 2420POPC   PO432760  44.641  39.959   9.164
 2420POPC   GL132761  44.616  40.013   8.864
 2420POPC   GL232762  44.512  39.914   8.864
 2420POPC   C1A32763  44.617  40.055   8.564
 2420POPC   D2A32764  44.701  40.027   8.264
 2420POPC   C3A32765  44.653  40.026   7.964
 2420POPC   C4A32766  44.654  40.007   7.664
 2420POPC   C1B32767  44.452  39.897   8.564
 2420POPC   C2B32768  44.461  39.925   8.264
 2420POPC   C3B32769  44.413  39.945   7.964
 2420POPC   C4B32770  44.409  39.946   7.664
 2421POPC   NC332771  40.774  14.388   9.464
 2421POPC   PO432772  40.767  14.448   9.164
 2421POPC   GL132773  40.788  14.357   8.864
 2421POPC   GL232774  40.928  14.375   8.864
 2421POPC   C1A32775  40.810  14.404   8.564
 2421POPC   D2A32776  40.773  14.380   8.264
 2421POPC   C3A32777  40.770  14.442   7.964
 2421POPC   C4A32778  40.823  14.446   7.664
 2421POPC   C1B32779  41.051  14.376   8.564
 2421POPC   C2B32780  41.058  14.327   8.264
 2421POPC   C3B32781  41.015  14.334   7.964
 2421POPC   C4B32782  40.991  14.336   7.664
 2422POPC   NC332783  36.871  35.323   9.464
 2422POPC   PO432784  36.953  35.390   9.164
 2422POPC   GL132785  36.889  35.348   8.864
 2422POPC   GL232786  36.968  35.276   8.864
 2422POPC   C1A32787  36.924  35.329   8.564
 2422POPC   D2A32788  36.869  35.338   8.264
 2422POPC   C3A32789  36.919  35.364   7.964
 2422POPC   C4A32790  36.886  35.378   7.664
 2422POPC   C1B32791  37.169  35.250   8.564
 2422POPC   C2B32792  37.112  35.250   8.264
 2422POPC   C3B32793  37.086  35.223   7.964
 2422POPC   C4B32794  37.162  35.216   7.664
 2423POPC   NC332795  17.525   4.291   9.464
 2423POPC   PO432796  17.525   4.323   9.164
 2423POPC   GL132797  17.555   4.351   8.864
 2423POPC   GL232798  17.401   4.249   8.864
 2423POPC   C1A32799  17.527   4.340   8.564
 2423POPC   D2A32800  17.554   4.305   8.264
 2423POPC   C3A32801  17.547   4.329   7.964
 2423POPC   C4A32802  17.475   4.305   7.664
 2423POPC   C1B32803  17.251   4.161   8.564
 2423POPC   C2B32804  17.285   4.169   8.264
 2423POPC   C3B32805  17.305   4.192   7.964
 2423POPC   C4B32806  17.308   4.185   7.664
 2424POPC   NC332807  40.049  30.691   9.464
 2424POPC   PO432808  39.964  30.650   9.164
 2424POPC   GL132809  40.050  30.712   8.864
 2424POPC   GL232810  39.927  30.577   8.864
 2424POPC   C1A32811  40.015  30.745   8.564
 2424POPC   D2A32812  40.025  30.732   8.264
 2424POPC   C3A32813  40.001  30.690   7.964
 2424POPC   C4A32814  39.958  30.710   7.664
 2424POPC   C1B32815  39.827  30.537   8.564
 2424POPC   C2B32816  39.847  30.525   8.264
 2424POPC   C3B32817  39.807  30.463   7.964
 2424POPC   C4B32818  39.873  30.492   7.664
 2425POPC   NC332819   7.392  29.949   9.464
 2425POPC   PO432820   7.454  29.915   9.164
 2425POPC   GL132821   7.434  29.913   8.864
 2425POPC   GL232822   7.579  29.894   8.864
 2425POPC   C1A32823   7.431  29.896   8.564
 2425POPC   D2A32824   7.387  29.909   8.264
 2425POPC   C3A32825   7.401  29.953   7.964
 2425POPC   C4A32826   7.400  29.894   7.664
 2425POPC   C1B32827   7.701  29.867   8.564
 2425POPC   C2B32828   7.674  29.881   8.264
 2425POPC   C3B32829   7.647  29.870   7.964
 2425POPC   C4B32830   7.672  29.836   7.664
 2426POPC   NC332831   1.215   8.224   9.464
 2426POPC   PO432832   1.221   8.162   9.164
 2426POPC   GL132833   1.190   8.241   8.864
 2426POPC   GL232834   1.161   8.102   8.864
 2426POPC   C1A32835   1.245   8.206   8.564
 2426POPC   D2A32836   1.188   8.212   8.264
 2426POPC   C3A32837   1.226   8.231   7.964
 2426POPC   C4A32838   1.254   8.181   7.664
 2426POPC   C1B32839   1.109   7.999   8.564
 2426POPC   C2B32840   1.149   7.966   8.264
 2426POPC   C3B32841   1.069   7.996   7.964
 2426POPC   C4B32842   1.071   7.957   7.664
 2427POPC   NC332843   6.619  33.027   9.464
 2427POPC   PO432844   6.684  33.009   9.164
 2427POPC   GL132845   6.626  33.055   8.864
 2427POPC   GL232846   6.584  33.148   8.864
 2427POPC   C1A32847   6.694  33.071   8.564
 2427POPC   D2A32848   6.658  33.038   8.264
 2427POPC   C3A32849   6.684  33.015   7.964
 2427POPC   C4A32850   6.618  33.014   7.664
 2427POPC   C1B32851   6.455  33.224   8.564
 2427POPC   C2B32852   6.479  33.207   8.264
 2427POPC   C3B32853   6.510  33.238   7.964
 2427POPC   C4B32854   6.489  33.183   7.664
 2428POPC   NC332855  19.786   6.679   9.464
 2428POPC   PO432856  19.805   6.660   9.164
 2428POPC   GL132857  19.819   6.595   8.864
 2428POPC   GL232858  19.669   6.737   8.864
 2428POPC   C1A32859  19.812   6.602   8.564
 2428POPC   D2A32860  19.857   6.608   8.264
 2428POPC   C3A32861  19.827   6.607   7.964
 2428POPC   C4A32862  19.814   6.621   7.664
 2428POPC   C1B32863  19.571   6.715   8.564
 2428POPC   C2B32864  19.603   6.761   8.264
 2428POPC   C3B32865  19.591   6.702   7.964
 2428POPC   C4B32866  19.640   6.702   7.664
 2429POPC   NC332867   5.903  44.659   9.464
 2429POPC   PO432868   5.867  44.614   9.164
 2429POPC   GL132869   5.891  44.691   8.864
 2429POPC   GL232870   5.768  44.767   8.864
 2429POPC   C1A32871   5.838  44.647   8.564
 2429POPC   D2A32872   5.858  44.637   8.264
 2429POPC   C3A32873   5.856  44.614   7.964
 2429POPC   C4A32874   5.829  44.687   7.664
 2429POPC   C1B32875   5.773  44.861   8.564
 2429POPC   C2B32876   5.742  44.882   8.264
 2429POPC   C3B32877   5.750  44.908   7.964
 2429POPC   C4B32878   5.745  44.891   7.664
 2430POPC   NC332879  14.431  36.096   9.464
 2430POPC   PO432880  14.356  36.121   9.164
 2430POPC   GL132881  14.395  36.117   8.864
 2430POPC   GL232882  14.362  36.211   8.864
 2430POPC   C1A32883  14.375  36.151   8.564
 2430POPC   D2A32884  14.423  36.101   8.264
 2430POPC   C3A32885  14.368  36.122   7.964
 2430POPC   C4A32886  14.392  36.114   7.664
 2430POPC   C1B32887  14.320  36.319   8.564
 2430POPC   C2B32888  14.331  36.334   8.264
 2430POPC   C3B32889  14.266  36.386   7.964
 2430POPC   C4B32890  14.340  36.314   7.664
 2431POPC   NC332891  32.981  33.064   9.464
 2431POPC   PO432892  32.976  33.054   9.164
 2431POPC   GL132893  33.051  33.026   8.864
 2431POPC   GL232894  32.920  33.086   8.864
 2431POPC   C1A32895  33.037  33.039   8.564
 2431POPC   D2A32896  33.035  33.009   8.264
 2431POPC   C3A32897  32.982  32.996   7.964
 2431POPC   C4A32898  32.996  33.032   7.664
 2431POPC   C1B32899  32.814  33.103   8.564
 2431POPC   C2B32900  32.825  33.106   8.264
 2431POPC   C3B32901  32.765  33.084   7.964
 2431POPC   C4B32902  32.749  33.099   7.664
 2432POPC   NC332903  36.120  29.873   9.464
 2432POPC   PO432904  36.157  29.893   9.164
 2432POPC   GL132905  36.085  29.943   8.864
 2432POPC   GL232906  36.032  29.987   8.864
 2432POPC   C1A32907  36.163  29.925   8.564
 2432POPC   D2A32908  36.123  29.905   8.264
 2432POPC   C3A32909  36.108  29.880   7.964
 2432POPC   C4A32910  36.134  29.938   7.664
 2432POPC   C1B32911  35.909  29.958   8.564
 2432POPC   C2B32912  35.876  29.981   8.264
 2432POPC   C3B32913  35.843  29.947   7.964
 2432POPC   C4B32914  35.933  30.024   7.664
 2433POPC   NC332915  17.487   7.458   9.464
 2433POPC   PO432916  17.521   7.467   9.164
 2433POPC   GL132917  17.527   7.462   8.864
 2433POPC   GL232918  17.601   7.356   8.864
 2433POPC   C1A32919  17.459   7.425   8.564
 2433POPC   D2A32920  17.526   7.415   8.264
 2433POPC   C3A32921  17.465   7.383   7.964
 2433POPC   C4A32922  17.540   7.427   7.664
 2433POPC   C1B32923  17.680   7.241   8.564
 2433POPC   C2B32924  17.730   7.261   8.264
 2433POPC   C3B32925  17.692   7.282   7.964
 2433POPC   C4B32926  17.695   7.297   7.664
 2434POPC   NC332927  36.866   7.420   9.464
 2434POPC   PO432928  36.935   7.419   9.164
 2434POPC   GL132929  36.903   7.423   8.864
 2434POPC   GL232930  36.841   7.299   8.864
 2434POPC   C1A32931  36.940   7.417   8.564
 2434POPC   D2A32932  36.933   7.450   8.264
 2434POPC   C3A32933  36.867   7.401   7.964
 2434POPC   C4A32934  36.865   7.383   7.664
 2434POPC   C1B32935  36.778   7.153   8.564
 2434POPC   C2B32936  36.777   7.176   8.264
 2434POPC   C3B32937  36.767   7.153   7.964
 2434POPC   C4B32938  36.768   7.179   7.664
 2435POPC   NC332939  19.824  25.248   9.464
 2435POPC   PO432940  19.836  25.312   9.164
 2435POPC   GL132941  19.810  25.247   8.864
 2435POPC   GL232942  19.754  25.334   8.864
 2435POPC   C1A32943  19.854  25.234   8.564
 2435POPC   D2A32944  19.851  25.277   8.264
 2435POPC   C3A32945  19.836  25.253   7.964
 2435POPC   C4A32946  19.866  25.307   7.664
 2435POPC   C1B32947  19.668  25.405   8.564
 2435POPC   C2B32948  19.656  25.369   8.264
 2435POPC   C3B32949  19.578  25.367   7.964
 2435POPC   C4B32950  19.586  25.362   7.664
 2436POPC   NC332951  40.789  39.226   9.464
 2436POPC   PO432952  40.815  39.247   9.164
 2436POPC   GL132953  40.746  39.188   8.864
 2436POPC   GL232954  40.887  39.370   8.864
 2436POPC   C1A32955  40.780  39.232   8.564
 2436POPC   D2A32956  40.741  39.194   8.264
 2436POPC   C3A32957  40.762  39.266   7.964
 2436POPC   C4A32958  40.762  39.228   7.664
 2436POPC   C1B32959  40.892  39.408   8.564
 2436POPC   C2B32960  40.895  39.422   8.264
 2436POPC   C3B32961  40.923  39.416   7.964
 2436POPC   C4B32962  40.970  39.479   7.664
 2437POPC   NC332963  34.580   7.381   9.464
 2437POPC   PO432964  34.536   7.383   9.164
 2437POPC   GL132965  34.587   7.417   8.864
 2437POPC   GL232966  34.466   7.503   8.864
 2437POPC   C1A32967  34.600   7.413   8.564
 2437POPC   D2A32968  34.567   7.454   8.264
 2437POPC   C3A32969  34.542   7.421   7.964
 2437POPC   C4A32970  34.568   7.433   7.664
 2437POPC   C1B32971  34.357   7.552   8.564
 2437POPC   C2B32972  34.325   7.522   8.264
 2437POPC   C3B32973  34.332   7.497   7.964
 2437POPC   C4B32974  34.306   7.582   7.664
 2438POPC   NC332975  19.824  35.324   9.464
 2438POPC   PO432976  19.816  35.318   9.164
 2438POPC   GL132977  19.868  35.343   8.864
 2438POPC   GL232978  19.886  35.448   8.864
 2438POPC   C1A32979  19.803  35.336   8.564
 2438POPC   D2A32980  19.867  35.392   8.264
 2438POPC   C3A32981  19.858  35.322   7.964
 2438POPC   C4A32982  19.814  35.381   7.664
 2438POPC   C1B32983  20.049  35.529   8.564
 2438POPC   C2B32984  20.062  35.458   8.264
 2438POPC   C3B32985  19.983  35.461   7.964
 2438POPC   C4B32986  20.020  35.457   7.664
 2439POPC   NC332987  38.453  36.882   9.464
 2439POPC   PO432988  38.496  36.939   9.164
 2439POPC   GL132989  38.471  36.944   8.864
 2439POPC   GL232990  38.399  36.977   8.864
 2439POPC   C1A32991  38.501  36.932   8.564
 2439POPC   D2A32992  38.475  36.952   8.264
 2439POPC   C3A32993  38.466  36.896   7.964
 2439POPC   C4A32994  38.468  36.927   7.664
 2439POPC   C1B32995  38.269  37.069   8.564
 2439POPC   C2B32996  38.232  37.050   8.264
 2439POPC   C3B32997  38.225  36.997   7.964
 2439POPC   C4B32998  38.285  37.047   7.664
 2440POPC   NC332999  15.175  10.481   9.464
 2440POPC   PO433000  15.177  10.522   9.164
 2440POPC   GL133001  15.167  10.538   8.864
 2440POPC   GL233002  15.308  10.581   8.864
 2440POPC   C1A33003  15.165  10.503   8.564
 2440POPC   D2A33004  15.148  10.487   8.264
 2440POPC   C3A33005  15.199  10.530   7.964
 2440POPC   C4A33006  15.158  10.520   7.664
 2440POPC   C1B33007  15.400  10.700   8.564
 2440POPC   C2B33008  15.400  10.649   8.264
 2440POPC   C3B33009  15.367  10.717   7.964
 2440POPC   C4B33010  15.411  10.717   7.664
 2441POPC   NC333011  44.673  33.839   9.464
 2441POPC   PO433012  44.636  33.822   9.164
 2441POPC   GL133013  44.678  33.800   8.864
 2441POPC   GL233014  44.675  33.884   8.864
 2441POPC   C1A33015  44.633  33.765   8.564
 2441POPC   D2A33016  44.626  33.805   8.264
 2441POPC   C3A33017  44.619  33.763   7.964
 2441POPC   C4A33018  44.669  33.799   7.664
 2441POPC   C1B33019  44.782  34.011   8.564
 2441POPC   C2B33020  44.750  34.002   8.264
 2441POPC   C3B33021  44.773  34.070   7.964
 2441POPC   C4B33022  44.777  33.986   7.664
 2442POPC   NC333023   7.380  33.800   9.464
 2442POPC   PO433024   7.435  33.782   9.164
 2442POPC   GL133025   7.383  33.842   8.864
 2442POPC   GL233026   7.400  33.955   8.864
 2442POPC   C1A33027   7.382  33.836   8.564
 2442POPC   D2A33028   7.386  33.801   8.264
 2442POPC   C3A33029   7.374  33.845   7.964
 2442POPC   C4A33030   7.433  33.798   7.664
 2442POPC   C1B33031   7.337  34.013   8.564
 2442POPC   C2B33032   7.390  34.060   8.264
 2442POPC   C3B33033   7.359  34.044   7.964
 2442POPC   C4B33034   7.404  34.017   7.664
 2443POPC   NC333035   9.729  32.205   9.464
 2443POPC   PO433036   9.776  32.281   9.164
 2443POPC   GL133037   9.710  32.204   8.864
 2443POPC   GL233038   9.676  32.174   8.864
 2443POPC   C1A33039   9.729  32.203   8.564
 2443POPC   D2A33040   9.708  32.233   8.264
 2443POPC   C3A33041   9.776  32.200   7.964
 2443POPC   C4A33042   9.778  32.247   7.664
 2443POPC   C1B33043   9.480  32.132   8.564
 2443POPC   C2B33044   9.533  32.170   8.264
 2443POPC   C3B33045   9.533  32.081   7.964
 2443POPC   C4B33046   9.560  32.167   7.664
 2444POPC   NC333047  44.654  30.703   9.464
 2444POPC   PO433048  44.634  30.726   9.164
 2444POPC   GL133049  44.642  30.746   8.864
 2444POPC   GL233050  44.598  30.826   8.864
 2444POPC   C1A33051  44.616  30.710   8.564
 2444POPC   D2A33052  44.704  30.670   8.264
 2444POPC   C3A33053  44.620  30.664   7.964
 2444POPC   C4A33054  44.712  30.734   7.664
 2444POPC   C1B33055  44.501  30.861   8.564
 2444POPC   C2B33056  44.494  30.842   8.264
 2444POPC   C3B33057  44.453  30.831   7.964
 2444POPC   C4B33058  44.526  30.846   7.664
 2445POPC   NC333059  43.149   0.479   9.464
 2445POPC   PO433060  43.146   0.468   9.164
 2445POPC   GL133061  43.068   0.482   8.864
 2445POPC   GL233062  43.009   0.377   8.864
 2445POPC   C1A33063  43.108   0.432   8.564
 2445POPC   D2A33064  43.080   0.487   8.264
 2445POPC   C3A33065  43.138   0.406   7.964
 2445POPC   C4A33066  43.086   0.466   7.664
 2445POPC   C1B33067  42.974   0.227   8.564
 2445POPC   C2B33068  42.942   0.275   8.264
 2445POPC   C3B33069  42.928   0.286   7.964
 2445POPC   C4B33070  42.929   0.223   7.664
 2446POPC   NC333071  11.261  33.788   9.464
 2446POPC   PO433072  11.346  33.810   9.164
 2446POPC   GL133073  11.326  33.836   8.864
 2446POPC   GL233074  11.468  33.792   8.864
 2446POPC   C1A33075  11.338  33.777   8.564
 2446POPC   D2A33076  11.345  33.780   8.264
 2446POPC   C3A33077  11.259  33.776   7.964
 2446POPC   C4A33078  11.254  33.849   7.664
 2446POPC   C1B33079  11.567  33.768   8.564
 2446POPC   C2B33080  11.589  33.746   8.264
 2446POPC   C3B33081  11.571  33.770   7.964
 2446POPC   C4B33082  11.582  33.781   7.664
 2447POPC   NC333083  35.370  33.849   9.464
 2447POPC   PO433084  35.383  33.778   9.164
 2447POPC   GL133085  35.364  33.751   8.864
 2447POPC   GL233086  35.241  33.857   8.864
 2447POPC   C1A33087  35.356  33.831   8.564
 2447POPC   D2A33088  35.397  33.765   8.264
 2447POPC   C3A33089  35.400  33.819   7.964
 2447POPC   C4A33090  35.358  33.833   7.664
 2447POPC   C1B33091  35.196  34.027   8.564
 2447POPC   C2B33092  35.232  33.997   8.264
 2447POPC   C3B33093  35.182  33.966   7.964
 2447POPC   C4B33094  35.222  34.018   7.664
 2448POPC   NC333095  27.574  14.428   9.464
 2448POPC   PO433096  27.598  14.405   9.164
 2448POPC   GL133097  27.636  14.440   8.864
 2448POPC   GL233098  27.612  14.554   8.864
 2448POPC   C1A33099  27.568  14.404   8.564
 2448POPC   D2A33100  27.586  14.379   8.264
 2448POPC   C3A33101  27.611  14.381   7.964
 2448POPC   C4A33102  27.548  14.388   7.664
 2448POPC   C1B33103  27.608  14.673   8.564
 2448POPC   C2B33104  27.541  14.696   8.264
 2448POPC   C3B33105  27.582  14.612   7.964
 2448POPC   C4B33106  27.589  14.617   7.664
 2449POPC   NC333107  35.375  37.690   9.464
 2449POPC   PO433108  35.329  37.662   9.164
 2449POPC   GL133109  35.304  37.729   8.864
 2449POPC   GL233110  35.281  37.713   8.864
 2449POPC   C1A33111  35.314  37.663   8.564
 2449POPC   D2A33112  35.362  37.682   8.264
 2449POPC   C3A33113  35.321  37.631   7.964
 2449POPC   C4A33114  35.306  37.682   7.664
 2449POPC   C1B33115  35.146  37.792   8.564
 2449POPC   C2B33116  35.177  37.843   8.264
 2449POPC   C3B33117  35.148  37.812   7.964
 2449POPC   C4B33118  35.116  37.845   7.664
 2450POPC   NC333119  30.683   4.285   9.464
 2450POPC   PO433120  30.725   4.308   9.164
 2450POPC   GL133121  30.699   4.271   8.864
 2450POPC   GL233122  30.599   4.178   8.864
 2450POPC   C1A33123  30.648   4.333   8.564
 2450POPC   D2A33124  30.728   4.279   8.264
 2450POPC   C3A33125  30.720   4.307   7.964
 2450POPC   C4A33126  30.713   4.354   7.664
 2450POPC   C1B33127  30.614   4.058   8.564
 2450POPC   C2B33128  30.529   4.139   8.264
 2450POPC   C3B33129  30.543   4.084   7.964
 2450POPC   C4B33130  30.544   4.086   7.664
 2451POPC   NC333131  25.266   5.058   9.464
 2451POPC   PO433132  25.236   5.142   9.164
 2451POPC   GL133133  25.286   5.083   8.864
 2451POPC   GL233134  25.287   5.159   8.864
 2451POPC   C1A33135  25.275   5.133   8.564
 2451POPC   D2A33136  25.221   5.084   8.264
 2451POPC   C3A33137  25.294   5.125   7.964
 2451POPC   C4A33138  25.240   5.141   7.664
 2451POPC   C1B33139  25.374   5.317   8.564
 2451POPC   C2B33140  25.317   5.363   8.264
 2451POPC   C3B33141  25.337   5.341   7.964
 2451POPC   C4B33142  25.393   5.327   7.664
 2452POPC   NC333143  31.486  33.028   9.464
 2452POPC   PO433144  31.430  33.053   9.164
 2452POPC   GL133145  31.450  33.019   8.864
 2452POPC   GL233146  31.373  32.879   8.864
 2452POPC   C1A33147  31.445  32.980   8.564
 2452POPC   D2A33148  31.442  33.044   8.264
 2452POPC   C3A33149  31.471  33.060   7.964
 2452POPC   C4A33150  31.500  33.008   7.664
 2452POPC   C1B33151  31.340  32.826   8.564
 2452POPC   C2B33152  31.355  32.821   8.264
 2452POPC   C3B33153  31.326  32.795   7.964
 2452POPC   C4B33154  31.367  32.861   7.664
 2453POPC   NC333155  33.796  23.700   9.464
 2453POPC   PO433156  33.849  23.743   9.164
 2453POPC   GL133157  33.762  23.725   8.864
 2453POPC   GL233158  33.772  23.609   8.864
 2453POPC   C1A33159  33.759  23.666   8.564
 2453POPC   D2A33160  33.795  23.754   8.264
 2453POPC   C3A33161  33.840  23.736   7.964
 2453POPC   C4A33162  33.773  23.713   7.664
 2453POPC   C1B33163  33.821  23.443   8.564
 2453POPC   C2B33164  33.800  23.428   8.264
 2453POPC   C3B33165  33.846  23.441   7.964
 2453POPC   C4B33166  33.822  23.440   7.664
 2454POPC   NC333167  15.164  18.234   9.464
 2454POPC   PO433168  15.172  18.249   9.164
 2454POPC   GL133169  15.131  18.241   8.864
 2454POPC   GL233170  15.256  18.130   8.864
 2454POPC   C1A33171  15.145  18.325   8.564
 2454POPC   D2A33172  15.228  18.252   8.264
 2454POPC   C3A33173  15.143  18.276   7.964
 2454POPC   C4A33174  15.202  18.284   7.664
 2454POPC   C1B33175  15.270  18.062   8.564
 2454POPC   C2B33176  15.303  18.007   8.264
 2454POPC   C3B33177  15.304  18.059   7.964
 2454POPC   C4B33178  15.225  18.063   7.664
 2455POPC   NC333179  12.111  33.024   9.464
 2455POPC   PO433180  12.036  32.979   9.164
 2455POPC   GL133181  12.105  33.032   8.864
 2455POPC   GL233182  12.139  33.130   8.864
 2455POPC   C1A33183  12.109  32.981   8.564
 2455POPC   D2A33184  12.119  33.001   8.264
 2455POPC   C3A33185  12.034  33.036   7.964
 2455POPC   C4A33186  12.073  33.028   7.664
 2455POPC   C1B33187  12.232  33.275   8.564
 2455POPC   C2B33188  12.217  33.194   8.264
 2455POPC   C3B33189  12.211  33.246   7.964
 2455POPC   C4B33190  12.155  33.201   7.664
 2456POPC   NC333191  24.442  33.073   9.464
 2456POPC   PO433192  24.501  33.025   9.164
 2456POPC   GL133193  24.481  33.025   8.864
 2456POPC   GL233194  24.434  32.900   8.864
 2456POPC   C1A33195  24.530  33.011   8.564
 2456POPC   D2A33196  24.453  33.043   8.264
 2456POPC   C3A33197  24.511  33.022   7.964
 2456POPC   C4A33198  24.504  33.029   7.664
 2456POPC   C1B33199  24.379  32.822   8.564
 2456POPC   C2B33200  24.407  32.841   8.264
 2456POPC   C3B33201  24.379  32.770   7.964
 2456POPC   C4B33202  24.352  32.826   7.664
 2457POPC   NC333203  20.635   3.590   9.464
 2457POPC   PO433204  20.588   3.545   9.164
 2457POPC   GL133205  20.580   3.575   8.864
 2457POPC   GL233206  20.525   3.546   8.864
 2457POPC   C1A33207  20.605   3.532   8.564
 2457POPC   D2A33208  20.642   3.505   8.264
 2457POPC   C3A33209  20.649   3.570   7.964
 2457POPC   C4A33210  20.655   3.512   7.664
 2457POPC   C1B33211  20.373   3.553   8.564
 2457POPC   C2B33212  20.382   3.607   8.264
 2457POPC   C3B33213  20.319   3.582   7.964
 2457POPC   C4B33214  20.341   3.631   7.664
 2458POPC   NC333215  43.133   5.113   9.464
 2458POPC   PO433216  43.111   5.097   9.164
 2458POPC   GL133217  43.138   5.043   8.864
 2458POPC   GL233218  43.032   4.960   8.864
 2458POPC   C1A33219  43.141   5.093   8.564
 2458POPC   D2A33220  43.097   5.138   8.264
 2458POPC   C3A33221  43.123   5.071   7.964
 2458POPC   C4A33222  43.069   5.131   7.664
 2458POPC   C1B33223  42.956   4.942   8.564
 2458POPC   C2B33224  42.928   4.875   8.264
 2458POPC   C3B33225  42.910   4.928   7.964
 2458POPC   C4B33226  42.922   4.915   7.664
 2459POPC   NC333227  33.010  26.043   9.464
 2459POPC   PO433228  33.010  26.004   9.164
 2459POPC   GL133229  32.974  26.010   8.864
 2459POPC   GL233230  33.030  26.147   8.864
 2459POPC   C1A33231  33.038  26.033   8.564
 2459POPC   D2A33232  32.976  26.044   8.264
 2459POPC   C3A33233  32.984  26.084   7.964
 2459POPC   C4A33234  32.998  26.045   7.664
 2459POPC   C1B33235  33.183  26.301   8.564
 2459POPC   C2B33236  33.166  26.216   8.264
 2459POPC   C3B33237  33.159  26.304   7.964
 2459POPC   C4B33238  33.108  26.302   7.664
 2460POPC   NC333239  21.412   6.668   9.464
 2460POPC   PO433240  21.378   6.663   9.164
 2460POPC   GL133241  21.396   6.623   8.864
 2460POPC   GL233242  21.302   6.580   8.864
 2460POPC   C1A33243  21.433   6.616   8.564
 2460POPC   D2A33244  21.398   6.627   8.264
 2460POPC   C3A33245  21.343   6.596   7.964
 2460POPC   C4A33246  21.422   6.640   7.664
 2460POPC   C1B33247  21.260   6.413   8.564
 2460POPC   C2B33248  21.240   6.454   8.264
 2460POPC   C3B33249  21.221   6.385   7.964
 2460POPC   C4B33250  21.212   6.409   7.664
 2461POPC   NC333251  26.857   2.007   9.464
 2461POPC   PO433252  26.782   1.984   9.164
 2461POPC   GL133253  26.833   1.952   8.864
 2461POPC   GL233254  26.728   1.874   8.864
 2461POPC   C1A33255  26.829   1.974   8.564
 2461POPC   D2A33256  26.824   1.942   8.264
 2461POPC   C3A33257  26.854   1.999   7.964
 2461POPC   C4A33258  26.808   1.982   7.664
 2461POPC   C1B33259  26.600   1.805   8.564
 2461POPC   C2B33260  26.645   1.845   8.264
 2461POPC   C3B33261  26.626   1.878   7.964
 2461POPC   C4B33262  26.659   1.886   7.664
 2462POPC   NC333263  15.955  30.670   9.464
 2462POPC   PO433264  15.983  30.705   9.164
 2462POPC   GL133265  15.910  30.725   8.864
 2462POPC   GL233266  16.080  30.691   8.864
 2462POPC   C1A33267  15.928  30.724   8.564
 2462POPC   D2A33268  15.980  30.705   8.264
 2462POPC   C3A33269  15.926  30.736   7.964
 2462POPC   C4A33270  15.932  30.729   7.664
 2462POPC   C1B33271  16.202  30.633   8.564
 2462POPC   C2B33272  16.166  30.564   8.264
 2462POPC   C3B33273  16.139  30.569   7.964
 2462POPC   C4B33274  16.175  30.592   7.664
 2463POPC   NC333275   6.643  40.021   9.464
 2463POPC   PO433276   6.625  39.988   9.164
 2463POPC   GL133277   6.628  40.054   8.864
 2463POPC   GL233278   6.767  40.033   8.864
 2463POPC   C1A33279   6.638  40.019   8.564
 2463POPC   D2A33280   6.601  40.012   8.264
 2463POPC   C3A33281   6.645  40.030   7.964
 2463POPC   C4A33282   6.666  40.055   7.664
 2463POPC   C1B33283   6.855  40.076   8.564
 2463POPC   C2B33284   6.917  40.035   8.264
 2463POPC   C3B33285   6.854  40.100   7.964
 2463POPC   C4B33286   6.930  40.068   7.664
 2464POPC   NC333287  43.910  36.145   9.464
 2464POPC   PO433288  43.920  36.142   9.164
 2464POPC   GL133289  43.896  36.165   8.864
 2464POPC   GL233290  43.909  36.292   8.864
 2464POPC   C1A33291  43.926  36.137   8.564
 2464POPC   D2A33292  43.933  36.137   8.264
 2464POPC   C3A33293  43.887  36.103   7.964
 2464POPC   C4A33294  43.853  36.134   7.664
 2464POPC   C1B33295  44.025  36.314   8.564
 2464POPC   C2B33296  43.950  36.360   8.264
 2464POPC   C3B33297  43.996  36.399   7.964
 2464POPC   C4B33298  43.974  36.380   7.664
 2465POPC   NC333299  38.504  14.365   9.464
 2465POPC   PO433300  38.471  14.431   9.164
 2465POPC   GL133301  38.409  14.415   8.864
 2465POPC   GL233302  38.455  14.494   8.864
 2465POPC   C1A33303  38.456  14.361   8.564
 2465POPC   D2A33304  38.463  14.429   8.264
 2465POPC   C3A33305  38.424  14.379   7.964
 2465POPC   C4A33306  38.423  14.356   7.664
 2465POPC   C1B33307  38.495  14.638   8.564
 2465POPC   C2B33308  38.518  14.649   8.264
 2465POPC   C3B33309  38.481  14.687   7.964
 2465POPC   C4B33310  38.525  14.626   7.664
 2466POPC   NC333311   8.983  10.559   9.464
 2466POPC   PO433312   9.007  10.553   9.164
 2466POPC   GL133313   8.990  10.485   8.864
 2466POPC   GL233314   8.846  10.480   8.864
 2466POPC   C1A33315   8.943  10.531   8.564
 2466POPC   D2A33316   8.950  10.505   8.264
 2466POPC   C3A33317   8.933  10.479   7.964
 2466POPC   C4A33318   9.019  10.533   7.664
 2466POPC   C1B33319   8.770  10.456   8.564
 2466POPC   C2B33320   8.679  10.543   8.264
 2466POPC   C3B33321   8.765  10.517   7.964
 2466POPC   C4B33322   8.710  10.475   7.664
 2467POPC   NC333323  25.219  15.142   9.464
 2467POPC   PO433324  25.283  15.141   9.164
 2467POPC   GL133325  25.291  15.162   8.864
 2467POPC   GL233326  25.146  15.067   8.864
 2467POPC   C1A33327  25.228  15.192   8.564
 2467POPC   D2A33328  25.235  15.140   8.264
 2467POPC   C3A33329  25.233  15.161   7.964
 2467POPC   C4A33330  25.280  15.178   7.664
 2467POPC   C1B33331  25.113  14.929   8.564
 2467POPC   C2B33332  25.139  14.983   8.264
 2467POPC   C3B33333  25.126  15.012   7.964
 2467POPC   C4B33334  25.090  14.975   7.664
 2468POPC   NC333335  21.367  34.581   9.464
 2468POPC   PO433336  21.341  34.578   9.164
 2468POPC   GL133337  21.404  34.559   8.864
 2468POPC   GL233338  21.291  34.562   8.864
 2468POPC   C1A33339  21.391  34.562   8.564
 2468POPC   D2A33340  21.372  34.587   8.264
 2468POPC   C3A33341  21.412  34.566   7.964
 2468POPC   C4A33342  21.431  34.593   7.664
 2468POPC   C1B33343  21.117  34.511   8.564
 2468POPC   C2B33344  21.193  34.472   8.264
 2468POPC   C3B33345  21.166  34.462   7.964
 2468POPC   C4B33346  21.116  34.532   7.664
 2469POPC   NC333347   4.365  23.719   9.464
 2469POPC   PO433348   4.302  23.720   9.164
 2469POPC   GL133349   4.312  23.733   8.864
 2469POPC   GL233350   4.161  23.694   8.864
 2469POPC   C1A33351   4.275  23.690   8.564
 2469POPC   D2A33352   4.293  23.740   8.264
 2469POPC   C3A33353   4.284  23.728   7.964
 2469POPC   C4A33354   4.334  23.693   7.664
 2469POPC   C1B33355   4.135  23.580   8.564
 2469POPC   C2B33356   4.060  23.645   8.264
 2469POPC   C3B33357   4.125  23.612   7.964
 2469POPC   C4B33358   4.131  23.632   7.664
 2470POPC   NC333359  15.224  29.889   9.464
 2470POPC   PO433360  15.195  29.875   9.164
 2470POPC   GL133361  15.206  29.967   8.864
 2470POPC   GL233362  15.285  29.929   8.864
 2470POPC   C1A33363  15.172  29.961   8.564
 2470POPC   D2A33364  15.131  29.877   8.264
 2470POPC   C3A33365  15.173  29.885   7.964
 2470POPC   C4A33366  15.166  29.967   7.664
 2470POPC   C1B33367  15.380  29.880   8.564
 2470POPC   C2B33368  15.477  29.844   8.264
 2470POPC   C3B33369  15.411  29.860   7.964
 2470POPC   C4B33370  15.420  29.885   7.664
 2471POPC   NC333371  18.306  35.365   9.464
 2471POPC   PO433372  18.292  35.310   9.164
 2471POPC   GL133373  18.280  35.307   8.864
 2471POPC   GL233374  18.376  35.376   8.864
 2471POPC   C1A33375  18.329  35.377   8.564
 2471POPC   D2A33376  18.314  35.343   8.264
 2471POPC   C3A33377  18.265  35.390   7.964
 2471POPC   C4A33378  18.319  35.331   7.664
 2471POPC   C1B33379  18.511  35.353   8.564
 2471POPC   C2B33380  18.558  35.338   8.264
 2471POPC   C3B33381  18.501  35.289   7.964
 2471POPC   C4B33382  18.483  35.325   7.664
 2472POPC   NC333383  16.716  43.925   9.464
 2472POPC   PO433384  16.713  43.874   9.164
 2472POPC   GL133385  16.765  43.927   8.864
 2472POPC   GL233386  16.848  43.955   8.864
 2472POPC   C1A33387  16.750  43.843   8.564
 2472POPC   D2A33388  16.723  43.896   8.264
 2472POPC   C3A33389  16.753  43.922   7.964
 2472POPC   C4A33390  16.705  43.868   7.664
 2472POPC   C1B33391  16.934  43.949   8.564
 2472POPC   C2B33392  16.987  43.891   8.264
 2472POPC   C3B33393  16.948  43.908   7.964
 2472POPC   C4B33394  17.009  43.950   7.664
 2473POPC   NC333395  33.803   4.359   9.464
 2473POPC   PO433396  33.793   4.358   9.164
 2473POPC   GL133397  33.803   4.290   8.864
 2473POPC   GL233398  33.849   4.403   8.864
 2473POPC   C1A33399  33.794   4.284   8.564
 2473POPC   D2A33400  33.848   4.327   8.264
 2473POPC   C3A33401  33.792   4.350   7.964
 2473POPC   C4A33402  33.818   4.347   7.664
 2473POPC   C1B33403  33.938   4.562   8.564
 2473POPC   C2B33404  33.957   4.568   8.264
 2473POPC   C3B33405  33.968   4.524   7.964
 2473POPC   C4B33406  33.895   4.558   7.664
 2474POPC   NC333407  11.297   1.253   9.464
 2474POPC   PO433408  11.279   1.215   9.164
 2474POPC   GL133409  11.281   1.216   8.864
 2474POPC   GL233410  11.230   1.131   8.864
 2474POPC   C1A33411  11.315   1.240   8.564
 2474POPC   D2A33412  11.291   1.190   8.264
 2474POPC   C3A33413  11.272   1.212   7.964
 2474POPC   C4A33414  11.296   1.251   7.664
 2474POPC   C1B33415  11.053   1.170   8.564
 2474POPC   C2B33416  11.053   1.116   8.264
 2474POPC   C3B33417  11.053   1.162   7.964
 2474POPC   C4B33418  11.067   1.097   7.664
 2475POPC   NC333419  34.542  42.356   9.464
 2475POPC   PO433420  34.593  42.297   9.164
 2475POPC   GL133421  34.616  42.370   8.864
 2475POPC   GL233422  34.656  42.331   8.864
 2475POPC   C1A33423  34.564  42.360   8.564
 2475POPC   D2A33424  34.617  42.311   8.264
 2475POPC   C3A33425  34.537  42.307   7.964
 2475POPC   C4A33426  34.559  42.326   7.664
 2475POPC   C1B33427  34.867  42.353   8.564
 2475POPC   C2B33428  34.778  42.402   8.264
 2475POPC   C3B33429  34.776  42.412   7.964
 2475POPC   C4B33430  34.822  42.400   7.664
 2476POPC   NC333431  22.209   5.119   9.464
 2476POPC   PO433432  22.140   5.046   9.164
 2476POPC   GL133433  22.128   5.100   8.864
 2476POPC   GL233434  22.150   5.182   8.864
 2476POPC   C1A33435  22.181   5.105   8.564
 2476POPC   D2A33436  22.209   5.084   8.264
 2476POPC   C3A33437  22.129   5.125   7.964
 2476POPC   C4A33438  22.190   5.073   7.664
 2476POPC   C1B33439  22.055   5.314   8.564
 2476POPC   C2B33440  22.053   5.341   8.264
 2476POPC   C3B33441  22.106   5.341   7.964
 2476POPC   C4B33442  22.066   5.317   7.664
 2477POPC   NC333443  14.390  40.795   9.464
 2477POPC   PO433444  14.405  40.829   9.164
 2477POPC   GL133445  14.413  40.788   8.864
 2477POPC   GL233446  14.488  40.713   8.864
 2477POPC   C1A33447  14.386  40.828   8.564
 2477POPC   D2A33448  14.365  40.795   8.264
 2477POPC   C3A33449  14.440  40.806   7.964
 2477POPC   C4A33450  14.387  40.750   7.664
 2477POPC   C1B33451  14.628  40.615   8.564
 2477POPC   C2B33452  14.591  40.674   8.264
 2477POPC   C3B33453  14.564  40.632   7.964
 2477POPC   C4B33454  14.558  40.656   7.664
 2478POPC   NC333455  33.795  17.498   9.464
 2478POPC   PO433456  33.832  17.528   9.164
 2478POPC   GL133457  33.803  17.506   8.864
 2478POPC   GL233458  33.716  17.601   8.864
 2478POPC   C1A33459  33.776  17.504   8.564
 2478POPC   D2A33460  33.771  17.488   8.264
 2478POPC   C3A33461  33.810  17.475   7.964
 2478POPC   C4A33462  33.763  17.539   7.664
 2478POPC   C1B33463  33.661  17.689   8.564
 2478POPC   C2B33464  33.644  17.652   8.264
 2478POPC   C3B33465  33.677  17.741   7.964
 2478POPC   C4B33466  33.658  17.698   7.664
 2479POPC   NC333467  29.176   3.544   9.464
 2479POPC   PO433468  29.125   3.502   9.164
 2479POPC   GL133469  29.112   3.500   8.864
 2479POPC   GL233470  28.994   3.552   8.864
 2479POPC   C1A33471  29.156   3.561   8.564
 2479POPC   D2A33472  29.173   3.492   8.264
 2479POPC   C3A33473  29.129   3.516   7.964
 2479POPC   C4A33474  29.095   3.582   7.664
 2479POPC   C1B33475  28.865   3.629   8.564
 2479POPC   C2B33476  28.867   3.653   8.264
 2479POPC   C3B33477  28.929   3.588   7.964
 2479POPC   C4B33478  28.955   3.603   7.664
 2480POPC   NC333479  44.687  25.995   9.464
 2480POPC   PO433480  44.702  26.091   9.164
 2480POPC   GL133481  44.616  26.074   8.864
 2480POPC   GL233482  44.685  26.137   8.864
 2480POPC   C1A33483  44.637  26.078   8.564
 2480POPC   D2A33484  44.671  26.061   8.264
 2480POPC   C3A33485  44.647  26.071   7.964
 2480POPC   C4A33486  44.669  26.024   7.664
 2480POPC   C1B33487  44.758  26.259   8.564
 2480POPC   C2B33488  44.772  26.258   8.264
 2480POPC   C3B33489  44.744  26.207   7.964
 2480POPC   C4B33490  44.762  26.227   7.664
 2481POPC   NC333491  10.490   2.731   9.464
 2481POPC   PO433492  10.491   2.799   9.164
 2481POPC   GL133493  10.542   2.801   8.864
 2481POPC   GL233494  10.384   2.770   8.864
 2481POPC   C1A33495  10.491   2.793   8.564
 2481POPC   D2A33496  10.490   2.763   8.264
 2481POPC   C3A33497  10.496   2.729   7.964
 2481POPC   C4A33498  10.480   2.721   7.664
 2481POPC   C1B33499  10.255   2.846   8.564
 2481POPC   C2B33500  10.240   2.867   8.264
 2481POPC   C3B33501  10.309   2.815   7.964
 2481POPC   C4B33502  10.290   2.862   7.664
 2482POPC   NC333503  26.817   4.302   9.464
 2482POPC   PO433504  26.808   4.289   9.164
 2482POPC   GL133505  26.793   4.271   8.864
 2482POPC   GL233506  26.670   4.296   8.864
 2482POPC   C1A33507  26.778   4.316   8.564
 2482POPC   D2A33508  26.783   4.301   8.264
 2482POPC   C3A33509  26.797   4.322   7.964
 2482POPC   C4A33510  26.855   4.329   7.664
 2482POPC   C1B33511  26.635   4.139   8.564
 2482POPC   C2B33512  26.584   4.198   8.264
 2482POPC   C3B33513  26.654   4.169   7.964
 2482POPC   C4B33514  26.583   4.232   7.664
 2483POPC   NC333515  36.103  12.861   9.464
 2483POPC   PO433516  36.090  12.876   9.164
 2483POPC   GL133517  36.134  12.820   8.864
 2483POPC   GL233518  36.122  12.952   8.864
 2483POPC   C1A33519  36.171  12.861   8.564
 2483POPC   D2A33520  36.154  12.889   8.264
 2483POPC   C3A33521  36.144  12.867   7.964
 2483POPC   C4A33522  36.093  12.859   7.664
 2483POPC   C1B33523  36.087  13.065   8.564
 2483POPC   C2B33524  36.051  13.135   8.264
 2483POPC   C3B33525  36.008  13.132   7.964
 2483POPC   C4B33526  36.068  13.085   7.664
 2484POPC   NC333527  15.951  39.245   9.464
 2484POPC   PO433528  15.981  39.232   9.164
 2484POPC   GL133529  15.989  39.224   8.864
 2484POPC   GL233530  16.014  39.133   8.864
 2484POPC   C1A33531  15.940  39.194   8.564
 2484POPC   D2A33532  15.997  39.243   8.264
 2484POPC   C3A33533  15.914  39.183   7.964
 2484POPC   C4A33534  15.922  39.182   7.664
 2484POPC   C1B33535  16.163  39.102   8.564
 2484POPC   C2B33536  16.131  39.044   8.264
 2484POPC   C3B33537  16.194  39.048   7.964
 2484POPC   C4B33538  16.158  39.110   7.664
 2485POPC   NC333539   2.792  22.987   9.464
 2485POPC   PO433540   2.811  22.963   9.164
 2485POPC   GL133541   2.751  22.936   8.864
 2485POPC   GL233542   2.933  22.926   8.864
 2485POPC   C1A33543   2.731  22.889   8.564
 2485POPC   D2A33544   2.740  22.950   8.264
 2485POPC   C3A33545   2.777  22.942   7.964
 2485POPC   C4A33546   2.805  22.961   7.664
 2485POPC   C1B33547   3.007  22.954   8.564
 2485POPC   C2B33548   3.026  22.990   8.264
 2485POPC   C3B33549   3.011  22.962   7.964
 2485POPC   C4B33550   3.003  23.011   7.664
 2486POPC   NC333551  35.333  36.105   9.464
 2486POPC   PO433552  35.373  36.094   9.164
 2486POPC   GL133553  35.323  36.124   8.864
 2486POPC   GL233554  35.387  36.026   8.864
 2486POPC   C1A33555  35.316  36.111   8.564
 2486POPC   D2A33556  35.305  36.083   8.264
 2486POPC   C3A33557  35.341  36.103   7.964
 2486POPC   C4A33558  35.308  36.120   7.664
 2486POPC   C1B33559  35.455  35.899   8.564
 2486POPC   C2B33560  35.525  35.889   8.264
 2486POPC   C3B33561  35.487  35.887   7.964
 2486POPC   C4B33562  35.480  35.954   7.664
 2487POPC   NC333563  36.081  36.136   9.464
 2487POPC   PO433564  36.143  36.097   9.164
 2487POPC   GL133565  36.149  36.175   8.864
 2487POPC   GL233566  36.226  36.206   8.864
 2487POPC   C1A33567  36.108  36.086   8.564
 2487POPC   D2A33568  36.175  36.151   8.264
 2487POPC   C3A33569  36.173  36.137   7.964
 2487POPC   C4A33570  36.155  36.090   7.664
 2487POPC   C1B33571  36.283  36.318   8.564
 2487POPC   C2B33572  36.294  36.267   8.264
 2487POPC   C3B33573  36.258  36.349   7.964
 2487POPC   C4B33574  36.310  36.273   7.664
 2488POPC   NC333575  23.686  22.145   9.464
 2488POPC   PO433576  23.757  22.132   9.164
 2488POPC   GL133577  23.667  22.211   8.864
 2488POPC   GL233578  23.859  22.111   8.864
 2488POPC   C1A33579  23.752  22.185   8.564
 2488POPC   D2A33580  23.757  22.191   8.264
 2488POPC   C3A33581  23.688  22.161   7.964
 2488POPC   C4A33582  23.707  22.136   7.664
 2488POPC   C1B33583  23.911  22.107   8.564
 2488POPC   C2B33584  23.963  22.118   8.264
 2488POPC   C3B33585  23.947  22.118   7.964
 2488POPC   C4B33586  23.974  22.086   7.664
 2489POPC   NC333587  30.730  30.681   9.464
 2489POPC   PO433588  30.729  30.711   9.164
 2489POPC   GL133589  30.669  30.719   8.864
 2489POPC   GL233590  30.783  30.657   8.864
 2489POPC   C1A33591  30.657  30.663   8.564
 2489POPC   D2A33592  30.673  30.667   8.264
 2489POPC   C3A33593  30.654  30.731   7.964
 2489POPC   C4A33594  30.714  30.675   7.664
 2489POPC   C1B33595  30.882  30.504   8.564
 2489POPC   C2B33596  30.933  30.517   8.264
 2489POPC   C3B33597  30.941  30.538   7.964
 2489POPC   C4B33598  30.886  30.583   7.664
 2490POPC   NC333599   1.237  21.417   9.464
 2490POPC   PO433600   1.183  21.411   9.164
 2490POPC   GL133601   1.170  21.423   8.864
 2490POPC   GL233602   1.346  21.337   8.864
 2490POPC   C1A33603   1.253  21.346   8.564
 2490POPC   D2A33604   1.170  21.404   8.264
 2490POPC   C3A33605   1.190  21.356   7.964
 2490POPC   C4A33606   1.189  21.400   7.664
 2490POPC   C1B33607   1.436  21.260   8.564
 2490POPC   C2B33608   1.441  21.282   8.264
 2490POPC   C3B33609   1.432  21.263   7.964
 2490POPC   C4B33610   1.463  21.288   7.664
 2491POPC   NC333611   1.252  29.110   9.464
 2491POPC   PO433612   1.196  29.131   9.164
 2491POPC   GL133613   1.192  29.145   8.864
 2491POPC   GL233614   1.080  29.042   8.864
 2491POPC   C1A33615   1.252  29.110   8.564
 2491POPC   D2A33616   1.199  29.153   8.264
 2491POPC   C3A33617   1.214  29.187   7.964
 2491POPC   C4A33618   1.208  29.106   7.664
 2491POPC   C1B33619   1.030  28.930   8.564
 2491POPC   C2B33620   1.064  28.977   8.264
 2491POPC   C3B33621   0.996  28.993   7.964
 2491POPC   C4B33622   1.068  29.018   7.664
 2492POPC   NC333623   9.008   1.974   9.464
 2492POPC   PO433624   8.934   2.008   9.164
 2492POPC   GL133625   8.933   1.998   8.864
 2492POPC   GL233626   9.047   2.011   8.864
 2492POPC   C1A33627   9.009   1.947   8.564
 2492POPC   D2A33628   8.937   2.037   8.264
 2492POPC   C3A33629   8.981   1.979   7.964
 2492POPC   C4A33630   8.947   1.997   7.664
 2492POPC   C1B33631   9.257   2.097   8.564
 2492POPC   C2B33632   9.203   2.102   8.264
 2492POPC   C3B33633   9.240   2.030   7.964
 2492POPC   C4B33634   9.250   2.073   7.664
 2493POPC   NC333635  10.563   1.999   9.464
 2493POPC   PO433636  10.474   2.000   9.164
 2493POPC   GL133637  10.486   2.026   8.864
 2493POPC   GL233638  10.670   1.944   8.864
 2493POPC   C1A33639  10.552   2.033   8.564
 2493POPC   D2A33640  10.520   2.023   8.264
 2493POPC   C3A33641  10.485   1.982   7.964
 2493POPC   C4A33642  10.523   1.983   7.664
 2493POPC   C1B33643  10.700   1.898   8.564
 2493POPC   C2B33644  10.777   1.860   8.264
 2493POPC   C3B33645  10.741   1.871   7.964
 2493POPC   C4B33646  10.748   1.905   7.664
 2494POPC   NC333647  43.134  29.878   9.464
 2494POPC   PO433648  43.065  29.908   9.164
 2494POPC   GL133649  43.150  29.897   8.864
 2494POPC   GL233650  43.217  29.997   8.864
 2494POPC   C1A33651  43.088  29.919   8.564
 2494POPC   D2A33652  43.134  29.948   8.264
 2494POPC   C3A33653  43.069  29.964   7.964
 2494POPC   C4A33654  43.131  29.955   7.664
 2494POPC   C1B33655  43.333  29.993   8.564
 2494POPC   C2B33656  43.377  30.057   8.264
 2494POPC   C3B33657  43.285  30.079   7.964
 2494POPC   C4B33658  43.376  29.999   7.664
 2495POPC   NC333659  36.911  19.785   9.464
 2495POPC   PO433660  36.913  19.789   9.164
 2495POPC   GL133661  36.940  19.882   8.864
 2495POPC   GL233662  36.930  19.992   8.864
 2495POPC   C1A33663  36.928  19.798   8.564
 2495POPC   D2A33664  36.906  19.857   8.264
 2495POPC   C3A33665  36.940  19.842   7.964
 2495POPC   C4A33666  36.865  19.879   7.664
 2495POPC   C1B33667  36.935  20.033   8.564
 2495POPC   C2B33668  36.963  20.054   8.264
 2495POPC   C3B33669  36.930  20.058   7.964
 2495POPC   C4B33670  36.908  20.125   7.664
 2496POPC   NC333671  22.151  32.251   9.464
 2496POPC   PO433672  22.114  32.240   9.164
 2496POPC   GL133673  22.187  32.201   8.864
 2496POPC   GL233674  22.237  32.270   8.864
 2496POPC   C1A33675  22.153  32.265   8.564
 2496POPC   D2A33676  22.153  32.280   8.264
 2496POPC   C3A33677  22.129  32.273   7.964
 2496POPC   C4A33678  22.168  32.214   7.664
 2496POPC   C1B33679  22.363  32.340   8.564
 2496POPC   C2B33680  22.411  32.385   8.264
 2496POPC   C3B33681  22.397  32.305   7.964
 2496POPC   C4B33682  22.437  32.400   7.664
 2497POPC   NC333683  21.417  41.551   9.464
 2497POPC   PO433684  21.388  41.512   9.164
 2497POPC   GL133685  21.356  41.539   8.864
 2497POPC   GL233686  21.455  41.674   8.864
 2497POPC   C1A33687  21.399  41.607   8.564
 2497POPC   D2A33688  21.358  41.546   8.264
 2497POPC   C3A33689  21.340  41.529   7.964
 2497POPC   C4A33690  21.375  41.602   7.664
 2497POPC   C1B33691  21.628  41.737   8.564
 2497POPC   C2B33692  21.573  41.718   8.264
 2497POPC   C3B33693  21.594  41.676   7.964
 2497POPC   C4B33694  21.560  41.663   7.664
 2498POPC   NC333695  19.076   3.498   9.464
 2498POPC   PO433696  19.106   3.498   9.164
 2498POPC   GL133697  19.091   3.589   8.864
 2498POPC   GL233698  19.139   3.537   8.864
 2498POPC   C1A33699  19.099   3.498   8.564
 2498POPC   D2A33700  19.028   3.507   8.264
 2498POPC   C3A33701  19.026   3.587   7.964
 2498POPC   C4A33702  19.075   3.543   7.664
 2498POPC   C1B33703  19.308   3.507   8.564
 2498POPC   C2B33704  19.282   3.420   8.264
 2498POPC   C3B33705  19.334   3.489   7.964
 2498POPC   C4B33706  19.274   3.413   7.664
 2499POPC   NC333707  28.398   1.256   9.464
 2499POPC   PO433708  28.376   1.244   9.164
 2499POPC   GL133709  28.411   1.261   8.864
 2499POPC   GL233710  28.346   1.296   8.864
 2499POPC   C1A33711  28.412   1.165   8.564
 2499POPC   D2A33712  28.401   1.223   8.264
 2499POPC   C3A33713  28.331   1.221   7.964
 2499POPC   C4A33714  28.393   1.166   7.664
 2499POPC   C1B33715  28.398   1.476   8.564
 2499POPC   C2B33716  28.378   1.462   8.264
 2499POPC   C3B33717  28.400   1.425   7.964
 2499POPC   C4B33718  28.396   1.492   7.664
 2500POPC   NC333719  19.084  26.844   9.464
 2500POPC   PO433720  19.030  26.845   9.164
 2500POPC   GL133721  19.039  26.791   8.864
 2500POPC   GL233722  18.960  26.882   8.864
 2500POPC   C1A33723  19.087  26.859   8.564
 2500POPC   D2A33724  19.026  26.841   8.264
 2500POPC   C3A33725  19.025  26.839   7.964
 2500POPC   C4A33726  19.047  26.847   7.664
 2500POPC   C1B33727  18.914  27.030   8.564
 2500POPC   C2B33728  18.901  27.048   8.264
 2500POPC   C3B33729  18.919  27.006   7.964
 2500POPC   C4B33730  18.921  26.952   7.664
 2501POPC   NC333731  26.038   8.236   9.464
 2501POPC   PO433732  26.013   8.224   9.164
 2501POPC   GL133733  26.027   8.242   8.864
 2501POPC   GL233734  25.979   8.133   8.864
 2501POPC   C1A33735  26.075   8.198   8.564
 2501POPC   D2A33736  26.059   8.237   8.264
 2501POPC   C3A33737  26.010   8.204   7.964
 2501POPC   C4A33738  26.006   8.188   7.664
 2501POPC   C1B33739  25.858   8.083   8.564
 2501POPC   C2B33740  25.885   8.004   8.264
 2501POPC   C3B33741  25.799   8.049   7.964
 2501POPC   C4B33742  25.848   8.011   7.664
 2502POPC   NC333743   8.994  23.735   9.464
 2502POPC   PO433744   8.984  23.748   9.164
 2502POPC   GL133745   8.951  23.676   8.864
 2502POPC   GL233746   8.824  23.670   8.864
 2502POPC   C1A33747   9.019  23.687   8.564
 2502POPC   D2A33748   8.926  23.680   8.264
 2502POPC   C3A33749   8.993  23.745   7.964
 2502POPC   C4A33750   8.953  23.671   7.664
 2502POPC   C1B33751   8.729  23.608   8.564
 2502POPC   C2B33752   8.769  23.680   8.264
 2502POPC   C3B33753   8.712  23.667   7.964
 2502POPC   C4B33754   8.773  23.662   7.664
 2503POPC   NC333755  19.848  13.620   9.464
 2503POPC   PO433756  19.799  13.590   9.164
 2503POPC   GL133757  19.790  13.633   8.864
 2503POPC   GL233758  19.840  13.717   8.864
 2503POPC   C1A33759  19.847  13.627   8.564
 2503POPC   D2A33760  19.787  13.597   8.264
 2503POPC   C3A33761  19.875  13.619   7.964
 2503POPC   C4A33762  19.873  13.662   7.664
 2503POPC   C1B33763  19.701  13.885   8.564
 2503POPC   C2B33764  19.723  13.848   8.264
 2503POPC   C3B33765  19.797  13.834   7.964
 2503POPC   C4B33766  19.731  13.827   7.664
 2504POPC   NC333767   5.127   3.534   9.464
 2504POPC   PO433768   5.044   3.522   9.164
 2504POPC   GL133769   5.132   3.553   8.864
 2504POPC   GL233770   5.105   3.379   8.864
 2504POPC   C1A33771   5.095   3.566   8.564
 2504POPC   D2A33772   5.113   3.523   8.264
 2504POPC   C3A33773   5.126   3.591   7.964
 2504POPC   C4A33774   5.107   3.510   7.664
 2504POPC   C1B33775   5.094   3.295   8.564
 2504POPC   C2B33776   5.104   3.269   8.264
 2504POPC   C3B33777   5.101   3.306   7.964
 2504POPC   C4B33778   5.071   3.326   7.664
 2505POPC   NC333779  31.464  44.627   9.464
 2505POPC   PO433780  31.455  44.636   9.164
 2505POPC   GL133781  31.508  44.622   8.864
 2505POPC   GL233782  31.397  44.729   8.864
 2505POPC   C1A33783  31.520  44.613   8.564
 2505POPC   D2A33784  31.473  44.684   8.264
 2505POPC   C3A33785  31.466  44.655   7.964
 2505POPC   C4A33786  31.442  44.701   7.664
 2505POPC   C1B33787  31.389  44.917   8.564
 2505POPC   C2B33788  31.363  44.889   8.264
 2505POPC   C3B33789  31.352  44.884   7.964
 2505POPC   C4B33790  31.338  44.859   7.664
 2506POPC   NC333791   2.752  25.288   9.464
 2506POPC   PO433792   2.745  25.256   9.164
 2506POPC   GL133793   2.795  25.292   8.864
 2506POPC   GL233794   2.668  25.204   8.864
 2506POPC   C1A33795   2.812  25.276   8.564
 2506POPC   D2A33796   2.747  25.309   8.264
 2506POPC   C3A33797   2.796  25.304   7.964
 2506POPC   C4A33798   2.750  25.233   7.664
 2506POPC   C1B33799   2.572  25.038   8.564
 2506POPC   C2B33800   2.587  25.068   8.264
 2506POPC   C3B33801   2.622  25.053   7.964
 2506POPC   C4B33802   2.592  25.059   7.664
 2507POPC   NC333803   9.724  22.117   9.464
 2507POPC   PO433804   9.764  22.173   9.164
 2507POPC   GL133805   9.711  22.131   8.864
 2507POPC   GL233806   9.670  22.129   8.864
 2507POPC   C1A33807   9.714  22.189   8.564
 2507POPC   D2A33808   9.752  22.185   8.264
 2507POPC   C3A33809   9.763  22.160   7.964
 2507POPC   C4A33810   9.781  22.152   7.664
 2507POPC   C1B33811   9.532  22.045   8.564
 2507POPC   C2B33812   9.498  22.044   8.264
 2507POPC   C3B33813   9.495  22.051   7.964
 2507POPC   C4B33814   9.539  22.075   7.664
 2508POPC   NC333815   1.242   6.693   9.464
 2508POPC   PO433816   1.225   6.604   9.164
 2508POPC   GL133817   1.235   6.602   8.864
 2508POPC   GL233818   1.304   6.588   8.864
 2508POPC   C1A33819   1.228   6.691   8.564
 2508POPC   D2A33820   1.192   6.678   8.264
 2508POPC   C3A33821   1.236   6.640   7.964
 2508POPC   C4A33822   1.213   6.670   7.664
 2508POPC   C1B33823   1.378   6.448   8.564
 2508POPC   C2B33824   1.373   6.406   8.264
 2508POPC   C3B33825   1.330   6.454   7.964
 2508POPC   C4B33826   1.376   6.482   7.664
 2509POPC   NC333827  18.270   8.950   9.464
 2509POPC   PO433828  18.277   8.947   9.164
 2509POPC   GL133829  18.249   8.994   8.864
 2509POPC   GL233830  18.224   9.103   8.864
 2509POPC   C1A33831  18.285   8.979   8.564
 2509POPC   D2A33832  18.303   8.975   8.264
 2509POPC   C3A33833  18.283   8.995   7.964
 2509POPC   C4A33834  18.279   9.019   7.664
 2509POPC   C1B33835  18.243   9.190   8.564
 2509POPC   C2B33836  18.256   9.198   8.264
 2509POPC   C3B33837  18.284   9.229   7.964
 2509POPC   C4B33838  18.255   9.250   7.664
 2510POPC   NC333839  43.128   8.988   9.464
 2510POPC   PO433840  43.063   8.998   9.164
 2510POPC   GL133841  43.077   8.980   8.864
 2510POPC   GL233842  43.243   9.015   8.864
 2510POPC   C1A33843  43.078   8.955   8.564
 2510POPC   D2A33844  43.151   9.002   8.264
 2510POPC   C3A33845  43.124   8.953   7.964
 2510POPC   C4A33846  43.154   9.022   7.664
 2510POPC   C1B33847  43.270   9.144   8.564
 2510POPC   C2B33848  43.333   9.104   8.264
 2510POPC   C3B33849  43.331   9.154   7.964
 2510POPC   C4B33850  43.299   9.148   7.664
 2511POPC   NC333851  25.246  11.267   9.464
 2511POPC   PO433852  25.312  11.345   9.164
 2511POPC   GL133853  25.218  11.325   8.864
 2511POPC   GL233854  25.181  11.297   8.864
 2511POPC   C1A33855  25.282  11.312   8.564
 2511POPC   D2A33856  25.292  11.296   8.264
 2511POPC   C3A33857  25.222  11.259   7.964
 2511POPC   C4A33858  25.233  11.283   7.664
 2511POPC   C1B33859  25.003  11.289   8.564
 2511POPC   C2B33860  24.971  11.347   8.264
 2511POPC   C3B33861  25.021  11.356   7.964
 2511POPC   C4B33862  24.977  11.335   7.664
 2512POPC   NC333863  32.252   8.169   9.464
 2512POPC   PO433864  32.267   8.193   9.164
 2512POPC   GL133865  32.210   8.147   8.864
 2512POPC   GL233866  32.125   8.219   8.864
 2512POPC   C1A33867  32.270   8.243   8.564
 2512POPC   D2A33868  32.256   8.197   8.264
 2512POPC   C3A33869  32.227   8.203   7.964
 2512POPC   C4A33870  32.282   8.241   7.664
 2512POPC   C1B33871  31.964   8.155   8.564
 2512POPC   C2B33872  31.963   8.220   8.264
 2512POPC   C3B33873  32.012   8.186   7.964
 2512POPC   C4B33874  31.980   8.179   7.664
 2513POPC   NC333875  10.479  17.469   9.464
 2513POPC   PO433876  10.511  17.483   9.164
 2513POPC   GL133877  10.539  17.488   8.864
 2513POPC   GL233878  10.631  17.557   8.864
 2513POPC   C1A33879  10.538  17.526   8.564
 2513POPC   D2A33880  10.490  17.470   8.264
 2513POPC   C3A33881  10.513  17.486   7.964
 2513POPC   C4A33882  10.532  17.515   7.664
 2513POPC   C1B33883  10.728  17.686   8.564
 2513POPC   C2B33884  10.747  17.622   8.264
 2513POPC   C3B33885  10.769  17.627   7.964
 2513POPC   C4B33886  10.739  17.650   7.664
 2514POPC   NC333887  38.445  11.254   9.464
 2514POPC   PO433888  38.475  11.310   9.164
 2514POPC   GL133889  38.410  11.272   8.864
 2514POPC   GL233890  38.332  11.224   8.864
 2514POPC   C1A33891  38.497  11.271   8.564
 2514POPC   D2A33892  38.481  11.298   8.264
 2514POPC   C3A33893  38.446  11.253   7.964
 2514POPC   C4A33894  38.450  11.332   7.664
 2514POPC   C1B33895  38.270  11.162   8.564
 2514POPC   C2B33896  38.297  11.109   8.264
 2514POPC   C3B33897  38.254  11.128   7.964
 2514POPC   C4B33898  38.223  11.109   7.664
 2515POPC   NC333899  15.916   6.634   9.464
 2515POPC   PO433900  15.939   6.607   9.164
 2515POPC   GL133901  15.910   6.626   8.864
 2515POPC   GL233902  16.094   6.678   8.864
 2515POPC   C1A33903  15.945   6.683   8.564
 2515POPC   D2A33904  15.956   6.627   8.264
 2515POPC   C3A33905  15.916   6.688   7.964
 2515POPC   C4A33906  15.924   6.663   7.664
 2515POPC   C1B33907  16.156   6.642   8.564
 2515POPC   C2B33908  16.247   6.689   8.264
 2515POPC   C3B33909  16.162   6.664   7.964
 2515POPC   C4B33910  16.169   6.647   7.664
 2516POPC   NC333911  22.124  26.067   9.464
 2516POPC   PO433912  22.150  25.997   9.164
 2516POPC   GL133913  22.173  26.065   8.864
 2516POPC   GL233914  22.059  26.121   8.864
 2516POPC   C1A33915  22.207  26.015   8.564
 2516POPC   D2A33916  22.115  26.045   8.264
 2516POPC   C3A33917  22.203  26.069   7.964
 2516POPC   C4A33918  22.178  26.065   7.664
 2516POPC   C1B33919  21.972  26.167   8.564
 2516POPC   C2B33920  21.941  26.179   8.264
 2516POPC   C3B33921  21.997  26.183   7.964
 2516POPC   C4B33922  21.933  26.158   7.664
 2517POPC   NC333923  17.492   8.933   9.464
 2517POPC   PO433924  17.547   9.002   9.164
 2517POPC   GL133925  17.543   8.973   8.864
 2517POPC   GL233926  17.621   8.952   8.864
 2517POPC   C1A33927  17.519   8.950   8.564
 2517POPC   D2A33928  17.545   8.923   8.264
 2517POPC   C3A33929  17.468   9.016   7.964
 2517POPC   C4A33930  17.463   8.927   7.664
 2517POPC   C1B33931  17.791   8.984   8.564
 2517POPC   C2B33932  17.787   8.926   8.264
 2517POPC   C3B33933  17.771   8.955   7.964
 2517POPC   C4B33934  17.780   8.953   7.664
 2518POPC   NC333935  25.306  34.574   9.464
 2518POPC   PO433936  25.290  34.555   9.164
 2518POPC   GL133937  25.299  34.623   8.864
 2518POPC   GL233938  25.340  34.447   8.864
 2518POPC   C1A33939  25.271  34.549   8.564
 2518POPC   D2A33940  25.244  34.625   8.264
 2518POPC   C3A33941  25.218  34.579   7.964
 2518POPC   C4A33942  25.222  34.528   7.664
 2518POPC   C1B33943  25.375  34.311   8.564
 2518POPC   C2B33944  25.342  34.321   8.264
 2518POPC   C3B33945  25.377  34.329   7.964
 2518POPC   C4B33946  25.355  34.359   7.664
 2519POPC   NC333947   7.407  39.962   9.464
 2519POPC   PO433948   7.373  40.054   9.164
 2519POPC   GL133949   7.409  40.010   8.864
 2519POPC   GL233950   7.413  39.932   8.864
 2519POPC   C1A33951   7.378  40.035   8.564
 2519POPC   D2A33952   7.400  39.994   8.264
 2519POPC   C3A33953   7.452  40.047   7.964
 2519POPC   C4A33954   7.456  39.965   7.664
 2519POPC   C1B33955   7.496  39.789   8.564
 2519POPC   C2B33956   7.510  39.759   8.264
 2519POPC   C3B33957   7.511  39.781   7.964
 2519POPC   C4B33958   7.438  39.723   7.664
 2520POPC   NC333959   2.795  42.357   9.464
 2520POPC   PO433960   2.804  42.305   9.164
 2520POPC   GL133961   2.728  42.327   8.864
 2520POPC   GL233962   2.824  42.302   8.864
 2520POPC   C1A33963   2.736  42.349   8.564
 2520POPC   D2A33964   2.767  42.286   8.264
 2520POPC   C3A33965   2.805  42.330   7.964
 2520POPC   C4A33966   2.716  42.296   7.664
 2520POPC   C1B33967   2.939  42.247   8.564
 2520POPC   C2B33968   2.968  42.210   8.264
 2520POPC   C3B33969   2.998  42.252   7.964
 2520POPC   C4B33970   2.964  42.161   7.664
 2521POPC   NC333971  12.847  13.616   9.464
 2521POPC   PO433972  12.899  13.649   9.164
 2521POPC   GL133973  12.843  13.585   8.864
 2521POPC   GL233974  12.870  13.500   8.864
 2521POPC   C1A33975  12.897  13.586   8.564
 2521POPC   D2A33976  12.827  13.650   8.264
 2521POPC   C3A33977  12.834  13.618   7.964
 2521POPC   C4A33978  12.863  13.676   7.664
 2521POPC   C1B33979  12.840  13.387   8.564
 2521POPC   C2B33980  12.811  13.384   8.264
 2521POPC   C3B33981  12.780  13.371   7.964
 2521POPC   C4B33982  12.796  13.392   7.664
 2522POPC   NC333983   7.406  40.759   9.464
 2522POPC   PO433984   7.399  40.800   9.164
 2522POPC   GL133985   7.399  40.830   8.864
 2522POPC   GL233986   7.554  40.809   8.864
 2522POPC   C1A33987   7.428  40.780   8.564
 2522POPC   D2A33988   7.455  40.819   8.264
 2522POPC   C3A33989   7.378  40.806   7.964
 2522POPC   C4A33990   7.470  40.733   7.664
 2522POPC   C1B33991   7.632  40.721   8.564
 2522POPC   C2B33992   7.642  40.803   8.264
 2522POPC   C3B33993   7.695  40.774   7.964
 2522POPC   C4B33994   7.681  40.802   7.664
 2523POPC   NC333995   5.889  27.577   9.464
 2523POPC   PO433996   5.850  27.580   9.164
 2523POPC   GL133997   5.917  27.618   8.864
 2523POPC   GL233998   5.936  27.549   8.864
 2523POPC   C1A33999   5.840  27.596   8.564
 2523POPC   D2A34000   5.866  27.583   8.264
 2523POPC   C3A34001   5.888  27.641   7.964
 2523POPC   C4A34002   5.825  27.556   7.664
 2523POPC   C1B34003   6.062  27.477   8.564
 2523POPC   C2B34004   6.067  27.392   8.264
 2523POPC   C3B34005   6.072  27.450   7.964
 2523POPC   C4B34006   6.050  27.433   7.664
 2524POPC   NC334007   3.542  39.217   9.464
 2524POPC   PO434008   3.582  39.212   9.164
 2524POPC   GL134009   3.578  39.253   8.864
 2524POPC   GL234010   3.508  39.323   8.864
 2524POPC   C1A34011   3.586  39.186   8.564
 2524POPC   D2A34012   3.496  39.231   8.264
 2524POPC   C3A34013   3.502  39.264   7.964
 2524POPC   C4A34014   3.548  39.211   7.664
 2524POPC   C1B34015   3.397  39.401   8.564
 2524POPC   C2B34016   3.392  39.401   8.264
 2524POPC   C3B34017   3.411  39.380   7.964
 2524POPC   C4B34018   3.391  39.421   7.664
 2525POPC   NC334019   5.114  11.254   9.464
 2525POPC   PO434020   5.110  11.291   9.164
 2525POPC   GL134021   5.110  11.317   8.864
 2525POPC   GL234022   5.180  11.334   8.864
 2525POPC   C1A34023   5.129  11.340   8.564
 2525POPC   D2A34024   5.071  11.349   8.264
 2525POPC   C3A34025   5.134  11.316   7.964
 2525POPC   C4A34026   5.068  11.262   7.664
 2525POPC   C1B34027   5.349  11.410   8.564
 2525POPC   C2B34028   5.370  11.410   8.264
 2525POPC   C3B34029   5.285  11.421   7.964
 2525POPC   C4B34030   5.311  11.375   7.664
 2526POPC   NC334031  11.347   2.035   9.464
 2526POPC   PO434032  11.281   2.016   9.164
 2526POPC   GL134033  11.347   1.966   8.864
 2526POPC   GL234034  11.192   1.883   8.864
 2526POPC   C1A34035  11.283   2.026   8.564
 2526POPC   D2A34036  11.342   1.996   8.264
 2526POPC   C3A34037  11.284   2.011   7.964
 2526POPC   C4A34038  11.307   2.006   7.664
 2526POPC   C1B34039  11.158   1.766   8.564
 2526POPC   C2B34040  11.131   1.754   8.264
 2526POPC   C3B34041  11.212   1.757   7.964
 2526POPC   C4B34042  11.203   1.776   7.664
 2527POPC   NC334043  44.656  29.162   9.464
 2527POPC   PO434044  44.647  29.193   9.164
 2527POPC   GL134045  44.622  29.137   8.864
 2527POPC   GL234046  44.804  29.130   8.864
 2527POPC   C1A34047  44.701  29.115   8.564
 2527POPC   D2A34048  44.691  29.176   8.264
 2527POPC   C3A34049  44.676  29.099   7.964
 2527POPC   C4A34050  44.634  29.167   7.664
 2527POPC   C1B34051  44.891  29.108   8.564
 2527POPC   C2B34052  44.901  29.106   8.264
 2527POPC   C3B34053  44.891  29.081   7.964
 2527POPC   C4B34054  44.923  29.050   7.664
 2528POPC   NC334055  31.437  26.850   9.464
 2528POPC   PO434056  31.459  26.823   9.164
 2528POPC   GL134057  31.493  26.841   8.864
 2528POPC   GL234058  31.363  26.714   8.864
 2528POPC   C1A34059  31.432  26.846   8.564
 2528POPC   D2A34060  31.511  26.771   8.264
 2528POPC   C3A34061  31.467  26.771   7.964
 2528POPC   C4A34062  31.521  26.858   7.664
 2528POPC   C1B34063  31.293  26.612   8.564
 2528POPC   C2B34064  31.266  26.605   8.264
 2528POPC   C3B34065  31.303  26.662   7.964
 2528POPC   C4B34066  31.275  26.607   7.664
 2529POPC   NC334067  31.510  21.424   9.464
 2529POPC   PO434068  31.505  21.383   9.164
 2529POPC   GL134069  31.514  21.339   8.864
 2529POPC   GL234070  31.548  21.349   8.864
 2529POPC   C1A34071  31.467  21.372   8.564
 2529POPC   D2A34072  31.452  21.402   8.264
 2529POPC   C3A34073  31.447  21.373   7.964
 2529POPC   C4A34074  31.456  21.429   7.664
 2529POPC   C1B34075  31.693  21.261   8.564
 2529POPC   C2B34076  31.737  21.251   8.264
 2529POPC   C3B34077  31.722  21.315   7.964
 2529POPC   C4B34078  31.747  21.322   7.664
 2530POPC   NC334079  28.337  29.130   9.464
 2530POPC   PO434080  28.389  29.153   9.164
 2530POPC   GL134081  28.341  29.107   8.864
 2530POPC   GL234082  28.503  29.088   8.864
 2530POPC   C1A34083  28.409  29.135   8.564
 2530POPC   D2A34084  28.348  29.125   8.264
 2530POPC   C3A34085  28.408  29.129   7.964
 2530POPC   C4A34086  28.356  29.098   7.664
 2530POPC   C1B34087  28.580  28.934   8.564
 2530POPC   C2B34088  28.564  28.974   8.264
 2530POPC   C3B34089  28.515  28.946   7.964
 2530POPC   C4B34090  28.576  28.952   7.664
 2531POPC   NC334091   4.331   0.484   9.464
 2531POPC   PO434092   4.335   0.436   9.164
 2531POPC   GL134093   4.276   0.462   8.864
 2531POPC   GL234094   4.420   0.451   8.864
 2531POPC   C1A34095   4.300   0.411   8.564
 2531POPC   D2A34096   4.292   0.391   8.264
 2531POPC   C3A34097   4.272   0.432   7.964
 2531POPC   C4A34098   4.328   0.398   7.664
 2531POPC   C1B34099   4.566   0.530   8.564
 2531POPC   C2B34100   4.548   0.516   8.264
 2531POPC   C3B34101   4.528   0.534   7.964
 2531POPC   C4B34102   4.511   0.498   7.664
 2532POPC   NC334103   3.492  18.277   9.464
 2532POPC   PO434104   3.536  18.260   9.164
 2532POPC   GL134105   3.567  18.290   8.864
 2532POPC   GL234106   3.399  18.337   8.864
 2532POPC   C1A34107   3.522  18.287   8.564
 2532POPC   D2A34108   3.506  18.249   8.264
 2532POPC   C3A34109   3.573  18.323   7.964
 2532POPC   C4A34110   3.538  18.290   7.664
 2532POPC   C1B34111   3.315  18.328   8.564
 2532POPC   C2B34112   3.288  18.298   8.264
 2532POPC   C3B34113   3.324  18.342   7.964
 2532POPC   C4B34114   3.261  18.287   7.664
 2533POPC   NC334115   1.247  22.957   9.464
 2533POPC   PO434116   1.248  22.979   9.164
 2533POPC   GL134117   1.248  22.946   8.864
 2533POPC   GL234118   1.362  22.877   8.864
 2533POPC   C1A34119   1.219  22.897   8.564
 2533POPC   D2A34120   1.243  22.916   8.264
 2533POPC   C3A34121   1.193  22.962   7.964
 2533POPC   C4A34122   1.176  22.942   7.664
 2533POPC   C1B34123   1.428  22.788   8.564
 2533POPC   C2B34124   1.389  22.790   8.264
 2533POPC   C3B34125   1.379  22.775   7.964
 2533POPC   C4B34126   1.421  22.791   7.664
 2534POPC   NC334127  24.498  32.295   9.464
 2534POPC   PO434128  24.486  32.205   9.164
 2534POPC   GL134129  24.489  32.202   8.864
 2534POPC   GL234130  24.367  32.163   8.864
 2534POPC   C1A34131  24.528  32.290   8.564
 2534POPC   D2A34132  24.444  32.253   8.264
 2534POPC   C3A34133  24.474  32.222   7.964
 2534POPC   C4A34134  24.456  32.229   7.664
 2534POPC   C1B34135  24.242  32.125   8.564
 2534POPC   C2B34136  24.231  32.141   8.264
 2534POPC   C3B34137  24.251  32.193   7.964
 2534POPC   C4B34138  24.232  32.187   7.664
 2535POPC   NC334139  32.289  42.353   9.464
 2535POPC   PO434140  32.278  42.351   9.164
 2535POPC   GL134141  32.267  42.383   8.864
 2535POPC   GL234142  32.152  42.226   8.864
 2535POPC   C1A34143  32.220  42.375   8.564
 2535POPC   D2A34144  32.235  42.334   8.264
 2535POPC   C3A34145  32.262  42.376   7.964
 2535POPC   C4A34146  32.297  42.321   7.664
 2535POPC   C1B34147  32.141  42.065   8.564
 2535POPC   C2B34148  32.127  42.074   8.264
 2535POPC   C3B34149  32.128  42.138   7.964
 2535POPC   C4B34150  32.117  42.056   7.664
 2536POPC   NC334151  29.114  35.331   9.464
 2536POPC   PO434152  29.166  35.337   9.164
 2536POPC   GL134153  29.120  35.307   8.864
 2536POPC   GL234154  29.125  35.272   8.864
 2536POPC   C1A34155  29.134  35.341   8.564
 2536POPC   D2A34156  29.117  35.330   8.264
 2536POPC   C3A34157  29.160  35.396   7.964
 2536POPC   C4A34158  29.129  35.365   7.664
 2536POPC   C1B34159  29.229  35.068   8.564
 2536POPC   C2B34160  29.173  35.083   8.264
 2536POPC   C3B34161  29.218  35.067   7.964
 2536POPC   C4B34162  29.221  35.090   7.664
 2537POPC   NC334163  12.874  44.612   9.464
 2537POPC   PO434164  12.824  44.619   9.164
 2537POPC   GL134165  12.860  44.650   8.864
 2537POPC   GL234166  12.816  44.497   8.864
 2537POPC   C1A34167  12.817  44.657   8.564
 2537POPC   D2A34168  12.854  44.680   8.264
 2537POPC   C3A34169  12.901  44.657   7.964
 2537POPC   C4A34170  12.892  44.650   7.664
 2537POPC   C1B34171  12.871  44.422   8.564
 2537POPC   C2B34172  12.873  44.428   8.264
 2537POPC   C3B34173  12.822  44.412   7.964
 2537POPC   C4B34174  12.905  44.400   7.664
 2538POPC   NC334175   2.775  37.689   9.464
 2538POPC   PO434176   2.748  37.658   9.164
 2538POPC   GL134177   2.743  37.714   8.864
 2538POPC   GL234178   2.628  37.739   8.864
 2538POPC   C1A34179   2.793  37.689   8.564
 2538POPC   D2A34180   2.762  37.689   8.264
 2538POPC   C3A34181   2.785  37.674   7.964
 2538POPC   C4A34182   2.790  37.708   7.664
 2538POPC   C1B34183   2.586  37.804   8.564
 2538POPC   C2B34184   2.505  37.763   8.264
 2538POPC   C3B34185   2.551  37.815   7.964
 2538POPC   C4B34186   2.500  37.786   7.664
 2539POPC   NC334187  38.442  39.203   9.464
 2539POPC   PO434188  38.505  39.233   9.164
 2539POPC   GL134189  38.431  39.188   8.864
 2539POPC   GL234190  38.352  39.242   8.864
 2539POPC   C1A34191  38.456  39.202   8.564
 2539POPC   D2A34192  38.485  39.204   8.264
 2539POPC   C3A34193  38.499  39.270   7.964
 2539POPC   C4A34194  38.484  39.213   7.664
 2539POPC   C1B34195  38.237  39.181   8.564
 2539POPC   C2B34196  38.236  39.240   8.264
 2539POPC   C3B34197  38.162  39.220   7.964
 2539POPC   C4B34198  38.202  39.178   7.664
 2540POPC   NC334199  31.480  13.625   9.464
 2540POPC   PO434200  31.482  13.662   9.164
 2540POPC   GL134201  31.437  13.592   8.864
 2540POPC   GL234202  31.541  13.595   8.864
 2540POPC   C1A34203  31.469  13.619   8.564
 2540POPC   D2A34204  31.463  13.626   8.264
 2540POPC   C3A34205  31.426  13.617   7.964
 2540POPC   C4A34206  31.450  13.596   7.664
 2540POPC   C1B34207  31.697  13.482   8.564
 2540POPC   C2B34208  31.743  13.517   8.264
 2540POPC   C3B34209  31.657  13.526   7.964
 2540POPC   C4B34210  31.707  13.514   7.664
 2541POPC   NC334211   2.812  36.862   9.464
 2541POPC   PO434212   2.814  36.861   9.164
 2541POPC   GL134213   2.722  36.949   8.864
 2541POPC   GL234214   2.776  36.805   8.864
 2541POPC   C1A34215   2.791  36.899   8.564
 2541POPC   D2A34216   2.760  36.913   8.264
 2541POPC   C3A34217   2.814  36.857   7.964
 2541POPC   C4A34218   2.779  36.887   7.664
 2541POPC   C1B34219   2.776  36.661   8.564
 2541POPC   C2B34220   2.753  36.648   8.264
 2541POPC   C3B34221   2.797  36.615   7.964
 2541POPC   C4B34222   2.792  36.673   7.664
 2542POPC   NC334223  23.687  19.033   9.464
 2542POPC   PO434224  23.686  19.085   9.164
 2542POPC   GL134225  23.671  19.054   8.864
 2542POPC   GL234226  23.825  19.056   8.864
 2542POPC   C1A34227  23.746  19.089   8.564
 2542POPC   D2A34228  23.761  19.053   8.264
 2542POPC   C3A34229  23.745  19.010   7.964
 2542POPC   C4A34230  23.740  19.017   7.664
 2542POPC   C1B34231  23.976  19.001   8.564
 2542POPC   C2B34232  23.976  18.948   8.264
 2542POPC   C3B34233  23.998  18.980   7.964
 2542POPC   C4B34234  23.997  18.952   7.664
 2543POPC   NC334235   3.586  14.386   9.464
 2543POPC   PO434236   3.575  14.361   9.164
 2543POPC   GL134237   3.511  14.449   8.864
 2543POPC   GL234238   3.644  14.483   8.864
 2543POPC   C1A34239   3.559  14.391   8.564
 2543POPC   D2A34240   3.495  14.445   8.264
 2543POPC   C3A34241   3.515  14.380   7.964
 2543POPC   C4A34242   3.500  14.401   7.664
 2543POPC   C1B34243   3.791  14.463   8.564
 2543POPC   C2B34244   3.754  14.507   8.264
 2543POPC   C3B34245   3.775  14.494   7.964
 2543POPC   C4B34246   3.773  14.530   7.664
 2544POPC   NC334247  31.425   9.717   9.464
 2544POPC   PO434248  31.469   9.755   9.164
 2544POPC   GL134249  31.492   9.749   8.864
 2544POPC   GL234250  31.420   9.575   8.864
 2544POPC   C1A34251  31.433   9.744   8.564
 2544POPC   D2A34252  31.495   9.786   8.264
 2544POPC   C3A34253  31.507   9.768   7.964
 2544POPC   C4A34254  31.497   9.716   7.664
 2544POPC   C1B34255  31.438   9.533   8.564
 2544POPC   C2B34256  31.487   9.468   8.264
 2544POPC   C3B34257  31.416   9.453   7.964
 2544POPC   C4B34258  31.485   9.482   7.664
 2545POPC   NC334259   5.883  15.172   9.464
 2545POPC   PO434260   5.823  15.182   9.164
 2545POPC   GL134261   5.821  15.170   8.864
 2545POPC   GL234262   5.935  15.260   8.864
 2545POPC   C1A34263   5.862  15.208   8.564
 2545POPC   D2A34264   5.871  15.223   8.264
 2545POPC   C3A34265   5.847  15.148   7.964
 2545POPC   C4A34266   5.905  15.209   7.664
 2545POPC   C1B34267   5.979  15.416   8.564
 2545POPC   C2B34268   6.042  15.384   8.264
 2545POPC   C3B34269   5.968  15.418   7.964
 2545POPC   C4B34270   6.031  15.402   7.664
 2546POPC   NC334271  20.571  10.515   9.464
 2546POPC   PO434272  20.562  10.556   9.164
 2546POPC   GL134273  20.609  10.506   8.864
 2546POPC   GL234274  20.575  10.427   8.864
 2546POPC   C1A34275  20.602  10.517   8.564
 2546POPC   D2A34276  20.631  10.517   8.264
 2546POPC   C3A34277  20.632  10.474   7.964
 2546POPC   C4A34278  20.599  10.508   7.664
 2546POPC   C1B34279  20.589  10.317   8.564
 2546POPC   C2B34280  20.584  10.264   8.264
 2546POPC   C3B34281  20.570  10.307   7.964
 2546POPC   C4B34282  20.600  10.252   7.664
 2547POPC   NC334283  41.558  36.945   9.464
 2547POPC   PO434284  41.579  36.928   9.164
 2547POPC   GL134285  41.517  36.909   8.864
 2547POPC   GL234286  41.443  36.935   8.864
 2547POPC   C1A34287  41.591  36.906   8.564
 2547POPC   D2A34288  41.584  36.858   8.264
 2547POPC   C3A34289  41.606  36.871   7.964
 2547POPC   C4A34290  41.555  36.898   7.664
 2547POPC   C1B34291  41.273  36.909   8.564
 2547POPC   C2B34292  41.317  36.936   8.264
 2547POPC   C3B34293  41.292  36.922   7.964
 2547POPC   C4B34294  41.359  36.907   7.664
 2548POPC   NC334295  26.012  39.251   9.464
 2548POPC   PO434296  26.045  39.193   9.164
 2548POPC   GL134297  26.031  39.215   8.864
 2548POPC   GL234298  26.077  39.076   8.864
 2548POPC   C1A34299  26.040  39.221   8.564
 2548POPC   D2A34300  26.045  39.203   8.264
 2548POPC   C3A34301  26.046  39.247   7.964
 2548POPC   C4A34302  26.009  39.235   7.664
 2548POPC   C1B34303  26.112  39.042   8.564
 2548POPC   C2B34304  26.163  38.956   8.264
 2548POPC   C3B34305  26.089  38.949   7.964
 2548POPC   C4B34306  26.136  39.036   7.664
 2549POPC   NC334307  20.571  11.253   9.464
 2549POPC   PO434308  20.595  11.324   9.164
 2549POPC   GL134309  20.570  11.340   8.864
 2549POPC   GL234310  20.605  11.192   8.864
 2549POPC   C1A34311  20.572  11.258   8.564
 2549POPC   D2A34312  20.640  11.299   8.264
 2549POPC   C3A34313  20.602  11.318   7.964
 2549POPC   C4A34314  20.610  11.262   7.664
 2549POPC   C1B34315  20.544  11.025   8.564
 2549POPC   C2B34316  20.509  11.080   8.264
 2549POPC   C3B34317  20.546  11.100   7.964
 2549POPC   C4B34318  20.489  11.057   7.664
 2550POPC   NC334319  29.126  43.856   9.464
 2550POPC   PO434320  29.156  43.901   9.164
 2550POPC   GL134321  29.140  43.882   8.864
 2550POPC   GL234322  29.016  43.782   8.864
 2550POPC   C1A34323  29.181  43.932   8.564
 2550POPC   D2A34324  29.193  43.910   8.264
 2550POPC   C3A34325  29.178  43.875   7.964
 2550POPC   C4A34326  29.131  43.926   7.664
 2550POPC   C1B34327  28.990  43.754   8.564
 2550POPC   C2B34328  28.951  43.669   8.264
 2550POPC   C3B34329  28.979  43.688   7.964
 2550POPC   C4B34330  28.970  43.671   7.664
 2551POPC   NC334331  41.526  20.595   9.464
 2551POPC   PO434332  41.555  20.604   9.164
 2551POPC   GL134333  41.556  20.659   8.864
 2551POPC   GL234334  41.452  20.651   8.864
 2551POPC   C1A34335  41.542  20.648   8.564
 2551POPC   D2A34336  41.530  20.646   8.264
 2551POPC   C3A34337  41.580  20.574   7.964
 2551POPC   C4A34338  41.510  20.583   7.664
 2551POPC   C1B34339  41.315  20.612   8.564
 2551POPC   C2B34340  41.312  20.636   8.264
 2551POPC   C3B34341  41.335  20.637   7.964
 2551POPC   C4B34342  41.295  20.606   7.664
 2552POPC   NC334343  36.155  41.572   9.464
 2552POPC   PO434344  36.151  41.594   9.164
 2552POPC   GL134345  36.155  41.518   8.864
 2552POPC   GL234346  36.101  41.727   8.864
 2552POPC   C1A34347  36.142  41.536   8.564
 2552POPC   D2A34348  36.114  41.564   8.264
 2552POPC   C3A34349  36.150  41.606   7.964
 2552POPC   C4A34350  36.108  41.571   7.664
 2552POPC   C1B34351  36.036  41.795   8.564
 2552POPC   C2B34352  36.043  41.798   8.264
 2552POPC   C3B34353  36.065  41.801   7.964
 2552POPC   C4B34354  36.065  41.789   7.664
 2553POPC   NC334355  26.867  37.690   9.464
 2553POPC   PO434356  26.837  37.629   9.164
 2553POPC   GL134357  26.834  37.635   8.864
 2553POPC   GL234358  26.714  37.615   8.864
 2553POPC   C1A34359  26.834  37.643   8.564
 2553POPC   D2A34360  26.813  37.673   8.264
 2553POPC   C3A34361  26.864  37.696   7.964
 2553POPC   C4A34362  26.801  37.680   7.664
 2553POPC   C1B34363  26.741  37.415   8.564
 2553POPC   C2B34364  26.699  37.437   8.264
 2553POPC   C3B34365  26.653  37.463   7.964
 2553POPC   C4B34366  26.733  37.469   7.664
 2554POPC   NC334367  39.266   3.513   9.464
 2554POPC   PO434368  39.260   3.510   9.164
 2554POPC   GL134369  39.202   3.567   8.864
 2554POPC   GL234370  39.202   3.405   8.864
 2554POPC   C1A34371  39.211   3.583   8.564
 2554POPC   D2A34372  39.235   3.504   8.264
 2554POPC   C3A34373  39.243   3.533   7.964
 2554POPC   C4A34374  39.255   3.574   7.664
 2554POPC   C1B34375  39.231   3.295   8.564
 2554POPC   C2B34376  39.269   3.252   8.264
 2554POPC   C3B34377  39.297   3.335   7.964
 2554POPC   C4B34378  39.248   3.280   7.664
 2555POPC   NC334379   1.949  27.591   9.464
 2555POPC   PO434380   2.039  27.625   9.164
 2555POPC   GL134381   1.957  27.589   8.864
 2555POPC   GL234382   1.859  27.734   8.864
 2555POPC   C1A34383   2.000  27.569   8.564
 2555POPC   D2A34384   2.018  27.577   8.264
 2555POPC   C3A34385   1.950  27.611   7.964
 2555POPC   C4A34386   1.995  27.553   7.664
 2555POPC   C1B34387   1.776  27.744   8.564
 2555POPC   C2B34388   1.778  27.732   8.264
 2555POPC   C3B34389   1.775  27.741   7.964
 2555POPC   C4B34390   1.817  27.799   7.664
 2556POPC   NC334391  25.287  30.741   9.464
 2556POPC   PO434392  25.274  30.655   9.164
 2556POPC   GL134393  25.311  30.658   8.864
 2556POPC   GL234394  25.158  30.624   8.864
 2556POPC   C1A34395  25.257  30.736   8.564
 2556POPC   D2A34396  25.238  30.725   8.264
 2556POPC   C3A34397  25.258  30.652   7.964
 2556POPC   C4A34398  25.271  30.714   7.664
 2556POPC   C1B34399  25.013  30.600   8.564
 2556POPC   C2B34400  25.020  30.678   8.264
 2556POPC   C3B34401  24.973  30.627   7.964
 2556POPC   C4B34402  25.049  30.625   7.664
 2557POPC   NC334403   2.018  18.304   9.464
 2557POPC   PO434404   2.001  18.292   9.164
 2557POPC   GL134405   1.982  18.319   8.864
 2557POPC   GL234406   1.889  18.404   8.864
 2557POPC   C1A34407   2.004  18.282   8.564
 2557POPC   D2A34408   2.030  18.280   8.264
 2557POPC   C3A34409   1.972  18.325   7.964
 2557POPC   C4A34410   1.999  18.300   7.664
 2557POPC   C1B34411   1.768  18.403   8.564
 2557POPC   C2B34412   1.787  18.442   8.264
 2557POPC   C3B34413   1.757  18.474   7.964
 2557POPC   C4B34414   1.800  18.415   7.664
 2558POPC   NC334415  44.707  32.205   9.464
 2558POPC   PO434416  44.703  32.245   9.164
 2558POPC   GL134417  44.623  32.212   8.864
 2558POPC   GL234418  44.833  32.259   8.864
 2558POPC   C1A34419  44.688  32.259   8.564
 2558POPC   D2A34420  44.626  32.251   8.264
 2558POPC   C3A34421  44.667  32.214   7.964
 2558POPC   C4A34422  44.629  32.267   7.664
 2558POPC   C1B34423  44.862  32.273   8.564
 2558POPC   C2B34424  44.907  32.181   8.264
 2558POPC   C3B34425  44.934  32.197   7.964
 2558POPC   C4B34426  44.861  32.257   7.664
 2559POPC   NC334427  36.894  32.997   9.464
 2559POPC   PO434428  36.879  33.060   9.164
 2559POPC   GL134429  36.939  32.979   8.864
 2559POPC   GL234430  36.820  32.931   8.864
 2559POPC   C1A34431  36.874  33.009   8.564
 2559POPC   D2A34432  36.864  33.042   8.264
 2559POPC   C3A34433  36.946  33.073   7.964
 2559POPC   C4A34434  36.941  33.062   7.664
 2559POPC   C1B34435  36.782  32.818   8.564
 2559POPC   C2B34436  36.801  32.828   8.264
 2559POPC   C3B34437  36.786  32.799   7.964
 2559POPC   C4B34438  36.797  32.758   7.664
 2560POPC   NC334439  35.355   6.646   9.464
 2560POPC   PO434440  35.323   6.680   9.164
 2560POPC   GL134441  35.331   6.645   8.864
 2560POPC   GL234442  35.243   6.679   8.864
 2560POPC   C1A34443  35.327   6.660   8.564
 2560POPC   D2A34444  35.316   6.636   8.264
 2560POPC   C3A34445  35.391   6.651   7.964
 2560POPC   C4A34446  35.335   6.673   7.664
 2560POPC   C1B34447  35.081   6.726   8.564
 2560POPC   C2B34448  35.128   6.676   8.264
 2560POPC   C3B34449  35.156   6.746   7.964
 2560POPC   C4B34450  35.115   6.743   7.664
 2561POPC   NC334451  33.002  35.346   9.464
 2561POPC   PO434452  33.025  35.304   9.164
 2561POPC   GL134453  33.036  35.317   8.864
 2561POPC   GL234454  32.901  35.394   8.864
 2561POPC   C1A34455  33.074  35.349   8.564
 2561POPC   D2A34456  33.002  35.353   8.264
 2561POPC   C3A34457  33.021  35.391   7.964
 2561POPC   C4A34458  33.065  35.331   7.664
 2561POPC   C1B34459  32.801  35.394   8.564
 2561POPC   C2B34460  32.747  35.333   8.264
 2561POPC   C3B34461  32.750  35.361   7.964
 2561POPC   C4B34462  32.808  35.381   7.664
 2562POPC   NC334463  27.592   9.701   9.464
 2562POPC   PO434464  27.640   9.770   9.164
 2562POPC   GL134465  27.555   9.749   8.864
 2562POPC   GL234466  27.638   9.587   8.864
 2562POPC   C1A34467  27.608   9.733   8.564
 2562POPC   D2A34468  27.600   9.788   8.264
 2562POPC   C3A34469  27.600   9.769   7.964
 2562POPC   C4A34470  27.592   9.709   7.664
 2562POPC   C1B34471  27.593   9.512   8.564
 2562POPC   C2B34472  27.605   9.455   8.264
 2562POPC   C3B34473  27.597   9.495   7.964
 2562POPC   C4B34474  27.606   9.508   7.664
 2563POPC   NC334475  39.242  40.760   9.464
 2563POPC   PO434476  39.247  40.742   9.164
 2563POPC   GL134477  39.258  40.758   8.864
 2563POPC   GL234478  39.296  40.709   8.864
 2563POPC   C1A34479  39.222  40.785   8.564
 2563POPC   D2A34480  39.199  40.810   8.264
 2563POPC   C3A34481  39.201  40.789   7.964
 2563POPC   C4A34482  39.222  40.737   7.664
 2563POPC   C1B34483  39.415  40.707   8.564
 2563POPC   C2B34484  39.415  40.678   8.264
 2563POPC   C3B34485  39.496  40.719   7.964
 2563POPC   C4B34486  39.504  40.706   7.664
 2564POPC   NC334487  14.451  18.327   9.464
 2564POPC   PO434488  14.365  18.306   9.164
 2564POPC   GL134489  14.363  18.253   8.864
 2564POPC   GL234490  14.314  18.363   8.864
 2564POPC   C1A34491  14.378  18.296   8.564
 2564POPC   D2A34492  14.453  18.316   8.264
 2564POPC   C3A34493  14.384  18.272   7.964
 2564POPC   C4A34494  14.448  18.259   7.664
 2564POPC   C1B34495  14.197  18.394   8.564
 2564POPC   C2B34496  14.129  18.436   8.264
 2564POPC   C3B34497  14.135  18.416   7.964
 2564POPC   C4B34498  14.128  18.405   7.664
 2565POPC   NC334499  25.308  12.056   9.464
 2565POPC   PO434500  25.218  12.107   9.164
 2565POPC   GL134501  25.294  12.075   8.864
 2565POPC   GL234502  25.366  12.157   8.864
 2565POPC   C1A34503  25.223  12.047   8.564
 2565POPC   D2A34504  25.232  12.078   8.264
 2565POPC   C3A34505  25.280  12.052   7.964
 2565POPC   C4A34506  25.314  12.051   7.664
 2565POPC   C1B34507  25.404  12.265   8.564
 2565POPC   C2B34508  25.453  12.268   8.264
 2565POPC   C3B34509  25.412  12.236   7.964
 2565POPC   C4B34510  25.430  12.231   7.664
 2566POPC   NC334511  29.172  24.494   9.464
 2566POPC   PO434512  29.102  24.488   9.164
 2566POPC   GL134513  29.147  24.445   8.864
 2566POPC   GL234514  29.023  24.637   8.864
 2566POPC   C1A34515  29.178  24.532   8.564
 2566POPC   D2A34516  29.154  24.518   8.264
 2566POPC   C3A34517  29.167  24.538   7.964
 2566POPC   C4A34518  29.148  24.498   7.664
 2566POPC   C1B34519  29.002  24.705   8.564
 2566POPC   C2B34520  29.041  24.664   8.264
 2566POPC   C3B34521  28.979  24.660   7.964
 2566POPC   C4B34522  29.037  24.714   7.664
 2567POPC   NC334523  38.411  26.065   9.464
 2567POPC   PO434524  38.461  26.053   9.164
 2567POPC   GL134525  38.470  26.014   8.864
 2567POPC   GL234526  38.400  26.143   8.864
 2567POPC   C1A34527  38.452  26.069   8.564
 2567POPC   D2A34528  38.494  26.077   8.264
 2567POPC   C3A34529  38.494  26.081   7.964
 2567POPC   C4A34530  38.475  25.992   7.664
 2567POPC   C1B34531  38.438  26.335   8.564
 2567POPC   C2B34532  38.389  26.322   8.264
 2567POPC   C3B34533  38.448  26.249   7.964
 2567POPC   C4B34534  38.410  26.313   7.664
 2568POPC   NC334535  42.348  42.378   9.464
 2568POPC   PO434536  42.289  42.311   9.164
 2568POPC   GL134537  42.333  42.360   8.864
 2568POPC   GL234538  42.388  42.258   8.864
 2568POPC   C1A34539  42.285  42.302   8.564
 2568POPC   D2A34540  42.319  42.295   8.264
 2568POPC   C3A34541  42.291  42.323   7.964
 2568POPC   C4A34542  42.318  42.293   7.664
 2568POPC   C1B34543  42.441  42.059   8.564
 2568POPC   C2B34544  42.402  42.107   8.264
 2568POPC   C3B34545  42.386  42.086   7.964
 2568POPC   C4B34546  42.404  42.049   7.664
 2569POPC   NC334547  29.181  41.535   9.464
 2569POPC   PO434548  29.181  41.603   9.164
 2569POPC   GL134549  29.101  41.511   8.864
 2569POPC   GL234550  29.264  41.591   8.864
 2569POPC   C1A34551  29.111  41.520   8.564
 2569POPC   D2A34552  29.176  41.516   8.264
 2569POPC   C3A34553  29.172  41.568   7.964
 2569POPC   C4A34554  29.109  41.568   7.664
 2569POPC   C1B34555  29.346  41.554   8.564
 2569POPC   C2B34556  29.414  41.576   8.264
 2569POPC   C3B34557  29.430  41.550   7.964
 2569POPC   C4B34558  29.364  41.487   7.664
 2570POPC   NC334559   2.807   3.520   9.464
 2570POPC   PO434560   2.781   3.551   9.164
 2570POPC   GL134561   2.800   3.538   8.864
 2570POPC   GL234562   2.739   3.693   8.864
 2570POPC   C1A34563   2.808   3.567   8.564
 2570POPC   D2A34564   2.716   3.507   8.264
 2570POPC   C3A34565   2.730   3.577   7.964
 2570POPC   C4A34566   2.774   3.568   7.664
 2570POPC   C1B34567   2.731   3.800   8.564
 2570POPC   C2B34568   2.745   3.789   8.264
 2570POPC   C3B34569   2.787   3.791   7.964
 2570POPC   C4B34570   2.814   3.757   7.664
 2571POPC   NC334571  16.754  33.072   9.464
 2571POPC   PO434572  16.688  33.012   9.164
 2571POPC   GL134573  16.732  32.997   8.864
 2571POPC   GL234574  16.698  32.933   8.864
 2571POPC   C1A34575  16.760  32.991   8.564
 2571POPC   D2A34576  16.694  33.007   8.264
 2571POPC   C3A34577  16.730  33.050   7.964
 2571POPC   C4A34578  16.720  33.008   7.664
 2571POPC   C1B34579  16.630  32.798   8.564
 2571POPC   C2B34580  16.614  32.774   8.264
 2571POPC   C3B34581  16.619  32.799   7.964
 2571POPC   C4B34582  16.593  32.795   7.664
 2572POPC   NC334583  43.114  33.750   9.464
 2572POPC   PO434584  43.118  33.848   9.164
 2572POPC   GL134585  43.145  33.815   8.864
 2572POPC   GL234586  43.251  33.801   8.864
 2572POPC   C1A34587  43.156  33.769   8.564
 2572POPC   D2A34588  43.120  33.828   8.264
 2572POPC   C3A34589  43.128  33.761   7.964
 2572POPC   C4A34590  43.089  33.781   7.664
 2572POPC   C1B34591  43.361  33.886   8.564
 2572POPC   C2B34592  43.316  33.882   8.264
 2572POPC   C3B34593  43.359  33.898   7.964
 2572POPC   C4B34594  43.322  33.897   7.664
 2573POPC   NC334595   8.977  41.567   9.464
 2573POPC   PO434596   8.971  41.538   9.164
 2573POPC   GL134597   8.961  41.573   8.864
 2573POPC   GL234598   8.838  41.506   8.864
 2573POPC   C1A34599   9.022  41.599   8.564
 2573POPC   D2A34600   8.937  41.547   8.264
 2573POPC   C3A34601   9.015  41.598   7.964
 2573POPC   C4A34602   8.942  41.580   7.664
 2573POPC   C1B34603   8.752  41.513   8.564
 2573POPC   C2B34604   8.713  41.534   8.264
 2573POPC   C3B34605   8.732  41.550   7.964
 2573POPC   C4B34606   8.714  41.538   7.664
 2574POPC   NC334607  29.872   2.014   9.464
 2574POPC   PO434608  29.873   1.967   9.164
 2574POPC   GL134609  29.930   1.992   8.864
 2574POPC   GL234610  29.821   2.055   8.864
 2574POPC   C1A34611  29.876   1.982   8.564
 2574POPC   D2A34612  29.955   2.008   8.264
 2574POPC   C3A34613  29.944   2.017   7.964
 2574POPC   C4A34614  29.963   1.973   7.664
 2574POPC   C1B34615  29.682   2.084   8.564
 2574POPC   C2B34616  29.657   2.087   8.264
 2574POPC   C3B34617  29.716   2.011   7.964
 2574POPC   C4B34618  29.686   2.071   7.664
 2575POPC   NC334619  43.106  17.546   9.464
 2575POPC   PO434620  43.096  17.537   9.164
 2575POPC   GL134621  43.087  17.537   8.864
 2575POPC   GL234622  42.976  17.426   8.864
 2575POPC   C1A34623  43.113  17.547   8.564
 2575POPC   D2A34624  43.101  17.493   8.264
 2575POPC   C3A34625  43.153  17.544   7.964
 2575POPC   C4A34626  43.105  17.502   7.664
 2575POPC   C1B34627  42.846  17.428   8.564
 2575POPC   C2B34628  42.839  17.375   8.264
 2575POPC   C3B34629  42.830  17.384   7.964
 2575POPC   C4B34630  42.840  17.462   7.664
 2576POPC   NC334631  11.330  32.245   9.464
 2576POPC   PO434632  11.291  32.278   9.164
 2576POPC   GL134633  11.333  32.244   8.864
 2576POPC   GL234634  11.142  32.267   8.864
 2576POPC   C1A34635  11.334  32.277   8.564
 2576POPC   D2A34636  11.295  32.253   8.264
 2576POPC   C3A34637  11.348  32.287   7.964
 2576POPC   C4A34638  11.339  32.262   7.664
 2576POPC   C1B34639  11.079  32.265   8.564
 2576POPC   C2B34640  11.016  32.341   8.264
 2576POPC   C3B34641  11.026  32.285   7.964
 2576POPC   C4B34642  11.021  32.244   7.664
 2577POPC   NC334643  17.544  27.604   9.464
 2577POPC   PO434644  17.549  27.580   9.164
 2577POPC   GL134645  17.509  27.606   8.864
 2577POPC   GL234646  17.633  27.668   8.864
 2577POPC   C1A34647  17.468  27.635   8.564
 2577POPC   D2A34648  17.549  27.597   8.264
 2577POPC   C3A34649  17.538  27.558   7.964
 2577POPC   C4A34650  17.513  27.618   7.664
 2577POPC   C1B34651  17.730  27.672   8.564
 2577POPC   C2B34652  17.759  27.661   8.264
 2577POPC   C3B34653  17.753  27.620   7.964
 2577POPC   C4B34654  17.716  27.627   7.664
 2578POPC   NC334655  10.558  33.827   9.464
 2578POPC   PO434656  10.508  33.800   9.164
 2578POPC   GL134657  10.529  33.814   8.864
 2578POPC   GL234658  10.523  33.677   8.864
 2578POPC   C1A34659  10.546  33.756   8.564
 2578POPC   D2A34660  10.543  33.803   8.264
 2578POPC   C3A34661  10.566  33.827   7.964
 2578POPC   C4A34662  10.485  33.830   7.664
 2578POPC   C1B34663  10.545  33.537   8.564
 2578POPC   C2B34664  10.495  33.599   8.264
 2578POPC   C3B34665  10.491  33.575   7.964
 2578POPC   C4B34666  10.580  33.563   7.664
 2579POPC   NC334667  17.494  33.832   9.464
 2579POPC   PO434668  17.544  33.833   9.164
 2579POPC   GL134669  17.502  33.814   8.864
 2579POPC   GL234670  17.586  33.672   8.864
 2579POPC   C1A34671  17.478  33.775   8.564
 2579POPC   D2A34672  17.539  33.765   8.264
 2579POPC   C3A34673  17.482  33.798   7.964
 2579POPC   C4A34674  17.492  33.806   7.664
 2579POPC   C1B34675  17.614  33.562   8.564
 2579POPC   C2B34676  17.545  33.566   8.264
 2579POPC   C3B34677  17.559  33.575   7.964
 2579POPC   C4B34678  17.564  33.563   7.664
 2580POPC   NC334679  12.045  31.460   9.464
 2580POPC   PO434680  12.097  31.500   9.164
 2580POPC   GL134681  12.116  31.482   8.864
 2580POPC   GL234682  11.932  31.506   8.864
 2580POPC   C1A34683  12.080  31.445   8.564
 2580POPC   D2A34684  12.087  31.424   8.264
 2580POPC   C3A34685  12.064  31.437   7.964
 2580POPC   C4A34686  12.074  31.461   7.664
 2580POPC   C1B34687  11.874  31.463   8.564
 2580POPC   C2B34688  11.869  31.490   8.264
 2580POPC   C3B34689  11.788  31.466   7.964
 2580POPC   C4B34690  11.813  31.426   7.664
 2581POPC   NC334691   0.430  42.295   9.464
 2581POPC   PO434692   0.420  42.317   9.164
 2581POPC   GL134693   0.428  42.372   8.864
 2581POPC   GL234694   0.574  42.439   8.864
 2581POPC   C1A34695   0.423  42.293   8.564
 2581POPC   D2A34696   0.456  42.357   8.264
 2581POPC   C3A34697   0.464  42.379   7.964
 2581POPC   C4A34698   0.428  42.362   7.664
 2581POPC   C1B34699   0.608  42.452   8.564
 2581POPC   C2B34700   0.629  42.525   8.264
 2581POPC   C3B34701   0.682  42.440   7.964
 2581POPC   C4B34702   0.615  42.427   7.664
 2582POPC   NC334703  10.555  20.571   9.464
 2582POPC   PO434704  10.569  20.601   9.164
 2582POPC   GL134705  10.567  20.645   8.864
 2582POPC   GL234706  10.388  20.585   8.864
 2582POPC   C1A34707  10.518  20.592   8.564
 2582POPC   D2A34708  10.486  20.627   8.264
 2582POPC   C3A34709  10.525  20.613   7.964
 2582POPC   C4A34710  10.553  20.641   7.664
 2582POPC   C1B34711  10.330  20.471   8.564
 2582POPC   C2B34712  10.298  20.469   8.264
 2582POPC   C3B34713  10.286  20.482   7.964
 2582POPC   C4B34714  10.278  20.517   7.664
 2583POPC   NC334715  43.073  26.001   9.464
 2583POPC   PO434716  43.103  26.002   9.164
 2583POPC   GL134717  43.147  26.059   8.864
 2583POPC   GL234718  43.002  26.045   8.864
 2583POPC   C1A34719  43.145  26.079   8.564
 2583POPC   D2A34720  43.127  26.054   8.264
 2583POPC   C3A34721  43.066  26.050   7.964
 2583POPC   C4A34722  43.110  26.090   7.664
 2583POPC   C1B34723  42.861  26.062   8.564
 2583POPC   C2B34724  42.829  26.134   8.264
 2583POPC   C3B34725  42.911  26.115   7.964
 2583POPC   C4B34726  42.821  26.084   7.664
 2584POPC   NC334727  26.800  18.263   9.464
 2584POPC   PO434728  26.791  18.278   9.164
 2584POPC   GL134729  26.825  18.317   8.864
 2584POPC   GL234730  26.742  18.212   8.864
 2584POPC   C1A34731  26.787  18.245   8.564
 2584POPC   D2A34732  26.790  18.300   8.264
 2584POPC   C3A34733  26.855  18.327   7.964
 2584POPC   C4A34734  26.775  18.237   7.664
 2584POPC   C1B34735  26.676  18.089   8.564
 2584POPC   C2B34736  26.770  18.101   8.264
 2584POPC   C3B34737  26.768  18.014   7.964
 2584POPC   C4B34738  26.682  18.020   7.664
 2585POPC   NC334739   0.458   9.760   9.464
 2585POPC   PO434740   0.477   9.721   9.164
 2585POPC   GL134741   0.460   9.712   8.864
 2585POPC   GL234742   0.590   9.806   8.864
 2585POPC   C1A34743   0.447   9.795   8.564
 2585POPC   D2A34744   0.437   9.770   8.264
 2585POPC   C3A34745   0.429   9.781   7.964
 2585POPC   C4A34746   0.454   9.768   7.664
 2585POPC   C1B34747   0.698   9.864   8.564
 2585POPC   C2B34748   0.624   9.855   8.264
 2585POPC   C3B34749   0.684   9.872   7.964
 2585POPC   C4B34750   0.659   9.845   7.664
 2586POPC   NC334751  23.672  18.233   9.464
 2586POPC   PO434752  23.669  18.316   9.164
 2586POPC   GL134753  23.751  18.235   8.864
 2586POPC   GL234754  23.876  18.187   8.864
 2586POPC   C1A34755  23.665  18.284   8.564
 2586POPC   D2A34756  23.670  18.307   8.264
 2586POPC   C3A34757  23.713  18.289   7.964
 2586POPC   C4A34758  23.743  18.276   7.664
 2586POPC   C1B34759  23.994  18.206   8.564
 2586POPC   C2B34760  23.940  18.173   8.264
 2586POPC   C3B34761  23.904  18.229   7.964
 2586POPC   C4B34762  23.973  18.202   7.664
 2587POPC   NC334763  22.205  29.941   9.464
 2587POPC   PO434764  22.203  29.901   9.164
 2587POPC   GL134765  22.114  29.887   8.864
 2587POPC   GL234766  22.106  29.833   8.864
 2587POPC   C1A34767  22.206  29.956   8.564
 2587POPC   D2A34768  22.156  29.890   8.264
 2587POPC   C3A34769  22.138  29.913   7.964
 2587POPC   C4A34770  22.168  29.873   7.664
 2587POPC   C1B34771  21.973  29.802   8.564
 2587POPC   C2B34772  21.953  29.763   8.264
 2587POPC   C3B34773  21.941  29.728   7.964
 2587POPC   C4B34774  21.915  29.799   7.664
 2588POPC   NC334775  15.151   4.361   9.464
 2588POPC   PO434776  15.226   4.301   9.164
 2588POPC   GL134777  15.181   4.345   8.864
 2588POPC   GL234778  15.108   4.237   8.864
 2588POPC   C1A34779  15.182   4.270   8.564
 2588POPC   D2A34780  15.209   4.269   8.264
 2588POPC   C3A34781  15.190   4.276   7.964
 2588POPC   C4A34782  15.223   4.339   7.664
 2588POPC   C1B34783  14.999   4.177   8.564
 2588POPC   C2B34784  14.917   4.160   8.264
 2588POPC   C3B34785  14.928   4.182   7.964
 2588POPC   C4B34786  14.909   4.166   7.664
 2589POPC   NC334787  35.360  13.646   9.464
 2589POPC   PO434788  35.344  13.612   9.164
 2589POPC   GL134789  35.349  13.663   8.864
 2589POPC   GL234790  35.208  13.647   8.864
 2589POPC   C1A34791  35.308  13.640   8.564
 2589POPC   D2A34792  35.375  13.619   8.264
 2589POPC   C3A34793  35.344  13.653   7.964
 2589POPC   C4A34794  35.319  13.667   7.664
 2589POPC   C1B34795  35.157  13.683   8.564
 2589POPC   C2B34796  35.105  13.773   8.264
 2589POPC   C3B34797  35.123  13.704   7.964
 2589POPC   C4B34798  35.149  13.703   7.664
 2590POPC   NC334799  21.352  33.773   9.464
 2590POPC   PO434800  21.397  33.841   9.164
 2590POPC   GL134801  21.408  33.826   8.864
 2590POPC   GL234802  21.476  33.745   8.864
 2590POPC   C1A34803  21.392  33.848   8.564
 2590POPC   D2A34804  21.422  33.805   8.264
 2590POPC   C3A34805  21.400  33.789   7.964
 2590POPC   C4A34806  21.377  33.840   7.664
 2590POPC   C1B34807  21.552  33.587   8.564
 2590POPC   C2B34808  21.597  33.610   8.264
 2590POPC   C3B34809  21.606  33.590   7.964
 2590POPC   C4B34810  21.544  33.610   7.664
 2591POPC   NC334811  27.587   3.542   9.464
 2591POPC   PO434812  27.630   3.492   9.164
 2591POPC   GL134813  27.568   3.558   8.864
 2591POPC   GL234814  27.490   3.658   8.864
 2591POPC   C1A34815  27.620   3.521   8.564
 2591POPC   D2A34816  27.589   3.589   8.264
 2591POPC   C3A34817  27.604   3.531   7.964
 2591POPC   C4A34818  27.605   3.547   7.664
 2591POPC   C1B34819  27.413   3.711   8.564
 2591POPC   C2B34820  27.402   3.697   8.264
 2591POPC   C3B34821  27.381   3.694   7.964
 2591POPC   C4B34822  27.415   3.680   7.664
 2592POPC   NC334823   9.723  29.906   9.464
 2592POPC   PO434824   9.791  29.883   9.164
 2592POPC   GL134825   9.700  29.958   8.864
 2592POPC   GL234826   9.713  30.047   8.864
 2592POPC   C1A34827   9.729  29.896   8.564
 2592POPC   D2A34828   9.765  29.889   8.264
 2592POPC   C3A34829   9.705  29.951   7.964
 2592POPC   C4A34830   9.705  29.896   7.664
 2592POPC   C1B34831   9.620  30.116   8.564
 2592POPC   C2B34832   9.598  30.087   8.264
 2592POPC   C3B34833   9.552  30.131   7.964
 2592POPC   C4B34834   9.547  30.105   7.664
 2593POPC   NC334835  13.670  35.322   9.464
 2593POPC   PO434836  13.669  35.371   9.164
 2593POPC   GL134837  13.639  35.369   8.864
 2593POPC   GL234838  13.735  35.402   8.864
 2593POPC   C1A34839  13.618  35.399   8.564
 2593POPC   D2A34840  13.662  35.341   8.264
 2593POPC   C3A34841  13.590  35.376   7.964
 2593POPC   C4A34842  13.599  35.375   7.664
 2593POPC   C1B34843  13.909  35.376   8.564
 2593POPC   C2B34844  13.865  35.354   8.264
 2593POPC   C3B34845  13.862  35.334   7.964
 2593POPC   C4B34846  13.886  35.398   7.664
 2594POPC   NC334847  11.325  42.306   9.464
 2594POPC   PO434848  11.256  42.303   9.164
 2594POPC   GL134849  11.322  42.315   8.864
 2594POPC   GL234850  11.266  42.463   8.864
 2594POPC   C1A34851  11.324  42.379   8.564
 2594POPC   D2A34852  11.264  42.360   8.264
 2594POPC   C3A34853  11.257  42.290   7.964
 2594POPC   C4A34854  11.279  42.378   7.664
 2594POPC   C1B34855  11.290  42.610   8.564
 2594POPC   C2B34856  11.350  42.585   8.264
 2594POPC   C3B34857  11.310  42.631   7.964
 2594POPC   C4B34858  11.288  42.599   7.664
 2595POPC   NC334859  13.632  33.791   9.464
 2595POPC   PO434860  13.597  33.840   9.164
 2595POPC   GL134861  13.625  33.753   8.864
 2595POPC   GL234862  13.474  33.860   8.864
 2595POPC   C1A34863  13.650  33.843   8.564
 2595POPC   D2A34864  13.645  33.798   8.264
 2595POPC   C3A34865  13.583  33.826   7.964
 2595POPC   C4A34866  13.626  33.795   7.664
 2595POPC   C1B34867  13.391  33.880   8.564
 2595POPC   C2B34868  13.397  33.833   8.264
 2595POPC   C3B34869  13.361  33.843   7.964
 2595POPC   C4B34870  13.427  33.863   7.664
 2596POPC   NC334871   3.502  22.113   9.464
 2596POPC   PO434872   3.590  22.148   9.164
 2596POPC   GL134873   3.523  22.158   8.864
 2596POPC   GL234874   3.558  22.022   8.864
 2596POPC   C1A34875   3.542  22.179   8.564
 2596POPC   D2A34876   3.547  22.139   8.264
 2596POPC   C3A34877   3.512  22.126   7.964
 2596POPC   C4A34878   3.576  22.164   7.664
 2596POPC   C1B34879   3.570  21.939   8.564
 2596POPC   C2B34880   3.625  21.935   8.264
 2596POPC   C3B34881   3.584  21.885   7.964
 2596POPC   C4B34882   3.617  21.914   7.664
 2597POPC   NC334883   2.718  40.830   9.464
 2597POPC   PO434884   2.795  40.740   9.164
 2597POPC   GL134885   2.738  40.804   8.864
 2597POPC   GL234886   2.890  40.867   8.864
 2597POPC   C1A34887   2.760  40.808   8.564
 2597POPC   D2A34888   2.750  40.762   8.264
 2597POPC   C3A34889   2.716  40.739   7.964
 2597POPC   C4A34890   2.782  40.805   7.664
 2597POPC   C1B34891   3.003  40.964   8.564
 2597POPC   C2B34892   2.929  40.957   8.264
 2597POPC   C3B34893   3.016  40.960   7.964
 2597POPC   C4B34894   2.952  40.928   7.664
 2598POPC   NC334895  38.455  31.465   9.464
 2598POPC   PO434896  38.504  31.449   9.164
 2598POPC   GL134897  38.420  31.482   8.864
 2598POPC   GL234898  38.460  31.603   8.864
 2598POPC   C1A34899  38.502  31.437   8.564
 2598POPC   D2A34900  38.434  31.447   8.264
 2598POPC   C3A34901  38.412  31.506   7.964
 2598POPC   C4A34902  38.451  31.438   7.664
 2598POPC   C1B34903  38.437  31.711   8.564
 2598POPC   C2B34904  38.426  31.692   8.264
 2598POPC   C3B34905  38.401  31.685   7.964
 2598POPC   C4B34906  38.366  31.718   7.664
 2599POPC   NC334907  19.854   0.427   9.464
 2599POPC   PO434908  19.816   0.460   9.164
 2599POPC   GL134909  19.883   0.480   8.864
 2599POPC   GL234910  19.990   0.462   8.864
 2599POPC   C1A34911  19.863   0.424   8.564
 2599POPC   D2A34912  19.816   0.414   8.264
 2599POPC   C3A34913  19.796   0.425   7.964
 2599POPC   C4A34914  19.804   0.434   7.664
 2599POPC   C1B34915  20.068   0.590   8.564
 2599POPC   C2B34916  20.047   0.612   8.264
 2599POPC   C3B34917  20.058   0.550   7.964
 2599POPC   C4B34918  20.026   0.575   7.664
 2600POPC   NC334919  22.209  24.463   9.464
 2600POPC   PO434920  22.156  24.504   9.164
 2600POPC   GL134921  22.137  24.509   8.864
 2600POPC   GL234922  22.051  24.517   8.864
 2600POPC   C1A34923  22.130  24.450   8.564
 2600POPC   D2A34924  22.134  24.503   8.264
 2600POPC   C3A34925  22.126  24.484   7.964
 2600POPC   C4A34926  22.191  24.465   7.664
 2600POPC   C1B34927  21.964  24.577   8.564
 2600POPC   C2B34928  21.942  24.539   8.264
 2600POPC   C3B34929  21.922  24.555   7.964
 2600POPC   C4B34930  21.866  24.554   7.664
 2601POPC   NC334931  11.265  26.055   9.464
 2601POPC   PO434932  11.334  26.044   9.164
 2601POPC   GL134933  11.341  26.030   8.864
 2601POPC   GL234934  11.175  25.932   8.864
 2601POPC   C1A34935  11.343  26.087   8.564
 2601POPC   D2A34936  11.273  26.017   8.264
 2601POPC   C3A34937  11.304  26.084   7.964
 2601POPC   C4A34938  11.282  26.030   7.664
 2601POPC   C1B34939  11.109  25.861   8.564
 2601POPC   C2B34940  11.128  25.840   8.264
 2601POPC   C3B34941  11.139  25.856   7.964
 2601POPC   C4B34942  11.143  25.845   7.664
 2602POPC   NC334943  33.782   1.171   9.464
 2602POPC   PO434944  33.813   1.254   9.164
 2602POPC   GL134945  33.849   1.202   8.864
 2602POPC   GL234946  33.720   1.280   8.864
 2602POPC   C1A34947  33.800   1.251   8.564
 2602POPC   D2A34948  33.829   1.199   8.264
 2602POPC   C3A34949  33.789   1.204   7.964
 2602POPC   C4A34950  33.770   1.255   7.664
 2602POPC   C1B34951  33.650   1.456   8.564
 2602POPC   C2B34952  33.627   1.413   8.264
 2602POPC   C3B34953  33.665   1.370   7.964
 2602POPC   C4B34954  33.618   1.365   7.664
 2603POPC   NC334955   5.883  42.340   9.464
 2603POPC   PO434956   5.863  42.316   9.164
 2603POPC   GL134957   5.896  42.379   8.864
 2603POPC   GL234958   5.942  42.456   8.864
 2603POPC   C1A34959   5.889  42.296   8.564
 2603POPC   D2A34960   5.847  42.352   8.264
 2603POPC   C3A34961   5.863  42.340   7.964
 2603POPC   C4A34962   5.873  42.337   7.664
 2603POPC   C1B34963   6.070  42.555   8.564
 2603POPC   C2B34964   6.029  42.472   8.264
 2603POPC   C3B34965   6.053  42.543   7.964
 2603POPC   C4B34966   6.046  42.503   7.664
 2604POPC   NC334967  35.399   1.954   9.464
 2604POPC   PO434968  35.354   1.972   9.164
 2604POPC   GL134969  35.359   1.996   8.864
 2604POPC   GL234970  35.240   2.094   8.864
 2604POPC   C1A34971  35.378   2.024   8.564
 2604POPC   D2A34972  35.326   1.959   8.264
 2604POPC   C3A34973  35.336   1.976   7.964
 2604POPC   C4A34974  35.324   1.957   7.664
 2604POPC   C1B34975  35.179   2.096   8.564
 2604POPC   C2B34976  35.148   2.092   8.264
 2604POPC   C3B34977  35.185   2.101   7.964
 2604POPC   C4B34978  35.142   2.160   7.664
 2605POPC   NC334979  44.679  38.490   9.464
 2605POPC   PO434980  44.618  38.494   9.164
 2605POPC   GL134981  44.637  38.408   8.864
 2605POPC   GL234982  44.647  38.361   8.864
 2605POPC   C1A34983  44.703  38.454   8.564
 2605POPC   D2A34984  44.690  38.412   8.264
 2605POPC   C3A34985  44.658  38.430   7.964
 2605POPC   C4A34986  44.673  38.485   7.664
 2605POPC   C1B34987  44.573  38.272   8.564
 2605POPC   C2B34988  44.582  38.274   8.264
 2605POPC   C3B34989  44.604  38.256   7.964
 2605POPC   C4B34990  44.547  38.268   7.664
 2606POPC   NC334991  22.139  19.809   9.464
 2606POPC   PO434992  22.173  19.817   9.164
 2606POPC   GL134993  22.206  19.876   8.864
 2606POPC   GL234994  22.100  19.908   8.864
 2606POPC   C1A34995  22.153  19.872   8.564
 2606POPC   D2A34996  22.144  19.788   8.264
 2606POPC   C3A34997  22.154  19.884   7.964
 2606POPC   C4A34998  22.160  19.841   7.664
 2606POPC   C1B34999  22.068  20.032   8.564
 2606POPC   C2B35000  22.051  20.087   8.264
 2606POPC   C3B35001  22.074  20.099   7.964
 2606POPC   C4B35002  22.115  20.049   7.664
 2607POPC   NC335003  36.101  38.449   9.464
 2607POPC   PO435004  36.084  38.417   9.164
 2607POPC   GL135005  36.130  38.438   8.864
 2607POPC   GL235006  36.104  38.375   8.864
 2607POPC   C1A35007  36.131  38.466   8.564
 2607POPC   D2A35008  36.093  38.434   8.264
 2607POPC   C3A35009  36.113  38.429   7.964
 2607POPC   C4A35010  36.151  38.422   7.664
 2607POPC   C1B35011  36.107  38.212   8.564
 2607POPC   C2B35012  36.076  38.250   8.264
 2607POPC   C3B35013  36.021  38.210   7.964
 2607POPC   C4B35014  36.084  38.230   7.664
 2608POPC   NC335015  33.792  36.914   9.464
 2608POPC   PO435016  33.828  36.939   9.164
 2608POPC   GL135017  33.845  36.931   8.864
 2608POPC   GL235018  33.875  36.910   8.864
 2608POPC   C1A35019  33.820  36.869   8.564
 2608POPC   D2A35020  33.842  36.886   8.264
 2608POPC   C3A35021  33.782  36.855   7.964
 2608POPC   C4A35022  33.802  36.887   7.664
 2608POPC   C1B35023  34.033  36.835   8.564
 2608POPC   C2B35024  34.073  36.844   8.264
 2608POPC   C3B35025  34.059  36.845   7.964
 2608POPC   C4B35026  34.019  36.786   7.664
 2609POPC   NC335027   7.420  29.145   9.464
 2609POPC   PO435028   7.415  29.105   9.164
 2609POPC   GL135029   7.429  29.100   8.864
 2609POPC   GL235030   7.290  29.148   8.864
 2609POPC   C1A35031   7.418  29.155   8.564
 2609POPC   D2A35032   7.436  29.104   8.264
 2609POPC   C3A35033   7.450  29.135   7.964
 2609POPC   C4A35034   7.440  29.187   7.664
 2609POPC   C1B35035   7.189  29.111   8.564
 2609POPC   C2B35036   7.128  29.051   8.264
 2609POPC   C3B35037   7.181  29.100   7.964
 2609POPC   C4B35038   7.141  29.068   7.664
 2610POPC   NC335039  34.548   5.084   9.464
 2610POPC   PO435040  34.579   5.126   9.164
 2610POPC   GL135041  34.592   5.055   8.864
 2610POPC   GL235042  34.608   5.201   8.864
 2610POPC   C1A35043  34.557   5.070   8.564
 2610POPC   D2A35044  34.583   5.140   8.264
 2610POPC   C3A35045  34.528   5.095   7.964
 2610POPC   C4A35046  34.618   5.045   7.664
 2610POPC   C1B35047  34.585   5.320   8.564
 2610POPC   C2B35048  34.640   5.388   8.264
 2610POPC   C3B35049  34.611   5.374   7.964
 2610POPC   C4B35050  34.556   5.304   7.664
 2611POPC   NC335051  38.409  17.487   9.464
 2611POPC   PO435052  38.441  17.517   9.164
 2611POPC   GL135053  38.478  17.474   8.864
 2611POPC   GL235054  38.474  17.584   8.864
 2611POPC   C1A35055  38.423  17.551   8.564
 2611POPC   D2A35056  38.418  17.466   8.264
 2611POPC   C3A35057  38.464  17.487   7.964
 2611POPC   C4A35058  38.503  17.521   7.664
 2611POPC   C1B35059  38.602  17.678   8.564
 2611POPC   C2B35060  38.630  17.677   8.264
 2611POPC   C3B35061  38.588  17.754   7.964
 2611POPC   C4B35062  38.585  17.696   7.664
 2612POPC   NC335063  28.347  17.469   9.464
 2612POPC   PO435064  28.400  17.498   9.164
 2612POPC   GL135065  28.370  17.521   8.864
 2612POPC   GL235066  28.255  17.469   8.864
 2612POPC   C1A35067  28.379  17.489   8.564
 2612POPC   D2A35068  28.416  17.543   8.264
 2612POPC   C3A35069  28.377  17.460   7.964
 2612POPC   C4A35070  28.367  17.516   7.664
 2612POPC   C1B35071  28.171  17.417   8.564
 2612POPC   C2B35072  28.165  17.376   8.264
 2612POPC   C3B35073  28.109  17.424   7.964
 2612POPC   C4B35074  28.137  17.451   7.664
 2613POPC   NC335075  29.162  22.893   9.464
 2613POPC   PO435076  29.175  22.961   9.164
 2613POPC   GL135077  29.193  22.925   8.864
 2613POPC   GL235078  29.191  22.894   8.864
 2613POPC   C1A35079  29.113  22.950   8.564
 2613POPC   D2A35080  29.143  22.949   8.264
 2613POPC   C3A35081  29.172  22.919   7.964
 2613POPC   C4A35082  29.097  22.986   7.664
 2613POPC   C1B35083  29.315  22.756   8.564
 2613POPC   C2B35084  29.352  22.785   8.264
 2613POPC   C3B35085  29.326  22.732   7.964
 2613POPC   C4B35086  29.370  22.744   7.664
 2614POPC   NC335087  43.089   9.709   9.464
 2614POPC   PO435088  43.127   9.768   9.164
 2614POPC   GL135089  43.069   9.703   8.864
 2614POPC   GL235090  43.006   9.626   8.864
 2614POPC   C1A35091  43.150   9.702   8.564
 2614POPC   D2A35092  43.061   9.781   8.264
 2614POPC   C3A35093  43.143   9.716   7.964
 2614POPC   C4A35094  43.123   9.722   7.664
 2614POPC   C1B35095  42.974   9.493   8.564
 2614POPC   C2B35096  42.989   9.541   8.264
 2614POPC   C3B35097  42.942   9.542   7.964
 2614POPC   C4B35098  43.012   9.510   7.664
 2615POPC   NC335099  43.858  20.636   9.464
 2615POPC   PO435100  43.872  20.655   9.164
 2615POPC   GL135101  43.863  20.600   8.864
 2615POPC   GL235102  43.952  20.705   8.864
 2615POPC   C1A35103  43.903  20.660   8.564
 2615POPC   D2A35104  43.876  20.604   8.264
 2615POPC   C3A35105  43.894  20.617   7.964
 2615POPC   C4A35106  43.877  20.660   7.664
 2615POPC   C1B35107  44.097  20.704   8.564
 2615POPC   C2B35108  44.076  20.728   8.264
 2615POPC   C3B35109  44.127  20.729   7.964
 2615POPC   C4B35110  44.097  20.698   7.664
 2616POPC   NC335111   3.527  16.695   9.464
 2616POPC   PO435112   3.519  16.701   9.164
 2616POPC   GL135113   3.517  16.772   8.864
 2616POPC   GL235114   3.598  16.643   8.864
 2616POPC   C1A35115   3.562  16.733   8.564
 2616POPC   D2A35116   3.554  16.711   8.264
 2616POPC   C3A35117   3.523  16.691   7.964
 2616POPC   C4A35118   3.507  16.721   7.664
 2616POPC   C1B35119   3.612  16.508   8.564
 2616POPC   C2B35120   3.624  16.473   8.264
 2616POPC   C3B35121   3.621  16.551   7.964
 2616POPC   C4B35122   3.663  16.532   7.664
 2617POPC   NC335123  19.861  43.138   9.464
 2617POPC   PO435124  19.839  43.110   9.164
 2617POPC   GL135125  19.815  43.073   8.864
 2617POPC   GL235126  19.926  43.004   8.864
 2617POPC   C1A35127  19.823  43.113   8.564
 2617POPC   D2A35128  19.835  43.154   8.264
 2617POPC   C3A35129  19.824  43.115   7.964
 2617POPC   C4A35130  19.808  43.073   7.664
 2617POPC   C1B35131  19.920  42.886   8.564
 2617POPC   C2B35132  20.007  42.940   8.264
 2617POPC   C3B35133  20.006  42.928   7.964
 2617POPC   C4B35134  19.942  42.934   7.664
 2618POPC   NC335135  20.629   1.207   9.464
 2618POPC   PO435136  20.656   1.204   9.164
 2618POPC   GL135137  20.636   1.181   8.864
 2618POPC   GL235138  20.443   1.203   8.864
 2618POPC   C1A35139  20.634   1.258   8.564
 2618POPC   D2A35140  20.572   1.229   8.264
 2618POPC   C3A35141  20.583   1.245   7.964
 2618POPC   C4A35142  20.609   1.188   7.664
 2618POPC   C1B35143  20.375   1.183   8.564
 2618POPC   C2B35144  20.418   1.111   8.264
 2618POPC   C3B35145  20.369   1.145   7.964
 2618POPC   C4B35146  20.350   1.102   7.664
 2619POPC   NC335147   9.779  33.757   9.464
 2619POPC   PO435148   9.756  33.781   9.164
 2619POPC   GL135149   9.779  33.797   8.864
 2619POPC   GL235150   9.752  33.918   8.864
 2619POPC   C1A35151   9.735  33.758   8.564
 2619POPC   D2A35152   9.706  33.786   8.264
 2619POPC   C3A35153   9.759  33.758   7.964
 2619POPC   C4A35154   9.711  33.810   7.664
 2619POPC   C1B35155   9.671  34.045   8.564
 2619POPC   C2B35156   9.741  34.095   8.264
 2619POPC   C3B35157   9.736  33.999   7.964
 2619POPC   C4B35158   9.705  34.059   7.664
 2620POPC   NC335159   3.571  32.243   9.464
 2620POPC   PO435160   3.520  32.199   9.164
 2620POPC   GL135161   3.508  32.240   8.864
 2620POPC   GL235162   3.668  32.247   8.864
 2620POPC   C1A35163   3.549  32.246   8.564
 2620POPC   D2A35164   3.513  32.208   8.264
 2620POPC   C3A35165   3.578  32.222   7.964
 2620POPC   C4A35166   3.516  32.231   7.664
 2620POPC   C1B35167   3.737  32.176   8.564
 2620POPC   C2B35168   3.804  32.167   8.264
 2620POPC   C3B35169   3.745  32.216   7.964
 2620POPC   C4B35170   3.821  32.195   7.664
 2621POPC   NC335171  40.814  36.939   9.464
 2621POPC   PO435172  40.754  36.909   9.164
 2621POPC   GL135173  40.770  36.948   8.864
 2621POPC   GL235174  40.699  36.798   8.864
 2621POPC   C1A35175  40.738  36.946   8.564
 2621POPC   D2A35176  40.817  36.938   8.264
 2621POPC   C3A35177  40.759  36.902   7.964
 2621POPC   C4A35178  40.785  36.944   7.664
 2621POPC   C1B35179  40.722  36.714   8.564
 2621POPC   C2B35180  40.679  36.714   8.264
 2621POPC   C3B35181  40.679  36.689   7.964
 2621POPC   C4B35182  40.651  36.628   7.664
 2622POPC   NC335183  29.886  22.941   9.464
 2622POPC   PO435184  29.913  22.961   9.164
 2622POPC   GL135185  29.943  22.957   8.864
 2622POPC   GL235186  29.974  22.843   8.864
 2622POPC   C1A35187  29.971  22.932   8.564
 2622POPC   D2A35188  29.960  22.899   8.264
 2622POPC   C3A35189  29.935  22.915   7.964
 2622POPC   C4A35190  29.880  22.942   7.664
 2622POPC   C1B35191  30.092  22.740   8.564
 2622POPC   C2B35192  30.070  22.753   8.264
 2622POPC   C3B35193  30.112  22.792   7.964
 2622POPC   C4B35194  30.074  22.739   7.664
 2623POPC   NC335195  16.700  14.421   9.464
 2623POPC   PO435196  16.736  14.434   9.164
 2623POPC   GL135197  16.715  14.432   8.864
 2623POPC   GL235198  16.885  14.487   8.864
 2623POPC   C1A35199  16.719  14.398   8.564
 2623POPC   D2A35200  16.710  14.437   8.264
 2623POPC   C3A35201  16.709  14.399   7.964
 2623POPC   C4A35202  16.767  14.436   7.664
 2623POPC   C1B35203  16.960  14.513   8.564
 2623POPC   C2B35204  16.926  14.525   8.264
 2623POPC   C3B35205  16.916  14.532   7.964
 2623POPC   C4B35206  16.956  14.478   7.664
 2624POPC   NC335207  29.113  14.442   9.464
 2624POPC   PO435208  29.150  14.429   9.164
 2624POPC   GL135209  29.113  14.396   8.864
 2624POPC   GL235210  29.069  14.478   8.864
 2624POPC   C1A35211  29.126  14.380   8.564
 2624POPC   D2A35212  29.149  14.380   8.264
 2624POPC   C3A35213  29.152  14.404   7.964
 2624POPC   C4A35214  29.136  14.449   7.664
 2624POPC   C1B35215  28.871  14.439   8.564
 2624POPC   C2B35216  28.910  14.513   8.264
 2624POPC   C3B35217  28.908  14.523   7.964
 2624POPC   C4B35218  28.949  14.502   7.664
 2625POPC   NC335219  43.924  19.788   9.464
 2625POPC   PO435220  43.882  19.845   9.164
 2625POPC   GL135221  43.898  19.878   8.864
 2625POPC   GL235222  43.831  19.922   8.864
 2625POPC   C1A35223  43.926  19.865   8.564
 2625POPC   D2A35224  43.877  19.854   8.264
 2625POPC   C3A35225  43.906  19.828   7.964
 2625POPC   C4A35226  43.929  19.794   7.664
 2625POPC   C1B35227  43.828  20.086   8.564
 2625POPC   C2B35228  43.824  20.036   8.264
 2625POPC   C3B35229  43.830  20.116   7.964
 2625POPC   C4B35230  43.833  20.066   7.664
 2626POPC   NC335231  28.373   9.704   9.464
 2626POPC   PO435232  28.362   9.758   9.164
 2626POPC   GL135233  28.381   9.785   8.864
 2626POPC   GL235234  28.433   9.680   8.864
 2626POPC   C1A35235  28.353   9.761   8.564
 2626POPC   D2A35236  28.361   9.792   8.264
 2626POPC   C3A35237  28.353   9.713   7.964
 2626POPC   C4A35238  28.347   9.729   7.664
 2626POPC   C1B35239  28.461   9.514   8.564
 2626POPC   C2B35240  28.506   9.550   8.264
 2626POPC   C3B35241  28.471   9.499   7.964
 2626POPC   C4B35242  28.417   9.503   7.664
 2627POPC   NC335243   5.103  15.915   9.464
 2627POPC   PO435244   5.110  15.990   9.164
 2627POPC   GL135245   5.119  15.910   8.864
 2627POPC   GL235246   4.955  15.888   8.864
 2627POPC   C1A35247   5.107  16.000   8.564
 2627POPC   D2A35248   5.132  15.955   8.264
 2627POPC   C3A35249   5.088  15.998   7.964
 2627POPC   C4A35250   5.129  15.922   7.664
 2627POPC   C1B35251   4.870  15.886   8.564
 2627POPC   C2B35252   4.892  15.902   8.264
 2627POPC   C3B35253   4.851  15.849   7.964
 2627POPC   C4B35254   4.887  15.834   7.664
 2628POPC   NC335255  30.703  33.837   9.464
 2628POPC   PO435256  30.668  33.832   9.164
 2628POPC   GL135257  30.716  33.763   8.864
 2628POPC   GL235258  30.611  33.734   8.864
 2628POPC   C1A35259  30.696  33.802   8.564
 2628POPC   D2A35260  30.733  33.786   8.264
 2628POPC   C3A35261  30.666  33.811   7.964
 2628POPC   C4A35262  30.728  33.752   7.664
 2628POPC   C1B35263  30.473  33.706   8.564
 2628POPC   C2B35264  30.459  33.666   8.264
 2628POPC   C3B35265  30.515  33.680   7.964
 2628POPC   C4B35266  30.447  33.694   7.664
 2629POPC   NC335267  32.273   8.930   9.464
 2629POPC   PO435268  32.218   8.965   9.164
 2629POPC   GL135269  32.242   9.014   8.864
 2629POPC   GL235270  32.133   8.947   8.864
 2629POPC   C1A35271  32.289   8.982   8.564
 2629POPC   D2A35272  32.267   9.021   8.264
 2629POPC   C3A35273  32.202   8.947   7.964
 2629POPC   C4A35274  32.273   8.926   7.664
 2629POPC   C1B35275  32.020   8.893   8.564
 2629POPC   C2B35276  32.025   8.880   8.264
 2629POPC   C3B35277  32.032   8.874   7.964
 2629POPC   C4B35278  31.997   8.895   7.664
 2630POPC   NC335279  36.099   5.110   9.464
 2630POPC   PO435280  36.130   5.070   9.164
 2630POPC   GL135281  36.104   5.105   8.864
 2630POPC   GL235282  36.258   5.015   8.864
 2630POPC   C1A35283  36.149   5.092   8.564
 2630POPC   D2A35284  36.122   5.091   8.264
 2630POPC   C3A35285  36.092   5.095   7.964
 2630POPC   C4A35286  36.159   5.083   7.664
 2630POPC   C1B35287  36.305   4.882   8.564
 2630POPC   C2B35288  36.300   4.886   8.264
 2630POPC   C3B35289  36.270   4.902   7.964
 2630POPC   C4B35290  36.280   4.865   7.664
 2631POPC   NC335291  24.447   6.627   9.464
 2631POPC   PO435292  24.458   6.640   9.164
 2631POPC   GL135293  24.441   6.654   8.864
 2631POPC   GL235294  24.417   6.684   8.864
 2631POPC   C1A35295  24.456   6.686   8.564
 2631POPC   D2A35296  24.469   6.619   8.264
 2631POPC   C3A35297  24.532   6.665   7.964
 2631POPC   C4A35298  24.466   6.630   7.664
 2631POPC   C1B35299  24.294   6.832   8.564
 2631POPC   C2B35300  24.312   6.845   8.264
 2631POPC   C3B35301  24.265   6.774   7.964
 2631POPC   C4B35302  24.297   6.831   7.664
 2632POPC   NC335303  32.983   1.990   9.464
 2632POPC   PO435304  33.031   1.970   9.164
 2632POPC   GL135305  33.027   2.016   8.864
 2632POPC   GL235306  33.060   2.077   8.864
 2632POPC   C1A35307  33.037   1.956   8.564
 2632POPC   D2A35308  33.029   2.033   8.264
 2632POPC   C3A35309  33.009   2.005   7.964
 2632POPC   C4A35310  33.004   2.031   7.664
 2632POPC   C1B35311  33.176   2.166   8.564
 2632POPC   C2B35312  33.214   2.209   8.264
 2632POPC   C3B35313  33.189   2.188   7.964
 2632POPC   C4B35314  33.228   2.134   7.664
 2633POPC   NC335315  12.117  21.378   9.464
 2633POPC   PO435316  12.030  21.375   9.164
 2633POPC   GL135317  12.061  21.436   8.864
 2633POPC   GL235318  12.002  21.298   8.864
 2633POPC   C1A35319  12.060  21.342   8.564
 2633POPC   D2A35320  12.067  21.428   8.264
 2633POPC   C3A35321  12.098  21.382   7.964
 2633POPC   C4A35322  12.030  21.359   7.664
 2633POPC   C1B35323  11.947  21.115   8.564
 2633POPC   C2B35324  11.967  21.155   8.264
 2633POPC   C3B35325  11.940  21.179   7.964
 2633POPC   C4B35326  11.975  21.150   7.664
 2634POPC   NC335327  26.089  29.129   9.464
 2634POPC   PO435328  26.005  29.113   9.164
 2634POPC   GL135329  26.049  29.114   8.864
 2634POPC   GL235330  26.010  29.057   8.864
 2634POPC   C1A35331  26.064  29.157   8.564
 2634POPC   D2A35332  26.067  29.135   8.264
 2634POPC   C3A35333  26.024  29.140   7.964
 2634POPC   C4A35334  26.091  29.178   7.664
 2634POPC   C1B35335  25.881  28.981   8.564
 2634POPC   C2B35336  25.941  28.900   8.264
 2634POPC   C3B35337  25.888  28.965   7.964
 2634POPC   C4B35338  25.860  28.984   7.664
 2635POPC   NC335339  10.562  29.123   9.464
 2635POPC   PO435340  10.558  29.194   9.164
 2635POPC   GL135341  10.558  29.129   8.864
 2635POPC   GL235342  10.377  29.175   8.864
 2635POPC   C1A35343  10.503  29.120   8.564
 2635POPC   D2A35344  10.491  29.188   8.264
 2635POPC   C3A35345  10.510  29.180   7.964
 2635POPC   C4A35346  10.547  29.117   7.664
 2635POPC   C1B35347  10.315  29.116   8.564
 2635POPC   C2B35348  10.262  29.181   8.264
 2635POPC   C3B35349  10.277  29.135   7.964
 2635POPC   C4B35350  10.241  29.112   7.664
 2636POPC   NC335351  17.486  29.180   9.464
 2636POPC   PO435352  17.502  29.099   9.164
 2636POPC   GL135353  17.518  29.114   8.864
 2636POPC   GL235354  17.517  29.223   8.864
 2636POPC   C1A35355  17.469  29.102   8.564
 2636POPC   D2A35356  17.550  29.184   8.264
 2636POPC   C3A35357  17.479  29.185   7.964
 2636POPC   C4A35358  17.497  29.149   7.664
 2636POPC   C1B35359  17.485  29.370   8.564
 2636POPC   C2B35360  17.528  29.407   8.264
 2636POPC   C3B35361  17.488  29.385   7.964
 2636POPC   C4B35362  17.493  29.440   7.664
 2637POPC   NC335363   5.912  19.025   9.464
 2637POPC   PO435364   5.863  19.054   9.164
 2637POPC   GL135365   5.857  19.063   8.864
 2637POPC   GL235366   6.020  18.994   8.864
 2637POPC   C1A35367   5.907  19.039   8.564
 2637POPC   D2A35368   5.903  19.107   8.264
 2637POPC   C3A35369   5.911  19.079   7.964
 2637POPC   C4A35370   5.894  19.028   7.664
 2637POPC   C1B35371   6.066  18.951   8.564
 2637POPC   C2B35372   6.058  18.974   8.264
 2637POPC   C3B35373   6.065  19.016   7.964
 2637POPC   C4B35374   6.119  18.967   7.664
 2638POPC   NC335375  15.970  27.560   9.464
 2638POPC   PO435376  15.958  27.640   9.164
 2638POPC   GL135377  15.959  27.598   8.864
 2638POPC   GL235378  16.106  27.656   8.864
 2638POPC   C1A35379  15.938  27.638   8.564
 2638POPC   D2A35380  15.910  27.599   8.264
 2638POPC   C3A35381  15.961  27.589   7.964
 2638POPC   C4A35382  15.972  27.620   7.664
 2638POPC   C1B35383  16.175  27.700   8.564
 2638POPC   C2B35384  16.220  27.737   8.264
 2638POPC   C3B35385  16.149  27.753   7.964
 2638POPC   C4B35386  16.193  27.672   7.664
 2639POPC   NC335387  19.866   1.173   9.464
 2639POPC   PO435388  19.793   1.202   9.164
 2639POPC   GL135389  19.861   1.221   8.864
 2639POPC   GL235390  19.834   1.347   8.864
 2639POPC   C1A35391  19.785   1.169   8.564
 2639POPC   D2A35392  19.794   1.199   8.264
 2639POPC   C3A35393  19.882   1.254   7.964
 2639POPC   C4A35394  19.794   1.226   7.664
 2639POPC   C1B35395  19.920   1.500   8.564
 2639POPC   C2B35396  19.954   1.453   8.264
 2639POPC   C3B35397  19.916   1.418   7.964
 2639POPC   C4B35398  19.885   1.434   7.664
 2640POPC   NC335399  15.223  37.698   9.464
 2640POPC   PO435400  15.184  37.682   9.164
 2640POPC   GL135401  15.188  37.643   8.864
 2640POPC   GL235402  15.273  37.649   8.864
 2640POPC   C1A35403  15.146  37.669   8.564
 2640POPC   D2A35404  15.208  37.709   8.264
 2640POPC   C3A35405  15.192  37.678   7.964
 2640POPC   C4A35406  15.158  37.719   7.664
 2640POPC   C1B35407  15.382  37.592   8.564
 2640POPC   C2B35408  15.370  37.616   8.264
 2640POPC   C3B35409  15.446  37.593   7.964
 2640POPC   C4B35410  15.417  37.583   7.664
 2641POPC   NC335411  19.792  34.527   9.464
 2641POPC   PO435412  19.844  34.609   9.164
 2641POPC   GL135413  19.846  34.621   8.864
 2641POPC   GL235414  19.847  34.651   8.864
 2641POPC   C1A35415  19.861  34.613   8.564
 2641POPC   D2A35416  19.790  34.614   8.264
 2641POPC   C3A35417  19.882  34.550   7.964
 2641POPC   C4A35418  19.797  34.533   7.664
 2641POPC   C1B35419  19.794  34.806   8.564
 2641POPC   C2B35420  19.760  34.844   8.264
 2641POPC   C3B35421  19.761  34.814   7.964
 2641POPC   C4B35422  19.796  34.820   7.664
 2642POPC   NC335423   9.787  12.876   9.464
 2642POPC   PO435424   9.775  12.802   9.164
 2642POPC   GL135425   9.781  12.855   8.864
 2642POPC   GL235426   9.724  12.769   8.864
 2642POPC   C1A35427   9.713  12.850   8.564
 2642POPC   D2A35428   9.727  12.818   8.264
 2642POPC   C3A35429   9.736  12.886   7.964
 2642POPC   C4A35430   9.789  12.816   7.664
 2642POPC   C1B35431   9.666  12.631   8.564
 2642POPC   C2B35432   9.644  12.666   8.264
 2642POPC   C3B35433   9.673  12.613   7.964
 2642POPC   C4B35434   9.616  12.587   7.664
 2643POPC   NC335435  23.757  21.384   9.464
 2643POPC   PO435436  23.750  21.386   9.164
 2643POPC   GL135437  23.675  21.368   8.864
 2643POPC   GL235438  23.783  21.297   8.864
 2643POPC   C1A35439  23.747  21.405   8.564
 2643POPC   D2A35440  23.749  21.369   8.264
 2643POPC   C3A35441  23.741  21.398   7.964
 2643POPC   C4A35442  23.706  21.370   7.664
 2643POPC   C1B35443  23.843  21.187   8.564
 2643POPC   C2B35444  23.760  21.111   8.264
 2643POPC   C3B35445  23.771  21.127   7.964
 2643POPC   C4B35446  23.745  21.187   7.664
 2644POPC   NC335447  43.886   7.387   9.464
 2644POPC   PO435448  43.847   7.418   9.164
 2644POPC   GL135449  43.933   7.443   8.864
 2644POPC   GL235450  43.992   7.405   8.864
 2644POPC   C1A35451  43.888   7.459   8.564
 2644POPC   D2A35452  43.839   7.461   8.264
 2644POPC   C3A35453  43.859   7.387   7.964
 2644POPC   C4A35454  43.840   7.395   7.664
 2644POPC   C1B35455  44.168   7.471   8.564
 2644POPC   C2B35456  44.106   7.487   8.264
 2644POPC   C3B35457  44.092   7.455   7.964
 2644POPC   C4B35458  44.088   7.502   7.664
 2645POPC   NC335459  43.098  33.070   9.464
 2645POPC   PO435460  43.135  33.024   9.164
 2645POPC   GL135461  43.106  33.046   8.864
 2645POPC   GL235462  43.036  33.150   8.864
 2645POPC   C1A35463  43.117  33.049   8.564
 2645POPC   D2A35464  43.085  33.015   8.264
 2645POPC   C3A35465  43.069  33.067   7.964
 2645POPC   C4A35466  43.079  33.073   7.664
 2645POPC   C1B35467  42.937  33.283   8.564
 2645POPC   C2B35468  42.970  33.274   8.264
 2645POPC   C3B35469  42.970  33.202   7.964
 2645POPC   C4B35470  42.997  33.219   7.664
 2646POPC   NC335471   7.400  18.236   9.464
 2646POPC   PO435472   7.406  18.275   9.164
 2646POPC   GL135473   7.371  18.273   8.864
 2646POPC   GL235474   7.454  18.134   8.864
 2646POPC   C1A35475   7.451  18.233   8.564
 2646POPC   D2A35476   7.392  18.280   8.264
 2646POPC   C3A35477   7.464  18.284   7.964
 2646POPC   C4A35478   7.415  18.328   7.664
 2646POPC   C1B35479   7.409  18.078   8.564
 2646POPC   C2B35480   7.490  18.059   8.264
 2646POPC   C3B35481   7.444  18.004   7.964
 2646POPC   C4B35482   7.491  18.040   7.664
 2647POPC   NC335483   8.929  12.096   9.464
 2647POPC   PO435484   8.989  12.056   9.164
 2647POPC   GL135485   8.926  12.056   8.864
 2647POPC   GL235486   8.931  12.218   8.864
 2647POPC   C1A35487   9.011  12.112   8.564
 2647POPC   D2A35488   8.931  12.042   8.264
 2647POPC   C3A35489   9.021  12.028   7.964
 2647POPC   C4A35490   9.019  12.111   7.664
 2647POPC   C1B35491   8.887  12.348   8.564
 2647POPC   C2B35492   8.929  12.328   8.264
 2647POPC   C3B35493   8.929  12.288   7.964
 2647POPC   C4B35494   8.886  12.298   7.664
 2648POPC   NC335495   5.888   4.306   9.464
 2648POPC   PO435496   5.880   4.325   9.164
 2648POPC   GL135497   5.834   4.342   8.864
 2648POPC   GL235498   5.906   4.218   8.864
 2648POPC   C1A35499   5.862   4.330   8.564
 2648POPC   D2A35500   5.837   4.316   8.264
 2648POPC   C3A35501   5.881   4.343   7.964
 2648POPC   C4A35502   5.865   4.357   7.664
 2648POPC   C1B35503   5.956   4.119   8.564
 2648POPC   C2B35504   5.920   4.084   8.264
 2648POPC   C3B35505   5.916   4.028   7.964
 2648POPC   C4B35506   5.879   4.087   7.664
 2649POPC   NC335507   7.398   0.394   9.464
 2649POPC   PO435508   7.395   0.463   9.164
 2649POPC   GL135509   7.434   0.443   8.864
 2649POPC   GL235510   7.583   0.478   8.864
 2649POPC   C1A35511   7.421   0.469   8.564
 2649POPC   D2A35512   7.386   0.399   8.264
 2649POPC   C3A35513   7.382   0.398   7.964
 2649POPC   C4A35514   7.401   0.425   7.664
 2649POPC   C1B35515   7.617   0.501   8.564
 2649POPC   C2B35516   7.663   0.497   8.264
 2649POPC   C3B35517   7.647   0.472   7.964
 2649POPC   C4B35518   7.703   0.447   7.664
 2650POPC   NC335519   3.516  40.742   9.464
 2650POPC   PO435520   3.547  40.776   9.164
 2650POPC   GL135521   3.504  40.747   8.864
 2650POPC   GL235522   3.664  40.743   8.864
 2650POPC   C1A35523   3.542  40.739   8.564
 2650POPC   D2A35524   3.538  40.832   8.264
 2650POPC   C3A35525   3.510  40.757   7.964
 2650POPC   C4A35526   3.550  40.792   7.664
 2650POPC   C1B35527   3.753  40.721   8.564
 2650POPC   C2B35528   3.778  40.745   8.264
 2650POPC   C3B35529   3.787  40.694   7.964
 2650POPC   C4B35530   3.830  40.697   7.664
 2651POPC   NC335531  22.910   2.805   9.464
 2651POPC   PO435532  22.927   2.791   9.164
 2651POPC   GL135533  22.905   2.801   8.864
 2651POPC   GL235534  23.069   2.842   8.864
 2651POPC   C1A35535  22.907   2.755   8.564
 2651POPC   D2A35536  22.950   2.813   8.264
 2651POPC   C3A35537  22.958   2.768   7.964
 2651POPC   C4A35538  22.983   2.723   7.664
 2651POPC   C1B35539  23.157   2.944   8.564
 2651POPC   C2B35540  23.150   2.891   8.264
 2651POPC   C3B35541  23.146   2.904   7.964
 2651POPC   C4B35542  23.111   2.873   7.664
 2652POPC   NC335543   5.058  14.416   9.464
 2652POPC   PO435544   5.071  14.419   9.164
 2652POPC   GL135545   5.095  14.394   8.864
 2652POPC   GL235546   5.228  14.426   8.864
 2652POPC   C1A35547   5.105  14.417   8.564
 2652POPC   D2A35548   5.121  14.382   8.264
 2652POPC   C3A35549   5.088  14.398   7.964
 2652POPC   C4A35550   5.112  14.391   7.664
 2652POPC   C1B35551   5.330  14.421   8.564
 2652POPC   C2B35552   5.309  14.472   8.264
 2652POPC   C3B35553   5.298  14.430   7.964
 2652POPC   C4B35554   5.312  14.439   7.664
 2653POPC   NC335555  12.893  18.281   9.464
 2653POPC   PO435556  12.814  18.244   9.164
 2653POPC   GL135557  12.831  18.290   8.864
 2653POPC   GL235558  12.757  18.266   8.864
 2653POPC   C1A35559  12.807  18.327   8.564
 2653POPC   D2A35560  12.812  18.241   8.264
 2653POPC   C3A35561  12.856  18.264   7.964
 2653POPC   C4A35562  12.841  18.287   7.664
 2653POPC   C1B35563  12.599  18.292   8.564
 2653POPC   C2B35564  12.632  18.306   8.264
 2653POPC   C3B35565  12.621  18.277   7.964
 2653POPC   C4B35566  12.605  18.250   7.664
 2654POPC   NC335567   0.440  11.264   9.464
 2654POPC   PO435568   0.400  11.270   9.164
 2654POPC   GL135569   0.419  11.347   8.864
 2654POPC   GL235570   0.543  11.216   8.864
 2654POPC   C1A35571   0.452  11.269   8.564
 2654POPC   D2A35572   0.398  11.312   8.264
 2654POPC   C3A35573   0.426  11.258   7.964
 2654POPC   C4A35574   0.417  11.319   7.664
 2654POPC   C1B35575   0.631  11.085   8.564
 2654POPC   C2B35576   0.597  11.107   8.264
 2654POPC   C3B35577   0.605  11.152   7.964
 2654POPC   C4B35578   0.627  11.109   7.664
 2655POPC   NC335579  43.075  42.384   9.464
 2655POPC   PO435580  43.110  42.338   9.164
 2655POPC   GL135581  43.063  42.381   8.864
 2655POPC   GL235582  43.052  42.232   8.864
 2655POPC   C1A35583  43.110  42.308   8.564
 2655POPC   D2A35584  43.111  42.286   8.264
 2655POPC   C3A35585  43.131  42.290   7.964
 2655POPC   C4A35586  43.062  42.329   7.664
 2655POPC   C1B35587  43.007  42.100   8.564
 2655POPC   C2B35588  43.002  42.088   8.264
 2655POPC   C3B35589  43.018  42.097   7.964
 2655POPC   C4B35590  43.004  42.067   7.664
 2656POPC   NC335591  24.512  14.418   9.464
 2656POPC   PO435592  24.488  14.361   9.164
 2656POPC   GL135593  24.517  14.422   8.864
 2656POPC   GL235594  24.600  14.445   8.864
 2656POPC   C1A35595  24.501  14.357   8.564
 2656POPC   D2A35596  24.495  14.423   8.264
 2656POPC   C3A35597  24.527  14.443   7.964
 2656POPC   C4A35598  24.504  14.401   7.664
 2656POPC   C1B35599  24.685  14.526   8.564
 2656POPC   C2B35600  24.685  14.483   8.264
 2656POPC   C3B35601  24.762  14.532   7.964
 2656POPC   C4B35602  24.762  14.489   7.664
 2657POPC   NC335603  29.902  37.708   9.464
 2657POPC   PO435604  29.934  37.682   9.164
 2657POPC   GL135605  29.937  37.661   8.864
 2657POPC   GL235606  29.969  37.836   8.864
 2657POPC   C1A35607  29.957  37.699   8.564
 2657POPC   D2A35608  29.926  37.712   8.264
 2657POPC   C3A35609  29.964  37.723   7.964
 2657POPC   C4A35610  29.930  37.683   7.664
 2657POPC   C1B35611  29.965  37.892   8.564
 2657POPC   C2B35612  29.904  37.910   8.264
 2657POPC   C3B35613  29.932  37.970   7.964
 2657POPC   C4B35614  29.956  37.930   7.664
 2658POPC   NC335615  43.144  41.526   9.464
 2658POPC   PO435616  43.062  41.568   9.164
 2658POPC   GL135617  43.126  41.526   8.864
 2658POPC   GL235618  43.189  41.492   8.864
 2658POPC   C1A35619  43.082  41.591   8.564
 2658POPC   D2A35620  43.134  41.601   8.264
 2658POPC   C3A35621  43.069  41.596   7.964
 2658POPC   C4A35622  43.123  41.563   7.664
 2658POPC   C1B35623  43.262  41.350   8.564
 2658POPC   C2B35624  43.330  41.412   8.264
 2658POPC   C3B35625  43.300  41.398   7.964
 2658POPC   C4B35626  43.330  41.432   7.664
 2659POPC   NC335627  10.511   1.227   9.464
 2659POPC   PO435628  10.486   1.224   9.164
 2659POPC   GL135629  10.521   1.261   8.864
 2659POPC   GL235630  10.444   1.307   8.864
 2659POPC   C1A35631  10.489   1.264   8.564
 2659POPC   D2A35632  10.501   1.220   8.264
 2659POPC   C3A35633  10.487   1.250   7.964
 2659POPC   C4A35634  10.529   1.172   7.664
 2659POPC   C1B35635  10.498   1.430   8.564
 2659POPC   C2B35636  10.465   1.455   8.264
 2659POPC   C3B35637  10.428   1.457   7.964
 2659POPC   C4B35638  10.460   1.466   7.664
 2660POPC   NC335639  18.293  19.031   9.464
 2660POPC   PO435640  18.234  19.011   9.164
 2660POPC   GL135641  18.246  19.068   8.864
 2660POPC   GL235642  18.422  18.950   8.864
 2660POPC   C1A35643  18.238  19.072   8.564
 2660POPC   D2A35644  18.327  19.055   8.264
 2660POPC   C3A35645  18.274  19.025   7.964
 2660POPC   C4A35646  18.292  19.030   7.664
 2660POPC   C1B35647  18.520  18.883   8.564
 2660POPC   C2B35648  18.524  18.896   8.264
 2660POPC   C3B35649  18.476  18.927   7.964
 2660POPC   C4B35650  18.472  18.948   7.664
 2661POPC   NC335651   6.639   8.150   9.464
 2661POPC   PO435652   6.595   8.169   9.164
 2661POPC   GL135653   6.684   8.244   8.864
 2661POPC   GL235654   6.782   8.177   8.864
 2661POPC   C1A35655   6.618   8.194   8.564
 2661POPC   D2A35656   6.686   8.200   8.264
 2661POPC   C3A35657   6.646   8.184   7.964
 2661POPC   C4A35658   6.650   8.164   7.664
 2661POPC   C1B35659   6.870   8.197   8.564
 2661POPC   C2B35660   6.929   8.216   8.264
 2661POPC   C3B35661   6.879   8.232   7.964
 2661POPC   C4B35662   6.888   8.203   7.664
 2662POPC   NC335663  36.901  28.389   9.464
 2662POPC   PO435664  36.884  28.334   9.164
 2662POPC   GL135665  36.862  28.383   8.864
 2662POPC   GL235666  36.835  28.483   8.864
 2662POPC   C1A35667  36.928  28.418   8.564
 2662POPC   D2A35668  36.871  28.387   8.264
 2662POPC   C3A35669  36.940  28.404   7.964
 2662POPC   C4A35670  36.941  28.410   7.664
 2662POPC   C1B35671  36.777  28.579   8.564
 2662POPC   C2B35672  36.816  28.559   8.264
 2662POPC   C3B35673  36.741  28.624   7.964
 2662POPC   C4B35674  36.749  28.622   7.664
 2663POPC   NC335675   1.973  25.288   9.464
 2663POPC   PO435676   1.947  25.286   9.164
 2663POPC   GL135677   2.032  25.288   8.864
 2663POPC   GL235678   2.038  25.437   8.864
 2663POPC   C1A35679   1.964  25.286   8.564
 2663POPC   D2A35680   1.974  25.221   8.264
 2663POPC   C3A35681   2.037  25.307   7.964
 2663POPC   C4A35682   1.980  25.288   7.664
 2663POPC   C1B35683   1.962  25.555   8.564
 2663POPC   C2B35684   1.979  25.504   8.264
 2663POPC   C3B35685   2.049  25.484   7.964
 2663POPC   C4B35686   2.048  25.499   7.664
 2664POPC   NC335687  16.739  13.596   9.464
 2664POPC   PO435688  16.754  13.597   9.164
 2664POPC   GL135689  16.738  13.606   8.864
 2664POPC   GL235690  16.631  13.659   8.864
 2664POPC   C1A35691  16.737  13.636   8.564
 2664POPC   D2A35692  16.739  13.632   8.264
 2664POPC   C3A35693  16.773  13.651   7.964
 2664POPC   C4A35694  16.769  13.606   7.664
 2664POPC   C1B35695  16.515  13.725   8.564
 2664POPC   C2B35696  16.477  13.678   8.264
 2664POPC   C3B35697  16.456  13.675   7.964
 2664POPC   C4B35698  16.464  13.710   7.664
 2665POPC   NC335699  37.697  22.117   9.464
 2665POPC   PO435700  37.689  22.195   9.164
 2665POPC   GL135701  37.632  22.204   8.864
 2665POPC   GL235702  37.588  22.184   8.864
 2665POPC   C1A35703  37.706  22.123   8.564
 2665POPC   D2A35704  37.635  22.206   8.264
 2665POPC   C3A35705  37.681  22.117   7.964
 2665POPC   C4A35706  37.690  22.164   7.664
 2665POPC   C1B35707  37.420  22.317   8.564
 2665POPC   C2B35708  37.507  22.240   8.264
 2665POPC   C3B35709  37.482  22.325   7.964
 2665POPC   C4B35710  37.433  22.247   7.664
 2666POPC   NC335711  34.593   1.199   9.464
 2666POPC   PO435712  34.597   1.185   9.164
 2666POPC   GL135713  34.566   1.235   8.864
 2666POPC   GL235714  34.490   1.176   8.864
 2666POPC   C1A35715  34.541   1.253   8.564
 2666POPC   D2A35716  34.528   1.206   8.264
 2666POPC   C3A35717  34.612   1.196   7.964
 2666POPC   C4A35718  34.611   1.176   7.664
 2666POPC   C1B35719  34.309   1.238   8.564
 2666POPC   C2B35720  34.341   1.214   8.264
 2666POPC   C3B35721  34.302   1.266   7.964
 2666POPC   C4B35722  34.303   1.229   7.664
 2667POPC   NC335723  43.908  16.704   9.464
 2667POPC   PO435724  43.913  16.746   9.164
 2667POPC   GL135725  43.894  16.711   8.864
 2667POPC   GL235726  43.831  16.854   8.864
 2667POPC   C1A35727  43.930  16.708   8.564
 2667POPC   D2A35728  43.933  16.715   8.264
 2667POPC   C3A35729  43.925  16.737   7.964
 2667POPC   C4A35730  43.880  16.681   7.664
 2667POPC   C1B35731  43.678  16.961   8.564
 2667POPC   C2B35732  43.697  16.900   8.264
 2667POPC   C3B35733  43.675  16.935   7.964
 2667POPC   C4B35734  43.701  16.910   7.664
 2668POPC   NC335735  23.698   6.646   9.464
 2668POPC   PO435736  23.757   6.668   9.164
 2668POPC   GL135737  23.702   6.669   8.864
 2668POPC   GL235738  23.788   6.494   8.864
 2668POPC   C1A35739  23.668   6.680   8.564
 2668POPC   D2A35740  23.681   6.596   8.264
 2668POPC   C3A35741  23.671   6.636   7.964
 2668POPC   C4A35742  23.669   6.639   7.664
 2668POPC   C1B35743  23.854   6.438   8.564
 2668POPC   C2B35744  23.810   6.469   8.264
 2668POPC   C3B35745  23.776   6.396   7.964
 2668POPC   C4B35746  23.874   6.396   7.664
 2669POPC   NC335747  31.426   4.298   9.464
 2669POPC   PO435748  31.520   4.272   9.164
 2669POPC   GL135749  31.435   4.353   8.864
 2669POPC   GL235750  31.448   4.200   8.864
 2669POPC   C1A35751  31.455   4.284   8.564
 2669POPC   D2A35752  31.495   4.348   8.264
 2669POPC   C3A35753  31.444   4.314   7.964
 2669POPC   C4A35754  31.443   4.269   7.664
 2669POPC   C1B35755  31.490   4.054   8.564
 2669POPC   C2B35756  31.505   4.043   8.264
 2669POPC   C3B35757  31.544   4.030   7.964
 2669POPC   C4B35758  31.535   4.042   7.664
 2670POPC   NC335759  38.460   4.311   9.464
 2670POPC   PO435760  38.479   4.272   9.164
 2670POPC   GL135761  38.482   4.293   8.864
 2670POPC   GL235762  38.491   4.410   8.864
 2670POPC   C1A35763  38.477   4.319   8.564
 2670POPC   D2A35764  38.471   4.289   8.264
 2670POPC   C3A35765  38.434   4.271   7.964
 2670POPC   C4A35766  38.505   4.270   7.664
 2670POPC   C1B35767  38.507   4.588   8.564
 2670POPC   C2B35768  38.512   4.588   8.264
 2670POPC   C3B35769  38.524   4.578   7.964
 2670POPC   C4B35770  38.450   4.518   7.664
 2671POPC   NC335771  29.876  33.042   9.464
 2671POPC   PO435772  29.871  33.009   9.164
 2671POPC   GL135773  29.960  33.011   8.864
 2671POPC   GL235774  29.897  32.888   8.864
 2671POPC   C1A35775  29.877  32.988   8.564
 2671POPC   D2A35776  29.939  32.999   8.264
 2671POPC   C3A35777  29.968  33.024   7.964
 2671POPC   C4A35778  29.925  32.997   7.664
 2671POPC   C1B35779  29.898  32.802   8.564
 2671POPC   C2B35780  29.859  32.786   8.264
 2671POPC   C3B35781  29.834  32.800   7.964
 2671POPC   C4B35782  29.895  32.820   7.664
 2672POPC   NC335783  27.573  12.105   9.464
 2672POPC   PO435784  27.559  12.088   9.164
 2672POPC   GL135785  27.552  12.046   8.864
 2672POPC   GL235786  27.575  12.210   8.864
 2672POPC   C1A35787  27.607  12.071   8.564
 2672POPC   D2A35788  27.544  12.077   8.264
 2672POPC   C3A35789  27.623  12.038   7.964
 2672POPC   C4A35790  27.595  12.058   7.664
 2672POPC   C1B35791  27.487  12.282   8.564
 2672POPC   C2B35792  27.465  12.308   8.264
 2672POPC   C3B35793  27.499  12.338   7.964
 2672POPC   C4B35794  27.547  12.296   7.664
 2673POPC   NC335795   5.904  28.367   9.464
 2673POPC   PO435796   5.841  28.320   9.164
 2673POPC   GL135797   5.907  28.373   8.864
 2673POPC   GL235798   5.944  28.488   8.864
 2673POPC   C1A35799   5.887  28.373   8.564
 2673POPC   D2A35800   5.876  28.409   8.264
 2673POPC   C3A35801   5.914  28.326   7.964
 2673POPC   C4A35802   5.890  28.382   7.664
 2673POPC   C1B35803   6.016  28.529   8.564
 2673POPC   C2B35804   6.070  28.545   8.264
 2673POPC   C3B35805   6.097  28.510   7.964
 2673POPC   C4B35806   6.019  28.529   7.664
 2674POPC   NC335807  29.106   0.482   9.464
 2674POPC   PO435808  29.173   0.470   9.164
 2674POPC   GL135809  29.186   0.479   8.864
 2674POPC   GL235810  29.000   0.364   8.864
 2674POPC   C1A35811  29.155   0.390   8.564
 2674POPC   D2A35812  29.128   0.404   8.264
 2674POPC   C3A35813  29.101   0.457   7.964
 2674POPC   C4A35814  29.119   0.448   7.664
 2674POPC   C1B35815  28.951   0.276   8.564
 2674POPC   C2B35816  28.957   0.303   8.264
 2674POPC   C3B35817  28.949   0.289   7.964
 2674POPC   C4B35818  28.941   0.333   7.664
 2675POPC   NC335819  15.923  29.941   9.464
 2675POPC   PO435820  15.958  29.880   9.164
 2675POPC   GL135821  15.961  29.899   8.864
 2675POPC   GL235822  15.922  29.806   8.864
 2675POPC   C1A35823  15.913  29.926   8.564
 2675POPC   D2A35824  16.002  29.965   8.264
 2675POPC   C3A35825  16.002  29.892   7.964
 2675POPC   C4A35826  15.922  29.917   7.664
 2675POPC   C1B35827  15.895  29.658   8.564
 2675POPC   C2B35828  15.965  29.653   8.264
 2675POPC   C3B35829  15.940  29.689   7.964
 2675POPC   C4B35830  15.972  29.718   7.664
 2676POPC   NC335831  19.104  40.791   9.464
 2676POPC   PO435832  19.102  40.777   9.164
 2676POPC   GL135833  19.099  40.767   8.864
 2676POPC   GL235834  18.971  40.905   8.864
 2676POPC   C1A35835  19.053  40.814   8.564
 2676POPC   D2A35836  19.026  40.774   8.264
 2676POPC   C3A35837  19.066  40.817   7.964
 2676POPC   C4A35838  19.010  40.826   7.664
 2676POPC   C1B35839  18.929  41.054   8.564
 2676POPC   C2B35840  18.938  41.042   8.264
 2676POPC   C3B35841  18.914  41.034   7.964
 2676POPC   C4B35842  18.903  40.976   7.664
 2677POPC   NC335843  19.046  27.577   9.464
 2677POPC   PO435844  19.084  27.627   9.164
 2677POPC   GL135845  19.076  27.618   8.864
 2677POPC   GL235846  18.960  27.546   8.864
 2677POPC   C1A35847  19.095  27.626   8.564
 2677POPC   D2A35848  19.084  27.569   8.264
 2677POPC   C3A35849  19.074  27.617   7.964
 2677POPC   C4A35850  19.012  27.569   7.664
 2677POPC   C1B35851  18.792  27.573   8.564
 2677POPC   C2B35852  18.846  27.604   8.264
 2677POPC   C3B35853  18.853  27.567   7.964
 2677POPC   C4B35854  18.787  27.567   7.664
 2678POPC   NC335855  23.680  12.840   9.464
 2678POPC   PO435856  23.761  12.897   9.164
 2678POPC   GL135857  23.753  12.863   8.864
 2678POPC   GL235858  23.725  13.021   8.864
 2678POPC   C1A35859  23.747  12.852   8.564
 2678POPC   D2A35860  23.733  12.884   8.264
 2678POPC   C3A35861  23.691  12.866   7.964
 2678POPC   C4A35862  23.721  12.846   7.664
 2678POPC   C1B35863  23.679  13.069   8.564
 2678POPC   C2B35864  23.660  13.061   8.264
 2678POPC   C3B35865  23.685  13.087   7.964
 2678POPC   C4B35866  23.680  13.092   7.664
 2679POPC   NC335867  29.939  10.533   9.464
 2679POPC   PO435868  29.886  10.566   9.164
 2679POPC   GL135869  29.935  10.509   8.864
 2679POPC   GL235870  30.053  10.472   8.864
 2679POPC   C1A35871  29.922  10.494   8.564
 2679POPC   D2A35872  29.897  10.500   8.264
 2679POPC   C3A35873  29.907  10.502   7.964
 2679POPC   C4A35874  29.935  10.548   7.664
 2679POPC   C1B35875  30.157  10.386   8.564
 2679POPC   C2B35876  30.171  10.394   8.264
 2679POPC   C3B35877  30.174  10.342   7.964
 2679POPC   C4B35878  30.113  10.427   7.664
 2680POPC   NC335879  13.669  13.663   9.464
 2680POPC   PO435880  13.638  13.636   9.164
 2680POPC   GL135881  13.630  13.589   8.864
 2680POPC   GL235882  13.664  13.532   8.864
 2680POPC   C1A35883  13.603  13.589   8.564
 2680POPC   D2A35884  13.588  13.584   8.264
 2680POPC   C3A35885  13.616  13.624   7.964
 2680POPC   C4A35886  13.609  13.624   7.664
 2680POPC   C1B35887  13.773  13.439   8.564
 2680POPC   C2B35888  13.840  13.402   8.264
 2680POPC   C3B35889  13.801  13.412   7.964
 2680POPC   C4B35890  13.830  13.462   7.664
 2681POPC   NC335891  23.682  31.436   9.464
 2681POPC   PO435892  23.736  31.476   9.164
 2681POPC   GL135893  23.723  31.486   8.864
 2681POPC   GL235894  23.816  31.556   8.864
 2681POPC   C1A35895  23.672  31.443   8.564
 2681POPC   D2A35896  23.761  31.471   8.264
 2681POPC   C3A35897  23.695  31.520   7.964
 2681POPC   C4A35898  23.696  31.457   7.664
 2681POPC   C1B35899  23.937  31.583   8.564
 2681POPC   C2B35900  23.925  31.581   8.264
 2681POPC   C3B35901  23.909  31.528   7.964
 2681POPC   C4B35902  23.923  31.528   7.664
 2682POPC   NC335903  36.906  15.971   9.464
 2682POPC   PO435904  36.854  15.913   9.164
 2682POPC   GL135905  36.910  15.989   8.864
 2682POPC   GL235906  36.828  15.974   8.864
 2682POPC   C1A35907  36.864  15.948   8.564
 2682POPC   D2A35908  36.882  15.943   8.264
 2682POPC   C3A35909  36.926  15.934   7.964
 2682POPC   C4A35910  36.875  15.935   7.664
 2682POPC   C1B35911  36.665  16.032   8.564
 2682POPC   C2B35912  36.638  16.063   8.264
 2682POPC   C3B35913  36.632  16.035   7.964
 2682POPC   C4B35914  36.645  16.086   7.664
 2683POPC   NC335915  21.420  21.436   9.464
 2683POPC   PO435916  21.411  21.357   9.164
 2683POPC   GL135917  21.379  21.372   8.864
 2683POPC   GL235918  21.409  21.291   8.864
 2683POPC   C1A35919  21.432  21.374   8.564
 2683POPC   D2A35920  21.412  21.431   8.264
 2683POPC   C3A35921  21.429  21.374   7.964
 2683POPC   C4A35922  21.356  21.417   7.664
 2683POPC   C1B35923  21.573  21.177   8.564
 2683POPC   C2B35924  21.571  21.209   8.264
 2683POPC   C3B35925  21.518  21.184   7.964
 2683POPC   C4B35926  21.548  21.192   7.664
 2684POPC   NC335927  41.535  27.567   9.464
 2684POPC   PO435928  41.582  27.578   9.164
 2684POPC   GL135929  41.527  27.589   8.864
 2684POPC   GL235930  41.482  27.533   8.864
 2684POPC   C1A35931  41.593  27.581   8.564
 2684POPC   D2A35932  41.592  27.615   8.264
 2684POPC   C3A35933  41.566  27.621   7.964
 2684POPC   C4A35934  41.539  27.619   7.664
 2684POPC   C1B35935  41.386  27.479   8.564
 2684POPC   C2B35936  41.310  27.493   8.264
 2684POPC   C3B35937  41.311  27.461   7.964
 2684POPC   C4B35938  41.370  27.462   7.664
 2685POPC   NC335939  10.488   5.125   9.464
 2685POPC   PO435940  10.493   5.045   9.164
 2685POPC   GL135941  10.548   5.122   8.864
 2685POPC   GL235942  10.398   5.190   8.864
 2685POPC   C1A35943  10.565   5.060   8.564
 2685POPC   D2A35944  10.566   5.106   8.264
 2685POPC   C3A35945  10.513   5.053   7.964
 2685POPC   C4A35946  10.489   5.089   7.664
 2685POPC   C1B35947  10.383   5.306   8.564
 2685POPC   C2B35948  10.370   5.281   8.264
 2685POPC   C3B35949  10.396   5.309   7.964
 2685POPC   C4B35950  10.319   5.258   7.664
 2686POPC   NC335951  29.124  16.765   9.464
 2686POPC   PO435952  29.113  16.774   9.164
 2686POPC   GL135953  29.159  16.691   8.864
 2686POPC   GL235954  29.268  16.762   8.864
 2686POPC   C1A35955  29.126  16.716   8.564
 2686POPC   D2A35956  29.146  16.778   8.264
 2686POPC   C3A35957  29.184  16.701   7.964
 2686POPC   C4A35958  29.192  16.686   7.664
 2686POPC   C1B35959  29.352  16.813   8.564
 2686POPC   C2B35960  29.361  16.851   8.264
 2686POPC   C3B35961  29.351  16.854   7.964
 2686POPC   C4B35962  29.314  16.862   7.664
 2687POPC   NC335963  29.946   1.230   9.464
 2687POPC   PO435964  29.935   1.222   9.164
 2687POPC   GL135965  29.964   1.220   8.864
 2687POPC   GL235966  30.022   1.162   8.864
 2687POPC   C1A35967  29.912   1.201   8.564
 2687POPC   D2A35968  29.936   1.235   8.264
 2687POPC   C3A35969  29.893   1.186   7.964
 2687POPC   C4A35970  29.928   1.227   7.664
 2687POPC   C1B35971  30.199   1.150   8.564
 2687POPC   C2B35972  30.134   1.167   8.264
 2687POPC   C3B35973  30.170   1.182   7.964
 2687POPC   C4B35974  30.115   1.199   7.664
 2688POPC   NC335975  29.911   9.783   9.464
 2688POPC   PO435976  29.932   9.747   9.164
 2688POPC   GL135977  29.929   9.736   8.864
 2688POPC   GL235978  30.009   9.856   8.864
 2688POPC   C1A35979  29.933   9.702   8.564
 2688POPC   D2A35980  29.934   9.746   8.264
 2688POPC   C3A35981  29.916   9.707   7.964
 2688POPC   C4A35982  29.928   9.714   7.664
 2688POPC   C1B35983  30.076   9.952   8.564
 2688POPC   C2B35984  30.031  10.012   8.264
 2688POPC   C3B35985  30.057   9.992   7.964
 2688POPC   C4B35986  30.015   9.990   7.664
 2689POPC   NC335987  11.311  27.552   9.464
 2689POPC   PO435988  11.325  27.603   9.164
 2689POPC   GL135989  11.285  27.610   8.864
 2689POPC   GL235990  11.208  27.595   8.864
 2689POPC   C1A35991  11.256  27.613   8.564
 2689POPC   D2A35992  11.256  27.586   8.264
 2689POPC   C3A35993  11.348  27.628   7.964
 2689POPC   C4A35994  11.328  27.572   7.664
 2689POPC   C1B35995  11.060  27.572   8.564
 2689POPC   C2B35996  11.008  27.570   8.264
 2689POPC   C3B35997  11.055  27.574   7.964
 2689POPC   C4B35998  11.030  27.592   7.664
 2690POPC   NC335999  23.742  24.470   9.464
 2690POPC   PO436000  23.742  24.455   9.164
 2690POPC   GL136001  23.739  24.507   8.864
 2690POPC   GL236002  23.598  24.439   8.864
 2690POPC   C1A36003  23.702  24.470   8.564
 2690POPC   D2A36004  23.673  24.502   8.264
 2690POPC   C3A36005  23.745  24.485   7.964
 2690POPC   C4A36006  23.693  24.498   7.664
 2690POPC   C1B36007  23.541  24.312   8.564
 2690POPC   C2B36008  23.564  24.372   8.264
 2690POPC   C3B36009  23.568  24.329   7.964
 2690POPC   C4B36010  23.508  24.348   7.664
 2691POPC   NC336011  28.373   2.022   9.464
 2691POPC   PO436012  28.325   2.020   9.164
 2691POPC   GL136013  28.413   2.038   8.864
 2691POPC   GL236014  28.433   1.920   8.864
 2691POPC   C1A36015  28.406   2.003   8.564
 2691POPC   D2A36016  28.348   1.957   8.264
 2691POPC   C3A36017  28.321   2.025   7.964
 2691POPC   C4A36018  28.330   2.021   7.664
 2691POPC   C1B36019  28.589   1.875   8.564
 2691POPC   C2B36020  28.573   1.814   8.264
 2691POPC   C3B36021  28.594   1.810   7.964
 2691POPC   C4B36022  28.619   1.816   7.664
 2692POPC   NC336023  25.279  33.785   9.464
 2692POPC   PO436024  25.258  33.766   9.164
 2692POPC   GL136025  25.289  33.817   8.864
 2692POPC   GL236026  25.155  33.728   8.864
 2692POPC   C1A36027  25.281  33.848   8.564
 2692POPC   D2A36028  25.280  33.803   8.264
 2692POPC   C3A36029  25.313  33.822   7.964
 2692POPC   C4A36030  25.239  33.836   7.664
 2692POPC   C1B36031  24.986  33.746   8.564
 2692POPC   C2B36032  24.978  33.710   8.264
 2692POPC   C3B36033  25.068  33.730   7.964
 2692POPC   C4B36034  25.005  33.731   7.664
 2693POPC   NC336035  22.958  40.821   9.464
 2693POPC   PO436036  22.963  40.782   9.164
 2693POPC   GL136037  22.965  40.779   8.864
 2693POPC   GL236038  22.764  40.826   8.864
 2693POPC   C1A36039  22.939  40.796   8.564
 2693POPC   D2A36040  22.949  40.768   8.264
 2693POPC   C3A36041  22.977  40.740   7.964
 2693POPC   C4A36042  22.903  40.812   7.664
 2693POPC   C1B36043  22.645  40.741   8.564
 2693POPC   C2B36044  22.648  40.788   8.264
 2693POPC   C3B36045  22.708  40.789   7.964
 2693POPC   C4B36046  22.722  40.731   7.664
 2694POPC   NC336047  32.284  23.732   9.464
 2694POPC   PO436048  32.211  23.735   9.164
 2694POPC   GL136049  32.267  23.671   8.864
 2694POPC   GL236050  32.313  23.603   8.864
 2694POPC   C1A36051  32.232  23.701   8.564
 2694POPC   D2A36052  32.292  23.725   8.264
 2694POPC   C3A36053  32.268  23.683   7.964
 2694POPC   C4A36054  32.241  23.695   7.664
 2694POPC   C1B36055  32.326  23.478   8.564
 2694POPC   C2B36056  32.307  23.499   8.264
 2694POPC   C3B36057  32.303  23.488   7.964
 2694POPC   C4B36058  32.302  23.483   7.664
 2695POPC   NC336059  13.656  15.170   9.464
 2695POPC   PO436060  13.590  15.185   9.164
 2695POPC   GL136061  13.663  15.192   8.864
 2695POPC   GL236062  13.706  15.313   8.864
 2695POPC   C1A36063  13.610  15.175   8.564
 2695POPC   D2A36064  13.588  15.199   8.264
 2695POPC   C3A36065  13.590  15.175   7.964
 2695POPC   C4A36066  13.664  15.174   7.664
 2695POPC   C1B36067  13.755  15.446   8.564
 2695POPC   C2B36068  13.782  15.364   8.264
 2695POPC   C3B36069  13.785  15.428   7.964
 2695POPC   C4B36070  13.756  15.406   7.664
 2696POPC   NC336071  14.437   5.860   9.464
 2696POPC   PO436072  14.369   5.884   9.164
 2696POPC   GL136073  14.391   5.822   8.864
 2696POPC   GL236074  14.531   5.969   8.864
 2696POPC   C1A36075  14.383   5.836   8.564
 2696POPC   D2A36076  14.444   5.852   8.264
 2696POPC   C3A36077  14.438   5.861   7.964
 2696POPC   C4A36078  14.396   5.891   7.664
 2696POPC   C1B36079  14.563   5.998   8.564
 2696POPC   C2B36080  14.574   6.047   8.264
 2696POPC   C3B36081  14.609   6.053   7.964
 2696POPC   C4B36082  14.569   6.023   7.664
 2697POPC   NC336083   7.456  20.564   9.464
 2697POPC   PO436084   7.423  20.570   9.164
 2697POPC   GL136085   7.374  20.628   8.864
 2697POPC   GL236086   7.302  20.573   8.864
 2697POPC   C1A36087   7.439  20.650   8.564
 2697POPC   D2A36088   7.450  20.586   8.264
 2697POPC   C3A36089   7.464  20.644   7.964
 2697POPC   C4A36090   7.396  20.581   7.664
 2697POPC   C1B36091   7.134  20.558   8.564
 2697POPC   C2B36092   7.136  20.538   8.264
 2697POPC   C3B36093   7.158  20.549   7.964
 2697POPC   C4B36094   7.212  20.562   7.664
 2698POPC   NC336095  40.769   0.425   9.464
 2698POPC   PO436096  40.737   0.467   9.164
 2698POPC   GL136097  40.826   0.417   8.864
 2698POPC   GL236098  40.676   0.501   8.864
 2698POPC   C1A36099  40.798   0.406   8.564
 2698POPC   D2A36100  40.806   0.394   8.264
 2698POPC   C3A36101  40.816   0.391   7.964
 2698POPC   C4A36102  40.800   0.472   7.664
 2698POPC   C1B36103  40.631   0.622   8.564
 2698POPC   C2B36104  40.571   0.614   8.264
 2698POPC   C3B36105  40.560   0.648   7.964
 2698POPC   C4B36106  40.575   0.571   7.664
 2699POPC   NC336107  16.742  18.242   9.464
 2699POPC   PO436108  16.683  18.262   9.164
 2699POPC   GL136109  16.683  18.280   8.864
 2699POPC   GL236110  16.620  18.224   8.864
 2699POPC   C1A36111  16.771  18.316   8.564
 2699POPC   D2A36112  16.741  18.313   8.264
 2699POPC   C3A36113  16.693  18.272   7.964
 2699POPC   C4A36114  16.698  18.279   7.664
 2699POPC   C1B36115  16.593  18.101   8.564
 2699POPC   C2B36116  16.543  18.062   8.264
 2699POPC   C3B36117  16.571  18.103   7.964
 2699POPC   C4B36118  16.528  18.101   7.664
 2700POPC   NC336119   0.451  41.593   9.464
 2700POPC   PO436120   0.398  41.517   9.164
 2700POPC   GL136121   0.421  41.582   8.864
 2700POPC   GL236122   0.566  41.503   8.864
 2700POPC   C1A36123   0.400  41.607   8.564
 2700POPC   D2A36124   0.452  41.569   8.264
 2700POPC   C3A36125   0.451  41.526   7.964
 2700POPC   C4A36126   0.474  41.596   7.664
 2700POPC   C1B36127   0.639  41.408   8.564
 2700POPC   C2B36128   0.604  41.452   8.264
 2700POPC   C3B36129   0.671  41.411   7.964
 2700POPC   C4B36130   0.601  41.400   7.664
 2701POPC   NC336131  29.159  37.632   9.464
 2701POPC   PO436132  29.133  37.724   9.164
 2701POPC   GL136133  29.151  37.683   8.864
 2701POPC   GL236134  29.110  37.555   8.864
 2701POPC   C1A36135  29.127  37.721   8.564
 2701POPC   D2A36136  29.177  37.637   8.264
 2701POPC   C3A36137  29.171  37.705   7.964
 2701POPC   C4A36138  29.183  37.665   7.664
 2701POPC   C1B36139  29.100  37.495   8.564
 2701POPC   C2B36140  29.049  37.470   8.264
 2701POPC   C3B36141  29.007  37.433   7.964
 2701POPC   C4B36142  29.033  37.483   7.664
 2702POPC   NC336143  34.571   2.721   9.464
 2702POPC   PO436144  34.585   2.748   9.164
 2702POPC   GL136145  34.567   2.780   8.864
 2702POPC   GL236146  34.675   2.761   8.864
 2702POPC   C1A36147  34.553   2.767   8.564
 2702POPC   D2A36148  34.554   2.717   8.264
 2702POPC   C3A36149  34.552   2.720   7.964
 2702POPC   C4A36150  34.570   2.797   7.664
 2702POPC   C1B36151  34.822   2.765   8.564
 2702POPC   C2B36152  34.851   2.833   8.264
 2702POPC   C3B36153  34.782   2.837   7.964
 2702POPC   C4B36154  34.825   2.820   7.664
 2703POPC   NC336155  22.910  15.915   9.464
 2703POPC   PO436156  22.976  15.943   9.164
 2703POPC   GL136157  22.956  16.002   8.864
 2703POPC   GL236158  23.024  15.977   8.864
 2703POPC   C1A36159  22.949  15.928   8.564
 2703POPC   D2A36160  22.959  15.921   8.264
 2703POPC   C3A36161  22.979  15.994   7.964
 2703POPC   C4A36162  22.972  15.946   7.664
 2703POPC   C1B36163  23.131  16.047   8.564
 2703POPC   C2B36164  23.127  16.092   8.264
 2703POPC   C3B36165  23.133  16.054   7.964
 2703POPC   C4B36166  23.163  16.104   7.664
 2704POPC   NC336167  19.101  42.375   9.464
 2704POPC   PO436168  19.048  42.303   9.164
 2704POPC   GL136169  19.026  42.372   8.864
 2704POPC   GL236170  19.002  42.446   8.864
 2704POPC   C1A36171  19.014  42.299   8.564
 2704POPC   D2A36172  19.105  42.289   8.264
 2704POPC   C3A36173  19.045  42.378   7.964
 2704POPC   C4A36174  19.106  42.285   7.664
 2704POPC   C1B36175  18.935  42.608   8.564
 2704POPC   C2B36176  19.020  42.527   8.264
 2704POPC   C3B36177  18.941  42.614   7.964
 2704POPC   C4B36178  18.966  42.551   7.664
 2705POPC   NC336179  33.041  32.273   9.464
 2705POPC   PO436180  33.049  32.245   9.164
 2705POPC   GL136181  33.005  32.204   8.864
 2705POPC   GL236182  33.116  32.321   8.864
 2705POPC   C1A36183  33.070  32.209   8.564
 2705POPC   D2A36184  33.044  32.280   8.264
 2705POPC   C3A36185  32.980  32.277   7.964
 2705POPC   C4A36186  33.063  32.219   7.664
 2705POPC   C1B36187  33.260  32.322   8.564
 2705POPC   C2B36188  33.243  32.405   8.264
 2705POPC   C3B36189  33.243  32.328   7.964
 2705POPC   C4B36190  33.264  32.352   7.664
 2706POPC   NC336191  12.894  20.656   9.464
 2706POPC   PO436192  12.874  20.650   9.164
 2706POPC   GL136193  12.832  20.656   8.864
 2706POPC   GL236194  12.997  20.549   8.864
 2706POPC   C1A36195  12.880  20.570   8.564
 2706POPC   D2A36196  12.874  20.615   8.264
 2706POPC   C3A36197  12.802  20.629   7.964
 2706POPC   C4A36198  12.896  20.627   7.664
 2706POPC   C1B36199  13.093  20.477   8.564
 2706POPC   C2B36200  13.035  20.523   8.264
 2706POPC   C3B36201  13.084  20.475   7.964
 2706POPC   C4B36202  13.084  20.481   7.664
 2707POPC   NC336203  44.685  18.235   9.464
 2707POPC   PO436204  44.702  18.303   9.164
 2707POPC   GL136205  44.669  18.315   8.864
 2707POPC   GL236206  44.545  18.248   8.864
 2707POPC   C1A36207  44.629  18.246   8.564
 2707POPC   D2A36208  44.655  18.272   8.264
 2707POPC   C3A36209  44.645  18.265   7.964
 2707POPC   C4A36210  44.632  18.261   7.664
 2707POPC   C1B36211  44.424  18.210   8.564
 2707POPC   C2B36212  44.445  18.207   8.264
 2707POPC   C3B36213  44.384  18.209   7.964
 2707POPC   C4B36214  44.421  18.208   7.664
 2708POPC   NC336215  29.883  19.834   9.464
 2708POPC   PO436216  29.940  19.845   9.164
 2708POPC   GL136217  29.887  19.828   8.864
 2708POPC   GL236218  29.970  20.006   8.864
 2708POPC   C1A36219  29.954  19.832   8.564
 2708POPC   D2A36220  29.921  19.814   8.264
 2708POPC   C3A36221  29.962  19.826   7.964
 2708POPC   C4A36222  29.967  19.797   7.664
 2708POPC   C1B36223  29.967  20.120   8.564
 2708POPC   C2B36224  29.983  20.075   8.264
 2708POPC   C3B36225  29.942  20.058   7.964
 2708POPC   C4B36226  29.945  20.086   7.664
 2709POPC   NC336227  15.939  20.576   9.464
 2709POPC   PO436228  15.930  20.568   9.164
 2709POPC   GL136229  15.921  20.563   8.864
 2709POPC   GL236230  15.828  20.546   8.864
 2709POPC   C1A36231  15.980  20.584   8.564
 2709POPC   D2A36232  15.960  20.573   8.264
 2709POPC   C3A36233  15.910  20.624   7.964
 2709POPC   C4A36234  15.954  20.634   7.664
 2709POPC   C1B36235  15.731  20.506   8.564
 2709POPC   C2B36236  15.734  20.561   8.264
 2709POPC   C3B36237  15.717  20.564   7.964
 2709POPC   C4B36238  15.716  20.575   7.664
 2710POPC   NC336239  19.811  27.574   9.464
 2710POPC   PO436240  19.833  27.568   9.164
 2710POPC   GL136241  19.830  27.544   8.864
 2710POPC   GL236242  19.978  27.707   8.864
 2710POPC   C1A36243  19.822  27.568   8.564
 2710POPC   D2A36244  19.793  27.544   8.264
 2710POPC   C3A36245  19.808  27.612   7.964
 2710POPC   C4A36246  19.818  27.617   7.664
 2710POPC   C1B36247  20.031  27.776   8.564
 2710POPC   C2B36248  20.057  27.779   8.264
 2710POPC   C3B36249  20.016  27.762   7.964
 2710POPC   C4B36250  20.022  27.712   7.664
 2711POPC   NC336251  40.772   5.086   9.464
 2711POPC   PO436252  40.770   5.114   9.164
 2711POPC   GL136253  40.759   5.107   8.864
 2711POPC   GL236254  40.842   5.207   8.864
 2711POPC   C1A36255  40.823   5.128   8.564
 2711POPC   D2A36256  40.783   5.067   8.264
 2711POPC   C3A36257  40.828   5.081   7.964
 2711POPC   C4A36258  40.807   5.053   7.664
 2711POPC   C1B36259  40.987   5.200   8.564
 2711POPC   C2B36260  40.956   5.252   8.264
 2711POPC   C3B36261  40.958   5.258   7.964
 2711POPC   C4B36262  41.012   5.187   7.664
 2712POPC   NC336263  21.368  38.479   9.464
 2712POPC   PO436264  21.431  38.494   9.164
 2712POPC   GL136265  21.435  38.425   8.864
 2712POPC   GL236266  21.542  38.508   8.864
 2712POPC   C1A36267  21.360  38.434   8.564
 2712POPC   D2A36268  21.370  38.431   8.264
 2712POPC   C3A36269  21.389  38.423   7.964
 2712POPC   C4A36270  21.350  38.461   7.664
 2712POPC   C1B36271  21.570  38.562   8.564
 2712POPC   C2B36272  21.562  38.556   8.264
 2712POPC   C3B36273  21.586  38.599   7.964
 2712POPC   C4B36274  21.619  38.544   7.664
 2713POPC   NC336275  36.155  16.693   9.464
 2713POPC   PO436276  36.116  16.735   9.164
 2713POPC   GL136277  36.115  16.712   8.864
 2713POPC   GL236278  36.014  16.640   8.864
 2713POPC   C1A36279  36.121  16.703   8.564
 2713POPC   D2A36280  36.127  16.728   8.264
 2713POPC   C3A36281  36.126  16.752   7.964
 2713POPC   C4A36282  36.138  16.708   7.664
 2713POPC   C1B36283  35.945  16.598   8.564
 2713POPC   C2B36284  35.990  16.545   8.264
 2713POPC   C3B36285  35.929  16.564   7.964
 2713POPC   C4B36286  35.899  16.592   7.664
 2714POPC   NC336287  27.615  20.656   9.464
 2714POPC   PO436288  27.550  20.615   9.164
 2714POPC   GL136289  27.608  20.595   8.864
 2714POPC   GL236290  27.550  20.687   8.864
 2714POPC   C1A36291  27.595  20.628   8.564
 2714POPC   D2A36292  27.556  20.593   8.264
 2714POPC   C3A36293  27.602  20.647   7.964
 2714POPC   C4A36294  27.567  20.632   7.664
 2714POPC   C1B36295  27.587  20.868   8.564
 2714POPC   C2B36296  27.557  20.857   8.264
 2714POPC   C3B36297  27.616  20.845   7.964
 2714POPC   C4B36298  27.601  20.844   7.664
 2715POPC   NC336299  25.310  42.384   9.464
 2715POPC   PO436300  25.237  42.321   9.164
 2715POPC   GL136301  25.224  42.365   8.864
 2715POPC   GL236302  25.318  42.411   8.864
 2715POPC   C1A36303  25.254  42.381   8.564
 2715POPC   D2A36304  25.287  42.295   8.264
 2715POPC   C3A36305  25.242  42.367   7.964
 2715POPC   C4A36306  25.309  42.310   7.664
 2715POPC   C1B36307  25.381  42.502   8.564
 2715POPC   C2B36308  25.392  42.589   8.264
 2715POPC   C3B36309  25.392  42.595   7.964
 2715POPC   C4B36310  25.358  42.514   7.664
 2716POPC   NC336311  26.850  24.445   9.464
 2716POPC   PO436312  26.803  24.523   9.164
 2716POPC   GL136313  26.859  24.443   8.864
 2716POPC   GL236314  26.896  24.575   8.864
 2716POPC   C1A36315  26.772  24.463   8.564
 2716POPC   D2A36316  26.825  24.530   8.264
 2716POPC   C3A36317  26.815  24.443   7.964
 2716POPC   C4A36318  26.798  24.457   7.664
 2716POPC   C1B36319  27.011  24.695   8.564
 2716POPC   C2B36320  27.013  24.632   8.264
 2716POPC   C3B36321  26.997  24.604   7.964
 2716POPC   C4B36322  27.038  24.641   7.664
 2717POPC   NC336323  24.527  28.382   9.464
 2717POPC   PO436324  24.463  28.402   9.164
 2717POPC   GL136325  24.484  28.347   8.864
 2717POPC   GL236326  24.412  28.462   8.864
 2717POPC   C1A36327  24.529  28.332   8.564
 2717POPC   D2A36328  24.517  28.383   8.264
 2717POPC   C3A36329  24.477  28.345   7.964
 2717POPC   C4A36330  24.468  28.319   7.664
 2717POPC   C1B36331  24.274  28.466   8.564
 2717POPC   C2B36332  24.276  28.489   8.264
 2717POPC   C3B36333  24.329  28.465   7.964
 2717POPC   C4B36334  24.324  28.518   7.664
 2718POPC   NC336335  43.066  44.624   9.464
 2718POPC   PO436336  43.079  44.648   9.164
 2718POPC   GL136337  43.137  44.669   8.864
 2718POPC   GL236338  43.180  44.806   8.864
 2718POPC   C1A36339  43.073  44.692   8.564
 2718POPC   D2A36340  43.098  44.650   8.264
 2718POPC   C3A36341  43.115  44.704   7.964
 2718POPC   C4A36342  43.144  44.647   7.664
 2718POPC   C1B36343  43.229  44.922   8.564
 2718POPC   C2B36344  43.188  44.863   8.264
 2718POPC   C3B36345  43.193  44.873   7.964
 2718POPC   C4B36346  43.186  44.880   7.664
 2719POPC   NC336347  44.648  27.599   9.464
 2719POPC   PO436348  44.638  27.625   9.164
 2719POPC   GL136349  44.617  27.603   8.864
 2719POPC   GL236350  44.538  27.635   8.864
 2719POPC   C1A36351  44.670  27.586   8.564
 2719POPC   D2A36352  44.612  27.568   8.264
 2719POPC   C3A36353  44.669  27.571   7.964
 2719POPC   C4A36354  44.649  27.583   7.664
 2719POPC   C1B36355  44.488  27.759   8.564
 2719POPC   C2B36356  44.427  27.756   8.264
 2719POPC   C3B36357  44.457  27.705   7.964
 2719POPC   C4B36358  44.483  27.719   7.664
 2720POPC   NC336359   5.855  30.718   9.464
 2720POPC   PO436360   5.906  30.732   9.164
 2720POPC   GL136361   5.910  30.732   8.864
 2720POPC   GL236362   5.742  30.650   8.864
 2720POPC   C1A36363   5.826  30.726   8.564
 2720POPC   D2A36364   5.850  30.689   8.264
 2720POPC   C3A36365   5.858  30.673   7.964
 2720POPC   C4A36366   5.833  30.670   7.664
 2720POPC   C1B36367   5.666  30.564   8.564
 2720POPC   C2B36368   5.713  30.578   8.264
 2720POPC   C3B36369   5.717  30.581   7.964
 2720POPC   C4B36370   5.628  30.525   7.664
 2721POPC   NC336371  26.065   4.336   9.464
 2721POPC   PO436372  26.087   4.333   9.164
 2721POPC   GL136373  26.063   4.330   8.864
 2721POPC   GL236374  26.127   4.168   8.864
 2721POPC   C1A36375  26.047   4.329   8.564
 2721POPC   D2A36376  26.083   4.296   8.264
 2721POPC   C3A36377  26.010   4.298   7.964
 2721POPC   C4A36378  26.010   4.333   7.664
 2721POPC   C1B36379  26.170   4.133   8.564
 2721POPC   C2B36380  26.142   4.098   8.264
 2721POPC   C3B36381  26.149   4.139   7.964
 2721POPC   C4B36382  26.127   4.111   7.664
 2722POPC   NC336383  22.138  44.690   9.464
 2722POPC   PO436384  22.113  44.613   9.164
 2722POPC   GL136385  22.185  44.667   8.864
 2722POPC   GL236386  22.078  44.581   8.864
 2722POPC   C1A36387  22.197  44.636   8.564
 2722POPC   D2A36388  22.149  44.670   8.264
 2722POPC   C3A36389  22.207  44.705   7.964
 2722POPC   C4A36390  22.188  44.625   7.664
 2722POPC   C1B36391  22.045  44.486   8.564
 2722POPC   C2B36392  22.026  44.474   8.264
 2722POPC   C3B36393  22.022  44.453   7.964
 2722POPC   C4B36394  22.044  44.464   7.664
 2723POPC   NC336395  14.416   1.236   9.464
 2723POPC   PO436396  14.393   1.199   9.164
 2723POPC   GL136397  14.387   1.214   8.864
 2723POPC   GL236398  14.483   1.146   8.864
 2723POPC   C1A36399  14.415   1.167   8.564
 2723POPC   D2A36400  14.402   1.183   8.264
 2723POPC   C3A36401  14.418   1.252   7.964
 2723POPC   C4A36402  14.361   1.256   7.664
 2723POPC   C1B36403  14.651   1.156   8.564
 2723POPC   C2B36404  14.675   1.174   8.264
 2723POPC   C3B36405  14.593   1.097   7.964
 2723POPC   C4B36406  14.659   1.133   7.664
 2724POPC   NC336407  33.064  26.816   9.464
 2724POPC   PO436408  33.004  26.865   9.164
 2724POPC   GL136409  33.036  26.768   8.864
 2724POPC   GL236410  33.185  26.839   8.864
 2724POPC   C1A36411  33.040  26.860   8.564
 2724POPC   D2A36412  33.035  26.796   8.264
 2724POPC   C3A36413  32.991  26.811   7.964
 2724POPC   C4A36414  32.980  26.835   7.664
 2724POPC   C1B36415  33.289  26.873   8.564
 2724POPC   C2B36416  33.258  26.898   8.264
 2724POPC   C3B36417  33.308  26.917   7.964
 2724POPC   C4B36418  33.231  26.924   7.664
 2725POPC   NC336419   2.028  19.022   9.464
 2725POPC   PO436420   2.025  19.106   9.164
 2725POPC   GL136421   2.001  19.010   8.864
 2725POPC   GL236422   2.090  19.091   8.864
 2725POPC   C1A36423   1.988  19.101   8.564
 2725POPC   D2A36424   1.961  19.057   8.264
 2725POPC   C3A36425   1.967  19.031   7.964
 2725POPC   C4A36426   2.013  19.057   7.664
 2725POPC   C1B36427   2.276  19.149   8.564
 2725POPC   C2B36428   2.245  19.172   8.264
 2725POPC   C3B36429   2.200  19.171   7.964
 2725POPC   C4B36430   2.215  19.148   7.664
 2726POPC   NC336431  33.055  39.258   9.464
 2726POPC   PO436432  33.049  39.188   9.164
 2726POPC   GL136433  33.072  39.214   8.864
 2726POPC   GL236434  32.914  39.327   8.864
 2726POPC   C1A36435  33.015  39.202   8.564
 2726POPC   D2A36436  33.028  39.274   8.264
 2726POPC   C3A36437  33.062  39.190   7.964
 2726POPC   C4A36438  33.013  39.233   7.664
 2726POPC   C1B36439  32.765  39.342   8.564
 2726POPC   C2B36440  32.768  39.346   8.264
 2726POPC   C3B36441  32.835  39.366   7.964
 2726POPC   C4B36442  32.761  39.339   7.664
 2727POPC   NC336443  16.703  29.188   9.464
 2727POPC   PO436444  16.773  29.166   9.164
 2727POPC   GL136445  16.733  29.129   8.864
 2727POPC   GL236446  16.842  29.081   8.864
 2727POPC   C1A36447  16.741  29.101   8.564
 2727POPC   D2A36448  16.728  29.129   8.264
 2727POPC   C3A36449  16.713  29.174   7.964
 2727POPC   C4A36450  16.695  29.122   7.664
 2727POPC   C1B36451  16.900  28.965   8.564
 2727POPC   C2B36452  16.832  28.925   8.264
 2727POPC   C3B36453  16.888  28.901   7.964
 2727POPC   C4B36454  16.907  28.973   7.664
 2728POPC   NC336455   3.571  29.875   9.464
 2728POPC   PO436456   3.544  29.953   9.164
 2728POPC   GL136457   3.504  29.879   8.864
 2728POPC   GL236458   3.597  29.852   8.864
 2728POPC   C1A36459   3.564  29.963   8.564
 2728POPC   D2A36460   3.564  29.926   8.264
 2728POPC   C3A36461   3.567  29.922   7.964
 2728POPC   C4A36462   3.517  29.887   7.664
 2728POPC   C1B36463   3.665  29.663   8.564
 2728POPC   C2B36464   3.636  29.738   8.264
 2728POPC   C3B36465   3.617  29.727   7.964
 2728POPC   C4B36466   3.673  29.674   7.664
 2729POPC   NC336467  30.693   6.664   9.464
 2729POPC   PO436468  30.743   6.650   9.164
 2729POPC   GL136469  30.744   6.633   8.864
 2729POPC   GL236470  30.602   6.603   8.864
 2729POPC   C1A36471  30.736   6.623   8.564
 2729POPC   D2A36472  30.677   6.662   8.264
 2729POPC   C3A36473  30.699   6.601   7.964
 2729POPC   C4A36474  30.682   6.633   7.664
 2729POPC   C1B36475  30.461   6.653   8.564
 2729POPC   C2B36476  30.402   6.665   8.264
 2729POPC   C3B36477  30.431   6.634   7.964
 2729POPC   C4B36478  30.410   6.662   7.664
 2730POPC   NC336479  12.882  27.614   9.464
 2730POPC   PO436480  12.845  27.641   9.164
 2730POPC   GL136481  12.872  27.561   8.864
 2730POPC   GL236482  12.741  27.648   8.864
 2730POPC   C1A36483  12.817  27.628   8.564
 2730POPC   D2A36484  12.806  27.626   8.264
 2730POPC   C3A36485  12.896  27.554   7.964
 2730POPC   C4A36486  12.885  27.619   7.664
 2730POPC   C1B36487  12.639  27.691   8.564
 2730POPC   C2B36488  12.649  27.707   8.264
 2730POPC   C3B36489  12.633  27.704   7.964
 2730POPC   C4B36490  12.643  27.734   7.664
 2731POPC   NC336491  13.640  19.819   9.464
 2731POPC   PO436492  13.677  19.834   9.164
 2731POPC   GL136493  13.623  19.824   8.864
 2731POPC   GL236494  13.670  19.968   8.864
 2731POPC   C1A36495  13.664  19.826   8.564
 2731POPC   D2A36496  13.642  19.796   8.264
 2731POPC   C3A36497  13.620  19.858   7.964
 2731POPC   C4A36498  13.607  19.843   7.664
 2731POPC   C1B36499  13.729  20.036   8.564
 2731POPC   C2B36500  13.796  20.083   8.264
 2731POPC   C3B36501  13.709  20.013   7.964
 2731POPC   C4B36502  13.762  20.064   7.664
 2732POPC   NC336503   8.188   0.391   9.464
 2732POPC   PO436504   8.152   0.399   9.164
 2732POPC   GL136505   8.241   0.456   8.864
 2732POPC   GL236506   8.362   0.451   8.864
 2732POPC   C1A36507   8.192   0.482   8.564
 2732POPC   D2A36508   8.233   0.413   8.264
 2732POPC   C3A36509   8.149   0.407   7.964
 2732POPC   C4A36510   8.197   0.426   7.664
 2732POPC   C1B36511   8.426   0.465   8.564
 2732POPC   C2B36512   8.420   0.446   8.264
 2732POPC   C3B36513   8.492   0.504   7.964
 2732POPC   C4B36514   8.493   0.468   7.664
 2733POPC   NC336515  33.791  14.368   9.464
 2733POPC   PO436516  33.757  14.415   9.164
 2733POPC   GL136517  33.825  14.450   8.864
 2733POPC   GL236518  33.822  14.505   8.864
 2733POPC   C1A36519  33.770  14.434   8.564
 2733POPC   D2A36520  33.778  14.355   8.264
 2733POPC   C3A36521  33.788  14.356   7.964
 2733POPC   C4A36522  33.839  14.449   7.664
 2733POPC   C1B36523  33.766  14.654   8.564
 2733POPC   C2B36524  33.801  14.608   8.264
 2733POPC   C3B36525  33.742  14.679   7.964
 2733POPC   C4B36526  33.732  14.606   7.664
 2734POPC   NC336527  22.949  17.528   9.464
 2734POPC   PO436528  22.909  17.502   9.164
 2734POPC   GL136529  22.921  17.480   8.864
 2734POPC   GL236530  23.054  17.581   8.864
 2734POPC   C1A36531  22.892  17.552   8.564
 2734POPC   D2A36532  22.970  17.538   8.264
 2734POPC   C3A36533  22.955  17.539   7.964
 2734POPC   C4A36534  22.892  17.463   7.664
 2734POPC   C1B36535  23.163  17.556   8.564
 2734POPC   C2B36536  23.149  17.598   8.264
 2734POPC   C3B36537  23.137  17.608   7.964
 2734POPC   C4B36538  23.188  17.624   7.664
 2735POPC   NC336539  42.358  23.708   9.464
 2735POPC   PO436540  42.332  23.739   9.164
 2735POPC   GL136541  42.294  23.689   8.864
 2735POPC   GL236542  42.441  23.779   8.864
 2735POPC   C1A36543  42.343  23.719   8.564
 2735POPC   D2A36544  42.307  23.743   8.264
 2735POPC   C3A36545  42.334  23.762   7.964
 2735POPC   C4A36546  42.373  23.698   7.664
 2735POPC   C1B36547  42.483  23.969   8.564
 2735POPC   C2B36548  42.488  23.938   8.264
 2735POPC   C3B36549  42.438  23.900   7.964
 2735POPC   C4B36550  42.479  23.919   7.664
 2736POPC   NC336551  40.739  15.984   9.464
 2736POPC   PO436552  40.802  15.918   9.164
 2736POPC   GL136553  40.800  15.965   8.864
 2736POPC   GL236554  40.889  15.875   8.864
 2736POPC   C1A36555  40.829  15.974   8.564
 2736POPC   D2A36556  40.753  15.953   8.264
 2736POPC   C3A36557  40.778  15.909   7.964
 2736POPC   C4A36558  40.781  15.915   7.664
 2736POPC   C1B36559  41.001  15.813   8.564
 2736POPC   C2B36560  40.921  15.745   8.264
 2736POPC   C3B36561  40.922  15.788   7.964
 2736POPC   C4B36562  40.972  15.734   7.664
 2737POPC   NC336563  41.580   1.238   9.464
 2737POPC   PO436564  41.543   1.243   9.164
 2737POPC   GL136565  41.549   1.252   8.864
 2737POPC   GL236566  41.438   1.089   8.864
 2737POPC   C1A36567  41.522   1.213   8.564
 2737POPC   D2A36568  41.573   1.199   8.264
 2737POPC   C3A36569  41.565   1.263   7.964
 2737POPC   C4A36570  41.535   1.180   7.664
 2737POPC   C1B36571  41.397   1.017   8.564
 2737POPC   C2B36572  41.369   1.036   8.264
 2737POPC   C3B36573  41.329   1.027   7.964
 2737POPC   C4B36574  41.329   1.103   7.664
 2738POPC   NC336575  22.207   7.432   9.464
 2738POPC   PO436576  22.179   7.451   9.164
 2738POPC   GL136577  22.151   7.371   8.864
 2738POPC   GL236578  22.228   7.292   8.864
 2738POPC   C1A36579  22.146   7.430   8.564
 2738POPC   D2A36580  22.136   7.414   8.264
 2738POPC   C3A36581  22.121   7.403   7.964
 2738POPC   C4A36582  22.161   7.372   7.664
 2738POPC   C1B36583  22.264   7.241   8.564
 2738POPC   C2B36584  22.284   7.173   8.264
 2738POPC   C3B36585  22.258   7.207   7.964
 2738POPC   C4B36586  22.256   7.234   7.664
 2739POPC   NC336587  26.825   6.630   9.464
 2739POPC   PO436588  26.773   6.677   9.164
 2739POPC   GL136589  26.814   6.605   8.864
 2739POPC   GL236590  26.881   6.752   8.864
 2739POPC   C1A36591  26.856   6.603   8.564
 2739POPC   D2A36592  26.818   6.691   8.264
 2739POPC   C3A36593  26.805   6.669   7.964
 2739POPC   C4A36594  26.830   6.657   7.664
 2739POPC   C1B36595  26.892   6.875   8.564
 2739POPC   C2B36596  26.869   6.861   8.264
 2739POPC   C3B36597  26.863   6.885   7.964
 2739POPC   C4B36598  26.881   6.865   7.664
 2740POPC   NC336599   4.283  19.039   9.464
 2740POPC   PO436600   4.298  19.019   9.164
 2740POPC   GL136601   4.273  19.056   8.864
 2740POPC   GL236602   4.395  18.976   8.864
 2740POPC   C1A36603   4.293  19.103   8.564
 2740POPC   D2A36604   4.296  19.077   8.264
 2740POPC   C3A36605   4.291  19.026   7.964
 2740POPC   C4A36606   4.284  19.054   7.664
 2740POPC   C1B36607   4.446  18.885   8.564
 2740POPC   C2B36608   4.480  18.828   8.264
 2740POPC   C3B36609   4.471  18.817   7.964
 2740POPC   C4B36610   4.423  18.901   7.664
 2741POPC   NC336611  43.078  16.690   9.464
 2741POPC   PO436612  43.099  16.722   9.164
 2741POPC   GL136613  43.075  16.767   8.864
 2741POPC   GL236614  43.239  16.680   8.864
 2741POPC   C1A36615  43.079  16.755   8.564
 2741POPC   D2A36616  43.100  16.711   8.264
 2741POPC   C3A36617  43.076  16.687   7.964
 2741POPC   C4A36618  43.145  16.701   7.664
 2741POPC   C1B36619  43.298  16.620   8.564
 2741POPC   C2B36620  43.325  16.647   8.264
 2741POPC   C3B36621  43.358  16.597   7.964
 2741POPC   C4B36622  43.387  16.670   7.664
 2742POPC   NC336623  28.364  43.153   9.464
 2742POPC   PO436624  28.371  43.077   9.164
 2742POPC   GL136625  28.325  43.118   8.864
 2742POPC   GL236626  28.247  43.195   8.864
 2742POPC   C1A36627  28.321  43.142   8.564
 2742POPC   D2A36628  28.341  43.095   8.264
 2742POPC   C3A36629  28.328  43.137   7.964
 2742POPC   C4A36630  28.346  43.090   7.664
 2742POPC   C1B36631  28.180  43.293   8.564
 2742POPC   C2B36632  28.202  43.275   8.264
 2742POPC   C3B36633  28.192  43.281   7.964
 2742POPC   C4B36634  28.148  43.307   7.664
 2743POPC   NC336635  22.160  40.749   9.464
 2743POPC   PO436636  22.200  40.790   9.164
 2743POPC   GL136637  22.195  40.831   8.864
 2743POPC   GL236638  22.125  40.925   8.864
 2743POPC   C1A36639  22.194  40.796   8.564
 2743POPC   D2A36640  22.145  40.746   8.264
 2743POPC   C3A36641  22.160  40.739   7.964
 2743POPC   C4A36642  22.113  40.776   7.664
 2743POPC   C1B36643  22.173  41.001   8.564
 2743POPC   C2B36644  22.106  40.982   8.264
 2743POPC   C3B36645  22.132  41.080   7.964
 2743POPC   C4B36646  22.143  41.010   7.664
 2744POPC   NC336647   6.652  12.060   9.464
 2744POPC   PO436648   6.677  12.115   9.164
 2744POPC   GL136649   6.682  12.031   8.864
 2744POPC   GL236650   6.665  12.185   8.864
 2744POPC   C1A36651   6.672  12.097   8.564
 2744POPC   D2A36652   6.686  12.123   8.264
 2744POPC   C3A36653   6.694  12.052   7.964
 2744POPC   C4A36654   6.635  12.107   7.664
 2744POPC   C1B36655   6.665  12.354   8.564
 2744POPC   C2B36656   6.630  12.301   8.264
 2744POPC   C3B36657   6.631  12.286   7.964
 2744POPC   C4B36658   6.610  12.354   7.664
 2745POPC   NC336659  32.271  40.736   9.464
 2745POPC   PO436660  32.240  40.759   9.164
 2745POPC   GL136661  32.258  40.754   8.864
 2745POPC   GL236662  32.178  40.728   8.864
 2745POPC   C1A36663  32.290  40.829   8.564
 2745POPC   D2A36664  32.267  40.791   8.264
 2745POPC   C3A36665  32.226  40.779   7.964
 2745POPC   C4A36666  32.223  40.781   7.664
 2745POPC   C1B36667  32.071  40.562   8.564
 2745POPC   C2B36668  32.059  40.628   8.264
 2745POPC   C3B36669  32.073  40.608   7.964
 2745POPC   C4B36670  32.123  40.635   7.664
 2746POPC   NC336671   2.746  30.717   9.464
 2746POPC   PO436672   2.736  30.722   9.164
 2746POPC   GL136673   2.724  30.706   8.864
 2746POPC   GL236674   2.785  30.852   8.864
 2746POPC   C1A36675   2.761  30.729   8.564
 2746POPC   D2A36676   2.749  30.735   8.264
 2746POPC   C3A36677   2.780  30.656   7.964
 2746POPC   C4A36678   2.765  30.708   7.664
 2746POPC   C1B36679   2.822  30.930   8.564
 2746POPC   C2B36680   2.847  30.912   8.264
 2746POPC   C3B36681   2.840  30.930   7.964
 2746POPC   C4B36682   2.822  30.967   7.664
 2747POPC   NC336683  44.691  15.974   9.464
 2747POPC   PO436684  44.699  15.992   9.164
 2747POPC   GL136685  44.706  15.923   8.864
 2747POPC   GL236686  44.719  16.037   8.864
 2747POPC   C1A36687  44.694  15.994   8.564
 2747POPC   D2A36688  44.685  16.002   8.264
 2747POPC   C3A36689  44.682  15.955   7.964
 2747POPC   C4A36690  44.636  15.938   7.664
 2747POPC   C1B36691  44.836  16.052   8.564
 2747POPC   C2B36692  44.920  16.130   8.264
 2747POPC   C3B36693  44.843  16.103   7.964
 2747POPC   C4B36694  44.902  16.045   7.664
 2748POPC   NC336695  29.182  18.252   9.464
 2748POPC   PO436696  29.132  18.274   9.164
 2748POPC   GL136697  29.170  18.313   8.864
 2748POPC   GL236698  29.131  18.150   8.864
 2748POPC   C1A36699  29.135  18.269   8.564
 2748POPC   D2A36700  29.140  18.317   8.264
 2748POPC   C3A36701  29.170  18.286   7.964
 2748POPC   C4A36702  29.108  18.257   7.664
 2748POPC   C1B36703  29.130  18.044   8.564
 2748POPC   C2B36704  29.143  18.054   8.264
 2748POPC   C3B36705  29.067  18.005   7.964
 2748POPC   C4B36706  29.130  18.073   7.664
 2749POPC   NC336707  13.635  42.376   9.464
 2749POPC   PO436708  13.600  42.367   9.164
 2749POPC   GL136709  13.641  42.343   8.864
 2749POPC   GL236710  13.730  42.237   8.864
 2749POPC   C1A36711  13.659  42.359   8.564
 2749POPC   D2A36712  13.675  42.292   8.264
 2749POPC   C3A36713  13.675  42.309   7.964
 2749POPC   C4A36714  13.602  42.349   7.664
 2749POPC   C1B36715  13.782  42.156   8.564
 2749POPC   C2B36716  13.744  42.183   8.264
 2749POPC   C3B36717  13.767  42.095   7.964
 2749POPC   C4B36718  13.778  42.172   7.664
 2750POPC   NC336719   1.214  40.802   9.464
 2750POPC   PO436720   1.190  40.831   9.164
 2750POPC   GL136721   1.172  40.831   8.864
 2750POPC   GL236722   1.336  40.907   8.864
 2750POPC   C1A36723   1.178  40.736   8.564
 2750POPC   D2A36724   1.235  40.795   8.264
 2750POPC   C3A36725   1.214  40.778   7.964
 2750POPC   C4A36726   1.243  40.806   7.664
 2750POPC   C1B36727   1.386  40.979   8.564
 2750POPC   C2B36728   1.376  40.942   8.264
 2750POPC   C3B36729   1.358  40.930   7.964
 2750POPC   C4B36730   1.413  40.933   7.664
 2751POPC   NC336731  27.558  22.987   9.464
 2751POPC   PO436732  27.631  22.971   9.164
 2751POPC   GL136733  27.610  22.952   8.864
 2751POPC   GL236734  27.664  22.794   8.864
 2751POPC   C1A36735  27.554  22.927   8.564
 2751POPC   D2A36736  27.641  22.901   8.264
 2751POPC   C3A36737  27.561  22.906   7.964
 2751POPC   C4A36738  27.578  22.895   7.664
 2751POPC   C1B36739  27.707  22.710   8.564
 2751POPC   C2B36740  27.690  22.701   8.264
 2751POPC   C3B36741  27.683  22.686   7.964
 2751POPC   C4B36742  27.708  22.718   7.664
 2752POPC   NC336743  36.937   4.351   9.464
 2752POPC   PO436744  36.879   4.329   9.164
 2752POPC   GL136745  36.866   4.349   8.864
 2752POPC   GL236746  36.837   4.264   8.864
 2752POPC   C1A36747  36.952   4.352   8.564
 2752POPC   D2A36748  36.860   4.336   8.264
 2752POPC   C3A36749  36.878   4.338   7.964
 2752POPC   C4A36750  36.869   4.317   7.664
 2752POPC   C1B36751  36.787   4.114   8.564
 2752POPC   C2B36752  36.720   4.080   8.264
 2752POPC   C3B36753  36.702   4.104   7.964
 2752POPC   C4B36754  36.711   4.149   7.664
 2753POPC   NC336755  26.845  11.330   9.464
 2753POPC   PO436756  26.811  11.311   9.164
 2753POPC   GL136757  26.815  11.277   8.864
 2753POPC   GL236758  26.882  11.376   8.864
 2753POPC   C1A36759  26.777  11.255   8.564
 2753POPC   D2A36760  26.799  11.262   8.264
 2753POPC   C3A36761  26.782  11.316   7.964
 2753POPC   C4A36762  26.832  11.326   7.664
 2753POPC   C1B36763  26.925  11.526   8.564
 2753POPC   C2B36764  26.969  11.478   8.264
 2753POPC   C3B36765  26.959  11.520   7.964
 2753POPC   C4B36766  26.896  11.565   7.664
 2754POPC   NC336767   5.863   8.943   9.464
 2754POPC   PO436768   5.832   8.938   9.164
 2754POPC   GL136769   5.885   8.931   8.864
 2754POPC   GL236770   5.813   9.093   8.864
 2754POPC   C1A36771   5.875   8.924   8.564
 2754POPC   D2A36772   5.867   9.010   8.264
 2754POPC   C3A36773   5.905   8.973   7.964
 2754POPC   C4A36774   5.914   9.009   7.664
 2754POPC   C1B36775   5.811   9.189   8.564
 2754POPC   C2B36776   5.751   9.158   8.264
 2754POPC   C3B36777   5.774   9.203   7.964
 2754POPC   C4B36778   5.811   9.231   7.664
 2755POPC   NC336779  17.470  36.158   9.464
 2755POPC   PO436780  17.528  36.170   9.164
 2755POPC   GL136781  17.473  36.175   8.864
 2755POPC   GL236782  17.381  36.156   8.864
 2755POPC   C1A36783  17.548  36.084   8.564
 2755POPC   D2A36784  17.490  36.143   8.264
 2755POPC   C3A36785  17.538  36.098   7.964
 2755POPC   C4A36786  17.479  36.088   7.664
 2755POPC   C1B36787  17.232  36.196   8.564
 2755POPC   C2B36788  17.267  36.196   8.264
 2755POPC   C3B36789  17.326  36.220   7.964
 2755POPC   C4B36790  17.290  36.250   7.664
 2756POPC   NC336791   5.879   1.975   9.464
 2756POPC   PO436792   5.844   1.968   9.164
 2756POPC   GL136793   5.847   2.039   8.864
 2756POPC   GL236794   5.754   1.976   8.864
 2756POPC   C1A36795   5.891   2.024   8.564
 2756POPC   D2A36796   5.918   1.963   8.264
 2756POPC   C3A36797   5.869   1.987   7.964
 2756POPC   C4A36798   5.885   1.998   7.664
 2756POPC   C1B36799   5.639   2.001   8.564
 2756POPC   C2B36800   5.573   2.010   8.264
 2756POPC   C3B36801   5.659   1.934   7.964
 2756POPC   C4B36802   5.631   1.982   7.664
 2757POPC   NC336803  20.581   0.435   9.464
 2757POPC   PO436804  20.596   0.446   9.164
 2757POPC   GL136805  20.569   0.441   8.864
 2757POPC   GL236806  20.521   0.440   8.864
 2757POPC   C1A36807  20.586   0.409   8.564
 2757POPC   D2A36808  20.611   0.412   8.264
 2757POPC   C3A36809  20.652   0.488   7.964
 2757POPC   C4A36810  20.641   0.461   7.664
 2757POPC   C1B36811  20.327   0.383   8.564
 2757POPC   C2B36812  20.344   0.323   8.264
 2757POPC   C3B36813  20.411   0.316   7.964
 2757POPC   C4B36814  20.390   0.397   7.664
 2758POPC   NC336815  37.715  31.490   9.464
 2758POPC   PO436816  37.728  31.459   9.164
 2758POPC   GL136817  37.670  31.496   8.864
 2758POPC   GL236818  37.755  31.407   8.864
 2758POPC   C1A36819  37.656  31.473   8.564
 2758POPC   D2A36820  37.679  31.433   8.264
 2758POPC   C3A36821  37.717  31.502   7.964
 2758POPC   C4A36822  37.691  31.481   7.664
 2758POPC   C1B36823  37.792  31.272   8.564
 2758POPC   C2B36824  37.881  31.274   8.264
 2758POPC   C3B36825  37.834  31.290   7.964
 2758POPC   C4B36826  37.856  31.276   7.664
 2759POPC   NC336827  22.913  33.018   9.464
 2759POPC   PO436828  22.952  33.013   9.164
 2759POPC   GL136829  22.936  33.019   8.864
 2759POPC   GL236830  22.997  32.930   8.864
 2759POPC   C1A36831  22.907  33.030   8.564
 2759POPC   D2A36832  22.963  32.986   8.264
 2759POPC   C3A36833  22.955  33.011   7.964
 2759POPC   C4A36834  22.925  33.040   7.664
 2759POPC   C1B36835  23.030  32.833   8.564
 2759POPC   C2B36836  23.024  32.798   8.264
 2759POPC   C3B36837  23.017  32.806   7.964
 2759POPC   C4B36838  23.074  32.750   7.664
 2760POPC   NC336839  28.346  20.569   9.464
 2760POPC   PO436840  28.399  20.590   9.164
 2760POPC   GL136841  28.323  20.630   8.864
 2760POPC   GL236842  28.373  20.484   8.864
 2760POPC   C1A36843  28.367  20.631   8.564
 2760POPC   D2A36844  28.355  20.562   8.264
 2760POPC   C3A36845  28.392  20.589   7.964
 2760POPC   C4A36846  28.323  20.649   7.664
 2760POPC   C1B36847  28.359  20.365   8.564
 2760POPC   C2B36848  28.351  20.313   8.264
 2760POPC   C3B36849  28.400  20.381   7.964
 2760POPC   C4B36850  28.333  20.371   7.664
 2761POPC   NC336851  36.092  42.355   9.464
 2761POPC   PO436852  36.165  42.289   9.164
 2761POPC   GL136853  36.172  42.337   8.864
 2761POPC   GL236854  36.001  42.381   8.864
 2761POPC   C1A36855  36.143  42.382   8.564
 2761POPC   D2A36856  36.127  42.376   8.264
 2761POPC   C3A36857  36.160  42.337   7.964
 2761POPC   C4A36858  36.134  42.375   7.664
 2761POPC   C1B36859  35.863  42.423   8.564
 2761POPC   C2B36860  35.861  42.447   8.264
 2761POPC   C3B36861  35.869  42.420   7.964
 2761POPC   C4B36862  35.935  42.403   7.664
 2762POPC   NC336863  15.941  25.301   9.464
 2762POPC   PO436864  15.939  25.256   9.164
 2762POPC   GL136865  15.997  25.313   8.864
 2762POPC   GL236866  15.984  25.169   8.864
 2762POPC   C1A36867  15.912  25.295   8.564
 2762POPC   D2A36868  15.929  25.281   8.264
 2762POPC   C3A36869  15.996  25.220   7.964
 2762POPC   C4A36870  15.947  25.242   7.664
 2762POPC   C1B36871  15.918  24.989   8.564
 2762POPC   C2B36872  15.906  24.974   8.264
 2762POPC   C3B36873  15.918  25.038   7.964
 2762POPC   C4B36874  15.890  24.982   7.664
 2763POPC   NC336875  17.540  15.152   9.464
 2763POPC   PO436876  17.526  15.196   9.164
 2763POPC   GL136877  17.553  15.180   8.864
 2763POPC   GL236878  17.589  15.313   8.864
 2763POPC   C1A36879  17.503  15.220   8.564
 2763POPC   D2A36880  17.483  15.186   8.264
 2763POPC   C3A36881  17.505  15.192   7.964
 2763POPC   C4A36882  17.511  15.194   7.664
 2763POPC   C1B36883  17.560  15.449   8.564
 2763POPC   C2B36884  17.554  15.460   8.264
 2763POPC   C3B36885  17.636  15.440   7.964
 2763POPC   C4B36886  17.562  15.422   7.664
 2764POPC   NC336887  43.096  23.669   9.464
 2764POPC   PO436888  43.068  23.715   9.164
 2764POPC   GL136889  43.141  23.729   8.864
 2764POPC   GL236890  43.116  23.626   8.864
 2764POPC   C1A36891  43.061  23.668   8.564
 2764POPC   D2A36892  43.133  23.715   8.264
 2764POPC   C3A36893  43.082  23.755   7.964
 2764POPC   C4A36894  43.083  23.747   7.664
 2764POPC   C1B36895  43.095  23.489   8.564
 2764POPC   C2B36896  43.076  23.475   8.264
 2764POPC   C3B36897  43.121  23.466   7.964
 2764POPC   C4B36898  43.097  23.462   7.664
 2765POPC   NC336899  19.881  29.105   9.464
 2765POPC   PO436900  19.802  29.134   9.164
 2765POPC   GL136901  19.795  29.174   8.864
 2765POPC   GL236902  19.818  29.285   8.864
 2765POPC   C1A36903  19.883  29.176   8.564
 2765POPC   D2A36904  19.838  29.121   8.264
 2765POPC   C3A36905  19.831  29.130   7.964
 2765POPC   C4A36906  19.855  29.118   7.664
 2765POPC   C1B36907  19.708  29.361   8.564
 2765POPC   C2B36908  19.738  29.409   8.264
 2765POPC   C3B36909  19.685  29.357   7.964
 2765POPC   C4B36910  19.693  29.349   7.664
 2766POPC   NC336911   1.259  43.876   9.464
 2766POPC   PO436912   1.242  43.925   9.164
 2766POPC   GL136913   1.196  43.837   8.864
 2766POPC   GL236914   1.086  43.960   8.864
 2766POPC   C1A36915   1.255  43.875   8.564
 2766POPC   D2A36916   1.255  43.849   8.264
 2766POPC   C3A36917   1.203  43.872   7.964
 2766POPC   C4A36918   1.224  43.913   7.664
 2766POPC   C1B36919   1.018  43.986   8.564
 2766POPC   C2B36920   1.013  43.971   8.264
 2766POPC   C3B36921   1.008  43.983   7.964
 2766POPC   C4B36922   0.985  43.989   7.664
 2767POPC   NC336923  33.836  27.615   9.464
 2767POPC   PO436924  33.832  27.552   9.164
 2767POPC   GL136925  33.816  27.631   8.864
 2767POPC   GL236926  33.908  27.543   8.864
 2767POPC   C1A36927  33.812  27.617   8.564
 2767POPC   D2A36928  33.812  27.603   8.264
 2767POPC   C3A36929  33.800  27.626   7.964
 2767POPC   C4A36930  33.813  27.573   7.664
 2767POPC   C1B36931  33.950  27.405   8.564
 2767POPC   C2B36932  33.924  27.431   8.264
 2767POPC   C3B36933  33.918  27.437   7.964
 2767POPC   C4B36934  33.971  27.434   7.664
 2768POPC   NC336935  38.418   1.224   9.464
 2768POPC   PO436936  38.435   1.184   9.164
 2768POPC   GL136937  38.416   1.249   8.864
 2768POPC   GL236938  38.380   1.100   8.864
 2768POPC   C1A36939  38.446   1.202   8.564
 2768POPC   D2A36940  38.459   1.166   8.264
 2768POPC   C3A36941  38.442   1.195   7.964
 2768POPC   C4A36942  38.475   1.168   7.664
 2768POPC   C1B36943  38.347   1.015   8.564
 2768POPC   C2B36944  38.372   1.012   8.264
 2768POPC   C3B36945  38.295   0.960   7.964
 2768POPC   C4B36946  38.360   0.966   7.664
 2769POPC   NC336947  43.137   4.352   9.464
 2769POPC   PO436948  43.155   4.331   9.164
 2769POPC   GL136949  43.102   4.296   8.864
 2769POPC   GL236950  43.043   4.176   8.864
 2769POPC   C1A36951  43.081   4.288   8.564
 2769POPC   D2A36952  43.085   4.328   8.264
 2769POPC   C3A36953  43.100   4.328   7.964
 2769POPC   C4A36954  43.071   4.351   7.664
 2769POPC   C1B36955  42.925   4.112   8.564
 2769POPC   C2B36956  42.939   4.173   8.264
 2769POPC   C3B36957  42.948   4.132   7.964
 2769POPC   C4B36958  42.961   4.129   7.664
 2770POPC   NC336959   3.537  27.554   9.464
 2770POPC   PO436960   3.518  27.570   9.164
 2770POPC   GL136961   3.558  27.552   8.864
 2770POPC   GL236962   3.662  27.473   8.864
 2770POPC   C1A36963   3.518  27.551   8.564
 2770POPC   D2A36964   3.551  27.582   8.264
 2770POPC   C3A36965   3.551  27.559   7.964
 2770POPC   C4A36966   3.511  27.574   7.664
 2770POPC   C1B36967   3.667  27.406   8.564
 2770POPC   C2B36968   3.755  27.368   8.264
 2770POPC   C3B36969   3.665  27.421   7.964
 2770POPC   C4B36970   3.724  27.412   7.664
 2771POPC   NC336971  12.090  19.040   9.464
 2771POPC   PO436972  12.053  19.088   9.164
 2771POPC   GL136973  12.113  19.099   8.864
 2771POPC   GL236974  12.130  18.920   8.864
 2771POPC   C1A36975  12.037  19.091   8.564
 2771POPC   D2A36976  12.108  19.075   8.264
 2771POPC   C3A36977  12.071  19.027   7.964
 2771POPC   C4A36978  12.037  19.059   7.664
 2771POPC   C1B36979  12.190  18.902   8.564
 2771POPC   C2B36980  12.193  18.816   8.264
 2771POPC   C3B36981  12.228  18.828   7.964
 2771POPC   C4B36982  12.254  18.898   7.664
 2772POPC   NC336983  37.724   9.733   9.464
 2772POPC   PO436984  37.659   9.757   9.164
 2772POPC   GL136985  37.685   9.768   8.864
 2772POPC   GL236986  37.666   9.879   8.864
 2772POPC   C1A36987  37.649   9.731   8.564
 2772POPC   D2A36988  37.705   9.774   8.264
 2772POPC   C3A36989  37.720   9.754   7.964
 2772POPC   C4A36990  37.636   9.720   7.664
 2772POPC   C1B36991  37.642   9.960   8.564
 2772POPC   C2B36992  37.630  10.017   8.264
 2772POPC   C3B36993  37.599  10.006   7.964
 2772POPC   C4B36994  37.600   9.975   7.664
 2773POPC   NC336995  39.959   7.424   9.464
 2773POPC   PO436996  40.024   7.466   9.164
 2773POPC   GL136997  39.992   7.422   8.864
 2773POPC   GL236998  40.135   7.366   8.864
 2773POPC   C1A36999  40.000   7.374   8.564
 2773POPC   D2A37000  40.050   7.396   8.264
 2773POPC   C3A37001  40.046   7.423   7.964
 2773POPC   C4A37002  40.016   7.422   7.664
 2773POPC   C1B37003  40.175   7.327   8.564
 2773POPC   C2B37004  40.231   7.326   8.264
 2773POPC   C3B37005  40.235   7.305   7.964
 2773POPC   C4B37006  40.205   7.316   7.664
 2774POPC   NC337007  21.363   5.073   9.464
 2774POPC   PO437008  21.430   5.048   9.164
 2774POPC   GL137009  21.435   5.087   8.864
 2774POPC   GL237010  21.294   4.934   8.864
 2774POPC   C1A37011  21.402   5.061   8.564
 2774POPC   D2A37012  21.378   5.111   8.264
 2774POPC   C3A37013  21.426   5.123   7.964
 2774POPC   C4A37014  21.341   5.052   7.664
 2774POPC   C1B37015  21.275   4.877   8.564
 2774POPC   C2B37016  21.287   4.908   8.264
 2774POPC   C3B37017  21.281   4.818   7.964
 2774POPC   C4B37018  21.327   4.819   7.664
 2775POPC   NC337019   1.240  29.930   9.464
 2775POPC   PO437020   1.222  29.922   9.164
 2775POPC   GL137021   1.189  29.883   8.864
 2775POPC   GL237022   1.110  29.824   8.864
 2775POPC   C1A37023   1.179  29.937   8.564
 2775POPC   D2A37024   1.260  29.891   8.264
 2775POPC   C3A37025   1.227  29.901   7.964
 2775POPC   C4A37026   1.232  29.949   7.664
 2775POPC   C1B37027   1.007  29.764   8.564
 2775POPC   C2B37028   1.044  29.702   8.264
 2775POPC   C3B37029   1.018  29.709   7.964
 2775POPC   C4B37030   1.085  29.748   7.664
 2776POPC   NC337031   3.561   8.160   9.464
 2776POPC   PO437032   3.568   8.188   9.164
 2776POPC   GL137033   3.542   8.172   8.864
 2776POPC   GL237034   3.427   8.293   8.864
 2776POPC   C1A37035   3.498   8.171   8.564
 2776POPC   D2A37036   3.583   8.232   8.264
 2776POPC   C3A37037   3.528   8.199   7.964
 2776POPC   C4A37038   3.557   8.173   7.664
 2776POPC   C1B37039   3.352   8.332   8.564
 2776POPC   C2B37040   3.394   8.332   8.264
 2776POPC   C3B37041   3.332   8.398   7.964
 2776POPC   C4B37042   3.330   8.335   7.664
 2777POPC   NC337043   2.717  39.261   9.464
 2777POPC   PO437044   2.758  39.227   9.164
 2777POPC   GL137045   2.759  39.249   8.864
 2777POPC   GL237046   2.703  39.155   8.864
 2777POPC   C1A37047   2.758  39.222   8.564
 2777POPC   D2A37048   2.752  39.200   8.264
 2777POPC   C3A37049   2.743  39.246   7.964
 2777POPC   C4A37050   2.721  39.221   7.664
 2777POPC   C1B37051   2.598  39.039   8.564
 2777POPC   C2B37052   2.582  39.053   8.264
 2777POPC   C3B37053   2.603  39.016   7.964
 2777POPC   C4B37054   2.624  38.992   7.664
 2778POPC   NC337055   1.252  33.006   9.464
 2778POPC   PO437056   1.199  32.987   9.164
 2778POPC   GL137057   1.176  32.990   8.864
 2778POPC   GL237058   1.105  32.908   8.864
 2778POPC   C1A37059   1.219  32.980   8.564
 2778POPC   D2A37060   1.237  33.045   8.264
 2778POPC   C3A37061   1.236  32.984   7.964
 2778POPC   C4A37062   1.199  33.064   7.664
 2778POPC   C1B37063   1.036  32.813   8.564
 2778POPC   C2B37064   1.064  32.856   8.264
 2778POPC   C3B37065   1.094  32.809   7.964
 2778POPC   C4B37066   1.075  32.841   7.664
 2779POPC   NC337067   6.694   6.623   9.464
 2779POPC   PO437068   6.628   6.646   9.164
 2779POPC   GL137069   6.602   6.657   8.864
 2779POPC   GL237070   6.740   6.608   8.864
 2779POPC   C1A37071   6.607   6.683   8.564
 2779POPC   D2A37072   6.615   6.612   8.264
 2779POPC   C3A37073   6.604   6.634   7.964
 2779POPC   C4A37074   6.666   6.626   7.664
 2779POPC   C1B37075   6.873   6.611   8.564
 2779POPC   C2B37076   6.905   6.661   8.264
 2779POPC   C3B37077   6.939   6.680   7.964
 2779POPC   C4B37078   6.931   6.689   7.664
 2780POPC   NC337079   0.473  20.625   9.464
 2780POPC   PO437080   0.444  20.617   9.164
 2780POPC   GL137081   0.414  20.637   8.864
 2780POPC   GL237082   0.437  20.756   8.864
 2780POPC   C1A37083   0.437  20.627   8.564
 2780POPC   D2A37084   0.434  20.613   8.264
 2780POPC   C3A37085   0.437  20.598   7.964
 2780POPC   C4A37086   0.479  20.648   7.664
 2780POPC   C1B37087   0.345  20.796   8.564
 2780POPC   C2B37088   0.327  20.849   8.264
 2780POPC   C3B37089   0.318  20.866   7.964
 2780POPC   C4B37090   0.318  20.886   7.664
 2781POPC   NC337091   2.728  43.102   9.464
 2781POPC   PO437092   2.718  43.063   9.164
 2781POPC   GL137093   2.781  43.076   8.864
 2781POPC   GL237094   2.831  43.067   8.864
 2781POPC   C1A37095   2.747  43.145   8.564
 2781POPC   D2A37096   2.774  43.071   8.264
 2781POPC   C3A37097   2.800  43.110   7.964
 2781POPC   C4A37098   2.730  43.131   7.664
 2781POPC   C1B37099   2.906  42.887   8.564
 2781POPC   C2B37100   2.947  42.964   8.264
 2781POPC   C3B37101   2.982  42.957   7.964
 2781POPC   C4B37102   2.987  42.944   7.664
 2782POPC   NC337103  40.047   5.886   9.464
 2782POPC   PO437104  39.966   5.886   9.164
 2782POPC   GL137105  40.031   5.860   8.864
 2782POPC   GL237106  39.899   5.950   8.864
 2782POPC   C1A37107  40.008   5.827   8.564
 2782POPC   D2A37108  39.970   5.863   8.264
 2782POPC   C3A37109  40.003   5.830   7.964
 2782POPC   C4A37110  40.031   5.864   7.664
 2782POPC   C1B37111  39.733   5.970   8.564
 2782POPC   C2B37112  39.747   5.921   8.264
 2782POPC   C3B37113  39.763   5.965   7.964
 2782POPC   C4B37114  39.741   5.962   7.664
 2783POPC   NC337115  31.450  23.736   9.464
 2783POPC   PO437116  31.435  23.760   9.164
 2783POPC   GL137117  31.461  23.702   8.864
 2783POPC   GL237118  31.567  23.597   8.864
 2783POPC   C1A37119  31.510  23.711   8.564
 2783POPC   D2A37120  31.488  23.694   8.264
 2783POPC   C3A37121  31.440  23.761   7.964
 2783POPC   C4A37122  31.483  23.762   7.664
 2783POPC   C1B37123  31.599  23.498   8.564
 2783POPC   C2B37124  31.569  23.465   8.264
 2783POPC   C3B37125  31.625  23.518   7.964
 2783POPC   C4B37126  31.632  23.519   7.664
 2784POPC   NC337127   4.274  34.550   9.464
 2784POPC   PO437128   4.313  34.606   9.164
 2784POPC   GL137129   4.292  34.530   8.864
 2784POPC   GL237130   4.338  34.486   8.864
 2784POPC   C1A37131   4.304  34.588   8.564
 2784POPC   D2A37132   4.268  34.556   8.264
 2784POPC   C3A37133   4.328  34.543   7.964
 2784POPC   C4A37134   4.296  34.553   7.664
 2784POPC   C1B37135   4.302  34.317   8.564
 2784POPC   C2B37136   4.248  34.339   8.264
 2784POPC   C3B37137   4.317  34.349   7.964
 2784POPC   C4B37138   4.266  34.350   7.664
 2785POPC   NC337139  26.013   0.449   9.464
 2785POPC   PO437140  26.028   0.422   9.164
 2785POPC   GL137141  26.041   0.466   8.864
 2785POPC   GL237142  25.980   0.498   8.864
 2785POPC   C1A37143  26.050   0.399   8.564
 2785POPC   D2A37144  25.994   0.433   8.264
 2785POPC   C3A37145  26.054   0.468   7.964
 2785POPC   C4A37146  26.068   0.428   7.664
 2785POPC   C1B37147  25.858   0.633   8.564
 2785POPC   C2B37148  25.917   0.676   8.264
 2785POPC   C3B37149  25.920   0.654   7.964
 2785POPC   C4B37150  25.910   0.594   7.664
 2786POPC   NC337151  33.779   2.000   9.464
 2786POPC   PO437152  33.837   1.960   9.164
 2786POPC   GL137153  33.789   1.971   8.864
 2786POPC   GL237154  33.724   1.920   8.864
 2786POPC   C1A37155  33.839   2.019   8.564
 2786POPC   D2A37156  33.776   2.014   8.264
 2786POPC   C3A37157  33.760   2.024   7.964
 2786POPC   C4A37158  33.776   2.021   7.664
 2786POPC   C1B37159  33.576   1.885   8.564
 2786POPC   C2B37160  33.593   1.864   8.264
 2786POPC   C3B37161  33.619   1.905   7.964
 2786POPC   C4B37162  33.637   1.889   7.664
 2787POPC   NC337163   0.478  28.407   9.464
 2787POPC   PO437164   0.419  28.360   9.164
 2787POPC   GL137165   0.413  28.384   8.864
 2787POPC   GL237166   0.326  28.468   8.864
 2787POPC   C1A37167   0.404  28.396   8.564
 2787POPC   D2A37168   0.424  28.348   8.264
 2787POPC   C3A37169   0.409  28.357   7.964
 2787POPC   C4A37170   0.413  28.319   7.664
 2787POPC   C1B37171   0.344  28.613   8.564
 2787POPC   C2B37172   0.301  28.533   8.264
 2787POPC   C3B37173   0.303  28.571   7.964
 2787POPC   C4B37174   0.316  28.595   7.664
 2788POPC   NC337175  29.893  27.615   9.464
 2788POPC   PO437176  29.883  27.633   9.164
 2788POPC   GL137177  29.879  27.546   8.864
 2788POPC   GL237178  29.989  27.716   8.864
 2788POPC   C1A37179  29.900  27.554   8.564
 2788POPC   D2A37180  29.926  27.554   8.264
 2788POPC   C3A37181  29.889  27.560   7.964
 2788POPC   C4A37182  29.938  27.566   7.664
 2788POPC   C1B37183  29.977  27.797   8.564
 2788POPC   C2B37184  29.939  27.862   8.264
 2788POPC   C3B37185  30.013  27.808   7.964
 2788POPC   C4B37186  29.952  27.857   7.664
 2789POPC   NC337187   9.741  44.697   9.464
 2789POPC   PO437188   9.739  44.668   9.164
 2789POPC   GL137189   9.724  44.669   8.864
 2789POPC   GL237190   9.725  44.505   8.864
 2789POPC   C1A37191   9.744  44.628   8.564
 2789POPC   D2A37192   9.763  44.706   8.264
 2789POPC   C3A37193   9.773  44.615   7.964
 2789POPC   C4A37194   9.720  44.628   7.664
 2789POPC   C1B37195   9.665  44.427   8.564
 2789POPC   C2B37196   9.707  44.442   8.264
 2789POPC   C3B37197   9.698  44.459   7.964
 2789POPC   C4B37198   9.645  44.419   7.664
 2790POPC   NC337199  10.475  13.653   9.464
 2790POPC   PO437200  10.572  13.607   9.164
 2790POPC   GL137201  10.531  13.662   8.864
 2790POPC   GL237202  10.666  13.701   8.864
 2790POPC   C1A37203  10.516  13.673   8.564
 2790POPC   D2A37204  10.505  13.627   8.264
 2790POPC   C3A37205  10.532  13.656   7.964
 2790POPC   C4A37206  10.479  13.641   7.664
 2790POPC   C1B37207  10.743  13.779   8.564
 2790POPC   C2B37208  10.746  13.762   8.264
 2790POPC   C3B37209  10.781  13.748   7.964
 2790POPC   C4B37210  10.762  13.700   7.664
 2791POPC   NC337211  42.328  16.693   9.464
 2791POPC   PO437212  42.333  16.692   9.164
 2791POPC   GL137213  42.313  16.707   8.864
 2791POPC   GL237214  42.369  16.870   8.864
 2791POPC   C1A37215  42.383  16.684   8.564
 2791POPC   D2A37216  42.357  16.719   8.264
 2791POPC   C3A37217  42.290  16.697   7.964
 2791POPC   C4A37218  42.366  16.727   7.664
 2791POPC   C1B37219  42.517  16.876   8.564
 2791POPC   C2B37220  42.540  16.950   8.264
 2791POPC   C3B37221  42.517  16.900   7.964
 2791POPC   C4B37222  42.535  16.952   7.664
 2792POPC   NC337223  43.891  43.889   9.464
 2792POPC   PO437224  43.895  43.922   9.164
 2792POPC   GL137225  43.857  43.891   8.864
 2792POPC   GL237226  43.909  43.991   8.864
 2792POPC   C1A37227  43.905  43.878   8.564
 2792POPC   D2A37228  43.899  43.933   8.264
 2792POPC   C3A37229  43.890  43.900   7.964
 2792POPC   C4A37230  43.873  43.915   7.664
 2792POPC   C1B37231  43.830  44.176   8.564
 2792POPC   C2B37232  43.890  44.167   8.264
 2792POPC   C3B37233  43.901  44.087   7.964
 2792POPC   C4B37234  43.845  44.160   7.664
 2793POPC   NC337235  22.948  18.326   9.464
 2793POPC   PO437236  22.908  18.237   9.164
 2793POPC   GL137237  22.952  18.277   8.864
 2793POPC   GL237238  22.850  18.370   8.864
 2793POPC   C1A37239  22.942  18.286   8.564
 2793POPC   D2A37240  22.897  18.327   8.264
 2793POPC   C3A37241  22.915  18.250   7.964
 2793POPC   C4A37242  22.941  18.325   7.664
 2793POPC   C1B37243  22.701  18.448   8.564
 2793POPC   C2B37244  22.695  18.442   8.264
 2793POPC   C3B37245  22.743  18.425   7.964
 2793POPC   C4B37246  22.745  18.464   7.664
 2794POPC   NC337247   0.416  22.967   9.464
 2794POPC   PO437248   0.417  22.888   9.164
 2794POPC   GL137249   0.464  22.964   8.864
 2794POPC   GL237250   0.585  22.859   8.864
 2794POPC   C1A37251   0.411  22.979   8.564
 2794POPC   D2A37252   0.479  22.948   8.264
 2794POPC   C3A37253   0.471  22.963   7.964
 2794POPC   C4A37254   0.476  22.900   7.664
 2794POPC   C1B37255   0.662  22.803   8.564
 2794POPC   C2B37256   0.628  22.889   8.264
 2794POPC   C3B37257   0.676  22.831   7.964
 2794POPC   C4B37258   0.625  22.806   7.664
 2795POPC   NC337259  34.566  15.199   9.464
 2795POPC   PO437260  34.591  15.189   9.164
 2795POPC   GL137261  34.539  15.169   8.864
 2795POPC   GL237262  34.451  15.268   8.864
 2795POPC   C1A37263  34.530  15.193   8.564
 2795POPC   D2A37264  34.624  15.196   8.264
 2795POPC   C3A37265  34.608  15.187   7.964
 2795POPC   C4A37266  34.543  15.134   7.664
 2795POPC   C1B37267  34.313  15.327   8.564
 2795POPC   C2B37268  34.336  15.328   8.264
 2795POPC   C3B37269  34.377  15.309   7.964
 2795POPC   C4B37270  34.323  15.288   7.664
 2796POPC   NC337271   6.682  15.996   9.464
 2796POPC   PO437272   6.611  15.951   9.164
 2796POPC   GL137273   6.662  15.932   8.864
 2796POPC   GL237274   6.662  16.094   8.864
 2796POPC   C1A37275   6.652  15.957   8.564
 2796POPC   D2A37276   6.683  15.941   8.264
 2796POPC   C3A37277   6.694  15.966   7.964
 2796POPC   C4A37278   6.675  15.952   7.664
 2796POPC   C1B37279   6.619  16.227   8.564
 2796POPC   C2B37280   6.675  16.181   8.264
 2796POPC   C3B37281   6.665  16.201   7.964
 2796POPC   C4B37282   6.669  16.228   7.664
 2797POPC   NC337283  28.340  14.430   9.464
 2797POPC   PO437284  28.373  14.429   9.164
 2797POPC   GL137285  28.368  14.405   8.864
 2797POPC   GL237286  28.362  14.534   8.864
 2797POPC   C1A37287  28.415  14.444   8.564
 2797POPC   D2A37288  28.321  14.408   8.264
 2797POPC   C3A37289  28.325  14.412   7.964
 2797POPC   C4A37290  28.329  14.422   7.664
 2797POPC   C1B37291  28.292  14.600   8.564
 2797POPC   C2B37292  28.239  14.623   8.264
 2797POPC   C3B37293  28.230  14.592   7.964
 2797POPC   C4B37294  28.263  14.636   7.664
 2798POPC   NC337295   4.322  35.353   9.464
 2798POPC   PO437296   4.276  35.319   9.164
 2798POPC   GL137297   4.275  35.396   8.864
 2798POPC   GL237298   4.357  35.419   8.864
 2798POPC   C1A37299   4.351  35.310   8.564
 2798POPC   D2A37300   4.274  35.391   8.264
 2798POPC   C3A37301   4.335  35.381   7.964
 2798POPC   C4A37302   4.329  35.316   7.664
 2798POPC   C1B37303   4.453  35.514   8.564
 2798POPC   C2B37304   4.482  35.524   8.264
 2798POPC   C3B37305   4.453  35.534   7.964
 2798POPC   C4B37306   4.509  35.578   7.664
 2799POPC   NC337307  31.456  22.900   9.464
 2799POPC   PO437308  31.509  22.957   9.164
 2799POPC   GL137309  31.486  22.953   8.864
 2799POPC   GL237310  31.405  22.899   8.864
 2799POPC   C1A37311  31.435  22.967   8.564
 2799POPC   D2A37312  31.482  22.892   8.264
 2799POPC   C3A37313  31.440  22.947   7.964
 2799POPC   C4A37314  31.472  22.961   7.664
 2799POPC   C1B37315  31.246  22.746   8.564
 2799POPC   C2B37316  31.281  22.788   8.264
 2799POPC   C3B37317  31.267  22.826   7.964
 2799POPC   C4B37318  31.270  22.748   7.664
 2800POPC   NC337319  17.492  15.967   9.464
 2800POPC   PO437320  17.518  15.948   9.164
 2800POPC   GL137321  17.467  15.973   8.864
 2800POPC   GL237322  17.528  16.099   8.864
 2800POPC   C1A37323  17.552  15.918   8.564
 2800POPC   D2A37324  17.480  15.964   8.264
 2800POPC   C3A37325  17.458  15.912   7.964
 2800POPC   C4A37326  17.466  15.953   7.664
 2800POPC   C1B37327  17.596  16.229   8.564
 2800POPC   C2B37328  17.554  16.174   8.264
 2800POPC   C3B37329  17.629  16.220   7.964
 2800POPC   C4B37330  17.544  16.177   7.664
 2801POPC   NC337331  10.478  26.842   9.464
 2801POPC   PO437332  10.533  26.840   9.164
 2801POPC   GL137333  10.505  26.777   8.864
 2801POPC   GL237334  10.656  26.895   8.864
 2801POPC   C1A37335  10.489  26.794   8.564
 2801POPC   D2A37336  10.572  26.837   8.264
 2801POPC   C3A37337  10.541  26.857   7.964
 2801POPC   C4A37338  10.560  26.835   7.664
 2801POPC   C1B37339  10.727  26.962   8.564
 2801POPC   C2B37340  10.713  26.991   8.264
 2801POPC   C3B37341  10.666  26.992   7.964
 2801POPC   C4B37342  10.749  27.015   7.664
 2802POPC   NC337343   9.720  29.168   9.464
 2802POPC   PO437344   9.749  29.185   9.164
 2802POPC   GL137345   9.713  29.170   8.864
 2802POPC   GL237346   9.782  29.258   8.864
 2802POPC   C1A37347   9.699  29.172   8.564
 2802POPC   D2A37348   9.727  29.096   8.264
 2802POPC   C3A37349   9.728  29.147   7.964
 2802POPC   C4A37350   9.760  29.124   7.664
 2802POPC   C1B37351   9.794  29.375   8.564
 2802POPC   C2B37352   9.721  29.418   8.264
 2802POPC   C3B37353   9.803  29.357   7.964
 2802POPC   C4B37354   9.807  29.386   7.664
 2803POPC   NC337355  20.646  20.577   9.464
 2803POPC   PO437356  20.657  20.625   9.164
 2803POPC   GL137357  20.621  20.601   8.864
 2803POPC   GL237358  20.545  20.697   8.864
 2803POPC   C1A37359  20.629  20.598   8.564
 2803POPC   D2A37360  20.644  20.658   8.264
 2803POPC   C3A37361  20.651  20.630   7.964
 2803POPC   C4A37362  20.619  20.644   7.664
 2803POPC   C1B37363  20.522  20.839   8.564
 2803POPC   C2B37364  20.513  20.813   8.264
 2803POPC   C3B37365  20.507  20.785   7.964
 2803POPC   C4B37366  20.538  20.861   7.664
 2804POPC   NC337367  38.439   3.567   9.464
 2804POPC   PO437368  38.435   3.505   9.164
 2804POPC   GL137369  38.494   3.544   8.864
 2804POPC   GL237370  38.561   3.613   8.864
 2804POPC   C1A37371  38.456   3.538   8.564
 2804POPC   D2A37372  38.462   3.498   8.264
 2804POPC   C3A37373  38.468   3.540   7.964
 2804POPC   C4A37374  38.420   3.519   7.664
 2804POPC   C1B37375  38.650   3.704   8.564
 2804POPC   C2B37376  38.626   3.731   8.264
 2804POPC   C3B37377  38.607   3.740   7.964
 2804POPC   C4B37378  38.652   3.696   7.664
 2805POPC   NC337379  11.262  16.719   9.464
 2805POPC   PO437380  11.323  16.709   9.164
 2805POPC   GL137381  11.298  16.691   8.864
 2805POPC   GL237382  11.425  16.775   8.864
 2805POPC   C1A37383  11.345  16.776   8.564
 2805POPC   D2A37384  11.343  16.754   8.264
 2805POPC   C3A37385  11.306  16.724   7.964
 2805POPC   C4A37386  11.252  16.730   7.664
 2805POPC   C1B37387  11.523  16.851   8.564
 2805POPC   C2B37388  11.507  16.853   8.264
 2805POPC   C3B37389  11.458  16.894   7.964
 2805POPC   C4B37390  11.460  16.872   7.664
 2806POPC   NC337391  12.835  33.807   9.464
 2806POPC   PO437392  12.899  33.803   9.164
 2806POPC   GL137393  12.882  33.779   8.864
 2806POPC   GL237394  12.786  33.728   8.864
 2806POPC   C1A37395  12.858  33.821   8.564
 2806POPC   D2A37396  12.834  33.845   8.264
 2806POPC   C3A37397  12.833  33.828   7.964
 2806POPC   C4A37398  12.841  33.817   7.664
 2806POPC   C1B37399  12.796  33.545   8.564
 2806POPC   C2B37400  12.843  33.578   8.264
 2806POPC   C3B37401  12.765  33.577   7.964
 2806POPC   C4B37402  12.795  33.603   7.664
 2807POPC   NC337403  19.849  12.082   9.464
 2807POPC   PO437404  19.862  12.074   9.164
 2807POPC   GL137405  19.880  12.067   8.864
 2807POPC   GL237406  19.884  11.996   8.864
 2807POPC   C1A37407  19.833  12.081   8.564
 2807POPC   D2A37408  19.876  12.031   8.264
 2807POPC   C3A37409  19.796  12.091   7.964
 2807POPC   C4A37410  19.879  12.090   7.664
 2807POPC   C1B37411  19.873  11.800   8.564
 2807POPC   C2B37412  19.936  11.799   8.264
 2807POPC   C3B37413  19.864  11.875   7.964
 2807POPC   C4B37414  19.920  11.837   7.664
 2808POPC   NC337415  28.364  12.066   9.464
 2808POPC   PO437416  28.391  12.037   9.164
 2808POPC   GL137417  28.415  12.043   8.864
 2808POPC   GL237418  28.411  11.936   8.864
 2808POPC   C1A37419  28.410  12.031   8.564
 2808POPC   D2A37420  28.338  12.026   8.264
 2808POPC   C3A37421  28.375  12.032   7.964
 2808POPC   C4A37422  28.393  12.076   7.664
 2808POPC   C1B37423  28.406  11.796   8.564
 2808POPC   C2B37424  28.402  11.816   8.264
 2808POPC   C3B37425  28.451  11.824   7.964
 2808POPC   C4B37426  28.422  11.787   7.664
 2809POPC   NC337427   9.715  26.012   9.464
 2809POPC   PO437428   9.795  26.088   9.164
 2809POPC   GL137429   9.778  26.056   8.864
 2809POPC   GL237430   9.729  26.209   8.864
 2809POPC   C1A37431   9.720  26.023   8.564
 2809POPC   D2A37432   9.710  26.090   8.264
 2809POPC   C3A37433   9.797  26.058   7.964
 2809POPC   C4A37434   9.782  26.080   7.664
 2809POPC   C1B37435   9.683  26.277   8.564
 2809POPC   C2B37436   9.697  26.260   8.264
 2809POPC   C3B37437   9.696  26.308   7.964
 2809POPC   C4B37438   9.754  26.241   7.664
 2810POPC   NC337439  17.489  10.530   9.464
 2810POPC   PO437440  17.522  10.514   9.164
 2810POPC   GL137441  17.475  10.504   8.864
 2810POPC   GL237442  17.584  10.450   8.864
 2810POPC   C1A37443  17.508  10.526   8.564
 2810POPC   D2A37444  17.470  10.526   8.264
 2810POPC   C3A37445  17.538  10.567   7.964
 2810POPC   C4A37446  17.548  10.481   7.664
 2810POPC   C1B37447  17.755  10.473   8.564
 2810POPC   C2B37448  17.732  10.400   8.264
 2810POPC   C3B37449  17.705  10.427   7.964
 2810POPC   C4B37450  17.746  10.461   7.664
 2811POPC   NC337451  44.703  43.071   9.464
 2811POPC   PO437452  44.636  43.143   9.164
 2811POPC   GL137453  44.695  43.063   8.864
 2811POPC   GL237454  44.753  43.187   8.864
 2811POPC   C1A37455  44.617  43.117   8.564
 2811POPC   D2A37456  44.694  43.086   8.264
 2811POPC   C3A37457  44.700  43.081   7.964
 2811POPC   C4A37458  44.672  43.079   7.664
 2811POPC   C1B37459  44.865  43.207   8.564
 2811POPC   C2B37460  44.885  43.165   8.264
 2811POPC   C3B37461  44.872  43.222   7.964
 2811POPC   C4B37462  44.898  43.173   7.664
 2812POPC   NC337463  12.027   5.885   9.464
 2812POPC   PO437464  12.108   5.863   9.164
 2812POPC   GL137465  12.079   5.902   8.864
 2812POPC   GL237466  12.203   5.932   8.864
 2812POPC   C1A37467  12.042   5.858   8.564
 2812POPC   D2A37468  12.047   5.877   8.264
 2812POPC   C3A37469  12.053   5.886   7.964
 2812POPC   C4A37470  12.085   5.848   7.664
 2812POPC   C1B37471  12.340   5.870   8.564
 2812POPC   C2B37472  12.286   5.885   8.264
 2812POPC   C3B37473  12.348   5.901   7.964
 2812POPC   C4B37474  12.318   5.938   7.664
 2813POPC   NC337475  44.684  24.498   9.464
 2813POPC   PO437476  44.634  24.488   9.164
 2813POPC   GL137477  44.635  24.495   8.864
 2813POPC   GL237478  44.730  24.569   8.864
 2813POPC   C1A37479  44.621  24.450   8.564
 2813POPC   D2A37480  44.702  24.496   8.264
 2813POPC   C3A37481  44.634  24.453   7.964
 2813POPC   C4A37482  44.644  24.447   7.664
 2813POPC   C1B37483  44.860  24.624   8.564
 2813POPC   C2B37484  44.923  24.566   8.264
 2813POPC   C3B37485  44.861  24.585   7.964
 2813POPC   C4B37486  44.933  24.584   7.664
 2814POPC   NC337487  42.334  19.812   9.464
 2814POPC   PO437488  42.313  19.794   9.164
 2814POPC   GL137489  42.322  19.858   8.864
 2814POPC   GL237490  42.415  19.801   8.864
 2814POPC   C1A37491  42.348  19.834   8.564
 2814POPC   D2A37492  42.364  19.857   8.264
 2814POPC   C3A37493  42.373  19.815   7.964
 2814POPC   C4A37494  42.372  19.874   7.664
 2814POPC   C1B37495  42.598  19.784   8.564
 2814POPC   C2B37496  42.541  19.755   8.264
 2814POPC   C3B37497  42.565  19.747   7.964
 2814POPC   C4B37498  42.580  19.692   7.664
 2815POPC   NC337499  19.855  10.517   9.464
 2815POPC   PO437500  19.806  10.518   9.164
 2815POPC   GL137501  19.864  10.492   8.864
 2815POPC   GL237502  19.937  10.534   8.864
 2815POPC   C1A37503  19.830  10.525   8.564
 2815POPC   D2A37504  19.810  10.493   8.264
 2815POPC   C3A37505  19.786  10.482   7.964
 2815POPC   C4A37506  19.814  10.555   7.664
 2815POPC   C1B37507  20.050  10.577   8.564
 2815POPC   C2B37508  20.055  10.603   8.264
 2815POPC   C3B37509  20.057  10.613   7.964
 2815POPC   C4B37510  20.124  10.560   7.664
 2816POPC   NC337511  25.258  21.390   9.464
 2816POPC   PO437512  25.224  21.398   9.164
 2816POPC   GL137513  25.250  21.347   8.864
 2816POPC   GL237514  25.181  21.394   8.864
 2816POPC   C1A37515  25.235  21.345   8.564
 2816POPC   D2A37516  25.218  21.411   8.264
 2816POPC   C3A37517  25.237  21.418   7.964
 2816POPC   C4A37518  25.231  21.349   7.664
 2816POPC   C1B37519  25.032  21.495   8.564
 2816POPC   C2B37520  25.038  21.483   8.264
 2816POPC   C3B37521  24.986  21.419   7.964
 2816POPC   C4B37522  24.976  21.476   7.664
 2817POPC   NC337523   5.918  16.777   9.464
 2817POPC   PO437524   5.837  16.727   9.164
 2817POPC   GL137525   5.886  16.747   8.864
 2817POPC   GL237526   5.828  16.855   8.864
 2817POPC   C1A37527   5.835  16.734   8.564
 2817POPC   D2A37528   5.847  16.742   8.264
 2817POPC   C3A37529   5.886  16.739   7.964
 2817POPC   C4A37530   5.845  16.701   7.664
 2817POPC   C1B37531   5.769  16.992   8.564
 2817POPC   C2B37532   5.806  16.965   8.264
 2817POPC   C3B37533   5.827  16.930   7.964
 2817POPC   C4B37534   5.844  16.944   7.664
 2818POPC   NC337535  20.652  18.279   9.464
 2818POPC   PO437536  20.571  18.296   9.164
 2818POPC   GL137537  20.586  18.313   8.864
 2818POPC   GL237538  20.549  18.394   8.864
 2818POPC   C1A37539  20.590  18.309   8.564
 2818POPC   D2A37540  20.626  18.272   8.264
 2818POPC   C3A37541  20.621  18.319   7.964
 2818POPC   C4A37542  20.614  18.248   7.664
 2818POPC   C1B37543  20.568  18.540   8.564
 2818POPC   C2B37544  20.513  18.548   8.264
 2818POPC   C3B37545  20.509  18.524   7.964
 2818POPC   C4B37546  20.577  18.573   7.664
 2819POPC   NC337547   5.101  36.907   9.464
 2819POPC   PO437548   5.083  36.897   9.164
 2819POPC   GL137549   5.063  36.882   8.864
 2819POPC   GL237550   5.085  37.043   8.864
 2819POPC   C1A37551   5.057  36.862   8.564
 2819POPC   D2A37552   5.057  36.906   8.264
 2819POPC   C3A37553   5.124  36.947   7.964
 2819POPC   C4A37554   5.089  36.856   7.664
 2819POPC   C1B37555   5.147  37.114   8.564
 2819POPC   C2B37556   5.155  37.189   8.264
 2819POPC   C3B37557   5.193  37.140   7.964
 2819POPC   C4B37558   5.121  37.149   7.664
 2820POPC   NC337559   5.070  19.104   9.464
 2820POPC   PO437560   5.137  19.094   9.164
 2820POPC   GL137561   5.134  19.088   8.864
 2820POPC   GL237562   5.171  19.209   8.864
 2820POPC   C1A37563   5.142  19.044   8.564
 2820POPC   D2A37564   5.116  19.095   8.264
 2820POPC   C3A37565   5.113  19.067   7.964
 2820POPC   C4A37566   5.135  19.093   7.664
 2820POPC   C1B37567   5.237  19.299   8.564
 2820POPC   C2B37568   5.248  19.288   8.264
 2820POPC   C3B37569   5.246  19.293   7.964
 2820POPC   C4B37570   5.210  19.260   7.664
 2821POPC   NC337571  26.833  36.902   9.464
 2821POPC   PO437572  26.776  36.868   9.164
 2821POPC   GL137573  26.801  36.927   8.864
 2821POPC   GL237574  26.663  36.907   8.864
 2821POPC   C1A37575  26.787  36.861   8.564
 2821POPC   D2A37576  26.819  36.907   8.264
 2821POPC   C3A37577  26.798  36.911   7.964
 2821POPC   C4A37578  26.867  36.905   7.664
 2821POPC   C1B37579  26.575  36.887   8.564
 2821POPC   C2B37580  26.547  36.934   8.264
 2821POPC   C3B37581  26.532  36.978   7.964
 2821POPC   C4B37582  26.598  36.934   7.664
 2822POPC   NC337583  19.075  28.344   9.464
 2822POPC   PO437584  19.041  28.373   9.164
 2822POPC   GL137585  19.038  28.352   8.864
 2822POPC   GL237586  19.041  28.507   8.864
 2822POPC   C1A37587  19.034  28.400   8.564
 2822POPC   D2A37588  19.104  28.382   8.264
 2822POPC   C3A37589  19.064  28.371   7.964
 2822POPC   C4A37590  19.048  28.362   7.664
 2822POPC   C1B37591  19.060  28.574   8.564
 2822POPC   C2B37592  19.077  28.571   8.264
 2822POPC   C3B37593  19.039  28.605   7.964
 2822POPC   C4B37594  19.057  28.600   7.664
 2823POPC   NC337595   7.394  32.200   9.464
 2823POPC   PO437596   7.444  32.233   9.164
 2823POPC   GL137597   7.399  32.271   8.864
 2823POPC   GL237598   7.341  32.180   8.864
 2823POPC   C1A37599   7.464  32.253   8.564
 2823POPC   D2A37600   7.393  32.234   8.264
 2823POPC   C3A37601   7.406  32.279   7.964
 2823POPC   C4A37602   7.466  32.256   7.664
 2823POPC   C1B37603   7.250  32.099   8.564
 2823POPC   C2B37604   7.229  32.098   8.264
 2823POPC   C3B37605   7.196  32.087   7.964
 2823POPC   C4B37606   7.252  32.108   7.664
 2824POPC   NC337607  24.462  39.213   9.464
 2824POPC   PO437608  24.464  39.208   9.164
 2824POPC   GL137609  24.475  39.270   8.864
 2824POPC   GL237610  24.475  39.348   8.864
 2824POPC   C1A37611  24.455  39.269   8.564
 2824POPC   D2A37612  24.538  39.202   8.264
 2824POPC   C3A37613  24.512  39.268   7.964
 2824POPC   C4A37614  24.517  39.243   7.664
 2824POPC   C1B37615  24.473  39.490   8.564
 2824POPC   C2B37616  24.415  39.439   8.264
 2824POPC   C3B37617  24.447  39.483   7.964
 2824POPC   C4B37618  24.395  39.482   7.664
 2825POPC   NC337619  15.199  36.100   9.464
 2825POPC   PO437620  15.219  36.159   9.164
 2825POPC   GL137621  15.155  36.105   8.864
 2825POPC   GL237622  15.051  36.111   8.864
 2825POPC   C1A37623  15.135  36.078   8.564
 2825POPC   D2A37624  15.216  36.121   8.264
 2825POPC   C3A37625  15.220  36.172   7.964
 2825POPC   C4A37626  15.187  36.105   7.664
 2825POPC   C1B37627  14.893  36.120   8.564
 2825POPC   C2B37628  14.958  36.075   8.264
 2825POPC   C3B37629  14.944  36.079   7.964
 2825POPC   C4B37630  14.951  36.043   7.664
 2826POPC   NC337631  29.162  22.178   9.464
 2826POPC   PO437632  29.164  22.181   9.164
 2826POPC   GL137633  29.190  22.154   8.864
 2826POPC   GL237634  29.175  22.049   8.864
 2826POPC   C1A37635  29.160  22.192   8.564
 2826POPC   D2A37636  29.139  22.179   8.264
 2826POPC   C3A37637  29.150  22.208   7.964
 2826POPC   C4A37638  29.129  22.132   7.664
 2826POPC   C1B37639  29.215  21.888   8.564
 2826POPC   C2B37640  29.193  21.938   8.264
 2826POPC   C3B37641  29.156  21.889   7.964
 2826POPC   C4B37642  29.216  21.882   7.664
 2827POPC   NC337643  36.874  37.690   9.464
 2827POPC   PO437644  36.917  37.707   9.164
 2827POPC   GL137645  36.879  37.702   8.864
 2827POPC   GL237646  36.775  37.630   8.864
 2827POPC   C1A37647  36.887  37.678   8.564
 2827POPC   D2A37648  36.906  37.686   8.264
 2827POPC   C3A37649  36.943  37.677   7.964
 2827POPC   C4A37650  36.927  37.669   7.664
 2827POPC   C1B37651  36.724  37.535   8.564
 2827POPC   C2B37652  36.701  37.543   8.264
 2827POPC   C3B37653  36.716  37.563   7.964
 2827POPC   C4B37654  36.649  37.561   7.664
 2828POPC   NC337655  35.302   3.515   9.464
 2828POPC   PO437656  35.377   3.581   9.164
 2828POPC   GL137657  35.353   3.503   8.864
 2828POPC   GL237658  35.391   3.450   8.864
 2828POPC   C1A37659  35.385   3.510   8.564
 2828POPC   D2A37660  35.372   3.502   8.264
 2828POPC   C3A37661  35.367   3.577   7.964
 2828POPC   C4A37662  35.304   3.502   7.664
 2828POPC   C1B37663  35.525   3.316   8.564
 2828POPC   C2B37664  35.491   3.355   8.264
 2828POPC   C3B37665  35.480   3.329   7.964
 2828POPC   C4B37666  35.539   3.322   7.664
 2829POPC   NC337667  19.803   1.964   9.464
 2829POPC   PO437668  19.871   2.023   9.164
 2829POPC   GL137669  19.860   1.946   8.864
 2829POPC   GL237670  19.768   1.924   8.864
 2829POPC   C1A37671  19.870   2.009   8.564
 2829POPC   D2A37672  19.875   1.983   8.264
 2829POPC   C3A37673  19.838   1.945   7.964
 2829POPC   C4A37674  19.876   1.950   7.664
 2829POPC   C1B37675  19.640   1.854   8.564
 2829POPC   C2B37676  19.659   1.844   8.264
 2829POPC   C3B37677  19.671   1.863   7.964
 2829POPC   C4B37678  19.606   1.827   7.664
 2830POPC   NC337679   8.188  26.020   9.464
 2830POPC   PO437680   8.224  25.993   9.164
 2830POPC   GL137681   8.204  26.039   8.864
 2830POPC   GL237682   8.082  25.947   8.864
 2830POPC   C1A37683   8.157  26.009   8.564
 2830POPC   D2A37684   8.179  26.085   8.264
 2830POPC   C3A37685   8.192  26.079   7.964
 2830POPC   C4A37686   8.206  26.029   7.664
 2830POPC   C1B37687   7.959  25.896   8.564
 2830POPC   C2B37688   7.966  25.832   8.264
 2830POPC   C3B37689   8.045  25.903   7.964
 2830POPC   C4B37690   8.047  25.918   7.664
 2831POPC   NC337691  32.977  43.884   9.464
 2831POPC   PO437692  32.980  43.891   9.164
 2831POPC   GL137693  33.045  43.908   8.864
 2831POPC   GL237694  33.121  43.763   8.864
 2831POPC   C1A37695  33.022  43.882   8.564
 2831POPC   D2A37696  33.056  43.910   8.264
 2831POPC   C3A37697  32.979  43.858   7.964
 2831POPC   C4A37698  33.062  43.847   7.664
 2831POPC   C1B37699  33.199  43.689   8.564
 2831POPC   C2B37700  33.115  43.693   8.264
 2831POPC   C3B37701  33.196  43.625   7.964
 2831POPC   C4B37702  33.164  43.690   7.664
 2832POPC   NC337703   6.679   5.074   9.464
 2832POPC   PO437704   6.604   5.062   9.164
 2832POPC   GL137705   6.688   5.070   8.864
 2832POPC   GL237706   6.706   5.035   8.864
 2832POPC   C1A37707   6.686   5.120   8.564
 2832POPC   D2A37708   6.688   5.045   8.264
 2832POPC   C3A37709   6.618   5.086   7.964
 2832POPC   C4A37710   6.659   5.139   7.664
 2832POPC   C1B37711   6.826   4.907   8.564
 2832POPC   C2B37712   6.843   4.903   8.264
 2832POPC   C3B37713   6.870   4.893   7.964
 2832POPC   C4B37714   6.819   4.887   7.664
 2833POPC   NC337715  19.792  19.797   9.464
 2833POPC   PO437716  19.832  19.855   9.164
 2833POPC   GL137717  19.790  19.860   8.864
 2833POPC   GL237718  19.981  19.833   8.864
 2833POPC   C1A37719  19.824  19.813   8.564
 2833POPC   D2A37720  19.814  19.830   8.264
 2833POPC   C3A37721  19.827  19.827   7.964
 2833POPC   C4A37722  19.838  19.868   7.664
 2833POPC   C1B37723  20.059  19.759   8.564
 2833POPC   C2B37724  20.063  19.760   8.264
 2833POPC   C3B37725  20.129  19.777   7.964
 2833POPC   C4B37726  20.066  19.820   7.664
 2834POPC   NC337727  26.077  30.723   9.464
 2834POPC   PO437728  26.031  30.668   9.164
 2834POPC   GL137729  26.065  30.737   8.864
 2834POPC   GL237730  26.058  30.610   8.864
 2834POPC   C1A37731  26.003  30.660   8.564
 2834POPC   D2A37732  25.992  30.682   8.264
 2834POPC   C3A37733  26.090  30.672   7.964
 2834POPC   C4A37734  26.011  30.648   7.664
 2834POPC   C1B37735  26.076  30.492   8.564
 2834POPC   C2B37736  26.071  30.449   8.264
 2834POPC   C3B37737  26.129  30.493   7.964
 2834POPC   C4B37738  26.057  30.491   7.664
 2835POPC   NC337739  35.367  39.191   9.464
 2835POPC   PO437740  35.335  39.276   9.164
 2835POPC   GL137741  35.356  39.275   8.864
 2835POPC   GL237742  35.229  39.236   8.864
 2835POPC   C1A37743  35.345  39.238   8.564
 2835POPC   D2A37744  35.366  39.274   8.264
 2835POPC   C3A37745  35.308  39.269   7.964
 2835POPC   C4A37746  35.324  39.189   7.664
 2835POPC   C1B37747  35.098  39.201   8.564
 2835POPC   C2B37748  35.143  39.263   8.264
 2835POPC   C3B37749  35.055  39.239   7.964
 2835POPC   C4B37750  35.061  39.194   7.664
 2836POPC   NC337751  14.360  20.570   9.464
 2836POPC   PO437752  14.376  20.638   9.164
 2836POPC   GL137753  14.354  20.634   8.864
 2836POPC   GL237754  14.530  20.655   8.864
 2836POPC   C1A37755  14.373  20.639   8.564
 2836POPC   D2A37756  14.398  20.649   8.264
 2836POPC   C3A37757  14.440  20.627   7.964
 2836POPC   C4A37758  14.389  20.574   7.664
 2836POPC   C1B37759  14.646  20.751   8.564
 2836POPC   C2B37760  14.588  20.756   8.264
 2836POPC   C3B37761  14.605  20.721   7.964
 2836POPC   C4B37762  14.643  20.718   7.664
 2837POPC   NC337763   5.858  19.796   9.464
 2837POPC   PO437764   5.826  19.805   9.164
 2837POPC   GL137765   5.863  19.859   8.864
 2837POPC   GL237766   5.726  19.812   8.864
 2837POPC   C1A37767   5.888  19.884   8.564
 2837POPC   D2A37768   5.852  19.864   8.264
 2837POPC   C3A37769   5.853  19.879   7.964
 2837POPC   C4A37770   5.827  19.872   7.664
 2837POPC   C1B37771   5.639  19.735   8.564
 2837POPC   C2B37772   5.624  19.764   8.264
 2837POPC   C3B37773   5.663  19.763   7.964
 2837POPC   C4B37774   5.630  19.717   7.664
 2838POPC   NC337775   5.050  26.075   9.464
 2838POPC   PO437776   5.073  26.026   9.164
 2838POPC   GL137777   5.120  26.006   8.864
 2838POPC   GL237778   5.002  26.083   8.864
 2838POPC   C1A37779   5.108  26.016   8.564
 2838POPC   D2A37780   5.062  26.033   8.264
 2838POPC   C3A37781   5.057  26.078   7.964
 2838POPC   C4A37782   5.098  26.056   7.664
 2838POPC   C1B37783   4.842  26.218   8.564
 2838POPC   C2B37784   4.905  26.162   8.264
 2838POPC   C3B37785   4.876  26.209   7.964
 2838POPC   C4B37786   4.920  26.187   7.664
 2839POPC   NC337787  12.030  10.497   9.464
 2839POPC   PO437788  12.110  10.495   9.164
 2839POPC   GL137789  12.115  10.563   8.864
 2839POPC   GL237790  12.105  10.390   8.864
 2839POPC   C1A37791  12.099  10.539   8.564
 2839POPC   D2A37792  12.034  10.478   8.264
 2839POPC   C3A37793  12.121  10.478   7.964
 2839POPC   C4A37794  12.042  10.518   7.664
 2839POPC   C1B37795  12.208  10.328   8.564
 2839POPC   C2B37796  12.141  10.334   8.264
 2839POPC   C3B37797  12.183  10.334   7.964
 2839POPC   C4B37798  12.168  10.331   7.664
 2840POPC   NC337799  12.808  31.448   9.464
 2840POPC   PO437800  12.866  31.435   9.164
 2840POPC   GL137801  12.889  31.489   8.864
 2840POPC   GL237802  12.765  31.384   8.864
 2840POPC   C1A37803  12.878  31.495   8.564
 2840POPC   D2A37804  12.835  31.464   8.264
 2840POPC   C3A37805  12.843  31.467   7.964
 2840POPC   C4A37806  12.899  31.452   7.664
 2840POPC   C1B37807  12.692  31.272   8.564
 2840POPC   C2B37808  12.729  31.307   8.264
 2840POPC   C3B37809  12.724  31.224   7.964
 2840POPC   C4B37810  12.677  31.274   7.664
 2841POPC   NC337811  31.500   9.022   9.464
 2841POPC   PO437812  31.478   8.966   9.164
 2841POPC   GL137813  31.428   9.006   8.864
 2841POPC   GL237814  31.533   9.126   8.864
 2841POPC   C1A37815  31.431   9.009   8.564
 2841POPC   D2A37816  31.515   8.925   8.264
 2841POPC   C3A37817  31.450   8.953   7.964
 2841POPC   C4A37818  31.430   8.982   7.664
 2841POPC   C1B37819  31.465   9.255   8.564
 2841POPC   C2B37820  31.503   9.269   8.264
 2841POPC   C3B37821  31.524   9.221   7.964
 2841POPC   C4B37822  31.531   9.220   7.664
 2842POPC   NC337823  22.156  22.971   9.464
 2842POPC   PO437824  22.181  22.986   9.164
 2842POPC   GL137825  22.124  22.967   8.864
 2842POPC   GL237826  22.070  23.068   8.864
 2842POPC   C1A37827  22.135  22.925   8.564
 2842POPC   D2A37828  22.138  22.935   8.264
 2842POPC   C3A37829  22.161  22.938   7.964
 2842POPC   C4A37830  22.184  22.898   7.664
 2842POPC   C1B37831  22.048  23.133   8.564
 2842POPC   C2B37832  22.093  23.206   8.264
 2842POPC   C3B37833  22.041  23.183   7.964
 2842POPC   C4B37834  22.064  23.191   7.664
 2843POPC   NC337835  17.500  19.846   9.464
 2843POPC   PO437836  17.496  19.795   9.164
 2843POPC   GL137837  17.553  19.793   8.864
 2843POPC   GL237838  17.565  19.668   8.864
 2843POPC   C1A37839  17.475  19.791   8.564
 2843POPC   D2A37840  17.526  19.876   8.264
 2843POPC   C3A37841  17.555  19.866   7.964
 2843POPC   C4A37842  17.481  19.868   7.664
 2843POPC   C1B37843  17.519  19.592   8.564
 2843POPC   C2B37844  17.507  19.631   8.264
 2843POPC   C3B37845  17.586  19.623   7.964
 2843POPC   C4B37846  17.566  19.599   7.664
 2844POPC   NC337847   5.834  40.790   9.464
 2844POPC   PO437848   5.829  40.805   9.164
 2844POPC   GL137849   5.901  40.829   8.864
 2844POPC   GL237850   5.739  40.661   8.864
 2844POPC   C1A37851   5.908  40.742   8.564
 2844POPC   D2A37852   5.906  40.817   8.264
 2844POPC   C3A37853   5.907  40.764   7.964
 2844POPC   C4A37854   5.878  40.771   7.664
 2844POPC   C1B37855   5.722  40.640   8.564
 2844POPC   C2B37856   5.695  40.625   8.264
 2844POPC   C3B37857   5.758  40.635   7.964
 2844POPC   C4B37858   5.728  40.569   7.664
 2845POPC   NC337859  16.780  41.559   9.464
 2845POPC   PO437860  16.748  41.577   9.164
 2845POPC   GL137861  16.729  41.536   8.864
 2845POPC   GL237862  16.745  41.431   8.864
 2845POPC   C1A37863  16.741  41.551   8.564
 2845POPC   D2A37864  16.755  41.583   8.264
 2845POPC   C3A37865  16.779  41.557   7.964
 2845POPC   C4A37866  16.731  41.572   7.664
 2845POPC   C1B37867  16.713  41.278   8.564
 2845POPC   C2B37868  16.749  41.313   8.264
 2845POPC   C3B37869  16.689  41.300   7.964
 2845POPC   C4B37870  16.709  41.352   7.664
 2846POPC   NC337871  27.547  22.207   9.464
 2846POPC   PO437872  27.571  22.152   9.164
 2846POPC   GL137873  27.592  22.159   8.864
 2846POPC   GL237874  27.696  22.045   8.864
 2846POPC   C1A37875  27.592  22.116   8.564
 2846POPC   D2A37876  27.591  22.139   8.264
 2846POPC   C3A37877  27.565  22.131   7.964
 2846POPC   C4A37878  27.601  22.129   7.664
 2846POPC   C1B37879  27.755  21.940   8.564
 2846POPC   C2B37880  27.696  21.960   8.264
 2846POPC   C3B37881  27.678  21.973   7.964
 2846POPC   C4B37882  27.666  21.951   7.664
 2847POPC   NC337883  36.932   1.977   9.464
 2847POPC   PO437884  36.951   2.009   9.164
 2847POPC   GL137885  36.951   2.000   8.864
 2847POPC   GL237886  37.066   1.983   8.864
 2847POPC   C1A37887  36.917   2.006   8.564
 2847POPC   D2A37888  36.922   2.009   8.264
 2847POPC   C3A37889  36.914   1.991   7.964
 2847POPC   C4A37890  36.884   1.942   7.664
 2847POPC   C1B37891  37.187   2.001   8.564
 2847POPC   C2B37892  37.140   1.997   8.264
 2847POPC   C3B37893  37.160   1.991   7.964
 2847POPC   C4B37894  37.135   1.993   7.664
 2848POPC   NC337895   4.319  31.453   9.464
 2848POPC   PO437896   4.279  31.483   9.164
 2848POPC   GL137897   4.339  31.496   8.864
 2848POPC   GL237898   4.389  31.530   8.864
 2848POPC   C1A37899   4.322  31.437   8.564
 2848POPC   D2A37900   4.352  31.501   8.264
 2848POPC   C3A37901   4.300  31.461   7.964
 2848POPC   C4A37902   4.340  31.501   7.664
 2848POPC   C1B37903   4.521  31.642   8.564
 2848POPC   C2B37904   4.525  31.706   8.264
 2848POPC   C3B37905   4.458  31.683   7.964
 2848POPC   C4B37906   4.444  31.698   7.664
 2849POPC   NC337907  43.933  28.339   9.464
 2849POPC   PO437908  43.883  28.401   9.164
 2849POPC   GL137909  43.842  28.408   8.864
 2849POPC   GL237910  43.882  28.448   8.864
 2849POPC   C1A37911  43.863  28.347   8.564
 2849POPC   D2A37912  43.876  28.416   8.264
 2849POPC   C3A37913  43.857  28.375   7.964
 2849POPC   C4A37914  43.927  28.333   7.664
 2849POPC   C1B37915  43.940  28.667   8.564
 2849POPC   C2B37916  43.941  28.617   8.264
 2849POPC   C3B37917  43.855  28.639   7.964
 2849POPC   C4B37918  43.934  28.592   7.664
 2850POPC   NC337919  43.858  11.321   9.464
 2850POPC   PO437920  43.901  11.294   9.164
 2850POPC   GL137921  43.891  11.301   8.864
 2850POPC   GL237922  43.830  11.139   8.864
 2850POPC   C1A37923  43.863  11.334   8.564
 2850POPC   D2A37924  43.916  11.259   8.264
 2850POPC   C3A37925  43.912  11.321   7.964
 2850POPC   C4A37926  43.855  11.275   7.664
 2850POPC   C1B37927  43.753  11.037   8.564
 2850POPC   C2B37928  43.807  11.061   8.264
 2850POPC   C3B37929  43.776  11.103   7.964
 2850POPC   C4B37930  43.745  11.052   7.664
 2851POPC   NC337931  33.771  44.627   9.464
 2851POPC   PO437932  33.806  44.618   9.164
 2851POPC   GL137933  33.756  44.620   8.864
 2851POPC   GL237934  33.634  44.645   8.864
 2851POPC   C1A37935  33.785  44.672   8.564
 2851POPC   D2A37936  33.798  44.685   8.264
 2851POPC   C3A37937  33.823  44.616   7.964
 2851POPC   C4A37938  33.764  44.646   7.664
 2851POPC   C1B37939  33.511  44.631   8.564
 2851POPC   C2B37940  33.582  44.694   8.264
 2851POPC   C3B37941  33.529  44.675   7.964
 2851POPC   C4B37942  33.592  44.672   7.664
 2852POPC   NC337943  28.395  21.340   9.464
 2852POPC   PO437944  28.342  21.432   9.164
 2852POPC   GL137945  28.330  21.434   8.864
 2852POPC   GL237946  28.239  21.437   8.864
 2852POPC   C1A37947  28.343  21.428   8.564
 2852POPC   D2A37948  28.365  21.382   8.264
 2852POPC   C3A37949  28.400  21.436   7.964
 2852POPC   C4A37950  28.320  21.340   7.664
 2852POPC   C1B37951  28.205  21.607   8.564
 2852POPC   C2B37952  28.184  21.617   8.264
 2852POPC   C3B37953  28.170  21.533   7.964
 2852POPC   C4B37954  28.232  21.570   7.664
 2853POPC   NC337955  33.050  28.371   9.464
 2853POPC   PO437956  33.069  28.381   9.164
 2853POPC   GL137957  33.069  28.353   8.864
 2853POPC   GL237958  33.182  28.401   8.864
 2853POPC   C1A37959  33.057  28.357   8.564
 2853POPC   D2A37960  33.021  28.399   8.264
 2853POPC   C3A37961  33.074  28.352   7.964
 2853POPC   C4A37962  33.010  28.409   7.664
 2853POPC   C1B37963  33.308  28.426   8.564
 2853POPC   C2B37964  33.312  28.485   8.264
 2853POPC   C3B37965  33.243  28.482   7.964
 2853POPC   C4B37966  33.218  28.434   7.664
 2854POPC   NC337967   4.317   5.892   9.464
 2854POPC   PO437968   4.329   5.907   9.164
 2854POPC   GL137969   4.343   5.881   8.864
 2854POPC   GL237970   4.472   5.788   8.864
 2854POPC   C1A37971   4.298   5.835   8.564
 2854POPC   D2A37972   4.320   5.822   8.264
 2854POPC   C3A37973   4.366   5.901   7.964
 2854POPC   C4A37974   4.362   5.917   7.664
 2854POPC   C1B37975   4.565   5.771   8.564
 2854POPC   C2B37976   4.502   5.785   8.264
 2854POPC   C3B37977   4.523   5.774   7.964
 2854POPC   C4B37978   4.506   5.745   7.664
 2855POPC   NC337979   7.451   2.737   9.464
 2855POPC   PO437980   7.415   2.775   9.164
 2855POPC   GL137981   7.386   2.754   8.864
 2855POPC   GL237982   7.501   2.855   8.864
 2855POPC   C1A37983   7.413   2.778   8.564
 2855POPC   D2A37984   7.414   2.762   8.264
 2855POPC   C3A37985   7.430   2.730   7.964
 2855POPC   C4A37986   7.443   2.793   7.664
 2855POPC   C1B37987   7.705   2.834   8.564
 2855POPC   C2B37988   7.621   2.870   8.264
 2855POPC   C3B37989   7.620   2.817   7.964
 2855POPC   C4B37990   7.612   2.859   7.664
 2856POPC   NC337991  25.994   1.221   9.464
 2856POPC   PO437992  26.068   1.203   9.164
 2856POPC   GL137993  26.013   1.169   8.864
 2856POPC   GL237994  26.129   1.187   8.864
 2856POPC   C1A37995  26.076   1.239   8.564
 2856POPC   D2A37996  25.993   1.255   8.264
 2856POPC   C3A37997  26.035   1.247   7.964
 2856POPC   C4A37998  26.063   1.251   7.664
 2856POPC   C1B37999  26.252   1.239   8.564
 2856POPC   C2B38000  26.271   1.269   8.264
 2856POPC   C3B38001  26.302   1.220   7.964
 2856POPC   C4B38002  26.322   1.250   7.664
 2857POPC   NC338003  28.390  22.128   9.464
 2857POPC   PO438004  28.342  22.143   9.164
 2857POPC   GL138005  28.391  22.150   8.864
 2857POPC   GL238006  28.208  22.193   8.864
 2857POPC   C1A38007  28.365  22.116   8.564
 2857POPC   D2A38008  28.349  22.182   8.264
 2857POPC   C3A38009  28.396  22.123   7.964
 2857POPC   C4A38010  28.381  22.112   7.664
 2857POPC   C1B38011  28.114  22.272   8.564
 2857POPC   C2B38012  28.143  22.304   8.264
 2857POPC   C3B38013  28.127  22.319   7.964
 2857POPC   C4B38014  28.145  22.287   7.664
 2858POPC   NC338015  33.796  19.804   9.464
 2858POPC   PO438016  33.781  19.796   9.164
 2858POPC   GL138017  33.829  19.821   8.864
 2858POPC   GL238018  33.855  19.749   8.864
 2858POPC   C1A38019  33.773  19.858   8.564
 2858POPC   D2A38020  33.847  19.806   8.264
 2858POPC   C3A38021  33.827  19.802   7.964
 2858POPC   C4A38022  33.791  19.847   7.664
 2858POPC   C1B38023  33.943  19.608   8.564
 2858POPC   C2B38024  33.904  19.594   8.264
 2858POPC   C3B38025  33.906  19.596   7.964
 2858POPC   C4B38026  33.962  19.625   7.664
 2859POPC   NC338027   5.841  38.490   9.464
 2859POPC   PO438028   5.843  38.491   9.164
 2859POPC   GL138029   5.837  38.461   8.864
 2859POPC   GL238030   5.869  38.580   8.864
 2859POPC   C1A38031   5.853  38.474   8.564
 2859POPC   D2A38032   5.916  38.417   8.264
 2859POPC   C3A38033   5.890  38.479   7.964
 2859POPC   C4A38034   5.895  38.451   7.664
 2859POPC   C1B38035   5.804  38.682   8.564
 2859POPC   C2B38036   5.799  38.705   8.264
 2859POPC   C3B38037   5.814  38.661   7.964
 2859POPC   C4B38038   5.790  38.651   7.664
 2860POPC   NC338039  23.716  41.552   9.464
 2860POPC   PO438040  23.703  41.529   9.164
 2860POPC   GL138041  23.737  41.595   8.864
 2860POPC   GL238042  23.784  41.632   8.864
 2860POPC   C1A38043  23.693  41.594   8.564
 2860POPC   D2A38044  23.682  41.522   8.264
 2860POPC   C3A38045  23.679  41.584   7.964
 2860POPC   C4A38046  23.693  41.541   7.664
 2860POPC   C1B38047  23.899  41.663   8.564
 2860POPC   C2B38048  23.969  41.686   8.264
 2860POPC   C3B38049  23.897  41.695   7.964
 2860POPC   C4B38050  23.954  41.677   7.664
 2861POPC   NC338051  33.811  43.123   9.464
 2861POPC   PO438052  33.820  43.086   9.164
 2861POPC   GL138053  33.759  43.091   8.864
 2861POPC   GL238054  33.813  43.252   8.864
 2861POPC   C1A38055  33.847  43.143   8.564
 2861POPC   D2A38056  33.761  43.094   8.264
 2861POPC   C3A38057  33.784  43.089   7.964
 2861POPC   C4A38058  33.831  43.127   7.664
 2861POPC   C1B38059  33.803  43.336   8.564
 2861POPC   C2B38060  33.861  43.376   8.264
 2861POPC   C3B38061  33.826  43.340   7.964
 2861POPC   C4B38062  33.873  43.309   7.664
 2862POPC   NC338063   0.476  43.910   9.464
 2862POPC   PO438064   0.451  43.865   9.164
 2862POPC   GL138065   0.486  43.844   8.864
 2862POPC   GL238066   0.361  43.927   8.864
 2862POPC   C1A38067   0.446  43.850   8.564
 2862POPC   D2A38068   0.484  43.927   8.264
 2862POPC   C3A38069   0.432  43.914   7.964
 2862POPC   C4A38070   0.451  43.918   7.664
 2862POPC   C1B38071   0.227  44.082   8.564
 2862POPC   C2B38072   0.228  44.051   8.264
 2862POPC   C3B38073   0.307  44.062   7.964
 2862POPC   C4B38074   0.275  44.060   7.664
 2863POPC   NC338075   4.349  19.865   9.464
 2863POPC   PO438076   4.281  19.870   9.164
 2863POPC   GL138077   4.366  19.869   8.864
 2863POPC   GL238078   4.339  19.917   8.864
 2863POPC   C1A38079   4.357  19.867   8.564
 2863POPC   D2A38080   4.335  19.803   8.264
 2863POPC   C3A38081   4.279  19.814   7.964
 2863POPC   C4A38082   4.268  19.875   7.664
 2863POPC   C1B38083   4.373  20.034   8.564
 2863POPC   C2B38084   4.342  20.061   8.264
 2863POPC   C3B38085   4.307  20.067   7.964
 2863POPC   C4B38086   4.328  20.087   7.664
 2864POPC   NC338087  15.927  32.254   9.464
 2864POPC   PO438088  15.910  32.274   9.164
 2864POPC   GL138089  15.973  32.246   8.864
 2864POPC   GL238090  15.890  32.334   8.864
 2864POPC   C1A38091  15.970  32.202   8.564
 2864POPC   D2A38092  15.911  32.288   8.264
 2864POPC   C3A38093  15.973  32.242   7.964
 2864POPC   C4A38094  16.005  32.282   7.664
 2864POPC   C1B38095  15.920  32.517   8.564
 2864POPC   C2B38096  15.839  32.509   8.264
 2864POPC   C3B38097  15.886  32.481   7.964
 2864POPC   C4B38098  15.895  32.476   7.664
 2865POPC   NC338099  33.074   3.579   9.464
 2865POPC   PO438100  32.989   3.506   9.164
 2865POPC   GL138101  32.999   3.542   8.864
 2865POPC   GL238102  33.103   3.639   8.864
 2865POPC   C1A38103  32.992   3.574   8.564
 2865POPC   D2A38104  32.998   3.537   8.264
 2865POPC   C3A38105  32.992   3.516   7.964
 2865POPC   C4A38106  32.991   3.586   7.664
 2865POPC   C1B38107  33.077   3.828   8.564
 2865POPC   C2B38108  33.095   3.780   8.264
 2865POPC   C3B38109  33.089   3.763   7.964
 2865POPC   C4B38110  33.103   3.756   7.664
 2866POPC   NC338111  36.867  18.248   9.464
 2866POPC   PO438112  36.901  18.279   9.164
 2866POPC   GL138113  36.894  18.241   8.864
 2866POPC   GL238114  36.779  18.203   8.864
 2866POPC   C1A38115  36.908  18.322   8.564
 2866POPC   D2A38116  36.895  18.256   8.264
 2866POPC   C3A38117  36.864  18.252   7.964
 2866POPC   C4A38118  36.867  18.317   7.664
 2866POPC   C1B38119  36.759  18.062   8.564
 2866POPC   C2B38120  36.765  18.097   8.264
 2866POPC   C3B38121  36.750  18.087   7.964
 2866POPC   C4B38122  36.696  18.116   7.664
 2867POPC   NC338123   2.731  23.739   9.464
 2867POPC   PO438124   2.767  23.708   9.164
 2867POPC   GL138125   2.762  23.734   8.864
 2867POPC   GL238126   2.888  23.644   8.864
 2867POPC   C1A38127   2.795  23.756   8.564
 2867POPC   D2A38128   2.732  23.750   8.264
 2867POPC   C3A38129   2.729  23.725   7.964
 2867POPC   C4A38130   2.768  23.706   7.664
 2867POPC   C1B38131   2.892  23.539   8.564
 2867POPC   C2B38132   2.901  23.561   8.264
 2867POPC   C3B38133   2.888  23.499   7.964
 2867POPC   C4B38134   2.913  23.493   7.664
 2868POPC   NC338135  24.528   3.571   9.464
 2868POPC   PO438136  24.535   3.496   9.164
 2868POPC   GL138137  24.535   3.529   8.864
 2868POPC   GL238138  24.531   3.591   8.864
 2868POPC   C1A38139  24.503   3.536   8.564
 2868POPC   D2A38140  24.482   3.529   8.264
 2868POPC   C3A38141  24.508   3.498   7.964
 2868POPC   C4A38142  24.498   3.511   7.664
 2868POPC   C1B38143  24.660   3.721   8.564
 2868POPC   C2B38144  24.700   3.754   8.264
 2868POPC   C3B38145  24.667   3.672   7.964
 2868POPC   C4B38146  24.642   3.736   7.664
 2869POPC   NC338147   6.602  38.470   9.464
 2869POPC   PO438148   6.640  38.461   9.164
 2869POPC   GL138149   6.596  38.432   8.864
 2869POPC   GL238150   6.571  38.450   8.864
 2869POPC   C1A38151   6.616  38.420   8.564
 2869POPC   D2A38152   6.684  38.480   8.264
 2869POPC   C3A38153   6.610  38.468   7.964
 2869POPC   C4A38154   6.628  38.480   7.664
 2869POPC   C1B38155   6.406  38.348   8.564
 2869POPC   C2B38156   6.431  38.422   8.264
 2869POPC   C3B38157   6.439  38.343   7.964
 2869POPC   C4B38158   6.417  38.395   7.664
 2870POPC   NC338159  22.188   4.350   9.464
 2870POPC   PO438160  22.201   4.314   9.164
 2870POPC   GL138161  22.178   4.285   8.864
 2870POPC   GL238162  22.195   4.210   8.864
 2870POPC   C1A38163  22.137   4.336   8.564
 2870POPC   D2A38164  22.187   4.309   8.264
 2870POPC   C3A38165  22.146   4.301   7.964
 2870POPC   C4A38166  22.140   4.322   7.664
 2870POPC   C1B38167  22.120   4.088   8.564
 2870POPC   C2B38168  22.120   4.074   8.264
 2870POPC   C3B38169  22.111   4.093   7.964
 2870POPC   C4B38170  22.196   4.111   7.664
 2871POPC   NC338171  19.065   2.805   9.464
 2871POPC   PO438172  19.074   2.792   9.164
 2871POPC   GL138173  19.016   2.774   8.864
 2871POPC   GL238174  18.989   2.800   8.864
 2871POPC   C1A38175  19.030   2.798   8.564
 2871POPC   D2A38176  19.055   2.775   8.264
 2871POPC   C3A38177  19.086   2.751   7.964
 2871POPC   C4A38178  19.085   2.734   7.664
 2871POPC   C1B38179  18.850   2.935   8.564
 2871POPC   C2B38180  18.864   2.885   8.264
 2871POPC   C3B38181  18.834   2.952   7.964
 2871POPC   C4B38182  18.823   2.885   7.664
 2872POPC   NC338183  15.219  35.328   9.464
 2872POPC   PO438184  15.149  35.316   9.164
 2872POPC   GL138185  15.130  35.336   8.864
 2872POPC   GL238186  15.203  35.214   8.864
 2872POPC   C1A38187  15.138  35.393   8.564
 2872POPC   D2A38188  15.199  35.381   8.264
 2872POPC   C3A38189  15.208  35.400   7.964
 2872POPC   C4A38190  15.226  35.338   7.664
 2872POPC   C1B38191  15.082  35.069   8.564
 2872POPC   C2B38192  15.163  35.063   8.264
 2872POPC   C3B38193  15.117  35.101   7.964
 2872POPC   C4B38194  15.094  35.136   7.664
 2873POPC   NC338195  15.182  39.269   9.464
 2873POPC   PO438196  15.207  39.197   9.164
 2873POPC   GL138197  15.143  39.273   8.864
 2873POPC   GL238198  15.350  39.174   8.864
 2873POPC   C1A38199  15.154  39.194   8.564
 2873POPC   D2A38200  15.183  39.186   8.264
 2873POPC   C3A38201  15.168  39.241   7.964
 2873POPC   C4A38202  15.171  39.185   7.664
 2873POPC   C1B38203  15.453  39.185   8.564
 2873POPC   C2B38204  15.424  39.153   8.264
 2873POPC   C3B38205  15.433  39.222   7.964
 2873POPC   C4B38206  15.431  39.230   7.664
 2874POPC   NC338207  39.236  29.963   9.464
 2874POPC   PO438208  39.274  29.959   9.164
 2874POPC   GL138209  39.265  29.884   8.864
 2874POPC   GL238210  39.295  30.072   8.864
 2874POPC   C1A38211  39.216  29.903   8.564
 2874POPC   D2A38212  39.245  29.953   8.264
 2874POPC   C3A38213  39.183  29.961   7.964
 2874POPC   C4A38214  39.276  29.893   7.664
 2874POPC   C1B38215  39.258  30.188   8.564
 2874POPC   C2B38216  39.252  30.192   8.264
 2874POPC   C3B38217  39.227  30.177   7.964
 2874POPC   C4B38218  39.260  30.166   7.664
 2875POPC   NC338219  22.172   2.726   9.464
 2875POPC   PO438220  22.165   2.799   9.164
 2875POPC   GL138221  22.161   2.735   8.864
 2875POPC   GL238222  22.229   2.758   8.864
 2875POPC   C1A38223  22.173   2.789   8.564
 2875POPC   D2A38224  22.136   2.807   8.264
 2875POPC   C3A38225  22.125   2.787   7.964
 2875POPC   C4A38226  22.204   2.728   7.664
 2875POPC   C1B38227  22.421   2.640   8.564
 2875POPC   C2B38228  22.417   2.674   8.264
 2875POPC   C3B38229  22.350   2.655   7.964
 2875POPC   C4B38230  22.396   2.613   7.664
 2876POPC   NC338231  40.008   8.214   9.464
 2876POPC   PO438232  40.014   8.216   9.164
 2876POPC   GL138233  39.988   8.219   8.864
 2876POPC   GL238234  39.890   8.149   8.864
 2876POPC   C1A38235  39.968   8.194   8.564
 2876POPC   D2A38236  40.036   8.171   8.264
 2876POPC   C3A38237  40.044   8.160   7.964
 2876POPC   C4A38238  40.037   8.240   7.664
 2876POPC   C1B38239  39.821   8.019   8.564
 2876POPC   C2B38240  39.801   8.070   8.264
 2876POPC   C3B38241  39.836   8.029   7.964
 2876POPC   C4B38242  39.792   8.060   7.664
 2877POPC   NC338243  19.049  43.128   9.464
 2877POPC   PO438244  19.104  43.159   9.164
 2877POPC   GL138245  19.059  43.124   8.864
 2877POPC   GL238246  18.942  43.090   8.864
 2877POPC   C1A38247  19.058  43.149   8.564
 2877POPC   D2A38248  19.031  43.094   8.264
 2877POPC   C3A38249  19.022  43.150   7.964
 2877POPC   C4A38250  19.038  43.132   7.664
 2877POPC   C1B38251  18.812  42.955   8.564
 2877POPC   C2B38252  18.808  42.994   8.264
 2877POPC   C3B38253  18.885  43.020   7.964
 2877POPC   C4B38254  18.889  43.012   7.664
 2878POPC   NC338255  11.303  39.195   9.464
 2878POPC   PO438256  11.265  39.275   9.164
 2878POPC   GL138257  11.345  39.250   8.864
 2878POPC   GL238258  11.244  39.107   8.864
 2878POPC   C1A38259  11.262  39.237   8.564
 2878POPC   D2A38260  11.300  39.200   8.264
 2878POPC   C3A38261  11.260  39.246   7.964
 2878POPC   C4A38262  11.323  39.206   7.664
 2878POPC   C1B38263  11.245  39.010   8.564
 2878POPC   C2B38264  11.202  38.990   8.264
 2878POPC   C3B38265  11.204  39.020   7.964
 2878POPC   C4B38266  11.230  39.024   7.664
 2879POPC   NC338267  43.926  31.501   9.464
 2879POPC   PO438268  43.879  31.501   9.164
 2879POPC   GL138269  43.866  31.502   8.864
 2879POPC   GL238270  44.010  31.448   8.864
 2879POPC   C1A38271  43.888  31.516   8.564
 2879POPC   D2A38272  43.895  31.443   8.264
 2879POPC   C3A38273  43.857  31.500   7.964
 2879POPC   C4A38274  43.837  31.424   7.664
 2879POPC   C1B38275  44.107  31.345   8.564
 2879POPC   C2B38276  44.103  31.329   8.264
 2879POPC   C3B38277  44.081  31.375   7.964
 2879POPC   C4B38278  44.141  31.412   7.664
 2880POPC   NC338279  12.107  29.141   9.464
 2880POPC   PO438280  12.065  29.169   9.164
 2880POPC   GL138281  12.088  29.168   8.864
 2880POPC   GL238282  12.154  29.162   8.864
 2880POPC   C1A38283  12.093  29.143   8.564
 2880POPC   D2A38284  12.066  29.113   8.264
 2880POPC   C3A38285  12.039  29.110   7.964
 2880POPC   C4A38286  12.093  29.139   7.664
 2880POPC   C1B38287  12.282  29.041   8.564
 2880POPC   C2B38288  12.294  29.074   8.264
 2880POPC   C3B38289  12.304  29.129   7.964
 2880POPC   C4B38290  12.320  29.071   7.664
 2881POPC   NC338291  20.585  43.119   9.464
 2881POPC   PO438292  20.569  43.159   9.164
 2881POPC   GL138293  20.565  43.130   8.864
 2881POPC   GL238294  20.716  43.062   8.864
 2881POPC   C1A38295  20.564  43.143   8.564
 2881POPC   D2A38296  20.597  43.081   8.264
 2881POPC   C3A38297  20.585  43.068   7.964
 2881POPC   C4A38298  20.608  43.102   7.664
 2881POPC   C1B38299  20.781  42.963   8.564
 2881POPC   C2B38300  20.872  42.974   8.264
 2881POPC   C3B38301  20.871  42.988   7.964
 2881POPC   C4B38302  20.875  43.025   7.664
 2882POPC   NC338303   9.007  43.066   9.464
 2882POPC   PO438304   8.968  43.107   9.164
 2882POPC   GL138305   9.001  43.105   8.864
 2882POPC   GL238306   9.114  43.099   8.864
 2882POPC   C1A38307   8.948  43.135   8.564
 2882POPC   D2A38308   8.985  43.117   8.264
 2882POPC   C3A38309   8.935  43.076   7.964
 2882POPC   C4A38310   8.981  43.142   7.664
 2882POPC   C1B38311   9.193  43.154   8.564
 2882POPC   C2B38312   9.172  43.154   8.264
 2882POPC   C3B38313   9.219  43.226   7.964
 2882POPC   C4B38314   9.208  43.222   7.664
 2883POPC   NC338315  28.374   0.475   9.464
 2883POPC   PO438316  28.351   0.451   9.164
 2883POPC   GL138317  28.349   0.392   8.864
 2883POPC   GL238318  28.260   0.556   8.864
 2883POPC   C1A38319  28.353   0.405   8.564
 2883POPC   D2A38320  28.370   0.396   8.264
 2883POPC   C3A38321  28.335   0.464   7.964
 2883POPC   C4A38322  28.403   0.410   7.664
 2883POPC   C1B38323  28.245   0.576   8.564
 2883POPC   C2B38324  28.156   0.663   8.264
 2883POPC   C3B38325  28.209   0.611   7.964
 2883POPC   C4B38326  28.150   0.583   7.664
 2884POPC   NC338327  25.276   8.180   9.464
 2884POPC   PO438328  25.299   8.150   9.164
 2884POPC   GL138329  25.241   8.199   8.864
 2884POPC   GL238330  25.356   8.182   8.864
 2884POPC   C1A38331  25.227   8.159   8.564
 2884POPC   D2A38332  25.311   8.155   8.264
 2884POPC   C3A38333  25.261   8.155   7.964
 2884POPC   C4A38334  25.285   8.183   7.664
 2884POPC   C1B38335  25.532   8.091   8.564
 2884POPC   C2B38336  25.520   8.122   8.264
 2884POPC   C3B38337  25.493   8.061   7.964
 2884POPC   C4B38338  25.475   8.080   7.664
 2885POPC   NC338339  33.019  36.882   9.464
 2885POPC   PO438340  32.994  36.937   9.164
 2885POPC   GL138341  33.002  36.901   8.864
 2885POPC   GL238342  33.047  37.040   8.864
 2885POPC   C1A38343  32.978  36.868   8.564
 2885POPC   D2A38344  32.986  36.933   8.264
 2885POPC   C3A38345  33.067  36.917   7.964
 2885POPC   C4A38346  33.033  36.899   7.664
 2885POPC   C1B38347  33.130  37.150   8.564
 2885POPC   C2B38348  33.209  37.127   8.264
 2885POPC   C3B38349  33.139  37.094   7.964
 2885POPC   C4B38350  33.181  37.121   7.664
 2886POPC   NC338351  11.328   0.482   9.464
 2886POPC   PO438352  11.294   0.480   9.164
 2886POPC   GL138353  11.266   0.429   8.864
 2886POPC   GL238354  11.235   0.286   8.864
 2886POPC   C1A38355  11.303   0.409   8.564
 2886POPC   D2A38356  11.299   0.405   8.264
 2886POPC   C3A38357  11.312   0.442   7.964
 2886POPC   C4A38358  11.340   0.394   7.664
 2886POPC   C1B38359  11.285   0.197   8.564
 2886POPC   C2B38360  11.233   0.210   8.264
 2886POPC   C3B38361  11.249   0.181   7.964
 2886POPC   C4B38362  11.278   0.150   7.664
 2887POPC   NC338363   4.335  29.947   9.464
 2887POPC   PO438364   4.365  29.875   9.164
 2887POPC   GL138365   4.329  29.919   8.864
 2887POPC   GL238366   4.448  29.912   8.864
 2887POPC   C1A38367   4.288  29.890   8.564
 2887POPC   D2A38368   4.362  29.897   8.264
 2887POPC   C3A38369   4.334  29.928   7.964
 2887POPC   C4A38370   4.270  29.878   7.664
 2887POPC   C1B38371   4.593  29.953   8.564
 2887POPC   C2B38372   4.569  29.891   8.264
 2887POPC   C3B38373   4.604  29.978   7.964
 2887POPC   C4B38374   4.611  29.936   7.664
 2888POPC   NC338375  15.204   8.148   9.464
 2888POPC   PO438376  15.212   8.209   9.164
 2888POPC   GL138377  15.158   8.164   8.864
 2888POPC   GL238378  15.219   8.072   8.864
 2888POPC   C1A38379  15.225   8.194   8.564
 2888POPC   D2A38380  15.206   8.241   8.264
 2888POPC   C3A38381  15.174   8.218   7.964
 2888POPC   C4A38382  15.149   8.236   7.664
 2888POPC   C1B38383  15.190   7.903   8.564
 2888POPC   C2B38384  15.214   7.985   8.264
 2888POPC   C3B38385  15.233   7.985   7.964
 2888POPC   C4B38386  15.203   7.984   7.664
 2889POPC   NC338387   3.555  12.075   9.464
 2889POPC   PO438388   3.574  12.124   9.164
 2889POPC   GL138389   3.506  12.040   8.864
 2889POPC   GL238390   3.384  11.987   8.864
 2889POPC   C1A38391   3.545  12.120   8.564
 2889POPC   D2A38392   3.496  12.122   8.264
 2889POPC   C3A38393   3.588  12.036   7.964
 2889POPC   C4A38394   3.579  12.119   7.664
 2889POPC   C1B38395   3.320  12.011   8.564
 2889POPC   C2B38396   3.300  11.986   8.264
 2889POPC   C3B38397   3.317  12.008   7.964
 2889POPC   C4B38398   3.353  11.932   7.664
 2890POPC   NC338399   1.945   8.969   9.464
 2890POPC   PO438400   2.039   9.009   9.164
 2890POPC   GL138401   1.943   9.005   8.864
 2890POPC   GL238402   1.923   8.888   8.864
 2890POPC   C1A38403   1.963   8.954   8.564
 2890POPC   D2A38404   2.030   8.924   8.264
 2890POPC   C3A38405   2.022   9.018   7.964
 2890POPC   C4A38406   2.036   8.943   7.664
 2890POPC   C1B38407   1.886   8.724   8.564
 2890POPC   C2B38408   1.872   8.723   8.264
 2890POPC   C3B38409   1.933   8.687   7.964
 2890POPC   C4B38410   1.875   8.736   7.664
 2891POPC   NC338411  12.102   8.148   9.464
 2891POPC   PO438412  12.058   8.209   9.164
 2891POPC   GL138413  12.028   8.218   8.864
 2891POPC   GL238414  12.103   8.089   8.864
 2891POPC   C1A38415  12.030   8.236   8.564
 2891POPC   D2A38416  12.102   8.171   8.264
 2891POPC   C3A38417  12.042   8.156   7.964
 2891POPC   C4A38418  12.098   8.205   7.664
 2891POPC   C1B38419  12.175   7.953   8.564
 2891POPC   C2B38420  12.238   7.938   8.264
 2891POPC   C3B38421  12.232   7.965   7.964
 2891POPC   C4B38422  12.213   7.984   7.664
 2892POPC   NC338423  33.041  12.821   9.464
 2892POPC   PO438424  33.038  12.805   9.164
 2892POPC   GL138425  33.029  12.834   8.864
 2892POPC   GL238426  32.888  12.859   8.864
 2892POPC   C1A38427  33.058  12.806   8.564
 2892POPC   D2A38428  33.034  12.804   8.264
 2892POPC   C3A38429  32.978  12.886   7.964
 2892POPC   C4A38430  33.047  12.848   7.664
 2892POPC   C1B38431  32.805  12.841   8.564
 2892POPC   C2B38432  32.777  12.793   8.264
 2892POPC   C3B38433  32.804  12.817   7.964
 2892POPC   C4B38434  32.757  12.778   7.664
 2893POPC   NC338435  35.338  19.015   9.464
 2893POPC   PO438436  35.312  19.045   9.164
 2893POPC   GL138437  35.377  19.034   8.864
 2893POPC   GL238438  35.274  19.149   8.864
 2893POPC   C1A38439  35.332  19.107   8.564
 2893POPC   D2A38440  35.385  19.070   8.264
 2893POPC   C3A38441  35.345  19.104   7.964
 2893POPC   C4A38442  35.303  19.027   7.664
 2893POPC   C1B38443  35.097  19.154   8.564
 2893POPC   C2B38444  35.122  19.099   8.264
 2893POPC   C3B38445  35.127  19.197   7.964
 2893POPC   C4B38446  35.138  19.123   7.664
 2894POPC   NC338447  21.345  30.692   9.464
 2894POPC   PO438448  21.396  30.733   9.164
 2894POPC   GL138449  21.374  30.666   8.864
 2894POPC   GL238450  21.403  30.565   8.864
 2894POPC   C1A38451  21.340  30.671   8.564
 2894POPC   D2A38452  21.391  30.732   8.264
 2894POPC   C3A38453  21.418  30.732   7.964
 2894POPC   C4A38454  21.338  30.745   7.664
 2894POPC   C1B38455  21.425  30.486   8.564
 2894POPC   C2B38456  21.387  30.437   8.264
 2894POPC   C3B38457  21.453  30.461   7.964
 2894POPC   C4B38458  21.447  30.415   7.664
 2895POPC   NC338459  27.635   2.723   9.464
 2895POPC   PO438460  27.596   2.726   9.164
 2895POPC   GL138461  27.622   2.763   8.864
 2895POPC   GL238462  27.569   2.655   8.864
 2895POPC   C1A38463  27.633   2.758   8.564
 2895POPC   D2A38464  27.550   2.748   8.264
 2895POPC   C3A38465  27.587   2.771   7.964
 2895POPC   C4A38466  27.594   2.799   7.664
 2895POPC   C1B38467  27.503   2.502   8.564
 2895POPC   C2B38468  27.488   2.579   8.264
 2895POPC   C3B38469  27.491   2.526   7.964
 2895POPC   C4B38470  27.510   2.549   7.664
 2896POPC   NC338471   7.399   1.972   9.464
 2896POPC   PO438472   7.388   1.975   9.164
 2896POPC   GL138473   7.440   1.984   8.864
 2896POPC   GL238474   7.256   1.936   8.864
 2896POPC   C1A38475   7.418   1.960   8.564
 2896POPC   D2A38476   7.422   1.948   8.264
 2896POPC   C3A38477   7.383   1.959   7.964
 2896POPC   C4A38478   7.379   2.009   7.664
 2896POPC   C1B38479   7.134   1.997   8.564
 2896POPC   C2B38480   7.162   1.910   8.264
 2896POPC   C3B38481   7.129   1.985   7.964
 2896POPC   C4B38482   7.130   1.992   7.664
 2897POPC   NC338483   1.261  24.466   9.464
 2897POPC   PO438484   1.198  24.476   9.164
 2897POPC   GL138485   1.236  24.481   8.864
 2897POPC   GL238486   1.235  24.588   8.864
 2897POPC   C1A38487   1.240  24.453   8.564
 2897POPC   D2A38488   1.228  24.494   8.264
 2897POPC   C3A38489   1.205  24.528   7.964
 2897POPC   C4A38490   1.256  24.489   7.664
 2897POPC   C1B38491   1.192  24.738   8.564
 2897POPC   C2B38492   1.222  24.715   8.264
 2897POPC   C3B38493   1.199  24.749   7.964
 2897POPC   C4B38494   1.228  24.698   7.664
 2898POPC   NC338495   2.729  15.136   9.464
 2898POPC   PO438496   2.791  15.143   9.164
 2898POPC   GL138497   2.734  15.188   8.864
 2898POPC   GL238498   2.801  15.042   8.864
 2898POPC   C1A38499   2.724  15.158   8.564
 2898POPC   D2A38500   2.753  15.156   8.264
 2898POPC   C3A38501   2.726  15.214   7.964
 2898POPC   C4A38502   2.747  15.141   7.664
 2898POPC   C1B38503   2.859  14.963   8.564
 2898POPC   C2B38504   2.875  14.947   8.264
 2898POPC   C3B38505   2.919  14.973   7.964
 2898POPC   C4B38506   2.874  14.952   7.664
 2899POPC   NC338507  27.568   8.177   9.464
 2899POPC   PO438508  27.616   8.212   9.164
 2899POPC   GL138509  27.624   8.162   8.864
 2899POPC   GL238510  27.641   8.307   8.864
 2899POPC   C1A38511  27.575   8.166   8.564
 2899POPC   D2A38512  27.583   8.157   8.264
 2899POPC   C3A38513  27.598   8.222   7.964
 2899POPC   C4A38514  27.610   8.218   7.664
 2899POPC   C1B38515  27.629   8.478   8.564
 2899POPC   C2B38516  27.628   8.429   8.264
 2899POPC   C3B38517  27.655   8.446   7.964
 2899POPC   C4B38518  27.630   8.416   7.664
 2900POPC   NC338519  24.507  15.927   9.464
 2900POPC   PO438520  24.469  15.939   9.164
 2900POPC   GL138521  24.498  16.001   8.864
 2900POPC   GL238522  24.658  15.929   8.864
 2900POPC   C1A38523  24.454  15.915   8.564
 2900POPC   D2A38524  24.527  15.989   8.264
 2900POPC   C3A38525  24.484  15.983   7.964
 2900POPC   C4A38526  24.525  15.940   7.664
 2900POPC   C1B38527  24.768  15.956   8.564
 2900POPC   C2B38528  24.705  15.898   8.264
 2900POPC   C3B38529  24.721  15.925   7.964
 2900POPC   C4B38530  24.764  15.894   7.664
 2901POPC   NC338531   3.526  42.384   9.464
 2901POPC   PO438532   3.570  42.346   9.164
 2901POPC   GL138533   3.514  42.358   8.864
 2901POPC   GL238534   3.685  42.406   8.864
 2901POPC   C1A38535   3.515  42.382   8.564
 2901POPC   D2A38536   3.535  42.293   8.264
 2901POPC   C3A38537   3.559  42.358   7.964
 2901POPC   C4A38538   3.553  42.358   7.664
 2901POPC   C1B38539   3.778  42.450   8.564
 2901POPC   C2B38540   3.797  42.457   8.264
 2901POPC   C3B38541   3.749  42.429   7.964
 2901POPC   C4B38542   3.718  42.401   7.664
 2902POPC   NC338543  37.653  38.451   9.464
 2902POPC   PO438544  37.718  38.414   9.164
 2902POPC   GL138545  37.676  38.437   8.864
 2902POPC   GL238546  37.564  38.405   8.864
 2902POPC   C1A38547  37.722  38.451   8.564
 2902POPC   D2A38548  37.698  38.430   8.264
 2902POPC   C3A38549  37.685  38.406   7.964
 2902POPC   C4A38550  37.668  38.457   7.664
 2902POPC   C1B38551  37.505  38.364   8.564
 2902POPC   C2B38552  37.444  38.369   8.264
 2902POPC   C3B38553  37.456  38.310   7.964
 2902POPC   C4B38554  37.505  38.354   7.664
 2903POPC   NC338555  24.517  15.156   9.464
 2903POPC   PO438556  24.497  15.227   9.164
 2903POPC   GL138557  24.516  15.145   8.864
 2903POPC   GL238558  24.494  15.348   8.864
 2903POPC   C1A38559  24.515  15.226   8.564
 2903POPC   D2A38560  24.522  15.136   8.264
 2903POPC   C3A38561  24.440  15.143   7.964
 2903POPC   C4A38562  24.466  15.145   7.664
 2903POPC   C1B38563  24.435  15.433   8.564
 2903POPC   C2B38564  24.464  15.447   8.264
 2903POPC   C3B38565  24.496  15.389   7.964
 2903POPC   C4B38566  24.490  15.423   7.664
 2904POPC   NC338567  43.890  36.915   9.464
 2904POPC   PO438568  43.931  36.922   9.164
 2904POPC   GL138569  43.896  36.920   8.864
 2904POPC   GL238570  43.990  36.802   8.864
 2904POPC   C1A38571  43.862  36.897   8.564
 2904POPC   D2A38572  43.904  36.912   8.264
 2904POPC   C3A38573  43.887  36.874   7.964
 2904POPC   C4A38574  43.871  36.924   7.664
 2904POPC   C1B38575  44.076  36.828   8.564
 2904POPC   C2B38576  44.117  36.748   8.264
 2904POPC   C3B38577  44.151  36.846   7.964
 2904POPC   C4B38578  44.144  36.783   7.664
 2905POPC   NC338579  19.035  16.704   9.464
 2905POPC   PO438580  19.087  16.768   9.164
 2905POPC   GL138581  19.099  16.706   8.864
 2905POPC   GL238582  19.061  16.861   8.864
 2905POPC   C1A38583  19.061  16.705   8.564
 2905POPC   D2A38584  19.066  16.762   8.264
 2905POPC   C3A38585  19.057  16.742   7.964
 2905POPC   C4A38586  19.069  16.775   7.664
 2905POPC   C1B38587  19.048  17.016   8.564
 2905POPC   C2B38588  19.033  16.937   8.264
 2905POPC   C3B38589  19.050  16.947   7.964
 2905POPC   C4B38590  19.029  17.009   7.664
 2906POPC   NC338591  39.219  21.434   9.464
 2906POPC   PO438592  39.252  21.351   9.164
 2906POPC   GL138593  39.221  21.388   8.864
 2906POPC   GL238594  39.330  21.363   8.864
 2906POPC   C1A38595  39.236  21.372   8.564
 2906POPC   D2A38596  39.188  21.339   8.264
 2906POPC   C3A38597  39.205  21.433   7.964
 2906POPC   C4A38598  39.181  21.399   7.664
 2906POPC   C1B38599  39.420  21.286   8.564
 2906POPC   C2B38600  39.473  21.286   8.264
 2906POPC   C3B38601  39.468  21.262   7.964
 2906POPC   C4B38602  39.424  21.222   7.664
 2907POPC   NC338603  42.361  13.638   9.464
 2907POPC   PO438604  42.320  13.647   9.164
 2907POPC   GL138605  42.313  13.612   8.864
 2907POPC   GL238606  42.305  13.765   8.864
 2907POPC   C1A38607  42.313  13.659   8.564
 2907POPC   D2A38608  42.335  13.662   8.264
 2907POPC   C3A38609  42.359  13.599   7.964
 2907POPC   C4A38610  42.327  13.600   7.664
 2907POPC   C1B38611  42.280  13.822   8.564
 2907POPC   C2B38612  42.239  13.830   8.264
 2907POPC   C3B38613  42.245  13.914   7.964
 2907POPC   C4B38614  42.304  13.879   7.664
 2908POPC   NC338615  26.087  40.827   9.464
 2908POPC   PO438616  26.086  40.810   9.164
 2908POPC   GL138617  26.011  40.785   8.864
 2908POPC   GL238618  26.015  40.914   8.864
 2908POPC   C1A38619  26.078  40.762   8.564
 2908POPC   D2A38620  26.059  40.813   8.264
 2908POPC   C3A38621  26.077  40.747   7.964
 2908POPC   C4A38622  26.003  40.788   7.664
 2908POPC   C1B38623  25.946  41.043   8.564
 2908POPC   C2B38624  25.918  40.991   8.264
 2908POPC   C3B38625  25.952  41.024   7.964
 2908POPC   C4B38626  25.925  40.983   7.664
 2909POPC   NC338627  36.859  33.805   9.464
 2909POPC   PO438628  36.901  33.832   9.164
 2909POPC   GL138629  36.939  33.827   8.864
 2909POPC   GL238630  37.002  33.720   8.864
 2909POPC   C1A38631  36.864  33.816   8.564
 2909POPC   D2A38632  36.919  33.794   8.264
 2909POPC   C3A38633  36.885  33.806   7.964
 2909POPC   C4A38634  36.901  33.768   7.664
 2909POPC   C1B38635  37.036  33.603   8.564
 2909POPC   C2B38636  36.985  33.612   8.264
 2909POPC   C3B38637  37.041  33.588   7.964
 2909POPC   C4B38638  37.033  33.537   7.664
 2910POPC   NC338639  15.216   3.583   9.464
 2910POPC   PO438640  15.191   3.574   9.164
 2910POPC   GL138641  15.175   3.514   8.864
 2910POPC   GL238642  15.134   3.391   8.864
 2910POPC   C1A38643  15.210   3.498   8.564
 2910POPC   D2A38644  15.219   3.501   8.264
 2910POPC   C3A38645  15.136   3.555   7.964
 2910POPC   C4A38646  15.162   3.585   7.664
 2910POPC   C1B38647  15.082   3.300   8.564
 2910POPC   C2B38648  15.013   3.344   8.264
 2910POPC   C3B38649  15.019   3.284   7.964
 2910POPC   C4B38650  15.097   3.293   7.664
 2911POPC   NC338651  14.398  41.607   9.464
 2911POPC   PO438652  14.373  41.549   9.164
 2911POPC   GL138653  14.424  41.537   8.864
 2911POPC   GL238654  14.289  41.583   8.864
 2911POPC   C1A38655  14.426  41.584   8.564
 2911POPC   D2A38656  14.402  41.607   8.264
 2911POPC   C3A38657  14.415  41.584   7.964
 2911POPC   C4A38658  14.359  41.587   7.664
 2911POPC   C1B38659  14.119  41.610   8.564
 2911POPC   C2B38660  14.182  41.546   8.264
 2911POPC   C3B38661  14.179  41.561   7.964
 2911POPC   C4B38662  14.134  41.599   7.664
 2912POPC   NC338663  25.265   6.634   9.464
 2912POPC   PO438664  25.266   6.682   9.164
 2912POPC   GL138665  25.298   6.655   8.864
 2912POPC   GL238666  25.352   6.777   8.864
 2912POPC   C1A38667  25.291   6.683   8.564
 2912POPC   D2A38668  25.259   6.619   8.264
 2912POPC   C3A38669  25.229   6.689   7.964
 2912POPC   C4A38670  25.299   6.690   7.664
 2912POPC   C1B38671  25.499   6.833   8.564
 2912POPC   C2B38672  25.411   6.785   8.264
 2912POPC   C3B38673  25.493   6.811   7.964
 2912POPC   C4B38674  25.444   6.772   7.664
 2913POPC   NC338675  18.243   2.760   9.464
 2913POPC   PO438676  18.244   2.762   9.164
 2913POPC   GL138677  18.302   2.813   8.864
 2913POPC   GL238678  18.400   2.827   8.864
 2913POPC   C1A38679  18.250   2.772   8.564
 2913POPC   D2A38680  18.236   2.769   8.264
 2913POPC   C3A38681  18.273   2.758   7.964
 2913POPC   C4A38682  18.274   2.717   7.664
 2913POPC   C1B38683  18.391   3.013   8.564
 2913POPC   C2B38684  18.440   2.940   8.264
 2913POPC   C3B38685  18.401   2.978   7.964
 2913POPC   C4B38686  18.465   2.936   7.664
 2914POPC   NC338687  36.098  37.656   9.464
 2914POPC   PO438688  36.153  37.720   9.164
 2914POPC   GL138689  36.135  37.676   8.864
 2914POPC   GL238690  36.014  37.759   8.864
 2914POPC   C1A38691  36.119  37.672   8.564
 2914POPC   D2A38692  36.108  37.702   8.264
 2914POPC   C3A38693  36.155  37.707   7.964
 2914POPC   C4A38694  36.103  37.682   7.664
 2914POPC   C1B38695  35.930  37.806   8.564
 2914POPC   C2B38696  35.922  37.750   8.264
 2914POPC   C3B38697  35.854  37.819   7.964
 2914POPC   C4B38698  35.897  37.752   7.664
 2915POPC   NC338699  26.787  12.113   9.464
 2915POPC   PO438700  26.779  12.101   9.164
 2915POPC   GL138701  26.785  12.078   8.864
 2915POPC   GL238702  26.781  12.214   8.864
 2915POPC   C1A38703  26.850  12.057   8.564
 2915POPC   D2A38704  26.824  12.118   8.264
 2915POPC   C3A38705  26.865  12.041   7.964
 2915POPC   C4A38706  26.850  12.075   7.664
 2915POPC   C1B38707  26.726  12.318   8.564
 2915POPC   C2B38708  26.702  12.264   8.264
 2915POPC   C3B38709  26.690  12.331   7.964
 2915POPC   C4B38710  26.701  12.317   7.664
 2916POPC   NC338711  32.981  30.689   9.464
 2916POPC   PO438712  33.029  30.683   9.164
 2916POPC   GL138713  33.063  30.655   8.864
 2916POPC   GL238714  33.003  30.863   8.864
 2916POPC   C1A38715  32.999  30.676   8.564
 2916POPC   D2A38716  32.984  30.656   8.264
 2916POPC   C3A38717  33.017  30.682   7.964
 2916POPC   C4A38718  33.024  30.690   7.664
 2916POPC   C1B38719  32.916  30.940   8.564
 2916POPC   C2B38720  32.947  30.893   8.264
 2916POPC   C3B38721  32.927  30.945   7.964
 2916POPC   C4B38722  32.904  30.959   7.664
 2917POPC   NC338723  34.617  36.161   9.464
 2917POPC   PO438724  34.586  36.105   9.164
 2917POPC   GL138725  34.570  36.140   8.864
 2917POPC   GL238726  34.732  36.125   8.864
 2917POPC   C1A38727  34.603  36.146   8.564
 2917POPC   D2A38728  34.554  36.175   8.264
 2917POPC   C3A38729  34.604  36.105   7.964
 2917POPC   C4A38730  34.559  36.090   7.664
 2917POPC   C1B38731  34.809  36.116   8.564
 2917POPC   C2B38732  34.844  36.179   8.264
 2917POPC   C3B38733  34.793  36.154   7.964
 2917POPC   C4B38734  34.812  36.126   7.664
 2918POPC   NC338735  29.163  39.248   9.464
 2918POPC   PO438736  29.146  39.217   9.164
 2918POPC   GL138737  29.143  39.217   8.864
 2918POPC   GL238738  29.250  39.196   8.864
 2918POPC   C1A38739  29.109  39.246   8.564
 2918POPC   D2A38740  29.099  39.256   8.264
 2918POPC   C3A38741  29.103  39.223   7.964
 2918POPC   C4A38742  29.154  39.242   7.664
 2918POPC   C1B38743  29.391  39.102   8.564
 2918POPC   C2B38744  29.401  39.140   8.264
 2918POPC   C3B38745  29.414  39.105   7.964
 2918POPC   C4B38746  29.350  39.125   7.664
 2919POPC   NC338747  14.367  43.873   9.464
 2919POPC   PO438748  14.420  43.914   9.164
 2919POPC   GL138749  14.410  43.931   8.864
 2919POPC   GL238750  14.295  43.946   8.864
 2919POPC   C1A38751  14.443  43.844   8.564
 2919POPC   D2A38752  14.355  43.928   8.264
 2919POPC   C3A38753  14.433  43.889   7.964
 2919POPC   C4A38754  14.410  43.866   7.664
 2919POPC   C1B38755  14.154  43.976   8.564
 2919POPC   C2B38756  14.216  43.965   8.264
 2919POPC   C3B38757  14.224  44.018   7.964
 2919POPC   C4B38758  14.177  43.990   7.664
 2920POPC   NC338759   1.981  24.539   9.464
 2920POPC   PO438760   1.997  24.493   9.164
 2920POPC   GL138761   2.028  24.534   8.864
 2920POPC   GL238762   1.964  24.334   8.864
 2920POPC   C1A38763   1.976  24.505   8.564
 2920POPC   D2A38764   1.979  24.498   8.264
 2920POPC   C3A38765   2.006  24.529   7.964
 2920POPC   C4A38766   1.964  24.495   7.664
 2920POPC   C1B38767   1.908  24.244   8.564
 2920POPC   C2B38768   1.898  24.313   8.264
 2920POPC   C3B38769   1.880  24.230   7.964
 2920POPC   C4B38770   1.839  24.234   7.664
 2921POPC   NC338771  38.441  22.119   9.464
 2921POPC   PO438772  38.485  22.146   9.164
 2921POPC   GL138773  38.456  22.115   8.864
 2921POPC   GL238774  38.566  22.071   8.864
 2921POPC   C1A38775  38.486  22.131   8.564
 2921POPC   D2A38776  38.416  22.186   8.264
 2921POPC   C3A38777  38.452  22.115   7.964
 2921POPC   C4A38778  38.492  22.157   7.664
 2921POPC   C1B38779  38.587  21.984   8.564
 2921POPC   C2B38780  38.588  21.939   8.264
 2921POPC   C3B38781  38.567  21.986   7.964
 2921POPC   C4B38782  38.617  22.006   7.664
 2922POPC   NC338783   0.391  33.046   9.464
 2922POPC   PO438784   0.475  33.005   9.164
 2922POPC   GL138785   0.414  33.058   8.864
 2922POPC   GL238786   0.357  33.079   8.864
 2922POPC   C1A38787   0.459  33.006   8.564
 2922POPC   D2A38788   0.461  33.012   8.264
 2922POPC   C3A38789   0.438  33.006   7.964
 2922POPC   C4A38790   0.468  33.016   7.664
 2922POPC   C1B38791   0.286  33.217   8.564
 2922POPC   C2B38792   0.257  33.264   8.264
 2922POPC   C3B38793   0.330  33.253   7.964
 2922POPC   C4B38794   0.295  33.217   7.664
 2923POPC   NC338795  33.763  37.655   9.464
 2923POPC   PO438796  33.791  37.693   9.164
 2923POPC   GL138797  33.772  37.670   8.864
 2923POPC   GL238798  33.852  37.575   8.864
 2923POPC   C1A38799  33.840  37.716   8.564
 2923POPC   D2A38800  33.821  37.709   8.264
 2923POPC   C3A38801  33.817  37.713   7.964
 2923POPC   C4A38802  33.819  37.653   7.664
 2923POPC   C1B38803  33.832  37.417   8.564
 2923POPC   C2B38804  33.832  37.390   8.264
 2923POPC   C3B38805  33.879  37.482   7.964
 2923POPC   C4B38806  33.883  37.441   7.664
 2924POPC   NC338807  34.564  36.854   9.464
 2924POPC   PO438808  34.566  36.908   9.164
 2924POPC   GL138809  34.587  36.880   8.864
 2924POPC   GL238810  34.721  36.879   8.864
 2924POPC   C1A38811  34.569  36.942   8.564
 2924POPC   D2A38812  34.562  36.899   8.264
 2924POPC   C3A38813  34.578  36.919   7.964
 2924POPC   C4A38814  34.553  36.952   7.664
 2924POPC   C1B38815  34.791  36.762   8.564
 2924POPC   C2B38816  34.812  36.770   8.264
 2924POPC   C3B38817  34.806  36.819   7.964
 2924POPC   C4B38818  34.798  36.761   7.664
 2925POPC   NC338819  29.186   8.155   9.464
 2925POPC   PO438820  29.105   8.189   9.164
 2925POPC   GL138821  29.177   8.182   8.864
 2925POPC   GL238822  29.124   8.102   8.864
 2925POPC   C1A38823  29.172   8.201   8.564
 2925POPC   D2A38824  29.105   8.223   8.264
 2925POPC   C3A38825  29.100   8.205   7.964
 2925POPC   C4A38826  29.180   8.171   7.664
 2925POPC   C1B38827  29.202   7.989   8.564
 2925POPC   C2B38828  29.131   7.958   8.264
 2925POPC   C3B38829  29.158   7.940   7.964
 2925POPC   C4B38830  29.178   7.939   7.664
 2926POPC   NC338831   1.991  33.064   9.464
 2926POPC   PO438832   1.987  32.974   9.164
 2926POPC   GL138833   1.970  32.987   8.864
 2926POPC   GL238834   2.076  32.882   8.864
 2926POPC   C1A38835   2.029  33.036   8.564
 2926POPC   D2A38836   1.953  33.069   8.264
 2926POPC   C3A38837   2.031  33.018   7.964
 2926POPC   C4A38838   1.948  33.036   7.664
 2926POPC   C1B38839   2.104  32.878   8.564
 2926POPC   C2B38840   2.124  32.806   8.264
 2926POPC   C3B38841   2.114  32.825   7.964
 2926POPC   C4B38842   2.116  32.863   7.664
 2927POPC   NC338843  43.102  22.202   9.464
 2927POPC   PO438844  43.080  22.148   9.164
 2927POPC   GL138845  43.085  22.208   8.864
 2927POPC   GL238846  43.014  22.221   8.864
 2927POPC   C1A38847  43.128  22.192   8.564
 2927POPC   D2A38848  43.150  22.168   8.264
 2927POPC   C3A38849  43.124  22.195   7.964
 2927POPC   C4A38850  43.068  22.176   7.664
 2927POPC   C1B38851  42.931  22.348   8.564
 2927POPC   C2B38852  42.929  22.319   8.264
 2927POPC   C3B38853  42.968  22.310   7.964
 2927POPC   C4B38854  42.978  22.368   7.664
 2928POPC   NC338855  39.189   8.982   9.464
 2928POPC   PO438856  39.213   8.951   9.164
 2928POPC   GL138857  39.199   9.010   8.864
 2928POPC   GL238858  39.151   9.106   8.864
 2928POPC   C1A38859  39.184   9.011   8.564
 2928POPC   D2A38860  39.275   9.012   8.264
 2928POPC   C3A38861  39.190   8.978   7.964
 2928POPC   C4A38862  39.252   8.972   7.664
 2928POPC   C1B38863  39.159   9.221   8.564
 2928POPC   C2B38864  39.114   9.232   8.264
 2928POPC   C3B38865  39.129   9.244   7.964
 2928POPC   C4B38866  39.089   9.178   7.664
 2929POPC   NC338867  26.076  26.053   9.464
 2929POPC   PO438868  26.086  26.023   9.164
 2929POPC   GL138869  26.029  26.061   8.864
 2929POPC   GL238870  26.093  26.194   8.864
 2929POPC   C1A38871  26.061  26.011   8.564
 2929POPC   D2A38872  26.084  26.080   8.264
 2929POPC   C3A38873  26.048  26.087   7.964
 2929POPC   C4A38874  26.058  26.054   7.664
 2929POPC   C1B38875  26.096  26.284   8.564
 2929POPC   C2B38876  26.095  26.293   8.264
 2929POPC   C3B38877  26.037  26.301   7.964
 2929POPC   C4B38878  26.037  26.284   7.664
 2930POPC   NC338879  20.598  19.786   9.464
 2930POPC   PO438880  20.621  19.785   9.164
 2930POPC   GL138881  20.580  19.794   8.864
 2930POPC   GL238882  20.774  19.862   8.864
 2930POPC   C1A38883  20.566  19.834   8.564
 2930POPC   D2A38884  20.609  19.872   8.264
 2930POPC   C3A38885  20.647  19.864   7.964
 2930POPC   C4A38886  20.620  19.880   7.664
 2930POPC   C1B38887  20.856  19.882   8.564
 2930POPC   C2B38888  20.884  19.848   8.264
 2930POPC   C3B38889  20.883  19.821   7.964
 2930POPC   C4B38890  20.877  19.854   7.664
 2931POPC   NC338891  15.149   2.026   9.464
 2931POPC   PO438892  15.215   1.953   9.164
 2931POPC   GL138893  15.164   1.955   8.864
 2931POPC   GL238894  15.039   2.062   8.864
 2931POPC   C1A38895  15.177   2.025   8.564
 2931POPC   D2A38896  15.181   2.034   8.264
 2931POPC   C3A38897  15.169   2.003   7.964
 2931POPC   C4A38898  15.163   1.997   7.664
 2931POPC   C1B38899  14.972   2.062   8.564
 2931POPC   C2B38900  14.984   2.120   8.264
 2931POPC   C3B38901  14.955   2.089   7.964
 2931POPC   C4B38902  14.954   2.085   7.664
 2932POPC   NC338903  16.764  15.911   9.464
 2932POPC   PO438904  16.740  15.937   9.164
 2932POPC   GL138905  16.770  15.970   8.864
 2932POPC   GL238906  16.830  15.928   8.864
 2932POPC   C1A38907  16.766  15.990   8.564
 2932POPC   D2A38908  16.697  15.993   8.264
 2932POPC   C3A38909  16.775  15.975   7.964
 2932POPC   C4A38910  16.726  15.990   7.664
 2932POPC   C1B38911  16.919  15.843   8.564
 2932POPC   C2B38912  16.943  15.811   8.264
 2932POPC   C3B38913  16.961  15.838   7.964
 2932POPC   C4B38914  16.965  15.818   7.664
 2933POPC   NC338915   1.946   2.735   9.464
 2933POPC   PO438916   2.035   2.734   9.164
 2933POPC   GL138917   2.004   2.735   8.864
 2933POPC   GL238918   1.927   2.812   8.864
 2933POPC   C1A38919   1.994   2.780   8.564
 2933POPC   D2A38920   2.008   2.736   8.264
 2933POPC   C3A38921   1.988   2.768   7.964
 2933POPC   C4A38922   1.997   2.795   7.664
 2933POPC   C1B38923   1.742   2.918   8.564
 2933POPC   C2B38924   1.774   2.944   8.264
 2933POPC   C3B38925   1.801   2.932   7.964
 2933POPC   C4B38926   1.740   2.858   7.664
 2934POPC   NC338927   5.126  13.629   9.464
 2934POPC   PO438928   5.047  13.641   9.164
 2934POPC   GL138929   5.074  13.608   8.864
 2934POPC   GL238930   5.081  13.778   8.864
 2934POPC   C1A38931   5.093  13.656   8.564
 2934POPC   D2A38932   5.045  13.606   8.264
 2934POPC   C3A38933   5.133  13.615   7.964
 2934POPC   C4A38934   5.113  13.658   7.664
 2934POPC   C1B38935   4.969  13.843   8.564
 2934POPC   C2B38936   4.960  13.799   8.264
 2934POPC   C3B38937   4.965  13.822   7.964
 2934POPC   C4B38938   4.980  13.839   7.664
 2935POPC   NC338939  11.324  15.928   9.464
 2935POPC   PO438940  11.326  15.997   9.164
 2935POPC   GL138941  11.298  15.943   8.864
 2935POPC   GL238942  11.329  15.869   8.864
 2935POPC   C1A38943  11.264  15.942   8.564
 2935POPC   D2A38944  11.349  15.997   8.264
 2935POPC   C3A38945  11.275  15.924   7.964
 2935POPC   C4A38946  11.309  15.973   7.664
 2935POPC   C1B38947  11.318  15.723   8.564
 2935POPC   C2B38948  11.388  15.693   8.264
 2935POPC   C3B38949  11.317  15.662   7.964
 2935POPC   C4B38950  11.372  15.741   7.664
 2936POPC   NC338951  36.149  19.104   9.464
 2936POPC   PO438952  36.089  19.069   9.164
 2936POPC   GL138953  36.176  19.036   8.864
 2936POPC   GL238954  36.068  19.218   8.864
 2936POPC   C1A38955  36.156  19.105   8.564
 2936POPC   D2A38956  36.149  19.107   8.264
 2936POPC   C3A38957  36.108  19.029   7.964
 2936POPC   C4A38958  36.088  19.100   7.664
 2936POPC   C1B38959  36.043  19.280   8.564
 2936POPC   C2B38960  36.106  19.284   8.264
 2936POPC   C3B38961  36.054  19.270   7.964
 2936POPC   C4B38962  36.113  19.302   7.664
 2937POPC   NC338963  42.382  19.079   9.464
 2937POPC   PO438964  42.375  19.030   9.164
 2937POPC   GL138965  42.300  19.107   8.864
 2937POPC   GL238966  42.228  19.067   8.864
 2937POPC   C1A38967  42.318  19.108   8.564
 2937POPC   D2A38968  42.301  19.049   8.264
 2937POPC   C3A38969  42.305  19.105   7.964
 2937POPC   C4A38970  42.286  19.101   7.664
 2937POPC   C1B38971  42.077  19.056   8.564
 2937POPC   C2B38972  42.116  19.048   8.264
 2937POPC   C3B38973  42.050  19.050   7.964
 2937POPC   C4B38974  42.042  19.035   7.664
 2938POPC   NC338975  36.093   2.780   9.464
 2938POPC   PO438976  36.123   2.752   9.164
 2938POPC   GL138977  36.098   2.784   8.864
 2938POPC   GL238978  36.136   2.680   8.864
 2938POPC   C1A38979  36.106   2.796   8.564
 2938POPC   D2A38980  36.096   2.809   8.264
 2938POPC   C3A38981  36.142   2.813   7.964
 2938POPC   C4A38982  36.133   2.803   7.664
 2938POPC   C1B38983  36.046   2.544   8.564
 2938POPC   C2B38984  36.036   2.485   8.264
 2938POPC   C3B38985  36.094   2.556   7.964
 2938POPC   C4B38986  36.027   2.525   7.664
 2939POPC   NC338987  32.988  43.143   9.464
 2939POPC   PO438988  33.051  43.097   9.164
 2939POPC   GL138989  33.016  43.126   8.864
 2939POPC   GL238990  33.140  43.057   8.864
 2939POPC   C1A38991  33.004  43.150   8.564
 2939POPC   D2A38992  33.010  43.069   8.264
 2939POPC   C3A38993  33.024  43.081   7.964
 2939POPC   C4A38994  33.063  43.097   7.664
 2939POPC   C1B38995  33.223  42.928   8.564
 2939POPC   C2B38996  33.242  42.919   8.264
 2939POPC   C3B38997  33.212  42.947   7.964
 2939POPC   C4B38998  33.263  42.989   7.664
 2940POPC   NC338999  43.857  21.417   9.464
 2940POPC   PO439000  43.872  21.385   9.164
 2940POPC   GL139001  43.885  21.339   8.864
 2940POPC   GL239002  43.774  21.286   8.864
 2940POPC   C1A39003  43.854  21.425   8.564
 2940POPC   D2A39004  43.922  21.406   8.264
 2940POPC   C3A39005  43.913  21.371   7.964
 2940POPC   C4A39006  43.916  21.344   7.664
 2940POPC   C1B39007  43.724  21.198   8.564
 2940POPC   C2B39008  43.761  21.201   8.264
 2940POPC   C3B39009  43.727  21.160   7.964
 2940POPC   C4B39010  43.747  21.185   7.664
 2941POPC   NC339011  43.083  38.478   9.464
 2941POPC   PO439012  43.078  38.434   9.164
 2941POPC   GL139013  43.084  38.461   8.864
 2941POPC   GL239014  43.089  38.308   8.864
 2941POPC   C1A39015  43.074  38.493   8.564
 2941POPC   D2A39016  43.098  38.446   8.264
 2941POPC   C3A39017  43.097  38.480   7.964
 2941POPC   C4A39018  43.160  38.433   7.664
 2941POPC   C1B39019  43.142  38.165   8.564
 2941POPC   C2B39020  43.142  38.178   8.264
 2941POPC   C3B39021  43.168  38.236   7.964
 2941POPC   C4B39022  43.102  38.210   7.664
 2942POPC   NC339023  17.537   5.067   9.464
 2942POPC   PO439024  17.495   5.076   9.164
 2942POPC   GL139025  17.501   5.098   8.864
 2942POPC   GL239026  17.655   5.167   8.864
 2942POPC   C1A39027  17.494   5.105   8.564
 2942POPC   D2A39028  17.525   5.051   8.264
 2942POPC   C3A39029  17.517   5.048   7.964
 2942POPC   C4A39030  17.535   5.049   7.664
 2942POPC   C1B39031  17.669   5.229   8.564
 2942POPC   C2B39032  17.760   5.260   8.264
 2942POPC   C3B39033  17.704   5.204   7.964
 2942POPC   C4B39034  17.734   5.197   7.664
 2943POPC   NC339035  37.680  19.834   9.464
 2943POPC   PO439036  37.645  19.800   9.164
 2943POPC   GL139037  37.648  19.815   8.864
 2943POPC   GL239038  37.754  19.829   8.864
 2943POPC   C1A39039  37.699  19.791   8.564
 2943POPC   D2A39040  37.667  19.803   8.264
 2943POPC   C3A39041  37.718  19.832   7.964
 2943POPC   C4A39042  37.729  19.785   7.664
 2943POPC   C1B39043  37.879  19.895   8.564
 2943POPC   C2B39044  37.946  19.922   8.264
 2943POPC   C3B39045  37.955  19.903   7.964
 2943POPC   C4B39046  37.912  19.837   7.664
 2944POPC   NC339047  37.685  21.387   9.464
 2944POPC   PO439048  37.689  21.380   9.164
 2944POPC   GL139049  37.650  21.372   8.864
 2944POPC   GL239050  37.771  21.475   8.864
 2944POPC   C1A39051  37.669  21.412   8.564
 2944POPC   D2A39052  37.633  21.409   8.264
 2944POPC   C3A39053  37.686  21.352   7.964
 2944POPC   C4A39054  37.668  21.337   7.664
 2944POPC   C1B39055  37.782  21.594   8.564
 2944POPC   C2B39056  37.802  21.642   8.264
 2944POPC   C3B39057  37.833  21.605   7.964
 2944POPC   C4B39058  37.844  21.580   7.664
 2945POPC   NC339059  31.504  26.081   9.464
 2945POPC   PO439060  31.424  26.089   9.164
 2945POPC   GL139061  31.512  25.995   8.864
 2945POPC   GL239062  31.500  25.966   8.864
 2945POPC   C1A39063  31.487  26.015   8.564
 2945POPC   D2A39064  31.517  26.091   8.264
 2945POPC   C3A39065  31.513  26.020   7.964
 2945POPC   C4A39066  31.495  26.039   7.664
 2945POPC   C1B39067  31.476  25.768   8.564
 2945POPC   C2B39068  31.506  25.825   8.264
 2945POPC   C3B39069  31.475  25.763   7.964
 2945POPC   C4B39070  31.483  25.753   7.664
 2946POPC   NC339071   7.438   5.118   9.464
 2946POPC   PO439072   7.371   5.073   9.164
 2946POPC   GL139073   7.400   5.137   8.864
 2946POPC   GL239074   7.339   5.145   8.864
 2946POPC   C1A39075   7.449   5.044   8.564
 2946POPC   D2A39076   7.438   5.083   8.264
 2946POPC   C3A39077   7.386   5.110   7.964
 2946POPC   C4A39078   7.407   5.076   7.664
 2946POPC   C1B39079   7.142   5.156   8.564
 2946POPC   C2B39080   7.222   5.141   8.264
 2946POPC   C3B39081   7.159   5.127   7.964
 2946POPC   C4B39082   7.178   5.144   7.664
 2947POPC   NC339083  32.255  37.660   9.464
 2947POPC   PO439084  32.199  37.631   9.164
 2947POPC   GL139085  32.208  37.650   8.864
 2947POPC   GL239086  32.309  37.652   8.864
 2947POPC   C1A39087  32.258  37.654   8.564
 2947POPC   D2A39088  32.225  37.676   8.264
 2947POPC   C3A39089  32.203  37.675   7.964
 2947POPC   C4A39090  32.275  37.672   7.664
 2947POPC   C1B39091  32.480  37.537   8.564
 2947POPC   C2B39092  32.453  37.589   8.264
 2947POPC   C3B39093  32.496  37.518   7.964
 2947POPC   C4B39094  32.481  37.541   7.664
 2948POPC   NC339095  25.225  19.080   9.464
 2948POPC   PO439096  25.242  19.093   9.164
 2948POPC   GL139097  25.269  19.018   8.864
 2948POPC   GL239098  25.371  19.130   8.864
 2948POPC   C1A39099  25.263  19.018   8.564
 2948POPC   D2A39100  25.299  19.032   8.264
 2948POPC   C3A39101  25.298  19.103   7.964
 2948POPC   C4A39102  25.228  19.072   7.664
 2948POPC   C1B39103  25.503  19.217   8.564
 2948POPC   C2B39104  25.422  19.180   8.264
 2948POPC   C3B39105  25.465  19.172   7.964
 2948POPC   C4B39106  25.445  19.223   7.664
 2949POPC   NC339107  19.106  34.604   9.464
 2949POPC   PO439108  19.043  34.610   9.164
 2949POPC   GL139109  19.049  34.600   8.864
 2949POPC   GL239110  19.122  34.461   8.864
 2949POPC   C1A39111  19.069  34.526   8.564
 2949POPC   D2A39112  19.035  34.556   8.264
 2949POPC   C3A39113  19.031  34.545   7.964
 2949POPC   C4A39114  19.031  34.556   7.664
 2949POPC   C1B39115  19.187  34.406   8.564
 2949POPC   C2B39116  19.255  34.372   8.264
 2949POPC   C3B39117  19.175  34.414   7.964
 2949POPC   C4B39118  19.217  34.350   7.664
 2950POPC   NC339119  15.224   5.091   9.464
 2950POPC   PO439120  15.170   5.051   9.164
 2950POPC   GL139121  15.171   5.130   8.864
 2950POPC   GL239122  15.102   5.141   8.864
 2950POPC   C1A39123  15.218   5.100   8.564
 2950POPC   D2A39124  15.169   5.058   8.264
 2950POPC   C3A39125  15.132   5.136   7.964
 2950POPC   C4A39126  15.137   5.070   7.664
 2950POPC   C1B39127  14.935   5.132   8.564
 2950POPC   C2B39128  14.962   5.119   8.264
 2950POPC   C3B39129  14.889   5.132   7.964
 2950POPC   C4B39130  14.899   5.120   7.664
 2951POPC   NC339131  12.843  11.277   9.464
 2951POPC   PO439132  12.857  11.290   9.164
 2951POPC   GL139133  12.866  11.273   8.864
 2951POPC   GL239134  12.773  11.227   8.864
 2951POPC   C1A39135  12.852  11.266   8.564
 2951POPC   D2A39136  12.898  11.268   8.264
 2951POPC   C3A39137  12.845  11.287   7.964
 2951POPC   C4A39138  12.874  11.344   7.664
 2951POPC   C1B39139  12.664  11.105   8.564
 2951POPC   C2B39140  12.709  11.130   8.264
 2951POPC   C3B39141  12.738  11.109   7.964
 2951POPC   C4B39142  12.702  11.104   7.664
 2952POPC   NC339143   5.135  40.733   9.464
 2952POPC   PO439144   5.072  40.786   9.164
 2952POPC   GL139145   5.111  40.776   8.864
 2952POPC   GL239146   5.147  40.681   8.864
 2952POPC   C1A39147   5.136  40.797   8.564
 2952POPC   D2A39148   5.051  40.760   8.264
 2952POPC   C3A39149   5.056  40.751   7.964
 2952POPC   C4A39150   5.110  40.786   7.664
 2952POPC   C1B39151   5.214  40.531   8.564
 2952POPC   C2B39152   5.158  40.536   8.264
 2952POPC   C3B39153   5.191  40.590   7.964
 2952POPC   C4B39154   5.145  40.581   7.664
 2953POPC   NC339155  11.313  19.023   9.464
 2953POPC   PO439156  11.316  19.079   9.164
 2953POPC   GL139157  11.330  19.102   8.864
 2953POPC   GL239158  11.377  18.975   8.864
 2953POPC   C1A39159  11.288  19.077   8.564
 2953POPC   D2A39160  11.338  19.018   8.264
 2953POPC   C3A39161  11.317  19.051   7.964
 2953POPC   C4A39162  11.283  19.062   7.664
 2953POPC   C1B39163  11.493  18.984   8.564
 2953POPC   C2B39164  11.510  18.956   8.264
 2953POPC   C3B39165  11.554  18.995   7.964
 2953POPC   C4B39166  11.496  19.013   7.664
 2954POPC   NC339167  42.363  21.430   9.464
 2954POPC   PO439168  42.344  21.376   9.164
 2954POPC   GL139169  42.355  21.420   8.864
 2954POPC   GL239170  42.251  21.307   8.864
 2954POPC   C1A39171  42.319  21.434   8.564
 2954POPC   D2A39172  42.338  21.361   8.264
 2954POPC   C3A39173  42.336  21.340   7.964
 2954POPC   C4A39174  42.350  21.372   7.664
 2954POPC   C1B39175  42.157  21.318   8.564
 2954POPC   C2B39176  42.123  21.272   8.264
 2954POPC   C3B39177  42.156  21.276   7.964
 2954POPC   C4B39178  42.148  21.317   7.664
 2955POPC   NC339179  43.865  23.674   9.464
 2955POPC   PO439180  43.936  23.699   9.164
 2955POPC   GL139181  43.916  23.742   8.864
 2955POPC   GL239182  43.735  23.721   8.864
 2955POPC   C1A39183  43.927  23.746   8.564
 2955POPC   D2A39184  43.877  23.680   8.264
 2955POPC   C3A39185  43.889  23.684   7.964
 2955POPC   C4A39186  43.898  23.702   7.664
 2955POPC   C1B39187  43.700  23.829   8.564
 2955POPC   C2B39188  43.643  23.826   8.264
 2955POPC   C3B39189  43.699  23.793   7.964
 2955POPC   C4B39190  43.646  23.805   7.664
 2956POPC   NC339191   4.288  15.997   9.464
 2956POPC   PO439192   4.345  15.989   9.164
 2956POPC   GL139193   4.360  15.933   8.864
 2956POPC   GL239194   4.389  15.819   8.864
 2956POPC   C1A39195   4.363  15.994   8.564
 2956POPC   D2A39196   4.310  15.992   8.264
 2956POPC   C3A39197   4.278  15.958   7.964
 2956POPC   C4A39198   4.279  15.992   7.664
 2956POPC   C1B39199   4.410  15.771   8.564
 2956POPC   C2B39200   4.448  15.759   8.264
 2956POPC   C3B39201   4.475  15.696   7.964
 2956POPC   C4B39202   4.405  15.773   7.664
 2957POPC   NC339203  29.114   4.301   9.464
 2957POPC   PO439204  29.163   4.338   9.164
 2957POPC   GL139205  29.178   4.286   8.864
 2957POPC   GL239206  29.248   4.342   8.864
 2957POPC   C1A39207  29.143   4.339   8.564
 2957POPC   D2A39208  29.145   4.323   8.264
 2957POPC   C3A39209  29.177   4.329   7.964
 2957POPC   C4A39210  29.139   4.303   7.664
 2957POPC   C1B39211  29.347   4.346   8.564
 2957POPC   C2B39212  29.383   4.290   8.264
 2957POPC   C3B39213  29.385   4.303   7.964
 2957POPC   C4B39214  29.436   4.295   7.664
 2958POPC   NC339215  10.541  36.952   9.464
 2958POPC   PO439216  10.566  36.907   9.164
 2958POPC   GL139217  10.527  36.910   8.864
 2958POPC   GL239218  10.611  36.883   8.864
 2958POPC   C1A39219  10.521  36.863   8.564
 2958POPC   D2A39220  10.500  36.917   8.264
 2958POPC   C3A39221  10.513  36.937   7.964
 2958POPC   C4A39222  10.481  36.910   7.664
 2958POPC   C1B39223  10.767  36.749   8.564
 2958POPC   C2B39224  10.775  36.809   8.264
 2958POPC   C3B39225  10.720  36.746   7.964
 2958POPC   C4B39226  10.788  36.786   7.664
 2959POPC   NC339227  38.502  19.079   9.464
 2959POPC   PO439228  38.445  19.038   9.164
 2959POPC   GL139229  38.503  19.039   8.864
 2959POPC   GL239230  38.567  19.146   8.864
 2959POPC   C1A39231  38.484  19.040   8.564
 2959POPC   D2A39232  38.491  19.028   8.264
 2959POPC   C3A39233  38.422  19.015   7.964
 2959POPC   C4A39234  38.478  19.100   7.664
 2959POPC   C1B39235  38.668  19.135   8.564
 2959POPC   C2B39236  38.683  19.168   8.264
 2959POPC   C3B39237  38.695  19.192   7.964
 2959POPC   C4B39238  38.653  19.120   7.664
 2960POPC   NC339239   9.736  33.063   9.464
 2960POPC   PO439240   9.743  33.029   9.164
 2960POPC   GL139241   9.742  33.021   8.864
 2960POPC   GL239242   9.877  33.068   8.864
 2960POPC   C1A39243   9.737  33.041   8.564
 2960POPC   D2A39244   9.704  33.002   8.264
 2960POPC   C3A39245   9.712  32.975   7.964
 2960POPC   C4A39246   9.768  33.042   7.664
 2960POPC   C1B39247   9.963  33.164   8.564
 2960POPC   C2B39248   9.970  33.164   8.264
 2960POPC   C3B39249   9.939  33.189   7.964
 2960POPC   C4B39250   9.960  33.199   7.664
 2961POPC   NC339251  26.786  14.386   9.464
 2961POPC   PO439252  26.780  14.371   9.164
 2961POPC   GL139253  26.850  14.394   8.864
 2961POPC   GL239254  26.954  14.357   8.864
 2961POPC   C1A39255  26.771  14.380   8.564
 2961POPC   D2A39256  26.815  14.357   8.264
 2961POPC   C3A39257  26.798  14.446   7.964
 2961POPC   C4A39258  26.835  14.364   7.664
 2961POPC   C1B39259  27.072  14.269   8.564
 2961POPC   C2B39260  27.006  14.292   8.264
 2961POPC   C3B39261  27.033  14.261   7.964
 2961POPC   C4B39262  26.999  14.318   7.664
 2962POPC   NC339263  24.442  31.491   9.464
 2962POPC   PO439264  24.473  31.445   9.164
 2962POPC   GL139265  24.476  31.496   8.864
 2962POPC   GL239266  24.407  31.492   8.864
 2962POPC   C1A39267  24.446  31.510   8.564
 2962POPC   D2A39268  24.525  31.453   8.264
 2962POPC   C3A39269  24.493  31.429   7.964
 2962POPC   C4A39270  24.456  31.433   7.664
 2962POPC   C1B39271  24.313  31.558   8.564
 2962POPC   C2B39272  24.236  31.640   8.264
 2962POPC   C3B39273  24.279  31.557   7.964
 2962POPC   C4B39274  24.283  31.611   7.664
 2963POPC   NC339275   9.786  42.347   9.464
 2963POPC   PO439276   9.708  42.366   9.164
 2963POPC   GL139277   9.778  42.303   8.864
 2963POPC   GL239278   9.786  42.202   8.864
 2963POPC   C1A39279   9.788  42.301   8.564
 2963POPC   D2A39280   9.766  42.368   8.264
 2963POPC   C3A39281   9.776  42.353   7.964
 2963POPC   C4A39282   9.758  42.285   7.664
 2963POPC   C1B39283   9.792  42.077   8.564
 2963POPC   C2B39284   9.736  42.117   8.264
 2963POPC   C3B39285   9.758  42.132   7.964
 2963POPC   C4B39286   9.736  42.078   7.664
 2964POPC   NC339287  31.464   0.452   9.464
 2964POPC   PO439288  31.495   0.459   9.164
 2964POPC   GL139289  31.449   0.415   8.864
 2964POPC   GL239290  31.530   0.546   8.864
 2964POPC   C1A39291  31.512   0.446   8.564
 2964POPC   D2A39292  31.483   0.469   8.264
 2964POPC   C3A39293  31.464   0.461   7.964
 2964POPC   C4A39294  31.461   0.395   7.664
 2964POPC   C1B39295  31.655   0.658   8.564
 2964POPC   C2B39296  31.646   0.654   8.264
 2964POPC   C3B39297  31.609   0.649   7.964
 2964POPC   C4B39298  31.594   0.667   7.664
 2965POPC   NC339299   5.822  32.201   9.464
 2965POPC   PO439300   5.857  32.251   9.164
 2965POPC   GL139301   5.852  32.241   8.864
 2965POPC   GL239302   5.962  32.144   8.864
 2965POPC   C1A39303   5.886  32.286   8.564
 2965POPC   D2A39304   5.874  32.209   8.264
 2965POPC   C3A39305   5.893  32.244   7.964
 2965POPC   C4A39306   5.888  32.286   7.664
 2965POPC   C1B39307   6.087  32.086   8.564
 2965POPC   C2B39308   6.047  32.132   8.264
 2965POPC   C3B39309   6.057  32.063   7.964
 2965POPC   C4B39310   6.062  32.065   7.664
 2966POPC   NC339311  10.535  30.672   9.464
 2966POPC   PO439312  10.557  30.708   9.164
 2966POPC   GL139313  10.557  30.647   8.864
 2966POPC   GL239314  10.664  30.767   8.864
 2966POPC   C1A39315  10.532  30.659   8.564
 2966POPC   D2A39316  10.536  30.668   8.264
 2966POPC   C3A39317  10.565  30.666   7.964
 2966POPC   C4A39318  10.553  30.690   7.664
 2966POPC   C1B39319  10.712  30.862   8.564
 2966POPC   C2B39320  10.734  30.799   8.264
 2966POPC   C3B39321  10.711  30.799   7.964
 2966POPC   C4B39322  10.753  30.785   7.664
 2967POPC   NC339323  29.967  31.491   9.464
 2967POPC   PO439324  29.895  31.446   9.164
 2967POPC   GL139325  29.944  31.506   8.864
 2967POPC   GL239326  29.880  31.378   8.864
 2967POPC   C1A39327  29.965  31.514   8.564
 2967POPC   D2A39328  29.963  31.436   8.264
 2967POPC   C3A39329  29.920  31.437   7.964
 2967POPC   C4A39330  29.945  31.463   7.664
 2967POPC   C1B39331  29.742  31.235   8.564
 2967POPC   C2B39332  29.716  31.235   8.264
 2967POPC   C3B39333  29.781  31.264   7.964
 2967POPC   C4B39334  29.786  31.299   7.664
 2968POPC   NC339335  19.883  39.273   9.464
 2968POPC   PO439336  19.788  39.258   9.164
 2968POPC   GL139337  19.790  39.274   8.864
 2968POPC   GL239338  19.810  39.321   8.864
 2968POPC   C1A39339  19.860  39.225   8.564
 2968POPC   D2A39340  19.836  39.247   8.264
 2968POPC   C3A39341  19.786  39.223   7.964
 2968POPC   C4A39342  19.848  39.229   7.664
 2968POPC   C1B39343  19.830  39.498   8.564
 2968POPC   C2B39344  19.812  39.458   8.264
 2968POPC   C3B39345  19.859  39.460   7.964
 2968POPC   C4B39346  19.868  39.499   7.664
 2969POPC   NC339347   5.892  29.945   9.464
 2969POPC   PO439348   5.826  29.949   9.164
 2969POPC   GL139349   5.842  29.872   8.864
 2969POPC   GL239350   5.758  29.796   8.864
 2969POPC   C1A39351   5.856  29.943   8.564
 2969POPC   D2A39352   5.843  29.882   8.264
 2969POPC   C3A39353   5.838  29.901   7.964
 2969POPC   C4A39354   5.913  29.937   7.664
 2969POPC   C1B39355   5.703  29.743   8.564
 2969POPC   C2B39356   5.659  29.761   8.264
 2969POPC   C3B39357   5.744  29.688   7.964
 2969POPC   C4B39358   5.685  29.741   7.664
 2970POPC   NC339359  28.349  11.259   9.464
 2970POPC   PO439360  28.382  11.268   9.164
 2970POPC   GL139361  28.336  11.345   8.864
 2970POPC   GL239362  28.482  11.374   8.864
 2970POPC   C1A39363  28.319  11.337   8.564
 2970POPC   D2A39364  28.357  11.276   8.264
 2970POPC   C3A39365  28.325  11.332   7.964
 2970POPC   C4A39366  28.345  11.288   7.664
 2970POPC   C1B39367  28.579  11.377   8.564
 2970POPC   C2B39368  28.619  11.380   8.264
 2970POPC   C3B39369  28.602  11.362   7.964
 2970POPC   C4B39370  28.567  11.415   7.664
 2971POPC   NC339371  30.719  24.471   9.464
 2971POPC   PO439372  30.698  24.458   9.164
 2971POPC   GL139373  30.672  24.507   8.864
 2971POPC   GL239374  30.783  24.491   8.864
 2971POPC   C1A39375  30.685  24.449   8.564
 2971POPC   D2A39376  30.688  24.455   8.264
 2971POPC   C3A39377  30.666  24.528   7.964
 2971POPC   C4A39378  30.731  24.519   7.664
 2971POPC   C1B39379  30.897  24.446   8.564
 2971POPC   C2B39380  30.984  24.460   8.264
 2971POPC   C3B39381  30.900  24.401   7.964
 2971POPC   C4B39382  30.890  24.453   7.664
 2972POPC   NC339383  40.771  33.006   9.464
 2972POPC   PO439384  40.791  32.983   9.164
 2972POPC   GL139385  40.804  32.989   8.864
 2972POPC   GL239386  40.805  33.156   8.864
 2972POPC   C1A39387  40.815  33.033   8.564
 2972POPC   D2A39388  40.826  32.974   8.264
 2972POPC   C3A39389  40.831  33.034   7.964
 2972POPC   C4A39390  40.806  33.061   7.664
 2972POPC   C1B39391  40.951  33.249   8.564
 2972POPC   C2B39392  40.936  33.196   8.264
 2972POPC   C3B39393  40.922  33.274   7.964
 2972POPC   C4B39394  40.883  33.238   7.664
 2973POPC   NC339395  20.641   8.235   9.464
 2973POPC   PO439396  20.626   8.191   9.164
 2973POPC   GL139397  20.568   8.215   8.864
 2973POPC   GL239398  20.687   8.274   8.864
 2973POPC   C1A39399  20.653   8.174   8.564
 2973POPC   D2A39400  20.591   8.198   8.264
 2973POPC   C3A39401  20.656   8.175   7.964
 2973POPC   C4A39402  20.597   8.184   7.664
 2973POPC   C1B39403  20.800   8.439   8.564
 2973POPC   C2B39404  20.740   8.365   8.264
 2973POPC   C3B39405  20.728   8.396   7.964
 2973POPC   C4B39406  20.735   8.426   7.664
 2974POPC   NC339407  34.580  22.145   9.464
 2974POPC   PO439408  34.555  22.162   9.164
 2974POPC   GL139409  34.575  22.127   8.864
 2974POPC   GL239410  34.642  22.201   8.864
 2974POPC   C1A39411  34.531  22.159   8.564
 2974POPC   D2A39412  34.547  22.144   8.264
 2974POPC   C3A39413  34.572  22.187   7.964
 2974POPC   C4A39414  34.600  22.163   7.664
 2974POPC   C1B39415  34.753  22.229   8.564
 2974POPC   C2B39416  34.763  22.263   8.264
 2974POPC   C3B39417  34.816  22.251   7.964
 2974POPC   C4B39418  34.783  22.251   7.664
 2975POPC   NC339419  42.367   1.234   9.464
 2975POPC   PO439420  42.326   1.221   9.164
 2975POPC   GL139421  42.334   1.211   8.864
 2975POPC   GL239422  42.411   1.190   8.864
 2975POPC   C1A39423  42.347   1.193   8.564
 2975POPC   D2A39424  42.296   1.192   8.264
 2975POPC   C3A39425  42.363   1.215   7.964
 2975POPC   C4A39426  42.308   1.218   7.664
 2975POPC   C1B39427  42.553   1.290   8.564
 2975POPC   C2B39428  42.539   1.248   8.264
 2975POPC   C3B39429  42.600   1.246   7.964
 2975POPC   C4B39430  42.603   1.259   7.664
 2976POPC   NC339431  25.267   8.945   9.464
 2976POPC   PO439432  25.242   9.009   9.164
 2976POPC   GL139433  25.285   8.977   8.864
 2976POPC   GL239434  25.236   8.821   8.864
 2976POPC   C1A39435  25.241   8.993   8.564
 2976POPC   D2A39436  25.305   8.956   8.264
 2976POPC   C3A39437  25.281   8.948   7.964
 2976POPC   C4A39438  25.216   8.976   7.664
 2976POPC   C1B39439  25.226   8.750   8.564
 2976POPC   C2B39440  25.265   8.679   8.264
 2976POPC   C3B39441  25.301   8.701   7.964
 2976POPC   C4B39442  25.266   8.706   7.664
 2977POPC   NC339443  42.299  12.894   9.464
 2977POPC   PO439444  42.367  12.828   9.164
 2977POPC   GL139445  42.317  12.869   8.864
 2977POPC   GL239446  42.398  12.943   8.864
 2977POPC   C1A39447  42.377  12.837   8.564
 2977POPC   D2A39448  42.298  12.816   8.264
 2977POPC   C3A39449  42.362  12.826   7.964
 2977POPC   C4A39450  42.327  12.866   7.664
 2977POPC   C1B39451  42.429  13.119   8.564
 2977POPC   C2B39452  42.344  13.091   8.264
 2977POPC   C3B39453  42.411  13.136   7.964
 2977POPC   C4B39454  42.372  13.133   7.664
 2978POPC   NC339455  36.080  10.491   9.464
 2978POPC   PO439456  36.115  10.478   9.164
 2978POPC   GL139457  36.177  10.503   8.864
 2978POPC   GL239458  36.024  10.596   8.864
 2978POPC   C1A39459  36.088  10.543   8.564
 2978POPC   D2A39460  36.143  10.522   8.264
 2978POPC   C3A39461  36.098  10.571   7.964
 2978POPC   C4A39462  36.112  10.499   7.664
 2978POPC   C1B39463  35.931  10.548   8.564
 2978POPC   C2B39464  35.888  10.609   8.264
 2978POPC   C3B39465  35.902  10.528   7.964
 2978POPC   C4B39466  35.857  10.579   7.664
 2979POPC   NC339467  37.725  18.294   9.464
 2979POPC   PO439468  37.706  18.306   9.164
 2979POPC   GL139469  37.684  18.272   8.864
 2979POPC   GL239470  37.604  18.208   8.864
 2979POPC   C1A39471  37.689  18.254   8.564
 2979POPC   D2A39472  37.713  18.296   8.264
 2979POPC   C3A39473  37.728  18.302   7.964
 2979POPC   C4A39474  37.682  18.268   7.664
 2979POPC   C1B39475  37.565  18.074   8.564
 2979POPC   C2B39476  37.542  18.074   8.264
 2979POPC   C3B39477  37.498  18.105   7.964
 2979POPC   C4B39478  37.492  18.085   7.664
 2980POPC   NC339479  26.072  44.705   9.464
 2980POPC   PO439480  26.002  44.617   9.164
 2980POPC   GL139481  26.061  44.648   8.864
 2980POPC   GL239482  25.905  44.777   8.864
 2980POPC   C1A39483  26.049  44.643   8.564
 2980POPC   D2A39484  26.020  44.712   8.264
 2980POPC   C3A39485  26.030  44.623   7.964
 2980POPC   C4A39486  26.009  44.642   7.664
 2980POPC   C1B39487  25.812  44.796   8.564
 2980POPC   C2B39488  25.863  44.797   8.264
 2980POPC   C3B39489  25.860  44.762   7.964
 2980POPC   C4B39490  25.838  44.797   7.664
 2981POPC   NC339491  32.996  42.304   9.464
 2981POPC   PO439492  33.033  42.365   9.164
 2981POPC   GL139493  33.060  42.339   8.864
 2981POPC   GL239494  33.130  42.394   8.864
 2981POPC   C1A39495  33.066  42.291   8.564
 2981POPC   D2A39496  33.024  42.325   8.264
 2981POPC   C3A39497  33.015  42.378   7.964
 2981POPC   C4A39498  33.052  42.377   7.664
 2981POPC   C1B39499  33.181  42.540   8.564
 2981POPC   C2B39500  33.172  42.594   8.264
 2981POPC   C3B39501  33.158  42.535   7.964
 2981POPC   C4B39502  33.192  42.530   7.664
 2982POPC   NC339503  35.386   8.150   9.464
 2982POPC   PO439504  35.345   8.221   9.164
 2982POPC   GL139505  35.361   8.198   8.864
 2982POPC   GL239506  35.272   8.119   8.864
 2982POPC   C1A39507  35.331   8.229   8.564
 2982POPC   D2A39508  35.322   8.238   8.264
 2982POPC   C3A39509  35.340   8.172   7.964
 2982POPC   C4A39510  35.320   8.229   7.664
 2982POPC   C1B39511  35.252   8.000   8.564
 2982POPC   C2B39512  35.255   7.981   8.264
 2982POPC   C3B39513  35.223   8.034   7.964
 2982POPC   C4B39514  35.229   7.955   7.664
 2983POPC   NC339515  10.475  16.738   9.464
 2983POPC   PO439516  10.553  16.729   9.164
 2983POPC   GL139517  10.543  16.749   8.864
 2983POPC   GL239518  10.618  16.782   8.864
 2983POPC   C1A39519  10.560  16.714   8.564
 2983POPC   D2A39520  10.531  16.748   8.264
 2983POPC   C3A39521  10.475  16.750   7.964
 2983POPC   C4A39522  10.514  16.775   7.664
 2983POPC   C1B39523  10.710  16.879   8.564
 2983POPC   C2B39524  10.782  16.896   8.264
 2983POPC   C3B39525  10.757  16.900   7.964
 2983POPC   C4B39526  10.744  16.848   7.664
 2984POPC   NC339527   0.420  40.808   9.464
 2984POPC   PO439528   0.429  40.824   9.164
 2984POPC   GL139529   0.469  40.766   8.864
 2984POPC   GL239530   0.452  40.672   8.864
 2984POPC   C1A39531   0.460  40.770   8.564
 2984POPC   D2A39532   0.461  40.744   8.264
 2984POPC   C3A39533   0.434  40.815   7.964
 2984POPC   C4A39534   0.408  40.784   7.664
 2984POPC   C1B39535   0.556  40.606   8.564
 2984POPC   C2B39536   0.515  40.512   8.264
 2984POPC   C3B39537   0.502  40.528   7.964
 2984POPC   C4B39538   0.525  40.524   7.664
 2985POPC   NC339539  40.806  35.362   9.464
 2985POPC   PO439540  40.786  35.312   9.164
 2985POPC   GL139541  40.733  35.317   8.864
 2985POPC   GL239542  40.660  35.235   8.864
 2985POPC   C1A39543  40.741  35.307   8.564
 2985POPC   D2A39544  40.805  35.323   8.264
 2985POPC   C3A39545  40.790  35.342   7.964
 2985POPC   C4A39546  40.795  35.320   7.664
 2985POPC   C1B39547  40.611  35.192   8.564
 2985POPC   C2B39548  40.605  35.144   8.264
 2985POPC   C3B39549  40.627  35.201   7.964
 2985POPC   C4B39550  40.661  35.150   7.664
 2986POPC   NC339551  12.062   6.633   9.464
 2986POPC   PO439552  12.038   6.596   9.164
 2986POPC   GL139553  12.119   6.626   8.864
 2986POPC   GL239554  12.170   6.750   8.864
 2986POPC   C1A39555  12.029   6.611   8.564
 2986POPC   D2A39556  12.030   6.681   8.264
 2986POPC   C3A39557  12.047   6.625   7.964
 2986POPC   C4A39558  12.081   6.693   7.664
 2986POPC   C1B39559  12.256   6.862   8.564
 2986POPC   C2B39560  12.201   6.884   8.264
 2986POPC   C3B39561  12.244   6.869   7.964
 2986POPC   C4B39562  12.241   6.890   7.664
 2987POPC   NC339563   5.099  19.789   9.464
 2987POPC   PO439564   5.046  19.803   9.164
 2987POPC   GL139565   5.057  19.868   8.864
 2987POPC   GL239566   4.991  19.848   8.864
 2987POPC   C1A39567   5.131  19.796   8.564
 2987POPC   D2A39568   5.135  19.806   8.264
 2987POPC   C3A39569   5.098  19.803   7.964
 2987POPC   C4A39570   5.102  19.787   7.664
 2987POPC   C1B39571   4.801  19.810   8.564
 2987POPC   C2B39572   4.864  19.841   8.264
 2987POPC   C3B39573   4.797  19.836   7.964
 2987POPC   C4B39574   4.813  19.875   7.664
 2988POPC   NC339575  35.309  29.899   9.464
 2988POPC   PO439576  35.367  29.965   9.164
 2988POPC   GL139577  35.324  29.956   8.864
 2988POPC   GL239578  35.271  29.905   8.864
 2988POPC   C1A39579  35.305  29.903   8.564
 2988POPC   D2A39580  35.328  29.927   8.264
 2988POPC   C3A39581  35.363  29.922   7.964
 2988POPC   C4A39582  35.328  29.935   7.664
 2988POPC   C1B39583  35.137  29.766   8.564
 2988POPC   C2B39584  35.096  29.828   8.264
 2988POPC   C3B39585  35.105  29.768   7.964
 2988POPC   C4B39586  35.122  29.840   7.664
 2989POPC   NC339587  39.274  26.031   9.464
 2989POPC   PO439588  39.274  26.032   9.164
 2989POPC   GL139589  39.212  25.994   8.864
 2989POPC   GL239590  39.315  25.971   8.864
 2989POPC   C1A39591  39.208  26.029   8.564
 2989POPC   D2A39592  39.218  26.061   8.264
 2989POPC   C3A39593  39.183  26.043   7.964
 2989POPC   C4A39594  39.195  26.005   7.664
 2989POPC   C1B39595  39.486  25.932   8.564
 2989POPC   C2B39596  39.471  25.975   8.264
 2989POPC   C3B39597  39.450  25.961   7.964
 2989POPC   C4B39598  39.518  25.990   7.664
 2990POPC   NC339599  44.623  23.717   9.464
 2990POPC   PO439600  44.681  23.684   9.164
 2990POPC   GL139601  44.638  23.704   8.864
 2990POPC   GL239602  44.692  23.627   8.864
 2990POPC   C1A39603  44.685  23.730   8.564
 2990POPC   D2A39604  44.615  23.708   8.264
 2990POPC   C3A39605  44.644  23.751   7.964
 2990POPC   C4A39606  44.638  23.725   7.664
 2990POPC   C1B39607  44.796  23.535   8.564
 2990POPC   C2B39608  44.752  23.483   8.264
 2990POPC   C3B39609  44.756  23.517   7.964
 2990POPC   C4B39610  44.730  23.446   7.664
 2991POPC   NC339611  42.316  43.102   9.464
 2991POPC   PO439612  42.331  43.065   9.164
 2991POPC   GL139613  42.297  43.065   8.864
 2991POPC   GL239614  42.216  43.147   8.864
 2991POPC   C1A39615  42.369  43.100   8.564
 2991POPC   D2A39616  42.292  43.113   8.264
 2991POPC   C3A39617  42.379  43.112   7.964
 2991POPC   C4A39618  42.296  43.077   7.664
 2991POPC   C1B39619  42.156  43.213   8.564
 2991POPC   C2B39620  42.081  43.191   8.264
 2991POPC   C3B39621  42.139  43.253   7.964
 2991POPC   C4B39622  42.145  43.264   7.664
 2992POPC   NC339623  16.757   5.918   9.464
 2992POPC   PO439624  16.705   5.848   9.164
 2992POPC   GL139625  16.682   5.832   8.864
 2992POPC   GL239626  16.644   5.951   8.864
 2992POPC   C1A39627  16.774   5.848   8.564
 2992POPC   D2A39628  16.750   5.829   8.264
 2992POPC   C3A39629  16.700   5.821   7.964
 2992POPC   C4A39630  16.724   5.903   7.664
 2992POPC   C1B39631  16.532   5.923   8.564
 2992POPC   C2B39632  16.497   5.951   8.264
 2992POPC   C3B39633  16.526   5.925   7.964
 2992POPC   C4B39634  16.522   5.984   7.664
 2993POPC   NC339635  34.561   0.481   9.464
 2993POPC   PO439636  34.564   0.486   9.164
 2993POPC   GL139637  34.561   0.479   8.864
 2993POPC   GL239638  34.630   0.349   8.864
 2993POPC   C1A39639  34.583   0.466   8.564
 2993POPC   D2A39640  34.552   0.410   8.264
 2993POPC   C3A39641  34.565   0.391   7.964
 2993POPC   C4A39642  34.621   0.401   7.664
 2993POPC   C1B39643  34.782   0.322   8.564
 2993POPC   C2B39644  34.789   0.242   8.264
 2993POPC   C3B39645  34.797   0.244   7.964
 2993POPC   C4B39646  34.781   0.312   7.664
 2994POPC   NC339647  37.653  30.706   9.464
 2994POPC   PO439648  37.684  30.734   9.164
 2994POPC   GL139649  37.660  30.718   8.864
 2994POPC   GL239650  37.530  30.751   8.864
 2994POPC   C1A39651  37.705  30.731   8.564
 2994POPC   D2A39652  37.655  30.674   8.264
 2994POPC   C3A39653  37.660  30.668   7.964
 2994POPC   C4A39654  37.695  30.647   7.664
 2994POPC   C1B39655  37.396  30.756   8.564
 2994POPC   C2B39656  37.397  30.718   8.264
 2994POPC   C3B39657  37.383  30.746   7.964
 2994POPC   C4B39658  37.411  30.733   7.664
 2995POPC   NC339659  14.399  14.373   9.464
 2995POPC   PO439660  14.412  14.371   9.164
 2995POPC   GL139661  14.367  14.436   8.864
 2995POPC   GL239662  14.372  14.502   8.864
 2995POPC   C1A39663  14.427  14.386   8.564
 2995POPC   D2A39664  14.378  14.446   8.264
 2995POPC   C3A39665  14.418  14.412   7.964
 2995POPC   C4A39666  14.404  14.418   7.664
 2995POPC   C1B39667  14.272  14.599   8.564
 2995POPC   C2B39668  14.319  14.579   8.264
 2995POPC   C3B39669  14.307  14.614   7.964
 2995POPC   C4B39670  14.313  14.640   7.664
 2996POPC   NC339671  13.666   2.758   9.464
 2996POPC   PO439672  13.581   2.799   9.164
 2996POPC   GL139673  13.659   2.750   8.864
 2996POPC   GL239674  13.689   2.670   8.864
 2996POPC   C1A39675  13.656   2.737   8.564
 2996POPC   D2A39676  13.616   2.810   8.264
 2996POPC   C3A39677  13.604   2.768   7.964
 2996POPC   C4A39678  13.643   2.794   7.664
 2996POPC   C1B39679  13.776   2.549   8.564
 2996POPC   C2B39680  13.801   2.580   8.264
 2996POPC   C3B39681  13.774   2.555   7.964
 2996POPC   C4B39682  13.789   2.541   7.664
 2997POPC   NC339683  14.403  12.041   9.464
 2997POPC   PO439684  14.451  12.028   9.164
 2997POPC   GL139685  14.362  12.121   8.864
 2997POPC   GL239686  14.469  11.968   8.864
 2997POPC   C1A39687  14.383  12.032   8.564
 2997POPC   D2A39688  14.374  12.079   8.264
 2997POPC   C3A39689  14.394  12.043   7.964
 2997POPC   C4A39690  14.441  12.099   7.664
 2997POPC   C1B39691  14.462  11.830   8.564
 2997POPC   C2B39692  14.430  11.838   8.264
 2997POPC   C3B39693  14.478  11.857   7.964
 2997POPC   C4B39694  14.496  11.830   7.664
 2998POPC   NC339695  38.413  28.344   9.464
 2998POPC   PO439696  38.450  28.322   9.164
 2998POPC   GL139697  38.435  28.322   8.864
 2998POPC   GL239698  38.309  28.492   8.864
 2998POPC   C1A39699  38.504  28.347   8.564
 2998POPC   D2A39700  38.421  28.412   8.264
 2998POPC   C3A39701  38.489  28.392   7.964
 2998POPC   C4A39702  38.487  28.364   7.664
 2998POPC   C1B39703  38.272  28.471   8.564
 2998POPC   C2B39704  38.237  28.475   8.264
 2998POPC   C3B39705  38.265  28.499   7.964
 2998POPC   C4B39706  38.249  28.541   7.664
 2999POPC   NC339707  26.775  27.604   9.464
 2999POPC   PO439708  26.824  27.594   9.164
 2999POPC   GL139709  26.838  27.579   8.864
 2999POPC   GL239710  26.660  27.593   8.864
 2999POPC   C1A39711  26.807  27.559   8.564
 2999POPC   D2A39712  26.798  27.556   8.264
 2999POPC   C3A39713  26.829  27.598   7.964
 2999POPC   C4A39714  26.770  27.557   7.664
 2999POPC   C1B39715  26.552  27.555   8.564
 2999POPC   C2B39716  26.540  27.562   8.264
 2999POPC   C3B39717  26.570  27.489   7.964
 2999POPC   C4B39718  26.588  27.558   7.664
 3000POPC   NC339719   8.162  15.223   9.464
 3000POPC   PO439720   8.175  15.148   9.164
 3000POPC   GL139721   8.232  15.162   8.864
 3000POPC   GL239722   8.297  15.312   8.864
 3000POPC   C1A39723   8.153  15.146   8.564
 3000POPC   D2A39724   8.198  15.142   8.264
 3000POPC   C3A39725   8.206  15.160   7.964
 3000POPC   C4A39726   8.240  15.196   7.664
 3000POPC   C1B39727   8.373  15.410   8.564
 3000POPC   C2B39728   8.351  15.406   8.264
 3000POPC   C3B39729   8.361  15.319   7.964
 3000POPC   C4B39730   8.362  15.405   7.664
 3001POPC   NC339731  12.033  19.871   9.464
 3001POPC   PO439732  12.102  19.786   9.164
 3001POPC   GL139733  12.042  19.818   8.864
 3001POPC   GL239734  11.968  19.900   8.864
 3001POPC   C1A39735  12.087  19.793   8.564
 3001POPC   D2A39736  12.081  19.812   8.264
 3001POPC   C3A39737  12.031  19.877   7.964
 3001POPC   C4A39738  12.079  19.826   7.664
 3001POPC   C1B39739  11.825  19.949   8.564
 3001POPC   C2B39740  11.825  19.908   8.264
 3001POPC   C3B39741  11.879  19.945   7.964
 3001POPC   C4B39742  11.794  19.960   7.664
 3002POPC   NC339743  23.744  15.189   9.464
 3002POPC   PO439744  23.709  15.169   9.164
 3002POPC   GL139745  23.752  15.137   8.864
 3002POPC   GL239746  23.627  15.312   8.864
 3002POPC   C1A39747  23.685  15.189   8.564
 3002POPC   D2A39748  23.716  15.130   8.264
 3002POPC   C3A39749  23.702  15.207   7.964
 3002POPC   C4A39750  23.678  15.184   7.664
 3002POPC   C1B39751  23.566  15.370   8.564
 3002POPC   C2B39752  23.550  15.377   8.264
 3002POPC   C3B39753  23.526  15.374   7.964
 3002POPC   C4B39754  23.520  15.404   7.664
 3003POPC   NC339755  17.466  34.568   9.464
 3003POPC   PO439756  17.477  34.548   9.164
 3003POPC   GL139757  17.504  34.589   8.864
 3003POPC   GL239758  17.677  34.602   8.864
 3003POPC   C1A39759  17.492  34.595   8.564
 3003POPC   D2A39760  17.512  34.588   8.264
 3003POPC   C3A39761  17.546  34.545   7.964
 3003POPC   C4A39762  17.479  34.554   7.664
 3003POPC   C1B39763  17.738  34.588   8.564
 3003POPC   C2B39764  17.718  34.590   8.264
 3003POPC   C3B39765  17.739  34.591   7.964
 3003POPC   C4B39766  17.787  34.583   7.664
 3004POPC   NC339767  43.853   1.164   9.464
 3004POPC   PO439768  43.857   1.227   9.164
 3004POPC   GL139769  43.857   1.220   8.864
 3004POPC   GL239770  43.925   1.139   8.864
 3004POPC   C1A39771  43.900   1.254   8.564
 3004POPC   D2A39772  43.851   1.222   8.264
 3004POPC   C3A39773  43.904   1.262   7.964
 3004POPC   C4A39774  43.902   1.219   7.664
 3004POPC   C1B39775  43.950   0.960   8.564
 3004POPC   C2B39776  43.966   1.000   8.264
 3004POPC   C3B39777  44.030   0.962   7.964
 3004POPC   C4B39778  44.015   0.955   7.664
 3005POPC   NC339779  43.917  40.820   9.464
 3005POPC   PO439780  43.901  40.743   9.164
 3005POPC   GL139781  43.845  40.775   8.864
 3005POPC   GL239782  43.807  40.717   8.864
 3005POPC   C1A39783  43.928  40.756   8.564
 3005POPC   D2A39784  43.933  40.770   8.264
 3005POPC   C3A39785  43.866  40.782   7.964
 3005POPC   C4A39786  43.896  40.798   7.664
 3005POPC   C1B39787  43.724  40.569   8.564
 3005POPC   C2B39788  43.707  40.559   8.264
 3005POPC   C3B39789  43.778  40.556   7.964
 3005POPC   C4B39790  43.791  40.613   7.664
 3006POPC   NC339791  26.801  19.095   9.464
 3006POPC   PO439792  26.771  19.055   9.164
 3006POPC   GL139793  26.814  19.094   8.864
 3006POPC   GL239794  26.690  18.978   8.864
 3006POPC   C1A39795  26.832  19.095   8.564
 3006POPC   D2A39796  26.773  19.094   8.264
 3006POPC   C3A39797  26.792  19.077   7.964
 3006POPC   C4A39798  26.828  19.091   7.664
 3006POPC   C1B39799  26.574  18.980   8.564
 3006POPC   C2B39800  26.629  18.909   8.264
 3006POPC   C3B39801  26.563  18.941   7.964
 3006POPC   C4B39802  26.575  18.920   7.664
 3007POPC   NC339803  34.590  40.796   9.464
 3007POPC   PO439804  34.543  40.806   9.164
 3007POPC   GL139805  34.545  40.769   8.864
 3007POPC   GL239806  34.692  40.754   8.864
 3007POPC   C1A39807  34.550  40.736   8.564
 3007POPC   D2A39808  34.619  40.801   8.264
 3007POPC   C3A39809  34.546  40.832   7.964
 3007POPC   C4A39810  34.526  40.774   7.664
 3007POPC   C1B39811  34.766  40.645   8.564
 3007POPC   C2B39812  34.809  40.628   8.264
 3007POPC   C3B39813  34.765  40.667   7.964
 3007POPC   C4B39814  34.766  40.713   7.664
 3008POPC   NC339815  43.868  14.401   9.464
 3008POPC   PO439816  43.926  14.413   9.164
 3008POPC   GL139817  43.872  14.424   8.864
 3008POPC   GL239818  43.837  14.257   8.864
 3008POPC   C1A39819  43.887  14.446   8.564
 3008POPC   D2A39820  43.869  14.383   8.264
 3008POPC   C3A39821  43.866  14.377   7.964
 3008POPC   C4A39822  43.873  14.375   7.664
 3008POPC   C1B39823  43.763  14.146   8.564
 3008POPC   C2B39824  43.747  14.161   8.264
 3008POPC   C3B39825  43.740  14.176   7.964
 3008POPC   C4B39826  43.744  14.137   7.664
 3009POPC   NC339827  41.511   5.842   9.464
 3009POPC   PO439828  41.525   5.877   9.164
 3009POPC   GL139829  41.561   5.887   8.864
 3009POPC   GL239830  41.476   5.832   8.864
 3009POPC   C1A39831  41.583   5.833   8.564
 3009POPC   D2A39832  41.568   5.876   8.264
 3009POPC   C3A39833  41.600   5.916   7.964
 3009POPC   C4A39834  41.539   5.901   7.664
 3009POPC   C1B39835  41.356   5.761   8.564
 3009POPC   C2B39836  41.296   5.762   8.264
 3009POPC   C3B39837  41.270   5.754   7.964
 3009POPC   C4B39838  41.293   5.837   7.664
 3010POPC   NC339839   2.035   7.383   9.464
 3010POPC   PO439840   1.944   7.405   9.164
 3010POPC   GL139841   1.967   7.451   8.864
 3010POPC   GL239842   2.033   7.263   8.864
 3010POPC   C1A39843   1.940   7.379   8.564
 3010POPC   D2A39844   1.943   7.443   8.264
 3010POPC   C3A39845   1.999   7.458   7.964
 3010POPC   C4A39846   1.982   7.463   7.664
 3010POPC   C1B39847   1.976   7.222   8.564
 3010POPC   C2B39848   1.992   7.215   8.264
 3010POPC   C3B39849   1.996   7.167   7.964
 3010POPC   C4B39850   1.991   7.147   7.664
 3011POPC   NC339851   6.607  31.497   9.464
 3011POPC   PO439852   6.639  31.431   9.164
 3011POPC   GL139853   6.614  31.509   8.864
 3011POPC   GL239854   6.586  31.606   8.864
 3011POPC   C1A39855   6.619  31.425   8.564
 3011POPC   D2A39856   6.628  31.493   8.264
 3011POPC   C3A39857   6.631  31.437   7.964
 3011POPC   C4A39858   6.607  31.457   7.664
 3011POPC   C1B39859   6.508  31.730   8.564
 3011POPC   C2B39860   6.541  31.649   8.264
 3011POPC   C3B39861   6.508  31.673   7.964
 3011POPC   C4B39862   6.498  31.660   7.664
 3012POPC   NC339863  31.428  40.749   9.464
 3012POPC   PO439864  31.456  40.746   9.164
 3012POPC   GL139865  31.511  40.822   8.864
 3012POPC   GL239866  31.368  40.865   8.864
 3012POPC   C1A39867  31.455  40.771   8.564
 3012POPC   D2A39868  31.449  40.820   8.264
 3012POPC   C3A39869  31.450  40.769   7.964
 3012POPC   C4A39870  31.514  40.830   7.664
 3012POPC   C1B39871  31.206  40.882   8.564
 3012POPC   C2B39872  31.232  40.828   8.264
 3012POPC   C3B39873  31.246  40.832   7.964
 3012POPC   C4B39874  31.257  40.860   7.664
 3013POPC   NC339875  24.487   1.182   9.464
 3013POPC   PO439876  24.447   1.179   9.164
 3013POPC   GL139877  24.526   1.244   8.864
 3013POPC   GL239878  24.344   1.228   8.864
 3013POPC   C1A39879  24.517   1.182   8.564
 3013POPC   D2A39880  24.471   1.214   8.264
 3013POPC   C3A39881  24.444   1.221   7.964
 3013POPC   C4A39882  24.473   1.205   7.664
 3013POPC   C1B39883  24.280   1.128   8.564
 3013POPC   C2B39884  24.271   1.158   8.264
 3013POPC   C3B39885  24.232   1.185   7.964
 3013POPC   C4B39886  24.212   1.210   7.664
 3014POPC   NC339887  31.435   5.914   9.464
 3014POPC   PO439888  31.486   5.861   9.164
 3014POPC   GL139889  31.437   5.887   8.864
 3014POPC   GL239890  31.571   5.875   8.864
 3014POPC   C1A39891  31.460   5.843   8.564
 3014POPC   D2A39892  31.474   5.855   8.264
 3014POPC   C3A39893  31.490   5.912   7.964
 3014POPC   C4A39894  31.496   5.864   7.664
 3014POPC   C1B39895  31.683   5.984   8.564
 3014POPC   C2B39896  31.683   6.015   8.264
 3014POPC   C3B39897  31.715   6.013   7.964
 3014POPC   C4B39898  31.655   5.980   7.664
 3015POPC   NC339899  40.827  29.178   9.464
 3015POPC   PO439900  40.804  29.147   9.164
 3015POPC   GL139901  40.801  29.118   8.864
 3015POPC   GL239902  40.728  28.984   8.864
 3015POPC   C1A39903  40.745  29.150   8.564
 3015POPC   D2A39904  40.824  29.102   8.264
 3015POPC   C3A39905  40.737  29.175   7.964
 3015POPC   C4A39906  40.751  29.117   7.664
 3015POPC   C1B39907  40.692  28.864   8.564
 3015POPC   C2B39908  40.739  28.861   8.264
 3015POPC   C3B39909  40.743  28.947   7.964
 3015POPC   C4B39910  40.737  28.869   7.664
 3016POPC   NC339911   3.570  23.749   9.464
 3016POPC   PO439912   3.521  23.672   9.164
 3016POPC   GL139913   3.521  23.760   8.864
 3016POPC   GL239914   3.429  23.619   8.864
 3016POPC   C1A39915   3.545  23.730   8.564
 3016POPC   D2A39916   3.571  23.735   8.264
 3016POPC   C3A39917   3.565  23.702   7.964
 3016POPC   C4A39918   3.587  23.742   7.664
 3016POPC   C1B39919   3.323  23.510   8.564
 3016POPC   C2B39920   3.346  23.547   8.264
 3016POPC   C3B39921   3.335  23.503   7.964
 3016POPC   C4B39922   3.356  23.503   7.664
 3017POPC   NC339923  40.790   8.947   9.464
 3017POPC   PO439924  40.782   9.017   9.164
 3017POPC   GL139925  40.752   8.995   8.864
 3017POPC   GL239926  40.901   8.974   8.864
 3017POPC   C1A39927  40.762   8.996   8.564
 3017POPC   D2A39928  40.772   8.951   8.264
 3017POPC   C3A39929  40.748   9.016   7.964
 3017POPC   C4A39930  40.741   9.012   7.664
 3017POPC   C1B39931  40.981   8.915   8.564
 3017POPC   C2B39932  40.997   8.887   8.264
 3017POPC   C3B39933  41.040   8.899   7.964
 3017POPC   C4B39934  41.018   8.893   7.664
 3018POPC   NC339935  26.786  12.850   9.464
 3018POPC   PO439936  26.776  12.835   9.164
 3018POPC   GL139937  26.801  12.853   8.864
 3018POPC   GL239938  26.705  12.905   8.864
 3018POPC   C1A39939  26.850  12.846   8.564
 3018POPC   D2A39940  26.832  12.818   8.264
 3018POPC   C3A39941  26.791  12.857   7.964
 3018POPC   C4A39942  26.801  12.806   7.664
 3018POPC   C1B39943  26.556  12.953   8.564
 3018POPC   C2B39944  26.561  12.986   8.264
 3018POPC   C3B39945  26.612  12.909   7.964
 3018POPC   C4B39946  26.607  12.927   7.664
 3019POPC   NC339947  29.169  26.072   9.464
 3019POPC   PO439948  29.129  26.076   9.164
 3019POPC   GL139949  29.106  26.038   8.864
 3019POPC   GL239950  29.062  26.122   8.864
 3019POPC   C1A39951  29.168  26.016   8.564
 3019POPC   D2A39952  29.165  26.046   8.264
 3019POPC   C3A39953  29.193  26.012   7.964
 3019POPC   C4A39954  29.181  26.043   7.664
 3019POPC   C1B39955  28.904  26.159   8.564
 3019POPC   C2B39956  28.943  26.114   8.264
 3019POPC   C3B39957  28.907  26.186   7.964
 3019POPC   C4B39958  28.882  26.180   7.664
 3020POPC   NC339959  16.705  25.272   9.464
 3020POPC   PO439960  16.773  25.233   9.164
 3020POPC   GL139961  16.775  25.231   8.864
 3020POPC   GL239962  16.735  25.159   8.864
 3020POPC   C1A39963  16.771  25.260   8.564
 3020POPC   D2A39964  16.737  25.258   8.264
 3020POPC   C3A39965  16.707  25.234   7.964
 3020POPC   C4A39966  16.778  25.241   7.664
 3020POPC   C1B39967  16.702  25.067   8.564
 3020POPC   C2B39968  16.626  24.990   8.264
 3020POPC   C3B39969  16.618  25.049   7.964
 3020POPC   C4B39970  16.694  25.064   7.664
 3021POPC   NC339971   5.124  38.487   9.464
 3021POPC   PO439972   5.057  38.433   9.164
 3021POPC   GL139973   5.123  38.469   8.864
 3021POPC   GL239974   4.996  38.558   8.864
 3021POPC   C1A39975   5.095  38.497   8.564
 3021POPC   D2A39976   5.077  38.469   8.264
 3021POPC   C3A39977   5.067  38.449   7.964
 3021POPC   C4A39978   5.122  38.474   7.664
 3021POPC   C1B39979   4.852  38.578   8.564
 3021POPC   C2B39980   4.864  38.555   8.264
 3021POPC   C3B39981   4.880  38.569   7.964
 3021POPC   C4B39982   4.892  38.568   7.664
 3022POPC   NC339983  18.241   7.462   9.464
 3022POPC   PO439984  18.235   7.417   9.164
 3022POPC   GL139985  18.259   7.376   8.864
 3022POPC   GL239986  18.421   7.501   8.864
 3022POPC   C1A39987  18.306   7.438   8.564
 3022POPC   D2A39988  18.279   7.469   8.264
 3022POPC   C3A39989  18.302   7.401   7.964
 3022POPC   C4A39990  18.325   7.439   7.664
 3022POPC   C1B39991  18.499   7.622   8.564
 3022POPC   C2B39992  18.452   7.586   8.264
 3022POPC   C3B39993  18.488   7.622   7.964
 3022POPC   C4B39994  18.485   7.579   7.664
 3023POPC   NC339995   5.841  31.424   9.464
 3023POPC   PO439996   5.905  31.503   9.164
 3023POPC   GL139997   5.893  31.449   8.864
 3023POPC   GL239998   5.827  31.597   8.864
 3023POPC   C1A39999   5.917  31.475   8.564
 3023POPC   D2A40000   5.845  31.428   8.264
 3023POPC   C3A40001   5.868  31.448   7.964
 3023POPC   C4A40002   5.883  31.455   7.664
 3023POPC   C1B40003   5.856  31.763   8.564
 3023POPC   C2B40004   5.907  31.760   8.264
 3023POPC   C3B40005   5.902  31.738   7.964
 3023POPC   C4B40006   5.847  31.692   7.664
 3024POPC   NC340007  11.322  24.463   9.464
 3024POPC   PO440008  11.282  24.476   9.164
 3024POPC   GL140009  11.313  24.440   8.864
 3024POPC   GL240010  11.388  24.456   8.864
 3024POPC   C1A40011  11.336  24.524   8.564
 3024POPC   D2A40012  11.323  24.450   8.264
 3024POPC   C3A40013  11.291  24.511   7.964
 3024POPC   C4A40014  11.258  24.478   7.664
 3024POPC   C1B40015  11.507  24.377   8.564
 3024POPC   C2B40016  11.511  24.431   8.264
 3024POPC   C3B40017  11.512  24.405   7.964
 3024POPC   C4B40018  11.557  24.398   7.664
 3025POPC   NC340019  22.931  31.449   9.464
 3025POPC   PO440020  22.927  31.425   9.164
 3025POPC   GL140021  22.924  31.449   8.864
 3025POPC   GL240022  22.840  31.432   8.864
 3025POPC   C1A40023  22.950  31.432   8.564
 3025POPC   D2A40024  22.901  31.494   8.264
 3025POPC   C3A40025  22.914  31.463   7.964
 3025POPC   C4A40026  22.931  31.451   7.664
 3025POPC   C1B40027  22.675  31.394   8.564
 3025POPC   C2B40028  22.710  31.364   8.264
 3025POPC   C3B40029  22.711  31.376   7.964
 3025POPC   C4B40030  22.707  31.401   7.664
 3026POPC   NC340031  33.805   8.216   9.464
 3026POPC   PO440032  33.785   8.226   9.164
 3026POPC   GL140033  33.802   8.154   8.864
 3026POPC   GL240034  33.923   8.149   8.864
 3026POPC   C1A40035  33.766   8.205   8.564
 3026POPC   D2A40036  33.784   8.150   8.264
 3026POPC   C3A40037  33.794   8.234   7.964
 3026POPC   C4A40038  33.762   8.245   7.664
 3026POPC   C1B40039  33.972   7.963   8.564
 3026POPC   C2B40040  33.965   7.999   8.264
 3026POPC   C3B40041  34.012   8.009   7.964
 3026POPC   C4B40042  33.974   8.029   7.664
 3027POPC   NC340043   4.282  36.155   9.464
 3027POPC   PO440044   4.276  36.151   9.164
 3027POPC   GL140045   4.279  36.082   8.864
 3027POPC   GL240046   4.204  36.114   8.864
 3027POPC   C1A40047   4.360  36.086   8.564
 3027POPC   D2A40048   4.290  36.135   8.264
 3027POPC   C3A40049   4.350  36.126   7.964
 3027POPC   C4A40050   4.358  36.151   7.664
 3027POPC   C1B40051   4.088  36.051   8.564
 3027POPC   C2B40052   4.090  36.095   8.264
 3027POPC   C3B40053   4.058  36.021   7.964
 3027POPC   C4B40054   4.107  36.088   7.664
 3028POPC   NC340055  44.652  19.058   9.464
 3028POPC   PO440056  44.668  19.087   9.164
 3028POPC   GL140057  44.712  19.095   8.864
 3028POPC   GL240058  44.654  19.180   8.864
 3028POPC   C1A40059  44.641  19.039   8.564
 3028POPC   D2A40060  44.625  19.035   8.264
 3028POPC   C3A40061  44.649  19.094   7.964
 3028POPC   C4A40062  44.621  19.065   7.664
 3028POPC   C1B40063  44.592  19.271   8.564
 3028POPC   C2B40064  44.622  19.329   8.264
 3028POPC   C3B40065  44.585  19.286   7.964
 3028POPC   C4B40066  44.561  19.281   7.664
 3029POPC   NC340067   1.956  29.117   9.464
 3029POPC   PO440068   2.006  29.163   9.164
 3029POPC   GL140069   2.028  29.169   8.864
 3029POPC   GL240070   2.031  29.251   8.864
 3029POPC   C1A40071   1.956  29.113   8.564
 3029POPC   D2A40072   1.987  29.120   8.264
 3029POPC   C3A40073   2.027  29.182   7.964
 3029POPC   C4A40074   1.958  29.155   7.664
 3029POPC   C1B40075   2.072  29.416   8.564
 3029POPC   C2B40076   2.071  29.411   8.264
 3029POPC   C3B40077   2.073  29.391   7.964
 3029POPC   C4B40078   2.061  29.357   7.664
 3030POPC   NC340079  33.054  22.903   9.464
 3030POPC   PO440080  33.036  22.901   9.164
 3030POPC   GL140081  33.040  22.902   8.864
 3030POPC   GL240082  32.975  23.063   8.864
 3030POPC   C1A40083  33.000  22.888   8.564
 3030POPC   D2A40084  33.054  22.982   8.264
 3030POPC   C3A40085  33.001  22.930   7.964
 3030POPC   C4A40086  33.069  22.928   7.664
 3030POPC   C1B40087  32.882  23.155   8.564
 3030POPC   C2B40088  32.854  23.131   8.264
 3030POPC   C3B40089  32.858  23.073   7.964
 3030POPC   C4B40090  32.841  23.106   7.664
 3031POPC   NC340091   4.280   1.232   9.464
 3031POPC   PO440092   4.350   1.202   9.164
 3031POPC   GL140093   4.345   1.224   8.864
 3031POPC   GL240094   4.367   1.071   8.864
 3031POPC   C1A40095   4.356   1.187   8.564
 3031POPC   D2A40096   4.276   1.205   8.264
 3031POPC   C3A40097   4.298   1.236   7.964
 3031POPC   C4A40098   4.358   1.193   7.664
 3031POPC   C1B40099   4.380   0.987   8.564
 3031POPC   C2B40100   4.368   0.920   8.264
 3031POPC   C3B40101   4.382   0.936   7.964
 3031POPC   C4B40102   4.376   0.990   7.664
 3032POPC   NC340103   5.854  29.169   9.464
 3032POPC   PO440104   5.865  29.183   9.164
 3032POPC   GL140105   5.911  29.159   8.864
 3032POPC   GL240106   5.779  29.171   8.864
 3032POPC   C1A40107   5.865  29.125   8.564
 3032POPC   D2A40108   5.821  29.171   8.264
 3032POPC   C3A40109   5.837  29.150   7.964
 3032POPC   C4A40110   5.910  29.147   7.664
 3032POPC   C1B40111   5.599  29.059   8.564
 3032POPC   C2B40112   5.598  29.074   8.264
 3032POPC   C3B40113   5.580  29.107   7.964
 3032POPC   C4B40114   5.604  29.062   7.664
 3033POPC   NC340115  41.545  19.074   9.464
 3033POPC   PO440116  41.526  19.041   9.164
 3033POPC   GL140117  41.540  19.020   8.864
 3033POPC   GL240118  41.538  18.949   8.864
 3033POPC   C1A40119  41.525  19.108   8.564
 3033POPC   D2A40120  41.537  19.076   8.264
 3033POPC   C3A40121  41.562  19.033   7.964
 3033POPC   C4A40122  41.603  19.080   7.664
 3033POPC   C1B40123  41.434  18.814   8.564
 3033POPC   C2B40124  41.432  18.777   8.264
 3033POPC   C3B40125  41.465  18.776   7.964
 3033POPC   C4B40126  41.517  18.816   7.664
 3034POPC   NC340127  37.712  34.599   9.464
 3034POPC   PO440128  37.650  34.564   9.164
 3034POPC   GL140129  37.702  34.528   8.864
 3034POPC   GL240130  37.626  34.664   8.864
 3034POPC   C1A40131  37.669  34.622   8.564
 3034POPC   D2A40132  37.633  34.569   8.264
 3034POPC   C3A40133  37.636  34.605   7.964
 3034POPC   C4A40134  37.669  34.558   7.664
 3034POPC   C1B40135  37.556  34.831   8.564
 3034POPC   C2B40136  37.605  34.784   8.264
 3034POPC   C3B40137  37.627  34.805   7.964
 3034POPC   C4B40138  37.605  34.771   7.664
 3035POPC   NC340139  39.215  39.994   9.464
 3035POPC   PO440140  39.201  39.965   9.164
 3035POPC   GL140141  39.188  39.973   8.864
 3035POPC   GL240142  39.372  40.069   8.864
 3035POPC   C1A40143  39.192  39.988   8.564
 3035POPC   D2A40144  39.214  40.029   8.264
 3035POPC   C3A40145  39.268  40.019   7.964
 3035POPC   C4A40146  39.238  40.036   7.664
 3035POPC   C1B40147  39.446  40.021   8.564
 3035POPC   C2B40148  39.464  40.053   8.264
 3035POPC   C3B40149  39.493  39.996   7.964
 3035POPC   C4B40150  39.431  40.056   7.664
 3036POPC   NC340151   1.984  40.799   9.464
 3036POPC   PO440152   2.010  40.755   9.164
 3036POPC   GL140153   1.985  40.801   8.864
 3036POPC   GL240154   2.091  40.878   8.864
 3036POPC   C1A40155   1.945  40.756   8.564
 3036POPC   D2A40156   2.000  40.735   8.264
 3036POPC   C3A40157   1.990  40.806   7.964
 3036POPC   C4A40158   1.967  40.752   7.664
 3036POPC   C1B40159   2.104  41.038   8.564
 3036POPC   C2B40160   2.112  40.976   8.264
 3036POPC   C3B40161   2.085  40.994   7.964
 3036POPC   C4B40162   2.122  41.002   7.664
 3037POPC   NC340163   9.785  30.659   9.464
 3037POPC   PO440164   9.745  30.731   9.164
 3037POPC   GL140165   9.772  30.743   8.864
 3037POPC   GL240166   9.788  30.637   8.864
 3037POPC   C1A40167   9.731  30.717   8.564
 3037POPC   D2A40168   9.713  30.719   8.264
 3037POPC   C3A40169   9.776  30.717   7.964
 3037POPC   C4A40170   9.737  30.735   7.664
 3037POPC   C1B40171   9.882  30.470   8.564
 3037POPC   C2B40172   9.874  30.550   8.264
 3037POPC   C3B40173   9.930  30.502   7.964
 3037POPC   C4B40174   9.901  30.485   7.664
 3038POPC   NC340175  26.784   5.890   9.464
 3038POPC   PO440176  26.830   5.894   9.164
 3038POPC   GL140177  26.810   5.899   8.864
 3038POPC   GL240178  26.783   5.750   8.864
 3038POPC   C1A40179  26.865   5.877   8.564
 3038POPC   D2A40180  26.812   5.845   8.264
 3038POPC   C3A40181  26.777   5.835   7.964
 3038POPC   C4A40182  26.794   5.894   7.664
 3038POPC   C1B40183  26.743   5.647   8.564
 3038POPC   C2B40184  26.739   5.626   8.264
 3038POPC   C3B40185  26.799   5.666   7.964
 3038POPC   C4B40186  26.710   5.638   7.664
 3039POPC   NC340187   3.498  26.085   9.464
 3039POPC   PO440188   3.494  26.018   9.164
 3039POPC   GL140189   3.591  26.053   8.864
 3039POPC   GL240190   3.418  25.960   8.864
 3039POPC   C1A40191   3.580  25.992   8.564
 3039POPC   D2A40192   3.547  26.032   8.264
 3039POPC   C3A40193   3.589  26.051   7.964
 3039POPC   C4A40194   3.587  26.043   7.664
 3039POPC   C1B40195   3.287  25.889   8.564
 3039POPC   C2B40196   3.355  25.899   8.264
 3039POPC   C3B40197   3.325  25.893   7.964
 3039POPC   C4B40198   3.350  25.857   7.664
 3040POPC   NC340199   1.982  22.981   9.464
 3040POPC   PO440200   1.975  22.971   9.164
 3040POPC   GL140201   1.987  22.942   8.864
 3040POPC   GL240202   1.887  23.033   8.864
 3040POPC   C1A40203   2.013  22.984   8.564
 3040POPC   D2A40204   1.966  22.966   8.264
 3040POPC   C3A40205   2.028  22.904   7.964
 3040POPC   C4A40206   2.019  22.960   7.664
 3040POPC   C1B40207   1.815  23.076   8.564
 3040POPC   C2B40208   1.834  23.101   8.264
 3040POPC   C3B40209   1.822  23.128   7.964
 3040POPC   C4B40210   1.826  23.156   7.664
 3041POPC   NC340211  14.408  34.586   9.464
 3041POPC   PO440212  14.369  34.563   9.164
 3041POPC   GL140213  14.403  34.589   8.864
 3041POPC   GL240214  14.286  34.544   8.864
 3041POPC   C1A40215  14.444  34.577   8.564
 3041POPC   D2A40216  14.392  34.608   8.264
 3041POPC   C3A40217  14.452  34.584   7.964
 3041POPC   C4A40218  14.404  34.579   7.664
 3041POPC   C1B40219  14.166  34.410   8.564
 3041POPC   C2B40220  14.241  34.425   8.264
 3041POPC   C3B40221  14.200  34.445   7.964
 3041POPC   C4B40222  14.202  34.447   7.664
 3042POPC   NC340223  26.824  15.202   9.464
 3042POPC   PO440224  26.811  15.210   9.164
 3042POPC   GL140225  26.771  15.167   8.864
 3042POPC   GL240226  26.776  15.252   8.864
 3042POPC   C1A40227  26.837  15.187   8.564
 3042POPC   D2A40228  26.807  15.226   8.264
 3042POPC   C3A40229  26.841  15.148   7.964
 3042POPC   C4A40230  26.847  15.158   7.664
 3042POPC   C1B40231  26.738  15.380   8.564
 3042POPC   C2B40232  26.758  15.426   8.264
 3042POPC   C3B40233  26.778  15.464   7.964
 3042POPC   C4B40234  26.802  15.457   7.664
 3043POPC   NC340235  40.767  37.712   9.464
 3043POPC   PO440236  40.778  37.670   9.164
 3043POPC   GL140237  40.760  37.637   8.864
 3043POPC   GL240238  40.734  37.575   8.864
 3043POPC   C1A40239  40.801  37.693   8.564
 3043POPC   D2A40240  40.806  37.635   8.264
 3043POPC   C3A40241  40.764  37.713   7.964
 3043POPC   C4A40242  40.799  37.718   7.664
 3043POPC   C1B40243  40.766  37.440   8.564
 3043POPC   C2B40244  40.791  37.469   8.264
 3043POPC   C3B40245  40.787  37.470   7.964
 3043POPC   C4B40246  40.757  37.430   7.664
 3044POPC   NC340247   8.999  34.565   9.464
 3044POPC   PO440248   8.956  34.553   9.164
 3044POPC   GL140249   8.975  34.541   8.864
 3044POPC   GL240250   8.886  34.642   8.864
 3044POPC   C1A40251   8.997  34.602   8.564
 3044POPC   D2A40252   9.012  34.537   8.264
 3044POPC   C3A40253   8.990  34.600   7.964
 3044POPC   C4A40254   8.951  34.577   7.664
 3044POPC   C1B40255   8.770  34.652   8.564
 3044POPC   C2B40256   8.718  34.671   8.264
 3044POPC   C3B40257   8.753  34.664   7.964
 3044POPC   C4B40258   8.692  34.617   7.664
 3045POPC   NC340259  43.893  29.181   9.464
 3045POPC   PO440260  43.842  29.146   9.164
 3045POPC   GL140261  43.840  29.195   8.864
 3045POPC   GL240262  44.001  29.045   8.864
 3045POPC   C1A40263  43.844  29.116   8.564
 3045POPC   D2A40264  43.897  29.171   8.264
 3045POPC   C3A40265  43.884  29.146   7.964
 3045POPC   C4A40266  43.865  29.135   7.664
 3045POPC   C1B40267  44.012  28.938   8.564
 3045POPC   C2B40268  43.997  28.915   8.264
 3045POPC   C3B40269  44.015  28.900   7.964
 3045POPC   C4B40270  44.014  28.890   7.664
 3046POPC   NC340271  12.839  39.221   9.464
 3046POPC   PO440272  12.824  39.259   9.164
 3046POPC   GL140273  12.891  39.189   8.864
 3046POPC   GL240274  12.846  39.129   8.864
 3046POPC   C1A40275  12.846  39.206   8.564
 3046POPC   D2A40276  12.805  39.245   8.264
 3046POPC   C3A40277  12.851  39.244   7.964
 3046POPC   C4A40278  12.807  39.257   7.664
 3046POPC   C1B40279  12.903  38.978   8.564
 3046POPC   C2B40280  12.937  38.935   8.264
 3046POPC   C3B40281  12.878  38.989   7.964
 3046POPC   C4B40282  12.850  38.942   7.664
 3047POPC   NC340283  43.927  41.543   9.464
 3047POPC   PO440284  43.895  41.530   9.164
 3047POPC   GL140285  43.930  41.511   8.864
 3047POPC   GL240286  44.045  41.654   8.864
 3047POPC   C1A40287  43.929  41.539   8.564
 3047POPC   D2A40288  43.902  41.581   8.264
 3047POPC   C3A40289  43.885  41.604   7.964
 3047POPC   C4A40290  43.859  41.516   7.664
 3047POPC   C1B40291  44.087  41.683   8.564
 3047POPC   C2B40292  44.115  41.644   8.264
 3047POPC   C3B40293  44.126  41.666   7.964
 3047POPC   C4B40294  44.135  41.659   7.664
 3048POPC   NC340295  27.547  15.984   9.464
 3048POPC   PO440296  27.631  15.995   9.164
 3048POPC   GL140297  27.600  15.944   8.864
 3048POPC   GL240298  27.596  16.031   8.864
 3048POPC   C1A40299  27.639  15.926   8.564
 3048POPC   D2A40300  27.569  15.944   8.264
 3048POPC   C3A40301  27.620  15.906   7.964
 3048POPC   C4A40302  27.636  15.968   7.664
 3048POPC   C1B40303  27.661  16.229   8.564
 3048POPC   C2B40304  27.577  16.194   8.264
 3048POPC   C3B40305  27.659  16.193   7.964
 3048POPC   C4B40306  27.589  16.195   7.664
 3049POPC   NC340307   3.588  17.484   9.464
 3049POPC   PO440308   3.589  17.487   9.164
 3049POPC   GL140309   3.502  17.510   8.864
 3049POPC   GL240310   3.663  17.505   8.864
 3049POPC   C1A40311   3.541  17.539   8.564
 3049POPC   D2A40312   3.495  17.498   8.264
 3049POPC   C3A40313   3.570  17.551   7.964
 3049POPC   C4A40314   3.529  17.468   7.664
 3049POPC   C1B40315   3.781  17.619   8.564
 3049POPC   C2B40316   3.783  17.604   8.264
 3049POPC   C3B40317   3.745  17.562   7.964
 3049POPC   C4B40318   3.755  17.549   7.664
 3050POPC   NC340319  39.270   5.123   9.464
 3050POPC   PO440320  39.186   5.096   9.164
 3050POPC   GL140321  39.255   5.091   8.864
 3050POPC   GL240322  39.334   5.094   8.864
 3050POPC   C1A40323  39.275   5.124   8.564
 3050POPC   D2A40324  39.263   5.119   8.264
 3050POPC   C3A40325  39.257   5.119   7.964
 3050POPC   C4A40326  39.222   5.073   7.664
 3050POPC   C1B40327  39.466   5.125   8.564
 3050POPC   C2B40328  39.460   5.087   8.264
 3050POPC   C3B40329  39.461   5.102   7.964
 3050POPC   C4B40330  39.485   5.049   7.664
 3051POPC   NC340331  30.716  22.914   9.464
 3051POPC   PO440332  30.704  22.918   9.164
 3051POPC   GL140333  30.695  22.930   8.864
 3051POPC   GL240334  30.569  22.927   8.864
 3051POPC   C1A40335  30.740  22.908   8.564
 3051POPC   D2A40336  30.691  22.985   8.264
 3051POPC   C3A40337  30.742  22.915   7.964
 3051POPC   C4A40338  30.714  22.911   7.664
 3051POPC   C1B40339  30.498  23.014   8.564
 3051POPC   C2B40340  30.462  22.941   8.264
 3051POPC   C3B40341  30.495  23.012   7.964
 3051POPC   C4B40342  30.448  23.024   7.664
 3052POPC   NC340343   0.423   1.224   9.464
 3052POPC   PO440344   0.485   1.196   9.164
 3052POPC   GL140345   0.456   1.209   8.864
 3052POPC   GL240346   0.549   1.273   8.864
 3052POPC   C1A40347   0.438   1.225   8.564
 3052POPC   D2A40348   0.486   1.201   8.264
 3052POPC   C3A40349   0.398   1.193   7.964
 3052POPC   C4A40350   0.443   1.240   7.664
 3052POPC   C1B40351   0.621   1.337   8.564
 3052POPC   C2B40352   0.662   1.369   8.264
 3052POPC   C3B40353   0.686   1.390   7.964
 3052POPC   C4B40354   0.592   1.376   7.664
 3053POPC   NC340355  22.941  22.185   9.464
 3053POPC   PO440356  22.973  22.147   9.164
 3053POPC   GL140357  22.983  22.146   8.864
 3053POPC   GL240358  22.993  22.078   8.864
 3053POPC   C1A40359  22.964  22.122   8.564
 3053POPC   D2A40360  22.914  22.123   8.264
 3053POPC   C3A40361  22.980  22.188   7.964
 3053POPC   C4A40362  22.983  22.184   7.664
 3053POPC   C1B40363  23.095  21.950   8.564
 3053POPC   C2B40364  23.007  21.976   8.264
 3053POPC   C3B40365  23.029  21.981   7.964
 3053POPC   C4B40366  23.083  21.943   7.664
 3054POPC   NC340367  33.758  40.041   9.464
 3054POPC   PO440368  33.777  40.014   9.164
 3054POPC   GL140369  33.801  40.042   8.864
 3054POPC   GL240370  33.851  40.162   8.864
 3054POPC   C1A40371  33.789  40.020   8.564
 3054POPC   D2A40372  33.759  40.031   8.264
 3054POPC   C3A40373  33.843  39.965   7.964
 3054POPC   C4A40374  33.778  39.999   7.664
 3054POPC   C1B40375  33.814  40.258   8.564
 3054POPC   C2B40376  33.822  40.233   8.264
 3054POPC   C3B40377  33.815  40.245   7.964
 3054POPC   C4B40378  33.833  40.227   7.664
 3055POPC   NC340379  41.513  39.214   9.464
 3055POPC   PO440380  41.607  39.242   9.164
 3055POPC   GL140381  41.555  39.253   8.864
 3055POPC   GL240382  41.428  39.121   8.864
 3055POPC   C1A40383  41.591  39.240   8.564
 3055POPC   D2A40384  41.566  39.198   8.264
 3055POPC   C3A40385  41.547  39.210   7.964
 3055POPC   C4A40386  41.582  39.214   7.664
 3055POPC   C1B40387  41.355  39.051   8.564
 3055POPC   C2B40388  41.414  39.029   8.264
 3055POPC   C3B40389  41.388  39.028   7.964
 3055POPC   C4B40390  41.339  39.101   7.664
 3056POPC   NC340391  21.421  23.762   9.464
 3056POPC   PO440392  21.428  23.708   9.164
 3056POPC   GL140393  21.394  23.762   8.864
 3056POPC   GL240394  21.217  23.736   8.864
 3056POPC   C1A40395  21.351  23.763   8.564
 3056POPC   D2A40396  21.371  23.690   8.264
 3056POPC   C3A40397  21.364  23.672   7.964
 3056POPC   C4A40398  21.363  23.708   7.664
 3056POPC   C1B40399  21.176  23.737   8.564
 3056POPC   C2B40400  21.117  23.736   8.264
 3056POPC   C3B40401  21.096  23.692   7.964
 3056POPC   C4B40402  21.092  23.712   7.664
 3057POPC   NC340403   1.990  35.370   9.464
 3057POPC   PO440404   2.002  35.346   9.164
 3057POPC   GL140405   1.960  35.328   8.864
 3057POPC   GL240406   1.937  35.186   8.864
 3057POPC   C1A40407   2.015  35.341   8.564
 3057POPC   D2A40408   1.951  35.325   8.264
 3057POPC   C3A40409   2.032  35.384   7.964
 3057POPC   C4A40410   1.964  35.308   7.664
 3057POPC   C1B40411   1.949  35.148   8.564
 3057POPC   C2B40412   1.910  35.090   8.264
 3057POPC   C3B40413   1.946  35.111   7.964
 3057POPC   C4B40414   1.879  35.109   7.664
 3058POPC   NC340415  42.285  29.155   9.464
 3058POPC   PO440416  42.373  29.095   9.164
 3058POPC   GL140417  42.352  29.104   8.864
 3058POPC   GL240418  42.422  29.082   8.864
 3058POPC   C1A40419  42.290  29.184   8.564
 3058POPC   D2A40420  42.301  29.185   8.264
 3058POPC   C3A40421  42.378  29.165   7.964
 3058POPC   C4A40422  42.300  29.173   7.664
 3058POPC   C1B40423  42.612  29.056   8.564
 3058POPC   C2B40424  42.523  29.117   8.264
 3058POPC   C3B40425  42.598  29.059   7.964
 3058POPC   C4B40426  42.532  29.109   7.664
 3059POPC   NC340427  33.777  12.042   9.464
 3059POPC   PO440428  33.831  12.103   9.164
 3059POPC   GL140429  33.844  12.033   8.864
 3059POPC   GL240430  33.875  11.959   8.864
 3059POPC   C1A40431  33.813  12.060   8.564
 3059POPC   D2A40432  33.797  12.112   8.264
 3059POPC   C3A40433  33.762  12.091   7.964
 3059POPC   C4A40434  33.776  12.035   7.664
 3059POPC   C1B40435  33.914  11.863   8.564
 3059POPC   C2B40436  33.935  11.913   8.264
 3059POPC   C3B40437  33.966  11.920   7.964
 3059POPC   C4B40438  34.001  11.841   7.664
 3060POPC   NC340439  23.708  43.860   9.464
 3060POPC   PO440440  23.699  43.927   9.164
 3060POPC   GL140441  23.677  43.901   8.864
 3060POPC   GL240442  23.783  43.959   8.864
 3060POPC   C1A40443  23.682  43.897   8.564
 3060POPC   D2A40444  23.732  43.874   8.264
 3060POPC   C3A40445  23.751  43.886   7.964
 3060POPC   C4A40446  23.707  43.920   7.664
 3060POPC   C1B40447  23.839  44.052   8.564
 3060POPC   C2B40448  23.847  44.115   8.264
 3060POPC   C3B40449  23.885  44.095   7.964
 3060POPC   C4B40450  23.863  44.069   7.664
 3061POPC   NC340451   8.245  14.397   9.464
 3061POPC   PO440452   8.191  14.417   9.164
 3061POPC   GL140453   8.222  14.446   8.864
 3061POPC   GL240454   8.173  14.322   8.864
 3061POPC   C1A40455   8.213  14.430   8.564
 3061POPC   D2A40456   8.224  14.373   8.264
 3061POPC   C3A40457   8.188  14.423   7.964
 3061POPC   C4A40458   8.208  14.436   7.664
 3061POPC   C1B40459   8.074  14.180   8.564
 3061POPC   C2B40460   8.099  14.173   8.264
 3061POPC   C3B40461   8.123  14.137   7.964
 3061POPC   C4B40462   8.097  14.193   7.664
 3062POPC   NC340463  22.958  13.601   9.464
 3062POPC   PO440464  22.939  13.606   9.164
 3062POPC   GL140465  22.959  13.607   8.864
 3062POPC   GL240466  22.799  13.656   8.864
 3062POPC   C1A40467  22.935  13.642   8.564
 3062POPC   D2A40468  22.949  13.639   8.264
 3062POPC   C3A40469  22.966  13.588   7.964
 3062POPC   C4A40470  22.898  13.613   7.664
 3062POPC   C1B40471  22.668  13.723   8.564
 3062POPC   C2B40472  22.677  13.706   8.264
 3062POPC   C3B40473  22.699  13.784   7.964
 3062POPC   C4B40474  22.731  13.748   7.664
 3063POPC   NC340475  11.286  29.185   9.464
 3063POPC   PO440476  11.333  29.134   9.164
 3063POPC   GL140477  11.281  29.174   8.864
 3063POPC   GL240478  11.458  29.059   8.864
 3063POPC   C1A40479  11.268  29.126   8.564
 3063POPC   D2A40480  11.283  29.178   8.264
 3063POPC   C3A40481  11.346  29.098   7.964
 3063POPC   C4A40482  11.268  29.163   7.664
 3063POPC   C1B40483  11.490  29.020   8.564
 3063POPC   C2B40484  11.536  29.073   8.264
 3063POPC   C3B40485  11.496  29.082   7.964
 3063POPC   C4B40486  11.536  29.064   7.664
 3064POPC   NC340487  41.519  31.463   9.464
 3064POPC   PO440488  41.558  31.469   9.164
 3064POPC   GL140489  41.541  31.471   8.864
 3064POPC   GL240490  41.472  31.483   8.864
 3064POPC   C1A40491  41.601  31.487   8.564
 3064POPC   D2A40492  41.523  31.506   8.264
 3064POPC   C3A40493  41.581  31.515   7.964
 3064POPC   C4A40494  41.526  31.440   7.664
 3064POPC   C1B40495  41.347  31.527   8.564
 3064POPC   C2B40496  41.280  31.544   8.264
 3064POPC   C3B40497  41.351  31.470   7.964
 3064POPC   C4B40498  41.340  31.528   7.664
 3065POPC   NC340499  11.268  37.719   9.464
 3065POPC   PO440500  11.329  37.635   9.164
 3065POPC   GL140501  11.259  37.689   8.864
 3065POPC   GL240502  11.373  37.670   8.864
 3065POPC   C1A40503  11.261  37.710   8.564
 3065POPC   D2A40504  11.310  37.646   8.264
 3065POPC   C3A40505  11.293  37.645   7.964
 3065POPC   C4A40506  11.261  37.670   7.664
 3065POPC   C1B40507  11.533  37.597   8.564
 3065POPC   C2B40508  11.500  37.524   8.264
 3065POPC   C3B40509  11.548  37.598   7.964
 3065POPC   C4B40510  11.477  37.559   7.664
 3066POPC   NC340511  42.377  26.084   9.464
 3066POPC   PO440512  42.349  26.047   9.164
 3066POPC   GL140513  42.342  26.050   8.864
 3066POPC   GL240514  42.467  26.104   8.864
 3066POPC   C1A40515  42.384  26.025   8.564
 3066POPC   D2A40516  42.364  25.998   8.264
 3066POPC   C3A40517  42.353  26.091   7.964
 3066POPC   C4A40518  42.302  26.018   7.664
 3066POPC   C1B40519  42.580  26.179   8.564
 3066POPC   C2B40520  42.511  26.196   8.264
 3066POPC   C3B40521  42.564  26.188   7.964
 3066POPC   C4B40522  42.489  26.175   7.664
 3067POPC   NC340523   5.109  17.474   9.464
 3067POPC   PO440524   5.121  17.551   9.164
 3067POPC   GL140525   5.126  17.486   8.864
 3067POPC   GL240526   5.063  17.372   8.864
 3067POPC   C1A40527   5.115  17.504   8.564
 3067POPC   D2A40528   5.065  17.473   8.264
 3067POPC   C3A40529   5.123  17.552   7.964
 3067POPC   C4A40530   5.078  17.470   7.664
 3067POPC   C1B40531   5.073  17.214   8.564
 3067POPC   C2B40532   5.096  17.244   8.264
 3067POPC   C3B40533   5.083  17.271   7.964
 3067POPC   C4B40534   5.091  17.235   7.664
 3068POPC   NC340535  12.860   6.667   9.464
 3068POPC   PO440536  12.850   6.650   9.164
 3068POPC   GL140537  12.847   6.601   8.864
 3068POPC   GL240538  12.889   6.555   8.864
 3068POPC   C1A40539  12.803   6.673   8.564
 3068POPC   D2A40540  12.872   6.635   8.264
 3068POPC   C3A40541  12.824   6.695   7.964
 3068POPC   C4A40542  12.842   6.638   7.664
 3068POPC   C1B40543  12.885   6.402   8.564
 3068POPC   C2B40544  12.875   6.409   8.264
 3068POPC   C3B40545  12.887   6.447   7.964
 3068POPC   C4B40546  12.867   6.444   7.664
 3069POPC   NC340547  14.423  29.190   9.464
 3069POPC   PO440548  14.358  29.146   9.164
 3069POPC   GL140549  14.381  29.148   8.864
 3069POPC   GL240550  14.411  29.068   8.864
 3069POPC   C1A40551  14.439  29.128   8.564
 3069POPC   D2A40552  14.378  29.171   8.264
 3069POPC   C3A40553  14.439  29.146   7.964
 3069POPC   C4A40554  14.380  29.146   7.664
 3069POPC   C1B40555  14.310  28.949   8.564
 3069POPC   C2B40556  14.300  28.860   8.264
 3069POPC   C3B40557  14.367  28.858   7.964
 3069POPC   C4B40558  14.340  28.902   7.664
 3070POPC   NC340559  13.595  37.707   9.464
 3070POPC   PO440560  13.610  37.673   9.164
 3070POPC   GL140561  13.610  37.638   8.864
 3070POPC   GL240562  13.668  37.609   8.864
 3070POPC   C1A40563  13.654  37.713   8.564
 3070POPC   D2A40564  13.595  37.702   8.264
 3070POPC   C3A40565  13.611  37.728   7.964
 3070POPC   C4A40566  13.602  37.719   7.664
 3070POPC   C1B40567  13.741  37.416   8.564
 3070POPC   C2B40568  13.764  37.473   8.264
 3070POPC   C3B40569  13.697  37.475   7.964
 3070POPC   C4B40570  13.693  37.458   7.664
 3071POPC   NC340571  22.119   6.610   9.464
 3071POPC   PO440572  22.142   6.689   9.164
 3071POPC   GL140573  22.184   6.638   8.864
 3071POPC   GL240574  22.240   6.644   8.864
 3071POPC   C1A40575  22.170   6.634   8.564
 3071POPC   D2A40576  22.171   6.654   8.264
 3071POPC   C3A40577  22.137   6.602   7.964
 3071POPC   C4A40578  22.144   6.670   7.664
 3071POPC   C1B40579  22.415   6.621   8.564
 3071POPC   C2B40580  22.427   6.617   8.264
 3071POPC   C3B40581  22.424   6.565   7.964
 3071POPC   C4B40582  22.427   6.661   7.664
 3072POPC   NC340583  13.614  14.385   9.464
 3072POPC   PO440584  13.661  14.443   9.164
 3072POPC   GL140585  13.668  14.432   8.864
 3072POPC   GL240586  13.686  14.309   8.864
 3072POPC   C1A40587  13.669  14.411   8.564
 3072POPC   D2A40588  13.675  14.399   8.264
 3072POPC   C3A40589  13.614  14.429   7.964
 3072POPC   C4A40590  13.645  14.453   7.664
 3072POPC   C1B40591  13.798  14.229   8.564
 3072POPC   C2B40592  13.775  14.188   8.264
 3072POPC   C3B40593  13.774  14.188   7.964
 3072POPC   C4B40594  13.779  14.140   7.664
 3073POPC   NC340595  38.444  13.645   9.464
 3073POPC   PO440596  38.486  13.631   9.164
 3073POPC   GL140597  38.455  13.674   8.864
 3073POPC   GL240598  38.580  13.600   8.864
 3073POPC   C1A40599  38.496  13.630   8.564
 3073POPC   D2A40600  38.479  13.605   8.264
 3073POPC   C3A40601  38.468  13.613   7.964
 3073POPC   C4A40602  38.464  13.605   7.664
 3073POPC   C1B40603  38.646  13.425   8.564
 3073POPC   C2B40604  38.694  13.449   8.264
 3073POPC   C3B40605  38.618  13.439   7.964
 3073POPC   C4B40606  38.641  13.505   7.664
 3074POPC   NC340607  37.648  12.069   9.464
 3074POPC   PO440608  37.725  12.059   9.164
 3074POPC   GL140609  37.643  12.051   8.864
 3074POPC   GL240610  37.829  12.041   8.864
 3074POPC   C1A40611  37.728  12.118   8.564
 3074POPC   D2A40612  37.686  12.065   8.264
 3074POPC   C3A40613  37.707  12.119   7.964
 3074POPC   C4A40614  37.637  12.120   7.664
 3074POPC   C1B40615  37.964  11.985   8.564
 3074POPC   C2B40616  37.889  11.983   8.264
 3074POPC   C3B40617  37.889  12.017   7.964
 3074POPC   C4B40618  37.939  12.039   7.664
 3075POPC   NC340619  15.906  33.800   9.464
 3075POPC   PO440620  15.960  33.826   9.164
 3075POPC   GL140621  15.942  33.829   8.864
 3075POPC   GL240622  15.892  33.918   8.864
 3075POPC   C1A40623  15.942  33.796   8.564
 3075POPC   D2A40624  16.004  33.828   8.264
 3075POPC   C3A40625  15.986  33.839   7.964
 3075POPC   C4A40626  15.944  33.835   7.664
 3075POPC   C1B40627  15.747  34.001   8.564
 3075POPC   C2B40628  15.837  34.035   8.264
 3075POPC   C3B40629  15.752  33.968   7.964
 3075POPC   C4B40630  15.759  34.003   7.664
 3076POPC   NC340631  10.566  32.239   9.464
 3076POPC   PO440632  10.519  32.280   9.164
 3076POPC   GL140633  10.561  32.205   8.864
 3076POPC   GL240634  10.449  32.098   8.864
 3076POPC   C1A40635  10.494  32.268   8.564
 3076POPC   D2A40636  10.536  32.266   8.264
 3076POPC   C3A40637  10.527  32.251   7.964
 3076POPC   C4A40638  10.549  32.290   7.664
 3076POPC   C1B40639  10.395  32.077   8.564
 3076POPC   C2B40640  10.352  32.019   8.264
 3076POPC   C3B40641  10.395  32.039   7.964
 3076POPC   C4B40642  10.350  32.021   7.664
 3077POPC   NC340643  27.629  19.866   9.464
 3077POPC   PO440644  27.627  19.877   9.164
 3077POPC   GL140645  27.601  19.834   8.864
 3077POPC   GL240646  27.489  19.872   8.864
 3077POPC   C1A40647  27.548  19.841   8.564
 3077POPC   D2A40648  27.580  19.796   8.264
 3077POPC   C3A40649  27.571  19.789   7.964
 3077POPC   C4A40650  27.602  19.795   7.664
 3077POPC   C1B40651  27.370  19.891   8.564
 3077POPC   C2B40652  27.301  19.859   8.264
 3077POPC   C3B40653  27.328  19.834   7.964
 3077POPC   C4B40654  27.296  19.817   7.664
 3078POPC   NC340655   7.452  21.377   9.464
 3078POPC   PO440656   7.456  21.358   9.164
 3078POPC   GL140657   7.443  21.414   8.864
 3078POPC   GL240658   7.457  21.276   8.864
 3078POPC   C1A40659   7.438  21.411   8.564
 3078POPC   D2A40660   7.424  21.353   8.264
 3078POPC   C3A40661   7.433  21.389   7.964
 3078POPC   C4A40662   7.406  21.361   7.664
 3078POPC   C1B40663   7.436  21.135   8.564
 3078POPC   C2B40664   7.500  21.180   8.264
 3078POPC   C3B40665   7.500  21.182   7.964
 3078POPC   C4B40666   7.520  21.137   7.664
 3079POPC   NC340667  26.782  19.854   9.464
 3079POPC   PO440668  26.817  19.844   9.164
 3079POPC   GL140669  26.851  19.835   8.864
 3079POPC   GL240670  26.818  19.944   8.864
 3079POPC   C1A40671  26.860  19.804   8.564
 3079POPC   D2A40672  26.810  19.879   8.264
 3079POPC   C3A40673  26.818  19.835   7.964
 3079POPC   C4A40674  26.827  19.849   7.664
 3079POPC   C1B40675  26.908  20.075   8.564
 3079POPC   C2B40676  26.862  20.036   8.264
 3079POPC   C3B40677  26.850  20.057   7.964
 3079POPC   C4B40678  26.913  20.114   7.664
 3080POPC   NC340679  34.610  17.508   9.464
 3080POPC   PO440680  34.599  17.491   9.164
 3080POPC   GL140681  34.608  17.523   8.864
 3080POPC   GL240682  34.718  17.509   8.864
 3080POPC   C1A40683  34.536  17.507   8.564
 3080POPC   D2A40684  34.581  17.507   8.264
 3080POPC   C3A40685  34.618  17.494   7.964
 3080POPC   C4A40686  34.548  17.512   7.664
 3080POPC   C1B40687  34.860  17.453   8.564
 3080POPC   C2B40688  34.810  17.426   8.264
 3080POPC   C3B40689  34.793  17.465   7.964
 3080POPC   C4B40690  34.786  17.500   7.664
 3081POPC   NC340691  36.867   6.597   9.464
 3081POPC   PO440692  36.859   6.677   9.164
 3081POPC   GL140693  36.888   6.600   8.864
 3081POPC   GL240694  36.785   6.579   8.864
 3081POPC   C1A40695  36.917   6.670   8.564
 3081POPC   D2A40696  36.921   6.607   8.264
 3081POPC   C3A40697  36.869   6.623   7.964
 3081POPC   C4A40698  36.929   6.610   7.664
 3081POPC   C1B40699  36.625   6.607   8.564
 3081POPC   C2B40700  36.701   6.595   8.264
 3081POPC   C3B40701  36.677   6.612   7.964
 3081POPC   C4B40702  36.643   6.607   7.664
 3082POPC   NC340703  12.063  34.579   9.464
 3082POPC   PO440704  12.063  34.547   9.164
 3082POPC   GL140705  12.036  34.592   8.864
 3082POPC   GL240706  12.155  34.603   8.864
 3082POPC   C1A40707  12.053  34.556   8.564
 3082POPC   D2A40708  12.083  34.559   8.264
 3082POPC   C3A40709  12.054  34.539   7.964
 3082POPC   C4A40710  12.084  34.616   7.664
 3082POPC   C1B40711  12.372  34.650   8.564
 3082POPC   C2B40712  12.323  34.615   8.264
 3082POPC   C3B40713  12.287  34.664   7.964
 3082POPC   C4B40714  12.348  34.634   7.664
 3083POPC   NC340715  12.115  43.116   9.464
 3083POPC   PO440716  12.072  43.080   9.164
 3083POPC   GL140717  12.108  43.090   8.864
 3083POPC   GL240718  12.100  43.012   8.864
 3083POPC   C1A40719  12.026  43.096   8.564
 3083POPC   D2A40720  12.091  43.089   8.264
 3083POPC   C3A40721  12.038  43.086   7.964
 3083POPC   C4A40722  12.047  43.128   7.664
 3083POPC   C1B40723  12.245  42.915   8.564
 3083POPC   C2B40724  12.214  42.867   8.264
 3083POPC   C3B40725  12.168  42.848   7.964
 3083POPC   C4B40726  12.167  42.849   7.664
 3084POPC   NC340727   3.521   1.241   9.464
 3084POPC   PO440728   3.508   1.232   9.164
 3084POPC   GL140729   3.503   1.240   8.864
 3084POPC   GL240730   3.430   1.236   8.864
 3084POPC   C1A40731   3.549   1.218   8.564
 3084POPC   D2A40732   3.531   1.262   8.264
 3084POPC   C3A40733   3.503   1.187   7.964
 3084POPC   C4A40734   3.519   1.193   7.664
 3084POPC   C1B40735   3.279   1.189   8.564
 3084POPC   C2B40736   3.277   1.147   8.264
 3084POPC   C3B40737   3.301   1.202   7.964
 3084POPC   C4B40738   3.272   1.195   7.664
 3085POPC   NC340739  12.055  11.272   9.464
 3085POPC   PO440740  12.066  11.298   9.164
 3085POPC   GL140741  12.103  11.252   8.864
 3085POPC   GL240742  12.096  11.196   8.864
 3085POPC   C1A40743  12.122  11.344   8.564
 3085POPC   D2A40744  12.072  11.277   8.264
 3085POPC   C3A40745  12.032  11.317   7.964
 3085POPC   C4A40746  12.096  11.271   7.664
 3085POPC   C1B40747  12.072  11.092   8.564
 3085POPC   C2B40748  12.092  11.043   8.264
 3085POPC   C3B40749  12.150  11.049   7.964
 3085POPC   C4B40750  12.078  11.095   7.664
 3086POPC   NC340751   3.577  28.398   9.464
 3086POPC   PO440752   3.526  28.385   9.164
 3086POPC   GL140753   3.565  28.401   8.864
 3086POPC   GL240754   3.572  28.432   8.864
 3086POPC   C1A40755   3.516  28.325   8.564
 3086POPC   D2A40756   3.571  28.397   8.264
 3086POPC   C3A40757   3.568  28.404   7.964
 3086POPC   C4A40758   3.590  28.382   7.664
 3086POPC   C1B40759   3.686  28.599   8.564
 3086POPC   C2B40760   3.646  28.537   8.264
 3086POPC   C3B40761   3.680  28.575   7.964
 3086POPC   C4B40762   3.645  28.623   7.664
 3087POPC   NC340763  16.689  39.989   9.464
 3087POPC   PO440764  16.744  39.984   9.164
 3087POPC   GL140765  16.703  40.001   8.864
 3087POPC   GL240766  16.656  40.008   8.864
 3087POPC   C1A40767  16.769  39.978   8.564
 3087POPC   D2A40768  16.746  39.996   8.264
 3087POPC   C3A40769  16.760  39.995   7.964
 3087POPC   C4A40770  16.717  40.024   7.664
 3087POPC   C1B40771  16.485  40.098   8.564
 3087POPC   C2B40772  16.530  40.119   8.264
 3087POPC   C3B40773  16.531  40.033   7.964
 3087POPC   C4B40774  16.507  40.034   7.664
 3088POPC   NC340775  28.346  36.150   9.464
 3088POPC   PO440776  28.409  36.123   9.164
 3088POPC   GL140777  28.371  36.114   8.864
 3088POPC   GL240778  28.410  36.017   8.864
 3088POPC   C1A40779  28.412  36.084   8.564
 3088POPC   D2A40780  28.401  36.099   8.264
 3088POPC   C3A40781  28.395  36.112   7.964
 3088POPC   C4A40782  28.388  36.085   7.664
 3088POPC   C1B40783  28.556  35.915   8.564
 3088POPC   C2B40784  28.516  35.908   8.264
 3088POPC   C3B40785  28.509  35.991   7.964
 3088POPC   C4B40786  28.490  35.919   7.664
 3089POPC   NC340787   9.706  12.107   9.464
 3089POPC   PO440788   9.739  12.083   9.164
 3089POPC   GL140789   9.795  12.075   8.864
 3089POPC   GL240790   9.629  11.988   8.864
 3089POPC   C1A40791   9.747  12.081   8.564
 3089POPC   D2A40792   9.718  12.086   8.264
 3089POPC   C3A40793   9.747  12.061   7.964
 3089POPC   C4A40794   9.787  12.048   7.664
 3089POPC   C1B40795   9.598  11.910   8.564
 3089POPC   C2B40796   9.587  11.881   8.264
 3089POPC   C3B40797   9.622  11.863   7.964
 3089POPC   C4B40798   9.597  11.910   7.664
 3090POPC   NC340799  30.653  36.941   9.464
 3090POPC   PO440800  30.647  36.912   9.164
 3090POPC   GL140801  30.650  36.943   8.864
 3090POPC   GL240802  30.816  36.885   8.864
 3090POPC   C1A40803  30.711  36.937   8.564
 3090POPC   D2A40804  30.707  36.866   8.264
 3090POPC   C3A40805  30.697  36.921   7.964
 3090POPC   C4A40806  30.712  36.854   7.664
 3090POPC   C1B40807  30.897  36.981   8.564
 3090POPC   C2B40808  30.919  36.936   8.264
 3090POPC   C3B40809  30.990  36.923   7.964
 3090POPC   C4B40810  30.910  36.934   7.664
 3091POPC   NC340811   5.906  41.541   9.464
 3091POPC   PO440812   5.884  41.583   9.164
 3091POPC   GL140813   5.865  41.574   8.864
 3091POPC   GL240814   5.765  41.609   8.864
 3091POPC   C1A40815   5.840  41.544   8.564
 3091POPC   D2A40816   5.843  41.580   8.264
 3091POPC   C3A40817   5.886  41.583   7.964
 3091POPC   C4A40818   5.917  41.519   7.664
 3091POPC   C1B40819   5.680  41.744   8.564
 3091POPC   C2B40820   5.710  41.791   8.264
 3091POPC   C3B40821   5.713  41.714   7.964
 3091POPC   C4B40822   5.654  41.700   7.664
 3092POPC   NC340823  16.731  39.227   9.464
 3092POPC   PO440824  16.761  39.239   9.164
 3092POPC   GL140825  16.761  39.213   8.864
 3092POPC   GL240826  16.635  39.307   8.864
 3092POPC   C1A40827  16.769  39.220   8.564
 3092POPC   D2A40828  16.749  39.202   8.264
 3092POPC   C3A40829  16.724  39.261   7.964
 3092POPC   C4A40830  16.739  39.279   7.664
 3092POPC   C1B40831  16.489  39.365   8.564
 3092POPC   C2B40832  16.470  39.332   8.264
 3092POPC   C3B40833  16.504  39.320   7.964
 3092POPC   C4B40834  16.476  39.350   7.664
 3093POPC   NC340835  32.237   9.759   9.464
 3093POPC   PO440836  32.294   9.723   9.164
 3093POPC   GL140837  32.271   9.758   8.864
 3093POPC   GL240838  32.169   9.802   8.864
 3093POPC   C1A40839  32.279   9.756   8.564
 3093POPC   D2A40840  32.262   9.728   8.264
 3093POPC   C3A40841  32.256   9.747   7.964
 3093POPC   C4A40842  32.211   9.767   7.664
 3093POPC   C1B40843  32.026   9.850   8.564
 3093POPC   C2B40844  32.014   9.826   8.264
 3093POPC   C3B40845  32.014   9.833   7.964
 3093POPC   C4B40846  32.058   9.807   7.664
 3094POPC   NC340847   5.828   5.897   9.464
 3094POPC   PO440848   5.865   5.891   9.164
 3094POPC   GL140849   5.850   5.890   8.864
 3094POPC   GL240850   5.936   5.934   8.864
 3094POPC   C1A40851   5.876   5.893   8.564
 3094POPC   D2A40852   5.892   5.916   8.264
 3094POPC   C3A40853   5.857   5.821   7.964
 3094POPC   C4A40854   5.900   5.915   7.664
 3094POPC   C1B40855   6.017   6.109   8.564
 3094POPC   C2B40856   6.011   6.032   8.264
 3094POPC   C3B40857   6.004   6.046   7.964
 3094POPC   C4B40858   6.067   6.033   7.664
 3095POPC   NC340859  43.852  35.394   9.464
 3095POPC   PO440860  43.918  35.384   9.164
 3095POPC   GL140861  43.910  35.325   8.864
 3095POPC   GL240862  44.046  35.374   8.864
 3095POPC   C1A40863  43.875  35.385   8.564
 3095POPC   D2A40864  43.839  35.313   8.264
 3095POPC   C3A40865  43.845  35.384   7.964
 3095POPC   C4A40866  43.862  35.371   7.664
 3095POPC   C1B40867  44.168  35.470   8.564
 3095POPC   C2B40868  44.160  35.427   8.264
 3095POPC   C3B40869  44.128  35.436   7.964
 3095POPC   C4B40870  44.156  35.417   7.664
 3096POPC   NC340871  25.221   4.295   9.464
 3096POPC   PO440872  25.297   4.337   9.164
 3096POPC   GL140873  25.271   4.315   8.864
 3096POPC   GL240874  25.101   4.394   8.864
 3096POPC   C1A40875  25.295   4.292   8.564
 3096POPC   D2A40876  25.294   4.318   8.264
 3096POPC   C3A40877  25.226   4.305   7.964
 3096POPC   C4A40878  25.270   4.323   7.664
 3096POPC   C1B40879  25.042   4.348   8.564
 3096POPC   C2B40880  25.063   4.359   8.264
 3096POPC   C3B40881  25.017   4.385   7.964
 3096POPC   C4B40882  25.013   4.425   7.664
 3097POPC   NC340883  24.482   2.721   9.464
 3097POPC   PO440884  24.485   2.776   9.164
 3097POPC   GL140885  24.502   2.777   8.864
 3097POPC   GL240886  24.391   2.820   8.864
 3097POPC   C1A40887  24.478   2.730   8.564
 3097POPC   D2A40888  24.468   2.777   8.264
 3097POPC   C3A40889  24.482   2.764   7.964
 3097POPC   C4A40890  24.469   2.724   7.664
 3097POPC   C1B40891  24.248   2.783   8.564
 3097POPC   C2B40892  24.231   2.817   8.264
 3097POPC   C3B40893  24.248   2.800   7.964
 3097POPC   C4B40894  24.256   2.813   7.664
 3098POPC   NC340895   9.751  38.444   9.464
 3098POPC   PO440896   9.722  38.419   9.164
 3098POPC   GL140897   9.707  38.419   8.864
 3098POPC   GL240898   9.787  38.330   8.864
 3098POPC   C1A40899   9.718  38.453   8.564
 3098POPC   D2A40900   9.718  38.440   8.264
 3098POPC   C3A40901   9.724  38.432   7.964
 3098POPC   C4A40902   9.738  38.492   7.664
 3098POPC   C1B40903   9.832  38.222   8.564
 3098POPC   C2B40904   9.790  38.257   8.264
 3098POPC   C3B40905   9.804  38.161   7.964
 3098POPC   C4B40906   9.831  38.257   7.664
 3099POPC   NC340907  13.662   4.319   9.464
 3099POPC   PO440908  13.632   4.313   9.164
 3099POPC   GL140909  13.645   4.290   8.864
 3099POPC   GL240910  13.511   4.219   8.864
 3099POPC   C1A40911  13.666   4.342   8.564
 3099POPC   D2A40912  13.615   4.359   8.264
 3099POPC   C3A40913  13.641   4.268   7.964
 3099POPC   C4A40914  13.608   4.340   7.664
 3099POPC   C1B40915  13.444   4.202   8.564
 3099POPC   C2B40916  13.434   4.215   8.264
 3099POPC   C3B40917  13.444   4.190   7.964
 3099POPC   C4B40918  13.394   4.211   7.664
 3100POPC   NC340919  22.210  35.347   9.464
 3100POPC   PO440920  22.207  35.317   9.164
 3100POPC   GL140921  22.191  35.337   8.864
 3100POPC   GL240922  22.208  35.268   8.864
 3100POPC   C1A40923  22.150  35.352   8.564
 3100POPC   D2A40924  22.139  35.401   8.264
 3100POPC   C3A40925  22.122  35.370   7.964
 3100POPC   C4A40926  22.117  35.354   7.664
 3100POPC   C1B40927  22.238  35.083   8.564
 3100POPC   C2B40928  22.227  35.099   8.264
 3100POPC   C3B40929  22.171  35.113   7.964
 3100POPC   C4B40930  22.194  35.105   7.664
 3101POPC   NC340931  29.945  42.346   9.464
 3101POPC   PO440932  29.918  42.382   9.164
 3101POPC   GL140933  29.896  42.300   8.864
 3101POPC   GL240934  29.873  42.258   8.864
 3101POPC   C1A40935  29.909  42.290   8.564
 3101POPC   D2A40936  29.896  42.322   8.264
 3101POPC   C3A40937  29.914  42.300   7.964
 3101POPC   C4A40938  29.889  42.370   7.664
 3101POPC   C1B40939  29.823  42.080   8.564
 3101POPC   C2B40940  29.794  42.156   8.264
 3101POPC   C3B40941  29.765  42.133   7.964
 3101POPC   C4B40942  29.823  42.168   7.664
 3102POPC   NC340943  19.038  40.007   9.464
 3102POPC   PO440944  19.029  40.019   9.164
 3102POPC   GL140945  19.095  40.040   8.864
 3102POPC   GL240946  18.953  40.159   8.864
 3102POPC   C1A40947  19.042  40.022   8.564
 3102POPC   D2A40948  19.085  39.959   8.264
 3102POPC   C3A40949  19.072  39.985   7.964
 3102POPC   C4A40950  19.081  40.033   7.664
 3102POPC   C1B40951  18.915  40.184   8.564
 3102POPC   C2B40952  18.931  40.185   8.264
 3102POPC   C3B40953  18.959  40.177   7.964
 3102POPC   C4B40954  18.982  40.210   7.664
 3103POPC   NC340955   5.138  22.937   9.464
 3103POPC   PO440956   5.124  22.906   9.164
 3103POPC   GL140957   5.079  22.987   8.864
 3103POPC   GL240958   4.956  23.007   8.864
 3103POPC   C1A40959   5.070  22.967   8.564
 3103POPC   D2A40960   5.078  22.938   8.264
 3103POPC   C3A40961   5.091  22.930   7.964
 3103POPC   C4A40962   5.073  22.952   7.664
 3103POPC   C1B40963   4.826  23.110   8.564
 3103POPC   C2B40964   4.915  23.074   8.264
 3103POPC   C3B40965   4.891  23.105   7.964
 3103POPC   C4B40966   4.857  23.023   7.664
 3104POPC   NC340967  43.897  32.215   9.464
 3104POPC   PO440968  43.906  32.229   9.164
 3104POPC   GL140969  43.865  32.269   8.864
 3104POPC   GL240970  43.929  32.351   8.864
 3104POPC   C1A40971  43.861  32.272   8.564
 3104POPC   D2A40972  43.896  32.233   8.264
 3104POPC   C3A40973  43.878  32.231   7.964
 3104POPC   C4A40974  43.873  32.296   7.664
 3104POPC   C1B40975  44.017  32.483   8.564
 3104POPC   C2B40976  44.096  32.451   8.264
 3104POPC   C3B40977  44.035  32.453   7.964
 3104POPC   C4B40978  44.038  32.394   7.664
 3105POPC   NC340979  38.473   7.388   9.464
 3105POPC   PO440980  38.487   7.380   9.164
 3105POPC   GL140981  38.467   7.443   8.864
 3105POPC   GL240982  38.564   7.302   8.864
 3105POPC   C1A40983  38.415   7.406   8.564
 3105POPC   D2A40984  38.420   7.377   8.264
 3105POPC   C3A40985  38.427   7.424   7.964
 3105POPC   C4A40986  38.503   7.447   7.664
 3105POPC   C1B40987  38.631   7.234   8.564
 3105POPC   C2B40988  38.642   7.289   8.264
 3105POPC   C3B40989  38.629   7.231   7.964
 3105POPC   C4B40990  38.673   7.267   7.664
 3106POPC   NC340991  28.383  26.853   9.464
 3106POPC   PO440992  28.349  26.787   9.164
 3106POPC   GL140993  28.335  26.856   8.864
 3106POPC   GL240994  28.317  26.908   8.864
 3106POPC   C1A40995  28.337  26.812   8.564
 3106POPC   D2A40996  28.389  26.803   8.264
 3106POPC   C3A40997  28.394  26.797   7.964
 3106POPC   C4A40998  28.374  26.828   7.664
 3106POPC   C1B40999  28.238  27.066   8.564
 3106POPC   C2B41000  28.243  27.008   8.264
 3106POPC   C3B41001  28.271  27.044   7.964
 3106POPC   C4B41002  28.240  27.030   7.664
 3107POPC   NC341003  32.202  26.805   9.464
 3107POPC   PO441004  32.284  26.790   9.164
 3107POPC   GL141005  32.267  26.793   8.864
 3107POPC   GL241006  32.326  26.903   8.864
 3107POPC   C1A41007  32.270  26.769   8.564
 3107POPC   D2A41008  32.263  26.780   8.264
 3107POPC   C3A41009  32.268  26.832   7.964
 3107POPC   C4A41010  32.200  26.790   7.664
 3107POPC   C1B41011  32.384  26.973   8.564
 3107POPC   C2B41012  32.432  26.980   8.264
 3107POPC   C3B41013  32.354  27.051   7.964
 3107POPC   C4B41014  32.369  27.017   7.664
 3108POPC   NC341015   1.171  36.170   9.464
 3108POPC   PO441016   1.185  36.129   9.164
 3108POPC   GL141017   1.205  36.095   8.864
 3108POPC   GL241018   1.351  36.139   8.864
 3108POPC   C1A41019   1.249  36.091   8.564
 3108POPC   D2A41020   1.193  36.143   8.264
 3108POPC   C3A41021   1.194  36.140   7.964
 3108POPC   C4A41022   1.167  36.133   7.664
 3108POPC   C1B41023   1.486  36.081   8.564
 3108POPC   C2B41024   1.498  36.096   8.264
 3108POPC   C3B41025   1.475  36.085   7.964
 3108POPC   C4B41026   1.472  36.065   7.664
 3109POPC   NC341027  36.107  15.158   9.464
 3109POPC   PO441028  36.124  15.212   9.164
 3109POPC   GL141029  36.139  15.195   8.864
 3109POPC   GL241030  36.138  15.060   8.864
 3109POPC   C1A41031  36.148  15.199   8.564
 3109POPC   D2A41032  36.098  15.227   8.264
 3109POPC   C3A41033  36.131  15.147   7.964
 3109POPC   C4A41034  36.101  15.134   7.664
 3109POPC   C1B41035  36.225  14.909   8.564
 3109POPC   C2B41036  36.191  14.923   8.264
 3109POPC   C3B41037  36.222  14.965   7.964
 3109POPC   C4B41038  36.176  14.969   7.664
 3110POPC   NC341039  22.910  25.992   9.464
 3110POPC   PO441040  22.926  26.044   9.164
 3110POPC   GL141041  22.987  26.089   8.864
 3110POPC   GL241042  22.854  25.908   8.864
 3110POPC   C1A41043  22.911  26.085   8.564
 3110POPC   D2A41044  22.972  26.041   8.264
 3110POPC   C3A41045  22.960  26.069   7.964
 3110POPC   C4A41046  22.953  25.997   7.664
 3110POPC   C1B41047  22.747  25.888   8.564
 3110POPC   C2B41048  22.736  25.880   8.264
 3110POPC   C3B41049  22.774  25.820   7.964
 3110POPC   C4B41050  22.725  25.853   7.664
 3111POPC   NC341051  20.630  29.894   9.464
 3111POPC   PO441052  20.617  29.952   9.164
 3111POPC   GL141053  20.650  29.901   8.864
 3111POPC   GL241054  20.492  29.833   8.864
 3111POPC   C1A41055  20.569  29.916   8.564
 3111POPC   D2A41056  20.594  29.896   8.264
 3111POPC   C3A41057  20.653  29.956   7.964
 3111POPC   C4A41058  20.614  29.971   7.664
 3111POPC   C1B41059  20.359  29.828   8.564
 3111POPC   C2B41060  20.329  29.786   8.264
 3111POPC   C3B41061  20.409  29.787   7.964
 3111POPC   C4B41062  20.341  29.845   7.664
 3112POPC   NC341063   8.972  42.307   9.464
 3112POPC   PO441064   8.972  42.368   9.164
 3112POPC   GL141065   8.951  42.326   8.864
 3112POPC   GL241066   8.937  42.223   8.864
 3112POPC   C1A41067   8.940  42.311   8.564
 3112POPC   D2A41068   8.946  42.345   8.264
 3112POPC   C3A41069   9.022  42.365   7.964
 3112POPC   C4A41070   8.982  42.345   7.664
 3112POPC   C1B41071   8.941  42.084   8.564
 3112POPC   C2B41072   8.896  42.066   8.264
 3112POPC   C3B41073   8.899  42.126   7.964
 3112POPC   C4B41074   8.951  42.103   7.664
 3113POPC   NC341075  43.150  13.633   9.464
 3113POPC   PO441076  43.082  13.617   9.164
 3113POPC   GL141077  43.115  13.668   8.864
 3113POPC   GL241078  43.199  13.608   8.864
 3113POPC   C1A41079  43.093  13.619   8.564
 3113POPC   D2A41080  43.110  13.652   8.264
 3113POPC   C3A41081  43.124  13.658   7.964
 3113POPC   C4A41082  43.157  13.661   7.664
 3113POPC   C1B41083  43.300  13.506   8.564
 3113POPC   C2B41084  43.293  13.464   8.264
 3113POPC   C3B41085  43.302  13.475   7.964
 3113POPC   C4B41086  43.345  13.452   7.664
 3114POPC   NC341087  36.082   5.856   9.464
 3114POPC   PO441088  36.162   5.906   9.164
 3114POPC   GL141089  36.141   5.853   8.864
 3114POPC   GL241090  36.137   5.793   8.864
 3114POPC   C1A41091  36.134   5.837   8.564
 3114POPC   D2A41092  36.108   5.877   8.264
 3114POPC   C3A41093  36.100   5.838   7.964
 3114POPC   C4A41094  36.122   5.834   7.664
 3114POPC   C1B41095  36.126   5.657   8.564
 3114POPC   C2B41096  36.146   5.638   8.264
 3114POPC   C3B41097  36.113   5.593   7.964
 3114POPC   C4B41098  36.140   5.570   7.664
 3115POPC   NC341099  26.042  34.616   9.464
 3115POPC   PO441100  26.062  34.545   9.164
 3115POPC   GL141101  26.010  34.586   8.864
 3115POPC   GL241102  26.102  34.651   8.864
 3115POPC   C1A41103  26.068  34.591   8.564
 3115POPC   D2A41104  26.064  34.604   8.264
 3115POPC   C3A41105  26.041  34.558   7.964
 3115POPC   C4A41106  26.028  34.560   7.664
 3115POPC   C1B41107  26.150  34.843   8.564
 3115POPC   C2B41108  26.160  34.833   8.264
 3115POPC   C3B41109  26.108  34.782   7.964
 3115POPC   C4B41110  26.076  34.768   7.664
 3116POPC   NC341111  17.483  38.443   9.464
 3116POPC   PO441112  17.468  38.436   9.164
 3116POPC   GL141113  17.473  38.434   8.864
 3116POPC   GL241114  17.603  38.541   8.864
 3116POPC   C1A41115  17.461  38.415   8.564
 3116POPC   D2A41116  17.541  38.462   8.264
 3116POPC   C3A41117  17.504  38.447   7.964
 3116POPC   C4A41118  17.492  38.408   7.664
 3116POPC   C1B41119  17.668  38.631   8.564
 3116POPC   C2B41120  17.626  38.637   8.264
 3116POPC   C3B41121  17.705  38.653   7.964
 3116POPC   C4B41122  17.626  38.669   7.664
 3117POPC   NC341123  37.679  32.297   9.464
 3117POPC   PO441124  37.717  32.273   9.164
 3117POPC   GL141125  37.664  32.291   8.864
 3117POPC   GL241126  37.648  32.364   8.864
 3117POPC   C1A41127  37.640  32.218   8.564
 3117POPC   D2A41128  37.714  32.204   8.264
 3117POPC   C3A41129  37.699  32.251   7.964
 3117POPC   C4A41130  37.662  32.277   7.664
 3117POPC   C1B41131  37.558  32.413   8.564
 3117POPC   C2B41132  37.504  32.464   8.264
 3117POPC   C3B41133  37.565  32.495   7.964
 3117POPC   C4B41134  37.572  32.407   7.664
 3118POPC   NC341135  27.577   0.457   9.464
 3118POPC   PO441136  27.601   0.429   9.164
 3118POPC   GL141137  27.607   0.486   8.864
 3118POPC   GL241138  27.657   0.568   8.864
 3118POPC   C1A41139  27.573   0.446   8.564
 3118POPC   D2A41140  27.597   0.397   8.264
 3118POPC   C3A41141  27.561   0.436   7.964
 3118POPC   C4A41142  27.555   0.471   7.664
 3118POPC   C1B41143  27.731   0.662   8.564
 3118POPC   C2B41144  27.745   0.602   8.264
 3118POPC   C3B41145  27.701   0.626   7.964
 3118POPC   C4B41146  27.759   0.686   7.664
 3119POPC   NC341147  15.184  15.932   9.464
 3119POPC   PO441148  15.171  15.963   9.164
 3119POPC   GL141149  15.219  16.004   8.864
 3119POPC   GL241150  15.277  15.915   8.864
 3119POPC   C1A41151  15.141  15.982   8.564
 3119POPC   D2A41152  15.221  15.983   8.264
 3119POPC   C3A41153  15.139  15.948   7.964
 3119POPC   C4A41154  15.180  15.970   7.664
 3119POPC   C1B41155  15.464  15.968   8.564
 3119POPC   C2B41156  15.405  15.914   8.264
 3119POPC   C3B41157  15.435  15.976   7.964
 3119POPC   C4B41158  15.411  15.978   7.664
 3120POPC   NC341159  19.106  24.538   9.464
 3120POPC   PO441160  19.033  24.487   9.164
 3120POPC   GL141161  19.034  24.487   8.864
 3120POPC   GL241162  19.136  24.598   8.864
 3120POPC   C1A41163  19.107  24.505   8.564
 3120POPC   D2A41164  19.086  24.465   8.264
 3120POPC   C3A41165  19.068  24.480   7.964
 3120POPC   C4A41166  19.027  24.506   7.664
 3120POPC   C1B41167  19.175  24.658   8.564
 3120POPC   C2B41168  19.198  24.744   8.264
 3120POPC   C3B41169  19.215  24.710   7.964
 3120POPC   C4B41170  19.138  24.662   7.664
 3121POPC   NC341171  27.636  36.885   9.464
 3121POPC   PO441172  27.601  36.882   9.164
 3121POPC   GL141173  27.604  36.949   8.864
 3121POPC   GL241174  27.519  36.964   8.864
 3121POPC   C1A41175  27.577  36.854   8.564
 3121POPC   D2A41176  27.629  36.893   8.264
 3121POPC   C3A41177  27.587  36.888   7.964
 3121POPC   C4A41178  27.634  36.950   7.664
 3121POPC   C1B41179  27.352  37.061   8.564
 3121POPC   C2B41180  27.400  36.969   8.264
 3121POPC   C3B41181  27.373  36.988   7.964
 3121POPC   C4B41182  27.348  37.044   7.664
 3122POPC   NC341183  18.324  39.980   9.464
 3122POPC   PO441184  18.248  40.017   9.164
 3122POPC   GL141185  18.257  39.958   8.864
 3122POPC   GL241186  18.119  40.034   8.864
 3122POPC   C1A41187  18.285  39.962   8.564
 3122POPC   D2A41188  18.247  39.979   8.264
 3122POPC   C3A41189  18.273  39.968   7.964
 3122POPC   C4A41190  18.300  40.028   7.664
 3122POPC   C1B41191  18.005  40.095   8.564
 3122POPC   C2B41192  18.008  40.061   8.264
 3122POPC   C3B41193  18.018  40.038   7.964
 3122POPC   C4B41194  18.049  40.018   7.664
 3123POPC   NC341195  30.738  29.167   9.464
 3123POPC   PO441196  30.667  29.159   9.164
 3123POPC   GL141197  30.684  29.175   8.864
 3123POPC   GL241198  30.627  29.232   8.864
 3123POPC   C1A41199  30.740  29.109   8.564
 3123POPC   D2A41200  30.712  29.115   8.264
 3123POPC   C3A41201  30.653  29.116   7.964
 3123POPC   C4A41202  30.733  29.180   7.664
 3123POPC   C1B41203  30.450  29.307   8.564
 3123POPC   C2B41204  30.451  29.271   8.264
 3123POPC   C3B41205  30.511  29.286   7.964
 3123POPC   C4B41206  30.436  29.280   7.664
 3124POPC   NC341207  39.991  16.761   5.564
 3124POPC   PO441208  39.978  16.701   5.864
 3124POPC   GL141209  39.987  16.697   6.164
 3124POPC   GL241210  40.121  16.701   6.164
 3124POPC   C1A41211  39.984  16.734   6.464
 3124POPC   D2A41212  39.969  16.691   6.764
 3124POPC   C3A41213  40.036  16.740   7.064
 3124POPC   C4A41214  39.977  16.723   7.364
 3124POPC   C1B41215  40.253  16.746   6.464
 3124POPC   C2B41216  40.215  16.756   6.764
 3124POPC   C3B41217  40.299  16.756   7.064
 3124POPC   C4B41218  40.293  16.722   7.364
 3125POPC   NC341219  34.562  22.906   5.564
 3125POPC   PO441220  34.569  22.907   5.864
 3125POPC   GL141221  34.569  22.945   6.164
 3125POPC   GL241222  34.550  23.015   6.164
 3125POPC   C1A41223  34.582  22.904   6.464
 3125POPC   D2A41224  34.526  22.907   6.764
 3125POPC   C3A41225  34.596  22.901   7.064
 3125POPC   C4A41226  34.545  22.889   7.364
 3125POPC   C1B41227  34.538  23.202   6.464
 3125POPC   C2B41228  34.542  23.238   6.764
 3125POPC   C3B41229  34.559  23.196   7.064
 3125POPC   C4B41230  34.603  23.182   7.364
 3126POPC   NC341231  11.272  16.757   5.564
 3126POPC   PO441232  11.264  16.712   5.864
 3126POPC   GL141233  11.336  16.710   6.164
 3126POPC   GL241234  11.432  16.609   6.164
 3126POPC   C1A41235  11.337  16.756   6.464
 3126POPC   D2A41236  11.265  16.730   6.764
 3126POPC   C3A41237  11.268  16.748   7.064
 3126POPC   C4A41238  11.279  16.709   7.364
 3126POPC   C1B41239  11.474  16.517   6.464
 3126POPC   C2B41240  11.477  16.541   6.764
 3126POPC   C3B41241  11.454  16.603   7.064
 3126POPC   C4B41242  11.431  16.529   7.364
 3127POPC   NC341243  15.173  33.778   5.564
 3127POPC   PO441244  15.211  33.829   5.864
 3127POPC   GL141245  15.182  33.823   6.164
 3127POPC   GL241246  15.248  33.875   6.164
 3127POPC   C1A41247  15.134  33.788   6.464
 3127POPC   D2A41248  15.210  33.829   6.764
 3127POPC   C3A41249  15.209  33.836   7.064
 3127POPC   C4A41250  15.162  33.815   7.364
 3127POPC   C1B41251  15.262  33.992   6.464
 3127POPC   C2B41252  15.225  34.007   6.764
 3127POPC   C3B41253  15.284  34.065   7.064
 3127POPC   C4B41254  15.237  34.024   7.364
 3128POPC   NC341255  29.112  23.681   5.564
 3128POPC   PO441256  29.130  23.733   5.864
 3128POPC   GL141257  29.162  23.726   6.164
 3128POPC   GL241258  29.277  23.738   6.164
 3128POPC   C1A41259  29.145  23.672   6.464
 3128POPC   D2A41260  29.131  23.730   6.764
 3128POPC   C3A41261  29.136  23.744   7.064
 3128POPC   C4A41262  29.121  23.759   7.364
 3128POPC   C1B41263  29.356  23.681   6.464
 3128POPC   C2B41264  29.414  23.693   6.764
 3128POPC   C3B41265  29.423  23.741   7.064
 3128POPC   C4B41266  29.438  23.742   7.364
 3129POPC   NC341267   9.778   0.420   5.564
 3129POPC   PO441268   9.736   0.422   5.864
 3129POPC   GL141269   9.726   0.475   6.164
 3129POPC   GL241270   9.647   0.442   6.164
 3129POPC   C1A41271   9.739   0.473   6.464
 3129POPC   D2A41272   9.794   0.409   6.764
 3129POPC   C3A41273   9.729   0.401   7.064
 3129POPC   C4A41274   9.789   0.429   7.364
 3129POPC   C1B41275   9.518   0.315   6.464
 3129POPC   C2B41276   9.550   0.389   6.764
 3129POPC   C3B41277   9.530   0.322   7.064
 3129POPC   C4B41278   9.516   0.348   7.364
 3130POPC   NC341279  40.033  10.533   5.564
 3130POPC   PO441280  40.008  10.486   5.864
 3130POPC   GL141281  39.979  10.493   6.164
 3130POPC   GL241282  40.097  10.550   6.164
 3130POPC   C1A41283  39.999  10.502   6.464
 3130POPC   D2A41284  40.047  10.507   6.764
 3130POPC   C3A41285  40.047  10.564   7.064
 3130POPC   C4A41286  39.980  10.478   7.364
 3130POPC   C1B41287  40.273  10.468   6.464
 3130POPC   C2B41288  40.285  10.458   6.764
 3130POPC   C3B41289  40.292  10.500   7.064
 3130POPC   C4B41290  40.285  10.528   7.364
 3131POPC   NC341291  42.384  40.015   5.564
 3131POPC   PO441292  42.375  40.020   5.864
 3131POPC   GL141293  42.317  40.053   6.164
 3131POPC   GL241294  42.404  39.867   6.164
 3131POPC   C1A41295  42.301  40.031   6.464
 3131POPC   D2A41296  42.374  40.018   6.764
 3131POPC   C3A41297  42.319  40.034   7.064
 3131POPC   C4A41298  42.314  40.034   7.364
 3131POPC   C1B41299  42.488  39.768   6.464
 3131POPC   C2B41300  42.446  39.807   6.764
 3131POPC   C3B41301  42.508  39.777   7.064
 3131POPC   C4B41302  42.462  39.853   7.364
 3132POPC   NC341303  37.661  39.241   5.564
 3132POPC   PO441304  37.645  39.245   5.864
 3132POPC   GL141305  37.637  39.213   6.164
 3132POPC   GL241306  37.553  39.368   6.164
 3132POPC   C1A41307  37.662  39.223   6.464
 3132POPC   D2A41308  37.647  39.258   6.764
 3132POPC   C3A41309  37.729  39.203   7.064
 3132POPC   C4A41310  37.716  39.266   7.364
 3132POPC   C1B41311  37.519  39.457   6.464
 3132POPC   C2B41312  37.540  39.447   6.764
 3132POPC   C3B41313  37.490  39.444   7.064
 3132POPC   C4B41314  37.562  39.399   7.364
 3133POPC   NC341315  28.343  39.253   5.564
 3133POPC   PO441316  28.372  39.183   5.864
 3133POPC   GL141317  28.414  39.199   6.164
 3133POPC   GL241318  28.308  39.286   6.164
 3133POPC   C1A41319  28.387  39.227   6.464
 3133POPC   D2A41320  28.414  39.239   6.764
 3133POPC   C3A41321  28.408  39.270   7.064
 3133POPC   C4A41322  28.332  39.242   7.364
 3133POPC   C1B41323  28.187  39.438   6.464
 3133POPC   C2B41324  28.265  39.426   6.764
 3133POPC   C3B41325  28.251  39.396   7.064
 3133POPC   C4B41326  28.198  39.435   7.364
 3134POPC   NC341327  35.379  22.154   5.564
 3134POPC   PO441328  35.313  22.142   5.864
 3134POPC   GL141329  35.336  22.140   6.164
 3134POPC   GL241330  35.214  22.184   6.164
 3134POPC   C1A41331  35.320  22.192   6.464
 3134POPC   D2A41332  35.338  22.113   6.764
 3134POPC   C3A41333  35.380  22.155   7.064
 3134POPC   C4A41334  35.345  22.146   7.364
 3134POPC   C1B41335  35.060  22.213   6.464
 3134POPC   C2B41336  35.106  22.174   6.764
 3134POPC   C3B41337  35.098  22.202   7.064
 3134POPC   C4B41338  35.138  22.243   7.364
 3135POPC   NC341339  14.431   0.390   5.564
 3135POPC   PO441340  14.442   0.388   5.864
 3135POPC   GL141341  14.386   0.449   6.164
 3135POPC   GL241342  14.289   0.501   6.164
 3135POPC   C1A41343  14.433   0.394   6.464
 3135POPC   D2A41344  14.395   0.422   6.764
 3135POPC   C3A41345  14.384   0.410   7.064
 3135POPC   C4A41346  14.369   0.401   7.364
 3135POPC   C1B41347  14.214   0.554   6.464
 3135POPC   C2B41348  14.136   0.556   6.764
 3135POPC   C3B41349  14.157   0.531   7.064
 3135POPC   C4B41350  14.202   0.581   7.364
 3136POPC   NC341351  26.057  36.085   5.564
 3136POPC   PO441352  26.085  36.103   5.864
 3136POPC   GL141353  26.050  36.170   6.164
 3136POPC   GL241354  25.988  36.007   6.164
 3136POPC   C1A41355  26.038  36.173   6.464
 3136POPC   D2A41356  26.005  36.118   6.764
 3136POPC   C3A41357  26.049  36.144   7.064
 3136POPC   C4A41358  26.074  36.157   7.364
 3136POPC   C1B41359  25.899  35.937   6.464
 3136POPC   C2B41360  25.822  35.959   6.764
 3136POPC   C3B41361  25.892  35.916   7.064
 3136POPC   C4B41362  25.870  35.939   7.364
 3137POPC   NC341363  28.399   9.708   5.564
 3137POPC   PO441364  28.387   9.783   5.864
 3137POPC   GL141365  28.419   9.759   6.164
 3137POPC   GL241366  28.447   9.763   6.164
 3137POPC   C1A41367  28.357   9.778   6.464
 3137POPC   D2A41368  28.378   9.773   6.764
 3137POPC   C3A41369  28.401   9.763   7.064
 3137POPC   C4A41370  28.414   9.789   7.364
 3137POPC   C1B41371  28.576   9.755   6.464
 3137POPC   C2B41372  28.658   9.751   6.764
 3137POPC   C3B41373  28.649   9.798   7.064
 3137POPC   C4B41374  28.576   9.823   7.364
 3138POPC   NC341375   1.202  19.070   5.564
 3138POPC   PO441376   1.234  19.094   5.864
 3138POPC   GL141377   1.231  19.081   6.164
 3138POPC   GL241378   1.118  19.046   6.164
 3138POPC   C1A41379   1.176  19.073   6.464
 3138POPC   D2A41380   1.229  19.053   6.764
 3138POPC   C3A41381   1.234  19.054   7.064
 3138POPC   C4A41382   1.230  19.063   7.364
 3138POPC   C1B41383   0.936  19.011   6.464
 3138POPC   C2B41384   0.991  18.989   6.764
 3138POPC   C3B41385   0.944  19.062   7.064
 3138POPC   C4B41386   0.919  19.007   7.364
 3139POPC   NC341387  23.676  16.763   5.564
 3139POPC   PO441388  23.707  16.708   5.864
 3139POPC   GL141389  23.722  16.756   6.164
 3139POPC   GL241390  23.845  16.764   6.164
 3139POPC   C1A41391  23.674  16.747   6.464
 3139POPC   D2A41392  23.668  16.708   6.764
 3139POPC   C3A41393  23.711  16.714   7.064
 3139POPC   C4A41394  23.693  16.720   7.364
 3139POPC   C1B41395  24.001  16.754   6.464
 3139POPC   C2B41396  23.934  16.746   6.764
 3139POPC   C3B41397  23.938  16.801   7.064
 3139POPC   C4B41398  23.969  16.758   7.364
 3140POPC   NC341399  15.982  15.983   5.564
 3140POPC   PO441400  15.935  15.960   5.864
 3140POPC   GL141401  15.914  15.997   6.164
 3140POPC   GL241402  15.978  15.859   6.164
 3140POPC   C1A41403  15.922  15.980   6.464
 3140POPC   D2A41404  15.916  15.940   6.764
 3140POPC   C3A41405  15.954  15.988   7.064
 3140POPC   C4A41406  15.906  16.003   7.364
 3140POPC   C1B41407  16.027  15.715   6.464
 3140POPC   C2B41408  16.053  15.700   6.764
 3140POPC   C3B41409  16.034  15.724   7.064
 3140POPC   C4B41410  16.042  15.773   7.364
 3141POPC   NC341411  33.789  40.053   5.564
 3141POPC   PO441412  33.771  39.967   5.864
 3141POPC   GL141413  33.774  40.046   6.164
 3141POPC   GL241414  33.727  40.108   6.164
 3141POPC   C1A41415  33.815  40.015   6.464
 3141POPC   D2A41416  33.814  39.988   6.764
 3141POPC   C3A41417  33.825  39.992   7.064
 3141POPC   C4A41418  33.811  39.975   7.364
 3141POPC   C1B41419  33.579  40.147   6.464
 3141POPC   C2B41420  33.614  40.160   6.764
 3141POPC   C3B41421  33.600  40.112   7.064
 3141POPC   C4B41422  33.547  40.088   7.364
 3142POPC   NC341423   5.101  22.176   5.564
 3142POPC   PO441424   5.082  22.135   5.864
 3142POPC   GL141425   5.124  22.145   6.164
 3142POPC   GL241426   5.234  22.205   6.164
 3142POPC   C1A41427   5.084  22.177   6.464
 3142POPC   D2A41428   5.066  22.158   6.764
 3142POPC   C3A41429   5.052  22.185   7.064
 3142POPC   C4A41430   5.072  22.147   7.364
 3142POPC   C1B41431   5.241  22.332   6.464
 3142POPC   C2B41432   5.299  22.334   6.764
 3142POPC   C3B41433   5.278  22.286   7.064
 3142POPC   C4B41434   5.303  22.331   7.364
 3143POPC   NC341435  16.693  34.573   5.564
 3143POPC   PO441436  16.734  34.573   5.864
 3143POPC   GL141437  16.781  34.612   6.164
 3143POPC   GL241438  16.818  34.588   6.164
 3143POPC   C1A41439  16.692  34.572   6.464
 3143POPC   D2A41440  16.772  34.600   6.764
 3143POPC   C3A41441  16.718  34.594   7.064
 3143POPC   C4A41442  16.756  34.544   7.364
 3143POPC   C1B41443  16.940  34.581   6.464
 3143POPC   C2B41444  16.984  34.618   6.764
 3143POPC   C3B41445  17.020  34.639   7.064
 3143POPC   C4B41446  16.975  34.606   7.364
 3144POPC   NC341447  29.881  12.028   5.564
 3144POPC   PO441448  29.944  12.118   5.864
 3144POPC   GL141449  29.918  12.104   6.164
 3144POPC   GL241450  30.016  12.162   6.164
 3144POPC   C1A41451  29.887  12.056   6.464
 3144POPC   D2A41452  29.934  12.077   6.764
 3144POPC   C3A41453  29.908  12.124   7.064
 3144POPC   C4A41454  29.913  12.092   7.364
 3144POPC   C1B41455  30.126  12.161   6.464
 3144POPC   C2B41456  30.159  12.224   6.764
 3144POPC   C3B41457  30.176  12.218   7.064
 3144POPC   C4B41458  30.125  12.146   7.364
 3145POPC   NC341459  28.416  44.619   5.564
 3145POPC   PO441460  28.414  44.684   5.864
 3145POPC   GL141461  28.410  44.675   6.164
 3145POPC   GL241462  28.254  44.667   6.164
 3145POPC   C1A41463  28.407  44.677   6.464
 3145POPC   D2A41464  28.322  44.671   6.764
 3145POPC   C3A41465  28.360  44.644   7.064
 3145POPC   C4A41466  28.361  44.661   7.364
 3145POPC   C1B41467  28.075  44.650   6.464
 3145POPC   C2B41468  28.133  44.689   6.764
 3145POPC   C3B41469  28.105  44.645   7.064
 3145POPC   C4B41470  28.101  44.676   7.364
 3146POPC   NC341471  39.221   9.016   5.564
 3146POPC   PO441472  39.242   8.953   5.864
 3146POPC   GL141473  39.197   9.000   6.164
 3146POPC   GL241474  39.162   8.905   6.164
 3146POPC   C1A41475  39.258   8.996   6.464
 3146POPC   D2A41476  39.225   8.925   6.764
 3146POPC   C3A41477  39.184   8.976   7.064
 3146POPC   C4A41478  39.240   8.987   7.364
 3146POPC   C1B41479  38.996   8.842   6.464
 3146POPC   C2B41480  38.999   8.856   6.764
 3146POPC   C3B41481  38.998   8.882   7.064
 3146POPC   C4B41482  39.018   8.907   7.364
 3147POPC   NC341483  26.076   3.550   5.564
 3147POPC   PO441484  25.996   3.521   5.864
 3147POPC   GL141485  26.045   3.543   6.164
 3147POPC   GL241486  25.993   3.389   6.164
 3147POPC   C1A41487  26.052   3.537   6.464
 3147POPC   D2A41488  26.025   3.522   6.764
 3147POPC   C3A41489  26.057   3.550   7.064
 3147POPC   C4A41490  26.066   3.558   7.364
 3147POPC   C1B41491  25.901   3.315   6.464
 3147POPC   C2B41492  25.972   3.346   6.764
 3147POPC   C3B41493  25.969   3.267   7.064
 3147POPC   C4B41494  25.979   3.335   7.364
 3148POPC   NC341495  39.966   2.747   5.564
 3148POPC   PO441496  40.033   2.760   5.864
 3148POPC   GL141497  39.996   2.800   6.164
 3148POPC   GL241498  40.078   2.720   6.164
 3148POPC   C1A41499  40.039   2.727   6.464
 3148POPC   D2A41500  39.985   2.721   6.764
 3148POPC   C3A41501  40.011   2.729   7.064
 3148POPC   C4A41502  40.035   2.790   7.364
 3148POPC   C1B41503  40.290   2.705   6.464
 3148POPC   C2B41504  40.250   2.673   6.764
 3148POPC   C3B41505  40.268   2.635   7.064
 3148POPC   C4B41506  40.202   2.669   7.364
 3149POPC   NC341507  30.735  22.134   5.564
 3149POPC   PO441508  30.647  22.194   5.864
 3149POPC   GL141509  30.710  22.132   6.164
 3149POPC   GL241510  30.837  22.110   6.164
 3149POPC   C1A41511  30.703  22.139   6.464
 3149POPC   D2A41512  30.718  22.140   6.764
 3149POPC   C3A41513  30.690  22.204   7.064
 3149POPC   C4A41514  30.721  22.175   7.364
 3149POPC   C1B41515  30.886  22.000   6.464
 3149POPC   C2B41516  30.896  22.046   6.764
 3149POPC   C3B41517  30.859  22.020   7.064
 3149POPC   C4B41518  30.887  22.003   7.364
 3150POPC   NC341519  24.489  41.516   5.564
 3150POPC   PO441520  24.472  41.520   5.864
 3150POPC   GL141521  24.468  41.529   6.164
 3150POPC   GL241522  24.383  41.534   6.164
 3150POPC   C1A41523  24.511  41.515   6.464
 3150POPC   D2A41524  24.456  41.599   6.764
 3150POPC   C3A41525  24.447  41.510   7.064
 3150POPC   C4A41526  24.528  41.576   7.364
 3150POPC   C1B41527  24.225  41.545   6.464
 3150POPC   C2B41528  24.210  41.546   6.764
 3150POPC   C3B41529  24.222  41.618   7.064
 3150POPC   C4B41530  24.244  41.585   7.364
 3151POPC   NC341531   5.137   1.991   5.564
 3151POPC   PO441532   5.121   1.962   5.864
 3151POPC   GL141533   5.092   1.966   6.164
 3151POPC   GL241534   5.002   1.866   6.164
 3151POPC   C1A41535   5.076   1.962   6.464
 3151POPC   D2A41536   5.142   2.028   6.764
 3151POPC   C3A41537   5.121   2.000   7.064
 3151POPC   C4A41538   5.085   1.995   7.364
 3151POPC   C1B41539   5.004   1.722   6.464
 3151POPC   C2B41540   4.947   1.806   6.764
 3151POPC   C3B41541   4.969   1.749   7.064
 3151POPC   C4B41542   4.931   1.754   7.364
 3152POPC   NC341543  41.602  41.573   5.564
 3152POPC   PO441544  41.526  41.537   5.864
 3152POPC   GL141545  41.551  41.525   6.164
 3152POPC   GL241546  41.416  41.497   6.164
 3152POPC   C1A41547  41.586  41.524   6.464
 3152POPC   D2A41548  41.557  41.555   6.764
 3152POPC   C3A41549  41.538  41.536   7.064
 3152POPC   C4A41550  41.526  41.522   7.364
 3152POPC   C1B41551  41.267  41.495   6.464
 3152POPC   C2B41552  41.294  41.546   6.764
 3152POPC   C3B41553  41.338  41.489   7.064
 3152POPC   C4B41554  41.287  41.475   7.364
 3153POPC   NC341555  17.536  22.975   5.564
 3153POPC   PO441556  17.545  22.946   5.864
 3153POPC   GL141557  17.500  22.923   6.164
 3153POPC   GL241558  17.635  22.811   6.164
 3153POPC   C1A41559  17.518  22.969   6.464
 3153POPC   D2A41560  17.459  22.917   6.764
 3153POPC   C3A41561  17.535  22.969   7.064
 3153POPC   C4A41562  17.489  22.908   7.364
 3153POPC   C1B41563  17.717  22.791   6.464
 3153POPC   C2B41564  17.723  22.789   6.764
 3153POPC   C3B41565  17.658  22.734   7.064
 3153POPC   C4B41566  17.665  22.742   7.364
 3154POPC   NC341567  38.476  20.640   5.564
 3154POPC   PO441568  38.447  20.652   5.864
 3154POPC   GL141569  38.447  20.656   6.164
 3154POPC   GL241570  38.508  20.518   6.164
 3154POPC   C1A41571  38.480  20.658   6.464
 3154POPC   D2A41572  38.471  20.631   6.764
 3154POPC   C3A41573  38.456  20.630   7.064
 3154POPC   C4A41574  38.475  20.642   7.364
 3154POPC   C1B41575  38.548  20.374   6.464
 3154POPC   C2B41576  38.554  20.420   6.764
 3154POPC   C3B41577  38.548  20.334   7.064
 3154POPC   C4B41578  38.484  20.330   7.364
 3155POPC   NC341579   5.090  16.780   5.564
 3155POPC   PO441580   5.100  16.689   5.864
 3155POPC   GL141581   5.082  16.729   6.164
 3155POPC   GL241582   5.225  16.815   6.164
 3155POPC   C1A41583   5.110  16.779   6.464
 3155POPC   D2A41584   5.084  16.764   6.764
 3155POPC   C3A41585   5.087  16.775   7.064
 3155POPC   C4A41586   5.065  16.685   7.364
 3155POPC   C1B41587   5.337  16.823   6.464
 3155POPC   C2B41588   5.336  16.784   6.764
 3155POPC   C3B41589   5.373  16.805   7.064
 3155POPC   C4B41590   5.354  16.800   7.364
 3156POPC   NC341591  19.015  26.040   5.564
 3156POPC   PO441592  19.029  26.085   5.864
 3156POPC   GL141593  19.036  26.029   6.164
 3156POPC   GL241594  19.127  26.136   6.164
 3156POPC   C1A41595  19.053  26.034   6.464
 3156POPC   D2A41596  19.053  26.083   6.764
 3156POPC   C3A41597  19.088  26.014   7.064
 3156POPC   C4A41598  19.088  26.018   7.364
 3156POPC   C1B41599  19.173  26.219   6.464
 3156POPC   C2B41600  19.164  26.214   6.764
 3156POPC   C3B41601  19.188  26.293   7.064
 3156POPC   C4B41602  19.214  26.278   7.364
 3157POPC   NC341603  43.158  33.834   5.564
 3157POPC   PO441604  43.083  33.819   5.864
 3157POPC   GL141605  43.066  33.800   6.164
 3157POPC   GL241606  43.076  33.651   6.164
 3157POPC   C1A41607  43.123  33.831   6.464
 3157POPC   D2A41608  43.096  33.848   6.764
 3157POPC   C3A41609  43.087  33.819   7.064
 3157POPC   C4A41610  43.121  33.769   7.364
 3157POPC   C1B41611  42.983  33.548   6.464
 3157POPC   C2B41612  43.008  33.601   6.764
 3157POPC   C3B41613  43.054  33.538   7.064
 3157POPC   C4B41614  43.009  33.549   7.364
 3158POPC   NC341615   8.202  44.666   5.564
 3158POPC   PO441616   8.214  44.617   5.864
 3158POPC   GL141617   8.159  44.677   6.164
 3158POPC   GL241618   8.361  44.610   6.164
 3158POPC   C1A41619   8.155  44.655   6.464
 3158POPC   D2A41620   8.223  44.653   6.764
 3158POPC   C3A41621   8.183  44.617   7.064
 3158POPC   C4A41622   8.196  44.619   7.364
 3158POPC   C1B41623   8.453  44.603   6.464
 3158POPC   C2B41624   8.485  44.606   6.764
 3158POPC   C3B41625   8.435  44.677   7.064
 3158POPC   C4B41626   8.494  44.677   7.364
 3159POPC   NC341627   9.791  43.904   5.564
 3159POPC   PO441628   9.777  43.916   5.864
 3159POPC   GL141629   9.769  43.936   6.164
 3159POPC   GL241630   9.612  43.949   6.164
 3159POPC   C1A41631   9.789  43.855   6.464
 3159POPC   D2A41632   9.704  43.880   6.764
 3159POPC   C3A41633   9.737  43.924   7.064
 3159POPC   C4A41634   9.785  43.889   7.364
 3159POPC   C1B41635   9.553  44.024   6.464
 3159POPC   C2B41636   9.573  43.960   6.764
 3159POPC   C3B41637   9.561  43.982   7.064
 3159POPC   C4B41638   9.569  44.040   7.364
 3160POPC   NC341639   4.366  29.188   5.564
 3160POPC   PO441640   4.347  29.119   5.864
 3160POPC   GL141641   4.356  29.096   6.164
 3160POPC   GL241642   4.405  29.202   6.164
 3160POPC   C1A41643   4.308  29.131   6.464
 3160POPC   D2A41644   4.277  29.148   6.764
 3160POPC   C3A41645   4.274  29.153   7.064
 3160POPC   C4A41646   4.364  29.159   7.364
 3160POPC   C1B41647   4.459  29.361   6.464
 3160POPC   C2B41648   4.475  29.318   6.764
 3160POPC   C3B41649   4.469  29.365   7.064
 3160POPC   C4B41650   4.499  29.329   7.364
 3161POPC   NC341651  38.410  33.047   5.564
 3161POPC   PO441652  38.484  33.018   5.864
 3161POPC   GL141653  38.498  33.036   6.164
 3161POPC   GL241654  38.544  32.917   6.164
 3161POPC   C1A41655  38.427  33.059   6.464
 3161POPC   D2A41656  38.495  33.006   6.764
 3161POPC   C3A41657  38.419  33.069   7.064
 3161POPC   C4A41658  38.419  33.074   7.364
 3161POPC   C1B41659  38.679  32.892   6.464
 3161POPC   C2B41660  38.680  32.871   6.764
 3161POPC   C3B41661  38.629  32.839   7.064
 3161POPC   C4B41662  38.635  32.839   7.364
 3162POPC   NC341663  30.743  36.928   5.564
 3162POPC   PO441664  30.695  36.952   5.864
 3162POPC   GL141665  30.683  36.913   6.164
 3162POPC   GL241666  30.646  36.847   6.164
 3162POPC   C1A41667  30.732  36.878   6.464
 3162POPC   D2A41668  30.663  36.863   6.764
 3162POPC   C3A41669  30.680  36.924   7.064
 3162POPC   C4A41670  30.693  36.931   7.364
 3162POPC   C1B41671  30.540  36.733   6.464
 3162POPC   C2B41672  30.607  36.696   6.764
 3162POPC   C3B41673  30.608  36.665   7.064
 3162POPC   C4B41674  30.572  36.702   7.364
 3163POPC   NC341675   0.457  36.113   5.564
 3163POPC   PO441676   0.436  36.097   5.864
 3163POPC   GL141677   0.411  36.119   6.164
 3163POPC   GL241678   0.280  36.067   6.164
 3163POPC   C1A41679   0.436  36.128   6.464
 3163POPC   D2A41680   0.453  36.124   6.764
 3163POPC   C3A41681   0.412  36.147   7.064
 3163POPC   C4A41682   0.463  36.153   7.364
 3163POPC   C1B41683   0.203  35.985   6.464
 3163POPC   C2B41684   0.193  35.994   6.764
 3163POPC   C3B41685   0.243  36.023   7.064
 3163POPC   C4B41686   0.251  36.022   7.364
 3164POPC   NC341687   3.546   4.331   5.564
 3164POPC   PO441688   3.542   4.312   5.864
 3164POPC   GL141689   3.588   4.304   6.164
 3164POPC   GL241690   3.624   4.373   6.164
 3164POPC   C1A41691   3.577   4.330   6.464
 3164POPC   D2A41692   3.535   4.279   6.764
 3164POPC   C3A41693   3.509   4.324   7.064
 3164POPC   C4A41694   3.505   4.303   7.364
 3164POPC   C1B41695   3.763   4.370   6.464
 3164POPC   C2B41696   3.734   4.395   6.764
 3164POPC   C3B41697   3.757   4.405   7.064
 3164POPC   C4B41698   3.789   4.384   7.364
 3165POPC   NC341699  42.318  43.856   5.564
 3165POPC   PO441700  42.315  43.916   5.864
 3165POPC   GL141701  42.361  43.848   6.164
 3165POPC   GL241702  42.463  43.834   6.164
 3165POPC   C1A41703  42.307  43.870   6.464
 3165POPC   D2A41704  42.327  43.922   6.764
 3165POPC   C3A41705  42.357  43.926   7.064
 3165POPC   C4A41706  42.372  43.874   7.364
 3165POPC   C1B41707  42.544  43.809   6.464
 3165POPC   C2B41708  42.550  43.874   6.764
 3165POPC   C3B41709  42.558  43.848   7.064
 3165POPC   C4B41710  42.627  43.861   7.364
 3166POPC   NC341711   1.180  42.324   5.564
 3166POPC   PO441712   1.191  42.345   5.864
 3166POPC   GL141713   1.244  42.325   6.164
 3166POPC   GL241714   1.334  42.229   6.164
 3166POPC   C1A41715   1.235  42.353   6.464
 3166POPC   D2A41716   1.250  42.285   6.764
 3166POPC   C3A41717   1.188  42.354   7.064
 3166POPC   C4A41718   1.229  42.336   7.364
 3166POPC   C1B41719   1.367  42.180   6.464
 3166POPC   C2B41720   1.385  42.096   6.764
 3166POPC   C3B41721   1.393  42.155   7.064
 3166POPC   C4B41722   1.362  42.127   7.364
 3167POPC   NC341723  11.320  32.292   5.564
 3167POPC   PO441724  11.299  32.261   5.864
 3167POPC   GL141725  11.288  32.206   6.164
 3167POPC   GL241726  11.409  32.251   6.164
 3167POPC   C1A41727  11.349  32.273   6.464
 3167POPC   D2A41728  11.257  32.252   6.764
 3167POPC   C3A41729  11.268  32.270   7.064
 3167POPC   C4A41730  11.337  32.246   7.364
 3167POPC   C1B41731  11.483  32.134   6.464
 3167POPC   C2B41732  11.508  32.150   6.764
 3167POPC   C3B41733  11.488  32.119   7.064
 3167POPC   C4B41734  11.488  32.121   7.364
 3168POPC   NC341735   1.259  43.853   5.564
 3168POPC   PO441736   1.168  43.935   5.864
 3168POPC   GL141737   1.199  43.844   6.164
 3168POPC   GL241738   1.262  43.987   6.164
 3168POPC   C1A41739   1.261  43.920   6.464
 3168POPC   D2A41740   1.164  43.855   6.764
 3168POPC   C3A41741   1.221  43.897   7.064
 3168POPC   C4A41742   1.187  43.906   7.364
 3168POPC   C1B41743   1.304  44.078   6.464
 3168POPC   C2B41744   1.373  44.150   6.764
 3168POPC   C3B41745   1.284  44.102   7.064
 3168POPC   C4B41746   1.335  44.116   7.364
 3169POPC   NC341747   2.757  19.859   5.564
 3169POPC   PO441748   2.724  19.833   5.864
 3169POPC   GL141749   2.791  19.795   6.164
 3169POPC   GL241750   2.871  19.796   6.164
 3169POPC   C1A41751   2.730  19.787   6.464
 3169POPC   D2A41752   2.798  19.839   6.764
 3169POPC   C3A41753   2.797  19.874   7.064
 3169POPC   C4A41754   2.737  19.868   7.364
 3169POPC   C1B41755   2.984  19.739   6.464
 3169POPC   C2B41756   2.999  19.690   6.764
 3169POPC   C3B41757   2.941  19.698   7.064
 3169POPC   C4B41758   2.974  19.656   7.364
 3170POPC   NC341759  22.169  36.145   5.564
 3170POPC   PO441760  22.163  36.118   5.864
 3170POPC   GL141761  22.159  36.110   6.164
 3170POPC   GL241762  22.099  35.980   6.164
 3170POPC   C1A41763  22.193  36.143   6.464
 3170POPC   D2A41764  22.132  36.127   6.764
 3170POPC   C3A41765  22.132  36.171   7.064
 3170POPC   C4A41766  22.146  36.114   7.364
 3170POPC   C1B41767  22.154  35.919   6.464
 3170POPC   C2B41768  22.151  35.879   6.764
 3170POPC   C3B41769  22.092  35.926   7.064
 3170POPC   C4B41770  22.147  35.889   7.364
 3171POPC   NC341771  28.407  37.716   5.564
 3171POPC   PO441772  28.342  37.669   5.864
 3171POPC   GL141773  28.364  37.686   6.164
 3171POPC   GL241774  28.334  37.778   6.164
 3171POPC   C1A41775  28.374  37.727   6.464
 3171POPC   D2A41776  28.383  37.677   6.764
 3171POPC   C3A41777  28.417  37.642   7.064
 3171POPC   C4A41778  28.399  37.728   7.364
 3171POPC   C1B41779  28.417  37.922   6.464
 3171POPC   C2B41780  28.441  37.959   6.764
 3171POPC   C3B41781  28.433  37.975   7.064
 3171POPC   C4B41782  28.385  37.955   7.364
 3172POPC   NC341783  24.478  35.384   5.564
 3172POPC   PO441784  24.520  35.377   5.864
 3172POPC   GL141785  24.528  35.320   6.164
 3172POPC   GL241786  24.544  35.468   6.164
 3172POPC   C1A41787  24.538  35.367   6.464
 3172POPC   D2A41788  24.454  35.331   6.764
 3172POPC   C3A41789  24.463  35.304   7.064
 3172POPC   C4A41790  24.467  35.358   7.364
 3172POPC   C1B41791  24.696  35.485   6.464
 3172POPC   C2B41792  24.653  35.537   6.764
 3172POPC   C3B41793  24.638  35.477   7.064
 3172POPC   C4B41794  24.653  35.476   7.364
 3173POPC   NC341795  12.814  19.803   5.564
 3173POPC   PO441796  12.888  19.814   5.864
 3173POPC   GL141797  12.842  19.802   6.164
 3173POPC   GL241798  12.734  19.872   6.164
 3173POPC   C1A41799  12.886  19.836   6.464
 3173POPC   D2A41800  12.890  19.872   6.764
 3173POPC   C3A41801  12.855  19.815   7.064
 3173POPC   C4A41802  12.850  19.804   7.364
 3173POPC   C1B41803  12.644  19.889   6.464
 3173POPC   C2B41804  12.642  19.942   6.764
 3173POPC   C3B41805  12.639  19.877   7.064
 3173POPC   C4B41806  12.591  19.907   7.364
 3174POPC   NC341807  36.111  30.688   5.564
 3174POPC   PO441808  36.123  30.704   5.864
 3174POPC   GL141809  36.089  30.722   6.164
 3174POPC   GL241810  36.282  30.671   6.164
 3174POPC   C1A41811  36.155  30.652   6.464
 3174POPC   D2A41812  36.098  30.678   6.764
 3174POPC   C3A41813  36.126  30.723   7.064
 3174POPC   C4A41814  36.160  30.696   7.364
 3174POPC   C1B41815  36.390  30.577   6.464
 3174POPC   C2B41816  36.297  30.543   6.764
 3174POPC   C3B41817  36.320  30.557   7.064
 3174POPC   C4B41818  36.333  30.588   7.364
 3175POPC   NC341819  23.712  32.992   5.564
 3175POPC   PO441820  23.698  33.025   5.864
 3175POPC   GL141821  23.743  32.990   6.164
 3175POPC   GL241822  23.636  32.875   6.164
 3175POPC   C1A41823  23.697  32.986   6.464
 3175POPC   D2A41824  23.735  33.050   6.764
 3175POPC   C3A41825  23.751  33.042   7.064
 3175POPC   C4A41826  23.751  32.984   7.364
 3175POPC   C1B41827  23.618  32.761   6.464
 3175POPC   C2B41828  23.635  32.792   6.764
 3175POPC   C3B41829  23.594  32.836   7.064
 3175POPC   C4B41830  23.611  32.809   7.364
 3176POPC   NC341831  43.863  20.612   5.564
 3176POPC   PO441832  43.901  20.577   5.864
 3176POPC   GL141833  43.884  20.657   6.164
 3176POPC   GL241834  44.042  20.650   6.164
 3176POPC   C1A41835  43.928  20.567   6.464
 3176POPC   D2A41836  43.872  20.583   6.764
 3176POPC   C3A41837  43.910  20.603   7.064
 3176POPC   C4A41838  43.864  20.652   7.364
 3176POPC   C1B41839  44.100  20.666   6.464
 3176POPC   C2B41840  44.111  20.725   6.764
 3176POPC   C3B41841  44.138  20.688   7.064
 3176POPC   C4B41842  44.086  20.734   7.364
 3177POPC   NC341843  25.244  27.584   5.564
 3177POPC   PO441844  25.258  27.598   5.864
 3177POPC   GL141845  25.224  27.560   6.164
 3177POPC   GL241846  25.376  27.724   6.164
 3177POPC   C1A41847  25.220  27.607   6.464
 3177POPC   D2A41848  25.262  27.559   6.764
 3177POPC   C3A41849  25.216  27.565   7.064
 3177POPC   C4A41850  25.307  27.558   7.364
 3177POPC   C1B41851  25.426  27.829   6.464
 3177POPC   C2B41852  25.429  27.805   6.764
 3177POPC   C3B41853  25.392  27.834   7.064
 3177POPC   C4B41854  25.402  27.813   7.364
 3178POPC   NC341855  19.812  16.704   5.564
 3178POPC   PO441856  19.847  16.733   5.864
 3178POPC   GL141857  19.880  16.726   6.164
 3178POPC   GL241858  19.992  16.785   6.164
 3178POPC   C1A41859  19.873  16.744   6.464
 3178POPC   D2A41860  19.823  16.732   6.764
 3178POPC   C3A41861  19.879  16.742   7.064
 3178POPC   C4A41862  19.799  16.780   7.364
 3178POPC   C1B41863  20.056  16.839   6.464
 3178POPC   C2B41864  20.042  16.819   6.764
 3178POPC   C3B41865  20.044  16.871   7.064
 3178POPC   C4B41866  20.069  16.836   7.364
 3179POPC   NC341867   8.994  43.929   5.564
 3179POPC   PO441868   8.931  43.918   5.864
 3179POPC   GL141869   8.930  43.918   6.164
 3179POPC   GL241870   9.141  43.917   6.164
 3179POPC   C1A41871   8.942  43.853   6.464
 3179POPC   D2A41872   9.008  43.919   6.764
 3179POPC   C3A41873   9.021  43.906   7.064
 3179POPC   C4A41874   8.944  43.920   7.364
 3179POPC   C1B41875   9.176  43.888   6.464
 3179POPC   C2B41876   9.195  43.941   6.764
 3179POPC   C3B41877   9.184  43.895   7.064
 3179POPC   C4B41878   9.176  43.857   7.364
 3180POPC   NC341879  40.744   7.462   5.564
 3180POPC   PO441880  40.792   7.459   5.864
 3180POPC   GL141881  40.746   7.399   6.164
 3180POPC   GL241882  40.764   7.289   6.164
 3180POPC   C1A41883  40.791   7.392   6.464
 3180POPC   D2A41884  40.796   7.449   6.764
 3180POPC   C3A41885  40.809   7.406   7.064
 3180POPC   C4A41886  40.754   7.397   7.364
 3180POPC   C1B41887  40.794   7.188   6.464
 3180POPC   C2B41888  40.827   7.204   6.764
 3180POPC   C3B41889  40.778   7.178   7.064
 3180POPC   C4B41890  40.833   7.130   7.364
 3181POPC   NC341891  22.972   1.244   5.564
 3181POPC   PO441892  22.928   1.222   5.864
 3181POPC   GL141893  22.914   1.238   6.164
 3181POPC   GL241894  22.888   1.118   6.164
 3181POPC   C1A41895  22.954   1.182   6.464
 3181POPC   D2A41896  22.975   1.245   6.764
 3181POPC   C3A41897  22.962   1.196   7.064
 3181POPC   C4A41898  22.976   1.198   7.364
 3181POPC   C1B41899  22.753   1.082   6.464
 3181POPC   C2B41900  22.740   1.051   6.764
 3181POPC   C3B41901  22.807   1.027   7.064
 3181POPC   C4B41902  22.756   0.987   7.364
 3182POPC   NC341903   9.754   1.977   5.564
 3182POPC   PO441904   9.760   1.993   5.864
 3182POPC   GL141905   9.712   1.962   6.164
 3182POPC   GL241906   9.861   2.019   6.164
 3182POPC   C1A41907   9.730   1.942   6.464
 3182POPC   D2A41908   9.712   1.977   6.764
 3182POPC   C3A41909   9.710   1.944   7.064
 3182POPC   C4A41910   9.764   2.037   7.364
 3182POPC   C1B41911   9.971   2.000   6.464
 3182POPC   C2B41912  10.018   1.975   6.764
 3182POPC   C3B41913  10.043   2.057   7.064
 3182POPC   C4B41914  10.030   2.052   7.364
 3183POPC   NC341915  13.654   1.972   5.564
 3183POPC   PO441916  13.586   2.004   5.864
 3183POPC   GL141917  13.656   2.029   6.164
 3183POPC   GL241918  13.660   2.089   6.164
 3183POPC   C1A41919  13.671   1.980   6.464
 3183POPC   D2A41920  13.624   1.958   6.764
 3183POPC   C3A41921  13.660   1.988   7.064
 3183POPC   C4A41922  13.668   2.013   7.364
 3183POPC   C1B41923  13.820   2.211   6.464
 3183POPC   C2B41924  13.773   2.210   6.764
 3183POPC   C3B41925  13.794   2.206   7.064
 3183POPC   C4B41926  13.775   2.161   7.364
 3184POPC   NC341927  27.630  34.551   5.564
 3184POPC   PO441928  27.583  34.540   5.864
 3184POPC   GL141929  27.622  34.568   6.164
 3184POPC   GL241930  27.479  34.517   6.164
 3184POPC   C1A41931  27.602  34.577   6.464
 3184POPC   D2A41932  27.630  34.548   6.764
 3184POPC   C3A41933  27.586  34.579   7.064
 3184POPC   C4A41934  27.554  34.588   7.364
 3184POPC   C1B41935  27.398  34.409   6.464
 3184POPC   C2B41936  27.436  34.414   6.764
 3184POPC   C3B41937  27.406  34.358   7.064
 3184POPC   C4B41938  27.434  34.395   7.364
 3185POPC   NC341939   6.645  42.374   5.564
 3185POPC   PO441940   6.679  42.377   5.864
 3185POPC   GL141941   6.662  42.384   6.164
 3185POPC   GL241942   6.801  42.284   6.164
 3185POPC   C1A41943   6.599  42.367   6.464
 3185POPC   D2A41944   6.608  42.361   6.764
 3185POPC   C3A41945   6.667  42.298   7.064
 3185POPC   C4A41946   6.642  42.359   7.364
 3185POPC   C1B41947   6.904  42.301   6.464
 3185POPC   C2B41948   6.943  42.335   6.764
 3185POPC   C3B41949   6.893  42.285   7.064
 3185POPC   C4B41950   6.932  42.361   7.364
 3186POPC   NC341951  33.763   6.659   5.564
 3186POPC   PO441952  33.793   6.693   5.864
 3186POPC   GL141953  33.810   6.664   6.164
 3186POPC   GL241954  33.782   6.763   6.164
 3186POPC   C1A41955  33.828   6.620   6.464
 3186POPC   D2A41956  33.809   6.684   6.764
 3186POPC   C3A41957  33.782   6.606   7.064
 3186POPC   C4A41958  33.788   6.632   7.364
 3186POPC   C1B41959  33.836   6.873   6.464
 3186POPC   C2B41960  33.887   6.907   6.764
 3186POPC   C3B41961  33.837   6.905   7.064
 3186POPC   C4B41962  33.870   6.876   7.364
 3187POPC   NC341963  11.267   5.094   5.564
 3187POPC   PO441964  11.306   5.138   5.864
 3187POPC   GL141965  11.324   5.101   6.164
 3187POPC   GL241966  11.156   4.974   6.164
 3187POPC   C1A41967  11.313   5.074   6.464
 3187POPC   D2A41968  11.297   5.125   6.764
 3187POPC   C3A41969  11.338   5.090   7.064
 3187POPC   C4A41970  11.301   5.064   7.364
 3187POPC   C1B41971  11.078   4.963   6.464
 3187POPC   C2B41972  11.047   4.973   6.764
 3187POPC   C3B41973  11.100   4.982   7.064
 3187POPC   C4B41974  11.062   4.971   7.364
 3188POPC   NC341975  12.110  12.832   5.564
 3188POPC   PO441976  12.098  12.873   5.864
 3188POPC   GL141977  12.092  12.879   6.164
 3188POPC   GL241978  12.072  12.757   6.164
 3188POPC   C1A41979  12.075  12.807   6.464
 3188POPC   D2A41980  12.115  12.859   6.764
 3188POPC   C3A41981  12.113  12.882   7.064
 3188POPC   C4A41982  12.042  12.834   7.364
 3188POPC   C1B41983  12.005  12.651   6.464
 3188POPC   C2B41984  12.027  12.579   6.764
 3188POPC   C3B41985  12.053  12.567   7.064
 3188POPC   C4B41986  12.018  12.618   7.364
 3189POPC   NC341987  12.880  32.226   5.564
 3189POPC   PO441988  12.860  32.270   5.864
 3189POPC   GL141989  12.862  32.248   6.164
 3189POPC   GL241990  12.776  32.205   6.164
 3189POPC   C1A41991  12.896  32.254   6.464
 3189POPC   D2A41992  12.853  32.251   6.764
 3189POPC   C3A41993  12.829  32.202   7.064
 3189POPC   C4A41994  12.889  32.203   7.364
 3189POPC   C1B41995  12.670  32.133   6.464
 3189POPC   C2B41996  12.654  32.123   6.764
 3189POPC   C3B41997  12.619  32.104   7.064
 3189POPC   C4B41998  12.616  32.152   7.364
 3190POPC   NC341999  41.559  21.423   5.564
 3190POPC   PO442000  41.592  21.430   5.864
 3190POPC   GL142001  41.592  21.386   6.164
 3190POPC   GL242002  41.529  21.266   6.164
 3190POPC   C1A42003  41.585  21.426   6.464
 3190POPC   D2A42004  41.514  21.409   6.764
 3190POPC   C3A42005  41.537  21.400   7.064
 3190POPC   C4A42006  41.557  21.408   7.364
 3190POPC   C1B42007  41.459  21.154   6.464
 3190POPC   C2B42008  41.477  21.116   6.764
 3190POPC   C3B42009  41.469  21.200   7.064
 3190POPC   C4B42010  41.429  21.163   7.364
 3191POPC   NC342011  36.133  19.046   5.564
 3191POPC   PO442012  36.099  19.090   5.864
 3191POPC   GL142013  36.084  19.051   6.164
 3191POPC   GL242014  36.032  19.018   6.164
 3191POPC   C1A42015  36.126  19.028   6.464
 3191POPC   D2A42016  36.096  19.059   6.764
 3191POPC   C3A42017  36.084  19.012   7.064
 3191POPC   C4A42018  36.153  19.106   7.364
 3191POPC   C1B42019  35.903  18.963   6.464
 3191POPC   C2B42020  35.959  18.939   6.764
 3191POPC   C3B42021  35.931  18.970   7.064
 3191POPC   C4B42022  35.888  18.967   7.364
 3192POPC   NC342023  19.074  39.259   5.564
 3192POPC   PO442024  19.097  39.196   5.864
 3192POPC   GL142025  19.070  39.218   6.164
 3192POPC   GL242026  19.104  39.305   6.164
 3192POPC   C1A42027  19.069  39.239   6.464
 3192POPC   D2A42028  19.025  39.208   6.764
 3192POPC   C3A42029  19.105  39.221   7.064
 3192POPC   C4A42030  19.060  39.234   7.364
 3192POPC   C1B42031  19.190  39.495   6.464
 3192POPC   C2B42032  19.217  39.473   6.764
 3192POPC   C3B42033  19.129  39.442   7.064
 3192POPC   C4B42034  19.130  39.451   7.364
 3193POPC   NC342035  41.545  31.519   5.564
 3193POPC   PO442036  41.560  31.521   5.864
 3193POPC   GL142037  41.523  31.425   6.164
 3193POPC   GL242038  41.634  31.465   6.164
 3193POPC   C1A42039  41.551  31.491   6.464
 3193POPC   D2A42040  41.567  31.485   6.764
 3193POPC   C3A42041  41.549  31.496   7.064
 3193POPC   C4A42042  41.602  31.472   7.364
 3193POPC   C1B42043  41.762  31.429   6.464
 3193POPC   C2B42044  41.806  31.436   6.764
 3193POPC   C3B42045  41.782  31.450   7.064
 3193POPC   C4B42046  41.771  31.444   7.364
 3194POPC   NC342047  10.520  36.157   5.564
 3194POPC   PO442048  10.481  36.170   5.864
 3194POPC   GL142049  10.519  36.092   6.164
 3194POPC   GL242050  10.533  35.978   6.164
 3194POPC   C1A42051  10.518  36.108   6.464
 3194POPC   D2A42052  10.483  36.112   6.764
 3194POPC   C3A42053  10.574  36.140   7.064
 3194POPC   C4A42054  10.555  36.172   7.364
 3194POPC   C1B42055  10.579  35.860   6.464
 3194POPC   C2B42056  10.606  35.898   6.764
 3194POPC   C3B42057  10.643  35.859   7.064
 3194POPC   C4B42058  10.629  35.847   7.364
 3195POPC   NC342059  12.123  27.569   5.564
 3195POPC   PO442060  12.088  27.553   5.864
 3195POPC   GL142061  12.117  27.627   6.164
 3195POPC   GL242062  12.019  27.723   6.164
 3195POPC   C1A42063  12.125  27.584   6.464
 3195POPC   D2A42064  12.106  27.583   6.764
 3195POPC   C3A42065  12.084  27.566   7.064
 3195POPC   C4A42066  12.057  27.630   7.364
 3195POPC   C1B42067  11.872  27.760   6.464
 3195POPC   C2B42068  11.876  27.772   6.764
 3195POPC   C3B42069  11.871  27.800   7.064
 3195POPC   C4B42070  11.947  27.817   7.364
 3196POPC   NC342071  43.145  29.921   5.564
 3196POPC   PO442072  43.071  29.963   5.864
 3196POPC   GL142073  43.141  29.902   6.164
 3196POPC   GL242074  43.015  29.869   6.164
 3196POPC   C1A42075  43.120  29.958   6.464
 3196POPC   D2A42076  43.103  29.950   6.764
 3196POPC   C3A42077  43.084  29.926   7.064
 3196POPC   C4A42078  43.103  29.946   7.364
 3196POPC   C1B42079  42.912  29.826   6.464
 3196POPC   C2B42080  42.868  29.797   6.764
 3196POPC   C3B42081  42.909  29.778   7.064
 3196POPC   C4B42082  42.879  29.753   7.364
 3197POPC   NC342083  32.993   6.659   5.564
 3197POPC   PO442084  33.048   6.602   5.864
 3197POPC   GL142085  33.004   6.671   6.164
 3197POPC   GL242086  33.184   6.590   6.164
 3197POPC   C1A42087  33.048   6.620   6.464
 3197POPC   D2A42088  33.014   6.611   6.764
 3197POPC   C3A42089  33.050   6.613   7.064
 3197POPC   C4A42090  32.976   6.694   7.364
 3197POPC   C1B42091  33.314   6.607   6.464
 3197POPC   C2B42092  33.271   6.625   6.764
 3197POPC   C3B42093  33.297   6.637   7.064
 3197POPC   C4B42094  33.252   6.574   7.364
 3198POPC   NC342095  27.566  25.292   5.564
 3198POPC   PO442096  27.625  25.247   5.864
 3198POPC   GL142097  27.570  25.220   6.164
 3198POPC   GL242098  27.572  25.113   6.164
 3198POPC   C1A42099  27.544  25.283   6.464
 3198POPC   D2A42100  27.556  25.307   6.764
 3198POPC   C3A42101  27.603  25.271   7.064
 3198POPC   C4A42102  27.544  25.306   7.364
 3198POPC   C1B42103  27.567  25.039   6.464
 3198POPC   C2B42104  27.562  25.011   6.764
 3198POPC   C3B42105  27.561  25.041   7.064
 3198POPC   C4B42106  27.615  24.997   7.364
 3199POPC   NC342107  34.533  12.047   5.564
 3199POPC   PO442108  34.616  12.050   5.864
 3199POPC   GL142109  34.581  12.119   6.164
 3199POPC   GL242110  34.506  12.040   6.164
 3199POPC   C1A42111  34.573  12.116   6.464
 3199POPC   D2A42112  34.599  12.103   6.764
 3199POPC   C3A42113  34.603  12.112   7.064
 3199POPC   C4A42114  34.543  12.036   7.364
 3199POPC   C1B42115  34.377  11.880   6.464
 3199POPC   C2B42116  34.404  11.882   6.764
 3199POPC   C3B42117  34.360  11.942   7.064
 3199POPC   C4B42118  34.422  11.938   7.364
 3200POPC   NC342119   5.881  17.525   5.564
 3200POPC   PO442120   5.909  17.491   5.864
 3200POPC   GL142121   5.843  17.472   6.164
 3200POPC   GL242122   5.807  17.423   6.164
 3200POPC   C1A42123   5.887  17.499   6.464
 3200POPC   D2A42124   5.888  17.511   6.764
 3200POPC   C3A42125   5.885  17.469   7.064
 3200POPC   C4A42126   5.901  17.490   7.364
 3200POPC   C1B42127   5.795  17.222   6.464
 3200POPC   C2B42128   5.859  17.215   6.764
 3200POPC   C3B42129   5.787  17.245   7.064
 3200POPC   C4B42130   5.801  17.244   7.364
 3201POPC   NC342131  34.605  43.125   5.564
 3201POPC   PO442132  34.536  43.152   5.864
 3201POPC   GL142133  34.544  43.124   6.164
 3201POPC   GL242134  34.405  43.118   6.164
 3201POPC   C1A42135  34.529  43.079   6.464
 3201POPC   D2A42136  34.553  43.133   6.764
 3201POPC   C3A42137  34.575  43.152   7.064
 3201POPC   C4A42138  34.552  43.070   7.364
 3201POPC   C1B42139  34.362  43.100   6.464
 3201POPC   C2B42140  34.331  43.106   6.764
 3201POPC   C3B42141  34.305  43.103   7.064
 3201POPC   C4B42142  34.286  43.061   7.364
 3202POPC   NC342143   5.895  12.108   5.564
 3202POPC   PO442144   5.895  12.054   5.864
 3202POPC   GL142145   5.887  12.110   6.164
 3202POPC   GL242146   5.940  12.045   6.164
 3202POPC   C1A42147   5.858  12.075   6.464
 3202POPC   D2A42148   5.869  12.056   6.764
 3202POPC   C3A42149   5.840  12.041   7.064
 3202POPC   C4A42150   5.896  12.087   7.364
 3202POPC   C1B42151   6.112  11.963   6.464
 3202POPC   C2B42152   6.109  11.986   6.764
 3202POPC   C3B42153   6.117  11.916   7.064
 3202POPC   C4B42154   6.043  11.931   7.364
 3203POPC   NC342155  36.864  16.749   5.564
 3203POPC   PO442156  36.877  16.763   5.864
 3203POPC   GL142157  36.908  16.715   6.164
 3203POPC   GL242158  36.786  16.751   6.164
 3203POPC   C1A42159  36.914  16.769   6.464
 3203POPC   D2A42160  36.953  16.769   6.764
 3203POPC   C3A42161  36.859  16.754   7.064
 3203POPC   C4A42162  36.906  16.775   7.364
 3203POPC   C1B42163  36.632  16.687   6.464
 3203POPC   C2B42164  36.623  16.678   6.764
 3203POPC   C3B42165  36.661  16.689   7.064
 3203POPC   C4B42166  36.695  16.688   7.364
 3204POPC   NC342167  29.924  19.103   5.564
 3204POPC   PO442168  29.923  19.054   5.864
 3204POPC   GL142169  29.923  19.028   6.164
 3204POPC   GL242170  29.903  18.965   6.164
 3204POPC   C1A42171  29.950  19.011   6.464
 3204POPC   D2A42172  29.946  19.043   6.764
 3204POPC   C3A42173  29.906  19.028   7.064
 3204POPC   C4A42174  29.903  19.099   7.364
 3204POPC   C1B42175  29.933  18.780   6.464
 3204POPC   C2B42176  29.933  18.794   6.764
 3204POPC   C3B42177  29.940  18.837   7.064
 3204POPC   C4B42178  29.973  18.807   7.364
 3205POPC   NC342179  37.708  17.492   5.564
 3205POPC   PO442180  37.724  17.540   5.864
 3205POPC   GL142181  37.723  17.484   6.164
 3205POPC   GL242182  37.763  17.422   6.164
 3205POPC   C1A42183  37.638  17.526   6.464
 3205POPC   D2A42184  37.648  17.469   6.764
 3205POPC   C3A42185  37.632  17.498   7.064
 3205POPC   C4A42186  37.715  17.474   7.364
 3205POPC   C1B42187  37.838  17.401   6.464
 3205POPC   C2B42188  37.920  17.360   6.764
 3205POPC   C3B42189  37.906  17.369   7.064
 3205POPC   C4B42190  37.879  17.336   7.364
 3206POPC   NC342191  32.254  38.444   5.564
 3206POPC   PO442192  32.215  38.504   5.864
 3206POPC   GL142193  32.234  38.503   6.164
 3206POPC   GL242194  32.189  38.376   6.164
 3206POPC   C1A42195  32.203  38.415   6.464
 3206POPC   D2A42196  32.209  38.479   6.764
 3206POPC   C3A42197  32.287  38.432   7.064
 3206POPC   C4A42198  32.206  38.473   7.364
 3206POPC   C1B42199  32.074  38.265   6.464
 3206POPC   C2B42200  32.076  38.247   6.764
 3206POPC   C3B42201  32.102  38.222   7.064
 3206POPC   C4B42202  32.141  38.276   7.364
 3207POPC   NC342203   6.601   3.503   5.564
 3207POPC   PO442204   6.669   3.579   5.864
 3207POPC   GL142205   6.669   3.497   6.164
 3207POPC   GL242206   6.655   3.401   6.164
 3207POPC   C1A42207   6.597   3.544   6.464
 3207POPC   D2A42208   6.619   3.539   6.764
 3207POPC   C3A42209   6.675   3.563   7.064
 3207POPC   C4A42210   6.674   3.515   7.364
 3207POPC   C1B42211   6.641   3.265   6.464
 3207POPC   C2B42212   6.653   3.261   6.764
 3207POPC   C3B42213   6.699   3.343   7.064
 3207POPC   C4B42214   6.700   3.309   7.364
 3208POPC   NC342215  29.164   0.397   5.564
 3208POPC   PO442216  29.129   0.483   5.864
 3208POPC   GL142217  29.108   0.408   6.164
 3208POPC   GL242218  29.235   0.468   6.164
 3208POPC   C1A42219  29.157   0.429   6.464
 3208POPC   D2A42220  29.174   0.484   6.764
 3208POPC   C3A42221  29.101   0.390   7.064
 3208POPC   C4A42222  29.148   0.399   7.364
 3208POPC   C1B42223  29.312   0.620   6.464
 3208POPC   C2B42224  29.373   0.613   6.764
 3208POPC   C3B42225  29.374   0.574   7.064
 3208POPC   C4B42226  29.390   0.534   7.364
 3209POPC   NC342227  15.938  10.527   5.564
 3209POPC   PO442228  15.958  10.523   5.864
 3209POPC   GL142229  15.935  10.536   6.164
 3209POPC   GL242230  15.798  10.436   6.164
 3209POPC   C1A42231  15.987  10.550   6.464
 3209POPC   D2A42232  15.946  10.496   6.764
 3209POPC   C3A42233  15.930  10.475   7.064
 3209POPC   C4A42234  15.909  10.523   7.364
 3209POPC   C1B42235  15.694  10.443   6.464
 3209POPC   C2B42236  15.730  10.427   6.764
 3209POPC   C3B42237  15.709  10.392   7.064
 3209POPC   C4B42238  15.780  10.427   7.364
 3210POPC   NC342239  43.120  16.778   5.564
 3210POPC   PO442240  43.156  16.722   5.864
 3210POPC   GL142241  43.140  16.772   6.164
 3210POPC   GL242242  43.082  16.863   6.164
 3210POPC   C1A42243  43.137  16.716   6.464
 3210POPC   D2A42244  43.156  16.714   6.764
 3210POPC   C3A42245  43.135  16.739   7.064
 3210POPC   C4A42246  43.061  16.739   7.364
 3210POPC   C1B42247  42.960  16.971   6.464
 3210POPC   C2B42248  43.009  16.904   6.764
 3210POPC   C3B42249  42.966  16.993   7.064
 3210POPC   C4B42250  43.038  16.997   7.364
 3211POPC   NC342251   1.229  39.204   5.564
 3211POPC   PO442252   1.182  39.253   5.864
 3211POPC   GL142253   1.240  39.213   6.164
 3211POPC   GL242254   1.316  39.274   6.164
 3211POPC   C1A42255   1.210  39.205   6.464
 3211POPC   D2A42256   1.207  39.270   6.764
 3211POPC   C3A42257   1.250  39.218   7.064
 3211POPC   C4A42258   1.192  39.269   7.364
 3211POPC   C1B42259   1.410  39.392   6.464
 3211POPC   C2B42260   1.413  39.367   6.764
 3211POPC   C3B42261   1.420  39.390   7.064
 3211POPC   C4B42262   1.432  39.387   7.364
 3212POPC   NC342263  26.770   1.980   5.564
 3212POPC   PO442264  26.795   1.948   5.864
 3212POPC   GL142265  26.817   2.034   6.164
 3212POPC   GL242266  26.958   1.957   6.164
 3212POPC   C1A42267  26.772   1.955   6.464
 3212POPC   D2A42268  26.816   2.027   6.764
 3212POPC   C3A42269  26.785   1.955   7.064
 3212POPC   C4A42270  26.777   1.999   7.364
 3212POPC   C1B42271  27.094   1.855   6.464
 3212POPC   C2B42272  27.030   1.947   6.764
 3212POPC   C3B42273  27.047   1.879   7.064
 3212POPC   C4B42274  27.096   1.935   7.364
 3213POPC   NC342275  23.699  19.035   5.564
 3213POPC   PO442276  23.746  19.084   5.864
 3213POPC   GL142277  23.722  19.050   6.164
 3213POPC   GL242278  23.629  18.964   6.164
 3213POPC   C1A42279  23.704  19.023   6.464
 3213POPC   D2A42280  23.684  19.085   6.764
 3213POPC   C3A42281  23.685  19.068   7.064
 3213POPC   C4A42282  23.673  19.022   7.364
 3213POPC   C1B42283  23.677  18.798   6.464
 3213POPC   C2B42284  23.614  18.828   6.764
 3213POPC   C3B42285  23.648  18.809   7.064
 3213POPC   C4B42286  23.628  18.860   7.364
 3214POPC   NC342287  30.664  13.661   5.564
 3214POPC   PO442288  30.728  13.590   5.864
 3214POPC   GL142289  30.689  13.586   6.164
 3214POPC   GL242290  30.865  13.702   6.164
 3214POPC   C1A42291  30.653  13.588   6.464
 3214POPC   D2A42292  30.727  13.663   6.764
 3214POPC   C3A42293  30.664  13.668   7.064
 3214POPC   C4A42294  30.653  13.637   7.364
 3214POPC   C1B42295  30.905  13.734   6.464
 3214POPC   C2B42296  30.911  13.649   6.764
 3214POPC   C3B42297  30.896  13.660   7.064
 3214POPC   C4B42298  30.949  13.703   7.364
 3215POPC   NC342299  33.026  39.212   5.564
 3215POPC   PO442300  33.070  39.216   5.864
 3215POPC   GL142301  32.990  39.239   6.164
 3215POPC   GL242302  33.151  39.278   6.164
 3215POPC   C1A42303  33.032  39.260   6.464
 3215POPC   D2A42304  32.988  39.194   6.764
 3215POPC   C3A42305  33.053  39.199   7.064
 3215POPC   C4A42306  33.059  39.230   7.364
 3215POPC   C1B42307  33.284  39.246   6.464
 3215POPC   C2B42308  33.241  39.262   6.764
 3215POPC   C3B42309  33.291  39.230   7.064
 3215POPC   C4B42310  33.282  39.200   7.364
 3216POPC   NC342311   5.077  39.192   5.564
 3216POPC   PO442312   5.088  39.217   5.864
 3216POPC   GL142313   5.134  39.192   6.164
 3216POPC   GL242314   4.963  39.152   6.164
 3216POPC   C1A42315   5.065  39.216   6.464
 3216POPC   D2A42316   5.072  39.197   6.764
 3216POPC   C3A42317   5.136  39.211   7.064
 3216POPC   C4A42318   5.107  39.234   7.364
 3216POPC   C1B42319   4.935  39.093   6.464
 3216POPC   C2B42320   4.906  39.085   6.764
 3216POPC   C3B42321   4.903  39.065   7.064
 3216POPC   C4B42322   4.842  39.052   7.364
 3217POPC   NC342323  26.010  26.012   5.564
 3217POPC   PO442324  26.069  26.013   5.864
 3217POPC   GL142325  26.038  26.042   6.164
 3217POPC   GL242326  26.105  25.943   6.164
 3217POPC   C1A42327  26.062  26.074   6.464
 3217POPC   D2A42328  26.044  26.076   6.764
 3217POPC   C3A42329  26.005  26.036   7.064
 3217POPC   C4A42330  26.062  26.083   7.364
 3217POPC   C1B42331  26.222  25.822   6.464
 3217POPC   C2B42332  26.214  25.860   6.764
 3217POPC   C3B42333  26.253  25.822   7.064
 3217POPC   C4B42334  26.250  25.901   7.364
 3218POPC   NC342335   4.286  41.547   5.564
 3218POPC   PO442336   4.285  41.533   5.864
 3218POPC   GL142337   4.349  41.607   6.164
 3218POPC   GL242338   4.476  41.595   6.164
 3218POPC   C1A42339   4.356  41.588   6.464
 3218POPC   D2A42340   4.364  41.516   6.764
 3218POPC   C3A42341   4.283  41.520   7.064
 3218POPC   C4A42342   4.366  41.565   7.364
 3218POPC   C1B42343   4.549  41.547   6.464
 3218POPC   C2B42344   4.565  41.606   6.764
 3218POPC   C3B42345   4.546  41.598   7.064
 3218POPC   C4B42346   4.582  41.565   7.364
 3219POPC   NC342347  13.590  32.222   5.564
 3219POPC   PO442348  13.599  32.260   5.864
 3219POPC   GL142349  13.599  32.263   6.164
 3219POPC   GL242350  13.553  32.227   6.164
 3219POPC   C1A42351  13.582  32.238   6.464
 3219POPC   D2A42352  13.583  32.287   6.764
 3219POPC   C3A42353  13.613  32.255   7.064
 3219POPC   C4A42354  13.665  32.210   7.364
 3219POPC   C1B42355  13.402  32.142   6.464
 3219POPC   C2B42356  13.367  32.149   6.764
 3219POPC   C3B42357  13.387  32.137   7.064
 3219POPC   C4B42358  13.360  32.194   7.364
 3220POPC   NC342359   7.460  41.559   5.564
 3220POPC   PO442360   7.423  41.594   5.864
 3220POPC   GL142361   7.423  41.509   6.164
 3220POPC   GL242362   7.260  41.575   6.164
 3220POPC   C1A42363   7.463  41.543   6.464
 3220POPC   D2A42364   7.380  41.522   6.764
 3220POPC   C3A42365   7.371  41.519   7.064
 3220POPC   C4A42366   7.462  41.513   7.364
 3220POPC   C1B42367   7.143  41.688   6.464
 3220POPC   C2B42368   7.161  41.685   6.764
 3220POPC   C3B42369   7.225  41.646   7.064
 3220POPC   C4B42370   7.187  41.631   7.364
 3221POPC   NC342371  26.824  43.134   5.564
 3221POPC   PO442372  26.798  43.140   5.864
 3221POPC   GL142373  26.800  43.122   6.164
 3221POPC   GL242374  26.883  43.016   6.164
 3221POPC   C1A42375  26.858  43.109   6.464
 3221POPC   D2A42376  26.814  43.129   6.764
 3221POPC   C3A42377  26.852  43.102   7.064
 3221POPC   C4A42378  26.820  43.088   7.364
 3221POPC   C1B42379  26.949  42.893   6.464
 3221POPC   C2B42380  26.893  42.833   6.764
 3221POPC   C3B42381  26.915  42.907   7.064
 3221POPC   C4B42382  26.946  42.861   7.364
 3222POPC   NC342383   5.873   5.141   5.564
 3222POPC   PO442384   5.827   5.080   5.864
 3222POPC   GL142385   5.857   5.076   6.164
 3222POPC   GL242386   5.963   5.166   6.164
 3222POPC   C1A42387   5.847   5.048   6.464
 3222POPC   D2A42388   5.893   5.121   6.764
 3222POPC   C3A42389   5.845   5.078   7.064
 3222POPC   C4A42390   5.853   5.055   7.364
 3222POPC   C1B42391   6.114   5.256   6.464
 3222POPC   C2B42392   6.088   5.244   6.764
 3222POPC   C3B42393   6.075   5.270   7.064
 3222POPC   C4B42394   6.088   5.257   7.364
 3223POPC   NC342395  44.622  37.693   5.564
 3223POPC   PO442396  44.674  37.663   5.864
 3223POPC   GL142397  44.645  37.716   6.164
 3223POPC   GL242398  44.661  37.607   6.164
 3223POPC   C1A42399  44.638  37.656   6.464
 3223POPC   D2A42400  44.665  37.719   6.764
 3223POPC   C3A42401  44.686  37.650   7.064
 3223POPC   C4A42402  44.703  37.657   7.364
 3223POPC   C1B42403  44.575  37.480   6.464
 3223POPC   C2B42404  44.528  37.465   6.764
 3223POPC   C3B42405  44.513  37.472   7.064
 3223POPC   C4B42406  44.607  37.425   7.364
 3224POPC   NC342407   8.943   3.548   5.564
 3224POPC   PO442408   8.930   3.545   5.864
 3224POPC   GL142409   8.963   3.539   6.164
 3224POPC   GL242410   9.142   3.514   6.164
 3224POPC   C1A42411   9.006   3.560   6.464
 3224POPC   D2A42412   8.973   3.557   6.764
 3224POPC   C3A42413   8.944   3.514   7.064
 3224POPC   C4A42414   8.961   3.561   7.364
 3224POPC   C1B42415   9.237   3.524   6.464
 3224POPC   C2B42416   9.215   3.525   6.764
 3224POPC   C3B42417   9.190   3.576   7.064
 3224POPC   C4B42418   9.230   3.541   7.364
 3225POPC   NC342419  23.744  19.843   5.564
 3225POPC   PO442420  23.675  19.838   5.864
 3225POPC   GL142421  23.754  19.811   6.164
 3225POPC   GL242422  23.568  19.826   6.164
 3225POPC   C1A42423  23.705  19.827   6.464
 3225POPC   D2A42424  23.730  19.883   6.764
 3225POPC   C3A42425  23.744  19.810   7.064
 3225POPC   C4A42426  23.763  19.802   7.364
 3225POPC   C1B42427  23.423  19.816   6.464
 3225POPC   C2B42428  23.473  19.860   6.764
 3225POPC   C3B42429  23.418  19.830   7.064
 3225POPC   C4B42430  23.469  19.859   7.364
 3226POPC   NC342431  29.953  34.539   5.564
 3226POPC   PO442432  29.924  34.558   5.864
 3226POPC   GL142433  29.907  34.574   6.164
 3226POPC   GL242434  29.822  34.574   6.164
 3226POPC   C1A42435  29.959  34.536   6.464
 3226POPC   D2A42436  29.955  34.608   6.764
 3226POPC   C3A42437  29.881  34.576   7.064
 3226POPC   C4A42438  29.900  34.612   7.364
 3226POPC   C1B42439  29.681  34.507   6.464
 3226POPC   C2B42440  29.664  34.490   6.764
 3226POPC   C3B42441  29.627  34.531   7.064
 3226POPC   C4B42442  29.697  34.539   7.364
 3227POPC   NC342443   4.338   9.757   5.564
 3227POPC   PO442444   4.342   9.764   5.864
 3227POPC   GL142445   4.359   9.778   6.164
 3227POPC   GL242446   4.441   9.659   6.164
 3227POPC   C1A42447   4.328   9.752   6.464
 3227POPC   D2A42448   4.366   9.781   6.764
 3227POPC   C3A42449   4.316   9.715   7.064
 3227POPC   C4A42450   4.360   9.753   7.364
 3227POPC   C1B42451   4.566   9.628   6.464
 3227POPC   C2B42452   4.506   9.631   6.764
 3227POPC   C3B42453   4.541   9.611   7.064
 3227POPC   C4B42454   4.499   9.571   7.364
 3228POPC   NC342455  40.805  29.969   5.564
 3228POPC   PO442456  40.733  29.898   5.864
 3228POPC   GL142457  40.831  29.966   6.164
 3228POPC   GL242458  40.867  30.064   6.164
 3228POPC   C1A42459  40.751  29.875   6.464
 3228POPC   D2A42460  40.807  29.931   6.764
 3228POPC   C3A42461  40.805  29.896   7.064
 3228POPC   C4A42462  40.793  29.888   7.364
 3228POPC   C1B42463  40.941  30.098   6.464
 3228POPC   C2B42464  40.919  30.106   6.764
 3228POPC   C3B42465  40.883  30.135   7.064
 3228POPC   C4B42466  40.903  30.122   7.364
 3229POPC   NC342467  40.786   6.649   5.564
 3229POPC   PO442468  40.796   6.685   5.864
 3229POPC   GL142469  40.815   6.597   6.164
 3229POPC   GL242470  40.618   6.652   6.164
 3229POPC   C1A42471  40.769   6.643   6.464
 3229POPC   D2A42472  40.773   6.630   6.764
 3229POPC   C3A42473  40.794   6.653   7.064
 3229POPC   C4A42474  40.779   6.605   7.364
 3229POPC   C1B42475  40.573   6.693   6.464
 3229POPC   C2B42476  40.513   6.732   6.764
 3229POPC   C3B42477  40.589   6.731   7.064
 3229POPC   C4B42478  40.518   6.729   7.364
 3230POPC   NC342479  26.085  24.490   5.564
 3230POPC   PO442480  26.089  24.481   5.864
 3230POPC   GL142481  26.064  24.533   6.164
 3230POPC   GL242482  25.963  24.368   6.164
 3230POPC   C1A42483  26.075  24.478   6.464
 3230POPC   D2A42484  25.997  24.473   6.764
 3230POPC   C3A42485  26.016  24.515   7.064
 3230POPC   C4A42486  26.013  24.537   7.364
 3230POPC   C1B42487  25.830  24.379   6.464
 3230POPC   C2B42488  25.879  24.341   6.764
 3230POPC   C3B42489  25.853  24.338   7.064
 3230POPC   C4B42490  25.810  24.342   7.364
 3231POPC   NC342491  42.374  30.711   5.564
 3231POPC   PO442492  42.307  30.726   5.864
 3231POPC   GL142493  42.332  30.708   6.164
 3231POPC   GL242494  42.176  30.785   6.164
 3231POPC   C1A42495  42.333  30.727   6.464
 3231POPC   D2A42496  42.337  30.674   6.764
 3231POPC   C3A42497  42.321  30.697   7.064
 3231POPC   C4A42498  42.294  30.713   7.364
 3231POPC   C1B42499  42.132  30.800   6.464
 3231POPC   C2B42500  42.108  30.777   6.764
 3231POPC   C3B42501  42.162  30.785   7.064
 3231POPC   C4B42502  42.162  30.813   7.364
 3232POPC   NC342503  11.260  36.115   5.564
 3232POPC   PO442504  11.304  36.160   5.864
 3232POPC   GL142505  11.287  36.174   6.164
 3232POPC   GL242506  11.281  36.045   6.164
 3232POPC   C1A42507  11.332  36.092   6.464
 3232POPC   D2A42508  11.265  36.126   6.764
 3232POPC   C3A42509  11.279  36.110   7.064
 3232POPC   C4A42510  11.291  36.120   7.364
 3232POPC   C1B42511  11.245  35.903   6.464
 3232POPC   C2B42512  11.246  35.920   6.764
 3232POPC   C3B42513  11.251  35.903   7.064
 3232POPC   C4B42514  11.238  35.865   7.364
 3233POPC   NC342515  22.174  34.531   5.564
 3233POPC   PO442516  22.157  34.617   5.864
 3233POPC   GL142517  22.142  34.538   6.164
 3233POPC   GL242518  22.152  34.678   6.164
 3233POPC   C1A42519  22.169  34.578   6.464
 3233POPC   D2A42520  22.197  34.590   6.764
 3233POPC   C3A42521  22.149  34.623   7.064
 3233POPC   C4A42522  22.201  34.620   7.364
 3233POPC   C1B42523  22.126  34.777   6.464
 3233POPC   C2B42524  22.123  34.814   6.764
 3233POPC   C3B42525  22.080  34.800   7.064
 3233POPC   C4B42526  22.121  34.844   7.364
 3234POPC   NC342527  18.316  10.562   5.564
 3234POPC   PO442528  18.331  10.567   5.864
 3234POPC   GL142529  18.260  10.565   6.164
 3234POPC   GL242530  18.313  10.599   6.164
 3234POPC   C1A42531  18.279  10.541   6.464
 3234POPC   D2A42532  18.244  10.552   6.764
 3234POPC   C3A42533  18.330  10.527   7.064
 3234POPC   C4A42534  18.291  10.551   7.364
 3234POPC   C1B42535  18.358  10.784   6.464
 3234POPC   C2B42536  18.383  10.782   6.764
 3234POPC   C3B42537  18.347  10.784   7.064
 3234POPC   C4B42538  18.422  10.726   7.364
 3235POPC   NC342539  33.767   5.086   5.564
 3235POPC   PO442540  33.806   5.114   5.864
 3235POPC   GL142541  33.835   5.103   6.164
 3235POPC   GL242542  33.814   5.254   6.164
 3235POPC   C1A42543  33.797   5.127   6.464
 3235POPC   D2A42544  33.753   5.131   6.764
 3235POPC   C3A42545  33.807   5.134   7.064
 3235POPC   C4A42546  33.765   5.127   7.364
 3235POPC   C1B42547  33.791   5.305   6.464
 3235POPC   C2B42548  33.809   5.332   6.764
 3235POPC   C3B42549  33.824   5.341   7.064
 3235POPC   C4B42550  33.795   5.293   7.364
 3236POPC   NC342551  19.072  34.596   5.564
 3236POPC   PO442552  19.030  34.540   5.864
 3236POPC   GL142553  19.058  34.618   6.164
 3236POPC   GL242554  18.983  34.473   6.164
 3236POPC   C1A42555  19.035  34.564   6.464
 3236POPC   D2A42556  19.057  34.574   6.764
 3236POPC   C3A42557  19.044  34.549   7.064
 3236POPC   C4A42558  19.102  34.586   7.364
 3236POPC   C1B42559  18.891  34.383   6.464
 3236POPC   C2B42560  18.886  34.410   6.764
 3236POPC   C3B42561  18.876  34.407   7.064
 3236POPC   C4B42562  18.925  34.385   7.364
 3237POPC   NC342563  43.147  28.389   5.564
 3237POPC   PO442564  43.092  28.334   5.864
 3237POPC   GL142565  43.085  28.385   6.164
 3237POPC   GL242566  43.186  28.370   6.164
 3237POPC   C1A42567  43.089  28.341   6.464
 3237POPC   D2A42568  43.110  28.366   6.764
 3237POPC   C3A42569  43.101  28.364   7.064
 3237POPC   C4A42570  43.136  28.387   7.364
 3237POPC   C1B42571  43.376  28.313   6.464
 3237POPC   C2B42572  43.343  28.303   6.764
 3237POPC   C3B42573  43.312  28.301   7.064
 3237POPC   C4B42574  43.318  28.339   7.364
 3238POPC   NC342575   9.745  18.330   5.564
 3238POPC   PO442576   9.791  18.268   5.864
 3238POPC   GL142577   9.713  18.247   6.164
 3238POPC   GL242578   9.841  18.347   6.164
 3238POPC   C1A42579   9.705  18.319   6.464
 3238POPC   D2A42580   9.752  18.272   6.764
 3238POPC   C3A42581   9.796  18.280   7.064
 3238POPC   C4A42582   9.732  18.264   7.364
 3238POPC   C1B42583   9.908  18.435   6.464
 3238POPC   C2B42584   9.936  18.476   6.764
 3238POPC   C3B42585   9.921  18.491   7.064
 3238POPC   C4B42586   9.917  18.480   7.364
 3239POPC   NC342587  29.164  27.624   5.564
 3239POPC   PO442588  29.149  27.617   5.864
 3239POPC   GL142589  29.122  27.620   6.164
 3239POPC   GL242590  29.203  27.694   6.164
 3239POPC   C1A42591  29.113  27.632   6.464
 3239POPC   D2A42592  29.155  27.623   6.764
 3239POPC   C3A42593  29.186  27.549   7.064
 3239POPC   C4A42594  29.168  27.572   7.364
 3239POPC   C1B42595  29.320  27.719   6.464
 3239POPC   C2B42596  29.323  27.770   6.764
 3239POPC   C3B42597  29.332  27.719   7.064
 3239POPC   C4B42598  29.305  27.693   7.364
 3240POPC   NC342599   1.188  13.588   5.564
 3240POPC   PO442600   1.199  13.616   5.864
 3240POPC   GL142601   1.220  13.612   6.164
 3240POPC   GL242602   1.260  13.763   6.164
 3240POPC   C1A42603   1.175  13.609   6.464
 3240POPC   D2A42604   1.243  13.593   6.764
 3240POPC   C3A42605   1.227  13.666   7.064
 3240POPC   C4A42606   1.208  13.669   7.364
 3240POPC   C1B42607   1.252  13.889   6.464
 3240POPC   C2B42608   1.235  13.864   6.764
 3240POPC   C3B42609   1.306  13.887   7.064
 3240POPC   C4B42610   1.252  13.823   7.364
 3241POPC   NC342611  26.794  35.342   5.564
 3241POPC   PO442612  26.836  35.384   5.864
 3241POPC   GL142613  26.772  35.316   6.164
 3241POPC   GL242614  26.822  35.477   6.164
 3241POPC   C1A42615  26.852  35.353   6.464
 3241POPC   D2A42616  26.834  35.369   6.764
 3241POPC   C3A42617  26.803  35.329   7.064
 3241POPC   C4A42618  26.819  35.302   7.364
 3241POPC   C1B42619  26.739  35.612   6.464
 3241POPC   C2B42620  26.720  35.624   6.764
 3241POPC   C3B42621  26.746  35.617   7.064
 3241POPC   C4B42622  26.714  35.548   7.364
 3242POPC   NC342623  15.202   4.303   5.564
 3242POPC   PO442624  15.142   4.299   5.864
 3242POPC   GL142625  15.152   4.332   6.164
 3242POPC   GL242626  15.287   4.318   6.164
 3242POPC   C1A42627  15.223   4.319   6.464
 3242POPC   D2A42628  15.194   4.322   6.764
 3242POPC   C3A42629  15.157   4.353   7.064
 3242POPC   C4A42630  15.161   4.354   7.364
 3242POPC   C1B42631  15.438   4.392   6.464
 3242POPC   C2B42632  15.426   4.343   6.764
 3242POPC   C3B42633  15.420   4.413   7.064
 3242POPC   C4B42634  15.383   4.406   7.364
 3243POPC   NC342635  29.190  26.823   5.564
 3243POPC   PO442636  29.174  26.790   5.864
 3243POPC   GL142637  29.096  26.771   6.164
 3243POPC   GL242638  29.088  26.864   6.164
 3243POPC   C1A42639  29.146  26.802   6.464
 3243POPC   D2A42640  29.140  26.815   6.764
 3243POPC   C3A42641  29.165  26.789   7.064
 3243POPC   C4A42642  29.192  26.801   7.364
 3243POPC   C1B42643  28.956  27.018   6.464
 3243POPC   C2B42644  28.957  26.986   6.764
 3243POPC   C3B42645  28.951  27.053   7.064
 3243POPC   C4B42646  28.977  27.034   7.364
 3244POPC   NC342647  30.676  40.001   5.564
 3244POPC   PO442648  30.707  40.043   5.864
 3244POPC   GL142649  30.731  39.977   6.164
 3244POPC   GL242650  30.568  40.040   6.164
 3244POPC   C1A42651  30.735  39.967   6.464
 3244POPC   D2A42652  30.654  40.011   6.764
 3244POPC   C3A42653  30.738  40.022   7.064
 3244POPC   C4A42654  30.650  40.051   7.364
 3244POPC   C1B42655  30.470  39.996   6.464
 3244POPC   C2B42656  30.472  39.967   6.764
 3244POPC   C3B42657  30.482  39.955   7.064
 3244POPC   C4B42658  30.436  39.942   7.364
 3245POPC   NC342659   2.027  23.705   5.564
 3245POPC   PO442660   1.978  23.757   5.864
 3245POPC   GL142661   1.988  23.669   6.164
 3245POPC   GL242662   1.939  23.589   6.164
 3245POPC   C1A42663   1.944  23.683   6.464
 3245POPC   D2A42664   1.960  23.682   6.764
 3245POPC   C3A42665   1.974  23.720   7.064
 3245POPC   C4A42666   2.024  23.696   7.364
 3245POPC   C1B42667   1.827  23.492   6.464
 3245POPC   C2B42668   1.820  23.551   6.764
 3245POPC   C3B42669   1.822  23.473   7.064
 3245POPC   C4B42670   1.852  23.467   7.364
 3246POPC   NC342671  30.713  39.208   5.564
 3246POPC   PO442672  30.743  39.225   5.864
 3246POPC   GL142673  30.724  39.182   6.164
 3246POPC   GL242674  30.781  39.326   6.164
 3246POPC   C1A42675  30.701  39.192   6.464
 3246POPC   D2A42676  30.707  39.241   6.764
 3246POPC   C3A42677  30.726  39.183   7.064
 3246POPC   C4A42678  30.707  39.227   7.364
 3246POPC   C1B42679  30.757  39.434   6.464
 3246POPC   C2B42680  30.800  39.492   6.764
 3246POPC   C3B42681  30.805  39.508   7.064
 3246POPC   C4B42682  30.763  39.451   7.364
 3247POPC   NC342683  11.339  44.653   5.564
 3247POPC   PO442684  11.263  44.710   5.864
 3247POPC   GL142685  11.264  44.689   6.164
 3247POPC   GL242686  11.372  44.520   6.164
 3247POPC   C1A42687  11.308  44.643   6.464
 3247POPC   D2A42688  11.261  44.653   6.764
 3247POPC   C3A42689  11.341  44.656   7.064
 3247POPC   C4A42690  11.253  44.669   7.364
 3247POPC   C1B42691  11.382  44.483   6.464
 3247POPC   C2B42692  11.406  44.393   6.764
 3247POPC   C3B42693  11.405  44.439   7.064
 3247POPC   C4B42694  11.445  44.423   7.364
 3248POPC   NC342695   1.258  14.418   5.564
 3248POPC   PO442696   1.234  14.444   5.864
 3248POPC   GL142697   1.183  14.420   6.164
 3248POPC   GL242698   1.110  14.468   6.164
 3248POPC   C1A42699   1.172  14.422   6.464
 3248POPC   D2A42700   1.212  14.360   6.764
 3248POPC   C3A42701   1.236  14.355   7.064
 3248POPC   C4A42702   1.176  14.451   7.364
 3248POPC   C1B42703   1.076  14.590   6.464
 3248POPC   C2B42704   1.098  14.647   6.764
 3248POPC   C3B42705   1.064  14.583   7.064
 3248POPC   C4B42706   1.105  14.636   7.364
 3249POPC   NC342707  32.282  31.517   5.564
 3249POPC   PO442708  32.284  31.446   5.864
 3249POPC   GL142709  32.298  31.491   6.164
 3249POPC   GL242710  32.178  31.563   6.164
 3249POPC   C1A42711  32.260  31.434   6.464
 3249POPC   D2A42712  32.199  31.517   6.764
 3249POPC   C3A42713  32.215  31.480   7.064
 3249POPC   C4A42714  32.271  31.478   7.364
 3249POPC   C1B42715  32.029  31.671   6.464
 3249POPC   C2B42716  32.047  31.636   6.764
 3249POPC   C3B42717  32.033  31.615   7.064
 3249POPC   C4B42718  32.061  31.602   7.364
 3250POPC   NC342719  19.085  17.507   5.564
 3250POPC   PO442720  19.084  17.533   5.864
 3250POPC   GL142721  19.063  17.552   6.164
 3250POPC   GL242722  19.161  17.435   6.164
 3250POPC   C1A42723  19.091  17.484   6.464
 3250POPC   D2A42724  19.033  17.463   6.764
 3250POPC   C3A42725  19.052  17.470   7.064
 3250POPC   C4A42726  19.039  17.515   7.364
 3250POPC   C1B42727  19.259  17.346   6.464
 3250POPC   C2B42728  19.250  17.332   6.764
 3250POPC   C3B42729  19.260  17.310   7.064
 3250POPC   C4B42730  19.299  17.340   7.364
 3251POPC   NC342731  34.559  36.107   5.564
 3251POPC   PO442732  34.556  36.177   5.864
 3251POPC   GL142733  34.537  36.123   6.164
 3251POPC   GL242734  34.515  36.234   6.164
 3251POPC   C1A42735  34.551  36.164   6.464
 3251POPC   D2A42736  34.596  36.137   6.764
 3251POPC   C3A42737  34.564  36.145   7.064
 3251POPC   C4A42738  34.618  36.171   7.364
 3251POPC   C1B42739  34.444  36.311   6.464
 3251POPC   C2B42740  34.424  36.290   6.764
 3251POPC   C3B42741  34.396  36.312   7.064
 3251POPC   C4B42742  34.451  36.372   7.364
 3252POPC   NC342743  22.897  18.321   5.564
 3252POPC   PO442744  22.976  18.260   5.864
 3252POPC   GL142745  22.902  18.283   6.164
 3252POPC   GL242746  22.938  18.170   6.164
 3252POPC   C1A42747  22.905  18.308   6.464
 3252POPC   D2A42748  22.917  18.240   6.764
 3252POPC   C3A42749  22.977  18.308   7.064
 3252POPC   C4A42750  22.982  18.237   7.364
 3252POPC   C1B42751  22.970  18.043   6.464
 3252POPC   C2B42752  22.955  18.002   6.764
 3252POPC   C3B42753  22.955  18.070   7.064
 3252POPC   C4B42754  22.886  18.026   7.364
 3253POPC   NC342755  31.434  10.569   5.564
 3253POPC   PO442756  31.478  10.546   5.864
 3253POPC   GL142757  31.483  10.481   6.164
 3253POPC   GL242758  31.612  10.408   6.164
 3253POPC   C1A42759  31.471  10.476   6.464
 3253POPC   D2A42760  31.442  10.515   6.764
 3253POPC   C3A42761  31.498  10.539   7.064
 3253POPC   C4A42762  31.471  10.525   7.364
 3253POPC   C1B42763  31.671  10.427   6.464
 3253POPC   C2B42764  31.680  10.398   6.764
 3253POPC   C3B42765  31.701  10.375   7.064
 3253POPC   C4B42766  31.714  10.409   7.364
 3254POPC   NC342767  41.608  22.149   5.564
 3254POPC   PO442768  41.584  22.120   5.864
 3254POPC   GL142769  41.532  22.123   6.164
 3254POPC   GL242770  41.524  22.255   6.164
 3254POPC   C1A42771  41.522  22.184   6.464
 3254POPC   D2A42772  41.532  22.183   6.764
 3254POPC   C3A42773  41.600  22.176   7.064
 3254POPC   C4A42774  41.570  22.146   7.364
 3254POPC   C1B42775  41.598  22.392   6.464
 3254POPC   C2B42776  41.528  22.430   6.764
 3254POPC   C3B42777  41.590  22.438   7.064
 3254POPC   C4B42778  41.593  22.431   7.364
 3255POPC   NC342779   8.961   4.331   5.564
 3255POPC   PO442780   8.927   4.305   5.864
 3255POPC   GL142781   8.993   4.303   6.164
 3255POPC   GL242782   8.911   4.189   6.164
 3255POPC   C1A42783   8.987   4.293   6.464
 3255POPC   D2A42784   8.954   4.295   6.764
 3255POPC   C3A42785   8.935   4.273   7.064
 3255POPC   C4A42786   8.945   4.308   7.364
 3255POPC   C1B42787   8.757   4.107   6.464
 3255POPC   C2B42788   8.811   4.098   6.764
 3255POPC   C3B42789   8.796   4.099   7.064
 3255POPC   C4B42790   8.786   4.091   7.364
 3256POPC   NC342791  24.471  17.487   5.564
 3256POPC   PO442792  24.481  17.473   5.864
 3256POPC   GL142793  24.495  17.512   6.164
 3256POPC   GL242794  24.402  17.639   6.164
 3256POPC   C1A42795  24.529  17.533   6.464
 3256POPC   D2A42796  24.534  17.467   6.764
 3256POPC   C3A42797  24.475  17.531   7.064
 3256POPC   C4A42798  24.494  17.498   7.364
 3256POPC   C1B42799  24.313  17.726   6.464
 3256POPC   C2B42800  24.268  17.645   6.764
 3256POPC   C3B42801  24.330  17.689   7.064
 3256POPC   C4B42802  24.317  17.706   7.364
 3257POPC   NC342803   2.769  41.607   5.564
 3257POPC   PO442804   2.773  41.551   5.864
 3257POPC   GL142805   2.815  41.519   6.164
 3257POPC   GL242806   2.859  41.515   6.164
 3257POPC   C1A42807   2.803  41.522   6.464
 3257POPC   D2A42808   2.743  41.517   6.764
 3257POPC   C3A42809   2.738  41.584   7.064
 3257POPC   C4A42810   2.756  41.511   7.364
 3257POPC   C1B42811   2.975  41.484   6.464
 3257POPC   C2B42812   3.040  41.485   6.764
 3257POPC   C3B42813   3.019  41.535   7.064
 3257POPC   C4B42814   3.016  41.483   7.364
 3258POPC   NC342815  44.672  15.150   5.564
 3258POPC   PO442816  44.632  15.210   5.864
 3258POPC   GL142817  44.660  15.203   6.164
 3258POPC   GL242818  44.822  15.155   6.164
 3258POPC   C1A42819  44.658  15.189   6.464
 3258POPC   D2A42820  44.708  15.158   6.764
 3258POPC   C3A42821  44.619  15.193   7.064
 3258POPC   C4A42822  44.641  15.212   7.364
 3258POPC   C1B42823  44.887  15.262   6.464
 3258POPC   C2B42824  44.869  15.251   6.764
 3258POPC   C3B42825  44.909  15.234   7.064
 3258POPC   C4B42826  44.859  15.198   7.364
 3259POPC   NC342827   0.478   0.464   5.564
 3259POPC   PO442828   0.481   0.444   5.864
 3259POPC   GL142829   0.399   0.466   6.164
 3259POPC   GL242830   0.552   0.532   6.164
 3259POPC   C1A42831   0.405   0.487   6.464
 3259POPC   D2A42832   0.401   0.439   6.764
 3259POPC   C3A42833   0.408   0.447   7.064
 3259POPC   C4A42834   0.477   0.415   7.364
 3259POPC   C1B42835   0.574   0.595   6.464
 3259POPC   C2B42836   0.577   0.643   6.764
 3259POPC   C3B42837   0.601   0.654   7.064
 3259POPC   C4B42838   0.617   0.657   7.364
 3260POPC   NC342839  22.172  20.621   5.564
 3260POPC   PO442840  22.161  20.612   5.864
 3260POPC   GL142841  22.119  20.570   6.164
 3260POPC   GL242842  22.182  20.752   6.164
 3260POPC   C1A42843  22.204  20.647   6.464
 3260POPC   D2A42844  22.204  20.570   6.764
 3260POPC   C3A42845  22.209  20.581   7.064
 3260POPC   C4A42846  22.149  20.650   7.364
 3260POPC   C1B42847  22.245  20.862   6.464
 3260POPC   C2B42848  22.279  20.836   6.764
 3260POPC   C3B42849  22.267  20.843   7.064
 3260POPC   C4B42850  22.280  20.883   7.364
 3261POPC   NC342851  40.825  22.947   5.564
 3261POPC   PO442852  40.759  22.951   5.864
 3261POPC   GL142853  40.762  22.914   6.164
 3261POPC   GL242854  40.766  23.067   6.164
 3261POPC   C1A42855  40.824  22.938   6.464
 3261POPC   D2A42856  40.747  22.909   6.764
 3261POPC   C3A42857  40.804  22.936   7.064
 3261POPC   C4A42858  40.754  22.939   7.364
 3261POPC   C1B42859  40.732  23.233   6.464
 3261POPC   C2B42860  40.715  23.158   6.764
 3261POPC   C3B42861  40.798  23.187   7.064
 3261POPC   C4B42862  40.740  23.184   7.364
 3262POPC   NC342863  36.908  14.440   5.564
 3262POPC   PO442864  36.938  14.413   5.864
 3262POPC   GL142865  36.892  14.384   6.164
 3262POPC   GL242866  36.879  14.543   6.164
 3262POPC   C1A42867  36.918  14.397   6.464
 3262POPC   D2A42868  36.860  14.419   6.764
 3262POPC   C3A42869  36.877  14.414   7.064
 3262POPC   C4A42870  36.887  14.402   7.364
 3262POPC   C1B42871  36.957  14.702   6.464
 3262POPC   C2B42872  36.938  14.660   6.764
 3262POPC   C3B42873  36.865  14.639   7.064
 3262POPC   C4B42874  36.916  14.628   7.364
 3263POPC   NC342875  44.616  17.516   5.564
 3263POPC   PO442876  44.644  17.492   5.864
 3263POPC   GL142877  44.707  17.524   6.164
 3263POPC   GL242878  44.699  17.404   6.164
 3263POPC   C1A42879  44.693  17.482   6.464
 3263POPC   D2A42880  44.650  17.515   6.764
 3263POPC   C3A42881  44.674  17.549   7.064
 3263POPC   C4A42882  44.653  17.528   7.364
 3263POPC   C1B42883  44.696  17.218   6.464
 3263POPC   C2B42884  44.671  17.253   6.764
 3263POPC   C3B42885  44.676  17.295   7.064
 3263POPC   C4B42886  44.675  17.281   7.364
 3264POPC   NC342887  25.233  15.157   5.564
 3264POPC   PO442888  25.301  15.169   5.864
 3264POPC   GL142889  25.227  15.133   6.164
 3264POPC   GL242890  25.231  15.046   6.164
 3264POPC   C1A42891  25.306  15.191   6.464
 3264POPC   D2A42892  25.276  15.154   6.764
 3264POPC   C3A42893  25.267  15.156   7.064
 3264POPC   C4A42894  25.276  15.219   7.364
 3264POPC   C1B42895  25.143  14.956   6.464
 3264POPC   C2B42896  25.074  15.031   6.764
 3264POPC   C3B42897  25.133  14.955   7.064
 3264POPC   C4B42898  25.153  14.962   7.364
 3265POPC   NC342899   8.204  14.434   5.564
 3265POPC   PO442900   8.170  14.390   5.864
 3265POPC   GL142901   8.214  14.395   6.164
 3265POPC   GL242902   8.101  14.384   6.164
 3265POPC   C1A42903   8.171  14.434   6.464
 3265POPC   D2A42904   8.234  14.399   6.764
 3265POPC   C3A42905   8.161  14.439   7.064
 3265POPC   C4A42906   8.214  14.416   7.364
 3265POPC   C1B42907   7.969  14.370   6.464
 3265POPC   C2B42908   7.913  14.345   6.764
 3265POPC   C3B42909   7.991  14.331   7.064
 3265POPC   C4B42910   7.907  14.322   7.364
 3266POPC   NC342911  35.332  34.585   5.564
 3266POPC   PO442912  35.374  34.597   5.864
 3266POPC   GL142913  35.383  34.527   6.164
 3266POPC   GL242914  35.371  34.457   6.164
 3266POPC   C1A42915  35.318  34.529   6.464
 3266POPC   D2A42916  35.359  34.560   6.764
 3266POPC   C3A42917  35.318  34.554   7.064
 3266POPC   C4A42918  35.339  34.532   7.364
 3266POPC   C1B42919  35.280  34.282   6.464
 3266POPC   C2B42920  35.318  34.309   6.764
 3266POPC   C3B42921  35.287  34.357   7.064
 3266POPC   C4B42922  35.287  34.328   7.364
 3267POPC   NC342923  39.210  15.990   5.564
 3267POPC   PO442924  39.188  15.916   5.864
 3267POPC   GL142925  39.236  15.951   6.164
 3267POPC   GL242926  39.360  15.976   6.164
 3267POPC   C1A42927  39.275  15.938   6.464
 3267POPC   D2A42928  39.252  15.991   6.764
 3267POPC   C3A42929  39.257  15.966   7.064
 3267POPC   C4A42930  39.223  15.985   7.364
 3267POPC   C1B42931  39.492  16.003   6.464
 3267POPC   C2B42932  39.515  16.067   6.764
 3267POPC   C3B42933  39.513  16.004   7.064
 3267POPC   C4B42934  39.469  15.996   7.364
 3268POPC   NC342935  41.522   2.038   5.564
 3268POPC   PO442936  41.539   1.954   5.864
 3268POPC   GL142937  41.567   1.969   6.164
 3268POPC   GL242938  41.542   1.860   6.164
 3268POPC   C1A42939  41.544   2.033   6.464
 3268POPC   D2A42940  41.602   2.008   6.764
 3268POPC   C3A42941  41.582   2.026   7.064
 3268POPC   C4A42942  41.569   2.022   7.364
 3268POPC   C1B42943  41.485   1.770   6.464
 3268POPC   C2B42944  41.545   1.782   6.764
 3268POPC   C3B42945  41.467   1.725   7.064
 3268POPC   C4B42946  41.458   1.784   7.364
 3269POPC   NC342947   6.658  29.908   5.564
 3269POPC   PO442948   6.622  29.951   5.864
 3269POPC   GL142949   6.621  29.912   6.164
 3269POPC   GL242950   6.483  29.864   6.164
 3269POPC   C1A42951   6.654  29.877   6.464
 3269POPC   D2A42952   6.662  29.882   6.764
 3269POPC   C3A42953   6.632  29.957   7.064
 3269POPC   C4A42954   6.678  29.965   7.364
 3269POPC   C1B42955   6.414  29.862   6.464
 3269POPC   C2B42956   6.378  29.892   6.764
 3269POPC   C3B42957   6.364  29.831   7.064
 3269POPC   C4B42958   6.402  29.825   7.364
 3270POPC   NC342959  40.031  39.212   5.564
 3270POPC   PO442960  40.024  39.255   5.864
 3270POPC   GL142961  40.002  39.264   6.164
 3270POPC   GL242962  40.124  39.373   6.164
 3270POPC   C1A42963  40.046  39.219   6.464
 3270POPC   D2A42964  40.028  39.213   6.764
 3270POPC   C3A42965  40.020  39.267   7.064
 3270POPC   C4A42966  40.053  39.241   7.364
 3270POPC   C1B42967  40.123  39.481   6.464
 3270POPC   C2B42968  40.127  39.387   6.764
 3270POPC   C3B42969  40.115  39.443   7.064
 3270POPC   C4B42970  40.134  39.419   7.364
 3271POPC   NC342971  40.822  36.090   5.564
 3271POPC   PO442972  40.759  36.153   5.864
 3271POPC   GL142973  40.815  36.177   6.164
 3271POPC   GL242974  40.903  36.226   6.164
 3271POPC   C1A42975  40.831  36.164   6.464
 3271POPC   D2A42976  40.762  36.125   6.764
 3271POPC   C3A42977  40.784  36.138   7.064
 3271POPC   C4A42978  40.737  36.144   7.364
 3271POPC   C1B42979  40.985  36.245   6.464
 3271POPC   C2B42980  40.986  36.306   6.764
 3271POPC   C3B42981  41.028  36.266   7.064
 3271POPC   C4B42982  41.019  36.299   7.364
 3272POPC   NC342983  10.535  33.775   5.564
 3272POPC   PO442984  10.540  33.831   5.864
 3272POPC   GL142985  10.514  33.776   6.164
 3272POPC   GL242986  10.520  33.644   6.164
 3272POPC   C1A42987  10.535  33.811   6.464
 3272POPC   D2A42988  10.540  33.846   6.764
 3272POPC   C3A42989  10.497  33.800   7.064
 3272POPC   C4A42990  10.516  33.771   7.364
 3272POPC   C1B42991  10.495  33.569   6.464
 3272POPC   C2B42992  10.456  33.552   6.764
 3272POPC   C3B42993  10.479  33.564   7.064
 3272POPC   C4B42994  10.440  33.549   7.364
 3273POPC   NC342995   1.951  29.953   5.564
 3273POPC   PO442996   1.965  29.914   5.864
 3273POPC   GL142997   2.035  29.894   6.164
 3273POPC   GL242998   1.996  29.795   6.164
 3273POPC   C1A42999   1.977  29.903   6.464
 3273POPC   D2A43000   2.011  29.878   6.764
 3273POPC   C3A43001   2.017  29.873   7.064
 3273POPC   C4A43002   1.979  29.937   7.364
 3273POPC   C1B43003   2.031  29.660   6.464
 3273POPC   C2B43004   2.035  29.642   6.764
 3273POPC   C3B43005   2.064  29.649   7.064
 3273POPC   C4B43006   2.070  29.715   7.364
 3274POPC   NC343007  43.093  26.076   5.564
 3274POPC   PO443008  43.090  26.059   5.864
 3274POPC   GL143009  43.107  26.034   6.164
 3274POPC   GL243010  43.211  25.985   6.164
 3274POPC   C1A43011  43.150  26.076   6.464
 3274POPC   D2A43012  43.105  26.023   6.764
 3274POPC   C3A43013  43.098  25.993   7.064
 3274POPC   C4A43014  43.098  25.992   7.364
 3274POPC   C1B43015  43.252  25.833   6.464
 3274POPC   C2B43016  43.232  25.809   6.764
 3274POPC   C3B43017  43.300  25.853   7.064
 3274POPC   C4B43018  43.285  25.812   7.364
 3275POPC   NC343019  41.553  18.265   5.564
 3275POPC   PO443020  41.563  18.256   5.864
 3275POPC   GL143021  41.551  18.286   6.164
 3275POPC   GL243022  41.486  18.214   6.164
 3275POPC   C1A43023  41.547  18.240   6.464
 3275POPC   D2A43024  41.566  18.318   6.764
 3275POPC   C3A43025  41.565  18.250   7.064
 3275POPC   C4A43026  41.516  18.299   7.364
 3275POPC   C1B43027  41.349  18.264   6.464
 3275POPC   C2B43028  41.277  18.223   6.764
 3275POPC   C3B43029  41.314  18.239   7.064
 3275POPC   C4B43030  41.280  18.176   7.364
 3276POPC   NC343031  43.864  15.985   5.564
 3276POPC   PO443032  43.922  15.985   5.864
 3276POPC   GL143033  43.837  15.909   6.164
 3276POPC   GL243034  43.976  15.844   6.164
 3276POPC   C1A43035  43.935  15.929   6.464
 3276POPC   D2A43036  43.898  15.965   6.764
 3276POPC   C3A43037  43.868  15.990   7.064
 3276POPC   C4A43038  43.919  15.918   7.364
 3276POPC   C1B43039  44.045  15.744   6.464
 3276POPC   C2B43040  44.034  15.720   6.764
 3276POPC   C3B43041  44.049  15.723   7.064
 3276POPC   C4B43042  44.021  15.779   7.364
 3277POPC   NC343043  28.404  19.016   5.564
 3277POPC   PO443044  28.357  19.026   5.864
 3277POPC   GL143045  28.352  19.026   6.164
 3277POPC   GL243046  28.409  19.225   6.164
 3277POPC   C1A43047  28.380  19.059   6.464
 3277POPC   D2A43048  28.341  19.093   6.764
 3277POPC   C3A43049  28.335  19.017   7.064
 3277POPC   C4A43050  28.414  19.066   7.364
 3277POPC   C1B43051  28.377  19.302   6.464
 3277POPC   C2B43052  28.414  19.334   6.764
 3277POPC   C3B43053  28.320  19.354   7.064
 3277POPC   C4B43054  28.376  19.324   7.364
 3278POPC   NC343055  24.441  42.325   5.564
 3278POPC   PO443056  24.519  42.349   5.864
 3278POPC   GL143057  24.463  42.349   6.164
 3278POPC   GL243058  24.406  42.209   6.164
 3278POPC   C1A43059  24.532  42.339   6.464
 3278POPC   D2A43060  24.531  42.336   6.764
 3278POPC   C3A43061  24.491  42.377   7.064
 3278POPC   C4A43062  24.447  42.362   7.364
 3278POPC   C1B43063  24.297  42.142   6.464
 3278POPC   C2B43064  24.354  42.094   6.764
 3278POPC   C3B43065  24.313  42.097   7.064
 3278POPC   C4B43066  24.286  42.185   7.364
 3279POPC   NC343067  42.364  35.397   5.564
 3279POPC   PO443068  42.286  35.396   5.864
 3279POPC   GL143069  42.337  35.317   6.164
 3279POPC   GL243070  42.409  35.465   6.164
 3279POPC   C1A43071  42.353  35.304   6.464
 3279POPC   D2A43072  42.321  35.383   6.764
 3279POPC   C3A43073  42.310  35.400   7.064
 3279POPC   C4A43074  42.293  35.341   7.364
 3279POPC   C1B43075  42.383  35.609   6.464
 3279POPC   C2B43076  42.363  35.585   6.764
 3279POPC   C3B43077  42.357  35.595   7.064
 3279POPC   C4B43078  42.355  35.577   7.364
 3280POPC   NC343079  27.546   0.419   5.564
 3280POPC   PO443080  27.557   0.392   5.864
 3280POPC   GL143081  27.630   0.398   6.164
 3280POPC   GL243082  27.671   0.480   6.164
 3280POPC   C1A43083  27.638   0.433   6.464
 3280POPC   D2A43084  27.633   0.444   6.764
 3280POPC   C3A43085  27.563   0.432   7.064
 3280POPC   C4A43086  27.622   0.415   7.364
 3280POPC   C1B43087  27.831   0.609   6.464
 3280POPC   C2B43088  27.792   0.620   6.764
 3280POPC   C3B43089  27.785   0.637   7.064
 3280POPC   C4B43090  27.814   0.619   7.364
 3281POPC   NC343091   3.506  42.353   5.564
 3281POPC   PO443092   3.522  42.382   5.864
 3281POPC   GL143093   3.533  42.379   6.164
 3281POPC   GL243094   3.688  42.306   6.164
 3281POPC   C1A43095   3.493  42.325   6.464
 3281POPC   D2A43096   3.544  42.375   6.764
 3281POPC   C3A43097   3.553  42.384   7.064
 3281POPC   C4A43098   3.560  42.375   7.364
 3281POPC   C1B43099   3.745  42.183   6.464
 3281POPC   C2B43100   3.694  42.225   6.764
 3281POPC   C3B43101   3.695  42.207   7.064
 3281POPC   C4B43102   3.747  42.159   7.364
 3282POPC   NC343103  19.864  22.927   5.564
 3282POPC   PO443104  19.826  22.936   5.864
 3282POPC   GL143105  19.803  22.984   6.164
 3282POPC   GL243106  19.864  23.019   6.164
 3282POPC   C1A43107  19.857  22.927   6.464
 3282POPC   D2A43108  19.832  22.899   6.764
 3282POPC   C3A43109  19.852  22.930   7.064
 3282POPC   C4A43110  19.785  22.922   7.364
 3282POPC   C1B43111  19.787  23.160   6.464
 3282POPC   C2B43112  19.824  23.153   6.764
 3282POPC   C3B43113  19.857  23.187   7.064
 3282POPC   C4B43114  19.816  23.233   7.364
 3283POPC   NC343115  20.655  17.539   5.564
 3283POPC   PO443116  20.615  17.519   5.864
 3283POPC   GL143117  20.563  17.478   6.164
 3283POPC   GL243118  20.768  17.573   6.164
 3283POPC   C1A43119  20.586  17.543   6.464
 3283POPC   D2A43120  20.588  17.543   6.764
 3283POPC   C3A43121  20.589  17.526   7.064
 3283POPC   C4A43122  20.572  17.529   7.364
 3283POPC   C1B43123  20.840  17.594   6.464
 3283POPC   C2B43124  20.854  17.504   6.764
 3283POPC   C3B43125  20.858  17.584   7.064
 3283POPC   C4B43126  20.891  17.522   7.364
 3284POPC   NC343127  33.795  22.160   5.564
 3284POPC   PO443128  33.799  22.176   5.864
 3284POPC   GL143129  33.843  22.194   6.164
 3284POPC   GL243130  33.887  22.116   6.164
 3284POPC   C1A43131  33.803  22.156   6.464
 3284POPC   D2A43132  33.824  22.151   6.764
 3284POPC   C3A43133  33.777  22.116   7.064
 3284POPC   C4A43134  33.796  22.126   7.364
 3284POPC   C1B43135  34.041  22.015   6.464
 3284POPC   C2B43136  33.989  22.104   6.764
 3284POPC   C3B43137  34.052  22.107   7.064
 3284POPC   C4B43138  34.021  22.018   7.364
 3285POPC   NC343139  11.258  40.795   5.564
 3285POPC   PO443140  11.309  40.741   5.864
 3285POPC   GL143141  11.286  40.773   6.164
 3285POPC   GL243142  11.387  40.893   6.164
 3285POPC   C1A43143  11.306  40.809   6.464
 3285POPC   D2A43144  11.310  40.781   6.764
 3285POPC   C3A43145  11.254  40.824   7.064
 3285POPC   C4A43146  11.322  40.751   7.364
 3285POPC   C1B43147  11.365  41.024   6.464
 3285POPC   C2B43148  11.358  40.973   6.764
 3285POPC   C3B43149  11.365  41.015   7.064
 3285POPC   C4B43150  11.368  41.020   7.364
 3286POPC   NC343151  26.802  29.161   5.564
 3286POPC   PO443152  26.842  29.144   5.864
 3286POPC   GL143153  26.781  29.111   6.164
 3286POPC   GL243154  26.937  29.245   6.164
 3286POPC   C1A43155  26.774  29.192   6.464
 3286POPC   D2A43156  26.772  29.127   6.764
 3286POPC   C3A43157  26.823  29.166   7.064
 3286POPC   C4A43158  26.790  29.177   7.364
 3286POPC   C1B43159  26.968  29.287   6.464
 3286POPC   C2B43160  26.991  29.320   6.764
 3286POPC   C3B43161  27.042  29.348   7.064
 3286POPC   C4B43162  26.991  29.337   7.364
 3287POPC   NC343163  12.853  26.801   5.564
 3287POPC   PO443164  12.894  26.790   5.864
 3287POPC   GL143165  12.857  26.818   6.164
 3287POPC   GL243166  12.687  26.807   6.164
 3287POPC   C1A43167  12.805  26.856   6.464
 3287POPC   D2A43168  12.885  26.821   6.764
 3287POPC   C3A43169  12.810  26.800   7.064
 3287POPC   C4A43170  12.851  26.818   7.364
 3287POPC   C1B43171  12.610  26.813   6.464
 3287POPC   C2B43172  12.624  26.782   6.764
 3287POPC   C3B43173  12.575  26.801   7.064
 3287POPC   C4B43174  12.579  26.837   7.364
 3288POPC   NC343175  40.775  28.323   5.564
 3288POPC   PO443176  40.792  28.367   5.864
 3288POPC   GL143177  40.792  28.419   6.164
 3288POPC   GL243178  40.699  28.459   6.164
 3288POPC   C1A43179  40.771  28.406   6.464
 3288POPC   D2A43180  40.754  28.347   6.764
 3288POPC   C3A43181  40.746  28.324   7.064
 3288POPC   C4A43182  40.830  28.353   7.364
 3288POPC   C1B43183  40.616  28.557   6.464
 3288POPC   C2B43184  40.615  28.465   6.764
 3288POPC   C3B43185  40.546  28.477   7.064
 3288POPC   C4B43186  40.606  28.460   7.364
 3289POPC   NC343187  12.880   2.812   5.564
 3289POPC   PO443188  12.882   2.808   5.864
 3289POPC   GL143189  12.851   2.740   6.164
 3289POPC   GL243190  12.703   2.665   6.164
 3289POPC   C1A43191  12.841   2.747   6.464
 3289POPC   D2A43192  12.881   2.777   6.764
 3289POPC   C3A43193  12.806   2.778   7.064
 3289POPC   C4A43194  12.808   2.723   7.364
 3289POPC   C1B43195  12.659   2.584   6.464
 3289POPC   C2B43196  12.648   2.596   6.764
 3289POPC   C3B43197  12.599   2.618   7.064
 3289POPC   C4B43198  12.679   2.594   7.364
 3290POPC   NC343199  36.154   6.649   5.564
 3290POPC   PO443200  36.114   6.642   5.864
 3290POPC   GL143201  36.151   6.655   6.164
 3290POPC   GL243202  36.220   6.580   6.164
 3290POPC   C1A43203  36.147   6.676   6.464
 3290POPC   D2A43204  36.128   6.638   6.764
 3290POPC   C3A43205  36.078   6.677   7.064
 3290POPC   C4A43206  36.131   6.599   7.364
 3290POPC   C1B43207  36.320   6.472   6.464
 3290POPC   C2B43208  36.343   6.497   6.764
 3290POPC   C3B43209  36.291   6.432   7.064
 3290POPC   C4B43210  36.292   6.478   7.364
 3291POPC   NC343211  44.661   0.400   5.564
 3291POPC   PO443212  44.664   0.487   5.864
 3291POPC   GL143213  44.703   0.466   6.164
 3291POPC   GL243214  44.500   0.413   6.164
 3291POPC   C1A43215  44.682   0.480   6.464
 3291POPC   D2A43216  44.648   0.420   6.764
 3291POPC   C3A43217  44.650   0.414   7.064
 3291POPC   C4A43218  44.659   0.478   7.364
 3291POPC   C1B43219  44.403   0.419   6.464
 3291POPC   C2B43220  44.390   0.470   6.764
 3291POPC   C3B43221  44.448   0.388   7.064
 3291POPC   C4B43222  44.385   0.419   7.364
 3292POPC   NC343223  14.364  37.646   5.564
 3292POPC   PO443224  14.368  37.664   5.864
 3292POPC   GL143225  14.413  37.723   6.164
 3292POPC   GL243226  14.446  37.828   6.164
 3292POPC   C1A43227  14.387  37.688   6.464
 3292POPC   D2A43228  14.447  37.727   6.764
 3292POPC   C3A43229  14.362  37.635   7.064
 3292POPC   C4A43230  14.362  37.685   7.364
 3292POPC   C1B43231  14.578  37.904   6.464
 3292POPC   C2B43232  14.493  37.905   6.764
 3292POPC   C3B43233  14.585  37.916   7.064
 3292POPC   C4B43234  14.519  37.931   7.364
 3293POPC   NC343235  29.921  10.485   5.564
 3293POPC   PO443236  29.958  10.549   5.864
 3293POPC   GL143237  29.941  10.493   6.164
 3293POPC   GL243238  29.825  10.414   6.164
 3293POPC   C1A43239  29.959  10.489   6.464
 3293POPC   D2A43240  29.942  10.514   6.764
 3293POPC   C3A43241  29.961  10.568   7.064
 3293POPC   C4A43242  29.969  10.565   7.364
 3293POPC   C1B43243  29.777  10.376   6.464
 3293POPC   C2B43244  29.734  10.360   6.764
 3293POPC   C3B43245  29.757  10.293   7.064
 3293POPC   C4B43246  29.747  10.350   7.364
 3294POPC   NC343247  44.677   9.748   5.564
 3294POPC   PO443248  44.636   9.739   5.864
 3294POPC   GL143249  44.655   9.795   6.164
 3294POPC   GL243250  44.598   9.651   6.164
 3294POPC   C1A43251  44.688   9.774   6.464
 3294POPC   D2A43252  44.666   9.761   6.764
 3294POPC   C3A43253  44.674   9.786   7.064
 3294POPC   C4A43254  44.629   9.736   7.364
 3294POPC   C1B43255  44.577   9.481   6.464
 3294POPC   C2B43256  44.533   9.491   6.764
 3294POPC   C3B43257  44.598   9.493   7.064
 3294POPC   C4B43258  44.526   9.502   7.364
 3295POPC   NC343259  22.177  12.872   5.564
 3295POPC   PO443260  22.203  12.818   5.864
 3295POPC   GL143261  22.130  12.802   6.164
 3295POPC   GL243262  22.274  12.836   6.164
 3295POPC   C1A43263  22.133  12.824   6.464
 3295POPC   D2A43264  22.174  12.877   6.764
 3295POPC   C3A43265  22.128  12.847   7.064
 3295POPC   C4A43266  22.157  12.810   7.364
 3295POPC   C1B43267  22.362  12.842   6.464
 3295POPC   C2B43268  22.390  12.887   6.764
 3295POPC   C3B43269  22.397  12.841   7.064
 3295POPC   C4B43270  22.408  12.876   7.364
 3296POPC   NC343271  44.705  27.562   5.564
 3296POPC   PO443272  44.627  27.587   5.864
 3296POPC   GL143273  44.677  27.630   6.164
 3296POPC   GL243274  44.636  27.716   6.164
 3296POPC   C1A43275  44.667  27.548   6.464
 3296POPC   D2A43276  44.614  27.605   6.764
 3296POPC   C3A43277  44.626  27.590   7.064
 3296POPC   C4A43278  44.701  27.544   7.364
 3296POPC   C1B43279  44.537  27.819   6.464
 3296POPC   C2B43280  44.493  27.842   6.764
 3296POPC   C3B43281  44.528  27.769   7.064
 3296POPC   C4B43282  44.505  27.823   7.364
 3297POPC   NC343283  44.689   3.566   5.564
 3297POPC   PO443284  44.617   3.582   5.864
 3297POPC   GL143285  44.666   3.576   6.164
 3297POPC   GL243286  44.593   3.457   6.164
 3297POPC   C1A43287  44.690   3.569   6.464
 3297POPC   D2A43288  44.640   3.579   6.764
 3297POPC   C3A43289  44.682   3.500   7.064
 3297POPC   C4A43290  44.636   3.523   7.364
 3297POPC   C1B43291  44.596   3.272   6.464
 3297POPC   C2B43292  44.601   3.353   6.764
 3297POPC   C3B43293  44.512   3.308   7.064
 3297POPC   C4B43294  44.560   3.273   7.364
 3298POPC   NC343295  14.359   8.162   5.564
 3298POPC   PO443296  14.358   8.153   5.864
 3298POPC   GL143297  14.426   8.203   6.164
 3298POPC   GL243298  14.446   8.298   6.164
 3298POPC   C1A43299  14.397   8.194   6.464
 3298POPC   D2A43300  14.364   8.203   6.764
 3298POPC   C3A43301  14.373   8.162   7.064
 3298POPC   C4A43302  14.381   8.179   7.364
 3298POPC   C1B43303  14.487   8.404   6.464
 3298POPC   C2B43304  14.511   8.441   6.764
 3298POPC   C3B43305  14.472   8.398   7.064
 3298POPC   C4B43306  14.501   8.462   7.364
 3299POPC   NC343307  14.406  38.424   5.564
 3299POPC   PO443308  14.390  38.414   5.864
 3299POPC   GL143309  14.422  38.504   6.164
 3299POPC   GL243310  14.427  38.578   6.164
 3299POPC   C1A43311  14.433  38.496   6.464
 3299POPC   D2A43312  14.434  38.462   6.764
 3299POPC   C3A43313  14.419  38.486   7.064
 3299POPC   C4A43314  14.397  38.432   7.364
 3299POPC   C1B43315  14.556  38.668   6.464
 3299POPC   C2B43316  14.502  38.646   6.764
 3299POPC   C3B43317  14.504  38.711   7.064
 3299POPC   C4B43318  14.549  38.676   7.364
 3300POPC   NC343319   0.449  34.600   5.564
 3300POPC   PO443320   0.421  34.551   5.864
 3300POPC   GL143321   0.410  34.617   6.164
 3300POPC   GL243322   0.406  34.460   6.164
 3300POPC   C1A43323   0.443  34.538   6.464
 3300POPC   D2A43324   0.401  34.534   6.764
 3300POPC   C3A43325   0.480  34.552   7.064
 3300POPC   C4A43326   0.408  34.585   7.364
 3300POPC   C1B43327   0.438  34.331   6.464
 3300POPC   C2B43328   0.433  34.307   6.764
 3300POPC   C3B43329   0.450  34.337   7.064
 3300POPC   C4B43330   0.468  34.372   7.364
 3301POPC   NC343331  21.394  43.897   5.564
 3301POPC   PO443332  21.367  43.843   5.864
 3301POPC   GL143333  21.416  43.893   6.164
 3301POPC   GL243334  21.469  44.039   6.164
 3301POPC   C1A43335  21.349  43.898   6.464
 3301POPC   D2A43336  21.417  43.862   6.764
 3301POPC   C3A43337  21.345  43.843   7.064
 3301POPC   C4A43338  21.359  43.889   7.364
 3301POPC   C1B43339  21.491  44.156   6.464
 3301POPC   C2B43340  21.514  44.069   6.764
 3301POPC   C3B43341  21.531  44.072   7.064
 3301POPC   C4B43342  21.495  44.145   7.364
 3302POPC   NC343343  28.366  10.511   5.564
 3302POPC   PO443344  28.378  10.498   5.864
 3302POPC   GL143345  28.414  10.573   6.164
 3302POPC   GL243346  28.256  10.447   6.164
 3302POPC   C1A43347  28.359  10.504   6.464
 3302POPC   D2A43348  28.374  10.547   6.764
 3302POPC   C3A43349  28.393  10.479   7.064
 3302POPC   C4A43350  28.397  10.522   7.364
 3302POPC   C1B43351  28.142  10.481   6.464
 3302POPC   C2B43352  28.173  10.462   6.764
 3302POPC   C3B43353  28.122  10.418   7.064
 3302POPC   C4B43354  28.149  10.493   7.364
 3303POPC   NC343355  19.841  21.430   5.564
 3303POPC   PO443356  19.852  21.372   5.864
 3303POPC   GL143357  19.830  21.389   6.164
 3303POPC   GL243358  19.920  21.417   6.164
 3303POPC   C1A43359  19.854  21.396   6.464
 3303POPC   D2A43360  19.787  21.373   6.764
 3303POPC   C3A43361  19.825  21.435   7.064
 3303POPC   C4A43362  19.852  21.436   7.364
 3303POPC   C1B43363  20.121  21.373   6.464
 3303POPC   C2B43364  20.132  21.436   6.764
 3303POPC   C3B43365  20.100  21.416   7.064
 3303POPC   C4B43366  20.121  21.356   7.364
 3304POPC   NC343367   5.082  30.743   5.564
 3304POPC   PO443368   5.074  30.681   5.864
 3304POPC   GL143369   5.113  30.686   6.164
 3304POPC   GL243370   5.025  30.565   6.164
 3304POPC   C1A43371   5.124  30.650   6.464
 3304POPC   D2A43372   5.090  30.730   6.764
 3304POPC   C3A43373   5.056  30.691   7.064
 3304POPC   C4A43374   5.118  30.659   7.364
 3304POPC   C1B43375   4.970  30.490   6.464
 3304POPC   C2B43376   4.996  30.525   6.764
 3304POPC   C3B43377   4.953  30.457   7.064
 3304POPC   C4B43378   5.004  30.486   7.364
 3305POPC   NC343379  15.925  33.766   5.564
 3305POPC   PO443380  15.968  33.842   5.864
 3305POPC   GL143381  15.984  33.841   6.164
 3305POPC   GL243382  15.878  33.879   6.164
 3305POPC   C1A43383  15.915  33.819   6.464
 3305POPC   D2A43384  15.985  33.767   6.764
 3305POPC   C3A43385  15.924  33.814   7.064
 3305POPC   C4A43386  15.983  33.779   7.364
 3305POPC   C1B43387  15.816  34.006   6.464
 3305POPC   C2B43388  15.830  33.967   6.764
 3305POPC   C3B43389  15.818  34.046   7.064
 3305POPC   C4B43390  15.804  34.044   7.364
 3306POPC   NC343391  32.255  39.995   5.564
 3306POPC   PO443392  32.284  39.989   5.864
 3306POPC   GL143393  32.252  40.046   6.164
 3306POPC   GL243394  32.190  39.891   6.164
 3306POPC   C1A43395  32.211  39.986   6.464
 3306POPC   D2A43396  32.292  39.960   6.764
 3306POPC   C3A43397  32.280  40.018   7.064
 3306POPC   C4A43398  32.265  40.037   7.364
 3306POPC   C1B43399  32.072  39.890   6.464
 3306POPC   C2B43400  32.015  39.858   6.764
 3306POPC   C3B43401  32.090  39.869   7.064
 3306POPC   C4B43402  32.023  39.837   7.364
 3307POPC   NC343403  37.722  31.515   5.564
 3307POPC   PO443404  37.697  31.457   5.864
 3307POPC   GL143405  37.659  31.457   6.164
 3307POPC   GL243406  37.748  31.337   6.164
 3307POPC   C1A43407  37.727  31.504   6.464
 3307POPC   D2A43408  37.654  31.489   6.764
 3307POPC   C3A43409  37.679  31.497   7.064
 3307POPC   C4A43410  37.660  31.473   7.364
 3307POPC   C1B43411  37.814  31.266   6.464
 3307POPC   C2B43412  37.834  31.237   6.764
 3307POPC   C3B43413  37.811  31.265   7.064
 3307POPC   C4B43414  37.819  31.248   7.364
 3308POPC   NC343415  32.976  12.030   5.564
 3308POPC   PO443416  33.012  12.112   5.864
 3308POPC   GL143417  33.065  12.114   6.164
 3308POPC   GL243418  33.124  12.220   6.164
 3308POPC   C1A43419  33.036  12.040   6.464
 3308POPC   D2A43420  32.975  12.119   6.764
 3308POPC   C3A43421  33.063  12.070   7.064
 3308POPC   C4A43422  33.022  12.091   7.364
 3308POPC   C1B43423  33.183  12.257   6.464
 3308POPC   C2B43424  33.136  12.320   6.764
 3308POPC   C3B43425  33.180  12.289   7.064
 3308POPC   C4B43426  33.107  12.273   7.364
 3309POPC   NC343427  23.740  24.444   5.564
 3309POPC   PO443428  23.731  24.470   5.864
 3309POPC   GL143429  23.720  24.442   6.164
 3309POPC   GL243430  23.651  24.357   6.164
 3309POPC   C1A43431  23.724  24.498   6.464
 3309POPC   D2A43432  23.724  24.460   6.764
 3309POPC   C3A43433  23.671  24.475   7.064
 3309POPC   C4A43434  23.668  24.527   7.364
 3309POPC   C1B43435  23.715  24.223   6.464
 3309POPC   C2B43436  23.667  24.213   6.764
 3309POPC   C3B43437  23.712  24.215   7.064
 3309POPC   C4B43438  23.679  24.205   7.364
 3310POPC   NC343439  36.898  27.640   5.564
 3310POPC   PO443440  36.866  27.564   5.864
 3310POPC   GL143441  36.854  27.583   6.164
 3310POPC   GL243442  36.947  27.425   6.164
 3310POPC   C1A43443  36.937  27.626   6.464
 3310POPC   D2A43444  36.920  27.629   6.764
 3310POPC   C3A43445  36.922  27.611   7.064
 3310POPC   C4A43446  36.881  27.583   7.364
 3310POPC   C1B43447  37.006  27.398   6.464
 3310POPC   C2B43448  36.924  27.394   6.764
 3310POPC   C3B43449  36.950  27.397   7.064
 3310POPC   C4B43450  36.968  27.348   7.364
 3311POPC   NC343451  14.445  33.775   5.564
 3311POPC   PO443452  14.372  33.803   5.864
 3311POPC   GL143453  14.413  33.766   6.164
 3311POPC   GL243454  14.416  33.922   6.164
 3311POPC   C1A43455  14.441  33.845   6.464
 3311POPC   D2A43456  14.412  33.814   6.764
 3311POPC   C3A43457  14.438  33.813   7.064
 3311POPC   C4A43458  14.373  33.771   7.364
 3311POPC   C1B43459  14.477  34.033   6.464
 3311POPC   C2B43460  14.469  34.037   6.764
 3311POPC   C3B43461  14.445  34.010   7.064
 3311POPC   C4B43462  14.457  34.085   7.364
 3312POPC   NC343463   9.753  12.860   5.564
 3312POPC   PO443464   9.771  12.811   5.864
 3312POPC   GL143465   9.732  12.870   6.164
 3312POPC   GL243466   9.632  12.955   6.164
 3312POPC   C1A43467   9.791  12.814   6.464
 3312POPC   D2A43468   9.756  12.832   6.764
 3312POPC   C3A43469   9.763  12.829   7.064
 3312POPC   C4A43470   9.775  12.823   7.364
 3312POPC   C1B43471   9.569  13.028   6.464
 3312POPC   C2B43472   9.572  12.946   6.764
 3312POPC   C3B43473   9.565  12.961   7.064
 3312POPC   C4B43474   9.534  12.992   7.364
 3313POPC   NC343475  20.658   8.172   5.564
 3313POPC   PO443476  20.651   8.244   5.864
 3313POPC   GL143477  20.572   8.238   6.164
 3313POPC   GL243478  20.583   8.050   6.164
 3313POPC   C1A43479  20.582   8.237   6.464
 3313POPC   D2A43480  20.598   8.235   6.764
 3313POPC   C3A43481  20.598   8.225   7.064
 3313POPC   C4A43482  20.603   8.179   7.364
 3313POPC   C1B43483  20.577   7.903   6.464
 3313POPC   C2B43484  20.656   7.932   6.764
 3313POPC   C3B43485  20.636   7.951   7.064
 3313POPC   C4B43486  20.603   7.960   7.364
 3314POPC   NC343487  28.360   9.001   5.564
 3314POPC   PO443488  28.342   8.988   5.864
 3314POPC   GL143489  28.387   8.939   6.164
 3314POPC   GL243490  28.451   9.022   6.164
 3314POPC   C1A43491  28.353   9.012   6.464
 3314POPC   D2A43492  28.401   8.971   6.764
 3314POPC   C3A43493  28.345   8.960   7.064
 3314POPC   C4A43494  28.392   9.000   7.364
 3314POPC   C1B43495  28.526   9.181   6.464
 3314POPC   C2B43496  28.569   9.093   6.764
 3314POPC   C3B43497  28.592   9.187   7.064
 3314POPC   C4B43498  28.585   9.115   7.364
 3315POPC   NC343499   8.969  38.409   5.564
 3315POPC   PO443500   8.971  38.468   5.864
 3315POPC   GL143501   8.950  38.419   6.164
 3315POPC   GL243502   9.011  38.563   6.164
 3315POPC   C1A43503   8.986  38.498   6.464
 3315POPC   D2A43504   9.015  38.435   6.764
 3315POPC   C3A43505   8.936  38.463   7.064
 3315POPC   C4A43506   9.019  38.472   7.364
 3315POPC   C1B43507   9.119  38.643   6.464
 3315POPC   C2B43508   9.098  38.611   6.764
 3315POPC   C3B43509   9.162  38.681   7.064
 3315POPC   C4B43510   9.129  38.646   7.364
 3316POPC   NC343511   9.749  19.799   5.564
 3316POPC   PO443512   9.755  19.841   5.864
 3316POPC   GL143513   9.763  19.859   6.164
 3316POPC   GL243514   9.893  19.851   6.164
 3316POPC   C1A43515   9.778  19.868   6.464
 3316POPC   D2A43516   9.747  19.827   6.764
 3316POPC   C3A43517   9.764  19.842   7.064
 3316POPC   C4A43518   9.751  19.798   7.364
 3316POPC   C1B43519  10.026  19.930   6.464
 3316POPC   C2B43520   9.985  19.860   6.764
 3316POPC   C3B43521  10.025  19.893   7.064
 3316POPC   C4B43522   9.978  19.945   7.364
 3317POPC   NC343523  12.058  25.280   5.564
 3317POPC   PO443524  12.104  25.276   5.864
 3317POPC   GL143525  12.104  25.300   6.164
 3317POPC   GL243526  12.135  25.148   6.164
 3317POPC   C1A43527  12.121  25.226   6.464
 3317POPC   D2A43528  12.074  25.254   6.764
 3317POPC   C3A43529  12.076  25.293   7.064
 3317POPC   C4A43530  12.091  25.291   7.364
 3317POPC   C1B43531  12.199  25.046   6.464
 3317POPC   C2B43532  12.166  25.094   6.764
 3317POPC   C3B43533  12.165  25.013   7.064
 3317POPC   C4B43534  12.175  25.023   7.364
 3318POPC   NC343535  21.385   5.878   5.564
 3318POPC   PO443536  21.421   5.838   5.864
 3318POPC   GL143537  21.355   5.878   6.164
 3318POPC   GL243538  21.250   5.994   6.164
 3318POPC   C1A43539  21.341   5.825   6.464
 3318POPC   D2A43540  21.366   5.822   6.764
 3318POPC   C3A43541  21.359   5.829   7.064
 3318POPC   C4A43542  21.418   5.848   7.364
 3318POPC   C1B43543  21.211   6.049   6.464
 3318POPC   C2B43544  21.211   6.002   6.764
 3318POPC   C3B43545  21.154   5.994   7.064
 3318POPC   C4B43546  21.225   6.036   7.364
 3319POPC   NC343547  31.434  29.162   5.564
 3319POPC   PO443548  31.455  29.176   5.864
 3319POPC   GL143549  31.493  29.114   6.164
 3319POPC   GL243550  31.344  29.070   6.164
 3319POPC   C1A43551  31.493  29.138   6.464
 3319POPC   D2A43552  31.425  29.137   6.764
 3319POPC   C3A43553  31.486  29.134   7.064
 3319POPC   C4A43554  31.483  29.168   7.364
 3319POPC   C1B43555  31.271  29.077   6.464
 3319POPC   C2B43556  31.195  29.057   6.764
 3319POPC   C3B43557  31.271  29.097   7.064
 3319POPC   C4B43558  31.237  29.064   7.364
 3320POPC   NC343559  34.542  40.005   5.564
 3320POPC   PO443560  34.577  40.002   5.864
 3320POPC   GL143561  34.599  40.042   6.164
 3320POPC   GL243562  34.645  40.124   6.164
 3320POPC   C1A43563  34.532  39.971   6.464
 3320POPC   D2A43564  34.591  39.994   6.764
 3320POPC   C3A43565  34.541  40.034   7.064
 3320POPC   C4A43566  34.539  40.043   7.364
 3320POPC   C1B43567  34.774  40.150   6.464
 3320POPC   C2B43568  34.700  40.200   6.764
 3320POPC   C3B43569  34.757  40.194   7.064
 3320POPC   C4B43570  34.768  40.174   7.364
 3321POPC   NC343571   5.123  26.012   5.564
 3321POPC   PO443572   5.066  26.086   5.864
 3321POPC   GL143573   5.105  26.013   6.164
 3321POPC   GL243574   5.123  26.213   6.164
 3321POPC   C1A43575   5.066  26.047   6.464
 3321POPC   D2A43576   5.140  26.054   6.764
 3321POPC   C3A43577   5.060  26.022   7.064
 3321POPC   C4A43578   5.095  26.017   7.364
 3321POPC   C1B43579   5.170  26.293   6.464
 3321POPC   C2B43580   5.170  26.247   6.764
 3321POPC   C3B43581   5.166  26.284   7.064
 3321POPC   C4B43582   5.139  26.294   7.364
 3322POPC   NC343583  11.311  10.550   5.564
 3322POPC   PO443584  11.261  10.484   5.864
 3322POPC   GL143585  11.296  10.480   6.164
 3322POPC   GL243586  11.207  10.505   6.164
 3322POPC   C1A43587  11.285  10.490   6.464
 3322POPC   D2A43588  11.265  10.479   6.764
 3322POPC   C3A43589  11.340  10.530   7.064
 3322POPC   C4A43590  11.287  10.545   7.364
 3322POPC   C1B43591  11.014  10.532   6.464
 3322POPC   C2B43592  11.077  10.484   6.764
 3322POPC   C3B43593  11.075  10.549   7.064
 3322POPC   C4B43594  11.075  10.550   7.364
 3323POPC   NC343595  19.827  43.894   5.564
 3323POPC   PO443596  19.801  43.892   5.864
 3323POPC   GL143597  19.874  43.894   6.164
 3323POPC   GL243598  19.860  43.773   6.164
 3323POPC   C1A43599  19.798  43.838   6.464
 3323POPC   D2A43600  19.880  43.904   6.764
 3323POPC   C3A43601  19.870  43.905   7.064
 3323POPC   C4A43602  19.864  43.917   7.364
 3323POPC   C1B43603  19.945  43.698   6.464
 3323POPC   C2B43604  19.997  43.684   6.764
 3323POPC   C3B43605  19.970  43.732   7.064
 3323POPC   C4B43606  20.032  43.721   7.364
 3324POPC   NC343607  18.292  15.991   5.564
 3324POPC   PO443608  18.304  15.952   5.864
 3324POPC   GL143609  18.248  16.004   6.164
 3324POPC   GL243610  18.384  16.063   6.164
 3324POPC   C1A43611  18.265  15.928   6.464
 3324POPC   D2A43612  18.245  15.965   6.764
 3324POPC   C3A43613  18.289  15.991   7.064
 3324POPC   C4A43614  18.309  15.989   7.364
 3324POPC   C1B43615  18.538  16.090   6.464
 3324POPC   C2B43616  18.519  16.067   6.764
 3324POPC   C3B43617  18.531  16.065   7.064
 3324POPC   C4B43618  18.480  16.046   7.364
 3325POPC   NC343619  35.402  36.127   5.564
 3325POPC   PO443620  35.350  36.086   5.864
 3325POPC   GL143621  35.398  36.161   6.164
 3325POPC   GL243622  35.186  36.128   6.164
 3325POPC   C1A43623  35.312  36.143   6.464
 3325POPC   D2A43624  35.377  36.090   6.764
 3325POPC   C3A43625  35.388  36.155   7.064
 3325POPC   C4A43626  35.308  36.158   7.364
 3325POPC   C1B43627  35.104  36.045   6.464
 3325POPC   C2B43628  35.145  36.049   6.764
 3325POPC   C3B43629  35.094  36.114   7.064
 3325POPC   C4B43630  35.129  36.048   7.364
 3326POPC   NC343631  34.599  44.710   5.564
 3326POPC   PO443632  34.613  44.656   5.864
 3326POPC   GL143633  34.608  44.681   6.164
 3326POPC   GL243634  34.528  44.581   6.164
 3326POPC   C1A43635  34.578  44.709   6.464
 3326POPC   D2A43636  34.544  44.682   6.764
 3326POPC   C3A43637  34.532  44.643   7.064
 3326POPC   C4A43638  34.619  44.696   7.364
 3326POPC   C1B43639  34.548  44.402   6.464
 3326POPC   C2B43640  34.584  44.443   6.764
 3326POPC   C3B43641  34.598  44.374   7.064
 3326POPC   C4B43642  34.529  44.373   7.364
 3327POPC   NC343643  31.449   8.218   5.564
 3327POPC   PO443644  31.424   8.221   5.864
 3327POPC   GL143645  31.427   8.154   6.164
 3327POPC   GL243646  31.437   8.080   6.164
 3327POPC   C1A43647  31.508   8.206   6.464
 3327POPC   D2A43648  31.423   8.219   6.764
 3327POPC   C3A43649  31.500   8.200   7.064
 3327POPC   C4A43650  31.452   8.182   7.364
 3327POPC   C1B43651  31.379   7.976   6.464
 3327POPC   C2B43652  31.374   7.989   6.764
 3327POPC   C3B43653  31.306   7.941   7.064
 3327POPC   C4B43654  31.352   7.949   7.364
 3328POPC   NC343655  40.803  27.615   5.564
 3328POPC   PO443656  40.813  27.610   5.864
 3328POPC   GL143657  40.764  27.604   6.164
 3328POPC   GL243658  40.819  27.679   6.164
 3328POPC   C1A43659  40.794  27.607   6.464
 3328POPC   D2A43660  40.760  27.598   6.764
 3328POPC   C3A43661  40.793  27.612   7.064
 3328POPC   C4A43662  40.787  27.554   7.364
 3328POPC   C1B43663  40.894  27.801   6.464
 3328POPC   C2B43664  40.941  27.767   6.764
 3328POPC   C3B43665  40.928  27.802   7.064
 3328POPC   C4B43666  40.875  27.779   7.364
 3329POPC   NC343667  42.336   1.182   5.564
 3329POPC   PO443668  42.346   1.224   5.864
 3329POPC   GL143669  42.365   1.184   6.164
 3329POPC   GL243670  42.395   1.314   6.164
 3329POPC   C1A43671  42.370   1.172   6.464
 3329POPC   D2A43672  42.330   1.171   6.764
 3329POPC   C3A43673  42.307   1.217   7.064
 3329POPC   C4A43674  42.322   1.199   7.364
 3329POPC   C1B43675  42.533   1.368   6.464
 3329POPC   C2B43676  42.537   1.439   6.764
 3329POPC   C3B43677  42.509   1.347   7.064
 3329POPC   C4B43678  42.501   1.399   7.364
 3330POPC   NC343679   3.566  18.311   5.564
 3330POPC   PO443680   3.558  18.298   5.864
 3330POPC   GL143681   3.584  18.312   6.164
 3330POPC   GL243682   3.471  18.167   6.164
 3330POPC   C1A43683   3.492  18.314   6.464
 3330POPC   D2A43684   3.564  18.258   6.764
 3330POPC   C3A43685   3.497  18.247   7.064
 3330POPC   C4A43686   3.514  18.283   7.364
 3330POPC   C1B43687   3.441  18.025   6.464
 3330POPC   C2B43688   3.374  18.039   6.764
 3330POPC   C3B43689   3.434  18.108   7.064
 3330POPC   C4B43690   3.426  18.099   7.364
 3331POPC   NC343691   7.416  20.570   5.564
 3331POPC   PO443692   7.389  20.630   5.864
 3331POPC   GL143693   7.415  20.563   6.164
 3331POPC   GL243694   7.344  20.451   6.164
 3331POPC   C1A43695   7.426  20.611   6.464
 3331POPC   D2A43696   7.430  20.619   6.764
 3331POPC   C3A43697   7.381  20.600   7.064
 3331POPC   C4A43698   7.439  20.600   7.364
 3331POPC   C1B43699   7.274  20.408   6.464
 3331POPC   C2B43700   7.291  20.416   6.764
 3331POPC   C3B43701   7.277  20.371   7.064
 3331POPC   C4B43702   7.306  20.403   7.364
 3332POPC   NC343703  36.907   8.213   5.564
 3332POPC   PO443704  36.893   8.208   5.864
 3332POPC   GL143705  36.935   8.214   6.164
 3332POPC   GL243706  36.997   8.146   6.164
 3332POPC   C1A43707  36.950   8.172   6.464
 3332POPC   D2A43708  36.898   8.168   6.764
 3332POPC   C3A43709  36.864   8.223   7.064
 3332POPC   C4A43710  36.898   8.216   7.364
 3332POPC   C1B43711  37.186   8.119   6.464
 3332POPC   C2B43712  37.173   8.079   6.764
 3332POPC   C3B43713  37.089   8.084   7.064
 3332POPC   C4B43714  37.130   8.125   7.364
 3333POPC   NC343715   1.989  21.405   5.564
 3333POPC   PO443716   1.993  21.433   5.864
 3333POPC   GL143717   1.999  21.339   6.164
 3333POPC   GL243718   2.121  21.389   6.164
 3333POPC   C1A43719   1.969  21.354   6.464
 3333POPC   D2A43720   1.981  21.337   6.764
 3333POPC   C3A43721   2.000  21.345   7.064
 3333POPC   C4A43722   2.017  21.408   7.364
 3333POPC   C1B43723   2.287  21.373   6.464
 3333POPC   C2B43724   2.230  21.449   6.764
 3333POPC   C3B43725   2.283  21.447   7.064
 3333POPC   C4B43726   2.232  21.430   7.364
 3334POPC   NC343727  28.368   2.747   5.564
 3334POPC   PO443728  28.334   2.741   5.864
 3334POPC   GL143729  28.396   2.735   6.164
 3334POPC   GL243730  28.473   2.795   6.164
 3334POPC   C1A43731  28.418   2.758   6.464
 3334POPC   D2A43732  28.359   2.756   6.764
 3334POPC   C3A43733  28.389   2.807   7.064
 3334POPC   C4A43734  28.351   2.742   7.364
 3334POPC   C1B43735  28.568   2.866   6.464
 3334POPC   C2B43736  28.582   2.845   6.764
 3334POPC   C3B43737  28.609   2.801   7.064
 3334POPC   C4B43738  28.583   2.841   7.364
 3335POPC   NC343739  27.612  29.157   5.564
 3335POPC   PO443740  27.575  29.168   5.864
 3335POPC   GL143741  27.571  29.130   6.164
 3335POPC   GL243742  27.521  29.068   6.164
 3335POPC   C1A43743  27.614  29.104   6.464
 3335POPC   D2A43744  27.638  29.169   6.764
 3335POPC   C3A43745  27.608  29.115   7.064
 3335POPC   C4A43746  27.620  29.139   7.364
 3335POPC   C1B43747  27.377  29.055   6.464
 3335POPC   C2B43748  27.307  29.077   6.764
 3335POPC   C3B43749  27.394  29.037   7.064
 3335POPC   C4B43750  27.340  29.077   7.364
 3336POPC   NC343751  31.435  37.682   5.564
 3336POPC   PO443752  31.430  37.680   5.864
 3336POPC   GL143753  31.448  37.717   6.164
 3336POPC   GL243754  31.341  37.622   6.164
 3336POPC   C1A43755  31.509  37.697   6.464
 3336POPC   D2A43756  31.500  37.727   6.764
 3336POPC   C3A43757  31.496  37.676   7.064
 3336POPC   C4A43758  31.450  37.689   7.364
 3336POPC   C1B43759  31.212  37.633   6.464
 3336POPC   C2B43760  31.214  37.651   6.764
 3336POPC   C3B43761  31.208  37.665   7.064
 3336POPC   C4B43762  31.229  37.623   7.364
 3337POPC   NC343763  14.442  10.516   5.564
 3337POPC   PO443764  14.405  10.524   5.864
 3337POPC   GL143765  14.404  10.506   6.164
 3337POPC   GL243766  14.342  10.655   6.164
 3337POPC   C1A43767  14.447  10.544   6.464
 3337POPC   D2A43768  14.405  10.486   6.764
 3337POPC   C3A43769  14.436  10.514   7.064
 3337POPC   C4A43770  14.405  10.525   7.364
 3337POPC   C1B43771  14.249  10.683   6.464
 3337POPC   C2B43772  14.245  10.698   6.764
 3337POPC   C3B43773  14.184  10.706   7.064
 3337POPC   C4B43774  14.267  10.708   7.364
 3338POPC   NC343775  30.712  23.721   5.564
 3338POPC   PO443776  30.717  23.744   5.864
 3338POPC   GL143777  30.696  23.696   6.164
 3338POPC   GL243778  30.706  23.548   6.164
 3338POPC   C1A43779  30.705  23.667   6.464
 3338POPC   D2A43780  30.734  23.720   6.764
 3338POPC   C3A43781  30.729  23.745   7.064
 3338POPC   C4A43782  30.656  23.736   7.364
 3338POPC   C1B43783  30.686  23.513   6.464
 3338POPC   C2B43784  30.750  23.466   6.764
 3338POPC   C3B43785  30.767  23.514   7.064
 3338POPC   C4B43786  30.713  23.468   7.364
 3339POPC   NC343787  42.335  33.008   5.564
 3339POPC   PO443788  42.372  33.066   5.864
 3339POPC   GL143789  42.341  33.022   6.164
 3339POPC   GL243790  42.454  32.944   6.164
 3339POPC   C1A43791  42.310  33.045   6.464
 3339POPC   D2A43792  42.350  33.016   6.764
 3339POPC   C3A43793  42.305  33.029   7.064
 3339POPC   C4A43794  42.292  33.050   7.364
 3339POPC   C1B43795  42.577  32.926   6.464
 3339POPC   C2B43796  42.568  32.905   6.764
 3339POPC   C3B43797  42.585  32.917   7.064
 3339POPC   C4B43798  42.585  32.915   7.364
 3340POPC   NC343799  21.383  40.774   5.564
 3340POPC   PO443800  21.418  40.800   5.864
 3340POPC   GL143801  21.415  40.812   6.164
 3340POPC   GL243802  21.320  40.747   6.164
 3340POPC   C1A43803  21.400  40.750   6.464
 3340POPC   D2A43804  21.414  40.765   6.764
 3340POPC   C3A43805  21.418  40.785   7.064
 3340POPC   C4A43806  21.428  40.743   7.364
 3340POPC   C1B43807  21.121  40.690   6.464
 3340POPC   C2B43808  21.163  40.683   6.764
 3340POPC   C3B43809  21.157  40.666   7.064
 3340POPC   C4B43810  21.149  40.683   7.364
 3341POPC   NC343811  22.939  15.917   5.564
 3341POPC   PO443812  22.909  15.906   5.864
 3341POPC   GL143813  22.946  15.970   6.164
 3341POPC   GL243814  23.040  15.902   6.164
 3341POPC   C1A43815  22.922  15.946   6.464
 3341POPC   D2A43816  22.988  15.971   6.764
 3341POPC   C3A43817  22.976  15.982   7.064
 3341POPC   C4A43818  22.888  15.915   7.364
 3341POPC   C1B43819  23.125  15.762   6.464
 3341POPC   C2B43820  23.139  15.762   6.764
 3341POPC   C3B43821  23.116  15.742   7.064
 3341POPC   C4B43822  23.103  15.807   7.364
 3342POPC   NC343823  33.829  41.604   5.564
 3342POPC   PO443824  33.817  41.538   5.864
 3342POPC   GL143825  33.792  41.556   6.164
 3342POPC   GL243826  33.914  41.493   6.164
 3342POPC   C1A43827  33.763  41.554   6.464
 3342POPC   D2A43828  33.807  41.520   6.764
 3342POPC   C3A43829  33.845  41.565   7.064
 3342POPC   C4A43830  33.822  41.597   7.364
 3342POPC   C1B43831  33.951  41.371   6.464
 3342POPC   C2B43832  33.955  41.357   6.764
 3342POPC   C3B43833  33.913  41.378   7.064
 3342POPC   C4B43834  33.970  41.340   7.364
 3343POPC   NC343835  40.745  19.047   5.564
 3343POPC   PO443836  40.822  19.055   5.864
 3343POPC   GL143837  40.739  19.085   6.164
 3343POPC   GL243838  40.672  19.035   6.164
 3343POPC   C1A43839  40.784  19.049   6.464
 3343POPC   D2A43840  40.824  19.027   6.764
 3343POPC   C3A43841  40.736  19.085   7.064
 3343POPC   C4A43842  40.807  19.101   7.364
 3343POPC   C1B43843  40.530  19.079   6.464
 3343POPC   C2B43844  40.510  19.078   6.764
 3343POPC   C3B43845  40.580  19.099   7.064
 3343POPC   C4B43846  40.531  19.034   7.364
 3344POPC   NC343847  20.631  43.108   5.564
 3344POPC   PO443848  20.579  43.112   5.864
 3344POPC   GL143849  20.577  43.094   6.164
 3344POPC   GL243850  20.701  43.024   6.164
 3344POPC   C1A43851  20.658  43.101   6.464
 3344POPC   D2A43852  20.580  43.095   6.764
 3344POPC   C3A43853  20.568  43.117   7.064
 3344POPC   C4A43854  20.608  43.134   7.364
 3344POPC   C1B43855  20.784  42.877   6.464
 3344POPC   C2B43856  20.750  42.856   6.764
 3344POPC   C3B43857  20.768  42.855   7.064
 3344POPC   C4B43858  20.731  42.937   7.364
 3345POPC   NC343859  36.897   9.016   5.564
 3345POPC   PO443860  36.874   8.970   5.864
 3345POPC   GL143861  36.906   8.981   6.164
 3345POPC   GL243862  36.896   8.830   6.164
 3345POPC   C1A43863  36.919   8.962   6.464
 3345POPC   D2A43864  36.895   9.016   6.764
 3345POPC   C3A43865  36.913   8.990   7.064
 3345POPC   C4A43866  36.873   8.938   7.364
 3345POPC   C1B43867  36.949   8.767   6.464
 3345POPC   C2B43868  36.942   8.681   6.764
 3345POPC   C3B43869  36.923   8.674   7.064
 3345POPC   C4B43870  36.956   8.727   7.364
 3346POPC   NC343871   1.255   0.456   5.564
 3346POPC   PO443872   1.202   0.403   5.864
 3346POPC   GL143873   1.192   0.402   6.164
 3346POPC   GL243874   1.266   0.528   6.164
 3346POPC   C1A43875   1.167   0.454   6.464
 3346POPC   D2A43876   1.210   0.388   6.764
 3346POPC   C3A43877   1.206   0.480   7.064
 3346POPC   C4A43878   1.216   0.480   7.364
 3346POPC   C1B43879   1.276   0.675   6.464
 3346POPC   C2B43880   1.283   0.652   6.764
 3346POPC   C3B43881   1.302   0.659   7.064
 3346POPC   C4B43882   1.304   0.644   7.364
 3347POPC   NC343883  42.344  29.119   5.564
 3347POPC   PO443884  42.349  29.139   5.864
 3347POPC   GL143885  42.299  29.146   6.164
 3347POPC   GL243886  42.203  29.138   6.164
 3347POPC   C1A43887  42.368  29.148   6.464
 3347POPC   D2A43888  42.319  29.131   6.764
 3347POPC   C3A43889  42.372  29.183   7.064
 3347POPC   C4A43890  42.296  29.180   7.364
 3347POPC   C1B43891  42.086  29.167   6.464
 3347POPC   C2B43892  42.133  29.156   6.764
 3347POPC   C3B43893  42.075  29.104   7.064
 3347POPC   C4B43894  42.099  29.104   7.364
 3348POPC   NC343895   7.401  10.569   5.564
 3348POPC   PO443896   7.385  10.554   5.864
 3348POPC   GL143897   7.427  10.535   6.164
 3348POPC   GL243898   7.406  10.425   6.164
 3348POPC   C1A43899   7.459  10.531   6.464
 3348POPC   D2A43900   7.408  10.573   6.764
 3348POPC   C3A43901   7.466  10.571   7.064
 3348POPC   C4A43902   7.412  10.492   7.364
 3348POPC   C1B43903   7.424  10.304   6.464
 3348POPC   C2B43904   7.404  10.292   6.764
 3348POPC   C3B43905   7.394  10.249   7.064
 3348POPC   C4B43906   7.355  10.235   7.364
 3349POPC   NC343907   4.298   8.221   5.564
 3349POPC   PO443908   4.354   8.198   5.864
 3349POPC   GL143909   4.339   8.147   6.164
 3349POPC   GL243910   4.470   8.153   6.164
 3349POPC   C1A43911   4.317   8.229   6.464
 3349POPC   D2A43912   4.312   8.190   6.764
 3349POPC   C3A43913   4.331   8.200   7.064
 3349POPC   C4A43914   4.318   8.221   7.364
 3349POPC   C1B43915   4.534   8.144   6.464
 3349POPC   C2B43916   4.533   8.166   6.764
 3349POPC   C3B43917   4.535   8.144   7.064
 3349POPC   C4B43918   4.545   8.208   7.364
 3350POPC   NC343919  26.847  38.429   5.564
 3350POPC   PO443920  26.821  38.441   5.864
 3350POPC   GL143921  26.792  38.408   6.164
 3350POPC   GL243922  26.863  38.597   6.164
 3350POPC   C1A43923  26.790  38.485   6.464
 3350POPC   D2A43924  26.811  38.419   6.764
 3350POPC   C3A43925  26.836  38.494   7.064
 3350POPC   C4A43926  26.824  38.492   7.364
 3350POPC   C1B43927  26.891  38.698   6.464
 3350POPC   C2B43928  26.980  38.683   6.764
 3350POPC   C3B43929  26.967  38.635   7.064
 3350POPC   C4B43930  26.938  38.624   7.364
 3351POPC   NC343931  23.758  38.483   5.564
 3351POPC   PO443932  23.741  38.446   5.864
 3351POPC   GL143933  23.665  38.486   6.164
 3351POPC   GL243934  23.591  38.393   6.164
 3351POPC   C1A43935  23.689  38.418   6.464
 3351POPC   D2A43936  23.758  38.447   6.764
 3351POPC   C3A43937  23.664  38.413   7.064
 3351POPC   C4A43938  23.757  38.485   7.364
 3351POPC   C1B43939  23.435  38.385   6.464
 3351POPC   C2B43940  23.428  38.428   6.764
 3351POPC   C3B43941  23.499  38.397   7.064
 3351POPC   C4B43942  23.468  38.410   7.364
 3352POPC   NC343943   1.258  16.747   5.564
 3352POPC   PO443944   1.234  16.692   5.864
 3352POPC   GL143945   1.258  16.703   6.164
 3352POPC   GL243946   1.099  16.794   6.164
 3352POPC   C1A43947   1.186  16.695   6.464
 3352POPC   D2A43948   1.196  16.685   6.764
 3352POPC   C3A43949   1.199  16.733   7.064
 3352POPC   C4A43950   1.187  16.701   7.364
 3352POPC   C1B43951   0.941  16.812   6.464
 3352POPC   C2B43952   0.930  16.761   6.764
 3352POPC   C3B43953   1.011  16.790   7.064
 3352POPC   C4B43954   0.982  16.779   7.364
 3353POPC   NC343955  14.410   5.872   5.564
 3353POPC   PO443956  14.394   5.846   5.864
 3353POPC   GL143957  14.403   5.907   6.164
 3353POPC   GL243958  14.326   5.928   6.164
 3353POPC   C1A43959  14.405   5.841   6.464
 3353POPC   D2A43960  14.375   5.822   6.764
 3353POPC   C3A43961  14.363   5.820   7.064
 3353POPC   C4A43962  14.410   5.903   7.364
 3353POPC   C1B43963  14.244   6.062   6.464
 3353POPC   C2B43964  14.259   6.033   6.764
 3353POPC   C3B43965  14.262   6.114   7.064
 3353POPC   C4B43966  14.279   6.109   7.364
 3354POPC   NC343967  19.854   4.342   5.564
 3354POPC   PO443968  19.841   4.361   5.864
 3354POPC   GL143969  19.881   4.274   6.164
 3354POPC   GL243970  19.901   4.238   6.164
 3354POPC   C1A43971  19.843   4.343   6.464
 3354POPC   D2A43972  19.827   4.366   6.764
 3354POPC   C3A43973  19.829   4.291   7.064
 3354POPC   C4A43974  19.827   4.308   7.364
 3354POPC   C1B43975  20.061   4.193   6.464
 3354POPC   C2B43976  20.045   4.152   6.764
 3354POPC   C3B43977  20.044   4.188   7.064
 3354POPC   C4B43978  20.086   4.171   7.364
 3355POPC   NC343979   7.376  39.196   5.564
 3355POPC   PO443980   7.427  39.281   5.864
 3355POPC   GL143981   7.469  39.270   6.164
 3355POPC   GL243982   7.566  39.155   6.164
 3355POPC   C1A43983   7.458  39.246   6.464
 3355POPC   D2A43984   7.377  39.199   6.764
 3355POPC   C3A43985   7.375  39.256   7.064
 3355POPC   C4A43986   7.382  39.192   7.364
 3355POPC   C1B43987   7.622  39.081   6.464
 3355POPC   C2B43988   7.678  39.106   6.764
 3355POPC   C3B43989   7.656  39.148   7.064
 3355POPC   C4B43990   7.639  39.078   7.364
 3356POPC   NC343991  30.672  31.514   5.564
 3356POPC   PO443992  30.741  31.460   5.864
 3356POPC   GL143993  30.684  31.521   6.164
 3356POPC   GL243994  30.589  31.454   6.164
 3356POPC   C1A43995  30.668  31.434   6.464
 3356POPC   D2A43996  30.667  31.499   6.764
 3356POPC   C3A43997  30.687  31.448   7.064
 3356POPC   C4A43998  30.673  31.497   7.364
 3356POPC   C1B43999  30.439  31.365   6.464
 3356POPC   C2B44000  30.426  31.401   6.764
 3356POPC   C3B44001  30.410  31.426   7.064
 3356POPC   C4B44002  30.427  31.440   7.364
 3357POPC   NC344003  25.308  36.114   5.564
 3357POPC   PO444004  25.310  36.126   5.864
 3357POPC   GL144005  25.233  36.113   6.164
 3357POPC   GL244006  25.107  36.120   6.164
 3357POPC   C1A44007  25.286  36.163   6.464
 3357POPC   D2A44008  25.300  36.157   6.764
 3357POPC   C3A44009  25.229  36.103   7.064
 3357POPC   C4A44010  25.293  36.101   7.364
 3357POPC   C1B44011  25.054  36.135   6.464
 3357POPC   C2B44012  25.027  36.127   6.764
 3357POPC   C3B44013  24.991  36.091   7.064
 3357POPC   C4B44014  25.046  36.136   7.364
 3358POPC   NC344015  11.328  23.721   5.564
 3358POPC   PO444016  11.275  23.735   5.864
 3358POPC   GL144017  11.303  23.728   6.164
 3358POPC   GL244018  11.383  23.774   6.164
 3358POPC   C1A44019  11.306  23.728   6.464
 3358POPC   D2A44020  11.275  23.711   6.764
 3358POPC   C3A44021  11.308  23.760   7.064
 3358POPC   C4A44022  11.320  23.725   7.364
 3358POPC   C1B44023  11.466  23.929   6.464
 3358POPC   C2B44024  11.508  23.903   6.764
 3358POPC   C3B44025  11.472  23.864   7.064
 3358POPC   C4B44026  11.491  23.876   7.364
 3359POPC   NC344027  40.749  15.176   5.564
 3359POPC   PO444028  40.797  15.207   5.864
 3359POPC   GL144029  40.789  15.181   6.164
 3359POPC   GL244030  40.645  15.215   6.164
 3359POPC   C1A44031  40.809  15.222   6.464
 3359POPC   D2A44032  40.740  15.188   6.764
 3359POPC   C3A44033  40.773  15.190   7.064
 3359POPC   C4A44034  40.745  15.132   7.364
 3359POPC   C1B44035  40.501  15.140   6.464
 3359POPC   C2B44036  40.552  15.134   6.764
 3359POPC   C3B44037  40.520  15.204   7.064
 3359POPC   C4B44038  40.546  15.160   7.364
 3360POPC   NC344039   7.455  40.026   5.564
 3360POPC   PO444040   7.470  39.996   5.864
 3360POPC   GL144041   7.421  40.045   6.164
 3360POPC   GL244042   7.352  39.915   6.164
 3360POPC   C1A44043   7.391  39.966   6.464
 3360POPC   D2A44044   7.402  40.008   6.764
 3360POPC   C3A44045   7.464  39.977   7.064
 3360POPC   C4A44046   7.387  40.017   7.364
 3360POPC   C1B44047   7.297  39.779   6.464
 3360POPC   C2B44048   7.298  39.763   6.764
 3360POPC   C3B44049   7.303  39.761   7.064
 3360POPC   C4B44050   7.284  39.787   7.364
 3361POPC   NC344051  30.654  32.239   5.564
 3361POPC   PO444052  30.700  32.236   5.864
 3361POPC   GL144053  30.718  32.247   6.164
 3361POPC   GL244054  30.558  32.291   6.164
 3361POPC   C1A44055  30.654  32.297   6.464
 3361POPC   D2A44056  30.654  32.240   6.764
 3361POPC   C3A44057  30.691  32.237   7.064
 3361POPC   C4A44058  30.686  32.213   7.364
 3361POPC   C1B44059  30.509  32.400   6.464
 3361POPC   C2B44060  30.476  32.384   6.764
 3361POPC   C3B44061  30.536  32.413   7.064
 3361POPC   C4B44062  30.462  32.377   7.364
 3362POPC   NC344063  40.018   1.952   5.564
 3362POPC   PO444064  39.973   1.970   5.864
 3362POPC   GL144065  40.032   1.952   6.164
 3362POPC   GL244066  39.885   2.069   6.164
 3362POPC   C1A44067  40.040   2.039   6.464
 3362POPC   D2A44068  40.019   2.025   6.764
 3362POPC   C3A44069  40.039   1.974   7.064
 3362POPC   C4A44070  39.997   1.955   7.364
 3362POPC   C1B44071  39.777   2.097   6.464
 3362POPC   C2B44072  39.780   2.043   6.764
 3362POPC   C3B44073  39.813   2.077   7.064
 3362POPC   C4B44074  39.803   2.091   7.364
 3363POPC   NC344075  35.399  33.063   5.564
 3363POPC   PO444076  35.335  33.012   5.864
 3363POPC   GL144077  35.384  33.023   6.164
 3363POPC   GL244078  35.352  33.175   6.164
 3363POPC   C1A44079  35.399  33.007   6.464
 3363POPC   D2A44080  35.351  33.040   6.764
 3363POPC   C3A44081  35.359  33.013   7.064
 3363POPC   C4A44082  35.309  32.993   7.364
 3363POPC   C1B44083  35.338  33.280   6.464
 3363POPC   C2B44084  35.387  33.275   6.764
 3363POPC   C3B44085  35.337  33.303   7.064
 3363POPC   C4B44086  35.382  33.321   7.364
 3364POPC   NC344087   1.210  44.638   5.564
 3364POPC   PO444088   1.193  44.648   5.864
 3364POPC   GL144089   1.235  44.613   6.164
 3364POPC   GL244090   1.285  44.569   6.164
 3364POPC   C1A44091   1.216  44.669   6.464
 3364POPC   D2A44092   1.178  44.639   6.764
 3364POPC   C3A44093   1.167  44.667   7.064
 3364POPC   C4A44094   1.262  44.630   7.364
 3364POPC   C1B44095   1.440  44.455   6.464
 3364POPC   C2B44096   1.386  44.458   6.764
 3364POPC   C3B44097   1.409  44.456   7.064
 3364POPC   C4B44098   1.434  44.467   7.364
 3365POPC   NC344099  12.820   5.827   5.564
 3365POPC   PO444100  12.837   5.919   5.864
 3365POPC   GL144101  12.861   5.852   6.164
 3365POPC   GL244102  12.977   5.857   6.164
 3365POPC   C1A44103  12.837   5.894   6.464
 3365POPC   D2A44104  12.866   5.871   6.764
 3365POPC   C3A44105  12.897   5.849   7.064
 3365POPC   C4A44106  12.826   5.844   7.364
 3365POPC   C1B44107  13.130   5.825   6.464
 3365POPC   C2B44108  13.115   5.837   6.764
 3365POPC   C3B44109  13.117   5.905   7.064
 3365POPC   C4B44110  13.067   5.858   7.364
 3366POPC   NC344111   8.172  33.796   5.564
 3366POPC   PO444112   8.206  33.778   5.864
 3366POPC   GL144113   8.207  33.842   6.164
 3366POPC   GL244114   8.198  33.639   6.164
 3366POPC   C1A44115   8.234  33.763   6.464
 3366POPC   D2A44116   8.229  33.847   6.764
 3366POPC   C3A44117   8.174  33.781   7.064
 3366POPC   C4A44118   8.237  33.768   7.364
 3366POPC   C1B44119   8.300  33.566   6.464
 3366POPC   C2B44120   8.279  33.556   6.764
 3366POPC   C3B44121   8.285  33.583   7.064
 3366POPC   C4B44122   8.210  33.581   7.364
 3367POPC   NC344123  22.970  40.777   5.564
 3367POPC   PO444124  22.897  40.805   5.864
 3367POPC   GL144125  22.924  40.752   6.164
 3367POPC   GL244126  23.041  40.707   6.164
 3367POPC   C1A44127  22.983  40.737   6.464
 3367POPC   D2A44128  22.920  40.816   6.764
 3367POPC   C3A44129  22.952  40.766   7.064
 3367POPC   C4A44130  22.898  40.775   7.364
 3367POPC   C1B44131  23.036  40.589   6.464
 3367POPC   C2B44132  23.025  40.591   6.764
 3367POPC   C3B44133  23.021  40.528   7.064
 3367POPC   C4B44134  23.064  40.517   7.364
 3368POPC   NC344135   4.364  26.821   5.564
 3368POPC   PO444136   4.285  26.853   5.864
 3368POPC   GL144137   4.301  26.794   6.164
 3368POPC   GL244138   4.320  26.918   6.164
 3368POPC   C1A44139   4.318  26.787   6.464
 3368POPC   D2A44140   4.347  26.789   6.764
 3368POPC   C3A44141   4.274  26.807   7.064
 3368POPC   C4A44142   4.312  26.797   7.364
 3368POPC   C1B44143   4.257  27.106   6.464
 3368POPC   C2B44144   4.229  27.045   6.764
 3368POPC   C3B44145   4.275  27.081   7.064
 3368POPC   C4B44146   4.307  27.109   7.364
 3369POPC   NC344147  26.059  35.396   5.564
 3369POPC   PO444148  26.012  35.302   5.864
 3369POPC   GL144149  26.063  35.349   6.164
 3369POPC   GL244150  26.145  35.308   6.164
 3369POPC   C1A44151  26.037  35.397   6.464
 3369POPC   D2A44152  26.015  35.342   6.764
 3369POPC   C3A44153  26.080  35.382   7.064
 3369POPC   C4A44154  26.023  35.303   7.364
 3369POPC   C1B44155  26.256  35.326   6.464
 3369POPC   C2B44156  26.332  35.354   6.764
 3369POPC   C3B44157  26.306  35.275   7.064
 3369POPC   C4B44158  26.301  35.302   7.364
 3370POPC   NC344159  39.969   9.708   5.564
 3370POPC   PO444160  40.032   9.719   5.864
 3370POPC   GL144161  40.028   9.762   6.164
 3370POPC   GL244162  40.161   9.791   6.164
 3370POPC   C1A44163  39.994   9.727   6.464
 3370POPC   D2A44164  40.040   9.764   6.764
 3370POPC   C3A44165  40.038   9.787   7.064
 3370POPC   C4A44166  39.967   9.780   7.364
 3370POPC   C1B44167  40.187   9.862   6.464
 3370POPC   C2B44168  40.191   9.830   6.764
 3370POPC   C3B44169  40.242   9.847   7.064
 3370POPC   C4B44170  40.209   9.875   7.364
 3371POPC   NC344171  44.666  32.222   5.564
 3371POPC   PO444172  44.687  32.211   5.864
 3371POPC   GL144173  44.673  32.256   6.164
 3371POPC   GL244174  44.760  32.259   6.164
 3371POPC   C1A44175  44.664  32.217   6.464
 3371POPC   D2A44176  44.708  32.294   6.764
 3371POPC   C3A44177  44.640  32.264   7.064
 3371POPC   C4A44178  44.628  32.263   7.364
 3371POPC   C1B44179  44.898  32.232   6.464
 3371POPC   C2B44180  44.919  32.160   6.764
 3371POPC   C3B44181  44.935  32.170   7.064
 3371POPC   C4B44182  44.921  32.247   7.364
 3372POPC   NC344183  19.824  33.811   5.564
 3372POPC   PO444184  19.822  33.801   5.864
 3372POPC   GL144185  19.838  33.835   6.164
 3372POPC   GL244186  19.835  33.670   6.164
 3372POPC   C1A44187  19.816  33.759   6.464
 3372POPC   D2A44188  19.797  33.782   6.764
 3372POPC   C3A44189  19.795  33.793   7.064
 3372POPC   C4A44190  19.843  33.783   7.364
 3372POPC   C1B44191  19.896  33.512   6.464
 3372POPC   C2B44192  19.888  33.506   6.764
 3372POPC   C3B44193  19.879  33.584   7.064
 3372POPC   C4B44194  19.921  33.572   7.364
 3373POPC   NC344195  13.622  27.635   5.564
 3373POPC   PO444196  13.616  27.595   5.864
 3373POPC   GL144197  13.579  27.610   6.164
 3373POPC   GL244198  13.517  27.455   6.164
 3373POPC   C1A44199  13.666  27.629   6.464
 3373POPC   D2A44200  13.663  27.550   6.764
 3373POPC   C3A44201  13.647  27.549   7.064
 3373POPC   C4A44202  13.617  27.626   7.364
 3373POPC   C1B44203  13.509  27.427   6.464
 3373POPC   C2B44204  13.460  27.423   6.764
 3373POPC   C3B44205  13.475  27.427   7.064
 3373POPC   C4B44206  13.478  27.349   7.364
 3374POPC   NC344207  40.034  40.765   5.564
 3374POPC   PO444208  40.049  40.750   5.864
 3374POPC   GL144209  40.040  40.742   6.164
 3374POPC   GL244210  39.883  40.808   6.164
 3374POPC   C1A44211  39.976  40.779   6.464
 3374POPC   D2A44212  40.052  40.784   6.764
 3374POPC   C3A44213  40.024  40.748   7.064
 3374POPC   C4A44214  40.007  40.783   7.364
 3374POPC   C1B44215  39.784  40.783   6.464
 3374POPC   C2B44216  39.805  40.808   6.764
 3374POPC   C3B44217  39.811  40.854   7.064
 3374POPC   C4B44218  39.716  40.847   7.364
 3375POPC   NC344219  27.636   2.806   5.564
 3375POPC   PO444220  27.642   2.756   5.864
 3375POPC   GL144221  27.574   2.757   6.164
 3375POPC   GL244222  27.481   2.733   6.164
 3375POPC   C1A44223  27.565   2.756   6.464
 3375POPC   D2A44224  27.606   2.789   6.764
 3375POPC   C3A44225  27.557   2.720   7.064
 3375POPC   C4A44226  27.622   2.741   7.364
 3375POPC   C1B44227  27.331   2.752   6.464
 3375POPC   C2B44228  27.333   2.733   6.764
 3375POPC   C3B44229  27.328   2.668   7.064
 3375POPC   C4B44230  27.305   2.667   7.364
 3376POPC   NC344231  42.370  43.068   5.564
 3376POPC   PO444232  42.312  43.076   5.864
 3376POPC   GL144233  42.382  43.120   6.164
 3376POPC   GL244234  42.229  43.033   6.164
 3376POPC   C1A44235  42.286  43.122   6.464
 3376POPC   D2A44236  42.302  43.127   6.764
 3376POPC   C3A44237  42.374  43.127   7.064
 3376POPC   C4A44238  42.371  43.115   7.364
 3376POPC   C1B44239  42.216  42.894   6.464
 3376POPC   C2B44240  42.208  42.936   6.764
 3376POPC   C3B44241  42.170  42.938   7.064
 3376POPC   C4B44242  42.240  42.867   7.364
 3377POPC   NC344243  24.449   2.804   5.564
 3377POPC   PO444244  24.506   2.723   5.864
 3377POPC   GL144245  24.519   2.812   6.164
 3377POPC   GL244246  24.406   2.819   6.164
 3377POPC   C1A44247  24.534   2.802   6.464
 3377POPC   D2A44248  24.445   2.809   6.764
 3377POPC   C3A44249  24.483   2.776   7.064
 3377POPC   C4A44250  24.525   2.778   7.364
 3377POPC   C1B44251  24.202   2.763   6.464
 3377POPC   C2B44252  24.212   2.815   6.764
 3377POPC   C3B44253  24.245   2.786   7.064
 3377POPC   C4B44254  24.285   2.819   7.364
 3378POPC   NC344255  25.260  43.154   5.564
 3378POPC   PO444256  25.272  43.120   5.864
 3378POPC   GL144257  25.315  43.150   6.164
 3378POPC   GL244258  25.288  43.204   6.164
 3378POPC   C1A44259  25.289  43.159   6.464
 3378POPC   D2A44260  25.315  43.096   6.764
 3378POPC   C3A44261  25.229  43.121   7.064
 3378POPC   C4A44262  25.229  43.149   7.364
 3378POPC   C1B44263  25.376  43.327   6.464
 3378POPC   C2B44264  25.424  43.335   6.764
 3378POPC   C3B44265  25.364  43.352   7.064
 3378POPC   C4B44266  25.378  43.292   7.364
 3379POPC   NC344267  24.471  32.242   5.564
 3379POPC   PO444268  24.442  32.293   5.864
 3379POPC   GL144269  24.480  32.198   6.164
 3379POPC   GL244270  24.498  32.166   6.164
 3379POPC   C1A44271  24.492  32.283   6.464
 3379POPC   D2A44272  24.522  32.260   6.764
 3379POPC   C3A44273  24.518  32.228   7.064
 3379POPC   C4A44274  24.497  32.246   7.364
 3379POPC   C1B44275  24.603  32.056   6.464
 3379POPC   C2B44276  24.598  32.016   6.764
 3379POPC   C3B44277  24.541  32.004   7.064
 3379POPC   C4B44278  24.558  32.038   7.364
 3380POPC   NC344279  34.625   7.377   5.564
 3380POPC   PO444280  34.547   7.440   5.864
 3380POPC   GL144281  34.558   7.421   6.164
 3380POPC   GL244282  34.464   7.398   6.164
 3380POPC   C1A44283  34.593   7.420   6.464
 3380POPC   D2A44284  34.577   7.372   6.764
 3380POPC   C3A44285  34.626   7.386   7.064
 3380POPC   C4A44286  34.607   7.459   7.364
 3380POPC   C1B44287  34.282   7.444   6.464
 3380POPC   C2B44288  34.297   7.434   6.764
 3380POPC   C3B44289  34.338   7.446   7.064
 3380POPC   C4B44290  34.345   7.451   7.364
 3381POPC   NC344291  26.812   7.442   5.564
 3381POPC   PO444292  26.772   7.427   5.864
 3381POPC   GL144293  26.785   7.398   6.164
 3381POPC   GL244294  26.901   7.448   6.164
 3381POPC   C1A44295  26.785   7.460   6.464
 3381POPC   D2A44296  26.802   7.422   6.764
 3381POPC   C3A44297  26.844   7.422   7.064
 3381POPC   C4A44298  26.807   7.382   7.364
 3381POPC   C1B44299  27.098   7.406   6.464
 3381POPC   C2B44300  27.090   7.404   6.764
 3381POPC   C3B44301  27.111   7.434   7.064
 3381POPC   C4B44302  27.078   7.397   7.364
 3382POPC   NC344303   0.467  21.364   5.564
 3382POPC   PO444304   0.432  21.399   5.864
 3382POPC   GL144305   0.404  21.370   6.164
 3382POPC   GL244306   0.366  21.314   6.164
 3382POPC   C1A44307   0.389  21.340   6.464
 3382POPC   D2A44308   0.393  21.349   6.764
 3382POPC   C3A44309   0.479  21.357   7.064
 3382POPC   C4A44310   0.415  21.377   7.364
 3382POPC   C1B44311   0.250  21.174   6.464
 3382POPC   C2B44312   0.333  21.191   6.764
 3382POPC   C3B44313   0.317  21.134   7.064
 3382POPC   C4B44314   0.295  21.195   7.364
 3383POPC   NC344315   2.035  15.155   5.564
 3383POPC   PO444316   2.007  15.132   5.864
 3383POPC   GL144317   1.990  15.136   6.164
 3383POPC   GL244318   1.894  15.202   6.164
 3383POPC   C1A44319   2.013  15.130   6.464
 3383POPC   D2A44320   2.024  15.136   6.764
 3383POPC   C3A44321   1.963  15.188   7.064
 3383POPC   C4A44322   1.984  15.179   7.364
 3383POPC   C1B44323   1.708  15.120   6.464
 3383POPC   C2B44324   1.773  15.186   6.764
 3383POPC   C3B44325   1.766  15.172   7.064
 3383POPC   C4B44326   1.753  15.188   7.364
 3384POPC   NC344327  37.677  16.722   5.564
 3384POPC   PO444328  37.657  16.763   5.864
 3384POPC   GL144329  37.631  16.766   6.164
 3384POPC   GL244330  37.621  16.687   6.164
 3384POPC   C1A44331  37.711  16.724   6.464
 3384POPC   D2A44332  37.719  16.763   6.764
 3384POPC   C3A44333  37.723  16.766   7.064
 3384POPC   C4A44334  37.719  16.748   7.364
 3384POPC   C1B44335  37.477  16.566   6.464
 3384POPC   C2B44336  37.438  16.540   6.764
 3384POPC   C3B44337  37.533  16.548   7.064
 3384POPC   C4B44338  37.435  16.539   7.364
 3385POPC   NC344339  38.467  19.811   5.564
 3385POPC   PO444340  38.503  19.881   5.864
 3385POPC   GL144341  38.497  19.850   6.164
 3385POPC   GL244342  38.461  19.964   6.164
 3385POPC   C1A44343  38.415  19.863   6.464
 3385POPC   D2A44344  38.498  19.820   6.764
 3385POPC   C3A44345  38.489  19.841   7.064
 3385POPC   C4A44346  38.456  19.836   7.364
 3385POPC   C1B44347  38.537  20.055   6.464
 3385POPC   C2B44348  38.608  20.078   6.764
 3385POPC   C3B44349  38.526  20.064   7.064
 3385POPC   C4B44350  38.516  20.091   7.364
 3386POPC   NC344351   1.245   3.571   5.564
 3386POPC   PO444352   1.263   3.531   5.864
 3386POPC   GL144353   1.227   3.575   6.164
 3386POPC   GL244354   1.174   3.465   6.164
 3386POPC   C1A44355   1.247   3.510   6.464
 3386POPC   D2A44356   1.208   3.542   6.764
 3386POPC   C3A44357   1.188   3.504   7.064
 3386POPC   C4A44358   1.251   3.581   7.364
 3386POPC   C1B44359   1.189   3.278   6.464
 3386POPC   C2B44360   1.222   3.246   6.764
 3386POPC   C3B44361   1.172   3.248   7.064
 3386POPC   C4B44362   1.198   3.309   7.364
 3387POPC   NC344363  24.458  15.915   5.564
 3387POPC   PO444364  24.531  15.991   5.864
 3387POPC   GL144365  24.443  15.989   6.164
 3387POPC   GL244366  24.425  16.046   6.164
 3387POPC   C1A44367  24.441  15.981   6.464
 3387POPC   D2A44368  24.506  15.947   6.764
 3387POPC   C3A44369  24.533  15.949   7.064
 3387POPC   C4A44370  24.503  15.947   7.364
 3387POPC   C1B44371  24.390  16.156   6.464
 3387POPC   C2B44372  24.436  16.202   6.764
 3387POPC   C3B44373  24.402  16.188   7.064
 3387POPC   C4B44374  24.390  16.211   7.364
 3388POPC   NC344375   0.414   8.980   5.564
 3388POPC   PO444376   0.471   8.923   5.864
 3388POPC   GL144377   0.398   8.953   6.164
 3388POPC   GL244378   0.582   9.042   6.164
 3388POPC   C1A44379   0.433   9.000   6.464
 3388POPC   D2A44380   0.419   8.939   6.764
 3388POPC   C3A44381   0.465   8.961   7.064
 3388POPC   C4A44382   0.423   8.939   7.364
 3388POPC   C1B44383   0.661   9.124   6.464
 3388POPC   C2B44384   0.674   9.060   6.764
 3388POPC   C3B44385   0.631   9.047   7.064
 3388POPC   C4B44386   0.681   9.087   7.364
 3389POPC   NC344387  20.651   5.833   5.564
 3389POPC   PO444388  20.643   5.856   5.864
 3389POPC   GL144389  20.565   5.882   6.164
 3389POPC   GL244390  20.518   5.849   6.164
 3389POPC   C1A44391  20.621   5.870   6.464
 3389POPC   D2A44392  20.586   5.887   6.764
 3389POPC   C3A44393  20.590   5.874   7.064
 3389POPC   C4A44394  20.636   5.913   7.364
 3389POPC   C1B44395  20.410   5.726   6.464
 3389POPC   C2B44396  20.358   5.774   6.764
 3389POPC   C3B44397  20.356   5.798   7.064
 3389POPC   C4B44398  20.396   5.787   7.364
 3390POPC   NC344399  22.185  28.333   5.564
 3390POPC   PO444400  22.199  28.407   5.864
 3390POPC   GL144401  22.198  28.377   6.164
 3390POPC   GL244402  22.273  28.316   6.164
 3390POPC   C1A44403  22.152  28.343   6.464
 3390POPC   D2A44404  22.137  28.355   6.764
 3390POPC   C3A44405  22.208  28.324   7.064
 3390POPC   C4A44406  22.188  28.413   7.364
 3390POPC   C1B44407  22.433  28.292   6.464
 3390POPC   C2B44408  22.405  28.253   6.764
 3390POPC   C3B44409  22.392  28.285   7.064
 3390POPC   C4B44410  22.391  28.277   7.364
 3391POPC   NC344411   1.954  33.062   5.564
 3391POPC   PO444412   1.959  33.025   5.864
 3391POPC   GL144413   1.950  33.038   6.164
 3391POPC   GL244414   1.891  33.065   6.164
 3391POPC   C1A44415   1.948  33.062   6.464
 3391POPC   D2A44416   2.009  32.983   6.764
 3391POPC   C3A44417   1.951  33.051   7.064
 3391POPC   C4A44418   1.999  32.983   7.364
 3391POPC   C1B44419   1.720  33.116   6.464
 3391POPC   C2B44420   1.739  33.120   6.764
 3391POPC   C3B44421   1.793  33.152   7.064
 3391POPC   C4B44422   1.716  33.099   7.364
 3392POPC   NC344423  44.646  12.898   5.564
 3392POPC   PO444424  44.631  12.854   5.864
 3392POPC   GL144425  44.705  12.810   6.164
 3392POPC   GL244426  44.512  12.955   6.164
 3392POPC   C1A44427  44.671  12.811   6.464
 3392POPC   D2A44428  44.701  12.825   6.764
 3392POPC   C3A44429  44.706  12.806   7.064
 3392POPC   C4A44430  44.672  12.900   7.364
 3392POPC   C1B44431  44.408  12.981   6.464
 3392POPC   C2B44432  44.474  12.940   6.764
 3392POPC   C3B44433  44.415  13.004   7.064
 3392POPC   C4B44434  44.482  12.958   7.364
 3393POPC   NC344435  36.094   4.341   5.564
 3393POPC   PO444436  36.137   4.365   5.864
 3393POPC   GL144437  36.138   4.317   6.164
 3393POPC   GL244438  36.120   4.216   6.164
 3393POPC   C1A44439  36.149   4.322   6.464
 3393POPC   D2A44440  36.088   4.299   6.764
 3393POPC   C3A44441  36.156   4.268   7.064
 3393POPC   C4A44442  36.164   4.322   7.364
 3393POPC   C1B44443  36.077   4.066   6.464
 3393POPC   C2B44444  36.064   4.099   6.764
 3393POPC   C3B44445  36.020   4.043   7.064
 3393POPC   C4B44446  36.082   4.077   7.364
 3394POPC   NC344447  32.291  35.314   5.564
 3394POPC   PO444448  32.270  35.393   5.864
 3394POPC   GL144449  32.257  35.369   6.164
 3394POPC   GL244450  32.145  35.288   6.164
 3394POPC   C1A44451  32.216  35.348   6.464
 3394POPC   D2A44452  32.222  35.321   6.764
 3394POPC   C3A44453  32.291  35.395   7.064
 3394POPC   C4A44454  32.203  35.348   7.364
 3394POPC   C1B44455  31.985  35.228   6.464
 3394POPC   C2B44456  31.975  35.304   6.764
 3394POPC   C3B44457  32.016  35.295   7.064
 3394POPC   C4B44458  32.005  35.218   7.364
 3395POPC   NC344459   7.417  44.645   5.564
 3395POPC   PO444460   7.452  44.666   5.864
 3395POPC   GL144461   7.429  44.651   6.164
 3395POPC   GL244462   7.290  44.666   6.164
 3395POPC   C1A44463   7.376  44.701   6.464
 3395POPC   D2A44464   7.448  44.709   6.764
 3395POPC   C3A44465   7.435  44.667   7.064
 3395POPC   C4A44466   7.420  44.644   7.364
 3395POPC   C1B44467   7.180  44.571   6.464
 3395POPC   C2B44468   7.195  44.618   6.764
 3395POPC   C3B44469   7.184  44.621   7.064
 3395POPC   C4B44470   7.173  44.605   7.364
 3396POPC   NC344471  20.629  26.815   5.564
 3396POPC   PO444472  20.635  26.859   5.864
 3396POPC   GL144473  20.621  26.833   6.164
 3396POPC   GL244474  20.625  26.974   6.164
 3396POPC   C1A44475  20.609  26.822   6.464
 3396POPC   D2A44476  20.597  26.772   6.764
 3396POPC   C3A44477  20.608  26.808   7.064
 3396POPC   C4A44478  20.575  26.845   7.364
 3396POPC   C1B44479  20.676  27.086   6.464
 3396POPC   C2B44480  20.759  27.081   6.764
 3396POPC   C3B44481  20.722  27.007   7.064
 3396POPC   C4B44482  20.664  27.095   7.364
 3397POPC   NC344483  12.045  16.735   5.564
 3397POPC   PO444484  12.070  16.732   5.864
 3397POPC   GL144485  12.037  16.752   6.164
 3397POPC   GL244486  12.160  16.862   6.164
 3397POPC   C1A44487  12.103  16.695   6.464
 3397POPC   D2A44488  12.092  16.688   6.764
 3397POPC   C3A44489  12.086  16.699   7.064
 3397POPC   C4A44490  12.039  16.731   7.364
 3397POPC   C1B44491  12.143  16.997   6.464
 3397POPC   C2B44492  12.124  16.998   6.764
 3397POPC   C3B44493  12.192  16.938   7.064
 3397POPC   C4B44494  12.118  17.001   7.364
 3398POPC   NC344495  21.427   3.536   5.564
 3398POPC   PO444496  21.349   3.495   5.864
 3398POPC   GL144497  21.414   3.544   6.164
 3398POPC   GL244498  21.438   3.649   6.164
 3398POPC   C1A44499  21.409   3.551   6.464
 3398POPC   D2A44500  21.425   3.526   6.764
 3398POPC   C3A44501  21.343   3.516   7.064
 3398POPC   C4A44502  21.412   3.520   7.364
 3398POPC   C1B44503  21.462   3.763   6.464
 3398POPC   C2B44504  21.490   3.813   6.764
 3398POPC   C3B44505  21.467   3.830   7.064
 3398POPC   C4B44506  21.484   3.766   7.364
 3399POPC   NC344507  40.030  12.884   5.564
 3399POPC   PO444508  40.026  12.869   5.864
 3399POPC   GL144509  40.045  12.856   6.164
 3399POPC   GL244510  39.926  12.881   6.164
 3399POPC   C1A44511  39.994  12.897   6.464
 3399POPC   D2A44512  40.003  12.877   6.764
 3399POPC   C3A44513  40.045  12.833   7.064
 3399POPC   C4A44514  40.055  12.880   7.364
 3399POPC   C1B44515  39.788  12.888   6.464
 3399POPC   C2B44516  39.766  12.907   6.764
 3399POPC   C3B44517  39.805  12.829   7.064
 3399POPC   C4B44518  39.744  12.859   7.364
 3400POPC   NC344519  29.106  13.597   5.564
 3400POPC   PO444520  29.148  13.607   5.864
 3400POPC   GL144521  29.127  13.626   6.164
 3400POPC   GL244522  29.172  13.506   6.164
 3400POPC   C1A44523  29.103  13.627   6.464
 3400POPC   D2A44524  29.146  13.609   6.764
 3400POPC   C3A44525  29.095  13.666   7.064
 3400POPC   C4A44526  29.139  13.603   7.364
 3400POPC   C1B44527  29.251  13.393   6.464
 3400POPC   C2B44528  29.189  13.350   6.764
 3400POPC   C3B44529  29.267  13.353   7.064
 3400POPC   C4B44530  29.252  13.400   7.364
 3401POPC   NC344531  43.064  14.421   5.564
 3401POPC   PO444532  43.091  14.362   5.864
 3401POPC   GL144533  43.149  14.430   6.164
 3401POPC   GL244534  43.195  14.391   6.164
 3401POPC   C1A44535  43.133  14.446   6.464
 3401POPC   D2A44536  43.133  14.415   6.764
 3401POPC   C3A44537  43.088  14.435   7.064
 3401POPC   C4A44538  43.145  14.413   7.364
 3401POPC   C1B44539  43.311  14.469   6.464
 3401POPC   C2B44540  43.367  14.415   6.764
 3401POPC   C3B44541  43.311  14.475   7.064
 3401POPC   C4B44542  43.340  14.486   7.364
 3402POPC   NC344543  25.299  25.231   5.564
 3402POPC   PO444544  25.229  25.240   5.864
 3402POPC   GL144545  25.217  25.267   6.164
 3402POPC   GL244546  25.385  25.309   6.164
 3402POPC   C1A44547  25.297  25.262   6.464
 3402POPC   D2A44548  25.297  25.276   6.764
 3402POPC   C3A44549  25.279  25.309   7.064
 3402POPC   C4A44550  25.305  25.255   7.364
 3402POPC   C1B44551  25.413  25.415   6.464
 3402POPC   C2B44552  25.401  25.414   6.764
 3402POPC   C3B44553  25.432  25.407   7.064
 3402POPC   C4B44554  25.399  25.422   7.364
 3403POPC   NC344555  16.691  43.877   5.564
 3403POPC   PO444556  16.747  43.865   5.864
 3403POPC   GL144557  16.727  43.902   6.164
 3403POPC   GL244558  16.788  43.952   6.164
 3403POPC   C1A44559  16.726  43.887   6.464
 3403POPC   D2A44560  16.768  43.850   6.764
 3403POPC   C3A44561  16.773  43.848   7.064
 3403POPC   C4A44562  16.756  43.864   7.364
 3403POPC   C1B44563  16.981  44.039   6.464
 3403POPC   C2B44564  16.941  43.971   6.764
 3403POPC   C3B44565  16.957  43.976   7.064
 3403POPC   C4B44566  16.899  44.024   7.364
 3404POPC   NC344567   8.976  27.631   5.564
 3404POPC   PO444568   8.986  27.634   5.864
 3404POPC   GL144569   8.985  27.605   6.164
 3404POPC   GL244570   8.932  27.718   6.164
 3404POPC   C1A44571   8.965  27.614   6.464
 3404POPC   D2A44572   9.006  27.597   6.764
 3404POPC   C3A44573   8.985  27.600   7.064
 3404POPC   C4A44574   9.013  27.618   7.364
 3404POPC   C1B44575   8.837  27.831   6.464
 3404POPC   C2B44576   8.878  27.840   6.764
 3404POPC   C3B44577   8.841  27.770   7.064
 3404POPC   C4B44578   8.885  27.769   7.364
 3405POPC   NC344579  29.896  19.835   5.564
 3405POPC   PO444580  29.945  19.789   5.864
 3405POPC   GL144581  29.963  19.812   6.164
 3405POPC   GL244582  29.764  19.883   6.164
 3405POPC   C1A44583  29.890  19.786   6.464
 3405POPC   D2A44584  29.924  19.868   6.764
 3405POPC   C3A44585  29.942  19.806   7.064
 3405POPC   C4A44586  29.954  19.867   7.364
 3405POPC   C1B44587  29.665  19.956   6.464
 3405POPC   C2B44588  29.677  19.980   6.764
 3405POPC   C3B44589  29.703  19.919   7.064
 3405POPC   C4B44590  29.650  19.883   7.364
 3406POPC   NC344591  41.606  28.382   5.564
 3406POPC   PO444592  41.568  28.371   5.864
 3406POPC   GL144593  41.527  28.418   6.164
 3406POPC   GL244594  41.563  28.222   6.164
 3406POPC   C1A44595  41.591  28.351   6.464
 3406POPC   D2A44596  41.549  28.388   6.764
 3406POPC   C3A44597  41.558  28.341   7.064
 3406POPC   C4A44598  41.539  28.414   7.364
 3406POPC   C1B44599  41.660  28.120   6.464
 3406POPC   C2B44600  41.659  28.179   6.764
 3406POPC   C3B44601  41.652  28.094   7.064
 3406POPC   C4B44602  41.693  28.136   7.364
 3407POPC   NC344603   2.771   0.451   5.564
 3407POPC   PO444604   2.732   0.447   5.864
 3407POPC   GL144605   2.805   0.407   6.164
 3407POPC   GL244606   2.841   0.348   6.164
 3407POPC   C1A44607   2.717   0.450   6.464
 3407POPC   D2A44608   2.736   0.405   6.764
 3407POPC   C3A44609   2.764   0.429   7.064
 3407POPC   C4A44610   2.725   0.450   7.364
 3407POPC   C1B44611   2.821   0.253   6.464
 3407POPC   C2B44612   2.903   0.235   6.764
 3407POPC   C3B44613   2.870   0.174   7.064
 3407POPC   C4B44614   2.835   0.246   7.364
 3408POPC   NC344615  21.355  19.851   5.564
 3408POPC   PO444616  21.408  19.853   5.864
 3408POPC   GL144617  21.336  19.787   6.164
 3408POPC   GL244618  21.464  19.746   6.164
 3408POPC   C1A44619  21.386  19.848   6.464
 3408POPC   D2A44620  21.411  19.865   6.764
 3408POPC   C3A44621  21.369  19.855   7.064
 3408POPC   C4A44622  21.382  19.880   7.364
 3408POPC   C1B44623  21.617  19.711   6.464
 3408POPC   C2B44624  21.598  19.665   6.764
 3408POPC   C3B44625  21.567  19.699   7.064
 3408POPC   C4B44626  21.547  19.678   7.364
 3409POPC   NC344627  41.514  40.830   5.564
 3409POPC   PO444628  41.511  40.760   5.864
 3409POPC   GL144629  41.567  40.783   6.164
 3409POPC   GL244630  41.622  40.812   6.164
 3409POPC   C1A44631  41.582  40.742   6.464
 3409POPC   D2A44632  41.559  40.772   6.764
 3409POPC   C3A44633  41.529  40.754   7.064
 3409POPC   C4A44634  41.532  40.802   7.364
 3409POPC   C1B44635  41.766  40.890   6.464
 3409POPC   C2B44636  41.729  40.908   6.764
 3409POPC   C3B44637  41.798  40.896   7.064
 3409POPC   C4B44638  41.816  40.912   7.364
 3410POPC   NC344639   1.181  23.735   5.564
 3410POPC   PO444640   1.257  23.723   5.864
 3410POPC   GL144641   1.237  23.746   6.164
 3410POPC   GL244642   1.177  23.831   6.164
 3410POPC   C1A44643   1.251  23.717   6.464
 3410POPC   D2A44644   1.257  23.738   6.764
 3410POPC   C3A44645   1.221  23.697   7.064
 3410POPC   C4A44646   1.243  23.722   7.364
 3410POPC   C1B44647   1.104  23.945   6.464
 3410POPC   C2B44648   1.066  23.937   6.764
 3410POPC   C3B44649   1.061  23.948   7.064
 3410POPC   C4B44650   1.119  23.927   7.364
 3411POPC   NC344651  31.429  26.012   5.564
 3411POPC   PO444652  31.497  25.993   5.864
 3411POPC   GL144653  31.464  25.999   6.164
 3411POPC   GL244654  31.329  26.057   6.164
 3411POPC   C1A44655  31.454  26.040   6.464
 3411POPC   D2A44656  31.471  26.033   6.764
 3411POPC   C3A44657  31.514  26.078   7.064
 3411POPC   C4A44658  31.475  26.034   7.364
 3411POPC   C1B44659  31.212  26.044   6.464
 3411POPC   C2B44660  31.215  26.109   6.764
 3411POPC   C3B44661  31.198  26.070   7.064
 3411POPC   C4B44662  31.183  26.058   7.364
 3412POPC   NC344663  33.844  34.564   5.564
 3412POPC   PO444664  33.807  34.595   5.864
 3412POPC   GL144665  33.807  34.621   6.164
 3412POPC   GL244666  33.922  34.616   6.164
 3412POPC   C1A44667  33.792  34.528   6.464
 3412POPC   D2A44668  33.808  34.567   6.764
 3412POPC   C3A44669  33.823  34.534   7.064
 3412POPC   C4A44670  33.781  34.612   7.364
 3412POPC   C1B44671  34.072  34.558   6.464
 3412POPC   C2B44672  34.095  34.616   6.764
 3412POPC   C3B44673  34.000  34.566   7.064
 3412POPC   C4B44674  34.008  34.549   7.364
 3413POPC   NC344675  32.245  26.795   5.564
 3413POPC   PO444676  32.269  26.823   5.864
 3413POPC   GL144677  32.211  26.799   6.164
 3413POPC   GL244678  32.098  26.922   6.164
 3413POPC   C1A44679  32.244  26.811   6.464
 3413POPC   D2A44680  32.261  26.827   6.764
 3413POPC   C3A44681  32.250  26.861   7.064
 3413POPC   C4A44682  32.233  26.794   7.364
 3413POPC   C1B44683  32.056  26.973   6.464
 3413POPC   C2B44684  31.997  26.968   6.764
 3413POPC   C3B44685  32.074  26.915   7.064
 3413POPC   C4B44686  32.008  26.947   7.364
 3414POPC   NC344687  26.822  19.828   5.564
 3414POPC   PO444688  26.774  19.815   5.864
 3414POPC   GL144689  26.783  19.838   6.164
 3414POPC   GL244690  26.830  19.766   6.164
 3414POPC   C1A44691  26.811  19.883   6.464
 3414POPC   D2A44692  26.831  19.805   6.764
 3414POPC   C3A44693  26.769  19.817   7.064
 3414POPC   C4A44694  26.800  19.836   7.364
 3414POPC   C1B44695  26.866  19.615   6.464
 3414POPC   C2B44696  26.885  19.650   6.764
 3414POPC   C3B44697  26.862  19.618   7.064
 3414POPC   C4B44698  26.919  19.647   7.364
 3415POPC   NC344699  26.838   0.474   5.564
 3415POPC   PO444700  26.772   0.436   5.864
 3415POPC   GL144701  26.795   0.478   6.164
 3415POPC   GL244702  26.669   0.495   6.164
 3415POPC   C1A44703  26.862   0.476   6.464
 3415POPC   D2A44704  26.817   0.471   6.764
 3415POPC   C3A44705  26.859   0.402   7.064
 3415POPC   C4A44706  26.810   0.451   7.364
 3415POPC   C1B44707  26.525   0.472   6.464
 3415POPC   C2B44708  26.575   0.440   6.764
 3415POPC   C3B44709  26.584   0.415   7.064
 3415POPC   C4B44710  26.596   0.433   7.364
 3416POPC   NC344711  41.564  26.786   5.564
 3416POPC   PO444712  41.556  26.779   5.864
 3416POPC   GL144713  41.529  26.773   6.164
 3416POPC   GL244714  41.625  26.743   6.164
 3416POPC   C1A44715  41.604  26.776   6.464
 3416POPC   D2A44716  41.592  26.824   6.764
 3416POPC   C3A44717  41.572  26.818   7.064
 3416POPC   C4A44718  41.529  26.806   7.364
 3416POPC   C1B44719  41.671  26.560   6.464
 3416POPC   C2B44720  41.668  26.611   6.764
 3416POPC   C3B44721  41.618  26.607   7.064
 3416POPC   C4B44722  41.649  26.540   7.364
 3417POPC   NC344723   0.474  15.910   5.564
 3417POPC   PO444724   0.453  15.906   5.864
 3417POPC   GL144725   0.454  15.957   6.164
 3417POPC   GL244726   0.566  15.864   6.164
 3417POPC   C1A44727   0.398  15.944   6.464
 3417POPC   D2A44728   0.439  15.934   6.764
 3417POPC   C3A44729   0.482  15.979   7.064
 3417POPC   C4A44730   0.444  15.994   7.364
 3417POPC   C1B44731   0.566  15.773   6.464
 3417POPC   C2B44732   0.620  15.722   6.764
 3417POPC   C3B44733   0.597  15.767   7.064
 3417POPC   C4B44734   0.628  15.723   7.364
 3418POPC   NC344735   5.854   4.272   5.564
 3418POPC   PO444736   5.828   4.280   5.864
 3418POPC   GL144737   5.862   4.290   6.164
 3418POPC   GL244738   5.938   4.193   6.164
 3418POPC   C1A44739   5.917   4.311   6.464
 3418POPC   D2A44740   5.912   4.316   6.764
 3418POPC   C3A44741   5.907   4.346   7.064
 3418POPC   C4A44742   5.855   4.301   7.364
 3418POPC   C1B44743   6.012   4.143   6.464
 3418POPC   C2B44744   6.060   4.129   6.764
 3418POPC   C3B44745   6.032   4.071   7.064
 3418POPC   C4B44746   5.986   4.133   7.364
 3419POPC   NC344747  36.892  10.526   5.564
 3419POPC   PO444748  36.894  10.503   5.864
 3419POPC   GL144749  36.894  10.524   6.164
 3419POPC   GL244750  36.904  10.673   6.164
 3419POPC   C1A44751  36.856  10.479   6.464
 3419POPC   D2A44752  36.886  10.500   6.764
 3419POPC   C3A44753  36.885  10.545   7.064
 3419POPC   C4A44754  36.953  10.490   7.364
 3419POPC   C1B44755  36.912  10.798   6.464
 3419POPC   C2B44756  36.980  10.796   6.764
 3419POPC   C3B44757  36.946  10.791   7.064
 3419POPC   C4B44758  36.921  10.796   7.364
 3420POPC   NC344759  38.416  31.494   5.564
 3420POPC   PO444760  38.463  31.482   5.864
 3420POPC   GL144761  38.468  31.499   6.164
 3420POPC   GL244762  38.309  31.391   6.164
 3420POPC   C1A44763  38.419  31.498   6.464
 3420POPC   D2A44764  38.463  31.481   6.764
 3420POPC   C3A44765  38.425  31.475   7.064
 3420POPC   C4A44766  38.459  31.433   7.364
 3420POPC   C1B44767  38.187  31.345   6.464
 3420POPC   C2B44768  38.236  31.359   6.764
 3420POPC   C3B44769  38.222  31.360   7.064
 3420POPC   C4B44770  38.187  31.404   7.364
 3421POPC   NC344771  34.554   2.794   5.564
 3421POPC   PO444772  34.528   2.774   5.864
 3421POPC   GL144773  34.583   2.805   6.164
 3421POPC   GL244774  34.522   2.824   6.164
 3421POPC   C1A44775  34.619   2.767   6.464
 3421POPC   D2A44776  34.549   2.787   6.764
 3421POPC   C3A44777  34.596   2.796   7.064
 3421POPC   C4A44778  34.591   2.796   7.364
 3421POPC   C1B44779  34.461   2.999   6.464
 3421POPC   C2B44780  34.481   2.979   6.764
 3421POPC   C3B44781  34.412   3.000   7.064
 3421POPC   C4B44782  34.443   2.971   7.364
 3422POPC   NC344783  11.325  18.277   5.564
 3422POPC   PO444784  11.253  18.267   5.864
 3422POPC   GL144785  11.311  18.280   6.164
 3422POPC   GL244786  11.373  18.171   6.164
 3422POPC   C1A44787  11.278  18.251   6.464
 3422POPC   D2A44788  11.261  18.300   6.764
 3422POPC   C3A44789  11.331  18.245   7.064
 3422POPC   C4A44790  11.255  18.330   7.364
 3422POPC   C1B44791  11.347  18.071   6.464
 3422POPC   C2B44792  11.381  18.001   6.764
 3422POPC   C3B44793  11.376  18.040   7.064
 3422POPC   C4B44794  11.407  17.997   7.364
 3423POPC   NC344795   4.313  17.502   5.564
 3423POPC   PO444796   4.351  17.498   5.864
 3423POPC   GL144797   4.357  17.465   6.164
 3423POPC   GL244798   4.429  17.543   6.164
 3423POPC   C1A44799   4.353  17.518   6.464
 3423POPC   D2A44800   4.272  17.479   6.764
 3423POPC   C3A44801   4.342  17.512   7.064
 3423POPC   C4A44802   4.281  17.496   7.364
 3423POPC   C1B44803   4.470  17.719   6.464
 3423POPC   C2B44804   4.508  17.681   6.764
 3423POPC   C3B44805   4.509  17.629   7.064
 3423POPC   C4B44806   4.524  17.706   7.364
 3424POPC   NC344807  38.490  41.528   5.564
 3424POPC   PO444808  38.491  41.530   5.864
 3424POPC   GL144809  38.468  41.544   6.164
 3424POPC   GL244810  38.286  41.514   6.164
 3424POPC   C1A44811  38.466  41.569   6.464
 3424POPC   D2A44812  38.483  41.527   6.764
 3424POPC   C3A44813  38.464  41.583   7.064
 3424POPC   C4A44814  38.434  41.576   7.364
 3424POPC   C1B44815  38.222  41.575   6.464
 3424POPC   C2B44816  38.239  41.529   6.764
 3424POPC   C3B44817  38.160  41.525   7.064
 3424POPC   C4B44818  38.222  41.489   7.364
 3425POPC   NC344819  16.717  43.105   5.564
 3425POPC   PO444820  16.761  43.133   5.864
 3425POPC   GL144821  16.758  43.123   6.164
 3425POPC   GL244822  16.753  42.947   6.164
 3425POPC   C1A44823  16.711  43.078   6.464
 3425POPC   D2A44824  16.733  43.149   6.764
 3425POPC   C3A44825  16.780  43.120   7.064
 3425POPC   C4A44826  16.779  43.131   7.364
 3425POPC   C1B44827  16.762  42.849   6.464
 3425POPC   C2B44828  16.785  42.857   6.764
 3425POPC   C3B44829  16.700  42.817   7.064
 3425POPC   C4B44830  16.698  42.892   7.364
 3426POPC   NC344831  25.282  40.802   5.564
 3426POPC   PO444832  25.220  40.761   5.864
 3426POPC   GL144833  25.244  40.794   6.164
 3426POPC   GL244834  25.357  40.911   6.164
 3426POPC   C1A44835  25.221  40.811   6.464
 3426POPC   D2A44836  25.231  40.809   6.764
 3426POPC   C3A44837  25.294  40.776   7.064
 3426POPC   C4A44838  25.261  40.779   7.364
 3426POPC   C1B44839  25.493  40.931   6.464
 3426POPC   C2B44840  25.468  40.938   6.764
 3426POPC   C3B44841  25.465  40.945   7.064
 3426POPC   C4B44842  25.473  40.922   7.364
 3427POPC   NC344843  33.814  33.797   5.564
 3427POPC   PO444844  33.772  33.824   5.864
 3427POPC   GL144845  33.799  33.784   6.164
 3427POPC   GL244846  33.936  33.790   6.164
 3427POPC   C1A44847  33.801  33.835   6.464
 3427POPC   D2A44848  33.806  33.821   6.764
 3427POPC   C3A44849  33.761  33.783   7.064
 3427POPC   C4A44850  33.768  33.838   7.364
 3427POPC   C1B44851  34.077  33.707   6.464
 3427POPC   C2B44852  34.045  33.700   6.764
 3427POPC   C3B44853  34.067  33.674   7.064
 3427POPC   C4B44854  34.070  33.682   7.364
 3428POPC   NC344855  42.346  36.118   5.564
 3428POPC   PO444856  42.328  36.150   5.864
 3428POPC   GL144857  42.326  36.145   6.164
 3428POPC   GL244858  42.242  36.266   6.164
 3428POPC   C1A44859  42.363  36.170   6.464
 3428POPC   D2A44860  42.306  36.136   6.764
 3428POPC   C3A44861  42.299  36.119   7.064
 3428POPC   C4A44862  42.359  36.091   7.364
 3428POPC   C1B44863  42.167  36.302   6.464
 3428POPC   C2B44864  42.261  36.343   6.764
 3428POPC   C3B44865  42.237  36.331   7.064
 3428POPC   C4B44866  42.210  36.363   7.364
 3429POPC   NC344867  35.380   8.181   5.564
 3429POPC   PO444868  35.391   8.170   5.864
 3429POPC   GL144869  35.336   8.181   6.164
 3429POPC   GL244870  35.243   8.241   6.164
 3429POPC   C1A44871  35.329   8.246   6.464
 3429POPC   D2A44872  35.343   8.166   6.764
 3429POPC   C3A44873  35.303   8.166   7.064
 3429POPC   C4A44874  35.393   8.244   7.364
 3429POPC   C1B44875  35.175   8.259   6.464
 3429POPC   C2B44876  35.083   8.325   6.764
 3429POPC   C3B44877  35.157   8.281   7.064
 3429POPC   C4B44878  35.119   8.338   7.364
 3430POPC   NC344879  11.332  25.259   5.564
 3430POPC   PO444880  11.344  25.250   5.864
 3430POPC   GL144881  11.252  25.217   6.164
 3430POPC   GL244882  11.221  25.260   6.164
 3430POPC   C1A44883  11.320  25.222   6.464
 3430POPC   D2A44884  11.292  25.308   6.764
 3430POPC   C3A44885  11.255  25.283   7.064
 3430POPC   C4A44886  11.349  25.257   7.364
 3430POPC   C1B44887  11.084  25.178   6.464
 3430POPC   C2B44888  11.077  25.162   6.764
 3430POPC   C3B44889  11.064  25.155   7.064
 3430POPC   C4B44890  11.089  25.140   7.364
 3431POPC   NC344891   4.304   3.519   5.564
 3431POPC   PO444892   4.272   3.501   5.864
 3431POPC   GL144893   4.330   3.495   6.164
 3431POPC   GL244894   4.427   3.477   6.164
 3431POPC   C1A44895   4.288   3.495   6.464
 3431POPC   D2A44896   4.287   3.509   6.764
 3431POPC   C3A44897   4.365   3.577   7.064
 3431POPC   C4A44898   4.285   3.514   7.364
 3431POPC   C1B44899   4.527   3.388   6.464
 3431POPC   C2B44900   4.531   3.371   6.764
 3431POPC   C3B44901   4.575   3.389   7.064
 3431POPC   C4B44902   4.562   3.409   7.364
 3432POPC   NC344903  25.264  42.301   5.564
 3432POPC   PO444904  25.240  42.355   5.864
 3432POPC   GL144905  25.281  42.345   6.164
 3432POPC   GL244906  25.396  42.360   6.164
 3432POPC   C1A44907  25.261  42.324   6.464
 3432POPC   D2A44908  25.310  42.289   6.764
 3432POPC   C3A44909  25.254  42.342   7.064
 3432POPC   C4A44910  25.245  42.294   7.364
 3432POPC   C1B44911  25.439  42.489   6.464
 3432POPC   C2B44912  25.440  42.434   6.764
 3432POPC   C3B44913  25.526  42.488   7.064
 3432POPC   C4B44914  25.443  42.439   7.364
 3433POPC   NC344915  12.901   8.956   5.564
 3433POPC   PO444916  12.867   9.005   5.864
 3433POPC   GL144917  12.898   8.944   6.164
 3433POPC   GL244918  12.790   9.028   6.164
 3433POPC   C1A44919  12.890   8.961   6.464
 3433POPC   D2A44920  12.826   8.964   6.764
 3433POPC   C3A44921  12.851   9.005   7.064
 3433POPC   C4A44922  12.897   8.996   7.364
 3433POPC   C1B44923  12.678   9.192   6.464
 3433POPC   C2B44924  12.623   9.129   6.764
 3433POPC   C3B44925  12.658   9.180   7.064
 3433POPC   C4B44926  12.622   9.146   7.364
 3434POPC   NC344927  10.510  19.057   5.564
 3434POPC   PO444928  10.551  19.054   5.864
 3434POPC   GL144929  10.477  19.017   6.164
 3434POPC   GL244930  10.532  19.195   6.164
 3434POPC   C1A44931  10.574  19.076   6.464
 3434POPC   D2A44932  10.565  19.107   6.764
 3434POPC   C3A44933  10.535  19.014   7.064
 3434POPC   C4A44934  10.574  19.055   7.364
 3434POPC   C1B44935  10.482  19.353   6.464
 3434POPC   C2B44936  10.502  19.268   6.764
 3434POPC   C3B44937  10.520  19.315   7.064
 3434POPC   C4B44938  10.519  19.306   7.364
 3435POPC   NC344939   4.317  40.744   5.564
 3435POPC   PO444940   4.272  40.823   5.864
 3435POPC   GL144941   4.305  40.808   6.164
 3435POPC   GL244942   4.412  40.851   6.164
 3435POPC   C1A44943   4.299  40.815   6.464
 3435POPC   D2A44944   4.293  40.816   6.764
 3435POPC   C3A44945   4.352  40.801   7.064
 3435POPC   C4A44946   4.346  40.814   7.364
 3435POPC   C1B44947   4.577  40.834   6.464
 3435POPC   C2B44948   4.593  40.820   6.764
 3435POPC   C3B44949   4.606  40.865   7.064
 3435POPC   C4B44950   4.577  40.868   7.364
 3436POPC   NC344951   5.850  23.746   5.564
 3436POPC   PO444952   5.907  23.698   5.864
 3436POPC   GL144953   5.918  23.755   6.164
 3436POPC   GL244954   5.810  23.814   6.164
 3436POPC   C1A44955   5.910  23.759   6.464
 3436POPC   D2A44956   5.861  23.677   6.764
 3436POPC   C3A44957   5.866  23.756   7.064
 3436POPC   C4A44958   5.849  23.687   7.364
 3436POPC   C1B44959   5.815  23.978   6.464
 3436POPC   C2B44960   5.828  23.938   6.764
 3436POPC   C3B44961   5.768  23.987   7.064
 3436POPC   C4B44962   5.755  23.928   7.364
 3437POPC   NC344963  40.824  21.403   5.564
 3437POPC   PO444964  40.792  21.407   5.864
 3437POPC   GL144965  40.748  21.359   6.164
 3437POPC   GL244966  40.921  21.313   6.164
 3437POPC   C1A44967  40.768  21.418   6.464
 3437POPC   D2A44968  40.758  21.385   6.764
 3437POPC   C3A44969  40.801  21.357   7.064
 3437POPC   C4A44970  40.786  21.387   7.364
 3437POPC   C1B44971  40.981  21.179   6.464
 3437POPC   C2B44972  41.003  21.258   6.764
 3437POPC   C3B44973  40.979  21.166   7.064
 3437POPC   C4B44974  40.936  21.213   7.364
 3438POPC   NC344975  39.219  40.818   5.564
 3438POPC   PO444976  39.226  40.807   5.864
 3438POPC   GL144977  39.270  40.773   6.164
 3438POPC   GL244978  39.088  40.869   6.164
 3438POPC   C1A44979  39.207  40.805   6.464
 3438POPC   D2A44980  39.245  40.804   6.764
 3438POPC   C3A44981  39.196  40.801   7.064
 3438POPC   C4A44982  39.232  40.773   7.364
 3438POPC   C1B44983  38.994  40.880   6.464
 3438POPC   C2B44984  38.994  40.894   6.764
 3438POPC   C3B44985  38.979  40.959   7.064
 3438POPC   C4B44986  38.981  40.959   7.364
 3439POPC   NC344987  15.204  39.224   5.564
 3439POPC   PO444988  15.134  39.260   5.864
 3439POPC   GL144989  15.142  39.208   6.164
 3439POPC   GL244990  15.255  39.228   6.164
 3439POPC   C1A44991  15.186  39.256   6.464
 3439POPC   D2A44992  15.167  39.192   6.764
 3439POPC   C3A44993  15.222  39.240   7.064
 3439POPC   C4A44994  15.136  39.215   7.364
 3439POPC   C1B44995  15.396  39.130   6.464
 3439POPC   C2B44996  15.404  39.166   6.764
 3439POPC   C3B44997  15.403  39.173   7.064
 3439POPC   C4B44998  15.395  39.141   7.364
 3440POPC   NC344999  32.208  36.091   5.564
 3440POPC   PO445000  32.215  36.078   5.864
 3440POPC   GL145001  32.239  36.093   6.164
 3440POPC   GL245002  32.326  36.172   6.164
 3440POPC   C1A45003  32.230  36.175   6.464
 3440POPC   D2A45004  32.226  36.124   6.764
 3440POPC   C3A45005  32.263  36.156   7.064
 3440POPC   C4A45006  32.239  36.170   7.364
 3440POPC   C1B45007  32.467  36.231   6.464
 3440POPC   C2B45008  32.480  36.321   6.764
 3440POPC   C3B45009  32.406  36.286   7.064
 3440POPC   C4B45010  32.492  36.272   7.364
 3441POPC   NC345011  12.842  31.500   5.564
 3441POPC   PO445012  12.842  31.481   5.864
 3441POPC   GL145013  12.880  31.501   6.164
 3441POPC   GL245014  12.892  31.623   6.164
 3441POPC   C1A45015  12.892  31.448   6.464
 3441POPC   D2A45016  12.844  31.484   6.764
 3441POPC   C3A45017  12.844  31.504   7.064
 3441POPC   C4A45018  12.808  31.518   7.364
 3441POPC   C1B45019  12.985  31.700   6.464
 3441POPC   C2B45020  13.000  31.693   6.764
 3441POPC   C3B45021  13.026  31.646   7.064
 3441POPC   C4B45022  12.945  31.671   7.364
 3442POPC   NC345023  32.214   5.072   5.564
 3442POPC   PO445024  32.229   5.067   5.864
 3442POPC   GL145025  32.265   5.067   6.164
 3442POPC   GL245026  32.111   5.231   6.164
 3442POPC   C1A45027  32.234   5.043   6.464
 3442POPC   D2A45028  32.259   5.091   6.764
 3442POPC   C3A45029  32.228   5.100   7.064
 3442POPC   C4A45030  32.263   5.085   7.364
 3442POPC   C1B45031  32.120   5.319   6.464
 3442POPC   C2B45032  32.038   5.298   6.764
 3442POPC   C3B45033  32.060   5.225   7.064
 3442POPC   C4B45034  32.045   5.263   7.364
 3443POPC   NC345035  33.014  33.063   5.564
 3443POPC   PO445036  33.054  32.989   5.864
 3443POPC   GL145037  33.005  32.997   6.164
 3443POPC   GL245038  32.928  33.040   6.164
 3443POPC   C1A45039  33.009  33.012   6.464
 3443POPC   D2A45040  33.007  33.000   6.764
 3443POPC   C3A45041  33.052  33.008   7.064
 3443POPC   C4A45042  33.070  32.990   7.364
 3443POPC   C1B45043  32.808  33.149   6.464
 3443POPC   C2B45044  32.831  33.123   6.764
 3443POPC   C3B45045  32.755  33.147   7.064
 3443POPC   C4B45046  32.819  33.113   7.364
 3444POPC   NC345047  25.310   7.385   5.564
 3444POPC   PO445048  25.304   7.456   5.864
 3444POPC   GL145049  25.253   7.388   6.164
 3444POPC   GL245050  25.130   7.429   6.164
 3444POPC   C1A45051  25.283   7.439   6.464
 3444POPC   D2A45052  25.301   7.394   6.764
 3444POPC   C3A45053  25.217   7.431   7.064
 3444POPC   C4A45054  25.289   7.409   7.364
 3444POPC   C1B45055  25.040   7.449   6.464
 3444POPC   C2B45056  25.052   7.425   6.764
 3444POPC   C3B45057  24.967   7.464   7.064
 3444POPC   C4B45058  24.976   7.442   7.364
 3445POPC   NC345059   5.098  39.967   5.564
 3445POPC   PO445060   5.047  39.966   5.864
 3445POPC   GL145061   5.062  40.001   6.164
 3445POPC   GL245062   5.198  40.017   6.164
 3445POPC   C1A45063   5.089  40.024   6.464
 3445POPC   D2A45064   5.055  39.968   6.764
 3445POPC   C3A45065   5.101  39.973   7.064
 3445POPC   C4A45066   5.093  39.976   7.364
 3445POPC   C1B45067   5.319  40.000   6.464
 3445POPC   C2B45068   5.360  39.945   6.764
 3445POPC   C3B45069   5.366  39.960   7.064
 3445POPC   C4B45070   5.311  39.982   7.364
 3446POPC   NC345071  29.157  39.228   5.564
 3446POPC   PO445072  29.130  39.210   5.864
 3446POPC   GL145073  29.168  39.236   6.164
 3446POPC   GL245074  29.229  39.108   6.164
 3446POPC   C1A45075  29.164  39.200   6.464
 3446POPC   D2A45076  29.120  39.240   6.764
 3446POPC   C3A45077  29.159  39.275   7.064
 3446POPC   C4A45078  29.101  39.195   7.364
 3446POPC   C1B45079  29.229  38.971   6.464
 3446POPC   C2B45080  29.208  39.038   6.764
 3446POPC   C3B45081  29.283  38.955   7.064
 3446POPC   C4B45082  29.278  39.004   7.364
 3447POPC   NC345083  36.895  26.862   5.564
 3447POPC   PO445084  36.946  26.861   5.864
 3447POPC   GL145085  36.943  26.774   6.164
 3447POPC   GL245086  36.970  26.767   6.164
 3447POPC   C1A45087  36.951  26.846   6.464
 3447POPC   D2A45088  36.919  26.774   6.764
 3447POPC   C3A45089  36.889  26.783   7.064
 3447POPC   C4A45090  36.934  26.834   7.364
 3447POPC   C1B45091  37.055  26.571   6.464
 3447POPC   C2B45092  37.062  26.666   6.764
 3447POPC   C3B45093  37.054  26.585   7.064
 3447POPC   C4B45094  37.091  26.617   7.364
 3448POPC   NC345095  33.006  24.443   5.564
 3448POPC   PO445096  32.997  24.449   5.864
 3448POPC   GL145097  33.011  24.528   6.164
 3448POPC   GL245098  33.186  24.494   6.164
 3448POPC   C1A45099  32.998  24.490   6.464
 3448POPC   D2A45100  33.013  24.440   6.764
 3448POPC   C3A45101  33.073  24.522   7.064
 3448POPC   C4A45102  33.064  24.516   7.364
 3448POPC   C1B45103  33.232  24.556   6.464
 3448POPC   C2B45104  33.231  24.543   6.764
 3448POPC   C3B45105  33.274  24.558   7.064
 3448POPC   C4B45106  33.318  24.528   7.364
 3449POPC   NC345107  30.738   5.838   5.564
 3449POPC   PO445108  30.676   5.847   5.864
 3449POPC   GL145109  30.700   5.852   6.164
 3449POPC   GL245110  30.704   6.041   6.164
 3449POPC   C1A45111  30.669   5.821   6.464
 3449POPC   D2A45112  30.701   5.904   6.764
 3449POPC   C3A45113  30.659   5.879   7.064
 3449POPC   C4A45114  30.722   5.878   7.364
 3449POPC   C1B45115  30.728   6.095   6.464
 3449POPC   C2B45116  30.661   6.158   6.764
 3449POPC   C3B45117  30.716   6.093   7.064
 3449POPC   C4B45118  30.662   6.083   7.364
 3450POPC   NC345119  39.216  21.375   5.564
 3450POPC   PO445120  39.217  21.412   5.864
 3450POPC   GL145121  39.226  21.391   6.164
 3450POPC   GL245122  39.115  21.358   6.164
 3450POPC   C1A45123  39.183  21.400   6.464
 3450POPC   D2A45124  39.188  21.432   6.764
 3450POPC   C3A45125  39.191  21.389   7.064
 3450POPC   C4A45126  39.270  21.377   7.364
 3450POPC   C1B45127  38.949  21.425   6.464
 3450POPC   C2B45128  38.950  21.425   6.764
 3450POPC   C3B45129  38.991  21.384   7.064
 3450POPC   C4B45130  39.028  21.401   7.364
 3451POPC   NC345131  41.575  32.279   5.564
 3451POPC   PO445132  41.515  32.262   5.864
 3451POPC   GL145133  41.514  32.240   6.164
 3451POPC   GL245134  41.452  32.163   6.164
 3451POPC   C1A45135  41.573  32.204   6.464
 3451POPC   D2A45136  41.592  32.212   6.764
 3451POPC   C3A45137  41.572  32.254   7.064
 3451POPC   C4A45138  41.604  32.260   7.364
 3451POPC   C1B45139  41.285  32.165   6.464
 3451POPC   C2B45140  41.342  32.113   6.764
 3451POPC   C3B45141  41.337  32.197   7.064
 3451POPC   C4B45142  41.287  32.158   7.364
 3452POPC   NC345143   4.320   4.300   5.564
 3452POPC   PO445144   4.334   4.340   5.864
 3452POPC   GL145145   4.318   4.335   6.164
 3452POPC   GL245146   4.202   4.239   6.164
 3452POPC   C1A45147   4.326   4.332   6.464
 3452POPC   D2A45148   4.274   4.314   6.764
 3452POPC   C3A45149   4.332   4.309   7.064
 3452POPC   C4A45150   4.334   4.341   7.364
 3452POPC   C1B45151   4.114   4.208   6.464
 3452POPC   C2B45152   4.149   4.199   6.764
 3452POPC   C3B45153   4.081   4.191   7.064
 3452POPC   C4B45154   4.136   4.240   7.364
 3453POPC   NC345155  12.885   0.410   5.564
 3453POPC   PO445156  12.872   0.389   5.864
 3453POPC   GL145157  12.843   0.461   6.164
 3453POPC   GL245158  12.953   0.280   6.164
 3453POPC   C1A45159  12.841   0.442   6.464
 3453POPC   D2A45160  12.857   0.442   6.764
 3453POPC   C3A45161  12.842   0.431   7.064
 3453POPC   C4A45162  12.892   0.416   7.364
 3453POPC   C1B45163  12.948   0.196   6.464
 3453POPC   C2B45164  12.935   0.174   6.764
 3453POPC   C3B45165  12.972   0.252   7.064
 3453POPC   C4B45166  12.972   0.238   7.364
 3454POPC   NC345167  28.359  36.937   5.564
 3454POPC   PO445168  28.364  36.890   5.864
 3454POPC   GL145169  28.410  36.919   6.164
 3454POPC   GL245170  28.252  36.940   6.164
 3454POPC   C1A45171  28.355  36.913   6.464
 3454POPC   D2A45172  28.375  36.905   6.764
 3454POPC   C3A45173  28.415  36.918   7.064
 3454POPC   C4A45174  28.410  36.910   7.364
 3454POPC   C1B45175  28.138  36.902   6.464
 3454POPC   C2B45176  28.166  36.915   6.764
 3454POPC   C3B45177  28.097  36.920   7.064
 3454POPC   C4B45178  28.108  36.954   7.364
 3455POPC   NC345179  36.104   1.178   5.564
 3455POPC   PO445180  36.174   1.253   5.864
 3455POPC   GL145181  36.080   1.242   6.164
 3455POPC   GL245182  36.264   1.154   6.164
 3455POPC   C1A45183  36.161   1.248   6.464
 3455POPC   D2A45184  36.088   1.252   6.764
 3455POPC   C3A45185  36.081   1.205   7.064
 3455POPC   C4A45186  36.150   1.261   7.364
 3455POPC   C1B45187  36.314   1.067   6.464
 3455POPC   C2B45188  36.299   1.103   6.764
 3455POPC   C3B45189  36.352   1.108   7.064
 3455POPC   C4B45190  36.319   1.051   7.364
 3456POPC   NC345191  32.226  34.552   5.564
 3456POPC   PO445192  32.267  34.543   5.864
 3456POPC   GL145193  32.204  34.571   6.164
 3456POPC   GL245194  32.131  34.684   6.164
 3456POPC   C1A45195  32.298  34.545   6.464
 3456POPC   D2A45196  32.287  34.622   6.764
 3456POPC   C3A45197  32.252  34.536   7.064
 3456POPC   C4A45198  32.285  34.567   7.364
 3456POPC   C1B45199  32.005  34.763   6.464
 3456POPC   C2B45200  32.035  34.738   6.764
 3456POPC   C3B45201  32.037  34.717   7.064
 3456POPC   C4B45202  32.072  34.738   7.364
 3457POPC   NC345203   1.942   2.729   5.564
 3457POPC   PO445204   1.941   2.729   5.864
 3457POPC   GL145205   1.959   2.726   6.164
 3457POPC   GL245206   2.011   2.647   6.164
 3457POPC   C1A45207   1.998   2.758   6.464
 3457POPC   D2A45208   2.031   2.775   6.764
 3457POPC   C3A45209   1.962   2.803   7.064
 3457POPC   C4A45210   2.015   2.785   7.364
 3457POPC   C1B45211   2.094   2.510   6.464
 3457POPC   C2B45212   2.081   2.537   6.764
 3457POPC   C3B45213   2.091   2.573   7.064
 3457POPC   C4B45214   2.091   2.499   7.364
 3458POPC   NC345215  29.157   5.897   5.564
 3458POPC   PO445216  29.194   5.885   5.864
 3458POPC   GL145217  29.191   5.843   6.164
 3458POPC   GL245218  29.035   5.969   6.164
 3458POPC   C1A45219  29.185   5.840   6.464
 3458POPC   D2A45220  29.101   5.843   6.764
 3458POPC   C3A45221  29.153   5.891   7.064
 3458POPC   C4A45222  29.187   5.913   7.364
 3458POPC   C1B45223  29.037   6.101   6.464
 3458POPC   C2B45224  29.035   6.061   6.764
 3458POPC   C3B45225  28.999   6.082   7.064
 3458POPC   C4B45226  28.972   6.037   7.364
 3459POPC   NC345227  36.100  44.694   5.564
 3459POPC   PO445228  36.116  44.670   5.864
 3459POPC   GL145229  36.144  44.630   6.164
 3459POPC   GL245230  36.112  44.580   6.164
 3459POPC   C1A45231  36.110  44.703   6.464
 3459POPC   D2A45232  36.158  44.619   6.764
 3459POPC   C3A45233  36.151  44.684   7.064
 3459POPC   C4A45234  36.116  44.701   7.364
 3459POPC   C1B45235  36.074  44.381   6.464
 3459POPC   C2B45236  36.011  44.438   6.764
 3459POPC   C3B45237  36.025  44.379   7.064
 3459POPC   C4B45238  36.055  44.376   7.364
 3460POPC   NC345239   9.014  34.566   5.564
 3460POPC   PO445240   8.929  34.585   5.864
 3460POPC   GL145241   9.007  34.615   6.164
 3460POPC   GL245242   9.052  34.738   6.164
 3460POPC   C1A45243   9.004  34.554   6.464
 3460POPC   D2A45244   8.972  34.601   6.764
 3460POPC   C3A45245   8.937  34.610   7.064
 3460POPC   C4A45246   8.993  34.606   7.364
 3460POPC   C1B45247   9.045  34.772   6.464
 3460POPC   C2B45248   9.059  34.828   6.764
 3460POPC   C3B45249   9.094  34.798   7.064
 3460POPC   C4B45250   9.046  34.843   7.364
 3461POPC   NC345251   2.810  40.041   5.564
 3461POPC   PO445252   2.743  40.025   5.864
 3461POPC   GL145253   2.723  39.968   6.164
 3461POPC   GL245254   2.843  39.888   6.164
 3461POPC   C1A45255   2.784  40.028   6.464
 3461POPC   D2A45256   2.754  40.001   6.764
 3461POPC   C3A45257   2.802  40.033   7.064
 3461POPC   C4A45258   2.716  39.990   7.364
 3461POPC   C1B45259   2.995  39.814   6.464
 3461POPC   C2B45260   2.952  39.853   6.764
 3461POPC   C3B45261   3.009  39.847   7.064
 3461POPC   C4B45262   2.926  39.824   7.364
 3462POPC   NC345263  33.845  43.149   5.564
 3462POPC   PO445264  33.825  43.121   5.864
 3462POPC   GL145265  33.816  43.090   6.164
 3462POPC   GL245266  33.761  42.948   6.164
 3462POPC   C1A45267  33.783  43.132   6.464
 3462POPC   D2A45268  33.803  43.135   6.764
 3462POPC   C3A45269  33.781  43.078   7.064
 3462POPC   C4A45270  33.754  43.146   7.364
 3462POPC   C1B45271  33.828  42.858   6.464
 3462POPC   C2B45272  33.739  42.890   6.764
 3462POPC   C3B45273  33.832  42.874   7.064
 3462POPC   C4B45274  33.739  42.885   7.364
 3463POPC   NC345275  24.539  20.572   5.564
 3463POPC   PO445276  24.521  20.596   5.864
 3463POPC   GL145277  24.507  20.567   6.164
 3463POPC   GL245278  24.408  20.708   6.164
 3463POPC   C1A45279  24.526  20.612   6.464
 3463POPC   D2A45280  24.516  20.605   6.764
 3463POPC   C3A45281  24.476  20.647   7.064
 3463POPC   C4A45282  24.496  20.655   7.364
 3463POPC   C1B45283  24.324  20.803   6.464
 3463POPC   C2B45284  24.400  20.801   6.764
 3463POPC   C3B45285  24.331  20.863   7.064
 3463POPC   C4B45286  24.355  20.816   7.364
 3464POPC   NC345287   8.165   2.035   5.564
 3464POPC   PO445288   8.166   2.017   5.864
 3464POPC   GL145289   8.218   1.960   6.164
 3464POPC   GL245290   8.119   2.111   6.164
 3464POPC   C1A45291   8.157   1.998   6.464
 3464POPC   D2A45292   8.203   2.021   6.764
 3464POPC   C3A45293   8.225   1.956   7.064
 3464POPC   C4A45294   8.191   2.009   7.364
 3464POPC   C1B45295   8.002   2.179   6.464
 3464POPC   C2B45296   7.980   2.116   6.764
 3464POPC   C3B45297   8.009   2.155   7.064
 3464POPC   C4B45298   8.022   2.099   7.364
 3465POPC   NC345299  13.584  41.560   5.564
 3465POPC   PO445300  13.646  41.591   5.864
 3465POPC   GL145301  13.599  41.547   6.164
 3465POPC   GL245302  13.495  41.455   6.164
 3465POPC   C1A45303  13.588  41.546   6.464
 3465POPC   D2A45304  13.593  41.548   6.764
 3465POPC   C3A45305  13.628  41.517   7.064
 3465POPC   C4A45306  13.625  41.571   7.364
 3465POPC   C1B45307  13.486  41.324   6.464
 3465POPC   C2B45308  13.450  41.377   6.764
 3465POPC   C3B45309  13.415  41.388   7.064
 3465POPC   C4B45310  13.413  41.405   7.364
 3466POPC   NC345311  43.911  44.688   5.564
 3466POPC   PO445312  43.861  44.686   5.864
 3466POPC   GL145313  43.878  44.651   6.164
 3466POPC   GL245314  43.938  44.704   6.164
 3466POPC   C1A45315  43.903  44.633   6.464
 3466POPC   D2A45316  43.850  44.688   6.764
 3466POPC   C3A45317  43.839  44.661   7.064
 3466POPC   C4A45318  43.883  44.653   7.364
 3466POPC   C1B45319  44.076  44.821   6.464
 3466POPC   C2B45320  44.091  44.860   6.764
 3466POPC   C3B45321  44.027  44.810   7.064
 3466POPC   C4B45322  44.072  44.864   7.364
 3467POPC   NC345323  29.156  43.075   5.564
 3467POPC   PO445324  29.190  43.074   5.864
 3467POPC   GL145325  29.152  43.126   6.164
 3467POPC   GL245326  29.053  43.256   6.164
 3467POPC   C1A45327  29.177  43.103   6.464
 3467POPC   D2A45328  29.132  43.133   6.764
 3467POPC   C3A45329  29.158  43.128   7.064
 3467POPC   C4A45330  29.181  43.081   7.364
 3467POPC   C1B45331  29.004  43.283   6.464
 3467POPC   C2B45332  28.947  43.286   6.764
 3467POPC   C3B45333  28.990  43.318   7.064
 3467POPC   C4B45334  28.976  43.294   7.364
 3468POPC   NC345335   5.085  42.371   5.564
 3468POPC   PO445336   5.100  42.295   5.864
 3468POPC   GL145337   5.069  42.358   6.164
 3468POPC   GL245338   5.033  42.224   6.164
 3468POPC   C1A45339   5.092  42.297   6.464
 3468POPC   D2A45340   5.071  42.314   6.764
 3468POPC   C3A45341   5.091  42.332   7.064
 3468POPC   C4A45342   5.055  42.318   7.364
 3468POPC   C1B45343   4.930  42.138   6.464
 3468POPC   C2B45344   4.879  42.210   6.764
 3468POPC   C3B45345   4.851  42.221   7.064
 3468POPC   C4B45346   4.900  42.193   7.364
 3469POPC   NC345347  39.218  39.230   5.564
 3469POPC   PO445348  39.257  39.214   5.864
 3469POPC   GL145349  39.230  39.201   6.164
 3469POPC   GL245350  39.208  39.124   6.164
 3469POPC   C1A45351  39.230  39.183   6.464
 3469POPC   D2A45352  39.249  39.219   6.764
 3469POPC   C3A45353  39.215  39.228   7.064
 3469POPC   C4A45354  39.273  39.266   7.364
 3469POPC   C1B45355  39.120  39.053   6.464
 3469POPC   C2B45356  39.144  38.971   6.764
 3469POPC   C3B45357  39.159  39.047   7.064
 3469POPC   C4B45358  39.097  39.011   7.364
 3470POPC   NC345359  34.600  11.286   5.564
 3470POPC   PO445360  34.569  11.303   5.864
 3470POPC   GL145361  34.578  11.307   6.164
 3470POPC   GL245362  34.518  11.214   6.164
 3470POPC   C1A45363  34.541  11.338   6.464
 3470POPC   D2A45364  34.623  11.291   6.764
 3470POPC   C3A45365  34.559  11.293   7.064
 3470POPC   C4A45366  34.570  11.316   7.364
 3470POPC   C1B45367  34.433  11.174   6.464
 3470POPC   C2B45368  34.375  11.091   6.764
 3470POPC   C3B45369  34.372  11.175   7.064
 3470POPC   C4B45370  34.409  11.117   7.364
 3471POPC   NC345371  19.875   5.873   5.564
 3471POPC   PO445372  19.810   5.825   5.864
 3471POPC   GL145373  19.787   5.904   6.164
 3471POPC   GL245374  19.901   5.934   6.164
 3471POPC   C1A45375  19.814   5.907   6.464
 3471POPC   D2A45376  19.788   5.868   6.764
 3471POPC   C3A45377  19.800   5.872   7.064
 3471POPC   C4A45378  19.807   5.836   7.364
 3471POPC   C1B45379  20.081   5.935   6.464
 3471POPC   C2B45380  20.031   5.966   6.764
 3471POPC   C3B45381  20.109   5.989   7.064
 3471POPC   C4B45382  20.093   5.998   7.364
 3472POPC   NC345383   0.450  38.497   5.564
 3472POPC   PO445384   0.482  38.499   5.864
 3472POPC   GL145385   0.389  38.488   6.164
 3472POPC   GL245386   0.491  38.389   6.164
 3472POPC   C1A45387   0.438  38.464   6.464
 3472POPC   D2A45388   0.405  38.460   6.764
 3472POPC   C3A45389   0.446  38.457   7.064
 3472POPC   C4A45390   0.449  38.419   7.364
 3472POPC   C1B45391   0.529  38.249   6.464
 3472POPC   C2B45392   0.503  38.207   6.764
 3472POPC   C3B45393   0.515  38.248   7.064
 3472POPC   C4B45394   0.562  38.195   7.364
 3473POPC   NC345395  39.235  20.616   5.564
 3473POPC   PO445396  39.245  20.567   5.864
 3473POPC   GL145397  39.267  20.658   6.164
 3473POPC   GL245398  39.152  20.613   6.164
 3473POPC   C1A45399  39.251  20.577   6.464
 3473POPC   D2A45400  39.259  20.620   6.764
 3473POPC   C3A45401  39.249  20.590   7.064
 3473POPC   C4A45402  39.249  20.591   7.364
 3473POPC   C1B45403  38.963  20.529   6.464
 3473POPC   C2B45404  39.037  20.520   6.764
 3473POPC   C3B45405  39.005  20.567   7.064
 3473POPC   C4B45406  39.003  20.535   7.364
 3474POPC   NC345407   3.568  29.955   5.564
 3474POPC   PO445408   3.538  29.952   5.864
 3474POPC   GL145409   3.578  29.929   6.164
 3474POPC   GL245410   3.616  29.932   6.164
 3474POPC   C1A45411   3.503  29.883   6.464
 3474POPC   D2A45412   3.575  29.897   6.764
 3474POPC   C3A45413   3.524  29.955   7.064
 3474POPC   C4A45414   3.557  29.872   7.364
 3474POPC   C1B45415   3.788  29.917   6.464
 3474POPC   C2B45416   3.826  29.869   6.764
 3474POPC   C3B45417   3.767  29.910   7.064
 3474POPC   C4B45418   3.839  29.945   7.364
 3475POPC   NC345419  12.854  40.009   5.564
 3475POPC   PO445420  12.832  40.042   5.864
 3475POPC   GL145421  12.849  39.987   6.164
 3475POPC   GL245422  12.756  40.055   6.164
 3475POPC   C1A45423  12.864  39.981   6.464
 3475POPC   D2A45424  12.854  40.004   6.764
 3475POPC   C3A45425  12.839  40.050   7.064
 3475POPC   C4A45426  12.895  40.021   7.364
 3475POPC   C1B45427  12.621  40.136   6.464
 3475POPC   C2B45428  12.666  40.182   6.764
 3475POPC   C3B45429  12.664  40.160   7.064
 3475POPC   C4B45430  12.654  40.124   7.364
 3476POPC   NC345431  16.777   7.409   5.564
 3476POPC   PO445432  16.682   7.460   5.864
 3476POPC   GL145433  16.730   7.445   6.164
 3476POPC   GL245434  16.737   7.532   6.164
 3476POPC   C1A45435  16.699   7.398   6.464
 3476POPC   D2A45436  16.719   7.433   6.764
 3476POPC   C3A45437  16.759   7.447   7.064
 3476POPC   C4A45438  16.707   7.450   7.364
 3476POPC   C1B45439  16.728   7.683   6.464
 3476POPC   C2B45440  16.724   7.639   6.764
 3476POPC   C3B45441  16.744   7.647   7.064
 3476POPC   C4B45442  16.718   7.628   7.364
 3477POPC   NC345443  22.121  43.858   5.564
 3477POPC   PO445444  22.176  43.873   5.864
 3477POPC   GL145445  22.203  43.853   6.164
 3477POPC   GL245446  22.181  43.780   6.164
 3477POPC   C1A45447  22.178  43.880   6.464
 3477POPC   D2A45448  22.164  43.899   6.764
 3477POPC   C3A45449  22.152  43.933   7.064
 3477POPC   C4A45450  22.211  43.898   7.364
 3477POPC   C1B45451  22.167  43.678   6.464
 3477POPC   C2B45452  22.229  43.640   6.764
 3477POPC   C3B45453  22.139  43.669   7.064
 3477POPC   C4B45454  22.146  43.645   7.364
 3478POPC   NC345455  13.609  39.984   5.564
 3478POPC   PO445456  13.676  39.971   5.864
 3478POPC   GL145457  13.652  40.050   6.164
 3478POPC   GL245458  13.711  40.016   6.164
 3478POPC   C1A45459  13.583  39.976   6.464
 3478POPC   D2A45460  13.676  40.001   6.764
 3478POPC   C3A45461  13.618  40.021   7.064
 3478POPC   C4A45462  13.657  40.047   7.364
 3478POPC   C1B45463  13.900  40.042   6.464
 3478POPC   C2B45464  13.898  40.061   6.764
 3478POPC   C3B45465  13.866  40.050   7.064
 3478POPC   C4B45466  13.907  40.072   7.364
 3479POPC   NC345467  35.337   7.457   5.564
 3479POPC   PO445468  35.369   7.426   5.864
 3479POPC   GL145469  35.375   7.371   6.164
 3479POPC   GL245470  35.416   7.291   6.164
 3479POPC   C1A45471  35.316   7.470   6.464
 3479POPC   D2A45472  35.342   7.404   6.764
 3479POPC   C3A45473  35.386   7.441   7.064
 3479POPC   C4A45474  35.359   7.381   7.364
 3479POPC   C1B45475  35.381   7.155   6.464
 3479POPC   C2B45476  35.420   7.150   6.764
 3479POPC   C3B45477  35.458   7.205   7.064
 3479POPC   C4B45478  35.364   7.206   7.364
 3480POPC   NC345479   2.724  12.061   5.564
 3480POPC   PO445480   2.782  12.034   5.864
 3480POPC   GL145481   2.801  12.075   6.164
 3480POPC   GL245482   2.648  12.041   6.164
 3480POPC   C1A45483   2.815  12.035   6.464
 3480POPC   D2A45484   2.779  12.078   6.764
 3480POPC   C3A45485   2.788  12.048   7.064
 3480POPC   C4A45486   2.763  12.083   7.364
 3480POPC   C1B45487   2.501  12.119   6.464
 3480POPC   C2B45488   2.533  12.064   6.764
 3480POPC   C3B45489   2.505  12.061   7.064
 3480POPC   C4B45490   2.486  12.117   7.364
 3481POPC   NC345491  15.995  16.700   5.564
 3481POPC   PO445492  15.977  16.716   5.864
 3481POPC   GL145493  15.988  16.725   6.164
 3481POPC   GL245494  16.014  16.835   6.164
 3481POPC   C1A45495  15.934  16.683   6.464
 3481POPC   D2A45496  15.922  16.726   6.764
 3481POPC   C3A45497  15.970  16.733   7.064
 3481POPC   C4A45498  15.960  16.757   7.364
 3481POPC   C1B45499  16.164  16.932   6.464
 3481POPC   C2B45500  16.154  16.895   6.764
 3481POPC   C3B45501  16.125  16.926   7.064
 3481POPC   C4B45502  16.126  16.931   7.364
 3482POPC   NC345503  30.729  38.469   5.564
 3482POPC   PO445504  30.704  38.449   5.864
 3482POPC   GL145505  30.692  38.431   6.164
 3482POPC   GL245506  30.810  38.386   6.164
 3482POPC   C1A45507  30.663  38.490   6.464
 3482POPC   D2A45508  30.669  38.496   6.764
 3482POPC   C3A45509  30.666  38.424   7.064
 3482POPC   C4A45510  30.711  38.406   7.364
 3482POPC   C1B45511  30.908  38.309   6.464
 3482POPC   C2B45512  30.903  38.324   6.764
 3482POPC   C3B45513  30.887  38.296   7.064
 3482POPC   C4B45514  30.883  38.332   7.364
 3483POPC   NC345515  37.713   3.535   5.564
 3483POPC   PO445516  37.719   3.537   5.864
 3483POPC   GL145517  37.727   3.526   6.164
 3483POPC   GL245518  37.756   3.642   6.164
 3483POPC   C1A45519  37.720   3.568   6.464
 3483POPC   D2A45520  37.677   3.506   6.764
 3483POPC   C3A45521  37.720   3.558   7.064
 3483POPC   C4A45522  37.693   3.531   7.364
 3483POPC   C1B45523  37.821   3.784   6.464
 3483POPC   C2B45524  37.860   3.722   6.764
 3483POPC   C3B45525  37.828   3.774   7.064
 3483POPC   C4B45526  37.804   3.761   7.364
 3484POPC   NC345527  26.080  15.950   5.564
 3484POPC   PO445528  26.001  15.999   5.864
 3484POPC   GL145529  26.057  15.952   6.164
 3484POPC   GL245530  25.990  15.853   6.164
 3484POPC   C1A45531  26.048  15.972   6.464
 3484POPC   D2A45532  25.996  15.955   6.764
 3484POPC   C3A45533  26.007  15.934   7.064
 3484POPC   C4A45534  26.040  15.985   7.364
 3484POPC   C1B45535  26.029  15.673   6.464
 3484POPC   C2B45536  26.028  15.688   6.764
 3484POPC   C3B45537  25.973  15.751   7.064
 3484POPC   C4B45538  25.979  15.732   7.364
 3485POPC   NC345539  25.217   5.835   5.564
 3485POPC   PO445540  25.286   5.906   5.864
 3485POPC   GL145541  25.225   5.824   6.164
 3485POPC   GL245542  25.373   5.818   6.164
 3485POPC   C1A45543  25.250   5.832   6.464
 3485POPC   D2A45544  25.262   5.895   6.764
 3485POPC   C3A45545  25.298   5.833   7.064
 3485POPC   C4A45546  25.248   5.850   7.364
 3485POPC   C1B45547  25.450   5.753   6.464
 3485POPC   C2B45548  25.415   5.746   6.764
 3485POPC   C3B45549  25.498   5.682   7.064
 3485POPC   C4B45550  25.499   5.756   7.364
 3486POPC   NC345551  25.992  41.563   5.564
 3486POPC   PO445552  26.061  41.557   5.864
 3486POPC   GL145553  26.084  41.580   6.164
 3486POPC   GL245554  25.941  41.592   6.164
 3486POPC   C1A45555  26.051  41.569   6.464
 3486POPC   D2A45556  26.056  41.574   6.764
 3486POPC   C3A45557  26.004  41.587   7.064
 3486POPC   C4A45558  26.032  41.548   7.364
 3486POPC   C1B45559  25.767  41.623   6.464
 3486POPC   C2B45560  25.774  41.528   6.764
 3486POPC   C3B45561  25.817  41.606   7.064
 3486POPC   C4B45562  25.772  41.577   7.364
 3487POPC   NC345563   1.942  40.767   5.564
 3487POPC   PO445564   2.015  40.804   5.864
 3487POPC   GL145565   1.983  40.818   6.164
 3487POPC   GL245566   1.823  40.741   6.164
 3487POPC   C1A45567   2.005  40.793   6.464
 3487POPC   D2A45568   1.967  40.783   6.764
 3487POPC   C3A45569   1.990  40.797   7.064
 3487POPC   C4A45570   1.950  40.794   7.364
 3487POPC   C1B45571   1.755  40.747   6.464
 3487POPC   C2B45572   1.773  40.751   6.764
 3487POPC   C3B45573   1.739  40.797   7.064
 3487POPC   C4B45574   1.736  40.778   7.364
 3488POPC   NC345575  12.808   6.660   5.564
 3488POPC   PO445576  12.867   6.641   5.864
 3488POPC   GL145577  12.866   6.627   6.164
 3488POPC   GL245578  12.713   6.743   6.164
 3488POPC   C1A45579  12.873   6.631   6.464
 3488POPC   D2A45580  12.877   6.649   6.764
 3488POPC   C3A45581  12.822   6.629   7.064
 3488POPC   C4A45582  12.854   6.664   7.364
 3488POPC   C1B45583  12.597   6.793   6.464
 3488POPC   C2B45584  12.665   6.751   6.764
 3488POPC   C3B45585  12.674   6.726   7.064
 3488POPC   C4B45586  12.619   6.755   7.364
 3489POPC   NC345587  37.653   6.630   5.564
 3489POPC   PO445588  37.724   6.617   5.864
 3489POPC   GL145589  37.653   6.596   6.164
 3489POPC   GL245590  37.795   6.639   6.164
 3489POPC   C1A45591  37.667   6.690   6.464
 3489POPC   D2A45592  37.661   6.663   6.764
 3489POPC   C3A45593  37.641   6.657   7.064
 3489POPC   C4A45594  37.720   6.656   7.364
 3489POPC   C1B45595  37.933   6.632   6.464
 3489POPC   C2B45596  37.890   6.640   6.764
 3489POPC   C3B45597  37.960   6.725   7.064
 3489POPC   C4B45598  37.895   6.726   7.364
 3490POPC   NC345599   8.176  16.761   5.564
 3490POPC   PO445600   8.169  16.709   5.864
 3490POPC   GL145601   8.235  16.752   6.164
 3490POPC   GL245602   8.023  16.704   6.164
 3490POPC   C1A45603   8.174  16.745   6.464
 3490POPC   D2A45604   8.181  16.750   6.764
 3490POPC   C3A45605   8.231  16.687   7.064
 3490POPC   C4A45606   8.237  16.711   7.364
 3490POPC   C1B45607   7.995  16.761   6.464
 3490POPC   C2B45608   7.973  16.736   6.764
 3490POPC   C3B45609   7.946  16.675   7.064
 3490POPC   C4B45610   7.935  16.711   7.364
 3491POPC   NC345611  24.523  39.241   5.564
 3491POPC   PO445612  24.473  39.277   5.864
 3491POPC   GL145613  24.513  39.233   6.164
 3491POPC   GL245614  24.369  39.281   6.164
 3491POPC   C1A45615  24.495  39.205   6.464
 3491POPC   D2A45616  24.526  39.265   6.764
 3491POPC   C3A45617  24.509  39.238   7.064
 3491POPC   C4A45618  24.497  39.250   7.364
 3491POPC   C1B45619  24.232  39.340   6.464
 3491POPC   C2B45620  24.250  39.252   6.764
 3491POPC   C3B45621  24.218  39.254   7.064
 3491POPC   C4B45622  24.204  39.324   7.364
 3492POPC   NC345623  44.691  22.906   5.564
 3492POPC   PO445624  44.644  22.938   5.864
 3492POPC   GL145625  44.657  22.928   6.164
 3492POPC   GL245626  44.778  22.858   6.164
 3492POPC   C1A45627  44.618  22.984   6.464
 3492POPC   D2A45628  44.682  22.954   6.764
 3492POPC   C3A45629  44.704  22.981   7.064
 3492POPC   C4A45630  44.617  22.948   7.364
 3492POPC   C1B45631  44.849  22.793   6.464
 3492POPC   C2B45632  44.907  22.857   6.764
 3492POPC   C3B45633  44.933  22.803   7.064
 3492POPC   C4B45634  44.892  22.850   7.364
 3493POPC   NC345635  38.467  36.870   5.564
 3493POPC   PO445636  38.502  36.876   5.864
 3493POPC   GL145637  38.408  36.879   6.164
 3493POPC   GL245638  38.412  37.033   6.164
 3493POPC   C1A45639  38.469  36.904   6.464
 3493POPC   D2A45640  38.485  36.942   6.764
 3493POPC   C3A45641  38.466  36.861   7.064
 3493POPC   C4A45642  38.489  36.892   7.364
 3493POPC   C1B45643  38.374  37.121   6.464
 3493POPC   C2B45644  38.415  37.131   6.764
 3493POPC   C3B45645  38.378  37.118   7.064
 3493POPC   C4B45646  38.431  37.101   7.364
 3494POPC   NC345647  28.335  40.013   5.564
 3494POPC   PO445648  28.413  39.958   5.864
 3494POPC   GL145649  28.337  40.050   6.164
 3494POPC   GL245650  28.441  40.071   6.164
 3494POPC   C1A45651  28.339  40.034   6.464
 3494POPC   D2A45652  28.333  40.011   6.764
 3494POPC   C3A45653  28.414  40.006   7.064
 3494POPC   C4A45654  28.349  40.032   7.364
 3494POPC   C1B45655  28.592  40.080   6.464
 3494POPC   C2B45656  28.578  40.148   6.764
 3494POPC   C3B45657  28.583  40.167   7.064
 3494POPC   C4B45658  28.608  40.131   7.364
 3495POPC   NC345659  22.164  14.375   5.564
 3495POPC   PO445660  22.121  14.395   5.864
 3495POPC   GL145661  22.133  14.443   6.164
 3495POPC   GL245662  22.148  14.535   6.164
 3495POPC   C1A45663  22.167  14.446   6.464
 3495POPC   D2A45664  22.170  14.404   6.764
 3495POPC   C3A45665  22.185  14.430   7.064
 3495POPC   C4A45666  22.129  14.429   7.364
 3495POPC   C1B45667  22.086  14.651   6.464
 3495POPC   C2B45668  22.103  14.579   6.764
 3495POPC   C3B45669  22.096  14.590   7.064
 3495POPC   C4B45670  22.081  14.621   7.364
 3496POPC   NC345671  36.106  11.267   5.564
 3496POPC   PO445672  36.139  11.252   5.864
 3496POPC   GL145673  36.133  11.313   6.164
 3496POPC   GL245674  36.074  11.378   6.164
 3496POPC   C1A45675  36.154  11.261   6.464
 3496POPC   D2A45676  36.109  11.261   6.764
 3496POPC   C3A45677  36.109  11.293   7.064
 3496POPC   C4A45678  36.081  11.264   7.364
 3496POPC   C1B45679  35.916  11.437   6.464
 3496POPC   C2B45680  35.962  11.472   6.764
 3496POPC   C3B45681  35.923  11.451   7.064
 3496POPC   C4B45682  35.924  11.490   7.364
 3497POPC   NC345683  15.950  19.811   5.564
 3497POPC   PO445684  15.919  19.854   5.864
 3497POPC   GL145685  15.974  19.825   6.164
 3497POPC   GL245686  15.886  19.875   6.164
 3497POPC   C1A45687  15.923  19.868   6.464
 3497POPC   D2A45688  15.986  19.846   6.764
 3497POPC   C3A45689  15.966  19.836   7.064
 3497POPC   C4A45690  15.989  19.849   7.364
 3497POPC   C1B45691  15.779  20.034   6.464
 3497POPC   C2B45692  15.761  20.022   6.764
 3497POPC   C3B45693  15.770  20.034   7.064
 3497POPC   C4B45694  15.762  20.030   7.364
 3498POPC   NC345695  22.985  38.441   5.564
 3498POPC   PO445696  22.915  38.486   5.864
 3498POPC   GL145697  22.975  38.496   6.164
 3498POPC   GL245698  22.822  38.486   6.164
 3498POPC   C1A45699  22.918  38.463   6.464
 3498POPC   D2A45700  22.971  38.459   6.764
 3498POPC   C3A45701  22.934  38.437   7.064
 3498POPC   C4A45702  22.946  38.487   7.364
 3498POPC   C1B45703  22.694  38.381   6.464
 3498POPC   C2B45704  22.712  38.446   6.764
 3498POPC   C3B45705  22.705  38.456   7.064
 3498POPC   C4B45706  22.723  38.440   7.364
 3499POPC   NC345707   7.400  19.022   5.564
 3499POPC   PO445708   7.434  19.109   5.864
 3499POPC   GL145709   7.453  19.028   6.164
 3499POPC   GL245710   7.263  19.036   6.164
 3499POPC   C1A45711   7.400  19.098   6.464
 3499POPC   D2A45712   7.466  19.045   6.764
 3499POPC   C3A45713   7.418  19.097   7.064
 3499POPC   C4A45714   7.468  19.057   7.364
 3499POPC   C1B45715   7.198  19.034   6.464
 3499POPC   C2B45716   7.127  19.102   6.764
 3499POPC   C3B45717   7.218  19.112   7.064
 3499POPC   C4B45718   7.190  19.085   7.364
 3500POPC   NC345719   5.067  32.990   5.564
 3500POPC   PO445720   5.070  33.024   5.864
 3500POPC   GL145721   5.108  32.975   6.164
 3500POPC   GL245722   5.210  33.026   6.164
 3500POPC   C1A45723   5.136  33.040   6.464
 3500POPC   D2A45724   5.080  33.000   6.764
 3500POPC   C3A45725   5.104  33.017   7.064
 3500POPC   C4A45726   5.126  32.976   7.364
 3500POPC   C1B45727   5.309  32.891   6.464
 3500POPC   C2B45728   5.349  32.984   6.764
 3500POPC   C3B45729   5.307  32.984   7.064
 3500POPC   C4B45730   5.366  32.930   7.364
 3501POPC   NC345731  19.870  19.042   5.564
 3501POPC   PO445732  19.855  19.092   5.864
 3501POPC   GL145733  19.833  19.063   6.164
 3501POPC   GL245734  19.946  19.109   6.164
 3501POPC   C1A45735  19.831  19.017   6.464
 3501POPC   D2A45736  19.829  19.100   6.764
 3501POPC   C3A45737  19.876  19.038   7.064
 3501POPC   C4A45738  19.873  19.052   7.364
 3501POPC   C1B45739  20.040  19.118   6.464
 3501POPC   C2B45740  20.091  19.091   6.764
 3501POPC   C3B45741  20.044  19.127   7.064
 3501POPC   C4B45742  20.115  19.143   7.364
 3502POPC   NC345743  25.220  12.867   5.564
 3502POPC   PO445744  25.306  12.806   5.864
 3502POPC   GL145745  25.315  12.846   6.164
 3502POPC   GL245746  25.145  12.884   6.164
 3502POPC   C1A45747  25.294  12.894   6.464
 3502POPC   D2A45748  25.249  12.898   6.764
 3502POPC   C3A45749  25.264  12.830   7.064
 3502POPC   C4A45750  25.304  12.814   7.364
 3502POPC   C1B45751  25.091  12.959   6.464
 3502POPC   C2B45752  25.048  13.025   6.764
 3502POPC   C3B45753  25.102  12.979   7.064
 3502POPC   C4B45754  25.011  12.952   7.364
 3503POPC   NC345755  26.855  23.750   5.564
 3503POPC   PO445756  26.831  23.712   5.864
 3503POPC   GL145757  26.805  23.669   6.164
 3503POPC   GL245758  26.750  23.573   6.164
 3503POPC   C1A45759  26.828  23.730   6.464
 3503POPC   D2A45760  26.788  23.731   6.764
 3503POPC   C3A45761  26.860  23.729   7.064
 3503POPC   C4A45762  26.837  23.736   7.364
 3503POPC   C1B45763  26.706  23.486   6.464
 3503POPC   C2B45764  26.676  23.452   6.764
 3503POPC   C3B45765  26.748  23.438   7.064
 3503POPC   C4B45766  26.721  23.440   7.364
 3504POPC   NC345767  16.761  14.387   5.564
 3504POPC   PO445768  16.762  14.416   5.864
 3504POPC   GL145769  16.719  14.440   6.164
 3504POPC   GL245770  16.670  14.329   6.164
 3504POPC   C1A45771  16.698  14.402   6.464
 3504POPC   D2A45772  16.746  14.451   6.764
 3504POPC   C3A45773  16.694  14.431   7.064
 3504POPC   C4A45774  16.740  14.435   7.364
 3504POPC   C1B45775  16.652  14.153   6.464
 3504POPC   C2B45776  16.661  14.129   6.764
 3504POPC   C3B45777  16.653  14.203   7.064
 3504POPC   C4B45778  16.642  14.178   7.364
 3505POPC   NC345779  31.431   9.022   5.564
 3505POPC   PO445780  31.482   8.929   5.864
 3505POPC   GL145781  31.491   8.938   6.164
 3505POPC   GL245782  31.384   9.079   6.164
 3505POPC   C1A45783  31.456   8.979   6.464
 3505POPC   D2A45784  31.518   9.000   6.764
 3505POPC   C3A45785  31.469   8.951   7.064
 3505POPC   C4A45786  31.444   8.945   7.364
 3505POPC   C1B45787  31.433   9.221   6.464
 3505POPC   C2B45788  31.417   9.214   6.764
 3505POPC   C3B45789  31.439   9.170   7.064
 3505POPC   C4B45790  31.421   9.233   7.364
 3506POPC   NC345791  21.365  22.196   5.564
 3506POPC   PO445792  21.376  22.162   5.864
 3506POPC   GL145793  21.400  22.186   6.164
 3506POPC   GL245794  21.279  22.172   6.164
 3506POPC   C1A45795  21.417  22.117   6.464
 3506POPC   D2A45796  21.436  22.156   6.764
 3506POPC   C3A45797  21.398  22.208   7.064
 3506POPC   C4A45798  21.423  22.193   7.364
 3506POPC   C1B45799  21.174  22.268   6.464
 3506POPC   C2B45800  21.111  22.268   6.764
 3506POPC   C3B45801  21.188  22.215   7.064
 3506POPC   C4B45802  21.138  22.273   7.364
 3507POPC   NC345803   5.125  36.908   5.564
 3507POPC   PO445804   5.050  36.945   5.864
 3507POPC   GL145805   5.080  36.865   6.164
 3507POPC   GL245806   5.109  37.031   6.164
 3507POPC   C1A45807   5.106  36.933   6.464
 3507POPC   D2A45808   5.061  36.884   6.764
 3507POPC   C3A45809   5.079  36.857   7.064
 3507POPC   C4A45810   5.092  36.862   7.364
 3507POPC   C1B45811   5.180  37.176   6.464
 3507POPC   C2B45812   5.176  37.128   6.764
 3507POPC   C3B45813   5.155  37.123   7.064
 3507POPC   C4B45814   5.165  37.104   7.364
 3508POPC   NC345815  41.543  36.865   5.564
 3508POPC   PO445816  41.597  36.924   5.864
 3508POPC   GL145817  41.606  36.868   6.164
 3508POPC   GL245818  41.425  36.935   6.164
 3508POPC   C1A45819  41.592  36.921   6.464
 3508POPC   D2A45820  41.556  36.867   6.764
 3508POPC   C3A45821  41.537  36.938   7.064
 3508POPC   C4A45822  41.552  36.923   7.364
 3508POPC   C1B45823  41.345  36.908   6.464
 3508POPC   C2B45824  41.332  36.935   6.764
 3508POPC   C3B45825  41.301  36.946   7.064
 3508POPC   C4B45826  41.345  36.945   7.364
 3509POPC   NC345827  31.440  39.211   5.564
 3509POPC   PO445828  31.432  39.246   5.864
 3509POPC   GL145829  31.486  39.279   6.164
 3509POPC   GL245830  31.433  39.293   6.164
 3509POPC   C1A45831  31.504  39.226   6.464
 3509POPC   D2A45832  31.433  39.277   6.764
 3509POPC   C3A45833  31.514  39.192   7.064
 3509POPC   C4A45834  31.503  39.252   7.364
 3509POPC   C1B45835  31.296  39.373   6.464
 3509POPC   C2B45836  31.328  39.393   6.764
 3509POPC   C3B45837  31.301  39.386   7.064
 3509POPC   C4B45838  31.266  39.444   7.364
 3510POPC   NC345839   5.847  37.638   5.564
 3510POPC   PO445840   5.836  37.650   5.864
 3510POPC   GL145841   5.865  37.691   6.164
 3510POPC   GL245842   5.874  37.823   6.164
 3510POPC   C1A45843   5.902  37.675   6.464
 3510POPC   D2A45844   5.912  37.648   6.764
 3510POPC   C3A45845   5.857  37.720   7.064
 3510POPC   C4A45846   5.859  37.705   7.364
 3510POPC   C1B45847   5.796  37.877   6.464
 3510POPC   C2B45848   5.747  37.901   6.764
 3510POPC   C3B45849   5.795  37.874   7.064
 3510POPC   C4B45850   5.800  37.899   7.364
 3511POPC   NC345851  43.081  35.392   5.564
 3511POPC   PO445852  43.119  35.341   5.864
 3511POPC   GL145853  43.069  35.343   6.164
 3511POPC   GL245854  43.166  35.235   6.164
 3511POPC   C1A45855  43.112  35.377   6.464
 3511POPC   D2A45856  43.071  35.326   6.764
 3511POPC   C3A45857  43.105  35.353   7.064
 3511POPC   C4A45858  43.074  35.326   7.364
 3511POPC   C1B45859  43.275  35.157   6.464
 3511POPC   C2B45860  43.260  35.162   6.764
 3511POPC   C3B45861  43.279  35.155   7.064
 3511POPC   C4B45862  43.329  35.177   7.364
 3512POPC   NC345863  32.992  29.178   5.564
 3512POPC   PO445864  33.073  29.185   5.864
 3512POPC   GL145865  33.033  29.178   6.164
 3512POPC   GL245866  32.988  29.286   6.164
 3512POPC   C1A45867  32.982  29.161   6.464
 3512POPC   D2A45868  32.997  29.127   6.764
 3512POPC   C3A45869  33.046  29.192   7.064
 3512POPC   C4A45870  33.045  29.177   7.364
 3512POPC   C1B45871  32.956  29.437   6.464
 3512POPC   C2B45872  33.007  29.344   6.764
 3512POPC   C3B45873  32.957  29.340   7.064
 3512POPC   C4B45874  32.979  29.394   7.364
 3513POPC   NC345875   5.900  19.037   5.564
 3513POPC   PO445876   5.914  19.073   5.864
 3513POPC   GL145877   5.894  19.061   6.164
 3513POPC   GL245878   6.014  19.008   6.164
 3513POPC   C1A45879   5.839  19.026   6.464
 3513POPC   D2A45880   5.872  19.029   6.764
 3513POPC   C3A45881   5.899  19.031   7.064
 3513POPC   C4A45882   5.877  19.030   7.364
 3513POPC   C1B45883   6.025  18.928   6.464
 3513POPC   C2B45884   6.054  18.931   6.764
 3513POPC   C3B45885   6.098  18.862   7.064
 3513POPC   C4B45886   6.061  18.927   7.364
 3514POPC   NC345887  15.187   2.751   5.564
 3514POPC   PO445888  15.192   2.796   5.864
 3514POPC   GL145889  15.208   2.802   6.164
 3514POPC   GL245890  15.141   2.890   6.164
 3514POPC   C1A45891  15.152   2.717   6.464
 3514POPC   D2A45892  15.189   2.767   6.764
 3514POPC   C3A45893  15.223   2.757   7.064
 3514POPC   C4A45894  15.194   2.757   7.364
 3514POPC   C1B45895  15.077   2.992   6.464
 3514POPC   C2B45896  15.130   3.055   6.764
 3514POPC   C3B45897  15.146   2.969   7.064
 3514POPC   C4B45898  15.086   2.989   7.364
 3515POPC   NC345899  26.061   8.233   5.564
 3515POPC   PO445900  26.007   8.198   5.864
 3515POPC   GL145901  26.082   8.186   6.164
 3515POPC   GL245902  25.883   8.179   6.164
 3515POPC   C1A45903  25.994   8.236   6.464
 3515POPC   D2A45904  26.044   8.198   6.764
 3515POPC   C3A45905  26.080   8.224   7.064
 3515POPC   C4A45906  25.994   8.224   7.364
 3515POPC   C1B45907  25.778   8.085   6.464
 3515POPC   C2B45908  25.779   8.101   6.764
 3515POPC   C3B45909  25.801   8.132   7.064
 3515POPC   C4B45910  25.809   8.099   7.364
 3516POPC   NC345911   0.455  43.842   5.564
 3516POPC   PO445912   0.413  43.878   5.864
 3516POPC   GL145913   0.449  43.868   6.164
 3516POPC   GL245914   0.492  44.003   6.164
 3516POPC   C1A45915   0.402  43.846   6.464
 3516POPC   D2A45916   0.404  43.893   6.764
 3516POPC   C3A45917   0.423  43.912   7.064
 3516POPC   C4A45918   0.389  43.893   7.364
 3516POPC   C1B45919   0.590  44.070   6.464
 3516POPC   C2B45920   0.569  44.065   6.764
 3516POPC   C3B45921   0.582  44.094   7.064
 3516POPC   C4B45922   0.576  44.082   7.364
 3517POPC   NC345923   8.937   9.750   5.564
 3517POPC   PO445924   8.942   9.747   5.864
 3517POPC   GL145925   9.001   9.721   6.164
 3517POPC   GL245926   8.865   9.718   6.164
 3517POPC   C1A45927   8.929   9.794   6.464
 3517POPC   D2A45928   9.020   9.786   6.764
 3517POPC   C3A45929   8.960   9.781   7.064
 3517POPC   C4A45930   9.006   9.707   7.364
 3517POPC   C1B45931   8.764   9.598   6.464
 3517POPC   C2B45932   8.751   9.687   6.764
 3517POPC   C3B45933   8.696   9.662   7.064
 3517POPC   C4B45934   8.765   9.646   7.364
 3518POPC   NC345935  20.649  39.971   5.564
 3518POPC   PO445936  20.651  39.986   5.864
 3518POPC   GL145937  20.603  39.978   6.164
 3518POPC   GL245938  20.705  39.991   6.164
 3518POPC   C1A45939  20.645  40.001   6.464
 3518POPC   D2A45940  20.639  40.000   6.764
 3518POPC   C3A45941  20.612  40.020   7.064
 3518POPC   C4A45942  20.642  39.988   7.364
 3518POPC   C1B45943  20.833  39.948   6.464
 3518POPC   C2B45944  20.889  39.995   6.764
 3518POPC   C3B45945  20.850  39.941   7.064
 3518POPC   C4B45946  20.858  39.958   7.364
 3519POPC   NC345947   2.780   5.833   5.564
 3519POPC   PO445948   2.800   5.888   5.864
 3519POPC   GL145949   2.739   5.859   6.164
 3519POPC   GL245950   2.682   5.728   6.164
 3519POPC   C1A45951   2.758   5.849   6.464
 3519POPC   D2A45952   2.735   5.878   6.764
 3519POPC   C3A45953   2.815   5.829   7.064
 3519POPC   C4A45954   2.747   5.876   7.364
 3519POPC   C1B45955   2.639   5.719   6.464
 3519POPC   C2B45956   2.576   5.697   6.764
 3519POPC   C3B45957   2.562   5.726   7.064
 3519POPC   C4B45958   2.589   5.705   7.364
 3520POPC   NC345959  15.206   5.137   5.564
 3520POPC   PO445960  15.151   5.102   5.864
 3520POPC   GL145961  15.167   5.066   6.164
 3520POPC   GL245962  15.043   5.095   6.164
 3520POPC   C1A45963  15.151   5.089   6.464
 3520POPC   D2A45964  15.215   5.120   6.764
 3520POPC   C3A45965  15.177   5.047   7.064
 3520POPC   C4A45966  15.208   5.056   7.364
 3520POPC   C1B45967  14.892   5.196   6.464
 3520POPC   C2B45968  14.938   5.161   6.764
 3520POPC   C3B45969  14.914   5.188   7.064
 3520POPC   C4B45970  14.893   5.121   7.364
 3521POPC   NC345971  27.608  26.845   5.564
 3521POPC   PO445972  27.565  26.831   5.864
 3521POPC   GL145973  27.613  26.804   6.164
 3521POPC   GL245974  27.443  26.823   6.164
 3521POPC   C1A45975  27.627  26.789   6.464
 3521POPC   D2A45976  27.595  26.863   6.764
 3521POPC   C3A45977  27.641  26.846   7.064
 3521POPC   C4A45978  27.554  26.799   7.364
 3521POPC   C1B45979  27.324  26.783   6.464
 3521POPC   C2B45980  27.337  26.759   6.764
 3521POPC   C3B45981  27.347  26.801   7.064
 3521POPC   C4B45982  27.393  26.791   7.364
 3522POPC   NC345983  37.673  29.958   5.564
 3522POPC   PO445984  37.651  29.920   5.864
 3522POPC   GL145985  37.713  29.921   6.164
 3522POPC   GL245986  37.573  29.969   6.164
 3522POPC   C1A45987  37.667  29.875   6.464
 3522POPC   D2A45988  37.696  29.915   6.764
 3522POPC   C3A45989  37.702  29.886   7.064
 3522POPC   C4A45990  37.659  29.872   7.364
 3522POPC   C1B45991  37.553  30.153   6.464
 3522POPC   C2B45992  37.478  30.098   6.764
 3522POPC   C3B45993  37.534  30.097   7.064
 3522POPC   C4B45994  37.477  30.129   7.364
 3523POPC   NC345995   9.710  14.452   5.564
 3523POPC   PO445996   9.738  14.415   5.864
 3523POPC   GL145997   9.701  14.379   6.164
 3523POPC   GL245998   9.616  14.540   6.164
 3523POPC   C1A45999   9.750  14.392   6.464
 3523POPC   D2A46000   9.708  14.372   6.764
 3523POPC   C3A46001   9.737  14.444   7.064
 3523POPC   C4A46002   9.755  14.417   7.364
 3523POPC   C1B46003   9.615  14.616   6.464
 3523POPC   C2B46004   9.574  14.619   6.764
 3523POPC   C3B46005   9.598  14.630   7.064
 3523POPC   C4B46006   9.563  14.634   7.364
 3524POPC   NC346007   0.488  12.860   5.564
 3524POPC   PO446008   0.408  12.898   5.864
 3524POPC   GL146009   0.423  12.895   6.164
 3524POPC   GL246010   0.529  13.004   6.164
 3524POPC   C1A46011   0.428  12.860   6.464
 3524POPC   D2A46012   0.389  12.898   6.764
 3524POPC   C3A46013   0.416  12.872   7.064
 3524POPC   C4A46014   0.390  12.838   7.364
 3524POPC   C1B46015   0.578  13.051   6.464
 3524POPC   C2B46016   0.516  13.056   6.764
 3524POPC   C3B46017   0.592  13.123   7.064
 3524POPC   C4B46018   0.527  13.039   7.364
 3525POPC   NC346019  14.354   9.785   5.564
 3525POPC   PO446020  14.417   9.743   5.864
 3525POPC   GL146021  14.426   9.705   6.164
 3525POPC   GL246022  14.306   9.669   6.164
 3525POPC   C1A46023  14.361   9.758   6.464
 3525POPC   D2A46024  14.362   9.761   6.764
 3525POPC   C3A46025  14.399   9.735   7.064
 3525POPC   C4A46026  14.423   9.743   7.364
 3525POPC   C1B46027  14.259   9.568   6.464
 3525POPC   C2B46028  14.281   9.495   6.764
 3525POPC   C3B46029  14.320   9.496   7.064
 3525POPC   C4B46030  14.250   9.487   7.364
 3526POPC   NC346031  30.691  40.813   5.564
 3526POPC   PO446032  30.706  40.766   5.864
 3526POPC   GL146033  30.725  40.780   6.164
 3526POPC   GL246034  30.826  40.766   6.164
 3526POPC   C1A46035  30.690  40.817   6.464
 3526POPC   D2A46036  30.672  40.735   6.764
 3526POPC   C3A46037  30.661  40.735   7.064
 3526POPC   C4A46038  30.722  40.802   7.364
 3526POPC   C1B46039  30.954  40.699   6.464
 3526POPC   C2B46040  30.893  40.709   6.764
 3526POPC   C3B46041  30.937  40.763   7.064
 3526POPC   C4B46042  30.938  40.751   7.364
 3527POPC   NC346043   9.739  36.086   5.564
 3527POPC   PO446044   9.761  36.146   5.864
 3527POPC   GL146045   9.723  36.167   6.164
 3527POPC   GL246046   9.840  36.090   6.164
 3527POPC   C1A46047   9.741  36.171   6.464
 3527POPC   D2A46048   9.789  36.172   6.764
 3527POPC   C3A46049   9.700  36.116   7.064
 3527POPC   C4A46050   9.740  36.157   7.364
 3527POPC   C1B46051   9.958  36.026   6.464
 3527POPC   C2B46052   9.981  36.009   6.764
 3527POPC   C3B46053   9.947  36.000   7.064
 3527POPC   C4B46054   9.955  36.013   7.364
 3528POPC   NC346055   5.052   6.614   5.564
 3528POPC   PO446056   5.071   6.663   5.864
 3528POPC   GL146057   5.103   6.636   6.164
 3528POPC   GL246058   5.071   6.793   6.164
 3528POPC   C1A46059   5.106   6.685   6.464
 3528POPC   D2A46060   5.073   6.642   6.764
 3528POPC   C3A46061   5.080   6.602   7.064
 3528POPC   C4A46062   5.117   6.676   7.364
 3528POPC   C1B46063   5.078   6.908   6.464
 3528POPC   C2B46064   5.146   6.856   6.764
 3528POPC   C3B46065   5.105   6.936   7.064
 3528POPC   C4B46066   5.152   6.864   7.364
 3529POPC   NC346067  27.622  13.617   5.564
 3529POPC   PO446068  27.625  13.596   5.864
 3529POPC   GL146069  27.567  13.640   6.164
 3529POPC   GL246070  27.663  13.512   6.164
 3529POPC   C1A46071  27.595  13.650   6.464
 3529POPC   D2A46072  27.608  13.594   6.764
 3529POPC   C3A46073  27.615  13.633   7.064
 3529POPC   C4A46074  27.588  13.636   7.364
 3529POPC   C1B46075  27.726  13.388   6.464
 3529POPC   C2B46076  27.677  13.362   6.764
 3529POPC   C3B46077  27.706  13.423   7.064
 3529POPC   C4B46078  27.658  13.432   7.364
 3530POPC   NC346079   3.542   7.373   5.564
 3530POPC   PO446080   3.568   7.395   5.864
 3530POPC   GL146081   3.515   7.417   6.164
 3530POPC   GL246082   3.627   7.499   6.164
 3530POPC   C1A46083   3.543   7.404   6.464
 3530POPC   D2A46084   3.570   7.386   6.764
 3530POPC   C3A46085   3.588   7.459   7.064
 3530POPC   C4A46086   3.540   7.373   7.364
 3530POPC   C1B46087   3.743   7.590   6.464
 3530POPC   C2B46088   3.701   7.627   6.764
 3530POPC   C3B46089   3.734   7.534   7.064
 3530POPC   C4B46090   3.779   7.550   7.364
 3531POPC   NC346091   5.044   3.525   5.564
 3531POPC   PO446092   5.115   3.574   5.864
 3531POPC   GL146093   5.046   3.521   6.164
 3531POPC   GL246094   5.015   3.638   6.164
 3531POPC   C1A46095   5.142   3.578   6.464
 3531POPC   D2A46096   5.088   3.569   6.764
 3531POPC   C3A46097   5.053   3.538   7.064
 3531POPC   C4A46098   5.075   3.509   7.364
 3531POPC   C1B46099   4.978   3.748   6.464
 3531POPC   C2B46100   4.969   3.786   6.764
 3531POPC   C3B46101   5.015   3.776   7.064
 3531POPC   C4B46102   4.929   3.736   7.364
 3532POPC   NC346103  36.108  40.757   5.564
 3532POPC   PO446104  36.090  40.771   5.864
 3532POPC   GL146105  36.110  40.734   6.164
 3532POPC   GL246106  36.037  40.723   6.164
 3532POPC   C1A46107  36.088  40.772   6.464
 3532POPC   D2A46108  36.080  40.814   6.764
 3532POPC   C3A46109  36.136  40.791   7.064
 3532POPC   C4A46110  36.132  40.735   7.364
 3532POPC   C1B46111  35.997  40.624   6.464
 3532POPC   C2B46112  35.981  40.631   6.764
 3532POPC   C3B46113  35.935  40.611   7.064
 3532POPC   C4B46114  36.002  40.554   7.364
 3533POPC   NC346115  37.644  33.753   5.564
 3533POPC   PO446116  37.633  33.844   5.864
 3533POPC   GL146117  37.638  33.817   6.164
 3533POPC   GL246118  37.788  33.690   6.164
 3533POPC   C1A46119  37.694  33.804   6.464
 3533POPC   D2A46120  37.729  33.779   6.764
 3533POPC   C3A46121  37.707  33.790   7.064
 3533POPC   C4A46122  37.688  33.822   7.364
 3533POPC   C1B46123  37.896  33.655   6.464
 3533POPC   C2B46124  37.857  33.706   6.764
 3533POPC   C3B46125  37.901  33.711   7.064
 3533POPC   C4B46126  37.887  33.635   7.364
 3534POPC   NC346127   9.006  20.656   5.564
 3534POPC   PO446128   8.977  20.647   5.864
 3534POPC   GL146129   9.015  20.604   6.164
 3534POPC   GL246130   8.968  20.767   6.164
 3534POPC   C1A46131   9.009  20.619   6.464
 3534POPC   D2A46132   9.015  20.640   6.764
 3534POPC   C3A46133   8.984  20.641   7.064
 3534POPC   C4A46134   9.018  20.640   7.364
 3534POPC   C1B46135   8.922  20.897   6.464
 3534POPC   C2B46136   8.956  20.862   6.764
 3534POPC   C3B46137   8.912  20.889   7.064
 3534POPC   C4B46138   8.950  20.835   7.364
 3535POPC   NC346139   4.343  28.333   5.564
 3535POPC   PO446140   4.358  28.326   5.864
 3535POPC   GL146141   4.272  28.379   6.164
 3535POPC   GL246142   4.447  28.289   6.164
 3535POPC   C1A46143   4.288  28.358   6.464
 3535POPC   D2A46144   4.306  28.393   6.764
 3535POPC   C3A46145   4.321  28.362   7.064
 3535POPC   C4A46146   4.296  28.330   7.364
 3535POPC   C1B46147   4.476  28.198   6.464
 3535POPC   C2B46148   4.510  28.153   6.764
 3535POPC   C3B46149   4.508  28.158   7.064
 3535POPC   C4B46150   4.528  28.209   7.364
 3536POPC   NC346151  14.355  39.188   5.564
 3536POPC   PO446152  14.413  39.192   5.864
 3536POPC   GL146153  14.435  39.242   6.164
 3536POPC   GL246154  14.477  39.224   6.164
 3536POPC   C1A46155  14.376  39.234   6.464
 3536POPC   D2A46156  14.421  39.230   6.764
 3536POPC   C3A46157  14.364  39.269   7.064
 3536POPC   C4A46158  14.380  39.236   7.364
 3536POPC   C1B46159  14.629  39.190   6.464
 3536POPC   C2B46160  14.634  39.177   6.764
 3536POPC   C3B46161  14.669  39.215   7.064
 3536POPC   C4B46162  14.683  39.195   7.364
 3537POPC   NC346163  16.698  27.582   5.564
 3537POPC   PO446164  16.762  27.605   5.864
 3537POPC   GL146165  16.781  27.612   6.164
 3537POPC   GL246166  16.826  27.558   6.164
 3537POPC   C1A46167  16.702  27.628   6.464
 3537POPC   D2A46168  16.737  27.572   6.764
 3537POPC   C3A46169  16.696  27.611   7.064
 3537POPC   C4A46170  16.747  27.600   7.364
 3537POPC   C1B46171  16.976  27.590   6.464
 3537POPC   C2B46172  17.005  27.589   6.764
 3537POPC   C3B46173  16.970  27.636   7.064
 3537POPC   C4B46174  16.950  27.610   7.364
 3538POPC   NC346175  19.038   7.418   5.564
 3538POPC   PO446176  19.075   7.376   5.864
 3538POPC   GL146177  19.052   7.429   6.164
 3538POPC   GL246178  18.974   7.512   6.164
 3538POPC   C1A46179  19.073   7.397   6.464
 3538POPC   D2A46180  19.073   7.430   6.764
 3538POPC   C3A46181  19.087   7.436   7.064
 3538POPC   C4A46182  19.086   7.453   7.364
 3538POPC   C1B46183  18.871   7.596   6.464
 3538POPC   C2B46184  18.848   7.600   6.764
 3538POPC   C3B46185  18.919   7.610   7.064
 3538POPC   C4B46186  18.827   7.605   7.364
 3539POPC   NC346187  38.468  29.174   5.564
 3539POPC   PO446188  38.421  29.195   5.864
 3539POPC   GL146189  38.423  29.149   6.164
 3539POPC   GL246190  38.554  29.106   6.164
 3539POPC   C1A46191  38.418  29.111   6.464
 3539POPC   D2A46192  38.414  29.187   6.764
 3539POPC   C3A46193  38.447  29.173   7.064
 3539POPC   C4A46194  38.492  29.138   7.364
 3539POPC   C1B46195  38.657  29.063   6.464
 3539POPC   C2B46196  38.658  29.060   6.764
 3539POPC   C3B46197  38.726  29.082   7.064
 3539POPC   C4B46198  38.647  29.037   7.364
 3540POPC   NC346199  40.761   3.505   5.564
 3540POPC   PO446200  40.768   3.495   5.864
 3540POPC   GL146201  40.789   3.523   6.164
 3540POPC   GL246202  40.769   3.397   6.164
 3540POPC   C1A46203  40.738   3.560   6.464
 3540POPC   D2A46204  40.794   3.581   6.764
 3540POPC   C3A46205  40.775   3.520   7.064
 3540POPC   C4A46206  40.756   3.585   7.364
 3540POPC   C1B46207  40.808   3.268   6.464
 3540POPC   C2B46208  40.846   3.310   6.764
 3540POPC   C3B46209  40.831   3.270   7.064
 3540POPC   C4B46210  40.823   3.272   7.364
 3541POPC   NC346211  15.140  25.275   5.564
 3541POPC   PO446212  15.176  25.265   5.864
 3541POPC   GL146213  15.165  25.301   6.164
 3541POPC   GL246214  15.155  25.353   6.164
 3541POPC   C1A46215  15.187  25.245   6.464
 3541POPC   D2A46216  15.195  25.275   6.764
 3541POPC   C3A46217  15.172  25.310   7.064
 3541POPC   C4A46218  15.176  25.290   7.364
 3541POPC   C1B46219  15.186  25.512   6.464
 3541POPC   C2B46220  15.256  25.489   6.764
 3541POPC   C3B46221  15.183  25.545   7.064
 3541POPC   C4B46222  15.238  25.552   7.364
 3542POPC   NC346223   1.242  17.471   5.564
 3542POPC   PO446224   1.219  17.521   5.864
 3542POPC   GL146225   1.242  17.465   6.164
 3542POPC   GL246226   1.253  17.401   6.164
 3542POPC   C1A46227   1.219  17.486   6.464
 3542POPC   D2A46228   1.254  17.464   6.764
 3542POPC   C3A46229   1.257  17.529   7.064
 3542POPC   C4A46230   1.248  17.554   7.364
 3542POPC   C1B46231   1.217  17.228   6.464
 3542POPC   C2B46232   1.213  17.222   6.764
 3542POPC   C3B46233   1.258  17.240   7.064
 3542POPC   C4B46234   1.288  17.261   7.364
 3543POPC   NC346235   1.169  15.910   5.564
 3543POPC   PO446236   1.199  15.960   5.864
 3543POPC   GL146237   1.182  16.004   6.164
 3543POPC   GL246238   1.117  16.009   6.164
 3543POPC   C1A46239   1.223  15.912   6.464
 3543POPC   D2A46240   1.192  15.935   6.764
 3543POPC   C3A46241   1.238  15.986   7.064
 3543POPC   C4A46242   1.222  15.906   7.364
 3543POPC   C1B46243   0.954  16.031   6.464
 3543POPC   C2B46244   0.971  16.036   6.764
 3543POPC   C3B46245   0.921  16.050   7.064
 3543POPC   C4B46246   0.932  16.050   7.364
 3544POPC   NC346247  41.604   5.908   5.564
 3544POPC   PO446248  41.602   5.919   5.864
 3544POPC   GL146249  41.514   5.863   6.164
 3544POPC   GL246250  41.584   5.992   6.164
 3544POPC   C1A46251  41.606   5.892   6.464
 3544POPC   D2A46252  41.548   5.901   6.764
 3544POPC   C3A46253  41.597   5.875   7.064
 3544POPC   C4A46254  41.541   5.829   7.364
 3544POPC   C1B46255  41.633   6.147   6.464
 3544POPC   C2B46256  41.613   6.094   6.764
 3544POPC   C3B46257  41.610   6.109   7.064
 3544POPC   C4B46258  41.552   6.101   7.364
 3545POPC   NC346259  42.326   2.761   5.564
 3545POPC   PO446260  42.355   2.736   5.864
 3545POPC   GL146261  42.368   2.773   6.164
 3545POPC   GL246262  42.427   2.836   6.164
 3545POPC   C1A46263  42.382   2.786   6.464
 3545POPC   D2A46264  42.373   2.762   6.764
 3545POPC   C3A46265  42.294   2.811   7.064
 3545POPC   C4A46266  42.324   2.740   7.364
 3545POPC   C1B46267  42.535   2.926   6.464
 3545POPC   C2B46268  42.443   2.981   6.764
 3545POPC   C3B46269  42.491   2.938   7.064
 3545POPC   C4B46270  42.528   2.942   7.364
 3546POPC   NC346271  43.073  36.911   5.564
 3546POPC   PO446272  43.136  36.935   5.864
 3546POPC   GL146273  43.134  36.882   6.164
 3546POPC   GL246274  43.007  36.836   6.164
 3546POPC   C1A46275  43.085  36.941   6.464
 3546POPC   D2A46276  43.159  36.887   6.764
 3546POPC   C3A46277  43.117  36.868   7.064
 3546POPC   C4A46278  43.155  36.909   7.364
 3546POPC   C1B46279  42.896  36.801   6.464
 3546POPC   C2B46280  42.913  36.799   6.764
 3546POPC   C3B46281  42.858  36.802   7.064
 3546POPC   C4B46282  42.926  36.825   7.364
 3547POPC   NC346283  15.175  20.582   5.564
 3547POPC   PO446284  15.178  20.583   5.864
 3547POPC   GL146285  15.222  20.634   6.164
 3547POPC   GL246286  15.184  20.722   6.164
 3547POPC   C1A46287  15.201  20.581   6.464
 3547POPC   D2A46288  15.189  20.604   6.764
 3547POPC   C3A46289  15.183  20.582   7.064
 3547POPC   C4A46290  15.175  20.579   7.364
 3547POPC   C1B46291  15.132  20.877   6.464
 3547POPC   C2B46292  15.131  20.839   6.764
 3547POPC   C3B46293  15.097  20.836   7.064
 3547POPC   C4B46294  15.092  20.839   7.364
 3548POPC   NC346295  22.904  20.619   5.564
 3548POPC   PO446296  22.940  20.572   5.864
 3548POPC   GL146297  22.940  20.570   6.164
 3548POPC   GL246298  22.867  20.535   6.164
 3548POPC   C1A46299  22.952  20.613   6.464
 3548POPC   D2A46300  22.911  20.602   6.764
 3548POPC   C3A46301  22.925  20.587   7.064
 3548POPC   C4A46302  22.934  20.651   7.364
 3548POPC   C1B46303  22.845  20.407   6.464
 3548POPC   C2B46304  22.862  20.389   6.764
 3548POPC   C3B46305  22.932  20.387   7.064
 3548POPC   C4B46306  22.875  20.335   7.364
 3549POPC   NC346307  20.568  29.918   5.564
 3549POPC   PO446308  20.567  29.941   5.864
 3549POPC   GL146309  20.579  29.882   6.164
 3549POPC   GL246310  20.507  30.014   6.164
 3549POPC   C1A46311  20.632  29.877   6.464
 3549POPC   D2A46312  20.622  29.956   6.764
 3549POPC   C3A46313  20.650  29.904   7.064
 3549POPC   C4A46314  20.586  29.882   7.364
 3549POPC   C1B46315  20.420  30.102   6.464
 3549POPC   C2B46316  20.462  30.125   6.764
 3549POPC   C3B46317  20.464  30.106   7.064
 3549POPC   C4B46318  20.430  30.058   7.364
 3550POPC   NC346319  28.327  16.759   5.564
 3550POPC   PO446320  28.389  16.712   5.864
 3550POPC   GL146321  28.367  16.760   6.164
 3550POPC   GL246322  28.222  16.703   6.164
 3550POPC   C1A46323  28.335  16.689   6.464
 3550POPC   D2A46324  28.328  16.711   6.764
 3550POPC   C3A46325  28.393  16.698   7.064
 3550POPC   C4A46326  28.349  16.762   7.364
 3550POPC   C1B46327  28.080  16.757   6.464
 3550POPC   C2B46328  28.083  16.759   6.764
 3550POPC   C3B46329  28.167  16.759   7.064
 3550POPC   C4B46330  28.080  16.748   7.364
 3551POPC   NC346331  12.083  43.105   5.564
 3551POPC   PO446332  12.093  43.154   5.864
 3551POPC   GL146333  12.108  43.112   6.164
 3551POPC   GL246334  12.103  43.209   6.164
 3551POPC   C1A46335  12.052  43.101   6.464
 3551POPC   D2A46336  12.045  43.065   6.764
 3551POPC   C3A46337  12.049  43.065   7.064
 3551POPC   C4A46338  12.042  43.091   7.364
 3551POPC   C1B46339  12.018  43.341   6.464
 3551POPC   C2B46340  12.061  43.407   6.764
 3551POPC   C3B46341  12.036  43.383   7.064
 3551POPC   C4B46342  12.009  43.367   7.364
 3552POPC   NC346343  29.962  23.671   5.564
 3552POPC   PO446344  29.879  23.675   5.864
 3552POPC   GL146345  29.966  23.708   6.164
 3552POPC   GL246346  29.919  23.857   6.164
 3552POPC   C1A46347  29.904  23.690   6.464
 3552POPC   D2A46348  29.954  23.678   6.764
 3552POPC   C3A46349  29.880  23.745   7.064
 3552POPC   C4A46350  29.927  23.682   7.364
 3552POPC   C1B46351  29.905  23.929   6.464
 3552POPC   C2B46352  29.896  23.973   6.764
 3552POPC   C3B46353  29.877  23.929   7.064
 3552POPC   C4B46354  29.942  23.921   7.364
 3553POPC   NC346355  15.909   6.688   5.564
 3553POPC   PO446356  15.918   6.611   5.864
 3553POPC   GL146357  15.921   6.684   6.164
 3553POPC   GL246358  15.856   6.518   6.164
 3553POPC   C1A46359  15.915   6.620   6.464
 3553POPC   D2A46360  15.937   6.659   6.764
 3553POPC   C3A46361  15.987   6.634   7.064
 3553POPC   C4A46362  15.959   6.619   7.364
 3553POPC   C1B46363  15.880   6.444   6.464
 3553POPC   C2B46364  15.825   6.393   6.764
 3553POPC   C3B46365  15.809   6.375   7.064
 3553POPC   C4B46366  15.870   6.387   7.364
 3554POPC   NC346367  36.097  15.911   5.564
 3554POPC   PO446368  36.172  15.932   5.864
 3554POPC   GL146369  36.110  15.987   6.164
 3554POPC   GL246370  36.119  15.836   6.164
 3554POPC   C1A46371  36.174  15.955   6.464
 3554POPC   D2A46372  36.162  15.967   6.764
 3554POPC   C3A46373  36.155  15.922   7.064
 3554POPC   C4A46374  36.128  15.926   7.364
 3554POPC   C1B46375  36.223  15.722   6.464
 3554POPC   C2B46376  36.157  15.721   6.764
 3554POPC   C3B46377  36.183  15.751   7.064
 3554POPC   C4B46378  36.170  15.708   7.364
 3555POPC   NC346379  41.608  19.798   5.564
 3555POPC   PO446380  41.551  19.847   5.864
 3555POPC   GL146381  41.590  19.811   6.164
 3555POPC   GL246382  41.511  19.914   6.164
 3555POPC   C1A46383  41.535  19.884   6.464
 3555POPC   D2A46384  41.530  19.848   6.764
 3555POPC   C3A46385  41.588  19.867   7.064
 3555POPC   C4A46386  41.522  19.834   7.364
 3555POPC   C1B46387  41.453  20.072   6.464
 3555POPC   C2B46388  41.432  20.103   6.764
 3555POPC   C3B46389  41.457  20.065   7.064
 3555POPC   C4B46390  41.425  20.020   7.364
 3556POPC   NC346391   0.483  31.486   5.564
 3556POPC   PO446392   0.412  31.459   5.864
 3556POPC   GL146393   0.482  31.428   6.164
 3556POPC   GL246394   0.271  31.447   6.164
 3556POPC   C1A46395   0.445  31.426   6.464
 3556POPC   D2A46396   0.400  31.514   6.764
 3556POPC   C3A46397   0.464  31.487   7.064
 3556POPC   C4A46398   0.436  31.426   7.364
 3556POPC   C1B46399   0.163  31.390   6.464
 3556POPC   C2B46400   0.222  31.428   6.764
 3556POPC   C3B46401   0.153  31.368   7.064
 3556POPC   C4B46402   0.172  31.416   7.364
 3557POPC   NC346403  36.121  13.616   5.564
 3557POPC   PO446404  36.121  13.592   5.864
 3557POPC   GL146405  36.123  13.663   6.164
 3557POPC   GL246406  36.145  13.786   6.164
 3557POPC   C1A46407  36.153  13.622   6.464
 3557POPC   D2A46408  36.149  13.623   6.764
 3557POPC   C3A46409  36.114  13.602   7.064
 3557POPC   C4A46410  36.092  13.608   7.364
 3557POPC   C1B46411  36.046  13.908   6.464
 3557POPC   C2B46412  36.027  13.911   6.764
 3557POPC   C3B46413  36.098  13.895   7.064
 3557POPC   C4B46414  36.104  13.889   7.364
 3558POPC   NC346415   5.885  20.640   5.564
 3558POPC   PO446416   5.914  20.591   5.864
 3558POPC   GL146417   5.822  20.566   6.164
 3558POPC   GL246418   5.903  20.540   6.164
 3558POPC   C1A46419   5.917  20.582   6.464
 3558POPC   D2A46420   5.846  20.565   6.764
 3558POPC   C3A46421   5.898  20.641   7.064
 3558POPC   C4A46422   5.894  20.586   7.364
 3558POPC   C1B46423   5.944  20.368   6.464
 3558POPC   C2B46424   5.985  20.338   6.764
 3558POPC   C3B46425   6.020  20.391   7.064
 3558POPC   C4B46426   5.948  20.342   7.364
 3559POPC   NC346427  17.505   6.688   5.564
 3559POPC   PO446428  17.481   6.605   5.864
 3559POPC   GL146429  17.492   6.668   6.164
 3559POPC   GL246430  17.496   6.790   6.164
 3559POPC   C1A46431  17.462   6.628   6.464
 3559POPC   D2A46432  17.525   6.667   6.764
 3559POPC   C3A46433  17.460   6.659   7.064
 3559POPC   C4A46434  17.485   6.598   7.364
 3559POPC   C1B46435  17.524   6.880   6.464
 3559POPC   C2B46436  17.526   6.920   6.764
 3559POPC   C3B46437  17.456   6.866   7.064
 3559POPC   C4B46438  17.455   6.907   7.364
 3560POPC   NC346439  22.931  33.816   5.564
 3560POPC   PO446440  22.940  33.827   5.864
 3560POPC   GL146441  22.937  33.849   6.164
 3560POPC   GL246442  22.914  33.942   6.164
 3560POPC   C1A46443  22.922  33.791   6.464
 3560POPC   D2A46444  22.950  33.814   6.764
 3560POPC   C3A46445  22.953  33.792   7.064
 3560POPC   C4A46446  22.938  33.781   7.364
 3560POPC   C1B46447  22.843  34.046   6.464
 3560POPC   C2B46448  22.862  33.997   6.764
 3560POPC   C3B46449  22.830  34.056   7.064
 3560POPC   C4B46450  22.788  34.076   7.364
 3561POPC   NC346451  35.325  36.936   5.564
 3561POPC   PO446452  35.329  36.862   5.864
 3561POPC   GL146453  35.363  36.893   6.164
 3561POPC   GL246454  35.225  36.883   6.164
 3561POPC   C1A46455  35.328  36.914   6.464
 3561POPC   D2A46456  35.328  36.914   6.764
 3561POPC   C3A46457  35.325  36.884   7.064
 3561POPC   C4A46458  35.351  36.887   7.364
 3561POPC   C1B46459  35.100  36.877   6.464
 3561POPC   C2B46460  35.147  36.887   6.764
 3561POPC   C3B46461  35.099  36.925   7.064
 3561POPC   C4B46462  35.094  36.912   7.364
 3562POPC   NC346463  31.489  35.395   5.564
 3562POPC   PO446464  31.478  35.391   5.864
 3562POPC   GL146465  31.485  35.394   6.164
 3562POPC   GL246466  31.381  35.291   6.164
 3562POPC   C1A46467  31.477  35.389   6.464
 3562POPC   D2A46468  31.449  35.383   6.764
 3562POPC   C3A46469  31.473  35.322   7.064
 3562POPC   C4A46470  31.465  35.361   7.364
 3562POPC   C1B46471  31.350  35.213   6.464
 3562POPC   C2B46472  31.304  35.196   6.764
 3562POPC   C3B46473  31.289  35.168   7.064
 3562POPC   C4B46474  31.336  35.121   7.364
 3563POPC   NC346475  14.378  42.294   5.564
 3563POPC   PO446476  14.424  42.302   5.864
 3563POPC   GL146477  14.392  42.303   6.164
 3563POPC   GL246478  14.290  42.270   6.164
 3563POPC   C1A46479  14.422  42.298   6.464
 3563POPC   D2A46480  14.433  42.318   6.764
 3563POPC   C3A46481  14.406  42.380   7.064
 3563POPC   C4A46482  14.403  42.307   7.364
 3563POPC   C1B46483  14.223  42.123   6.464
 3563POPC   C2B46484  14.178  42.138   6.764
 3563POPC   C3B46485  14.180  42.195   7.064
 3563POPC   C4B46486  14.245  42.206   7.364
 3564POPC   NC346487   1.246  29.905   5.564
 3564POPC   PO446488   1.261  29.912   5.864
 3564POPC   GL146489   1.240  29.941   6.164
 3564POPC   GL246490   1.136  29.987   6.164
 3564POPC   C1A46491   1.176  29.946   6.464
 3564POPC   D2A46492   1.179  29.969   6.764
 3564POPC   C3A46493   1.256  29.899   7.064
 3564POPC   C4A46494   1.234  29.871   7.364
 3564POPC   C1B46495   1.056  30.122   6.464
 3564POPC   C2B46496   1.060  30.059   6.764
 3564POPC   C3B46497   0.975  30.106   7.064
 3564POPC   C4B46498   1.065  30.077   7.364
 3565POPC   NC346499   4.288  12.039   5.564
 3565POPC   PO446500   4.270  12.117   5.864
 3565POPC   GL146501   4.287  12.101   6.164
 3565POPC   GL246502   4.289  12.176   6.164
 3565POPC   C1A46503   4.333  12.052   6.464
 3565POPC   D2A46504   4.309  12.085   6.764
 3565POPC   C3A46505   4.367  12.095   7.064
 3565POPC   C4A46506   4.320  12.090   7.364
 3565POPC   C1B46507   4.295  12.290   6.464
 3565POPC   C2B46508   4.299  12.308   6.764
 3565POPC   C3B46509   4.300  12.283   7.064
 3565POPC   C4B46510   4.324  12.354   7.364
 3566POPC   NC346511  18.268  21.436   5.564
 3566POPC   PO446512  18.267  21.359   5.864
 3566POPC   GL146513  18.250  21.368   6.164
 3566POPC   GL246514  18.238  21.505   6.164
 3566POPC   C1A46515  18.327  21.399   6.464
 3566POPC   D2A46516  18.283  21.359   6.764
 3566POPC   C3A46517  18.321  21.396   7.064
 3566POPC   C4A46518  18.276  21.364   7.364
 3566POPC   C1B46519  18.184  21.583   6.464
 3566POPC   C2B46520  18.147  21.566   6.764
 3566POPC   C3B46521  18.122  21.570   7.064
 3566POPC   C4B46522  18.138  21.627   7.364
 3567POPC   NC346523  16.780   5.889   5.564
 3567POPC   PO446524  16.744   5.842   5.864
 3567POPC   GL146525  16.756   5.911   6.164
 3567POPC   GL246526  16.727   5.730   6.164
 3567POPC   C1A46527  16.689   5.845   6.464
 3567POPC   D2A46528  16.744   5.826   6.764
 3567POPC   C3A46529  16.744   5.835   7.064
 3567POPC   C4A46530  16.727   5.844   7.364
 3567POPC   C1B46531  16.817   5.642   6.464
 3567POPC   C2B46532  16.775   5.640   6.764
 3567POPC   C3B46533  16.743   5.654   7.064
 3567POPC   C4B46534  16.823   5.646   7.364
 3568POPC   NC346535  35.399  31.426   5.564
 3568POPC   PO446536  35.331  31.512   5.864
 3568POPC   GL146537  35.335  31.446   6.164
 3568POPC   GL246538  35.443  31.573   6.164
 3568POPC   C1A46539  35.340  31.482   6.464
 3568POPC   D2A46540  35.390  31.452   6.764
 3568POPC   C3A46541  35.393  31.495   7.064
 3568POPC   C4A46542  35.308  31.427   7.364
 3568POPC   C1B46543  35.532  31.628   6.464
 3568POPC   C2B46544  35.599  31.638   6.764
 3568POPC   C3B46545  35.594  31.561   7.064
 3568POPC   C4B46546  35.558  31.627   7.364
 3569POPC   NC346547   5.854  30.652   5.564
 3569POPC   PO446548   5.854  30.698   5.864
 3569POPC   GL146549   5.826  30.733   6.164
 3569POPC   GL246550   5.872  30.768   6.164
 3569POPC   C1A46551   5.847  30.711   6.464
 3569POPC   D2A46552   5.881  30.671   6.764
 3569POPC   C3A46553   5.889  30.704   7.064
 3569POPC   C4A46554   5.851  30.687   7.364
 3569POPC   C1B46555   5.907  30.918   6.464
 3569POPC   C2B46556   5.991  30.953   6.764
 3569POPC   C3B46557   5.918  30.914   7.064
 3569POPC   C4B46558   5.943  30.902   7.364
 3570POPC   NC346559  20.604  34.620   5.564
 3570POPC   PO446560  20.631  34.580   5.864
 3570POPC   GL146561  20.627  34.605   6.164
 3570POPC   GL246562  20.629  34.683   6.164
 3570POPC   C1A46563  20.631  34.609   6.464
 3570POPC   D2A46564  20.629  34.620   6.764
 3570POPC   C3A46565  20.660  34.598   7.064
 3570POPC   C4A46566  20.571  34.581   7.364
 3570POPC   C1B46567  20.628  34.786   6.464
 3570POPC   C2B46568  20.627  34.856   6.764
 3570POPC   C3B46569  20.608  34.773   7.064
 3570POPC   C4B46570  20.696  34.855   7.364
 3571POPC   NC346571  29.952  28.368   5.564
 3571POPC   PO446572  29.889  28.413   5.864
 3571POPC   GL146573  29.922  28.352   6.164
 3571POPC   GL246574  29.833  28.329   6.164
 3571POPC   C1A46575  29.941  28.405   6.464
 3571POPC   D2A46576  29.900  28.418   6.764
 3571POPC   C3A46577  29.878  28.404   7.064
 3571POPC   C4A46578  29.935  28.396   7.364
 3571POPC   C1B46579  29.628  28.314   6.464
 3571POPC   C2B46580  29.673  28.294   6.764
 3571POPC   C3B46581  29.646  28.382   7.064
 3571POPC   C4B46582  29.702  28.293   7.364
 3572POPC   NC346583  10.502   0.479   5.564
 3572POPC   PO446584  10.565   0.454   5.864
 3572POPC   GL146585  10.515   0.455   6.164
 3572POPC   GL246586  10.476   0.507   6.164
 3572POPC   C1A46587  10.475   0.435   6.464
 3572POPC   D2A46588  10.478   0.465   6.764
 3572POPC   C3A46589  10.488   0.399   7.064
 3572POPC   C4A46590  10.514   0.438   7.364
 3572POPC   C1B46591  10.477   0.672   6.464
 3572POPC   C2B46592  10.481   0.688   6.764
 3572POPC   C3B46593  10.411   0.633   7.064
 3572POPC   C4B46594  10.461   0.720   7.364
 3573POPC   NC346595   0.463   9.767   5.564
 3573POPC   PO446596   0.455   9.736   5.864
 3573POPC   GL146597   0.447   9.733   6.164
 3573POPC   GL246598   0.537   9.663   6.164
 3573POPC   C1A46599   0.391   9.736   6.464
 3573POPC   D2A46600   0.390   9.712   6.764
 3573POPC   C3A46601   0.479   9.773   7.064
 3573POPC   C4A46602   0.472   9.700   7.364
 3573POPC   C1B46603   0.611   9.594   6.464
 3573POPC   C2B46604   0.581   9.562   6.764
 3573POPC   C3B46605   0.575   9.546   7.064
 3573POPC   C4B46606   0.580   9.553   7.364
 3574POPC   NC346607   2.761  19.102   5.564
 3574POPC   PO446608   2.746  19.042   5.864
 3574POPC   GL146609   2.741  19.097   6.164
 3574POPC   GL246610   2.788  19.203   6.164
 3574POPC   C1A46611   2.778  19.031   6.464
 3574POPC   D2A46612   2.730  19.087   6.764
 3574POPC   C3A46613   2.784  19.043   7.064
 3574POPC   C4A46614   2.726  19.019   7.364
 3574POPC   C1B46615   2.924  19.284   6.464
 3574POPC   C2B46616   2.836  19.280   6.764
 3574POPC   C3B46617   2.849  19.312   7.064
 3574POPC   C4B46618   2.918  19.288   7.364
 3575POPC   NC346619  35.344  10.565   5.564
 3575POPC   PO446620  35.308  10.492   5.864
 3575POPC   GL146621  35.303  10.512   6.164
 3575POPC   GL246622  35.259  10.590   6.164
 3575POPC   C1A46623  35.377  10.514   6.464
 3575POPC   D2A46624  35.307  10.557   6.764
 3575POPC   C3A46625  35.383  10.541   7.064
 3575POPC   C4A46626  35.336  10.481   7.364
 3575POPC   C1B46627  35.143  10.661   6.464
 3575POPC   C2B46628  35.189  10.692   6.764
 3575POPC   C3B46629  35.189  10.640   7.064
 3575POPC   C4B46630  35.128  10.730   7.364
 3576POPC   NC346631  36.941  36.872   5.564
 3576POPC   PO446632  36.865  36.900   5.864
 3576POPC   GL146633  36.915  36.886   6.164
 3576POPC   GL246634  36.946  36.740   6.164
 3576POPC   C1A46635  36.855  36.859   6.464
 3576POPC   D2A46636  36.905  36.952   6.764
 3576POPC   C3A46637  36.941  36.897   7.064
 3576POPC   C4A46638  36.889  36.886   7.364
 3576POPC   C1B46639  37.010  36.660   6.464
 3576POPC   C2B46640  36.991  36.654   6.764
 3576POPC   C3B46641  36.978  36.672   7.064
 3576POPC   C4B46642  36.977  36.698   7.364
 3577POPC   NC346643  33.796  17.475   5.564
 3577POPC   PO446644  33.753  17.482   5.864
 3577POPC   GL146645  33.780  17.510   6.164
 3577POPC   GL246646  33.670  17.530   6.164
 3577POPC   C1A46647  33.791  17.476   6.464
 3577POPC   D2A46648  33.839  17.554   6.764
 3577POPC   C3A46649  33.837  17.467   7.064
 3577POPC   C4A46650  33.806  17.487   7.364
 3577POPC   C1B46651  33.570  17.495   6.464
 3577POPC   C2B46652  33.589  17.554   6.764
 3577POPC   C3B46653  33.540  17.589   7.064
 3577POPC   C4B46654  33.586  17.529   7.364
 3578POPC   NC346655  34.535   4.278   5.564
 3578POPC   PO446656  34.603   4.316   5.864
 3578POPC   GL146657  34.549   4.365   6.164
 3578POPC   GL246658  34.717   4.414   6.164
 3578POPC   C1A46659  34.582   4.335   6.464
 3578POPC   D2A46660  34.554   4.366   6.764
 3578POPC   C3A46661  34.586   4.321   7.064
 3578POPC   C4A46662  34.528   4.279   7.364
 3578POPC   C1B46663  34.760   4.475   6.464
 3578POPC   C2B46664  34.787   4.390   6.764
 3578POPC   C3B46665  34.821   4.434   7.064
 3578POPC   C4B46666  34.783   4.433   7.364
 3579POPC   NC346667  37.650   2.019   5.564
 3579POPC   PO446668  37.720   1.998   5.864
 3579POPC   GL146669  37.691   2.030   6.164
 3579POPC   GL246670  37.537   1.877   6.164
 3579POPC   C1A46671  37.722   1.985   6.464
 3579POPC   D2A46672  37.686   2.018   6.764
 3579POPC   C3A46673  37.674   1.989   7.064
 3579POPC   C4A46674  37.719   2.023   7.364
 3579POPC   C1B46675  37.455   1.890   6.464
 3579POPC   C2B46676  37.469   1.815   6.764
 3579POPC   C3B46677  37.505   1.808   7.064
 3579POPC   C4B46678  37.511   1.851   7.364
 3580POPC   NC346679  32.282   7.375   5.564
 3580POPC   PO446680  32.236   7.403   5.864
 3580POPC   GL146681  32.232   7.427   6.164
 3580POPC   GL246682  32.344   7.419   6.164
 3580POPC   C1A46683  32.214   7.427   6.464
 3580POPC   D2A46684  32.226   7.417   6.764
 3580POPC   C3A46685  32.212   7.384   7.064
 3580POPC   C4A46686  32.214   7.409   7.364
 3580POPC   C1B46687  32.475   7.410   6.464
 3580POPC   C2B46688  32.459   7.374   6.764
 3580POPC   C3B46689  32.448   7.432   7.064
 3580POPC   C4B46690  32.543   7.417   7.364
 3581POPC   NC346691  18.239  33.762   5.564
 3581POPC   PO446692  18.275  33.756   5.864
 3581POPC   GL146693  18.295  33.814   6.164
 3581POPC   GL246694  18.449  33.749   6.164
 3581POPC   C1A46695  18.244  33.770   6.464
 3581POPC   D2A46696  18.275  33.765   6.764
 3581POPC   C3A46697  18.320  33.771   7.064
 3581POPC   C4A46698  18.285  33.751   7.364
 3581POPC   C1B46699  18.565  33.825   6.464
 3581POPC   C2B46700  18.540  33.778   6.764
 3581POPC   C3B46701  18.532  33.809   7.064
 3581POPC   C4B46702  18.569  33.837   7.364
 3582POPC   NC346703   7.462  40.774   5.564
 3582POPC   PO446704   7.424  40.815   5.864
 3582POPC   GL146705   7.466  40.783   6.164
 3582POPC   GL246706   7.520  40.735   6.164
 3582POPC   C1A46707   7.397  40.780   6.464
 3582POPC   D2A46708   7.444  40.793   6.764
 3582POPC   C3A46709   7.440  40.799   7.064
 3582POPC   C4A46710   7.398  40.812   7.364
 3582POPC   C1B46711   7.590  40.601   6.464
 3582POPC   C2B46712   7.570  40.639   6.764
 3582POPC   C3B46713   7.597  40.636   7.064
 3582POPC   C4B46714   7.661  40.618   7.364
 3583POPC   NC346715  41.545  33.795   5.564
 3583POPC   PO446716  41.524  33.776   5.864
 3583POPC   GL146717  41.583  33.812   6.164
 3583POPC   GL246718  41.533  33.948   6.164
 3583POPC   C1A46719  41.606  33.831   6.464
 3583POPC   D2A46720  41.597  33.773   6.764
 3583POPC   C3A46721  41.590  33.832   7.064
 3583POPC   C4A46722  41.516  33.809   7.364
 3583POPC   C1B46723  41.371  34.010   6.464
 3583POPC   C2B46724  41.466  34.036   6.764
 3583POPC   C3B46725  41.386  34.008   7.064
 3583POPC   C4B46726  41.367  34.031   7.364
 3584POPC   NC346727  20.581  44.631   5.564
 3584POPC   PO446728  20.592  44.689   5.864
 3584POPC   GL146729  20.582  44.641   6.164
 3584POPC   GL246730  20.458  44.600   6.164
 3584POPC   C1A46731  20.611  44.641   6.464
 3584POPC   D2A46732  20.619  44.704   6.764
 3584POPC   C3A46733  20.646  44.696   7.064
 3584POPC   C4A46734  20.571  44.616   7.364
 3584POPC   C1B46735  20.394  44.647   6.464
 3584POPC   C2B46736  20.366  44.665   6.764
 3584POPC   C3B46737  20.396  44.664   7.064
 3584POPC   C4B46738  20.404  44.649   7.364
 3585POPC   NC346739  14.372  14.425   5.564
 3585POPC   PO446740  14.387  14.401   5.864
 3585POPC   GL146741  14.440  14.442   6.164
 3585POPC   GL246742  14.486  14.368   6.164
 3585POPC   C1A46743  14.378  14.375   6.464
 3585POPC   D2A46744  14.422  14.367   6.764
 3585POPC   C3A46745  14.451  14.450   7.064
 3585POPC   C4A46746  14.375  14.447   7.364
 3585POPC   C1B46747  14.624  14.374   6.464
 3585POPC   C2B46748  14.652  14.338   6.764
 3585POPC   C3B46749  14.655  14.366   7.064
 3585POPC   C4B46750  14.665  14.347   7.364
 3586POPC   NC346751  44.648  31.439   5.564
 3586POPC   PO446752  44.689  31.470   5.864
 3586POPC   GL146753  44.630  31.501   6.164
 3586POPC   GL246754  44.736  31.514   6.164
 3586POPC   C1A46755  44.655  31.426   6.464
 3586POPC   D2A46756  44.632  31.448   6.764
 3586POPC   C3A46757  44.632  31.473   7.064
 3586POPC   C4A46758  44.689  31.438   7.364
 3586POPC   C1B46759  44.881  31.574   6.464
 3586POPC   C2B46760  44.888  31.616   6.764
 3586POPC   C3B46761  44.866  31.616   7.064
 3586POPC   C4B46762  44.829  31.555   7.364
 3587POPC   NC346763  19.866  20.633   5.564
 3587POPC   PO446764  19.830  20.610   5.864
 3587POPC   GL146765  19.849  20.649   6.164
 3587POPC   GL246766  19.984  20.594   6.164
 3587POPC   C1A46767  19.826  20.656   6.464
 3587POPC   D2A46768  19.796  20.644   6.764
 3587POPC   C3A46769  19.826  20.605   7.064
 3587POPC   C4A46770  19.786  20.649   7.364
 3587POPC   C1B46771  20.043  20.570   6.464
 3587POPC   C2B46772  20.081  20.589   6.764
 3587POPC   C3B46773  20.078  20.557   7.064
 3587POPC   C4B46774  20.044  20.593   7.364
 3588POPC   NC346775  32.295   0.479   5.564
 3588POPC   PO446776  32.256   0.478   5.864
 3588POPC   GL146777  32.270   0.471   6.164
 3588POPC   GL246778  32.239   0.280   6.164
 3588POPC   C1A46779  32.245   0.404   6.464
 3588POPC   D2A46780  32.284   0.445   6.764
 3588POPC   C3A46781  32.270   0.447   7.064
 3588POPC   C4A46782  32.293   0.439   7.364
 3588POPC   C1B46783  32.196   0.167   6.464
 3588POPC   C2B46784  32.258   0.179   6.764
 3588POPC   C3B46785  32.203   0.174   7.064
 3588POPC   C4B46786  32.280   0.188   7.364
 3589POPC   NC346787  25.247  19.850   5.564
 3589POPC   PO446788  25.252  19.870   5.864
 3589POPC   GL146789  25.289  19.790   6.164
 3589POPC   GL246790  25.116  19.931   6.164
 3589POPC   C1A46791  25.254  19.808   6.464
 3589POPC   D2A46792  25.302  19.802   6.764
 3589POPC   C3A46793  25.264  19.785   7.064
 3589POPC   C4A46794  25.253  19.817   7.364
 3589POPC   C1B46795  25.074  19.970   6.464
 3589POPC   C2B46796  25.037  19.917   6.764
 3589POPC   C3B46797  24.995  19.927   7.064
 3589POPC   C4B46798  25.046  19.995   7.364
 3590POPC   NC346799  38.453  37.689   5.564
 3590POPC   PO446800  38.430  37.709   5.864
 3590POPC   GL146801  38.485  37.727   6.164
 3590POPC   GL246802  38.493  37.767   6.164
 3590POPC   C1A46803  38.472  37.713   6.464
 3590POPC   D2A46804  38.406  37.657   6.764
 3590POPC   C3A46805  38.419  37.664   7.064
 3590POPC   C4A46806  38.407  37.648   7.364
 3590POPC   C1B46807  38.473  37.921   6.464
 3590POPC   C2B46808  38.507  37.931   6.764
 3590POPC   C3B46809  38.540  37.911   7.064
 3590POPC   C4B46810  38.477  37.886   7.364
 3591POPC   NC346811  23.671   0.402   5.564
 3591POPC   PO446812  23.685   0.421   5.864
 3591POPC   GL146813  23.725   0.480   6.164
 3591POPC   GL246814  23.660   0.333   6.164
 3591POPC   C1A46815  23.742   0.431   6.464
 3591POPC   D2A46816  23.677   0.397   6.764
 3591POPC   C3A46817  23.756   0.447   7.064
 3591POPC   C4A46818  23.748   0.406   7.364
 3591POPC   C1B46819  23.667   0.199   6.464
 3591POPC   C2B46820  23.667   0.182   6.764
 3591POPC   C3B46821  23.613   0.191   7.064
 3591POPC   C4B46822  23.629   0.217   7.364
 3592POPC   NC346823  22.200  19.865   5.564
 3592POPC   PO446824  22.182  19.796   5.864
 3592POPC   GL146825  22.158  19.824   6.164
 3592POPC   GL246826  22.071  19.683   6.164
 3592POPC   C1A46827  22.169  19.875   6.464
 3592POPC   D2A46828  22.118  19.818   6.764
 3592POPC   C3A46829  22.182  19.828   7.064
 3592POPC   C4A46830  22.203  19.850   7.364
 3592POPC   C1B46831  22.028  19.585   6.464
 3592POPC   C2B46832  21.986  19.652   6.764
 3592POPC   C3B46833  22.057  19.593   7.064
 3592POPC   C4B46834  22.051  19.652   7.364
 3593POPC   NC346835  16.739  10.530   5.564
 3593POPC   PO446836  16.715  10.557   5.864
 3593POPC   GL146837  16.696  10.498   6.164
 3593POPC   GL246838  16.698  10.605   6.164
 3593POPC   C1A46839  16.685  10.572   6.464
 3593POPC   D2A46840  16.705  10.548   6.764
 3593POPC   C3A46841  16.691  10.571   7.064
 3593POPC   C4A46842  16.780  10.558   7.364
 3593POPC   C1B46843  16.701  10.768   6.464
 3593POPC   C2B46844  16.737  10.815   6.764
 3593POPC   C3B46845  16.706  10.728   7.064
 3593POPC   C4B46846  16.734  10.763   7.364
 3594POPC   NC346847   5.906  43.844   5.564
 3594POPC   PO446848   5.900  43.925   5.864
 3594POPC   GL146849   5.892  43.927   6.164
 3594POPC   GL246850   5.977  43.824   6.164
 3594POPC   C1A46851   5.854  43.909   6.464
 3594POPC   D2A46852   5.869  43.907   6.764
 3594POPC   C3A46853   5.911  43.856   7.064
 3594POPC   C4A46854   5.864  43.882   7.364
 3594POPC   C1B46855   6.069  43.743   6.464
 3594POPC   C2B46856   6.081  43.723   6.764
 3594POPC   C3B46857   6.062  43.674   7.064
 3594POPC   C4B46858   6.041  43.728   7.364
 3595POPC   NC346859  42.299   0.390   5.564
 3595POPC   PO446860  42.323   0.448   5.864
 3595POPC   GL146861  42.382   0.442   6.164
 3595POPC   GL246862  42.282   0.464   6.164
 3595POPC   C1A46863  42.311   0.462   6.464
 3595POPC   D2A46864  42.374   0.450   6.764
 3595POPC   C3A46865  42.286   0.418   7.064
 3595POPC   C4A46866  42.340   0.449   7.364
 3595POPC   C1B46867  42.147   0.598   6.464
 3595POPC   C2B46868  42.182   0.626   6.764
 3595POPC   C3B46869  42.146   0.571   7.064
 3595POPC   C4B46870  42.101   0.622   7.364
 3596POPC   NC346871  29.139  10.540   5.564
 3596POPC   PO446872  29.134  10.552   5.864
 3596POPC   GL146873  29.186  10.481   6.164
 3596POPC   GL246874  29.186  10.459   6.164
 3596POPC   C1A46875  29.134  10.530   6.464
 3596POPC   D2A46876  29.098  10.568   6.764
 3596POPC   C3A46877  29.189  10.540   7.064
 3596POPC   C4A46878  29.134  10.488   7.364
 3596POPC   C1B46879  29.336  10.294   6.464
 3596POPC   C2B46880  29.326  10.287   6.764
 3596POPC   C3B46881  29.315  10.371   7.064
 3596POPC   C4B46882  29.257  10.347   7.364
 3597POPC   NC346883  27.559   8.186   5.564
 3597POPC   PO446884  27.584   8.204   5.864
 3597POPC   GL146885  27.630   8.190   6.164
 3597POPC   GL246886  27.737   8.126   6.164
 3597POPC   C1A46887  27.549   8.191   6.464
 3597POPC   D2A46888  27.570   8.183   6.764
 3597POPC   C3A46889  27.559   8.201   7.064
 3597POPC   C4A46890  27.555   8.147   7.364
 3597POPC   C1B46891  27.850   8.114   6.464
 3597POPC   C2B46892  27.864   8.114   6.764
 3597POPC   C3B46893  27.841   8.178   7.064
 3597POPC   C4B46894  27.789   8.162   7.364
 3598POPC   NC346895   3.541  22.151   5.564
 3598POPC   PO446896   3.515  22.200   5.864
 3598POPC   GL146897   3.589  22.207   6.164
 3598POPC   GL246898   3.558  22.311   6.164
 3598POPC   C1A46899   3.545  22.134   6.464
 3598POPC   D2A46900   3.567  22.140   6.764
 3598POPC   C3A46901   3.572  22.118   7.064
 3598POPC   C4A46902   3.563  22.133   7.364
 3598POPC   C1B46903   3.594  22.423   6.464
 3598POPC   C2B46904   3.598  22.445   6.764
 3598POPC   C3B46905   3.647  22.441   7.064
 3598POPC   C4B46906   3.636  22.385   7.364
 3599POPC   NC346907   8.233  31.439   5.564
 3599POPC   PO446908   8.226  31.431   5.864
 3599POPC   GL146909   8.216  31.475   6.164
 3599POPC   GL246910   8.307  31.556   6.164
 3599POPC   C1A46911   8.189  31.454   6.464
 3599POPC   D2A46912   8.229  31.439   6.764
 3599POPC   C3A46913   8.173  31.517   7.064
 3599POPC   C4A46914   8.176  31.452   7.364
 3599POPC   C1B46915   8.324  31.673   6.464
 3599POPC   C2B46916   8.378  31.678   6.764
 3599POPC   C3B46917   8.318  31.719   7.064
 3599POPC   C4B46918   8.341  31.654   7.364
 3600POPC   NC346919  38.409   1.251   5.564
 3600POPC   PO446920  38.487   1.259   5.864
 3600POPC   GL146921  38.408   1.184   6.164
 3600POPC   GL246922  38.588   1.326   6.164
 3600POPC   C1A46923  38.495   1.176   6.464
 3600POPC   D2A46924  38.464   1.259   6.764
 3600POPC   C3A46925  38.463   1.223   7.064
 3600POPC   C4A46926  38.460   1.241   7.364
 3600POPC   C1B46927  38.638   1.428   6.464
 3600POPC   C2B46928  38.654   1.379   6.764
 3600POPC   C3B46929  38.626   1.360   7.064
 3600POPC   C4B46930  38.609   1.332   7.364
 3601POPC   NC346931   4.291   2.026   5.564
 3601POPC   PO446932   4.294   2.010   5.864
 3601POPC   GL146933   4.286   1.961   6.164
 3601POPC   GL246934   4.244   1.908   6.164
 3601POPC   C1A46935   4.339   1.981   6.464
 3601POPC   D2A46936   4.302   2.005   6.764
 3601POPC   C3A46937   4.298   2.022   7.064
 3601POPC   C4A46938   4.269   1.995   7.364
 3601POPC   C1B46939   4.203   1.780   6.464
 3601POPC   C2B46940   4.206   1.752   6.764
 3601POPC   C3B46941   4.209   1.813   7.064
 3601POPC   C4B46942   4.184   1.824   7.364
 3602POPC   NC346943  41.555  36.116   5.564
 3602POPC   PO446944  41.525  36.107   5.864
 3602POPC   GL146945  41.518  36.093   6.164
 3602POPC   GL246946  41.689  36.156   6.164
 3602POPC   C1A46947  41.606  36.112   6.464
 3602POPC   D2A46948  41.536  36.104   6.764
 3602POPC   C3A46949  41.585  36.144   7.064
 3602POPC   C4A46950  41.570  36.150   7.364
 3602POPC   C1B46951  41.795  36.277   6.464
 3602POPC   C2B46952  41.788  36.267   6.764
 3602POPC   C3B46953  41.764  36.220   7.064
 3602POPC   C4B46954  41.815  36.239   7.364
 3603POPC   NC346955   8.986  14.436   5.564
 3603POPC   PO446956   8.954  14.438   5.864
 3603POPC   GL146957   8.926  14.407   6.164
 3603POPC   GL246958   9.071  14.375   6.164
 3603POPC   C1A46959   8.959  14.378   6.464
 3603POPC   D2A46960   8.990  14.372   6.764
 3603POPC   C3A46961   9.015  14.439   7.064
 3603POPC   C4A46962   9.003  14.424   7.364
 3603POPC   C1B46963   9.168  14.248   6.464
 3603POPC   C2B46964   9.235  14.243   6.764
 3603POPC   C3B46965   9.213  14.287   7.064
 3603POPC   C4B46966   9.163  14.304   7.364
 3604POPC   NC346967  33.058  29.905   5.564
 3604POPC   PO446968  33.039  29.907   5.864
 3604POPC   GL146969  32.995  29.958   6.164
 3604POPC   GL246970  33.107  29.840   6.164
 3604POPC   C1A46971  33.061  29.886   6.464
 3604POPC   D2A46972  33.009  29.948   6.764
 3604POPC   C3A46973  33.000  29.932   7.064
 3604POPC   C4A46974  33.033  29.873   7.364
 3604POPC   C1B46975  33.060  29.709   6.464
 3604POPC   C2B46976  33.114  29.657   6.764
 3604POPC   C3B46977  33.088  29.711   7.064
 3604POPC   C4B46978  33.093  29.670   7.364
 3605POPC   NC346979  33.848  27.643   5.564
 3605POPC   PO446980  33.820  27.569   5.864
 3605POPC   GL146981  33.797  27.625   6.164
 3605POPC   GL246982  33.914  27.571   6.164
 3605POPC   C1A46983  33.797  27.633   6.464
 3605POPC   D2A46984  33.795  27.544   6.764
 3605POPC   C3A46985  33.848  27.592   7.064
 3605POPC   C4A46986  33.837  27.625   7.364
 3605POPC   C1B46987  34.014  27.556   6.464
 3605POPC   C2B46988  34.089  27.528   6.764
 3605POPC   C3B46989  34.064  27.524   7.064
 3605POPC   C4B46990  34.032  27.504   7.364
 3606POPC   NC346991  32.242   5.835   5.564
 3606POPC   PO446992  32.289   5.834   5.864
 3606POPC   GL146993  32.222   5.908   6.164
 3606POPC   GL246994  32.145   5.778   6.164
 3606POPC   C1A46995  32.255   5.844   6.464
 3606POPC   D2A46996  32.264   5.878   6.764
 3606POPC   C3A46997  32.278   5.891   7.064
 3606POPC   C4A46998  32.249   5.874   7.364
 3606POPC   C1B46999  32.113   5.726   6.464
 3606POPC   C2B47000  32.113   5.657   6.764
 3606POPC   C3B47001  32.111   5.664   7.064
 3606POPC   C4B47002  32.047   5.745   7.364
 3607POPC   NC347003  33.008   3.506   5.564
 3607POPC   PO447004  32.992   3.526   5.864
 3607POPC   GL147005  32.989   3.549   6.164
 3607POPC   GL247006  32.956   3.463   6.164
 3607POPC   C1A47007  33.013   3.516   6.464
 3607POPC   D2A47008  33.007   3.547   6.764
 3607POPC   C3A47009  33.017   3.507   7.064
 3607POPC   C4A47010  33.016   3.517   7.364
 3607POPC   C1B47011  32.750   3.396   6.464
 3607POPC   C2B47012  32.773   3.448   6.764
 3607POPC   C3B47013  32.756   3.451   7.064
 3607POPC   C4B47014  32.810   3.444   7.364
 3608POPC   NC347015  37.709  44.626   5.564
 3608POPC   PO447016  37.631  44.641   5.864
 3608POPC   GL147017  37.718  44.635   6.164
 3608POPC   GL247018  37.529  44.688   6.164
 3608POPC   C1A47019  37.692  44.707   6.464
 3608POPC   D2A47020  37.691  44.638   6.764
 3608POPC   C3A47021  37.664  44.685   7.064
 3608POPC   C4A47022  37.661  44.614   7.364
 3608POPC   C1B47023  37.455  44.831   6.464
 3608POPC   C2B47024  37.483  44.764   6.764
 3608POPC   C3B47025  37.440  44.814   7.064
 3608POPC   C4B47026  37.507  44.833   7.364
 3609POPC   NC347027   9.757  33.817   5.564
 3609POPC   PO447028   9.760  33.760   5.864
 3609POPC   GL147029   9.745  33.760   6.164
 3609POPC   GL247030   9.710  33.720   6.164
 3609POPC   C1A47031   9.703  33.806   6.464
 3609POPC   D2A47032   9.789  33.836   6.764
 3609POPC   C3A47033   9.742  33.759   7.064
 3609POPC   C4A47034   9.780  33.779   7.364
 3609POPC   C1B47035   9.631  33.570   6.464
 3609POPC   C2B47036   9.594  33.635   6.764
 3609POPC   C3B47037   9.651  33.575   7.064
 3609POPC   C4B47038   9.625  33.630   7.364
 3610POPC   NC347039  39.214  41.562   5.564
 3610POPC   PO447040  39.187  41.540   5.864
 3610POPC   GL147041  39.219  41.566   6.164
 3610POPC   GL247042  39.151  41.645   6.164
 3610POPC   C1A47043  39.213  41.578   6.464
 3610POPC   D2A47044  39.239  41.527   6.764
 3610POPC   C3A47045  39.208  41.605   7.064
 3610POPC   C4A47046  39.227  41.522   7.364
 3610POPC   C1B47047  39.109  41.736   6.464
 3610POPC   C2B47048  39.071  41.804   6.764
 3610POPC   C3B47049  39.061  41.763   7.064
 3610POPC   C4B47050  39.122  41.805   7.364
 3611POPC   NC347051   7.450  28.363   5.564
 3611POPC   PO447052   7.415  28.363   5.864
 3611POPC   GL147053   7.397  28.362   6.164
 3611POPC   GL247054   7.391  28.230   6.164
 3611POPC   C1A47055   7.404  28.406   6.464
 3611POPC   D2A47056   7.438  28.340   6.764
 3611POPC   C3A47057   7.378  28.327   7.064
 3611POPC   C4A47058   7.415  28.325   7.364
 3611POPC   C1B47059   7.305  28.081   6.464
 3611POPC   C2B47060   7.311  28.093   6.764
 3611POPC   C3B47061   7.397  28.154   7.064
 3611POPC   C4B47062   7.383  28.108   7.364
 3612POPC   NC347063   8.950  32.211   5.564
 3612POPC   PO447064   8.937  32.284   5.864
 3612POPC   GL147065   8.927  32.215   6.164
 3612POPC   GL247066   8.840  32.223   6.164
 3612POPC   C1A47067   8.977  32.285   6.464
 3612POPC   D2A47068   8.943  32.280   6.764
 3612POPC   C3A47069   9.019  32.265   7.064
 3612POPC   C4A47070   8.982  32.287   7.364
 3612POPC   C1B47071   8.755  32.107   6.464
 3612POPC   C2B47072   8.754  32.118   6.764
 3612POPC   C3B47073   8.785  32.131   7.064
 3612POPC   C4B47074   8.769  32.101   7.364
 3613POPC   NC347075  17.525  25.296   5.564
 3613POPC   PO447076  17.544  25.281   5.864
 3613POPC   GL147077  17.523  25.262   6.164
 3613POPC   GL247078  17.382  25.224   6.164
 3613POPC   C1A47079  17.485  25.287   6.464
 3613POPC   D2A47080  17.521  25.228   6.764
 3613POPC   C3A47081  17.523  25.303   7.064
 3613POPC   C4A47082  17.508  25.253   7.364
 3613POPC   C1B47083  17.297  25.185   6.464
 3613POPC   C2B47084  17.280  25.116   6.764
 3613POPC   C3B47085  17.299  25.182   7.064
 3613POPC   C4B47086  17.329  25.135   7.364
 3614POPC   NC347087  43.928  26.831   5.564
 3614POPC   PO447088  43.935  26.796   5.864
 3614POPC   GL147089  43.912  26.779   6.164
 3614POPC   GL247090  43.951  26.782   6.164
 3614POPC   C1A47091  43.917  26.863   6.464
 3614POPC   D2A47092  43.911  26.781   6.764
 3614POPC   C3A47093  43.924  26.866   7.064
 3614POPC   C4A47094  43.922  26.849   7.364
 3614POPC   C1B47095  44.089  26.690   6.464
 3614POPC   C2B47096  44.098  26.645   6.764
 3614POPC   C3B47097  44.097  26.634   7.064
 3614POPC   C4B47098  44.058  26.654   7.364
 3615POPC   NC347099  16.715  19.043   5.564
 3615POPC   PO447100  16.726  19.013   5.864
 3615POPC   GL147101  16.764  19.035   6.164
 3615POPC   GL247102  16.763  19.221   6.164
 3615POPC   C1A47103  16.743  19.022   6.464
 3615POPC   D2A47104  16.725  19.030   6.764
 3615POPC   C3A47105  16.767  19.026   7.064
 3615POPC   C4A47106  16.781  19.088   7.364
 3615POPC   C1B47107  16.674  19.273   6.464
 3615POPC   C2B47108  16.684  19.290   6.764
 3615POPC   C3B47109  16.747  19.262   7.064
 3615POPC   C4B47110  16.737  19.293   7.364
 3616POPC   NC347111  36.104  29.909   5.564
 3616POPC   PO447112  36.120  29.933   5.864
 3616POPC   GL147113  36.162  29.907   6.164
 3616POPC   GL247114  36.204  29.941   6.164
 3616POPC   C1A47115  36.158  29.965   6.464
 3616POPC   D2A47116  36.106  29.961   6.764
 3616POPC   C3A47117  36.136  29.955   7.064
 3616POPC   C4A47118  36.150  29.925   7.364
 3616POPC   C1B47119  36.405  29.966   6.464
 3616POPC   C2B47120  36.419  29.945   6.764
 3616POPC   C3B47121  36.418  29.921   7.064
 3616POPC   C4B47122  36.364  29.932   7.364
 3617POPC   NC347123   0.436  40.808   5.564
 3617POPC   PO447124   0.408  40.733   5.864
 3617POPC   GL147125   0.441  40.764   6.164
 3617POPC   GL247126   0.542  40.914   6.164
 3617POPC   C1A47127   0.456  40.779   6.464
 3617POPC   D2A47128   0.415  40.816   6.764
 3617POPC   C3A47129   0.402  40.762   7.064
 3617POPC   C4A47130   0.422  40.808   7.364
 3617POPC   C1B47131   0.638  40.959   6.464
 3617POPC   C2B47132   0.635  40.944   6.764
 3617POPC   C3B47133   0.627  40.908   7.064
 3617POPC   C4B47134   0.673  40.977   7.364
 3618POPC   NC347135  39.214  17.508   5.564
 3618POPC   PO447136  39.261  17.488   5.864
 3618POPC   GL147137  39.207  17.500   6.164
 3618POPC   GL247138  39.112  17.540   6.164
 3618POPC   C1A47139  39.242  17.514   6.464
 3618POPC   D2A47140  39.189  17.499   6.764
 3618POPC   C3A47141  39.183  17.548   7.064
 3618POPC   C4A47142  39.231  17.480   7.364
 3618POPC   C1B47143  39.020  17.663   6.464
 3618POPC   C2B47144  38.999  17.627   6.764
 3618POPC   C3B47145  39.070  17.622   7.064
 3618POPC   C4B47146  38.995  17.649   7.364
 3619POPC   NC347147  36.915  15.137   5.564
 3619POPC   PO447148  36.899  15.189   5.864
 3619POPC   GL147149  36.939  15.188   6.164
 3619POPC   GL247150  36.762  15.153   6.164
 3619POPC   C1A47151  36.859  15.143   6.464
 3619POPC   D2A47152  36.949  15.151   6.764
 3619POPC   C3A47153  36.879  15.174   7.064
 3619POPC   C4A47154  36.876  15.215   7.364
 3619POPC   C1B47155  36.732  15.078   6.464
 3619POPC   C2B47156  36.648  15.065   6.764
 3619POPC   C3B47157  36.735  15.081   7.064
 3619POPC   C4B47158  36.667  15.013   7.364
 3620POPC   NC347159  18.287  14.391   5.564
 3620POPC   PO447160  18.243  14.379   5.864
 3620POPC   GL147161  18.272  14.439   6.164
 3620POPC   GL247162  18.388  14.366   6.164
 3620POPC   C1A47163  18.237  14.415   6.464
 3620POPC   D2A47164  18.298  14.432   6.764
 3620POPC   C3A47165  18.312  14.393   7.064
 3620POPC   C4A47166  18.328  14.414   7.364
 3620POPC   C1B47167  18.539  14.451   6.464
 3620POPC   C2B47168  18.546  14.469   6.764
 3620POPC   C3B47169  18.567  14.389   7.064
 3620POPC   C4B47170  18.483  14.380   7.364
 3621POPC   NC347171  29.888  39.998   5.564
 3621POPC   PO447172  29.970  39.975   5.864
 3621POPC   GL147173  29.919  40.016   6.164
 3621POPC   GL247174  30.044  40.083   6.164
 3621POPC   C1A47175  29.898  40.040   6.464
 3621POPC   D2A47176  29.908  40.046   6.764
 3621POPC   C3A47177  29.968  40.003   7.064
 3621POPC   C4A47178  29.948  40.036   7.364
 3621POPC   C1B47179  30.128  40.150   6.464
 3621POPC   C2B47180  30.147  40.171   6.764
 3621POPC   C3B47181  30.086  40.117   7.064
 3621POPC   C4B47182  30.071  40.148   7.364
 3622POPC   NC347183   9.775  41.608   5.564
 3622POPC   PO447184   9.708  41.568   5.864
 3622POPC   GL147185   9.698  41.516   6.164
 3622POPC   GL247186   9.682  41.463   6.164
 3622POPC   C1A47187   9.723  41.551   6.464
 3622POPC   D2A47188   9.759  41.559   6.764
 3622POPC   C3A47189   9.757  41.589   7.064
 3622POPC   C4A47190   9.712  41.510   7.364
 3622POPC   C1B47191   9.637  41.287   6.464
 3622POPC   C2B47192   9.664  41.302   6.764
 3622POPC   C3B47193   9.666  41.346   7.064
 3622POPC   C4B47194   9.660  41.362   7.364
 3623POPC   NC347195   8.992  11.284   5.564
 3623POPC   PO447196   8.924  11.349   5.864
 3623POPC   GL147197   8.928  11.329   6.164
 3623POPC   GL247198   8.930  11.373   6.164
 3623POPC   C1A47199   8.936  11.337   6.464
 3623POPC   D2A47200   9.007  11.270   6.764
 3623POPC   C3A47201   9.007  11.312   7.064
 3623POPC   C4A47202   8.964  11.307   7.364
 3623POPC   C1B47203   8.891  11.538   6.464
 3623POPC   C2B47204   8.887  11.551   6.764
 3623POPC   C3B47205   8.844  11.559   7.064
 3623POPC   C4B47206   8.852  11.582   7.364
 3624POPC   NC347207  23.763   3.505   5.564
 3624POPC   PO447208  23.761   3.555   5.864
 3624POPC   GL147209  23.708   3.587   6.164
 3624POPC   GL247210  23.665   3.405   6.164
 3624POPC   C1A47211  23.747   3.580   6.464
 3624POPC   D2A47212  23.759   3.573   6.764
 3624POPC   C3A47213  23.701   3.522   7.064
 3624POPC   C4A47214  23.711   3.551   7.364
 3624POPC   C1B47215  23.615   3.292   6.464
 3624POPC   C2B47216  23.587   3.273   6.764
 3624POPC   C3B47217  23.547   3.342   7.064
 3624POPC   C4B47218  23.611   3.334   7.364
 3625POPC   NC347219  42.356  24.493   5.564
 3625POPC   PO447220  42.354  24.443   5.864
 3625POPC   GL147221  42.314  24.486   6.164
 3625POPC   GL247222  42.347  24.559   6.164
 3625POPC   C1A47223  42.364  24.454   6.464
 3625POPC   D2A47224  42.356  24.487   6.764
 3625POPC   C3A47225  42.310  24.460   7.064
 3625POPC   C4A47226  42.374  24.458   7.364
 3625POPC   C1B47227  42.436  24.711   6.464
 3625POPC   C2B47228  42.462  24.686   6.764
 3625POPC   C3B47229  42.462  24.751   7.064
 3625POPC   C4B47230  42.461  24.688   7.364
 3626POPC   NC347231  13.653  15.999   5.564
 3626POPC   PO447232  13.605  15.941   5.864
 3626POPC   GL147233  13.669  15.978   6.164
 3626POPC   GL247234  13.638  15.842   6.164
 3626POPC   C1A47235  13.661  15.988   6.464
 3626POPC   D2A47236  13.663  15.905   6.764
 3626POPC   C3A47237  13.673  15.971   7.064
 3626POPC   C4A47238  13.658  15.995   7.364
 3626POPC   C1B47239  13.570  15.697   6.464
 3626POPC   C2B47240  13.594  15.700   6.764
 3626POPC   C3B47241  13.592  15.667   7.064
 3626POPC   C4B47242  13.663  15.755   7.364
 3627POPC   NC347243  25.309   4.314   5.564
 3627POPC   PO447244  25.220   4.289   5.864
 3627POPC   GL147245  25.260   4.364   6.164
 3627POPC   GL247246  25.192   4.232   6.164
 3627POPC   C1A47247  25.252   4.332   6.464
 3627POPC   D2A47248  25.225   4.287   6.764
 3627POPC   C3A47249  25.258   4.328   7.064
 3627POPC   C4A47250  25.286   4.352   7.364
 3627POPC   C1B47251  25.071   4.191   6.464
 3627POPC   C2B47252  25.039   4.254   6.764
 3627POPC   C3B47253  25.013   4.198   7.064
 3627POPC   C4B47254  24.994   4.199   7.364
 3628POPC   NC347255  26.090  22.977   5.564
 3628POPC   PO447256  26.085  22.957   5.864
 3628POPC   GL147257  25.996  22.896   6.164
 3628POPC   GL247258  25.961  22.855   6.164
 3628POPC   C1A47259  26.014  22.980   6.464
 3628POPC   D2A47260  25.992  22.902   6.764
 3628POPC   C3A47261  26.064  22.947   7.064
 3628POPC   C4A47262  26.058  22.954   7.364
 3628POPC   C1B47263  25.951  22.670   6.464
 3628POPC   C2B47264  25.963  22.728   6.764
 3628POPC   C3B47265  25.967  22.747   7.064
 3628POPC   C4B47266  25.927  22.688   7.364
 3629POPC   NC347267  22.127  33.786   5.564
 3629POPC   PO447268  22.182  33.775   5.864
 3629POPC   GL147269  22.162  33.810   6.164
 3629POPC   GL247270  22.260  33.774   6.164
 3629POPC   C1A47271  22.142  33.772   6.464
 3629POPC   D2A47272  22.157  33.807   6.764
 3629POPC   C3A47273  22.135  33.834   7.064
 3629POPC   C4A47274  22.150  33.779   7.364
 3629POPC   C1B47275  22.415  33.732   6.464
 3629POPC   C2B47276  22.447  33.715   6.764
 3629POPC   C3B47277  22.454  33.748   7.064
 3629POPC   C4B47278  22.406  33.807   7.364
 3630POPC   NC347279  31.463  28.348   5.564
 3630POPC   PO447280  31.479  28.369   5.864
 3630POPC   GL147281  31.464  28.412   6.164
 3630POPC   GL247282  31.558  28.398   6.164
 3630POPC   C1A47283  31.515  28.337   6.464
 3630POPC   D2A47284  31.475  28.368   6.764
 3630POPC   C3A47285  31.488  28.390   7.064
 3630POPC   C4A47286  31.439  28.412   7.364
 3630POPC   C1B47287  31.747  28.358   6.464
 3630POPC   C2B47288  31.768  28.370   6.764
 3630POPC   C3B47289  31.675  28.414   7.064
 3630POPC   C4B47290  31.689  28.411   7.364
 3631POPC   NC347291  12.060  19.023   5.564
 3631POPC   PO447292  12.123  19.035   5.864
 3631POPC   GL147293  12.122  19.053   6.164
 3631POPC   GL247294  12.043  19.143   6.164
 3631POPC   C1A47295  12.119  19.013   6.464
 3631POPC   D2A47296  12.071  19.013   6.764
 3631POPC   C3A47297  12.061  19.038   7.064
 3631POPC   C4A47298  12.042  19.016   7.364
 3631POPC   C1B47299  12.071  19.284   6.464
 3631POPC   C2B47300  12.055  19.284   6.764
 3631POPC   C3B47301  12.100  19.324   7.064
 3631POPC   C4B47302  12.038  19.273   7.364
 3632POPC   NC347303  38.411  39.201   5.564
 3632POPC   PO447304  38.431  39.211   5.864
 3632POPC   GL147305  38.449  39.257   6.164
 3632POPC   GL247306  38.506  39.082   6.164
 3632POPC   C1A47307  38.459  39.260   6.464
 3632POPC   D2A47308  38.485  39.250   6.764
 3632POPC   C3A47309  38.447  39.219   7.064
 3632POPC   C4A47310  38.501  39.224   7.364
 3632POPC   C1B47311  38.606  38.981   6.464
 3632POPC   C2B47312  38.609  38.954   6.764
 3632POPC   C3B47313  38.558  38.967   7.064
 3632POPC   C4B47314  38.512  38.995   7.364
 3633POPC   NC347315  43.079  21.348   5.564
 3633POPC   PO447316  43.075  21.421   5.864
 3633POPC   GL147317  43.078  21.395   6.164
 3633POPC   GL247318  43.160  21.463   6.164
 3633POPC   C1A47319  43.132  21.387   6.464
 3633POPC   D2A47320  43.070  21.397   6.764
 3633POPC   C3A47321  43.152  21.396   7.064
 3633POPC   C4A47322  43.157  21.426   7.364
 3633POPC   C1B47323  43.249  21.639   6.464
 3633POPC   C2B47324  43.198  21.568   6.764
 3633POPC   C3B47325  43.227  21.590   7.064
 3633POPC   C4B47326  43.184  21.640   7.364
 3634POPC   NC347327   5.853  14.366   5.564
 3634POPC   PO447328   5.911  14.390   5.864
 3634POPC   GL147329   5.880  14.443   6.164
 3634POPC   GL247330   5.777  14.406   6.164
 3634POPC   C1A47331   5.833  14.354   6.464
 3634POPC   D2A47332   5.908  14.404   6.764
 3634POPC   C3A47333   5.862  14.363   7.064
 3634POPC   C4A47334   5.841  14.367   7.364
 3634POPC   C1B47335   5.626  14.430   6.464
 3634POPC   C2B47336   5.670  14.445   6.764
 3634POPC   C3B47337   5.614  14.454   7.064
 3634POPC   C4B47338   5.627  14.472   7.364
 3635POPC   NC347339   4.365  15.946   5.564
 3635POPC   PO447340   4.349  15.930   5.864
 3635POPC   GL147341   4.362  15.997   6.164
 3635POPC   GL247342   4.311  16.088   6.164
 3635POPC   C1A47343   4.325  15.991   6.464
 3635POPC   D2A47344   4.349  15.944   6.764
 3635POPC   C3A47345   4.273  15.913   7.064
 3635POPC   C4A47346   4.297  15.946   7.364
 3635POPC   C1B47347   4.387  16.248   6.464
 3635POPC   C2B47348   4.324  16.225   6.764
 3635POPC   C3B47349   4.346  16.196   7.064
 3635POPC   C4B47350   4.334  16.223   7.364
 3636POPC   NC347351  18.250  12.118   5.564
 3636POPC   PO447352  18.319  12.125   5.864
 3636POPC   GL147353  18.327  12.094   6.164
 3636POPC   GL247354  18.158  12.117   6.164
 3636POPC   C1A47355  18.279  12.071   6.464
 3636POPC   D2A47356  18.327  12.104   6.764
 3636POPC   C3A47357  18.305  12.112   7.064
 3636POPC   C4A47358  18.303  12.068   7.364
 3636POPC   C1B47359  18.081  12.143   6.464
 3636POPC   C2B47360  18.001  12.109   6.764
 3636POPC   C3B47361  18.017  12.111   7.064
 3636POPC   C4B47362  18.074  12.126   7.364
 3637POPC   NC347363  33.808   2.815   5.564
 3637POPC   PO447364  33.777   2.726   5.864
 3637POPC   GL147365  33.765   2.719   6.164
 3637POPC   GL247366  33.945   2.736   6.164
 3637POPC   C1A47367  33.809   2.797   6.464
 3637POPC   D2A47368  33.754   2.718   6.764
 3637POPC   C3A47369  33.767   2.721   7.064
 3637POPC   C4A47370  33.794   2.760   7.364
 3637POPC   C1B47371  34.025   2.752   6.464
 3637POPC   C2B47372  34.029   2.780   6.764
 3637POPC   C3B47373  34.030   2.827   7.064
 3637POPC   C4B47374  34.066   2.758   7.364
 3638POPC   NC347375   8.994  33.074   5.564
 3638POPC   PO447376   8.986  33.038   5.864
 3638POPC   GL147377   8.942  32.991   6.164
 3638POPC   GL247378   8.907  32.935   6.164
 3638POPC   C1A47379   8.988  33.027   6.464
 3638POPC   D2A47380   8.938  32.976   6.764
 3638POPC   C3A47381   8.994  32.986   7.064
 3638POPC   C4A47382   8.990  33.021   7.364
 3638POPC   C1B47383   8.769  32.879   6.464
 3638POPC   C2B47384   8.761  32.841   6.764
 3638POPC   C3B47385   8.791  32.872   7.064
 3638POPC   C4B47386   8.790  32.882   7.364
 3639POPC   NC347387  28.418  38.470   5.564
 3639POPC   PO447388  28.396  38.474   5.864
 3639POPC   GL147389  28.347  38.497   6.164
 3639POPC   GL247390  28.214  38.451   6.164
 3639POPC   C1A47391  28.412  38.443   6.464
 3639POPC   D2A47392  28.395  38.480   6.764
 3639POPC   C3A47393  28.352  38.491   7.064
 3639POPC   C4A47394  28.385  38.501   7.364
 3639POPC   C1B47395  28.079  38.437   6.464
 3639POPC   C2B47396  28.103  38.456   6.764
 3639POPC   C3B47397  28.096  38.424   7.064
 3639POPC   C4B47398  28.097  38.467   7.364
 3640POPC   NC347399   7.463   2.771   5.564
 3640POPC   PO447400   7.420   2.812   5.864
 3640POPC   GL147401   7.375   2.728   6.164
 3640POPC   GL247402   7.501   2.710   6.164
 3640POPC   C1A47403   7.396   2.738   6.464
 3640POPC   D2A47404   7.468   2.811   6.764
 3640POPC   C3A47405   7.419   2.810   7.064
 3640POPC   C4A47406   7.373   2.781   7.364
 3640POPC   C1B47407   7.533   2.541   6.464
 3640POPC   C2B47408   7.619   2.618   6.764
 3640POPC   C3B47409   7.569   2.535   7.064
 3640POPC   C4B47410   7.567   2.612   7.364
 3641POPC   NC347411  23.692  22.903   5.564
 3641POPC   PO447412  23.671  22.964   5.864
 3641POPC   GL147413  23.670  22.889   6.164
 3641POPC   GL247414  23.674  22.840   6.164
 3641POPC   C1A47415  23.758  22.970   6.464
 3641POPC   D2A47416  23.689  22.941   6.764
 3641POPC   C3A47417  23.693  22.976   7.064
 3641POPC   C4A47418  23.730  22.939   7.364
 3641POPC   C1B47419  23.697  22.664   6.464
 3641POPC   C2B47420  23.701  22.710   6.764
 3641POPC   C3B47421  23.686  22.737   7.064
 3641POPC   C4B47422  23.657  22.723   7.364
 3642POPC   NC347423   0.483  29.969   5.564
 3642POPC   PO447424   0.465  29.894   5.864
 3642POPC   GL147425   0.435  29.905   6.164
 3642POPC   GL247426   0.374  29.819   6.164
 3642POPC   C1A47427   0.409  29.953   6.464
 3642POPC   D2A47428   0.416  29.943   6.764
 3642POPC   C3A47429   0.410  29.955   7.064
 3642POPC   C4A47430   0.483  29.940   7.364
 3642POPC   C1B47431   0.338  29.725   6.464
 3642POPC   C2B47432   0.327  29.680   6.764
 3642POPC   C3B47433   0.311  29.737   7.064
 3642POPC   C4B47434   0.353  29.698   7.364
 3643POPC   NC347435  28.375  28.400   5.564
 3643POPC   PO447436  28.379  28.400   5.864
 3643POPC   GL147437  28.392  28.332   6.164
 3643POPC   GL247438  28.338  28.536   6.164
 3643POPC   C1A47439  28.360  28.338   6.464
 3643POPC   D2A47440  28.340  28.354   6.764
 3643POPC   C3A47441  28.398  28.367   7.064
 3643POPC   C4A47442  28.405  28.325   7.364
 3643POPC   C1B47443  28.277  28.560   6.464
 3643POPC   C2B47444  28.325  28.586   6.764
 3643POPC   C3B47445  28.333  28.575   7.064
 3643POPC   C4B47446  28.284  28.647   7.364
 3644POPC   NC347447   9.719  26.088   5.564
 3644POPC   PO447448   9.724  26.002   5.864
 3644POPC   GL147449   9.722  26.062   6.164
 3644POPC   GL247450   9.577  25.988   6.164
 3644POPC   C1A47451   9.753  25.997   6.464
 3644POPC   D2A47452   9.738  26.087   6.764
 3644POPC   C3A47453   9.709  26.046   7.064
 3644POPC   C4A47454   9.757  26.033   7.364
 3644POPC   C1B47455   9.525  26.020   6.464
 3644POPC   C2B47456   9.457  25.953   6.764
 3644POPC   C3B47457   9.511  26.017   7.064
 3644POPC   C4B47458   9.515  25.973   7.364
 3645POPC   NC347459  30.659  24.503   5.564
 3645POPC   PO447460  30.669  24.493   5.864
 3645POPC   GL147461  30.735  24.446   6.164
 3645POPC   GL247462  30.772  24.477   6.164
 3645POPC   C1A47463  30.661  24.498   6.464
 3645POPC   D2A47464  30.688  24.524   6.764
 3645POPC   C3A47465  30.718  24.447   7.064
 3645POPC   C4A47466  30.674  24.457   7.364
 3645POPC   C1B47467  30.982  24.454   6.464
 3645POPC   C2B47468  30.945  24.411   6.764
 3645POPC   C3B47469  30.951  24.430   7.064
 3645POPC   C4B47470  30.978  24.412   7.364
 3646POPC   NC347471  38.489  19.019   5.564
 3646POPC   PO447472  38.460  19.054   5.864
 3646POPC   GL147473  38.494  19.023   6.164
 3646POPC   GL247474  38.469  19.129   6.164
 3646POPC   C1A47475  38.439  19.013   6.464
 3646POPC   D2A47476  38.447  19.035   6.764
 3646POPC   C3A47477  38.436  19.028   7.064
 3646POPC   C4A47478  38.414  19.062   7.364
 3646POPC   C1B47479  38.504  19.294   6.464
 3646POPC   C2B47480  38.507  19.347   6.764
 3646POPC   C3B47481  38.507  19.266   7.064
 3646POPC   C4B47482  38.505  19.319   7.364
 3647POPC   NC347483   1.262   1.254   5.564
 3647POPC   PO447484   1.241   1.168   5.864
 3647POPC   GL147485   1.193   1.251   6.164
 3647POPC   GL247486   1.159   1.289   6.164
 3647POPC   C1A47487   1.192   1.179   6.464
 3647POPC   D2A47488   1.169   1.210   6.764
 3647POPC   C3A47489   1.225   1.219   7.064
 3647POPC   C4A47490   1.240   1.255   7.364
 3647POPC   C1B47491   1.144   1.428   6.464
 3647POPC   C2B47492   1.102   1.450   6.764
 3647POPC   C3B47493   1.097   1.429   7.064
 3647POPC   C4B47494   1.121   1.484   7.364
 3648POPC   NC347495  34.570  21.360   5.564
 3648POPC   PO447496  34.556  21.425   5.864
 3648POPC   GL147497  34.618  21.433   6.164
 3648POPC   GL247498  34.493  21.537   6.164
 3648POPC   C1A47499  34.551  21.433   6.464
 3648POPC   D2A47500  34.589  21.409   6.764
 3648POPC   C3A47501  34.558  21.384   7.064
 3648POPC   C4A47502  34.612  21.352   7.364
 3648POPC   C1B47503  34.498  21.647   6.464
 3648POPC   C2B47504  34.434  21.609   6.764
 3648POPC   C3B47505  34.430  21.659   7.064
 3648POPC   C4B47506  34.433  21.622   7.364
 3649POPC   NC347507  15.199  43.126   5.564
 3649POPC   PO447508  15.177  43.106   5.864
 3649POPC   GL147509  15.141  43.129   6.164
 3649POPC   GL247510  15.053  42.983   6.164
 3649POPC   C1A47511  15.151  43.091   6.464
 3649POPC   D2A47512  15.154  43.086   6.764
 3649POPC   C3A47513  15.216  43.066   7.064
 3649POPC   C4A47514  15.207  43.120   7.364
 3649POPC   C1B47515  14.984  42.932   6.464
 3649POPC   C2B47516  15.035  42.948   6.764
 3649POPC   C3B47517  15.010  42.945   7.064
 3649POPC   C4B47518  15.040  42.918   7.364
 3650POPC   NC347519   1.964   5.142   5.564
 3650POPC   PO447520   2.008   5.053   5.864
 3650POPC   GL147521   1.963   5.135   6.164
 3650POPC   GL247522   1.856   5.026   6.164
 3650POPC   C1A47523   1.996   5.063   6.464
 3650POPC   D2A47524   2.013   5.115   6.764
 3650POPC   C3A47525   2.009   5.081   7.064
 3650POPC   C4A47526   2.026   5.072   7.364
 3650POPC   C1B47527   1.746   4.976   6.464
 3650POPC   C2B47528   1.803   4.984   6.764
 3650POPC   C3B47529   1.769   4.947   7.064
 3650POPC   C4B47530   1.737   4.984   7.364
 3651POPC   NC347531  23.672   5.080   5.564
 3651POPC   PO447532  23.678   5.133   5.864
 3651POPC   GL147533  23.732   5.071   6.164
 3651POPC   GL247534  23.801   4.980   6.164
 3651POPC   C1A47535  23.716   5.073   6.464
 3651POPC   D2A47536  23.674   5.126   6.764
 3651POPC   C3A47537  23.756   5.102   7.064
 3651POPC   C4A47538  23.680   5.119   7.364
 3651POPC   C1B47539  23.765   4.831   6.464
 3651POPC   C2B47540  23.808   4.867   6.764
 3651POPC   C3B47541  23.805   4.878   7.064
 3651POPC   C4B47542  23.786   4.839   7.364
 3652POPC   NC347543  44.693  13.650   5.564
 3652POPC   PO447544  44.647  13.639   5.864
 3652POPC   GL147545  44.629  13.618   6.164
 3652POPC   GL247546  44.704  13.729   6.164
 3652POPC   C1A47547  44.621  13.591   6.464
 3652POPC   D2A47548  44.692  13.653   6.764
 3652POPC   C3A47549  44.620  13.646   7.064
 3652POPC   C4A47550  44.625  13.665   7.364
 3652POPC   C1B47551  44.790  13.863   6.464
 3652POPC   C2B47552  44.772  13.886   6.764
 3652POPC   C3B47553  44.787  13.866   7.064
 3652POPC   C4B47554  44.792  13.878   7.364
 3653POPC   NC347555   9.712  23.726   5.564
 3653POPC   PO447556   9.709  23.673   5.864
 3653POPC   GL147557   9.776  23.717   6.164
 3653POPC   GL247558   9.607  23.678   6.164
 3653POPC   C1A47559   9.725  23.667   6.464
 3653POPC   D2A47560   9.785  23.728   6.764
 3653POPC   C3A47561   9.716  23.715   7.064
 3653POPC   C4A47562   9.787  23.686   7.364
 3653POPC   C1B47563   9.488  23.751   6.464
 3653POPC   C2B47564   9.498  23.714   6.764
 3653POPC   C3B47565   9.499  23.721   7.064
 3653POPC   C4B47566   9.454  23.762   7.364
 3654POPC   NC347567  22.914  22.979   5.564
 3654POPC   PO447568  22.891  22.960   5.864
 3654POPC   GL147569  22.895  22.892   6.164
 3654POPC   GL247570  22.848  23.027   6.164
 3654POPC   C1A47571  22.936  22.890   6.464
 3654POPC   D2A47572  22.984  22.966   6.764
 3654POPC   C3A47573  22.960  22.968   7.064
 3654POPC   C4A47574  22.979  22.975   7.364
 3654POPC   C1B47575  22.689  23.077   6.464
 3654POPC   C2B47576  22.697  23.042   6.764
 3654POPC   C3B47577  22.699  23.096   7.064
 3654POPC   C4B47578  22.706  23.079   7.364
 3655POPC   NC347579  29.888   5.122   5.564
 3655POPC   PO447580  29.920   5.092   5.864
 3655POPC   GL147581  29.875   5.096   6.164
 3655POPC   GL247582  30.035   4.992   6.164
 3655POPC   C1A47583  29.920   5.078   6.464
 3655POPC   D2A47584  29.943   5.131   6.764
 3655POPC   C3A47585  29.964   5.088   7.064
 3655POPC   C4A47586  29.881   5.058   7.364
 3655POPC   C1B47587  30.120   5.002   6.464
 3655POPC   C2B47588  30.160   4.933   6.764
 3655POPC   C3B47589  30.141   4.926   7.064
 3655POPC   C4B47590  30.160   4.923   7.364
 3656POPC   NC347591  34.585  42.325   5.564
 3656POPC   PO447592  34.545  42.372   5.864
 3656POPC   GL147593  34.534  42.368   6.164
 3656POPC   GL247594  34.549  42.203   6.164
 3656POPC   C1A47595  34.625  42.384   6.464
 3656POPC   D2A47596  34.539  42.315   6.764
 3656POPC   C3A47597  34.597  42.344   7.064
 3656POPC   C4A47598  34.596  42.353   7.364
 3656POPC   C1B47599  34.545  42.075   6.464
 3656POPC   C2B47600  34.603  42.088   6.764
 3656POPC   C3B47601  34.572  42.071   7.064
 3656POPC   C4B47602  34.577  42.065   7.364
 3657POPC   NC347603   6.622  33.785   5.564
 3657POPC   PO447604   6.636  33.831   5.864
 3657POPC   GL147605   6.666  33.751   6.164
 3657POPC   GL247606   6.752  33.785   6.164
 3657POPC   C1A47607   6.665  33.834   6.464
 3657POPC   D2A47608   6.603  33.833   6.764
 3657POPC   C3A47609   6.631  33.779   7.064
 3657POPC   C4A47610   6.651  33.800   7.364
 3657POPC   C1B47611   6.918  33.710   6.464
 3657POPC   C2B47612   6.868  33.747   6.764
 3657POPC   C3B47613   6.839  33.721   7.064
 3657POPC   C4B47614   6.888  33.682   7.364
 3658POPC   NC347615  26.019  10.531   5.564
 3658POPC   PO447616  26.046  10.493   5.864
 3658POPC   GL147617  26.074  10.554   6.164
 3658POPC   GL247618  26.126  10.549   6.164
 3658POPC   C1A47619  26.063  10.542   6.464
 3658POPC   D2A47620  26.026  10.552   6.764
 3658POPC   C3A47621  26.035  10.494   7.064
 3658POPC   C4A47622  26.046  10.534   7.364
 3658POPC   C1B47623  26.283  10.603   6.464
 3658POPC   C2B47624  26.266  10.628   6.764
 3658POPC   C3B47625  26.247  10.532   7.064
 3658POPC   C4B47626  26.332  10.595   7.364
 3659POPC   NC347627  24.492  29.103   5.564
 3659POPC   PO447628  24.449  29.163   5.864
 3659POPC   GL147629  24.530  29.129   6.164
 3659POPC   GL247630  24.389  29.133   6.164
 3659POPC   C1A47631  24.508  29.156   6.464
 3659POPC   D2A47632  24.481  29.116   6.764
 3659POPC   C3A47633  24.492  29.168   7.064
 3659POPC   C4A47634  24.508  29.182   7.364
 3659POPC   C1B47635  24.234  29.201   6.464
 3659POPC   C2B47636  24.234  29.171   6.764
 3659POPC   C3B47637  24.254  29.156   7.064
 3659POPC   C4B47638  24.217  29.174   7.364
 3660POPC   NC347639  25.302  31.456   5.564
 3660POPC   PO447640  25.242  31.459   5.864
 3660POPC   GL147641  25.234  31.468   6.164
 3660POPC   GL247642  25.190  31.613   6.164
 3660POPC   C1A47643  25.303  31.448   6.464
 3660POPC   D2A47644  25.217  31.467   6.764
 3660POPC   C3A47645  25.278  31.451   7.064
 3660POPC   C4A47646  25.271  31.507   7.364
 3660POPC   C1B47647  25.160  31.697   6.464
 3660POPC   C2B47648  25.172  31.666   6.764
 3660POPC   C3B47649  25.119  31.714   7.064
 3660POPC   C4B47650  25.139  31.733   7.364
 3661POPC   NC347651   1.985  14.414   5.564
 3661POPC   PO447652   2.033  14.354   5.864
 3661POPC   GL147653   1.961  14.407   6.164
 3661POPC   GL247654   2.009  14.296   6.164
 3661POPC   C1A47655   2.029  14.401   6.464
 3661POPC   D2A47656   1.994  14.367   6.764
 3661POPC   C3A47657   1.985  14.452   7.064
 3661POPC   C4A47658   2.009  14.365   7.364
 3661POPC   C1B47659   2.087  14.209   6.464
 3661POPC   C2B47660   2.075  14.171   6.764
 3661POPC   C3B47661   2.137  14.215   7.064
 3661POPC   C4B47662   2.123  14.149   7.364
 3662POPC   NC347663  28.362   5.074   5.564
 3662POPC   PO447664  28.337   5.051   5.864
 3662POPC   GL147665  28.333   5.106   6.164
 3662POPC   GL247666  28.206   5.062   6.164
 3662POPC   C1A47667  28.366   5.072   6.464
 3662POPC   D2A47668  28.412   5.131   6.764
 3662POPC   C3A47669  28.399   5.060   7.064
 3662POPC   C4A47670  28.382   5.048   7.364
 3662POPC   C1B47671  28.152   5.060   6.464
 3662POPC   C2B47672  28.099   5.029   6.764
 3662POPC   C3B47673  28.078   5.047   7.064
 3662POPC   C4B47674  28.079   5.098   7.364
 3663POPC   NC347675  36.088  15.163   5.564
 3663POPC   PO447676  36.087  15.150   5.864
 3663POPC   GL147677  36.176  15.163   6.164
 3663POPC   GL247678  36.278  15.251   6.164
 3663POPC   C1A47679  36.137  15.214   6.464
 3663POPC   D2A47680  36.107  15.203   6.764
 3663POPC   C3A47681  36.120  15.150   7.064
 3663POPC   C4A47682  36.131  15.211   7.364
 3663POPC   C1B47683  36.411  15.247   6.464
 3663POPC   C2B47684  36.375  15.189   6.764
 3663POPC   C3B47685  36.325  15.261   7.064
 3663POPC   C4B47686  36.363  15.258   7.364
 3664POPC   NC347687  19.014  14.370   5.564
 3664POPC   PO447688  19.014  14.420   5.864
 3664POPC   GL147689  19.062  14.385   6.164
 3664POPC   GL247690  18.932  14.421   6.164
 3664POPC   C1A47691  19.079  14.364   6.464
 3664POPC   D2A47692  19.106  14.372   6.764
 3664POPC   C3A47693  19.015  14.408   7.064
 3664POPC   C4A47694  19.015  14.404   7.364
 3664POPC   C1B47695  18.856  14.449   6.464
 3664POPC   C2B47696  18.786  14.440   6.764
 3664POPC   C3B47697  18.845  14.468   7.064
 3664POPC   C4B47698  18.831  14.462   7.364
 3665POPC   NC347699  35.364  33.815   5.564
 3665POPC   PO447700  35.304  33.795   5.864
 3665POPC   GL147701  35.323  33.779   6.164
 3665POPC   GL247702  35.181  33.774   6.164
 3665POPC   C1A47703  35.314  33.760   6.464
 3665POPC   D2A47704  35.365  33.838   6.764
 3665POPC   C3A47705  35.313  33.798   7.064
 3665POPC   C4A47706  35.348  33.788   7.364
 3665POPC   C1B47707  35.082  33.837   6.464
 3665POPC   C2B47708  35.096  33.829   6.764
 3665POPC   C3B47709  35.094  33.814   7.064
 3665POPC   C4B47710  35.101  33.859   7.364
 3666POPC   NC347711  32.998  37.652   5.564
 3666POPC   PO447712  32.981  37.684   5.864
 3666POPC   GL147713  33.024  37.669   6.164
 3666POPC   GL247714  32.964  37.531   6.164
 3666POPC   C1A47715  33.049  37.677   6.464
 3666POPC   D2A47716  32.995  37.709   6.764
 3666POPC   C3A47717  32.986  37.703   7.064
 3666POPC   C4A47718  33.002  37.726   7.364
 3666POPC   C1B47719  32.846  37.499   6.464
 3666POPC   C2B47720  32.832  37.490   6.764
 3666POPC   C3B47721  32.831  37.457   7.064
 3666POPC   C4B47722  32.864  37.512   7.364
 3667POPC   NC347723  11.285  26.007   5.564
 3667POPC   PO447724  11.262  26.039   5.864
 3667POPC   GL147725  11.350  26.000   6.164
 3667POPC   GL247726  11.281  25.941   6.164
 3667POPC   C1A47727  11.281  26.046   6.464
 3667POPC   D2A47728  11.326  26.064   6.764
 3667POPC   C3A47729  11.298  26.044   7.064
 3667POPC   C4A47730  11.306  26.039   7.364
 3667POPC   C1B47731  11.244  25.838   6.464
 3667POPC   C2B47732  11.258  25.798   6.764
 3667POPC   C3B47733  11.217  25.752   7.064
 3667POPC   C4B47734  11.214  25.777   7.364
 3668POPC   NC347735   0.405  19.784   5.564
 3668POPC   PO447736   0.462  19.842   5.864
 3668POPC   GL147737   0.480  19.867   6.164
 3668POPC   GL247738   0.514  19.956   6.164
 3668POPC   C1A47739   0.398  19.794   6.464
 3668POPC   D2A47740   0.452  19.796   6.764
 3668POPC   C3A47741   0.393  19.813   7.064
 3668POPC   C4A47742   0.439  19.823   7.364
 3668POPC   C1B47743   0.552  20.085   6.464
 3668POPC   C2B47744   0.534  20.089   6.764
 3668POPC   C3B47745   0.615  20.064   7.064
 3668POPC   C4B47746   0.555  20.038   7.364
 3669POPC   NC347747  38.409  36.147   5.564
 3669POPC   PO447748  38.435  36.151   5.864
 3669POPC   GL147749  38.439  36.165   6.164
 3669POPC   GL247750  38.376  36.249   6.164
 3669POPC   C1A47751  38.474  36.089   6.464
 3669POPC   D2A47752  38.468  36.108   6.764
 3669POPC   C3A47753  38.486  36.156   7.064
 3669POPC   C4A47754  38.420  36.086   7.364
 3669POPC   C1B47755  38.334  36.386   6.464
 3669POPC   C2B47756  38.353  36.386   6.764
 3669POPC   C3B47757  38.350  36.396   7.064
 3669POPC   C4B47758  38.373  36.398   7.364
 3670POPC   NC347759  43.085  31.511   5.564
 3670POPC   PO447760  43.158  31.493   5.864
 3670POPC   GL147761  43.154  31.515   6.164
 3670POPC   GL247762  42.978  31.424   6.164
 3670POPC   C1A47763  43.088  31.425   6.464
 3670POPC   D2A47764  43.120  31.450   6.764
 3670POPC   C3A47765  43.113  31.453   7.064
 3670POPC   C4A47766  43.094  31.455   7.364
 3670POPC   C1B47767  42.858  31.396   6.464
 3670POPC   C2B47768  42.909  31.423   6.764
 3670POPC   C3B47769  42.835  31.448   7.064
 3670POPC   C4B47770  42.817  31.465   7.364
 3671POPC   NC347771  31.511   3.538   5.564
 3671POPC   PO447772  31.508   3.542   5.864
 3671POPC   GL147773  31.507   3.556   6.164
 3671POPC   GL247774  31.402   3.638   6.164
 3671POPC   C1A47775  31.507   3.547   6.464
 3671POPC   D2A47776  31.476   3.510   6.764
 3671POPC   C3A47777  31.508   3.540   7.064
 3671POPC   C4A47778  31.483   3.583   7.364
 3671POPC   C1B47779  31.399   3.818   6.464
 3671POPC   C2B47780  31.396   3.787   6.764
 3671POPC   C3B47781  31.398   3.789   7.064
 3671POPC   C4B47782  31.365   3.735   7.364
 3672POPC   NC347783  23.743   7.426   5.564
 3672POPC   PO447784  23.761   7.429   5.864
 3672POPC   GL147785  23.673   7.394   6.164
 3672POPC   GL247786  23.782   7.346   6.164
 3672POPC   C1A47787  23.665   7.466   6.464
 3672POPC   D2A47788  23.740   7.409   6.764
 3672POPC   C3A47789  23.760   7.439   7.064
 3672POPC   C4A47790  23.728   7.463   7.364
 3672POPC   C1B47791  23.748   7.208   6.464
 3672POPC   C2B47792  23.722   7.215   6.764
 3672POPC   C3B47793  23.723   7.177   7.064
 3672POPC   C4B47794  23.730   7.136   7.364
 3673POPC   NC347795  26.779   4.305   5.564
 3673POPC   PO447796  26.829   4.347   5.864
 3673POPC   GL147797  26.809   4.322   6.164
 3673POPC   GL247798  26.991   4.331   6.164
 3673POPC   C1A47799  26.863   4.321   6.464
 3673POPC   D2A47800  26.854   4.347   6.764
 3673POPC   C3A47801  26.831   4.293   7.064
 3673POPC   C4A47802  26.810   4.277   7.364
 3673POPC   C1B47803  27.071   4.311   6.464
 3673POPC   C2B47804  27.049   4.316   6.764
 3673POPC   C3B47805  27.100   4.357   7.064
 3673POPC   C4B47806  27.102   4.335   7.364
 3674POPC   NC347807   2.786  27.549   5.564
 3674POPC   PO447808   2.737  27.636   5.864
 3674POPC   GL147809   2.794  27.564   6.164
 3674POPC   GL247810   2.925  27.609   6.164
 3674POPC   C1A47811   2.799  27.635   6.464
 3674POPC   D2A47812   2.775  27.626   6.764
 3674POPC   C3A47813   2.719  27.612   7.064
 3674POPC   C4A47814   2.759  27.590   7.364
 3674POPC   C1B47815   2.953  27.708   6.464
 3674POPC   C2B47816   2.966  27.659   6.764
 3674POPC   C3B47817   3.000  27.636   7.064
 3674POPC   C4B47818   2.969  27.689   7.364
 3675POPC   NC347819  36.913  12.047   5.564
 3675POPC   PO447820  36.865  12.034   5.864
 3675POPC   GL147821  36.929  12.040   6.164
 3675POPC   GL247822  36.945  11.964   6.164
 3675POPC   C1A47823  36.890  12.097   6.464
 3675POPC   D2A47824  36.915  12.101   6.764
 3675POPC   C3A47825  36.918  12.054   7.064
 3675POPC   C4A47826  36.860  12.054   7.364
 3675POPC   C1B47827  37.078  11.890   6.464
 3675POPC   C2B47828  37.102  11.908   6.764
 3675POPC   C3B47829  37.108  11.843   7.064
 3675POPC   C4B47830  37.081  11.920   7.364
 3676POPC   NC347831  27.633  19.021   5.564
 3676POPC   PO447832  27.563  19.105   5.864
 3676POPC   GL147833  27.557  19.063   6.164
 3676POPC   GL247834  27.535  19.010   6.164
 3676POPC   C1A47835  27.616  19.068   6.464
 3676POPC   D2A47836  27.556  19.087   6.764
 3676POPC   C3A47837  27.546  19.024   7.064
 3676POPC   C4A47838  27.544  19.028   7.364
 3676POPC   C1B47839  27.385  18.910   6.464
 3676POPC   C2B47840  27.384  18.883   6.764
 3676POPC   C3B47841  27.375  18.893   7.064
 3676POPC   C4B47842  27.400  18.932   7.364
 3677POPC   NC347843  10.541  31.505   5.564
 3677POPC   PO447844  10.518  31.456   5.864
 3677POPC   GL147845  10.563  31.496   6.164
 3677POPC   GL247846  10.396  31.428   6.164
 3677POPC   C1A47847  10.568  31.480   6.464
 3677POPC   D2A47848  10.506  31.453   6.764
 3677POPC   C3A47849  10.476  31.507   7.064
 3677POPC   C4A47850  10.492  31.488   7.364
 3677POPC   C1B47851  10.372  31.299   6.464
 3677POPC   C2B47852  10.311  31.344   6.764
 3677POPC   C3B47853  10.320  31.291   7.064
 3677POPC   C4B47854  10.379  31.331   7.364
 3678POPC   NC347855  26.017  11.334   5.564
 3678POPC   PO447856  26.072  11.309   5.864
 3678POPC   GL147857  26.054  11.308   6.164
 3678POPC   GL247858  25.908  11.300   6.164
 3678POPC   C1A47859  26.010  11.292   6.464
 3678POPC   D2A47860  26.050  11.272   6.764
 3678POPC   C3A47861  26.065  11.323   7.064
 3678POPC   C4A47862  26.061  11.262   7.364
 3678POPC   C1B47863  25.842  11.225   6.464
 3678POPC   C2B47864  25.774  11.276   6.764
 3678POPC   C3B47865  25.798  11.243   7.064
 3678POPC   C4B47866  25.818  11.228   7.364
 3679POPC   NC347867  36.116  27.634   5.564
 3679POPC   PO447868  36.086  27.607   5.864
 3679POPC   GL147869  36.097  27.604   6.164
 3679POPC   GL247870  36.009  27.705   6.164
 3679POPC   C1A47871  36.169  27.563   6.464
 3679POPC   D2A47872  36.091  27.639   6.764
 3679POPC   C3A47873  36.110  27.567   7.064
 3679POPC   C4A47874  36.145  27.624   7.364
 3679POPC   C1B47875  35.934  27.781   6.464
 3679POPC   C2B47876  35.941  27.758   6.764
 3679POPC   C3B47877  35.957  27.772   7.064
 3679POPC   C4B47878  35.975  27.761   7.364
 3680POPC   NC347879   1.200   9.744   5.564
 3680POPC   PO447880   1.243   9.717   5.864
 3680POPC   GL147881   1.250   9.704   6.164
 3680POPC   GL247882   1.114   9.756   6.164
 3680POPC   C1A47883   1.212   9.738   6.464
 3680POPC   D2A47884   1.179   9.707   6.764
 3680POPC   C3A47885   1.187   9.728   7.064
 3680POPC   C4A47886   1.226   9.745   7.364
 3680POPC   C1B47887   1.004   9.780   6.464
 3680POPC   C2B47888   0.989   9.759   6.764
 3680POPC   C3B47889   0.960   9.737   7.064
 3680POPC   C4B47890   0.962   9.741   7.364
 3681POPC   NC347891  43.110   1.244   5.564
 3681POPC   PO447892  43.076   1.203   5.864
 3681POPC   GL147893  43.096   1.194   6.164
 3681POPC   GL247894  43.217   1.125   6.164
 3681POPC   C1A47895  43.151   1.260   6.464
 3681POPC   D2A47896  43.159   1.215   6.764
 3681POPC   C3A47897  43.153   1.257   7.064
 3681POPC   C4A47898  43.115   1.186   7.364
 3681POPC   C1B47899  43.309   1.033   6.464
 3681POPC   C2B47900  43.282   0.982   6.764
 3681POPC   C3B47901  43.292   0.998   7.064
 3681POPC   C4B47902  43.300   1.043   7.364
 3682POPC   NC347903  32.277  12.061   5.564
 3682POPC   PO447904  32.278  12.108   5.864
 3682POPC   GL147905  32.284  12.082   6.164
 3682POPC   GL247906  32.178  12.028   6.164
 3682POPC   C1A47907  32.224  12.066   6.464
 3682POPC   D2A47908  32.198  12.076   6.764
 3682POPC   C3A47909  32.230  12.059   7.064
 3682POPC   C4A47910  32.231  12.083   7.364
 3682POPC   C1B47911  32.099  11.940   6.464
 3682POPC   C2B47912  32.044  11.885   6.764
 3682POPC   C3B47913  32.044  11.904   7.064
 3682POPC   C4B47914  32.077  11.873   7.364
 3683POPC   NC347915   0.403  24.503   5.564
 3683POPC   PO447916   0.448  24.464   5.864
 3683POPC   GL147917   0.421  24.483   6.164
 3683POPC   GL247918   0.529  24.538   6.164
 3683POPC   C1A47919   0.388  24.519   6.464
 3683POPC   D2A47920   0.431  24.509   6.764
 3683POPC   C3A47921   0.392  24.509   7.064
 3683POPC   C4A47922   0.389  24.497   7.364
 3683POPC   C1B47923   0.681  24.592   6.464
 3683POPC   C2B47924   0.636  24.658   6.764
 3683POPC   C3B47925   0.620  24.652   7.064
 3683POPC   C4B47926   0.654  24.580   7.364
 3684POPC   NC347927  41.545   4.329   5.564
 3684POPC   PO447928  41.558   4.320   5.864
 3684POPC   GL147929  41.598   4.362   6.164
 3684POPC   GL247930  41.548   4.192   6.164
 3684POPC   C1A47931  41.597   4.290   6.464
 3684POPC   D2A47932  41.607   4.341   6.764
 3684POPC   C3A47933  41.591   4.324   7.064
 3684POPC   C4A47934  41.526   4.343   7.364
 3684POPC   C1B47935  41.564   4.113   6.464
 3684POPC   C2B47936  41.507   4.037   6.764
 3684POPC   C3B47937  41.566   4.057   7.064
 3684POPC   C4B47938  41.468   4.099   7.364
 3685POPC   NC347939  26.836  15.199   5.564
 3685POPC   PO447940  26.801  15.218   5.864
 3685POPC   GL147941  26.809  15.221   6.164
 3685POPC   GL247942  26.814  15.075   6.164
 3685POPC   C1A47943  26.826  15.208   6.464
 3685POPC   D2A47944  26.779  15.184   6.764
 3685POPC   C3A47945  26.838  15.139   7.064
 3685POPC   C4A47946  26.837  15.215   7.364
 3685POPC   C1B47947  26.817  14.943   6.464
 3685POPC   C2B47948  26.871  14.902   6.764
 3685POPC   C3B47949  26.884  14.905   7.064
 3685POPC   C4B47950  26.797  14.903   7.364
 3686POPC   NC347951  44.622  21.359   5.564
 3686POPC   PO447952  44.641  21.391   5.864
 3686POPC   GL147953  44.664  21.428   6.164
 3686POPC   GL247954  44.698  21.490   6.164
 3686POPC   C1A47955  44.652  21.358   6.464
 3686POPC   D2A47956  44.688  21.411   6.764
 3686POPC   C3A47957  44.631  21.354   7.064
 3686POPC   C4A47958  44.679  21.406   7.364
 3686POPC   C1B47959  44.614  21.595   6.464
 3686POPC   C2B47960  44.655  21.618   6.764
 3686POPC   C3B47961  44.698  21.650   7.064
 3686POPC   C4B47962  44.678  21.674   7.364
 3687POPC   NC347963  23.689  41.598   5.564
 3687POPC   PO447964  23.673  41.520   5.864
 3687POPC   GL147965  23.761  41.606   6.164
 3687POPC   GL247966  23.690  41.479   6.164
 3687POPC   C1A47967  23.728  41.568   6.464
 3687POPC   D2A47968  23.701  41.552   6.764
 3687POPC   C3A47969  23.747  41.572   7.064
 3687POPC   C4A47970  23.678  41.524   7.364
 3687POPC   C1B47971  23.596  41.327   6.464
 3687POPC   C2B47972  23.612  41.328   6.764
 3687POPC   C3B47973  23.584  41.373   7.064
 3687POPC   C4B47974  23.558  41.295   7.364
 3688POPC   NC347975   5.905  33.844   5.564
 3688POPC   PO447976   5.824  33.767   5.864
 3688POPC   GL147977   5.887  33.848   6.164
 3688POPC   GL247978   5.940  33.930   6.164
 3688POPC   C1A47979   5.860  33.806   6.464
 3688POPC   D2A47980   5.903  33.760   6.764
 3688POPC   C3A47981   5.913  33.845   7.064
 3688POPC   C4A47982   5.898  33.806   7.364
 3688POPC   C1B47983   5.974  34.074   6.464
 3688POPC   C2B47984   6.004  34.051   6.764
 3688POPC   C3B47985   5.948  34.071   7.064
 3688POPC   C4B47986   5.959  34.031   7.364
 3689POPC   NC347987  11.334   4.350   5.564
 3689POPC   PO447988  11.309   4.338   5.864
 3689POPC   GL147989  11.335   4.328   6.164
 3689POPC   GL247990  11.162   4.359   6.164
 3689POPC   C1A47991  11.296   4.319   6.464
 3689POPC   D2A47992  11.280   4.295   6.764
 3689POPC   C3A47993  11.271   4.339   7.064
 3689POPC   C4A47994  11.320   4.318   7.364
 3689POPC   C1B47995  11.064   4.474   6.464
 3689POPC   C2B47996  11.037   4.454   6.764
 3689POPC   C3B47997  11.087   4.450   7.064
 3689POPC   C4B47998  11.040   4.430   7.364
 3690POPC   NC347999  17.530  36.927   5.564
 3690POPC   PO448000  17.546  36.854   5.864
 3690POPC   GL148001  17.533  36.872   6.164
 3690POPC   GL248002  17.478  37.040   6.164
 3690POPC   C1A48003  17.480  36.930   6.464
 3690POPC   D2A48004  17.532  36.953   6.764
 3690POPC   C3A48005  17.461  36.945   7.064
 3690POPC   C4A48006  17.541  36.876   7.364
 3690POPC   C1B48007  17.427  37.108   6.464
 3690POPC   C2B48008  17.411  37.150   6.764
 3690POPC   C3B48009  17.351  37.144   7.064
 3690POPC   C4B48010  17.374  37.145   7.364
 3691POPC   NC348011  22.911  17.480   5.564
 3691POPC   PO448012  22.924  17.535   5.864
 3691POPC   GL148013  22.968  17.476   6.164
 3691POPC   GL248014  23.099  17.574   6.164
 3691POPC   C1A48015  22.905  17.490   6.464
 3691POPC   D2A48016  22.954  17.470   6.764
 3691POPC   C3A48017  22.957  17.526   7.064
 3691POPC   C4A48018  22.924  17.476   7.364
 3691POPC   C1B48019  23.178  17.630   6.464
 3691POPC   C2B48020  23.195  17.650   6.764
 3691POPC   C3B48021  23.143  17.653   7.064
 3691POPC   C4B48022  23.194  17.569   7.364
 3692POPC   NC348023  18.265  22.204   5.564
 3692POPC   PO448024  18.245  22.158   5.864
 3692POPC   GL148025  18.307  22.121   6.164
 3692POPC   GL248026  18.332  22.069   6.164
 3692POPC   C1A48027  18.299  22.177   6.464
 3692POPC   D2A48028  18.281  22.117   6.764
 3692POPC   C3A48029  18.255  22.179   7.064
 3692POPC   C4A48030  18.238  22.132   7.364
 3692POPC   C1B48031  18.380  21.926   6.464
 3692POPC   C2B48032  18.465  21.914   6.764
 3692POPC   C3B48033  18.436  21.970   7.064
 3692POPC   C4B48034  18.389  22.004   7.364
 3693POPC   NC348035  43.114  37.645   5.564
 3693POPC   PO448036  43.083  37.678   5.864
 3693POPC   GL148037  43.139  37.672   6.164
 3693POPC   GL248038  43.229  37.804   6.164
 3693POPC   C1A48039  43.104  37.650   6.464
 3693POPC   D2A48040  43.070  37.666   6.764
 3693POPC   C3A48041  43.155  37.715   7.064
 3693POPC   C4A48042  43.132  37.652   7.364
 3693POPC   C1B48043  43.287  37.833   6.464
 3693POPC   C2B48044  43.275  37.909   6.764
 3693POPC   C3B48045  43.275  37.885   7.064
 3693POPC   C4B48046  43.268  37.836   7.364
 3694POPC   NC348047   2.803  43.900   5.564
 3694POPC   PO448048   2.719  43.844   5.864
 3694POPC   GL148049   2.748  43.908   6.164
 3694POPC   GL248050   2.636  43.944   6.164
 3694POPC   C1A48051   2.799  43.885   6.464
 3694POPC   D2A48052   2.815  43.842   6.764
 3694POPC   C3A48053   2.754  43.873   7.064
 3694POPC   C4A48054   2.719  43.934   7.364
 3694POPC   C1B48055   2.532  43.967   6.464
 3694POPC   C2B48056   2.510  44.017   6.764
 3694POPC   C3B48057   2.508  44.005   7.064
 3694POPC   C4B48058   2.595  44.049   7.364
 3695POPC   NC348059  20.650  33.767   5.564
 3695POPC   PO448060  20.606  33.804   5.864
 3695POPC   GL148061  20.655  33.807   6.164
 3695POPC   GL248062  20.694  33.906   6.164
 3695POPC   C1A48063  20.591  33.769   6.464
 3695POPC   D2A48064  20.592  33.763   6.764
 3695POPC   C3A48065  20.616  33.760   7.064
 3695POPC   C4A48066  20.660  33.835   7.364
 3695POPC   C1B48067  20.765  34.030   6.464
 3695POPC   C2B48068  20.697  34.029   6.764
 3695POPC   C3B48069  20.682  33.997   7.064
 3695POPC   C4B48070  20.683  33.982   7.364
 3696POPC   NC348071  16.763   3.559   5.564
 3696POPC   PO448072  16.691   3.568   5.864
 3696POPC   GL148073  16.718   3.527   6.164
 3696POPC   GL248074  16.829   3.459   6.164
 3696POPC   C1A48075  16.723   3.545   6.464
 3696POPC   D2A48076  16.757   3.575   6.764
 3696POPC   C3A48077  16.768   3.530   7.064
 3696POPC   C4A48078  16.731   3.494   7.364
 3696POPC   C1B48079  16.831   3.351   6.464
 3696POPC   C2B48080  16.863   3.271   6.764
 3696POPC   C3B48081  16.884   3.271   7.064
 3696POPC   C4B48082  16.792   3.336   7.364
 3697POPC   NC348083  43.088  11.256   5.564
 3697POPC   PO448084  43.061  11.251   5.864
 3697POPC   GL148085  43.137  11.272   6.164
 3697POPC   GL248086  42.996  11.431   6.164
 3697POPC   C1A48087  43.150  11.340   6.464
 3697POPC   D2A48088  43.115  11.262   6.764
 3697POPC   C3A48089  43.154  11.253   7.064
 3697POPC   C4A48090  43.078  11.312   7.364
 3697POPC   C1B48091  42.902  11.452   6.464
 3697POPC   C2B48092  42.987  11.493   6.764
 3697POPC   C3B48093  42.948  11.457   7.064
 3697POPC   C4B48094  42.956  11.463   7.364
 3698POPC   NC348095   4.297  22.961   5.564
 3698POPC   PO448096   4.338  22.900   5.864
 3698POPC   GL148097   4.353  22.922   6.164
 3698POPC   GL248098   4.386  23.045   6.164
 3698POPC   C1A48099   4.304  22.949   6.464
 3698POPC   D2A48100   4.295  22.958   6.764
 3698POPC   C3A48101   4.348  22.946   7.064
 3698POPC   C4A48102   4.293  22.914   7.364
 3698POPC   C1B48103   4.510  23.085   6.464
 3698POPC   C2B48104   4.557  23.081   6.764
 3698POPC   C3B48105   4.532  23.098   7.064
 3698POPC   C4B48106   4.524  23.109   7.364
 3699POPC   NC348107  35.305  12.063   5.564
 3699POPC   PO448108  35.390  12.049   5.864
 3699POPC   GL148109  35.357  12.042   6.164
 3699POPC   GL248110  35.438  11.967   6.164
 3699POPC   C1A48111  35.389  12.059   6.464
 3699POPC   D2A48112  35.316  12.108   6.764
 3699POPC   C3A48113  35.352  12.079   7.064
 3699POPC   C4A48114  35.364  12.046   7.364
 3699POPC   C1B48115  35.515  11.940   6.464
 3699POPC   C2B48116  35.549  11.905   6.764
 3699POPC   C3B48117  35.529  11.919   7.064
 3699POPC   C4B48118  35.499  11.871   7.364
 3700POPC   NC348119  35.352  21.352   5.564
 3700POPC   PO448120  35.325  21.403   5.864
 3700POPC   GL148121  35.388  21.389   6.164
 3700POPC   GL248122  35.445  21.238   6.164
 3700POPC   C1A48123  35.389  21.414   6.464
 3700POPC   D2A48124  35.309  21.427   6.764
 3700POPC   C3A48125  35.332  21.362   7.064
 3700POPC   C4A48126  35.398  21.400   7.364
 3700POPC   C1B48127  35.460  21.201   6.464
 3700POPC   C2B48128  35.484  21.154   6.764
 3700POPC   C3B48129  35.449  21.131   7.064
 3700POPC   C4B48130  35.431  21.190   7.364
 3701POPC   NC348131  40.786   9.747   5.564
 3701POPC   PO448132  40.781   9.758   5.864
 3701POPC   GL148133  40.770   9.723   6.164
 3701POPC   GL248134  40.687   9.689   6.164
 3701POPC   C1A48135  40.813   9.742   6.464
 3701POPC   D2A48136  40.779   9.729   6.764
 3701POPC   C3A48137  40.800   9.709   7.064
 3701POPC   C4A48138  40.739   9.768   7.364
 3701POPC   C1B48139  40.660   9.576   6.464
 3701POPC   C2B48140  40.617   9.524   6.764
 3701POPC   C3B48141  40.671   9.518   7.064
 3701POPC   C4B48142  40.666   9.595   7.364
 3702POPC   NC348143  27.622  36.143   5.564
 3702POPC   PO448144  27.587  36.157   5.864
 3702POPC   GL148145  27.625  36.123   6.164
 3702POPC   GL248146  27.705  36.129   6.164
 3702POPC   C1A48147  27.635  36.095   6.464
 3702POPC   D2A48148  27.582  36.165   6.764
 3702POPC   C3A48149  27.590  36.170   7.064
 3702POPC   C4A48150  27.623  36.151   7.364
 3702POPC   C1B48151  27.831  36.170   6.464
 3702POPC   C2B48152  27.856  36.231   6.764
 3702POPC   C3B48153  27.786  36.262   7.064
 3702POPC   C4B48154  27.870  36.251   7.364
 3703POPC   NC348155   2.764  36.858   5.564
 3703POPC   PO448156   2.781  36.915   5.864
 3703POPC   GL148157   2.776  36.896   6.164
 3703POPC   GL248158   2.782  36.988   6.164
 3703POPC   C1A48159   2.758  36.944   6.464
 3703POPC   D2A48160   2.783  36.882   6.764
 3703POPC   C3A48161   2.764  36.917   7.064
 3703POPC   C4A48162   2.815  36.925   7.364
 3703POPC   C1B48163   2.802  37.194   6.464
 3703POPC   C2B48164   2.800  37.151   6.764
 3703POPC   C3B48165   2.752  37.135   7.064
 3703POPC   C4B48166   2.732  37.184   7.364
 3704POPC   NC348167  44.659  18.263   5.564
 3704POPC   PO448168  44.667  18.311   5.864
 3704POPC   GL148169  44.689  18.301   6.164
 3704POPC   GL248170  44.595  18.365   6.164
 3704POPC   C1A48171  44.638  18.295   6.464
 3704POPC   D2A48172  44.641  18.264   6.764
 3704POPC   C3A48173  44.697  18.322   7.064
 3704POPC   C4A48174  44.686  18.294   7.364
 3704POPC   C1B48175  44.581  18.539   6.464
 3704POPC   C2B48176  44.622  18.552   6.764
 3704POPC   C3B48177  44.609  18.483   7.064
 3704POPC   C4B48178  44.657  18.575   7.364
 3705POPC   NC348179  25.251  19.063   5.564
 3705POPC   PO448180  25.233  19.036   5.864
 3705POPC   GL148181  25.290  19.030   6.164
 3705POPC   GL248182  25.437  19.084   6.164
 3705POPC   C1A48183  25.308  19.068   6.464
 3705POPC   D2A48184  25.266  19.067   6.764
 3705POPC   C3A48185  25.223  19.035   7.064
 3705POPC   C4A48186  25.298  19.041   7.364
 3705POPC   C1B48187  25.528  19.068   6.464
 3705POPC   C2B48188  25.541  19.087   6.764
 3705POPC   C3B48189  25.529  19.083   7.064
 3705POPC   C4B48190  25.491  19.108   7.364
 3706POPC   NC348191   8.155  24.471   5.564
 3706POPC   PO448192   8.147  24.480   5.864
 3706POPC   GL148193   8.157  24.460   6.164
 3706POPC   GL248194   8.057  24.555   6.164
 3706POPC   C1A48195   8.218  24.467   6.464
 3706POPC   D2A48196   8.236  24.465   6.764
 3706POPC   C3A48197   8.245  24.525   7.064
 3706POPC   C4A48198   8.152  24.485   7.364
 3706POPC   C1B48199   8.025  24.653   6.464
 3706POPC   C2B48200   7.990  24.611   6.764
 3706POPC   C3B48201   7.989  24.661   7.064
 3706POPC   C4B48202   7.971  24.639   7.364
 3707POPC   NC348203   8.970  41.542   5.564
 3707POPC   PO448204   9.001  41.602   5.864
 3707POPC   GL148205   8.990  41.530   6.164
 3707POPC   GL248206   8.907  41.641   6.164
 3707POPC   C1A48207   8.965  41.591   6.464
 3707POPC   D2A48208   8.977  41.511   6.764
 3707POPC   C3A48209   8.935  41.522   7.064
 3707POPC   C4A48210   8.993  41.592   7.364
 3707POPC   C1B48211   8.784  41.686   6.464
 3707POPC   C2B48212   8.776  41.665   6.764
 3707POPC   C3B48213   8.775  41.683   7.064
 3707POPC   C4B48214   8.770  41.750   7.364
 3708POPC   NC348215  36.151   5.114   5.564
 3708POPC   PO448216  36.157   5.088   5.864
 3708POPC   GL148217  36.090   5.051   6.164
 3708POPC   GL248218  36.078   5.016   6.164
 3708POPC   C1A48219  36.126   5.114   6.464
 3708POPC   D2A48220  36.175   5.111   6.764
 3708POPC   C3A48221  36.087   5.115   7.064
 3708POPC   C4A48222  36.104   5.138   7.364
 3708POPC   C1B48223  36.015   4.906   6.464
 3708POPC   C2B48224  36.012   4.826   6.764
 3708POPC   C3B48225  35.981   4.900   7.064
 3708POPC   C4B48226  36.051   4.849   7.364
 3709POPC   NC348227  25.994  14.372   5.564
 3709POPC   PO448228  26.017  14.353   5.864
 3709POPC   GL148229  25.998  14.374   6.164
 3709POPC   GL248230  26.093  14.530   6.164
 3709POPC   C1A48231  26.086  14.417   6.464
 3709POPC   D2A48232  26.038  14.438   6.764
 3709POPC   C3A48233  26.056  14.355   7.064
 3709POPC   C4A48234  26.053  14.423   7.364
 3709POPC   C1B48235  26.119  14.632   6.464
 3709POPC   C2B48236  26.133  14.577   6.764
 3709POPC   C3B48237  26.134  14.576   7.064
 3709POPC   C4B48238  26.173  14.604   7.364
 3710POPC   NC348239  33.048  26.074   5.564
 3710POPC   PO448240  33.011  26.057   5.864
 3710POPC   GL148241  33.045  26.066   6.164
 3710POPC   GL248242  33.130  25.990   6.164
 3710POPC   C1A48243  33.067  26.029   6.464
 3710POPC   D2A48244  33.000  26.084   6.764
 3710POPC   C3A48245  32.998  26.069   7.064
 3710POPC   C4A48246  32.984  26.017   7.364
 3710POPC   C1B48247  33.216  25.827   6.464
 3710POPC   C2B48248  33.243  25.874   6.764
 3710POPC   C3B48249  33.205  25.910   7.064
 3710POPC   C4B48250  33.217  25.907   7.364
 3711POPC   NC348251  12.848  11.287   5.564
 3711POPC   PO448252  12.889  11.324   5.864
 3711POPC   GL148253  12.804  11.320   6.164
 3711POPC   GL248254  12.946  11.408   6.164
 3711POPC   C1A48255  12.874  11.323   6.464
 3711POPC   D2A48256  12.835  11.285   6.764
 3711POPC   C3A48257  12.857  11.311   7.064
 3711POPC   C4A48258  12.806  11.314   7.364
 3711POPC   C1B48259  13.010  11.486   6.464
 3711POPC   C2B48260  13.102  11.489   6.764
 3711POPC   C3B48261  13.011  11.447   7.064
 3711POPC   C4B48262  13.077  11.403   7.364
 3712POPC   NC348263  24.451  40.043   5.564
 3712POPC   PO448264  24.470  40.027   5.864
 3712POPC   GL148265  24.443  39.991   6.164
 3712POPC   GL248266  24.527  40.117   6.164
 3712POPC   C1A48267  24.486  39.970   6.464
 3712POPC   D2A48268  24.476  40.016   6.764
 3712POPC   C3A48269  24.481  39.968   7.064
 3712POPC   C4A48270  24.449  40.015   7.364
 3712POPC   C1B48271  24.550  40.231   6.464
 3712POPC   C2B48272  24.507  40.263   6.764
 3712POPC   C3B48273  24.553  40.235   7.064
 3712POPC   C4B48274  24.549  40.300   7.364
 3713POPC   NC348275  18.303  37.681   5.564
 3713POPC   PO448276  18.308  37.639   5.864
 3713POPC   GL148277  18.270  37.721   6.164
 3713POPC   GL248278  18.317  37.505   6.164
 3713POPC   C1A48279  18.271  37.649   6.464
 3713POPC   D2A48280  18.318  37.649   6.764
 3713POPC   C3A48281  18.279  37.640   7.064
 3713POPC   C4A48282  18.320  37.707   7.364
 3713POPC   C1B48283  18.333  37.383   6.464
 3713POPC   C2B48284  18.239  37.393   6.764
 3713POPC   C3B48285  18.314  37.432   7.064
 3713POPC   C4B48286  18.262  37.436   7.364
 3714POPC   NC348287   5.100  31.443   5.564
 3714POPC   PO448288   5.105  31.445   5.864
 3714POPC   GL148289   5.105  31.522   6.164
 3714POPC   GL248290   5.135  31.376   6.164
 3714POPC   C1A48291   5.064  31.447   6.464
 3714POPC   D2A48292   5.087  31.464   6.764
 3714POPC   C3A48293   5.126  31.519   7.064
 3714POPC   C4A48294   5.091  31.519   7.364
 3714POPC   C1B48295   5.227  31.287   6.464
 3714POPC   C2B48296   5.268  31.278   6.764
 3714POPC   C3B48297   5.312  31.341   7.064
 3714POPC   C4B48298   5.252  31.250   7.364
 3715POPC   NC348299  39.234  18.271   5.564
 3715POPC   PO448300  39.274  18.318   5.864
 3715POPC   GL148301  39.228  18.246   6.164
 3715POPC   GL248302  39.144  18.265   6.164
 3715POPC   C1A48303  39.197  18.289   6.464
 3715POPC   D2A48304  39.201  18.266   6.764
 3715POPC   C3A48305  39.222  18.277   7.064
 3715POPC   C4A48306  39.256  18.257   7.364
 3715POPC   C1B48307  39.026  18.310   6.464
 3715POPC   C2B48308  38.942  18.266   6.764
 3715POPC   C3B48309  38.979  18.254   7.064
 3715POPC   C4B48310  39.014  18.268   7.364
 3716POPC   NC348311  21.391  17.521   5.564
 3716POPC   PO448312  21.399  17.504   5.864
 3716POPC   GL148313  21.415  17.472   6.164
 3716POPC   GL248314  21.347  17.418   6.164
 3716POPC   C1A48315  21.388  17.460   6.464
 3716POPC   D2A48316  21.362  17.523   6.764
 3716POPC   C3A48317  21.408  17.553   7.064
 3716POPC   C4A48318  21.401  17.528   7.364
 3716POPC   C1B48319  21.231  17.328   6.464
 3716POPC   C2B48320  21.238  17.304   6.764
 3716POPC   C3B48321  21.219  17.296   7.064
 3716POPC   C4B48322  21.232  17.297   7.364
 3717POPC   NC348323  21.349  29.108   5.564
 3717POPC   PO448324  21.376  29.174   5.864
 3717POPC   GL148325  21.426  29.103   6.164
 3717POPC   GL248326  21.524  29.188   6.164
 3717POPC   C1A48327  21.370  29.122   6.464
 3717POPC   D2A48328  21.407  29.118   6.764
 3717POPC   C3A48329  21.381  29.165   7.064
 3717POPC   C4A48330  21.423  29.108   7.364
 3717POPC   C1B48331  21.606  29.259   6.464
 3717POPC   C2B48332  21.629  29.288   6.764
 3717POPC   C3B48333  21.622  29.218   7.064
 3717POPC   C4B48334  21.582  29.267   7.364
 3718POPC   NC348335  43.105   3.569   5.564
 3718POPC   PO448336  43.077   3.577   5.864
 3718POPC   GL148337  43.158   3.527   6.164
 3718POPC   GL248338  43.217   3.606   6.164
 3718POPC   C1A48339  43.131   3.494   6.464
 3718POPC   D2A48340  43.152   3.579   6.764
 3718POPC   C3A48341  43.159   3.513   7.064
 3718POPC   C4A48342  43.096   3.522   7.364
 3718POPC   C1B48343  43.309   3.677   6.464
 3718POPC   C2B48344  43.283   3.759   6.764
 3718POPC   C3B48345  43.290   3.719   7.064
 3718POPC   C4B48346  43.310   3.767   7.364
 3719POPC   NC348347   5.143  15.182   5.564
 3719POPC   PO448348   5.123  15.149   5.864
 3719POPC   GL148349   5.095  15.201   6.164
 3719POPC   GL248350   5.034  15.286   6.164
 3719POPC   C1A48351   5.049  15.207   6.464
 3719POPC   D2A48352   5.052  15.174   6.764
 3719POPC   C3A48353   5.105  15.195   7.064
 3719POPC   C4A48354   5.052  15.189   7.364
 3719POPC   C1B48355   5.017  15.371   6.464
 3719POPC   C2B48356   5.007  15.454   6.764
 3719POPC   C3B48357   4.968  15.403   7.064
 3719POPC   C4B48358   5.042  15.368   7.364
 3720POPC   NC348359  41.596  14.450   5.564
 3720POPC   PO448360  41.561  14.392   5.864
 3720POPC   GL148361  41.530  14.355   6.164
 3720POPC   GL248362  41.485  14.524   6.164
 3720POPC   C1A48363  41.521  14.430   6.464
 3720POPC   D2A48364  41.548  14.388   6.764
 3720POPC   C3A48365  41.527  14.441   7.064
 3720POPC   C4A48366  41.542  14.390   7.364
 3720POPC   C1B48367  41.480  14.617   6.464
 3720POPC   C2B48368  41.400  14.608   6.764
 3720POPC   C3B48369  41.449  14.666   7.064
 3720POPC   C4B48370  41.470  14.619   7.364
 3721POPC   NC348371   7.392  23.703   5.564
 3721POPC   PO448372   7.433  23.760   5.864
 3721POPC   GL148373   7.427  23.665   6.164
 3721POPC   GL248374   7.357  23.797   6.164
 3721POPC   C1A48375   7.444  23.711   6.464
 3721POPC   D2A48376   7.397  23.715   6.764
 3721POPC   C3A48377   7.389  23.709   7.064
 3721POPC   C4A48378   7.401  23.709   7.364
 3721POPC   C1B48379   7.329  23.936   6.464
 3721POPC   C2B48380   7.341  23.914   6.764
 3721POPC   C3B48381   7.287  23.917   7.064
 3721POPC   C4B48382   7.335  23.975   7.364
 3722POPC   NC348383  31.438  24.494   5.564
 3722POPC   PO448384  31.465  24.526   5.864
 3722POPC   GL148385  31.498  24.495   6.164
 3722POPC   GL248386  31.558  24.473   6.164
 3722POPC   C1A48387  31.455  24.465   6.464
 3722POPC   D2A48388  31.447  24.482   6.764
 3722POPC   C3A48389  31.496  24.459   7.064
 3722POPC   C4A48390  31.455  24.472   7.364
 3722POPC   C1B48391  31.739  24.360   6.464
 3722POPC   C2B48392  31.672  24.369   6.764
 3722POPC   C3B48393  31.672  24.430   7.064
 3722POPC   C4B48394  31.756  24.389   7.364
 3723POPC   NC348395  22.960  29.157   5.564
 3723POPC   PO448396  22.890  29.162   5.864
 3723POPC   GL148397  22.933  29.107   6.164
 3723POPC   GL248398  23.026  29.094   6.164
 3723POPC   C1A48399  22.896  29.119   6.464
 3723POPC   D2A48400  22.932  29.144   6.764
 3723POPC   C3A48401  22.958  29.105   7.064
 3723POPC   C4A48402  22.943  29.167   7.364
 3723POPC   C1B48403  23.083  28.960   6.464
 3723POPC   C2B48404  23.095  28.907   6.764
 3723POPC   C3B48405  23.054  28.993   7.064
 3723POPC   C4B48406  23.135  28.951   7.364
 3724POPC   NC348407  27.556  17.542   5.564
 3724POPC   PO448408  27.566  17.520   5.864
 3724POPC   GL148409  27.635  17.501   6.164
 3724POPC   GL248410  27.659  17.381   6.164
 3724POPC   C1A48411  27.635  17.504   6.464
 3724POPC   D2A48412  27.569  17.509   6.764
 3724POPC   C3A48413  27.637  17.475   7.064
 3724POPC   C4A48414  27.639  17.504   7.364
 3724POPC   C1B48415  27.740  17.370   6.464
 3724POPC   C2B48416  27.798  17.296   6.764
 3724POPC   C3B48417  27.736  17.379   7.064
 3724POPC   C4B48418  27.817  17.392   7.364
 3725POPC   NC348419   9.756  32.240   5.564
 3725POPC   PO448420   9.774  32.226   5.864
 3725POPC   GL148421   9.753  32.223   6.164
 3725POPC   GL248422   9.777  32.087   6.164
 3725POPC   C1A48423   9.756  32.284   6.464
 3725POPC   D2A48424   9.729  32.225   6.764
 3725POPC   C3A48425   9.748  32.215   7.064
 3725POPC   C4A48426   9.700  32.272   7.364
 3725POPC   C1B48427   9.778  32.010   6.464
 3725POPC   C2B48428   9.765  32.043   6.764
 3725POPC   C3B48429   9.734  32.044   7.064
 3725POPC   C4B48430   9.730  32.038   7.364
 3726POPC   NC348431  37.636  20.633   5.564
 3726POPC   PO448432  37.639  20.653   5.864
 3726POPC   GL148433  37.713  20.630   6.164
 3726POPC   GL248434  37.753  20.679   6.164
 3726POPC   C1A48435  37.713  20.631   6.464
 3726POPC   D2A48436  37.673  20.651   6.764
 3726POPC   C3A48437  37.674  20.624   7.064
 3726POPC   C4A48438  37.723  20.646   7.364
 3726POPC   C1B48439  37.819  20.767   6.464
 3726POPC   C2B48440  37.900  20.747   6.764
 3726POPC   C3B48441  37.891  20.776   7.064
 3726POPC   C4B48442  37.901  20.745   7.364
 3727POPC   NC348443   8.246  28.418   5.564
 3727POPC   PO448444   8.230  28.359   5.864
 3727POPC   GL148445   8.222  28.418   6.164
 3727POPC   GL248446   8.143  28.252   6.164
 3727POPC   C1A48447   8.244  28.392   6.464
 3727POPC   D2A48448   8.222  28.323   6.764
 3727POPC   C3A48449   8.226  28.326   7.064
 3727POPC   C4A48450   8.238  28.363   7.364
 3727POPC   C1B48451   8.094  28.183   6.464
 3727POPC   C2B48452   8.052  28.184   6.764
 3727POPC   C3B48453   8.103  28.192   7.064
 3727POPC   C4B48454   8.074  28.143   7.364
 3728POPC   NC348455  36.149  10.550   5.564
 3728POPC   PO448456  36.117  10.492   5.864
 3728POPC   GL148457  36.138  10.527   6.164
 3728POPC   GL248458  35.982  10.480   6.164
 3728POPC   C1A48459  36.078  10.501   6.464
 3728POPC   D2A48460  36.135  10.573   6.764
 3728POPC   C3A48461  36.089  10.521   7.064
 3728POPC   C4A48462  36.122  10.561   7.364
 3728POPC   C1B48463  35.875  10.514   6.464
 3728POPC   C2B48464  35.899  10.541   6.764
 3728POPC   C3B48465  35.830  10.478   7.064
 3728POPC   C4B48466  35.916  10.563   7.364
 3729POPC   NC348467  28.375  34.566   5.564
 3729POPC   PO448468  28.418  34.551   5.864
 3729POPC   GL148469  28.351  34.603   6.164
 3729POPC   GL248470  28.308  34.473   6.164
 3729POPC   C1A48471  28.380  34.622   6.464
 3729POPC   D2A48472  28.334  34.591   6.764
 3729POPC   C3A48473  28.384  34.571   7.064
 3729POPC   C4A48474  28.383  34.611   7.364
 3729POPC   C1B48475  28.203  34.372   6.464
 3729POPC   C2B48476  28.265  34.361   6.764
 3729POPC   C3B48477  28.238  34.359   7.064
 3729POPC   C4B48478  28.211  34.318   7.364
 3730POPC   NC348479  21.369  11.333   5.564
 3730POPC   PO448480  21.426  11.295   5.864
 3730POPC   GL148481  21.371  11.266   6.164
 3730POPC   GL248482  21.284  11.197   6.164
 3730POPC   C1A48483  21.407  11.315   6.464
 3730POPC   D2A48484  21.387  11.277   6.764
 3730POPC   C3A48485  21.343  11.318   7.064
 3730POPC   C4A48486  21.354  11.297   7.364
 3730POPC   C1B48487  21.215  11.125   6.464
 3730POPC   C2B48488  21.233  11.158   6.764
 3730POPC   C3B48489  21.261  11.123   7.064
 3730POPC   C4B48490  21.235  11.103   7.364
 3731POPC   NC348491  23.725  42.298   5.564
 3731POPC   PO448492  23.680  42.286   5.864
 3731POPC   GL148493  23.665  42.316   6.164
 3731POPC   GL248494  23.847  42.279   6.164
 3731POPC   C1A48495  23.734  42.325   6.464
 3731POPC   D2A48496  23.665  42.325   6.764
 3731POPC   C3A48497  23.683  42.373   7.064
 3731POPC   C4A48498  23.721  42.358   7.364
 3731POPC   C1B48499  23.900  42.137   6.464
 3731POPC   C2B48500  23.877  42.136   6.764
 3731POPC   C3B48501  23.915  42.218   7.064
 3731POPC   C4B48502  23.941  42.209   7.364
 3732POPC   NC348503  12.881  34.541   5.564
 3732POPC   PO448504  12.856  34.586   5.864
 3732POPC   GL148505  12.885  34.557   6.164
 3732POPC   GL248506  12.867  34.659   6.164
 3732POPC   C1A48507  12.881  34.619   6.464
 3732POPC   D2A48508  12.882  34.604   6.764
 3732POPC   C3A48509  12.803  34.584   7.064
 3732POPC   C4A48510  12.889  34.583   7.364
 3732POPC   C1B48511  12.943  34.790   6.464
 3732POPC   C2B48512  12.898  34.809   6.764
 3732POPC   C3B48513  12.986  34.817   7.064
 3732POPC   C4B48514  12.990  34.812   7.364
 3733POPC   NC348515   9.755  28.324   5.564
 3733POPC   PO448516   9.794  28.373   5.864
 3733POPC   GL148517   9.726  28.380   6.164
 3733POPC   GL248518   9.641  28.366   6.164
 3733POPC   C1A48519   9.742  28.338   6.464
 3733POPC   D2A48520   9.794  28.400   6.764
 3733POPC   C3A48521   9.727  28.375   7.064
 3733POPC   C4A48522   9.793  28.363   7.364
 3733POPC   C1B48523   9.489  28.365   6.464
 3733POPC   C2B48524   9.495  28.314   6.764
 3733POPC   C3B48525   9.455  28.283   7.064
 3733POPC   C4B48526   9.473  28.297   7.364
 3734POPC   NC348527  24.499  29.953   5.564
 3734POPC   PO448528  24.497  29.936   5.864
 3734POPC   GL148529  24.448  29.961   6.164
 3734POPC   GL248530  24.595  29.880   6.164
 3734POPC   C1A48531  24.475  29.882   6.464
 3734POPC   D2A48532  24.467  29.955   6.764
 3734POPC   C3A48533  24.503  29.970   7.064
 3734POPC   C4A48534  24.508  29.960   7.364
 3734POPC   C1B48535  24.664  29.823   6.464
 3734POPC   C2B48536  24.673  29.782   6.764
 3734POPC   C3B48537  24.718  29.778   7.064
 3734POPC   C4B48538  24.651  29.806   7.364
 3735POPC   NC348539  20.627  15.160   5.564
 3735POPC   PO448540  20.651  15.199   5.864
 3735POPC   GL148541  20.590  15.130   6.164
 3735POPC   GL248542  20.691  15.060   6.164
 3735POPC   C1A48543  20.580  15.225   6.464
 3735POPC   D2A48544  20.649  15.147   6.764
 3735POPC   C3A48545  20.609  15.165   7.064
 3735POPC   C4A48546  20.568  15.157   7.364
 3735POPC   C1B48547  20.844  14.973   6.464
 3735POPC   C2B48548  20.774  15.017   6.764
 3735POPC   C3B48549  20.828  15.041   7.064
 3735POPC   C4B48550  20.854  15.010   7.364
 3736POPC   NC348551  25.244  22.128   5.564
 3736POPC   PO448552  25.291  22.160   5.864
 3736POPC   GL148553  25.284  22.113   6.164
 3736POPC   GL248554  25.178  22.112   6.164
 3736POPC   C1A48555  25.254  22.169   6.464
 3736POPC   D2A48556  25.237  22.127   6.764
 3736POPC   C3A48557  25.302  22.154   7.064
 3736POPC   C4A48558  25.293  22.196   7.364
 3736POPC   C1B48559  25.015  22.091   6.464
 3736POPC   C2B48560  25.023  22.154   6.764
 3736POPC   C3B48561  25.061  22.093   7.064
 3736POPC   C4B48562  24.974  22.125   7.364
 3737POPC   NC348563  24.475  37.702   5.564
 3737POPC   PO448564  24.462  37.695   5.864
 3737POPC   GL148565  24.509  37.655   6.164
 3737POPC   GL248566  24.587  37.532   6.164
 3737POPC   C1A48567  24.470  37.720   6.464
 3737POPC   D2A48568  24.499  37.654   6.764
 3737POPC   C3A48569  24.487  37.647   7.064
 3737POPC   C4A48570  24.496  37.648   7.364
 3737POPC   C1B48571  24.624  37.431   6.464
 3737POPC   C2B48572  24.548  37.442   6.764
 3737POPC   C3B48573  24.645  37.490   7.064
 3737POPC   C4B48574  24.591  37.447   7.364
 3738POPC   NC348575  41.548  15.216   5.564
 3738POPC   PO448576  41.599  15.172   5.864
 3738POPC   GL148577  41.558  15.197   6.164
 3738POPC   GL248578  41.640  15.188   6.164
 3738POPC   C1A48579  41.530  15.167   6.464
 3738POPC   D2A48580  41.605  15.139   6.764
 3738POPC   C3A48581  41.509  15.229   7.064
 3738POPC   C4A48582  41.595  15.219   7.364
 3738POPC   C1B48583  41.798  15.180   6.464
 3738POPC   C2B48584  41.795  15.196   6.764
 3738POPC   C3B48585  41.773  15.173   7.064
 3738POPC   C4B48586  41.834  15.151   7.364
 3739POPC   NC348587  41.596  12.115   5.564
 3739POPC   PO448588  41.601  12.061   5.864
 3739POPC   GL148589  41.533  12.091   6.164
 3739POPC   GL248590  41.417  11.986   6.164
 3739POPC   C1A48591  41.601  12.054   6.464
 3739POPC   D2A48592  41.575  12.033   6.764
 3739POPC   C3A48593  41.514  12.072   7.064
 3739POPC   C4A48594  41.584  12.106   7.364
 3739POPC   C1B48595  41.331  11.973   6.464
 3739POPC   C2B48596  41.364  12.009   6.764
 3739POPC   C3B48597  41.359  11.990   7.064
 3739POPC   C4B48598  41.293  11.998   7.364
 3740POPC   NC348599  14.418  34.573   5.564
 3740POPC   PO448600  14.374  34.582   5.864
 3740POPC   GL148601  14.413  34.555   6.164
 3740POPC   GL248602  14.407  34.668   6.164
 3740POPC   C1A48603  14.410  34.545   6.464
 3740POPC   D2A48604  14.392  34.564   6.764
 3740POPC   C3A48605  14.449  34.604   7.064
 3740POPC   C4A48606  14.406  34.590   7.364
 3740POPC   C1B48607  14.292  34.789   6.464
 3740POPC   C2B48608  14.321  34.815   6.764
 3740POPC   C3B48609  14.375  34.856   7.064
 3740POPC   C4B48610  14.292  34.837   7.364
 3741POPC   NC348611  12.056  28.377   5.564
 3741POPC   PO448612  12.043  28.370   5.864
 3741POPC   GL148613  12.068  28.336   6.164
 3741POPC   GL248614  12.068  28.456   6.164
 3741POPC   C1A48615  12.099  28.374   6.464
 3741POPC   D2A48616  12.072  28.399   6.764
 3741POPC   C3A48617  12.071  28.360   7.064
 3741POPC   C4A48618  12.033  28.339   7.364
 3741POPC   C1B48619  11.975  28.566   6.464
 3741POPC   C2B48620  12.014  28.614   6.764
 3741POPC   C3B48621  11.944  28.587   7.064
 3741POPC   C4B48622  11.992  28.577   7.364
 3742POPC   NC348623   9.709  31.425   5.564
 3742POPC   PO448624   9.734  31.474   5.864
 3742POPC   GL148625   9.755  31.505   6.164
 3742POPC   GL248626   9.704  31.538   6.164
 3742POPC   C1A48627   9.783  31.449   6.464
 3742POPC   D2A48628   9.741  31.469   6.764
 3742POPC   C3A48629   9.726  31.459   7.064
 3742POPC   C4A48630   9.722  31.424   7.364
 3742POPC   C1B48631   9.648  31.698   6.464
 3742POPC   C2B48632   9.563  31.693   6.764
 3742POPC   C3B48633   9.644  31.645   7.064
 3742POPC   C4B48634   9.621  31.630   7.364
 3743POPC   NC348635  32.990  13.622   5.564
 3743POPC   PO448636  32.977  13.598   5.864
 3743POPC   GL148637  33.061  13.633   6.164
 3743POPC   GL248638  33.196  13.701   6.164
 3743POPC   C1A48639  32.990  13.656   6.464
 3743POPC   D2A48640  33.074  13.658   6.764
 3743POPC   C3A48641  32.998  13.617   7.064
 3743POPC   C4A48642  33.060  13.647   7.364
 3743POPC   C1B48643  33.243  13.643   6.464
 3743POPC   C2B48644  33.319  13.724   6.764
 3743POPC   C3B48645  33.236  13.659   7.064
 3743POPC   C4B48646  33.257  13.633   7.364
 3744POPC   NC348647   6.623  19.044   5.564
 3744POPC   PO448648   6.610  19.089   5.864
 3744POPC   GL148649   6.660  19.068   6.164
 3744POPC   GL248650   6.739  19.056   6.164
 3744POPC   C1A48651   6.636  19.053   6.464
 3744POPC   D2A48652   6.618  19.087   6.764
 3744POPC   C3A48653   6.613  19.104   7.064
 3744POPC   C4A48654   6.689  19.037   7.364
 3744POPC   C1B48655   6.852  18.986   6.464
 3744POPC   C2B48656   6.894  18.996   6.764
 3744POPC   C3B48657   6.914  18.987   7.064
 3744POPC   C4B48658   6.852  18.987   7.364
 3745POPC   NC348659  29.885  35.350   5.564
 3745POPC   PO448660  29.931  35.302   5.864
 3745POPC   GL148661  29.881  35.368   6.164
 3745POPC   GL248662  30.000  35.270   6.164
 3745POPC   C1A48663  29.956  35.399   6.464
 3745POPC   D2A48664  29.945  35.355   6.764
 3745POPC   C3A48665  29.956  35.330   7.064
 3745POPC   C4A48666  29.945  35.385   7.364
 3745POPC   C1B48667  30.075  35.092   6.464
 3745POPC   C2B48668  30.063  35.151   6.764
 3745POPC   C3B48669  30.002  35.183   7.064
 3745POPC   C4B48670  30.057  35.139   7.364
 3746POPC   NC348671   0.393  18.327   5.564
 3746POPC   PO448672   0.421  18.246   5.864
 3746POPC   GL148673   0.428  18.246   6.164
 3746POPC   GL248674   0.358  18.360   6.164
 3746POPC   C1A48675   0.403  18.247   6.464
 3746POPC   D2A48676   0.440  18.295   6.764
 3746POPC   C3A48677   0.485  18.320   7.064
 3746POPC   C4A48678   0.434  18.239   7.364
 3746POPC   C1B48679   0.217  18.410   6.464
 3746POPC   C2B48680   0.289  18.467   6.764
 3746POPC   C3B48681   0.298  18.443   7.064
 3746POPC   C4B48682   0.238  18.485   7.364
 3747POPC   NC348683  32.999   5.046   5.564
 3747POPC   PO448684  33.006   5.118   5.864
 3747POPC   GL148685  32.993   5.142   6.164
 3747POPC   GL248686  32.978   4.991   6.164
 3747POPC   C1A48687  33.042   5.102   6.464
 3747POPC   D2A48688  33.013   5.058   6.764
 3747POPC   C3A48689  32.982   5.054   7.064
 3747POPC   C4A48690  33.005   5.069   7.364
 3747POPC   C1B48691  32.862   4.902   6.464
 3747POPC   C2B48692  32.893   4.940   6.764
 3747POPC   C3B48693  32.886   4.940   7.064
 3747POPC   C4B48694  32.886   4.918   7.364
 3748POPC   NC348695  12.033  41.520   5.564
 3748POPC   PO448696  12.073  41.536   5.864
 3748POPC   GL148697  12.104  41.599   6.164
 3748POPC   GL248698  12.166  41.477   6.164
 3748POPC   C1A48699  12.054  41.555   6.464
 3748POPC   D2A48700  12.118  41.523   6.764
 3748POPC   C3A48701  12.083  41.551   7.064
 3748POPC   C4A48702  12.082  41.555   7.364
 3748POPC   C1B48703  12.240  41.397   6.464
 3748POPC   C2B48704  12.243  41.394   6.764
 3748POPC   C3B48705  12.251  41.322   7.064
 3748POPC   C4B48706  12.225  41.386   7.364
 3749POPC   NC348707  28.360  25.310   5.564
 3749POPC   PO448708  28.346  25.289   5.864
 3749POPC   GL148709  28.325  25.219   6.164
 3749POPC   GL248710  28.270  25.163   6.164
 3749POPC   C1A48711  28.357  25.221   6.464
 3749POPC   D2A48712  28.416  25.246   6.764
 3749POPC   C3A48713  28.394  25.306   7.064
 3749POPC   C4A48714  28.386  25.314   7.364
 3749POPC   C1B48715  28.174  25.162   6.464
 3749POPC   C2B48716  28.192  25.098   6.764
 3749POPC   C3B48717  28.214  25.152   7.064
 3749POPC   C4B48718  28.188  25.111   7.364
 3750POPC   NC348719  18.303  19.808   5.564
 3750POPC   PO448720  18.244  19.859   5.864
 3750POPC   GL148721  18.312  19.804   6.164
 3750POPC   GL248722  18.403  19.822   6.164
 3750POPC   C1A48723  18.249  19.834   6.464
 3750POPC   D2A48724  18.236  19.827   6.764
 3750POPC   C3A48725  18.310  19.836   7.064
 3750POPC   C4A48726  18.306  19.878   7.364
 3750POPC   C1B48727  18.470  19.735   6.464
 3750POPC   C2B48728  18.523  19.685   6.764
 3750POPC   C3B48729  18.487  19.779   7.064
 3750POPC   C4B48730  18.502  19.763   7.364
 3751POPC   NC348731  12.104  29.883   5.564
 3751POPC   PO448732  12.049  29.888   5.864
 3751POPC   GL148733  12.088  29.966   6.164
 3751POPC   GL248734  12.156  29.968   6.164
 3751POPC   C1A48735  12.119  29.879   6.464
 3751POPC   D2A48736  12.045  29.946   6.764
 3751POPC   C3A48737  12.088  29.896   7.064
 3751POPC   C4A48738  12.099  29.942   7.364
 3751POPC   C1B48739  12.233  30.131   6.464
 3751POPC   C2B48740  12.267  30.120   6.764
 3751POPC   C3B48741  12.260  30.082   7.064
 3751POPC   C4B48742  12.240  30.108   7.364
 3752POPC   NC348743  15.991  29.932   5.564
 3752POPC   PO448744  15.960  29.880   5.864
 3752POPC   GL148745  16.003  29.895   6.164
 3752POPC   GL248746  15.860  29.999   6.164
 3752POPC   C1A48747  16.003  29.963   6.464
 3752POPC   D2A48748  15.993  29.962   6.764
 3752POPC   C3A48749  15.963  29.900   7.064
 3752POPC   C4A48750  15.952  29.879   7.364
 3752POPC   C1B48751  15.819  30.081   6.464
 3752POPC   C2B48752  15.776  30.085   6.764
 3752POPC   C3B48753  15.774  30.130   7.064
 3752POPC   C4B48754  15.785  30.099   7.364
 3753POPC   NC348755  14.399   1.952   5.564
 3753POPC   PO448756  14.377   1.996   5.864
 3753POPC   GL148757  14.407   1.985   6.164
 3753POPC   GL248758  14.574   2.062   6.164
 3753POPC   C1A48759  14.375   2.021   6.464
 3753POPC   D2A48760  14.375   2.006   6.764
 3753POPC   C3A48761  14.399   1.950   7.064
 3753POPC   C4A48762  14.354   1.965   7.364
 3753POPC   C1B48763  14.616   2.067   6.464
 3753POPC   C2B48764  14.616   2.037   6.764
 3753POPC   C3B48765  14.686   2.089   7.064
 3753POPC   C4B48766  14.686   2.007   7.364
 3754POPC   NC348767   5.889  25.259   5.564
 3754POPC   PO448768   5.885  25.301   5.864
 3754POPC   GL148769   5.892  25.240   6.164
 3754POPC   GL248770   5.951  25.254   6.164
 3754POPC   C1A48771   5.895  25.312   6.464
 3754POPC   D2A48772   5.910  25.216   6.764
 3754POPC   C3A48773   5.900  25.266   7.064
 3754POPC   C4A48774   5.836  25.225   7.364
 3754POPC   C1B48775   6.108  25.208   6.464
 3754POPC   C2B48776   6.097  25.262   6.764
 3754POPC   C3B48777   6.146  25.276   7.064
 3754POPC   C4B48778   6.135  25.255   7.364
 3755POPC   NC348779  20.614   3.591   5.564
 3755POPC   PO448780  20.573   3.534   5.864
 3755POPC   GL148781  20.620   3.499   6.164
 3755POPC   GL248782  20.619   3.616   6.164
 3755POPC   C1A48783  20.575   3.568   6.464
 3755POPC   D2A48784  20.631   3.564   6.764
 3755POPC   C3A48785  20.574   3.547   7.064
 3755POPC   C4A48786  20.579   3.562   7.364
 3755POPC   C1B48787  20.680   3.814   6.464
 3755POPC   C2B48788  20.679   3.770   6.764
 3755POPC   C3B48789  20.621   3.822   7.064
 3755POPC   C4B48790  20.613   3.773   7.364
 3756POPC   NC348791  39.986  37.692   5.564
 3756POPC   PO448792  40.024  37.660   5.864
 3756POPC   GL148793  39.978  37.713   6.164
 3756POPC   GL248794  40.133  37.594   6.164
 3756POPC   C1A48795  40.001  37.685   6.464
 3756POPC   D2A48796  39.965  37.650   6.764
 3756POPC   C3A48797  40.017  37.687   7.064
 3756POPC   C4A48798  39.986  37.636   7.364
 3756POPC   C1B48799  40.240  37.629   6.464
 3756POPC   C2B48800  40.261  37.583   6.764
 3756POPC   C3B48801  40.229  37.587   7.064
 3756POPC   C4B48802  40.261  37.603   7.364
 3757POPC   NC348803  29.177  17.464   5.564
 3757POPC   PO448804  29.186  17.465   5.864
 3757POPC   GL148805  29.096  17.463   6.164
 3757POPC   GL248806  29.119  17.383   6.164
 3757POPC   C1A48807  29.099  17.504   6.464
 3757POPC   D2A48808  29.182  17.527   6.764
 3757POPC   C3A48809  29.174  17.550   7.064
 3757POPC   C4A48810  29.182  17.503   7.364
 3757POPC   C1B48811  29.028  17.257   6.464
 3757POPC   C2B48812  29.024  17.264   6.764
 3757POPC   C3B48813  29.055  17.243   7.064
 3757POPC   C4B48814  29.020  17.294   7.364
 3758POPC   NC348815  24.442   0.465   5.564
 3758POPC   PO448816  24.488   0.448   5.864
 3758POPC   GL148817  24.534   0.484   6.164
 3758POPC   GL248818  24.468   0.303   6.164
 3758POPC   C1A48819  24.528   0.395   6.464
 3758POPC   D2A48820  24.460   0.434   6.764
 3758POPC   C3A48821  24.462   0.480   7.064
 3758POPC   C4A48822  24.529   0.411   7.364
 3758POPC   C1B48823  24.509   0.145   6.464
 3758POPC   C2B48824  24.505   0.161   6.764
 3758POPC   C3B48825  24.513   0.181   7.064
 3758POPC   C4B48826  24.497   0.182   7.364
 3759POPC   NC348827  14.404  26.779   5.564
 3759POPC   PO448828  14.405  26.769   5.864
 3759POPC   GL148829  14.420  26.846   6.164
 3759POPC   GL248830  14.298  26.744   6.164
 3759POPC   C1A48831  14.451  26.782   6.464
 3759POPC   D2A48832  14.368  26.824   6.764
 3759POPC   C3A48833  14.354  26.844   7.064
 3759POPC   C4A48834  14.412  26.838   7.364
 3759POPC   C1B48835  14.160  26.736   6.464
 3759POPC   C2B48836  14.168  26.770   6.764
 3759POPC   C3B48837  14.198  26.711   7.064
 3759POPC   C4B48838  14.131  26.709   7.364
 3760POPC   NC348839  22.942  16.743   5.564
 3760POPC   PO448840  22.970  16.695   5.864
 3760POPC   GL148841  22.943  16.700   6.164
 3760POPC   GL248842  22.857  16.873   6.164
 3760POPC   C1A48843  22.897  16.774   6.464
 3760POPC   D2A48844  22.912  16.700   6.764
 3760POPC   C3A48845  22.924  16.683   7.064
 3760POPC   C4A48846  22.969  16.732   7.364
 3760POPC   C1B48847  22.818  16.905   6.464
 3760POPC   C2B48848  22.744  16.931   6.764
 3760POPC   C3B48849  22.821  16.881   7.064
 3760POPC   C4B48850  22.773  16.932   7.364
 3761POPC   NC348851  20.630  26.020   5.564
 3761POPC   PO448852  20.613  26.042   5.864
 3761POPC   GL148853  20.579  26.005   6.164
 3761POPC   GL248854  20.606  26.121   6.164
 3761POPC   C1A48855  20.608  26.076   6.464
 3761POPC   D2A48856  20.578  26.060   6.764
 3761POPC   C3A48857  20.647  26.026   7.064
 3761POPC   C4A48858  20.651  26.051   7.364
 3761POPC   C1B48859  20.559  26.328   6.464
 3761POPC   C2B48860  20.581  26.264   6.764
 3761POPC   C3B48861  20.590  26.263   7.064
 3761POPC   C4B48862  20.559  26.243   7.364
 3762POPC   NC348863  23.678  18.239   5.564
 3762POPC   PO448864  23.716  18.248   5.864
 3762POPC   GL148865  23.700  18.258   6.164
 3762POPC   GL248866  23.606  18.189   6.164
 3762POPC   C1A48867  23.759  18.288   6.464
 3762POPC   D2A48868  23.712  18.245   6.764
 3762POPC   C3A48869  23.718  18.298   7.064
 3762POPC   C4A48870  23.760  18.323   7.364
 3762POPC   C1B48871  23.542  18.152   6.464
 3762POPC   C2B48872  23.511  18.153   6.764
 3762POPC   C3B48873  23.500  18.084   7.064
 3762POPC   C4B48874  23.501  18.139   7.364
 3763POPC   NC348875  43.874  29.191   5.564
 3763POPC   PO448876  43.889  29.137   5.864
 3763POPC   GL148877  43.847  29.153   6.164
 3763POPC   GL248878  43.803  29.231   6.164
 3763POPC   C1A48879  43.856  29.194   6.464
 3763POPC   D2A48880  43.925  29.105   6.764
 3763POPC   C3A48881  43.866  29.189   7.064
 3763POPC   C4A48882  43.843  29.141   7.364
 3763POPC   C1B48883  43.801  29.379   6.464
 3763POPC   C2B48884  43.790  29.328   6.764
 3763POPC   C3B48885  43.801  29.388   7.064
 3763POPC   C4B48886  43.743  29.331   7.364
 3764POPC   NC348887   4.298  15.184   5.564
 3764POPC   PO448888   4.337  15.168   5.864
 3764POPC   GL148889   4.349  15.165   6.164
 3764POPC   GL248890   4.225  15.210   6.164
 3764POPC   C1A48891   4.314  15.170   6.464
 3764POPC   D2A48892   4.354  15.180   6.764
 3764POPC   C3A48893   4.326  15.187   7.064
 3764POPC   C4A48894   4.293  15.210   7.364
 3764POPC   C1B48895   4.109  15.266   6.464
 3764POPC   C2B48896   4.132  15.352   6.764
 3764POPC   C3B48897   4.096  15.324   7.064
 3764POPC   C4B48898   4.122  15.315   7.364
 3765POPC   NC348899  27.611  24.531   5.564
 3765POPC   PO448900  27.632  24.441   5.864
 3765POPC   GL148901  27.607  24.444   6.164
 3765POPC   GL248902  27.695  24.581   6.164
 3765POPC   C1A48903  27.594  24.475   6.464
 3765POPC   D2A48904  27.593  24.511   6.764
 3765POPC   C3A48905  27.632  24.494   7.064
 3765POPC   C4A48906  27.562  24.474   7.364
 3765POPC   C1B48907  27.719  24.674   6.464
 3765POPC   C2B48908  27.672  24.696   6.764
 3765POPC   C3B48909  27.755  24.692   7.064
 3765POPC   C4B48910  27.769  24.673   7.364
 3766POPC   NC348911  35.342  35.361   5.564
 3766POPC   PO448912  35.393  35.322   5.864
 3766POPC   GL148913  35.384  35.393   6.164
 3766POPC   GL248914  35.489  35.228   6.164
 3766POPC   C1A48915  35.367  35.401   6.464
 3766POPC   D2A48916  35.363  35.328   6.764
 3766POPC   C3A48917  35.392  35.329   7.064
 3766POPC   C4A48918  35.378  35.394   7.364
 3766POPC   C1B48919  35.529  35.210   6.464
 3766POPC   C2B48920  35.549  35.170   6.764
 3766POPC   C3B48921  35.501  35.142   7.064
 3766POPC   C4B48922  35.557  35.184   7.364
 3767POPC   NC348923  41.512   1.185   5.564
 3767POPC   PO448924  41.542   1.199   5.864
 3767POPC   GL148925  41.565   1.205   6.164
 3767POPC   GL248926  41.648   1.176   6.164
 3767POPC   C1A48927  41.599   1.189   6.464
 3767POPC   D2A48928  41.545   1.239   6.764
 3767POPC   C3A48929  41.550   1.213   7.064
 3767POPC   C4A48930  41.593   1.165   7.364
 3767POPC   C1B48931  41.763   1.083   6.464
 3767POPC   C2B48932  41.786   1.032   6.764
 3767POPC   C3B48933  41.724   1.019   7.064
 3767POPC   C4B48934  41.786   1.061   7.364
 3768POPC   NC348935  18.234   8.938   5.564
 3768POPC   PO448936  18.247   8.963   5.864
 3768POPC   GL148937  18.297   8.970   6.164
 3768POPC   GL248938  18.374   9.024   6.164
 3768POPC   C1A48939  18.276   8.946   6.464
 3768POPC   D2A48940  18.251   8.958   6.764
 3768POPC   C3A48941  18.250   8.943   7.064
 3768POPC   C4A48942  18.264   8.950   7.364
 3768POPC   C1B48943  18.476   9.173   6.464
 3768POPC   C2B48944  18.423   9.141   6.764
 3768POPC   C3B48945  18.477   9.163   7.064
 3768POPC   C4B48946  18.472   9.122   7.364
 3769POPC   NC348947  32.992  38.462   5.564
 3769POPC   PO448948  33.011  38.430   5.864
 3769POPC   GL148949  33.061  38.474   6.164
 3769POPC   GL248950  33.083  38.501   6.164
 3769POPC   C1A48951  33.039  38.500   6.464
 3769POPC   D2A48952  33.042  38.441   6.764
 3769POPC   C3A48953  33.052  38.459   7.064
 3769POPC   C4A48954  32.995  38.477   7.364
 3769POPC   C1B48955  33.237  38.634   6.464
 3769POPC   C2B48956  33.249  38.587   6.764
 3769POPC   C3B48957  33.260  38.553   7.064
 3769POPC   C4B48958  33.184  38.569   7.364
 3770POPC   NC348959  23.713  14.369   5.564
 3770POPC   PO448960  23.761  14.437   5.864
 3770POPC   GL148961  23.747  14.410   6.164
 3770POPC   GL248962  23.809  14.344   6.164
 3770POPC   C1A48963  23.678  14.434   6.464
 3770POPC   D2A48964  23.670  14.360   6.764
 3770POPC   C3A48965  23.735  14.373   7.064
 3770POPC   C4A48966  23.763  14.422   7.364
 3770POPC   C1B48967  23.878  14.194   6.464
 3770POPC   C2B48968  23.893  14.253   6.764
 3770POPC   C3B48969  23.853  14.161   7.064
 3770POPC   C4B48970  23.896  14.247   7.364
 3771POPC   NC348971   1.969  22.180   5.564
 3771POPC   PO448972   1.959  22.181   5.864
 3771POPC   GL148973   2.005  22.120   6.164
 3771POPC   GL248974   2.120  22.166   6.164
 3771POPC   C1A48975   1.960  22.207   6.464
 3771POPC   D2A48976   1.994  22.113   6.764
 3771POPC   C3A48977   1.950  22.161   7.064
 3771POPC   C4A48978   2.010  22.206   7.364
 3771POPC   C1B48979   2.270  22.175   6.464
 3771POPC   C2B48980   2.263  22.140   6.764
 3771POPC   C3B48981   2.245  22.196   7.064
 3771POPC   C4B48982   2.270  22.137   7.364
 3772POPC   NC348983  24.510  44.708   5.564
 3772POPC   PO448984  24.520  44.616   5.864
 3772POPC   GL148985  24.479  44.614   6.164
 3772POPC   GL248986  24.510  44.577   6.164
 3772POPC   C1A48987  24.477  44.678   6.464
 3772POPC   D2A48988  24.533  44.615   6.764
 3772POPC   C3A48989  24.490  44.630   7.064
 3772POPC   C4A48990  24.464  44.685   7.364
 3772POPC   C1B48991  24.459  44.444   6.464
 3772POPC   C2B48992  24.505  44.379   6.764
 3772POPC   C3B48993  24.508  44.421   7.064
 3772POPC   C4B48994  24.487  44.423   7.364
 3773POPC   NC348995  36.146  35.363   5.564
 3773POPC   PO448996  36.093  35.337   5.864
 3773POPC   GL148997  36.153  35.375   6.164
 3773POPC   GL248998  36.074  35.211   6.164
 3773POPC   C1A48999  36.157  35.325   6.464
 3773POPC   D2A49000  36.114  35.346   6.764
 3773POPC   C3A49001  36.143  35.385   7.064
 3773POPC   C4A49002  36.163  35.336   7.364
 3773POPC   C1B49003  36.045  35.135   6.464
 3773POPC   C2B49004  36.117  35.107   6.764
 3773POPC   C3B49005  36.113  35.099   7.064
 3773POPC   C4B49006  36.115  35.087   7.364
 3774POPC   NC349007  11.266  29.101   5.564
 3774POPC   PO449008  11.278  29.098   5.864
 3774POPC   GL149009  11.307  29.100   6.164
 3774POPC   GL249010  11.156  29.106   6.164
 3774POPC   C1A49011  11.298  29.162   6.464
 3774POPC   D2A49012  11.285  29.191   6.764
 3774POPC   C3A49013  11.329  29.132   7.064
 3774POPC   C4A49014  11.285  29.162   7.364
 3774POPC   C1B49015  11.033  29.046   6.464
 3774POPC   C2B49016  11.027  29.099   6.764
 3774POPC   C3B49017  11.086  29.035   7.064
 3774POPC   C4B49018  11.045  29.097   7.364
 3775POPC   NC349019  29.107  25.236   5.564
 3775POPC   PO449020  29.171  25.233   5.864
 3775POPC   GL149021  29.155  25.282   6.164
 3775POPC   GL249022  29.129  25.367   6.164
 3775POPC   C1A49023  29.097  25.226   6.464
 3775POPC   D2A49024  29.101  25.263   6.764
 3775POPC   C3A49025  29.104  25.267   7.064
 3775POPC   C4A49026  29.123  25.222   7.364
 3775POPC   C1B49027  29.156  25.486   6.464
 3775POPC   C2B49028  29.178  25.539   6.764
 3775POPC   C3B49029  29.244  25.502   7.064
 3775POPC   C4B49030  29.160  25.479   7.364
 3776POPC   NC349031   8.158  42.291   5.564
 3776POPC   PO449032   8.153  42.354   5.864
 3776POPC   GL149033   8.207  42.326   6.164
 3776POPC   GL249034   8.124  42.190   6.164
 3776POPC   C1A49035   8.211  42.376   6.464
 3776POPC   D2A49036   8.176  42.333   6.764
 3776POPC   C3A49037   8.199  42.369   7.064
 3776POPC   C4A49038   8.148  42.334   7.364
 3776POPC   C1B49039   8.080  42.082   6.464
 3776POPC   C2B49040   8.065  42.117   6.764
 3776POPC   C3B49041   8.029  42.113   7.064
 3776POPC   C4B49042   8.048  42.157   7.364
 3777POPC   NC349043   8.185  15.203   5.564
 3777POPC   PO449044   8.160  15.206   5.864
 3777POPC   GL149045   8.184  15.147   6.164
 3777POPC   GL249046   8.155  15.275   6.164
 3777POPC   C1A49047   8.148  15.131   6.464
 3777POPC   D2A49048   8.244  15.165   6.764
 3777POPC   C3A49049   8.238  15.205   7.064
 3777POPC   C4A49050   8.225  15.162   7.364
 3777POPC   C1B49051   8.229  15.405   6.464
 3777POPC   C2B49052   8.182  15.453   6.764
 3777POPC   C3B49053   8.165  15.429   7.064
 3777POPC   C4B49054   8.185  15.465   7.364
 3778POPC   NC349055  36.880  37.690   5.564
 3778POPC   PO449056  36.919  37.641   5.864
 3778POPC   GL149057  36.854  37.660   6.164
 3778POPC   GL249058  36.837  37.820   6.164
 3778POPC   C1A49059  36.861  37.720   6.464
 3778POPC   D2A49060  36.907  37.724   6.764
 3778POPC   C3A49061  36.919  37.636   7.064
 3778POPC   C4A49062  36.897  37.647   7.364
 3778POPC   C1B49063  36.775  37.875   6.464
 3778POPC   C2B49064  36.764  37.916   6.764
 3778POPC   C3B49065  36.717  37.920   7.064
 3778POPC   C4B49066  36.767  37.930   7.364
 3779POPC   NC349067  15.164  40.814   5.564
 3779POPC   PO449068  15.217  40.797   5.864
 3779POPC   GL149069  15.160  40.826   6.164
 3779POPC   GL249070  15.251  40.907   6.164
 3779POPC   C1A49071  15.158  40.822   6.464
 3779POPC   D2A49072  15.227  40.808   6.764
 3779POPC   C3A49073  15.182  40.794   7.064
 3779POPC   C4A49074  15.131  40.811   7.364
 3779POPC   C1B49075  15.309  40.960   6.464
 3779POPC   C2B49076  15.344  41.024   6.764
 3779POPC   C3B49077  15.322  41.038   7.064
 3779POPC   C4B49078  15.354  41.041   7.364
 3780POPC   NC349079  29.168  36.897   5.564
 3780POPC   PO449080  29.156  36.949   5.864
 3780POPC   GL149081  29.135  36.941   6.164
 3780POPC   GL249082  29.028  36.922   6.164
 3780POPC   C1A49083  29.137  36.936   6.464
 3780POPC   D2A49084  29.097  36.909   6.764
 3780POPC   C3A49085  29.183  36.875   7.064
 3780POPC   C4A49086  29.179  36.860   7.364
 3780POPC   C1B49087  28.869  36.921   6.464
 3780POPC   C2B49088  28.859  36.986   6.764
 3780POPC   C3B49089  28.862  36.950   7.064
 3780POPC   C4B49090  28.950  36.980   7.364
 3781POPC   NC349091  33.822  35.392   5.564
 3781POPC   PO449092  33.820  35.374   5.864
 3781POPC   GL149093  33.803  35.317   6.164
 3781POPC   GL249094  33.894  35.312   6.164
 3781POPC   C1A49095  33.784  35.383   6.464
 3781POPC   D2A49096  33.821  35.394   6.764
 3781POPC   C3A49097  33.817  35.342   7.064
 3781POPC   C4A49098  33.830  35.303   7.364
 3781POPC   C1B49099  34.063  35.354   6.464
 3781POPC   C2B49100  34.010  35.374   6.764
 3781POPC   C3B49101  34.024  35.392   7.064
 3781POPC   C4B49102  34.048  35.379   7.364
 3782POPC   NC349103  13.583  11.320   5.564
 3782POPC   PO449104  13.625  11.300   5.864
 3782POPC   GL149105  13.646  11.263   6.164
 3782POPC   GL249106  13.727  11.326   6.164
 3782POPC   C1A49107  13.647  11.331   6.464
 3782POPC   D2A49108  13.652  11.304   6.764
 3782POPC   C3A49109  13.622  11.300   7.064
 3782POPC   C4A49110  13.672  11.273   7.364
 3782POPC   C1B49111  13.853  11.247   6.464
 3782POPC   C2B49112  13.853  11.288   6.764
 3782POPC   C3B49113  13.885  11.263   7.064
 3782POPC   C4B49114  13.835  11.271   7.364
 3783POPC   NC349115  36.856   7.386   5.564
 3783POPC   PO449116  36.886   7.395   5.864
 3783POPC   GL149117  36.900   7.428   6.164
 3783POPC   GL249118  36.986   7.427   6.164
 3783POPC   C1A49119  36.918   7.469   6.464
 3783POPC   D2A49120  36.904   7.371   6.764
 3783POPC   C3A49121  36.873   7.445   7.064
 3783POPC   C4A49122  36.867   7.462   7.364
 3783POPC   C1B49123  37.193   7.410   6.464
 3783POPC   C2B49124  37.108   7.424   6.764
 3783POPC   C3B49125  37.190   7.421   7.064
 3783POPC   C4B49126  37.174   7.413   7.364
 3784POPC   NC349127  26.833  14.386   5.564
 3784POPC   PO449128  26.815  14.405   5.864
 3784POPC   GL149129  26.850  14.366   6.164
 3784POPC   GL249130  26.761  14.261   6.164
 3784POPC   C1A49131  26.837  14.447   6.464
 3784POPC   D2A49132  26.825  14.387   6.764
 3784POPC   C3A49133  26.855  14.366   7.064
 3784POPC   C4A49134  26.828  14.372   7.364
 3784POPC   C1B49135  26.707  14.195   6.464
 3784POPC   C2B49136  26.708  14.174   6.764
 3784POPC   C3B49137  26.672  14.238   7.064
 3784POPC   C4B49138  26.662  14.212   7.364
 3785POPC   NC349139  33.765  32.264   5.564
 3785POPC   PO449140  33.801  32.293   5.864
 3785POPC   GL149141  33.752  32.298   6.164
 3785POPC   GL249142  33.717  32.179   6.164
 3785POPC   C1A49143  33.814  32.202   6.464
 3785POPC   D2A49144  33.776  32.256   6.764
 3785POPC   C3A49145  33.765  32.251   7.064
 3785POPC   C4A49146  33.803  32.277   7.364
 3785POPC   C1B49147  33.594  32.150   6.464
 3785POPC   C2B49148  33.568  32.157   6.764
 3785POPC   C3B49149  33.526  32.248   7.064
 3785POPC   C4B49150  33.574  32.240   7.364
 3786POPC   NC349151  24.486  26.068   5.564
 3786POPC   PO449152  24.479  26.011   5.864
 3786POPC   GL149153  24.445  26.056   6.164
 3786POPC   GL249154  24.378  26.087   6.164
 3786POPC   C1A49155  24.526  26.029   6.464
 3786POPC   D2A49156  24.526  26.090   6.764
 3786POPC   C3A49157  24.491  26.056   7.064
 3786POPC   C4A49158  24.523  26.079   7.364
 3786POPC   C1B49159  24.293  26.192   6.464
 3786POPC   C2B49160  24.263  26.146   6.764
 3786POPC   C3B49161  24.269  26.173   7.064
 3786POPC   C4B49162  24.237  26.159   7.364
 3787POPC   NC349163  22.179  41.570   5.564
 3787POPC   PO449164  22.204  41.608   5.864
 3787POPC   GL149165  22.142  41.511   6.164
 3787POPC   GL249166  22.291  41.440   6.164
 3787POPC   C1A49167  22.143  41.536   6.464
 3787POPC   D2A49168  22.195  41.531   6.764
 3787POPC   C3A49169  22.172  41.579   7.064
 3787POPC   C4A49170  22.121  41.584   7.364
 3787POPC   C1B49171  22.366  41.374   6.464
 3787POPC   C2B49172  22.376  41.417   6.764
 3787POPC   C3B49173  22.366  41.386   7.064
 3787POPC   C4B49174  22.298  41.359   7.364
 3788POPC   NC349175   6.653   7.456   5.564
 3788POPC   PO449176   6.608   7.413   5.864
 3788POPC   GL149177   6.663   7.434   6.164
 3788POPC   GL249178   6.501   7.517   6.164
 3788POPC   C1A49179   6.614   7.408   6.464
 3788POPC   D2A49180   6.611   7.466   6.764
 3788POPC   C3A49181   6.600   7.402   7.064
 3788POPC   C4A49182   6.653   7.420   7.364
 3788POPC   C1B49183   6.418   7.613   6.464
 3788POPC   C2B49184   6.464   7.596   6.764
 3788POPC   C3B49185   6.414   7.608   7.064
 3788POPC   C4B49186   6.470   7.598   7.364
 3789POPC   NC349187   9.710  40.001   5.564
 3789POPC   PO449188   9.758  40.050   5.864
 3789POPC   GL149189   9.785  40.023   6.164
 3789POPC   GL249190   9.688  39.878   6.164
 3789POPC   C1A49191   9.761  39.982   6.464
 3789POPC   D2A49192   9.758  40.050   6.764
 3789POPC   C3A49193   9.794  40.051   7.064
 3789POPC   C4A49194   9.717  40.025   7.364
 3789POPC   C1B49195   9.539  39.863   6.464
 3789POPC   C2B49196   9.563  39.793   6.764
 3789POPC   C3B49197   9.592  39.804   7.064
 3789POPC   C4B49198   9.580  39.795   7.364
 3790POPC   NC349199  26.081  43.068   5.564
 3790POPC   PO449200  26.031  43.067   5.864
 3790POPC   GL149201  26.022  43.116   6.164
 3790POPC   GL249202  26.000  42.951   6.164
 3790POPC   C1A49203  26.077  43.124   6.464
 3790POPC   D2A49204  26.082  43.123   6.764
 3790POPC   C3A49205  25.999  43.142   7.064
 3790POPC   C4A49206  26.057  43.064   7.364
 3790POPC   C1B49207  26.062  42.820   6.464
 3790POPC   C2B49208  26.046  42.849   6.764
 3790POPC   C3B49209  26.033  42.898   7.064
 3790POPC   C4B49210  26.046  42.858   7.364
 3791POPC   NC349211  42.299   3.582   5.564
 3791POPC   PO449212  42.304   3.558   5.864
 3791POPC   GL149213  42.300   3.492   6.164
 3791POPC   GL249214  42.258   3.662   6.164
 3791POPC   C1A49215  42.301   3.538   6.464
 3791POPC   D2A49216  42.313   3.502   6.764
 3791POPC   C3A49217  42.379   3.550   7.064
 3791POPC   C4A49218  42.286   3.511   7.364
 3791POPC   C1B49219  42.292   3.733   6.464
 3791POPC   C2B49220  42.262   3.770   6.764
 3791POPC   C3B49221  42.300   3.818   7.064
 3791POPC   C4B49222  42.298   3.736   7.364
 3792POPC   NC349223  36.175  22.201   5.564
 3792POPC   PO449224  36.093  22.117   5.864
 3792POPC   GL149225  36.116  22.190   6.164
 3792POPC   GL249226  36.044  22.165   6.164
 3792POPC   C1A49227  36.083  22.196   6.464
 3792POPC   D2A49228  36.096  22.121   6.764
 3792POPC   C3A49229  36.170  22.118   7.064
 3792POPC   C4A49230  36.137  22.165   7.364
 3792POPC   C1B49231  35.878  22.120   6.464
 3792POPC   C2B49232  35.844  22.190   6.764
 3792POPC   C3B49233  35.876  22.214   7.064
 3792POPC   C4B49234  35.857  22.121   7.364
 3793POPC   NC349235  28.379   1.998   5.564
 3793POPC   PO449236  28.381   1.993   5.864
 3793POPC   GL149237  28.343   1.941   6.164
 3793POPC   GL249238  28.411   1.859   6.164
 3793POPC   C1A49239  28.394   2.017   6.464
 3793POPC   D2A49240  28.407   1.974   6.764
 3793POPC   C3A49241  28.363   1.997   7.064
 3793POPC   C4A49242  28.346   1.942   7.364
 3793POPC   C1B49243  28.495   1.800   6.464
 3793POPC   C2B49244  28.514   1.765   6.764
 3793POPC   C3B49245  28.466   1.800   7.064
 3793POPC   C4B49246  28.513   1.787   7.364
 3794POPC   NC349247  33.828  26.857   5.564
 3794POPC   PO449248  33.806  26.823   5.864
 3794POPC   GL149249  33.848  26.860   6.164
 3794POPC   GL249250  33.797  26.656   6.164
 3794POPC   C1A49251  33.809  26.818   6.464
 3794POPC   D2A49252  33.797  26.822   6.764
 3794POPC   C3A49253  33.783  26.810   7.064
 3794POPC   C4A49254  33.818  26.799   7.364
 3794POPC   C1B49255  33.850  26.582   6.464
 3794POPC   C2B49256  33.833  26.588   6.764
 3794POPC   C3B49257  33.863  26.556   7.064
 3794POPC   C4B49258  33.878  26.607   7.364
 3795POPC   NC349259   7.388  26.783   5.564
 3795POPC   PO449260   7.460  26.849   5.864
 3795POPC   GL149261   7.449  26.774   6.164
 3795POPC   GL249262   7.361  26.896   6.164
 3795POPC   C1A49263   7.371  26.832   6.464
 3795POPC   D2A49264   7.395  26.822   6.764
 3795POPC   C3A49265   7.424  26.782   7.064
 3795POPC   C4A49266   7.374  26.837   7.364
 3795POPC   C1B49267   7.239  26.988   6.464
 3795POPC   C2B49268   7.182  26.946   6.764
 3795POPC   C3B49269   7.191  26.963   7.064
 3795POPC   C4B49270   7.237  26.915   7.364
 3796POPC   NC349271  37.653  33.010   5.564
 3796POPC   PO449272  37.704  33.031   5.864
 3796POPC   GL149273  37.660  32.996   6.164
 3796POPC   GL249274  37.816  33.062   6.164
 3796POPC   C1A49275  37.719  33.006   6.464
 3796POPC   D2A49276  37.720  33.020   6.764
 3796POPC   C3A49277  37.638  33.025   7.064
 3796POPC   C4A49278  37.677  32.978   7.364
 3796POPC   C1B49279  37.849  33.234   6.464
 3796POPC   C2B49280  37.839  33.193   6.764
 3796POPC   C3B49281  37.901  33.182   7.064
 3796POPC   C4B49282  37.839  33.231   7.364
 3797POPC   NC349283  38.407  27.574   5.564
 3797POPC   PO449284  38.481  27.620   5.864
 3797POPC   GL149285  38.458  27.571   6.164
 3797POPC   GL249286  38.534  27.639   6.164
 3797POPC   C1A49287  38.459  27.639   6.464
 3797POPC   D2A49288  38.483  27.572   6.764
 3797POPC   C3A49289  38.497  27.548   7.064
 3797POPC   C4A49290  38.495  27.611   7.364
 3797POPC   C1B49291  38.627  27.726   6.464
 3797POPC   C2B49292  38.633  27.808   6.764
 3797POPC   C3B49293  38.675  27.807   7.064
 3797POPC   C4B49294  38.592  27.730   7.364
 3798POPC   NC349295  12.101  33.754   5.564
 3798POPC   PO449296  12.029  33.761   5.864
 3798POPC   GL149297  12.052  33.792   6.164
 3798POPC   GL249298  12.205  33.761   6.164
 3798POPC   C1A49299  12.079  33.834   6.464
 3798POPC   D2A49300  12.046  33.844   6.764
 3798POPC   C3A49301  12.042  33.797   7.064
 3798POPC   C4A49302  12.064  33.764   7.364
 3798POPC   C1B49303  12.277  33.705   6.464
 3798POPC   C2B49304  12.297  33.698   6.764
 3798POPC   C3B49305  12.307  33.654   7.064
 3798POPC   C4B49306  12.242  33.645   7.364
 3799POPC   NC349307  19.785   1.238   5.564
 3799POPC   PO449308  19.881   1.177   5.864
 3799POPC   GL149309  19.801   1.178   6.164
 3799POPC   GL249310  19.792   1.266   6.164
 3799POPC   C1A49311  19.871   1.196   6.464
 3799POPC   D2A49312  19.809   1.205   6.764
 3799POPC   C3A49313  19.868   1.251   7.064
 3799POPC   C4A49314  19.849   1.251   7.364
 3799POPC   C1B49315  19.650   1.407   6.464
 3799POPC   C2B49316  19.687   1.395   6.764
 3799POPC   C3B49317  19.628   1.351   7.064
 3799POPC   C4B49318  19.644   1.412   7.364
 3800POPC   NC349319  34.596  29.123   5.564
 3800POPC   PO449320  34.578  29.164   5.864
 3800POPC   GL149321  34.576  29.154   6.164
 3800POPC   GL249322  34.577  29.017   6.164
 3800POPC   C1A49323  34.611  29.193   6.464
 3800POPC   D2A49324  34.581  29.103   6.764
 3800POPC   C3A49325  34.582  29.143   7.064
 3800POPC   C4A49326  34.547  29.186   7.364
 3800POPC   C1B49327  34.617  28.892   6.464
 3800POPC   C2B49328  34.580  28.890   6.764
 3800POPC   C3B49329  34.552  28.849   7.064
 3800POPC   C4B49330  34.569  28.943   7.364
 3801POPC   NC349331  26.841  22.948   5.564
 3801POPC   PO449332  26.818  22.919   5.864
 3801POPC   GL149333  26.838  22.969   6.164
 3801POPC   GL249334  26.861  22.856   6.164
 3801POPC   C1A49335  26.795  22.918   6.464
 3801POPC   D2A49336  26.867  22.924   6.764
 3801POPC   C3A49337  26.784  22.963   7.064
 3801POPC   C4A49338  26.839  22.974   7.364
 3801POPC   C1B49339  26.882  22.705   6.464
 3801POPC   C2B49340  26.862  22.707   6.764
 3801POPC   C3B49341  26.894  22.666   7.064
 3801POPC   C4B49342  26.921  22.669   7.364
 3802POPC   NC349343  17.457  17.464   5.564
 3802POPC   PO449344  17.508  17.524   5.864
 3802POPC   GL149345  17.470  17.480   6.164
 3802POPC   GL249346  17.540  17.601   6.164
 3802POPC   C1A49347  17.469  17.529   6.464
 3802POPC   D2A49348  17.466  17.462   6.764
 3802POPC   C3A49349  17.503  17.471   7.064
 3802POPC   C4A49350  17.508  17.515   7.364
 3802POPC   C1B49351  17.569  17.733   6.464
 3802POPC   C2B49352  17.611  17.765   6.764
 3802POPC   C3B49353  17.591  17.770   7.064
 3802POPC   C4B49354  17.666  17.707   7.364
 3803POPC   NC349355  25.292   5.086   5.564
 3803POPC   PO449356  25.227   5.095   5.864
 3803POPC   GL149357  25.224   5.053   6.164
 3803POPC   GL249358  25.374   5.028   6.164
 3803POPC   C1A49359  25.280   5.104   6.464
 3803POPC   D2A49360  25.224   5.091   6.764
 3803POPC   C3A49361  25.241   5.108   7.064
 3803POPC   C4A49362  25.234   5.073   7.364
 3803POPC   C1B49363  25.475   4.983   6.464
 3803POPC   C2B49364  25.532   5.026   6.764
 3803POPC   C3B49365  25.499   4.986   7.064
 3803POPC   C4B49366  25.518   5.046   7.364
 3804POPC   NC349367  25.270  32.265   5.564
 3804POPC   PO449368  25.277  32.201   5.864
 3804POPC   GL149369  25.287  32.282   6.164
 3804POPC   GL249370  25.200  32.346   6.164
 3804POPC   C1A49371  25.253  32.275   6.464
 3804POPC   D2A49372  25.242  32.235   6.764
 3804POPC   C3A49373  25.224  32.288   7.064
 3804POPC   C4A49374  25.242  32.294   7.364
 3804POPC   C1B49375  25.036  32.326   6.464
 3804POPC   C2B49376  25.057  32.301   6.764
 3804POPC   C3B49377  25.027  32.375   7.064
 3804POPC   C4B49378  25.067  32.347   7.364
 3805POPC   NC349379  43.093   9.014   5.564
 3805POPC   PO449380  43.065   8.974   5.864
 3805POPC   GL149381  43.131   9.015   6.164
 3805POPC   GL249382  43.036   8.904   6.164
 3805POPC   C1A49383  43.113   8.979   6.464
 3805POPC   D2A49384  43.082   8.972   6.764
 3805POPC   C3A49385  43.071   9.014   7.064
 3805POPC   C4A49386  43.157   8.948   7.364
 3805POPC   C1B49387  42.918   8.783   6.464
 3805POPC   C2B49388  42.887   8.865   6.764
 3805POPC   C3B49389  42.893   8.788   7.064
 3805POPC   C4B49390  42.883   8.770   7.364
 3806POPC   NC349391  43.874  25.290   5.564
 3806POPC   PO449392  43.907  25.220   5.864
 3806POPC   GL149393  43.845  25.262   6.164
 3806POPC   GL249394  43.814  25.342   6.164
 3806POPC   C1A49395  43.929  25.266   6.464
 3806POPC   D2A49396  43.912  25.249   6.764
 3806POPC   C3A49397  43.912  25.278   7.064
 3806POPC   C4A49398  43.839  25.253   7.364
 3806POPC   C1B49399  43.824  25.468   6.464
 3806POPC   C2B49400  43.844  25.525   6.764
 3806POPC   C3B49401  43.813  25.535   7.064
 3806POPC   C4B49402  43.860  25.532   7.364
 3807POPC   NC349403  15.173   8.195   5.564
 3807POPC   PO449404  15.167   8.164   5.864
 3807POPC   GL149405  15.177   8.167   6.164
 3807POPC   GL249406  15.142   8.104   6.164
 3807POPC   C1A49407  15.184   8.213   6.464
 3807POPC   D2A49408  15.187   8.148   6.764
 3807POPC   C3A49409  15.183   8.219   7.064
 3807POPC   C4A49410  15.213   8.230   7.364
 3807POPC   C1B49411  15.121   7.994   6.464
 3807POPC   C2B49412  15.097   7.967   6.764
 3807POPC   C3B49413  15.165   7.992   7.064
 3807POPC   C4B49414  15.097   7.904   7.364
 3808POPC   NC349415  10.528  22.961   5.564
 3808POPC   PO449416  10.570  22.888   5.864
 3808POPC   GL149417  10.552  22.889   6.164
 3808POPC   GL249418  10.601  23.012   6.164
 3808POPC   C1A49419  10.536  22.969   6.464
 3808POPC   D2A49420  10.539  22.970   6.764
 3808POPC   C3A49421  10.572  22.926   7.064
 3808POPC   C4A49422  10.481  22.892   7.364
 3808POPC   C1B49423  10.730  23.071   6.464
 3808POPC   C2B49424  10.753  23.083   6.764
 3808POPC   C3B49425  10.785  22.993   7.064
 3808POPC   C4B49426  10.750  23.032   7.364
 3809POPC   NC349427   5.915   1.175   5.564
 3809POPC   PO449428   5.855   1.184   5.864
 3809POPC   GL149429   5.912   1.234   6.164
 3809POPC   GL249430   5.831   1.378   6.164
 3809POPC   C1A49431   5.829   1.169   6.464
 3809POPC   D2A49432   5.845   1.207   6.764
 3809POPC   C3A49433   5.843   1.187   7.064
 3809POPC   C4A49434   5.888   1.228   7.364
 3809POPC   C1B49435   5.746   1.411   6.464
 3809POPC   C2B49436   5.781   1.448   6.764
 3809POPC   C3B49437   5.782   1.461   7.064
 3809POPC   C4B49438   5.775   1.436   7.364
 3810POPC   NC349439  41.570  29.921   5.564
 3810POPC   PO449440  41.518  29.953   5.864
 3810POPC   GL149441  41.581  29.887   6.164
 3810POPC   GL249442  41.590  29.788   6.164
 3810POPC   C1A49443  41.526  29.916   6.464
 3810POPC   D2A49444  41.604  29.880   6.764
 3810POPC   C3A49445  41.528  29.924   7.064
 3810POPC   C4A49446  41.579  29.873   7.364
 3810POPC   C1B49447  41.629  29.748   6.464
 3810POPC   C2B49448  41.697  29.701   6.764
 3810POPC   C3B49449  41.719  29.679   7.064
 3810POPC   C4B49450  41.628  29.740   7.364
 3811POPC   NC349451  36.087  21.387   5.564
 3811POPC   PO449452  36.121  21.366   5.864
 3811POPC   GL149453  36.097  21.355   6.164
 3811POPC   GL249454  36.120  21.468   6.164
 3811POPC   C1A49455  36.152  21.375   6.464
 3811POPC   D2A49456  36.142  21.405   6.764
 3811POPC   C3A49457  36.114  21.412   7.064
 3811POPC   C4A49458  36.152  21.402   7.364
 3811POPC   C1B49459  36.157  21.655   6.464
 3811POPC   C2B49460  36.148  21.661   6.764
 3811POPC   C3B49461  36.198  21.642   7.064
 3811POPC   C4B49462  36.208  21.587   7.364
 3812POPC   NC349463  33.774  10.558   5.564
 3812POPC   PO449464  33.779  10.551   5.864
 3812POPC   GL149465  33.816  10.549   6.164
 3812POPC   GL249466  33.656  10.459   6.164
 3812POPC   C1A49467  33.810  10.545   6.464
 3812POPC   D2A49468  33.813  10.490   6.764
 3812POPC   C3A49469  33.825  10.550   7.064
 3812POPC   C4A49470  33.784  10.568   7.364
 3812POPC   C1B49471  33.538  10.492   6.464
 3812POPC   C2B49472  33.520  10.462   6.764
 3812POPC   C3B49473  33.570  10.499   7.064
 3812POPC   C4B49474  33.578  10.497   7.364
 3813POPC   NC349475  22.924  36.891   5.564
 3813POPC   PO449476  22.924  36.909   5.864
 3813POPC   GL149477  22.895  36.935   6.164
 3813POPC   GL249478  23.038  36.986   6.164
 3813POPC   C1A49479  22.920  36.950   6.464
 3813POPC   D2A49480  22.978  36.883   6.764
 3813POPC   C3A49481  22.955  36.917   7.064
 3813POPC   C4A49482  22.930  36.913   7.364
 3813POPC   C1B49483  23.172  37.028   6.464
 3813POPC   C2B49484  23.226  36.958   6.764
 3813POPC   C3B49485  23.207  36.936   7.064
 3813POPC   C4B49486  23.159  36.961   7.364
 3814POPC   NC349487  40.770  25.313   5.564
 3814POPC   PO449488  40.811  25.255   5.864
 3814POPC   GL149489  40.814  25.252   6.164
 3814POPC   GL249490  40.725  25.163   6.164
 3814POPC   C1A49491  40.798  25.281   6.464
 3814POPC   D2A49492  40.812  25.289   6.764
 3814POPC   C3A49493  40.793  25.257   7.064
 3814POPC   C4A49494  40.788  25.267   7.364
 3814POPC   C1B49495  40.563  25.101   6.464
 3814POPC   C2B49496  40.546  25.093   6.764
 3814POPC   C3B49497  40.616  25.109   7.064
 3814POPC   C4B49498  40.609  25.109   7.364
 3815POPC   NC349499  43.107  39.256   5.564
 3815POPC   PO449500  43.064  39.215   5.864
 3815POPC   GL149501  43.092  39.197   6.164
 3815POPC   GL249502  42.972  39.229   6.164
 3815POPC   C1A49503  43.148  39.201   6.464
 3815POPC   D2A49504  43.149  39.209   6.764
 3815POPC   C3A49505  43.128  39.271   7.064
 3815POPC   C4A49506  43.078  39.231   7.364
 3815POPC   C1B49507  42.895  39.193   6.464
 3815POPC   C2B49508  42.894  39.188   6.764
 3815POPC   C3B49509  42.822  39.202   7.064
 3815POPC   C4B49510  42.899  39.259   7.364
 3816POPC   NC349511  39.279  22.209   5.564
 3816POPC   PO449512  39.249  22.185   5.864
 3816POPC   GL149513  39.255  22.194   6.164
 3816POPC   GL249514  39.260  22.065   6.164
 3816POPC   C1A49515  39.211  22.114   6.464
 3816POPC   D2A49516  39.215  22.188   6.764
 3816POPC   C3A49517  39.237  22.147   7.064
 3816POPC   C4A49518  39.227  22.210   7.364
 3816POPC   C1B49519  39.359  21.937   6.464
 3816POPC   C2B49520  39.333  21.997   6.764
 3816POPC   C3B49521  39.391  21.946   7.064
 3816POPC   C4B49522  39.343  21.994   7.364
 3817POPC   NC349523   6.659   6.644   5.564
 3817POPC   PO449524   6.651   6.633   5.864
 3817POPC   GL149525   6.670   6.606   6.164
 3817POPC   GL249526   6.561   6.692   6.164
 3817POPC   C1A49527   6.688   6.614   6.464
 3817POPC   D2A49528   6.641   6.663   6.764
 3817POPC   C3A49529   6.634   6.664   7.064
 3817POPC   C4A49530   6.655   6.633   7.364
 3817POPC   C1B49531   6.407   6.766   6.464
 3817POPC   C2B49532   6.383   6.694   6.764
 3817POPC   C3B49533   6.454   6.757   7.064
 3817POPC   C4B49534   6.411   6.684   7.364
 3818POPC   NC349535  36.926  18.294   5.564
 3818POPC   PO449536  36.877  18.259   5.864
 3818POPC   GL149537  36.882  18.304   6.164
 3818POPC   GL249538  36.904  18.430   6.164
 3818POPC   C1A49539  36.905  18.295   6.464
 3818POPC   D2A49540  36.892  18.272   6.764
 3818POPC   C3A49541  36.882  18.303   7.064
 3818POPC   C4A49542  36.860  18.293   7.364
 3818POPC   C1B49543  36.955  18.512   6.464
 3818POPC   C2B49544  37.018  18.546   6.764
 3818POPC   C3B49545  36.937  18.501   7.064
 3818POPC   C4B49546  36.972  18.557   7.364
 3819POPC   NC349547   7.466  13.668   5.564
 3819POPC   PO449548   7.417  13.584   5.864
 3819POPC   GL149549   7.444  13.610   6.164
 3819POPC   GL249550   7.409  13.712   6.164
 3819POPC   C1A49551   7.441  13.582   6.464
 3819POPC   D2A49552   7.381  13.644   6.764
 3819POPC   C3A49553   7.463  13.606   7.064
 3819POPC   C4A49554   7.462  13.597   7.364
 3819POPC   C1B49555   7.276  13.857   6.464
 3819POPC   C2B49556   7.257  13.812   6.764
 3819POPC   C3B49557   7.335  13.852   7.064
 3819POPC   C4B49558   7.347  13.856   7.364
 3820POPC   NC349559  36.919  34.600   5.564
 3820POPC   PO449560  36.934  34.578   5.864
 3820POPC   GL149561  36.935  34.528   6.164
 3820POPC   GL249562  36.807  34.449   6.164
 3820POPC   C1A49563  36.931  34.574   6.464
 3820POPC   D2A49564  36.904  34.528   6.764
 3820POPC   C3A49565  36.941  34.598   7.064
 3820POPC   C4A49566  36.912  34.543   7.364
 3820POPC   C1B49567  36.716  34.428   6.464
 3820POPC   C2B49568  36.759  34.361   6.764
 3820POPC   C3B49569  36.737  34.415   7.064
 3820POPC   C4B49570  36.762  34.371   7.364
 3821POPC   NC349571   1.199  12.821   5.564
 3821POPC   PO449572   1.164  12.810   5.864
 3821POPC   GL149573   1.167  12.866   6.164
 3821POPC   GL249574   1.080  12.846   6.164
 3821POPC   C1A49575   1.206  12.892   6.464
 3821POPC   D2A49576   1.261  12.834   6.764
 3821POPC   C3A49577   1.188  12.803   7.064
 3821POPC   C4A49578   1.183  12.819   7.364
 3821POPC   C1B49579   0.976  12.870   6.464
 3821POPC   C2B49580   0.949  12.817   6.764
 3821POPC   C3B49581   1.000  12.827   7.064
 3821POPC   C4B49582   1.011  12.781   7.364
 3822POPC   NC349583   3.507  19.094   5.564
 3822POPC   PO449584   3.584  19.086   5.864
 3822POPC   GL149585   3.575  19.050   6.164
 3822POPC   GL249586   3.556  18.894   6.164
 3822POPC   C1A49587   3.526  19.047   6.464
 3822POPC   D2A49588   3.517  19.094   6.764
 3822POPC   C3A49589   3.506  19.105   7.064
 3822POPC   C4A49590   3.547  19.014   7.364
 3822POPC   C1B49591   3.459  18.841   6.464
 3822POPC   C2B49592   3.466  18.816   6.764
 3822POPC   C3B49593   3.503  18.859   7.064
 3822POPC   C4B49594   3.507  18.790   7.364
 3823POPC   NC349595   5.820  39.221   5.564
 3823POPC   PO449596   5.826  39.188   5.864
 3823POPC   GL149597   5.841  39.228   6.164
 3823POPC   GL249598   5.763  39.143   6.164
 3823POPC   C1A49599   5.876  39.240   6.464
 3823POPC   D2A49600   5.892  39.266   6.764
 3823POPC   C3A49601   5.913  39.227   7.064
 3823POPC   C4A49602   5.861  39.270   7.364
 3823POPC   C1B49603   5.751  39.063   6.464
 3823POPC   C2B49604   5.715  39.054   6.764
 3823POPC   C3B49605   5.736  39.078   7.064
 3823POPC   C4B49606   5.676  39.041   7.364
 3824POPC   NC349607  41.548   0.405   5.564
 3824POPC   PO449608  41.537   0.473   5.864
 3824POPC   GL149609  41.561   0.389   6.164
 3824POPC   GL249610  41.576   0.283   6.164
 3824POPC   C1A49611  41.591   0.418   6.464
 3824POPC   D2A49612  41.510   0.454   6.764
 3824POPC   C3A49613  41.585   0.416   7.064
 3824POPC   C4A49614  41.566   0.474   7.364
 3824POPC   C1B49615  41.494   0.215   6.464
 3824POPC   C2B49616  41.530   0.186   6.764
 3824POPC   C3B49617  41.575   0.236   7.064
 3824POPC   C4B49618  41.499   0.240   7.364
 3825POPC   NC349619  35.357  42.314   5.564
 3825POPC   PO449620  35.378  42.353   5.864
 3825POPC   GL149621  35.372  42.322   6.164
 3825POPC   GL249622  35.341  42.246   6.164
 3825POPC   C1A49623  35.323  42.363   6.464
 3825POPC   D2A49624  35.343  42.291   6.764
 3825POPC   C3A49625  35.316  42.297   7.064
 3825POPC   C4A49626  35.377  42.371   7.364
 3825POPC   C1B49627  35.415  42.064   6.464
 3825POPC   C2B49628  35.395  42.093   6.764
 3825POPC   C3B49629  35.428  42.040   7.064
 3825POPC   C4B49630  35.367  42.060   7.364
 3826POPC   NC349631   5.049  15.961   5.564
 3826POPC   PO449632   5.084  15.979   5.864
 3826POPC   GL149633   5.054  15.951   6.164
 3826POPC   GL249634   5.143  15.829   6.164
 3826POPC   C1A49635   5.074  15.925   6.464
 3826POPC   D2A49636   5.048  15.983   6.764
 3826POPC   C3A49637   5.089  15.949   7.064
 3826POPC   C4A49638   5.043  15.997   7.364
 3826POPC   C1B49639   5.253  15.733   6.464
 3826POPC   C2B49640   5.200  15.721   6.764
 3826POPC   C3B49641   5.159  15.713   7.064
 3826POPC   C4B49642   5.229  15.730   7.364
 3827POPC   NC349643  34.619  34.566   5.564
 3827POPC   PO449644  34.561  34.561   5.864
 3827POPC   GL149645  34.557  34.573   6.164
 3827POPC   GL249646  34.673  34.496   6.164
 3827POPC   C1A49647  34.582  34.617   6.464
 3827POPC   D2A49648  34.604  34.593   6.764
 3827POPC   C3A49649  34.580  34.588   7.064
 3827POPC   C4A49650  34.615  34.625   7.364
 3827POPC   C1B49651  34.659  34.319   6.464
 3827POPC   C2B49652  34.682  34.341   6.764
 3827POPC   C3B49653  34.669  34.335   7.064
 3827POPC   C4B49654  34.705  34.368   7.364
 3828POPC   NC349655  10.564  19.867   5.564
 3828POPC   PO449656  10.491  19.859   5.864
 3828POPC   GL149657  10.568  19.788   6.164
 3828POPC   GL249658  10.631  19.926   6.164
 3828POPC   C1A49659  10.558  19.815   6.464
 3828POPC   D2A49660  10.485  19.870   6.764
 3828POPC   C3A49661  10.546  19.862   7.064
 3828POPC   C4A49662  10.553  19.821   7.364
 3828POPC   C1B49663  10.660  19.991   6.464
 3828POPC   C2B49664  10.733  20.059   6.764
 3828POPC   C3B49665  10.692  20.067   7.064
 3828POPC   C4B49666  10.654  20.057   7.364
 3829POPC   NC349667  38.459  26.008   5.564
 3829POPC   PO449668  38.484  26.062   5.864
 3829POPC   GL149669  38.428  26.065   6.164
 3829POPC   GL249670  38.555  25.995   6.164
 3829POPC   C1A49671  38.445  26.021   6.464
 3829POPC   D2A49672  38.433  26.001   6.764
 3829POPC   C3A49673  38.480  26.079   7.064
 3829POPC   C4A49674  38.474  26.066   7.364
 3829POPC   C1B49675  38.707  25.964   6.464
 3829POPC   C2B49676  38.717  25.977   6.764
 3829POPC   C3B49677  38.673  25.971   7.064
 3829POPC   C4B49678  38.725  26.022   7.364
 3830POPC   NC349679  26.858  11.300   5.564
 3830POPC   PO449680  26.850  11.296   5.864
 3830POPC   GL149681  26.769  11.318   6.164
 3830POPC   GL249682  26.810  11.376   6.164
 3830POPC   C1A49683  26.837  11.287   6.464
 3830POPC   D2A49684  26.770  11.271   6.764
 3830POPC   C3A49685  26.780  11.324   7.064
 3830POPC   C4A49686  26.830  11.330   7.364
 3830POPC   C1B49687  26.864  11.565   6.464
 3830POPC   C2B49688  26.839  11.582   6.764
 3830POPC   C3B49689  26.831  11.501   7.064
 3830POPC   C4B49690  26.833  11.561   7.364
 3831POPC   NC349691   8.971  18.285   5.564
 3831POPC   PO449692   9.018  18.310   5.864
 3831POPC   GL149693   8.969  18.303   6.164
 3831POPC   GL249694   9.027  18.339   6.164
 3831POPC   C1A49695   9.015  18.253   6.464
 3831POPC   D2A49696   8.997  18.332   6.764
 3831POPC   C3A49697   8.995  18.257   7.064
 3831POPC   C4A49698   9.004  18.269   7.364
 3831POPC   C1B49699   9.164  18.463   6.464
 3831POPC   C2B49700   9.116  18.446   6.764
 3831POPC   C3B49701   9.135  18.499   7.064
 3831POPC   C4B49702   9.156  18.487   7.364
 3832POPC   NC349703   3.551  13.650   5.564
 3832POPC   PO449704   3.562  13.656   5.864
 3832POPC   GL149705   3.537  13.601   6.164
 3832POPC   GL249706   3.511  13.550   6.164
 3832POPC   C1A49707   3.559  13.621   6.464
 3832POPC   D2A49708   3.507  13.628   6.764
 3832POPC   C3A49709   3.529  13.626   7.064
 3832POPC   C4A49710   3.500  13.670   7.364
 3832POPC   C1B49711   3.410  13.412   6.464
 3832POPC   C2B49712   3.441  13.378   6.764
 3832POPC   C3B49713   3.467  13.417   7.064
 3832POPC   C4B49714   3.476  13.428   7.364
 3833POPC   NC349715  35.398  40.758   5.564
 3833POPC   PO449716  35.325  40.786   5.864
 3833POPC   GL149717  35.360  40.753   6.164
 3833POPC   GL249718  35.299  40.705   6.164
 3833POPC   C1A49719  35.343  40.744   6.464
 3833POPC   D2A49720  35.327  40.770   6.764
 3833POPC   C3A49721  35.333  40.737   7.064
 3833POPC   C4A49722  35.384  40.772   7.364
 3833POPC   C1B49723  35.201  40.520   6.464
 3833POPC   C2B49724  35.220  40.515   6.764
 3833POPC   C3B49725  35.280  40.572   7.064
 3833POPC   C4B49726  35.287  40.557   7.364
 3834POPC   NC349727   8.947  17.462   5.564
 3834POPC   PO449728   8.934  17.524   5.864
 3834POPC   GL149729   8.933  17.486   6.164
 3834POPC   GL249730   8.814  17.581   6.164
 3834POPC   C1A49731   8.964  17.460   6.464
 3834POPC   D2A49732   9.020  17.547   6.764
 3834POPC   C3A49733   9.015  17.535   7.064
 3834POPC   C4A49734   8.924  17.535   7.364
 3834POPC   C1B49735   8.682  17.543   6.464
 3834POPC   C2B49736   8.689  17.601   6.764
 3834POPC   C3B49737   8.737  17.544   7.064
 3834POPC   C4B49738   8.733  17.577   7.364
 3835POPC   NC349739  36.882  15.934   5.564
 3835POPC   PO449740  36.857  15.941   5.864
 3835POPC   GL149741  36.901  15.943   6.164
 3835POPC   GL249742  36.791  15.992   6.164
 3835POPC   C1A49743  36.925  15.970   6.464
 3835POPC   D2A49744  36.942  15.914   6.764
 3835POPC   C3A49745  36.940  15.919   7.064
 3835POPC   C4A49746  36.949  15.977   7.364
 3835POPC   C1B49747  36.645  16.022   6.464
 3835POPC   C2B49748  36.702  15.986   6.764
 3835POPC   C3B49749  36.633  15.992   7.064
 3835POPC   C4B49750  36.687  15.992   7.364
 3836POPC   NC349751  44.654  12.030   5.564
 3836POPC   PO449752  44.613  12.059   5.864
 3836POPC   GL149753  44.665  12.087   6.164
 3836POPC   GL249754  44.708  12.237   6.164
 3836POPC   C1A49755  44.690  12.094   6.464
 3836POPC   D2A49756  44.692  12.088   6.764
 3836POPC   C3A49757  44.695  12.073   7.064
 3836POPC   C4A49758  44.670  12.090   7.364
 3836POPC   C1B49759  44.770  12.337   6.464
 3836POPC   C2B49760  44.772  12.315   6.764
 3836POPC   C3B49761  44.749  12.305   7.064
 3836POPC   C4B49762  44.761  12.309   7.364
 3837POPC   NC349763  35.338   9.785   5.564
 3837POPC   PO449764  35.350   9.773   5.864
 3837POPC   GL149765  35.316   9.742   6.164
 3837POPC   GL249766  35.232   9.608   6.164
 3837POPC   C1A49767  35.396   9.718   6.464
 3837POPC   D2A49768  35.335   9.716   6.764
 3837POPC   C3A49769  35.383   9.785   7.064
 3837POPC   C4A49770  35.354   9.728   7.364
 3837POPC   C1B49771  35.140   9.529   6.464
 3837POPC   C2B49772  35.168   9.547   6.764
 3837POPC   C3B49773  35.180   9.594   7.064
 3837POPC   C4B49774  35.153   9.607   7.364
 3838POPC   NC349775   1.986  33.829   5.564
 3838POPC   PO449776   1.998  33.785   5.864
 3838POPC   GL149777   2.010  33.837   6.164
 3838POPC   GL249778   2.108  33.912   6.164
 3838POPC   C1A49779   2.034  33.782   6.464
 3838POPC   D2A49780   2.026  33.784   6.764
 3838POPC   C3A49781   2.009  33.785   7.064
 3838POPC   C4A49782   1.961  33.761   7.364
 3838POPC   C1B49783   2.125  34.038   6.464
 3838POPC   C2B49784   2.111  33.976   6.764
 3838POPC   C3B49785   2.106  33.985   7.064
 3838POPC   C4B49786   2.170  34.008   7.364
 3839POPC   NC349787  15.964  40.819   5.564
 3839POPC   PO449788  15.918  40.831   5.864
 3839POPC   GL149789  15.938  40.743   6.164
 3839POPC   GL249790  15.878  40.905   6.164
 3839POPC   C1A49791  15.980  40.737   6.464
 3839POPC   D2A49792  15.913  40.762   6.764
 3839POPC   C3A49793  15.983  40.769   7.064
 3839POPC   C4A49794  15.940  40.832   7.364
 3839POPC   C1B49795  15.870  40.953   6.464
 3839POPC   C2B49796  15.786  40.993   6.764
 3839POPC   C3B49797  15.810  41.036   7.064
 3839POPC   C4B49798  15.833  41.000   7.364
 3840POPC   NC349799  44.631  20.655   5.564
 3840POPC   PO449800  44.643  20.647   5.864
 3840POPC   GL149801  44.702  20.590   6.164
 3840POPC   GL249802  44.583  20.688   6.164
 3840POPC   C1A49803  44.657  20.644   6.464
 3840POPC   D2A49804  44.652  20.629   6.764
 3840POPC   C3A49805  44.670  20.567   7.064
 3840POPC   C4A49806  44.632  20.637   7.364
 3840POPC   C1B49807  44.520  20.818   6.464
 3840POPC   C2B49808  44.480  20.793   6.764
 3840POPC   C3B49809  44.449  20.797   7.064
 3840POPC   C4B49810  44.436  20.738   7.364
 3841POPC   NC349811  43.896  28.374   5.564
 3841POPC   PO449812  43.920  28.398   5.864
 3841POPC   GL149813  43.909  28.415   6.164
 3841POPC   GL249814  43.882  28.198   6.164
 3841POPC   C1A49815  43.868  28.390   6.464
 3841POPC   D2A49816  43.926  28.322   6.764
 3841POPC   C3A49817  43.837  28.352   7.064
 3841POPC   C4A49818  43.899  28.366   7.364
 3841POPC   C1B49819  43.817  28.122   6.464
 3841POPC   C2B49820  43.869  28.077   6.764
 3841POPC   C3B49821  43.896  28.105   7.064
 3841POPC   C4B49822  43.830  28.137   7.364
 3842POPC   NC349823   2.733  44.648   5.564
 3842POPC   PO449824   2.782  44.669   5.864
 3842POPC   GL149825   2.755  44.665   6.164
 3842POPC   GL249826   2.636  44.707   6.164
 3842POPC   C1A49827   2.786  44.666   6.464
 3842POPC   D2A49828   2.778  44.618   6.764
 3842POPC   C3A49829   2.764  44.675   7.064
 3842POPC   C4A49830   2.779  44.652   7.364
 3842POPC   C1B49831   2.574  44.783   6.464
 3842POPC   C2B49832   2.551  44.786   6.764
 3842POPC   C3B49833   2.505  44.798   7.064
 3842POPC   C4B49834   2.497  44.762   7.364
 3843POPC   NC349835  22.977   2.805   5.564
 3843POPC   PO449836  22.965   2.717   5.864
 3843POPC   GL149837  22.969   2.779   6.164
 3843POPC   GL249838  23.013   2.746   6.164
 3843POPC   C1A49839  22.933   2.748   6.464
 3843POPC   D2A49840  22.979   2.770   6.764
 3843POPC   C3A49841  22.983   2.803   7.064
 3843POPC   C4A49842  22.888   2.796   7.364
 3843POPC   C1B49843  23.146   2.704   6.464
 3843POPC   C2B49844  23.201   2.647   6.764
 3843POPC   C3B49845  23.182   2.667   7.064
 3843POPC   C4B49846  23.149   2.693   7.364
 3844POPC   NC349847  23.672  27.614   5.564
 3844POPC   PO449848  23.734  27.565   5.864
 3844POPC   GL149849  23.750  27.607   6.164
 3844POPC   GL249850  23.831  27.494   6.164
 3844POPC   C1A49851  23.723  27.607   6.464
 3844POPC   D2A49852  23.750  27.612   6.764
 3844POPC   C3A49853  23.699  27.639   7.064
 3844POPC   C4A49854  23.745  27.616   7.364
 3844POPC   C1B49855  23.839  27.347   6.464
 3844POPC   C2B49856  23.881  27.384   6.764
 3844POPC   C3B49857  23.905  27.390   7.064
 3844POPC   C4B49858  23.821  27.386   7.364
 3845POPC   NC349859  16.738  26.837   5.564
 3845POPC   PO449860  16.746  26.844   5.864
 3845POPC   GL149861  16.761  26.850   6.164
 3845POPC   GL249862  16.565  26.840   6.164
 3845POPC   C1A49863  16.701  26.776   6.464
 3845POPC   D2A49864  16.703  26.856   6.764
 3845POPC   C3A49865  16.696  26.808   7.064
 3845POPC   C4A49866  16.726  26.824   7.364
 3845POPC   C1B49867  16.443  26.795   6.464
 3845POPC   C2B49868  16.496  26.745   6.764
 3845POPC   C3B49869  16.440  26.766   7.064
 3845POPC   C4B49870  16.532  26.804   7.364
 3846POPC   NC349871  22.984  31.425   5.564
 3846POPC   PO449872  22.924  31.479   5.864
 3846POPC   GL149873  22.928  31.436   6.164
 3846POPC   GL249874  22.835  31.357   6.164
 3846POPC   C1A49875  22.980  31.423   6.464
 3846POPC   D2A49876  22.915  31.446   6.764
 3846POPC   C3A49877  22.978  31.494   7.064
 3846POPC   C4A49878  22.944  31.457   7.364
 3846POPC   C1B49879  22.846  31.229   6.464
 3846POPC   C2B49880  22.794  31.271   6.764
 3846POPC   C3B49881  22.785  31.233   7.064
 3846POPC   C4B49882  22.874  31.291   7.364
 3847POPC   NC349883  21.421  15.168   5.564
 3847POPC   PO449884  21.435  15.137   5.864
 3847POPC   GL149885  21.381  15.228   6.164
 3847POPC   GL249886  21.463  15.257   6.164
 3847POPC   C1A49887  21.419  15.170   6.464
 3847POPC   D2A49888  21.366  15.169   6.764
 3847POPC   C3A49889  21.402  15.161   7.064
 3847POPC   C4A49890  21.365  15.192   7.364
 3847POPC   C1B49891  21.656  15.276   6.464
 3847POPC   C2B49892  21.575  15.279   6.764
 3847POPC   C3B49893  21.571  15.272   7.064
 3847POPC   C4B49894  21.563  15.321   7.364
 3848POPC   NC349895  43.840  18.261   5.564
 3848POPC   PO449896  43.881  18.277   5.864
 3848POPC   GL149897  43.904  18.238   6.164
 3848POPC   GL249898  43.741  18.260   6.164
 3848POPC   C1A49899  43.861  18.301   6.464
 3848POPC   D2A49900  43.881  18.319   6.764
 3848POPC   C3A49901  43.884  18.253   7.064
 3848POPC   C4A49902  43.933  18.248   7.364
 3848POPC   C1B49903  43.632  18.204   6.464
 3848POPC   C2B49904  43.642  18.226   6.764
 3848POPC   C3B49905  43.686  18.241   7.064
 3848POPC   C4B49906  43.626  18.230   7.364
 3849POPC   NC349907  23.733  11.311   5.564
 3849POPC   PO449908  23.695  11.278   5.864
 3849POPC   GL149909  23.760  11.318   6.164
 3849POPC   GL249910  23.827  11.239   6.164
 3849POPC   C1A49911  23.759  11.282   6.464
 3849POPC   D2A49912  23.752  11.335   6.764
 3849POPC   C3A49913  23.710  11.327   7.064
 3849POPC   C4A49914  23.713  11.271   7.364
 3849POPC   C1B49915  23.922  11.100   6.464
 3849POPC   C2B49916  23.880  11.122   6.764
 3849POPC   C3B49917  23.937  11.149   7.064
 3849POPC   C4B49918  23.856  11.171   7.364
 3850POPC   NC349919   5.831  40.035   5.564
 3850POPC   PO449920   5.891  40.011   5.864
 3850POPC   GL149921   5.904  40.022   6.164
 3850POPC   GL249922   5.759  40.116   6.164
 3850POPC   C1A49923   5.850  40.032   6.464
 3850POPC   D2A49924   5.824  40.044   6.764
 3850POPC   C3A49925   5.892  40.050   7.064
 3850POPC   C4A49926   5.879  40.030   7.364
 3850POPC   C1B49927   5.778  40.250   6.464
 3850POPC   C2B49928   5.735  40.239   6.764
 3850POPC   C3B49929   5.717  40.243   7.064
 3850POPC   C4B49930   5.753  40.225   7.364
 3851POPC   NC349931  39.277   2.773   5.564
 3851POPC   PO449932  39.186   2.746   5.864
 3851POPC   GL149933  39.270   2.761   6.164
 3851POPC   GL249934  39.121   2.767   6.164
 3851POPC   C1A49935  39.232   2.802   6.464
 3851POPC   D2A49936  39.256   2.751   6.764
 3851POPC   C3A49937  39.190   2.751   7.064
 3851POPC   C4A49938  39.270   2.774   7.364
 3851POPC   C1B49939  39.015   2.826   6.464
 3851POPC   C2B49940  39.030   2.755   6.764
 3851POPC   C3B49941  39.024   2.829   7.064
 3851POPC   C4B49942  38.980   2.832   7.364
 3852POPC   NC349943   8.994  19.077   5.564
 3852POPC   PO449944   8.928  19.050   5.864
 3852POPC   GL149945   9.006  19.031   6.164
 3852POPC   GL249946   9.107  19.011   6.164
 3852POPC   C1A49947   8.979  19.014   6.464
 3852POPC   D2A49948   8.967  19.095   6.764
 3852POPC   C3A49949   8.973  19.042   7.064
 3852POPC   C4A49950   9.021  19.102   7.364
 3852POPC   C1B49951   9.241  19.017   6.464
 3852POPC   C2B49952   9.264  19.073   6.764
 3852POPC   C3B49953   9.259  19.036   7.064
 3852POPC   C4B49954   9.214  19.042   7.364
 3853POPC   NC349955  13.590  34.596   5.564
 3853POPC   PO449956  13.653  34.601   5.864
 3853POPC   GL149957  13.604  34.542   6.164
 3853POPC   GL249958  13.574  34.451   6.164
 3853POPC   C1A49959  13.676  34.614   6.464
 3853POPC   D2A49960  13.622  34.534   6.764
 3853POPC   C3A49961  13.671  34.553   7.064
 3853POPC   C4A49962  13.581  34.581   7.364
 3853POPC   C1B49963  13.444  34.331   6.464
 3853POPC   C2B49964  13.469  34.322   6.764
 3853POPC   C3B49965  13.461  34.405   7.064
 3853POPC   C4B49966  13.452  34.343   7.364
 3854POPC   NC349967   6.668   2.732   5.564
 3854POPC   PO449968   6.606   2.718   5.864
 3854POPC   GL149969   6.645   2.811   6.164
 3854POPC   GL249970   6.763   2.773   6.164
 3854POPC   C1A49971   6.644   2.759   6.464
 3854POPC   D2A49972   6.652   2.781   6.764
 3854POPC   C3A49973   6.666   2.772   7.064
 3854POPC   C4A49974   6.596   2.776   7.364
 3854POPC   C1B49975   6.899   2.793   6.464
 3854POPC   C2B49976   6.874   2.847   6.764
 3854POPC   C3B49977   6.891   2.821   7.064
 3854POPC   C4B49978   6.876   2.798   7.364
 3855POPC   NC349979  42.289  41.534   5.564
 3855POPC   PO449980  42.379  41.560   5.864
 3855POPC   GL149981  42.313  41.538   6.164
 3855POPC   GL249982  42.390  41.474   6.164
 3855POPC   C1A49983  42.294  41.556   6.464
 3855POPC   D2A49984  42.308  41.591   6.764
 3855POPC   C3A49985  42.304  41.529   7.064
 3855POPC   C4A49986  42.335  41.604   7.364
 3855POPC   C1B49987  42.485  41.440   6.464
 3855POPC   C2B49988  42.478  41.382   6.764
 3855POPC   C3B49989  42.560  41.343   7.064
 3855POPC   C4B49990  42.534  41.348   7.364
 3856POPC   NC349991  40.036  13.667   5.564
 3856POPC   PO449992  40.023  13.668   5.864
 3856POPC   GL149993  40.054  13.675   6.164
 3856POPC   GL249994  40.002  13.777   6.164
 3856POPC   C1A49995  40.044  13.598   6.464
 3856POPC   D2A49996  40.015  13.619   6.764
 3856POPC   C3A49997  40.020  13.597   7.064
 3856POPC   C4A49998  40.025  13.590   7.364
 3856POPC   C1B49999  39.949  13.845   6.464
 3856POPC   C2B50000  39.973  13.869   6.764
 3856POPC   C3B50001  39.962  13.877   7.064
 3856POPC   C4B50002  39.896  13.843   7.364
 3857POPC   NC350003  13.627  19.834   5.564
 3857POPC   PO450004  13.653  19.864   5.864
 3857POPC   GL150005  13.656  19.846   6.164
 3857POPC   GL250006  13.719  19.724   6.164
 3857POPC   C1A50007  13.619  19.803   6.464
 3857POPC   D2A50008  13.609  19.884   6.764
 3857POPC   C3A50009  13.672  19.816   7.064
 3857POPC   C4A50010  13.629  19.871   7.364
 3857POPC   C1B50011  13.728  19.594   6.464
 3857POPC   C2B50012  13.711  19.618   6.764
 3857POPC   C3B50013  13.761  19.642   7.064
 3857POPC   C4B50014  13.719  19.594   7.364
 3858POPC   NC350015  40.752   1.203   5.564
 3858POPC   PO450016  40.827   1.180   5.864
 3858POPC   GL150017  40.821   1.259   6.164
 3858POPC   GL250018  40.750   1.148   6.164
 3858POPC   C1A50019  40.775   1.246   6.464
 3858POPC   D2A50020  40.773   1.191   6.764
 3858POPC   C3A50021  40.744   1.175   7.064
 3858POPC   C4A50022  40.809   1.195   7.364
 3858POPC   C1B50023  40.681   1.028   6.464
 3858POPC   C2B50024  40.660   0.958   6.764
 3858POPC   C3B50025  40.686   1.017   7.064
 3858POPC   C4B50026  40.656   0.984   7.364
 3859POPC   NC350027  12.897  40.782   5.564
 3859POPC   PO450028  12.899  40.765   5.864
 3859POPC   GL150029  12.888  40.817   6.164
 3859POPC   GL250030  12.944  40.909   6.164
 3859POPC   C1A50031  12.851  40.760   6.464
 3859POPC   D2A50032  12.901  40.744   6.764
 3859POPC   C3A50033  12.892  40.819   7.064
 3859POPC   C4A50034  12.896  40.766   7.364
 3859POPC   C1B50035  13.037  40.950   6.464
 3859POPC   C2B50036  13.017  40.913   6.764
 3859POPC   C3B50037  13.026  40.952   7.064
 3859POPC   C4B50038  13.076  40.981   7.364
 3860POPC   NC350039   5.825  22.898   5.564
 3860POPC   PO450040   5.826  22.986   5.864
 3860POPC   GL150041   5.879  22.937   6.164
 3860POPC   GL250042   5.787  23.039   6.164
 3860POPC   C1A50043   5.906  22.970   6.464
 3860POPC   D2A50044   5.851  22.891   6.764
 3860POPC   C3A50045   5.916  22.984   7.064
 3860POPC   C4A50046   5.869  22.950   7.364
 3860POPC   C1B50047   5.781  23.162   6.464
 3860POPC   C2B50048   5.778  23.191   6.764
 3860POPC   C3B50049   5.726  23.107   7.064
 3860POPC   C4B50050   5.763  23.123   7.364
 3861POPC   NC350051  12.058  11.274   5.564
 3861POPC   PO450052  12.092  11.296   5.864
 3861POPC   GL150053  12.055  11.283   6.164
 3861POPC   GL250054  12.108  11.201   6.164
 3861POPC   C1A50055  12.080  11.278   6.464
 3861POPC   D2A50056  12.104  11.324   6.764
 3861POPC   C3A50057  12.052  11.338   7.064
 3861POPC   C4A50058  12.115  11.292   7.364
 3861POPC   C1B50059  12.187  11.084   6.464
 3861POPC   C2B50060  12.268  11.112   6.764
 3861POPC   C3B50061  12.250  11.146   7.064
 3861POPC   C4B50062  12.264  11.092   7.364
 3862POPC   NC350063   6.608  17.485   5.564
 3862POPC   PO450064   6.682  17.540   5.864
 3862POPC   GL150065   6.665  17.552   6.164
 3862POPC   GL250066   6.522  17.412   6.164
 3862POPC   C1A50067   6.603  17.504   6.464
 3862POPC   D2A50068   6.637  17.512   6.764
 3862POPC   C3A50069   6.607  17.459   7.064
 3862POPC   C4A50070   6.628  17.528   7.364
 3862POPC   C1B50071   6.448  17.411   6.464
 3862POPC   C2B50072   6.458  17.401   6.764
 3862POPC   C3B50073   6.452  17.392   7.064
 3862POPC   C4B50074   6.434  17.354   7.364
 3863POPC   NC350075   8.169  15.934   5.564
 3863POPC   PO450076   8.213  15.959   5.864
 3863POPC   GL150077   8.149  15.962   6.164
 3863POPC   GL250078   8.195  15.859   6.164
 3863POPC   C1A50079   8.172  15.996   6.464
 3863POPC   D2A50080   8.170  15.911   6.764
 3863POPC   C3A50081   8.245  15.989   7.064
 3863POPC   C4A50082   8.242  15.956   7.364
 3863POPC   C1B50083   8.195  15.698   6.464
 3863POPC   C2B50084   8.133  15.686   6.764
 3863POPC   C3B50085   8.164  15.735   7.064
 3863POPC   C4B50086   8.111  15.718   7.364
 3864POPC   NC350087  40.033  33.826   5.564
 3864POPC   PO450088  39.962  33.753   5.864
 3864POPC   GL150089  40.027  33.825   6.164
 3864POPC   GL250090  40.028  33.649   6.164
 3864POPC   C1A50091  40.007  33.767   6.464
 3864POPC   D2A50092  40.008  33.755   6.764
 3864POPC   C3A50093  39.999  33.805   7.064
 3864POPC   C4A50094  39.991  33.819   7.364
 3864POPC   C1B50095  40.083  33.602   6.464
 3864POPC   C2B50096  40.101  33.580   6.764
 3864POPC   C3B50097  40.041  33.523   7.064
 3864POPC   C4B50098  40.112  33.574   7.364
 3865POPC   NC350099  37.670   2.769   5.564
 3865POPC   PO450100  37.665   2.808   5.864
 3865POPC   GL150101  37.637   2.730   6.164
 3865POPC   GL250102  37.693   2.851   6.164
 3865POPC   C1A50103  37.721   2.773   6.464
 3865POPC   D2A50104  37.662   2.810   6.764
 3865POPC   C3A50105  37.645   2.749   7.064
 3865POPC   C4A50106  37.719   2.783   7.364
 3865POPC   C1B50107  37.828   2.990   6.464
 3865POPC   C2B50108  37.843   2.945   6.764
 3865POPC   C3B50109  37.836   2.998   7.064
 3865POPC   C4B50110  37.812   2.942   7.364
 3866POPC   NC350111  44.682  19.091   5.564
 3866POPC   PO450112  44.651  19.107   5.864
 3866POPC   GL150113  44.644  19.030   6.164
 3866POPC   GL250114  44.772  19.110   6.164
 3866POPC   C1A50115  44.615  19.036   6.464
 3866POPC   D2A50116  44.671  19.047   6.764
 3866POPC   C3A50117  44.640  19.016   7.064
 3866POPC   C4A50118  44.694  19.067   7.364
 3866POPC   C1B50119  44.931  19.115   6.464
 3866POPC   C2B50120  44.850  19.111   6.764
 3866POPC   C3B50121  44.859  19.121   7.064
 3866POPC   C4B50122  44.909  19.191   7.364
 3867POPC   NC350123  28.347  12.842   5.564
 3867POPC   PO450124  28.373  12.848   5.864
 3867POPC   GL150125  28.371  12.811   6.164
 3867POPC   GL250126  28.256  12.898   6.164
 3867POPC   C1A50127  28.333  12.878   6.464
 3867POPC   D2A50128  28.323  12.870   6.764
 3867POPC   C3A50129  28.370  12.877   7.064
 3867POPC   C4A50130  28.339  12.809   7.364
 3867POPC   C1B50131  28.120  12.894   6.464
 3867POPC   C2B50132  28.085  12.865   6.764
 3867POPC   C3B50133  28.114  12.910   7.064
 3867POPC   C4B50134  28.157  12.916   7.364
 3868POPC   NC350135  11.283  42.373   5.564
 3868POPC   PO450136  11.256  42.376   5.864
 3868POPC   GL150137  11.269  42.344   6.164
 3868POPC   GL250138  11.155  42.359   6.164
 3868POPC   C1A50139  11.270  42.309   6.464
 3868POPC   D2A50140  11.333  42.375   6.764
 3868POPC   C3A50141  11.315  42.339   7.064
 3868POPC   C4A50142  11.337  42.328   7.364
 3868POPC   C1B50143  11.048  42.348   6.464
 3868POPC   C2B50144  11.104  42.373   6.764
 3868POPC   C3B50145  11.041  42.379   7.064
 3868POPC   C4B50146  11.081  42.349   7.364
 3869POPC   NC350147  21.426  42.331   5.564
 3869POPC   PO450148  21.366  42.337   5.864
 3869POPC   GL150149  21.395  42.347   6.164
 3869POPC   GL250150  21.489  42.446   6.164
 3869POPC   C1A50151  21.365  42.286   6.464
 3869POPC   D2A50152  21.424  42.328   6.764
 3869POPC   C3A50153  21.345  42.359   7.064
 3869POPC   C4A50154  21.412  42.310   7.364
 3869POPC   C1B50155  21.571  42.581   6.464
 3869POPC   C2B50156  21.513  42.516   6.764
 3869POPC   C3B50157  21.516  42.515   7.064
 3869POPC   C4B50158  21.476  42.501   7.364
 3870POPC   NC350159   8.928  21.396   5.564
 3870POPC   PO450160   8.981  21.383   5.864
 3870POPC   GL150161   8.964  21.395   6.164
 3870POPC   GL250162   9.051  21.418   6.164
 3870POPC   C1A50163   8.997  21.399   6.464
 3870POPC   D2A50164   8.944  21.421   6.764
 3870POPC   C3A50165   8.990  21.345   7.064
 3870POPC   C4A50166   8.941  21.377   7.364
 3870POPC   C1B50167   9.163  21.443   6.464
 3870POPC   C2B50168   9.192  21.433   6.764
 3870POPC   C3B50169   9.213  21.501   7.064
 3870POPC   C4B50170   9.225  21.517   7.364
 3871POPC   NC350171  26.048  29.193   5.564
 3871POPC   PO450172  26.055  29.106   5.864
 3871POPC   GL150173  26.055  29.116   6.164
 3871POPC   GL250174  26.171  29.214   6.164
 3871POPC   C1A50175  26.077  29.099   6.464
 3871POPC   D2A50176  25.997  29.148   6.764
 3871POPC   C3A50177  26.083  29.108   7.064
 3871POPC   C4A50178  26.017  29.124   7.364
 3871POPC   C1B50179  26.206  29.305   6.464
 3871POPC   C2B50180  26.280  29.334   6.764
 3871POPC   C3B50181  26.239  29.309   7.064
 3871POPC   C4B50182  26.287  29.280   7.364
 3872POPC   NC350183  30.684   5.119   5.564
 3872POPC   PO450184  30.666   5.140   5.864
 3872POPC   GL150185  30.665   5.129   6.164
 3872POPC   GL250186  30.768   5.186   6.164
 3872POPC   C1A50187  30.678   5.048   6.464
 3872POPC   D2A50188  30.706   5.074   6.764
 3872POPC   C3A50189  30.697   5.125   7.064
 3872POPC   C4A50190  30.682   5.043   7.364
 3872POPC   C1B50191  30.837   5.333   6.464
 3872POPC   C2B50192  30.883   5.335   6.764
 3872POPC   C3B50193  30.822   5.316   7.064
 3872POPC   C4B50194  30.841   5.266   7.364
 3873POPC   NC350195  38.441   2.788   5.564
 3873POPC   PO450196  38.458   2.730   5.864
 3873POPC   GL150197  38.409   2.752   6.164
 3873POPC   GL250198  38.471   2.840   6.164
 3873POPC   C1A50199  38.479   2.801   6.464
 3873POPC   D2A50200  38.438   2.796   6.764
 3873POPC   C3A50201  38.452   2.720   7.064
 3873POPC   C4A50202  38.443   2.722   7.364
 3873POPC   C1B50203  38.543   2.944   6.464
 3873POPC   C2B50204  38.567   2.941   6.764
 3873POPC   C3B50205  38.519   2.939   7.064
 3873POPC   C4B50206  38.592   2.958   7.364
 3874POPC   NC350207  20.585  23.684   5.564
 3874POPC   PO450208  20.567  23.712   5.864
 3874POPC   GL150209  20.629  23.739   6.164
 3874POPC   GL250210  20.591  23.608   6.164
 3874POPC   C1A50211  20.603  23.702   6.464
 3874POPC   D2A50212  20.613  23.712   6.764
 3874POPC   C3A50213  20.584  23.729   7.064
 3874POPC   C4A50214  20.653  23.675   7.364
 3874POPC   C1B50215  20.565  23.457   6.464
 3874POPC   C2B50216  20.602  23.490   6.764
 3874POPC   C3B50217  20.536  23.425   7.064
 3874POPC   C4B50218  20.549  23.500   7.364
 3875POPC   NC350219  17.553  33.012   5.564
 3875POPC   PO450220  17.550  33.061   5.864
 3875POPC   GL150221  17.540  33.052   6.164
 3875POPC   GL250222  17.438  32.912   6.164
 3875POPC   C1A50223  17.500  32.975   6.464
 3875POPC   D2A50224  17.552  33.057   6.764
 3875POPC   C3A50225  17.484  33.061   7.064
 3875POPC   C4A50226  17.501  33.029   7.364
 3875POPC   C1B50227  17.273  32.853   6.464
 3875POPC   C2B50228  17.322  32.855   6.764
 3875POPC   C3B50229  17.336  32.855   7.064
 3875POPC   C4B50230  17.281  32.889   7.364
 3876POPC   NC350231  36.855  44.680   5.564
 3876POPC   PO450232  36.919  44.627   5.864
 3876POPC   GL150233  36.855  44.632   6.164
 3876POPC   GL250234  37.013  44.808   6.164
 3876POPC   C1A50235  36.899  44.671   6.464
 3876POPC   D2A50236  36.949  44.706   6.764
 3876POPC   C3A50237  36.859  44.701   7.064
 3876POPC   C4A50238  36.901  44.657   7.364
 3876POPC   C1B50239  37.051  44.886   6.464
 3876POPC   C2B50240  37.054  44.872   6.764
 3876POPC   C3B50241  37.079  44.833   7.064
 3876POPC   C4B50242  37.073  44.912   7.364
 3877POPC   NC350243  17.499   9.022   5.564
 3877POPC   PO450244  17.499   8.975   5.864
 3877POPC   GL150245  17.481   8.982   6.164
 3877POPC   GL250246  17.470   9.078   6.164
 3877POPC   C1A50247  17.500   8.934   6.464
 3877POPC   D2A50248  17.494   9.015   6.764
 3877POPC   C3A50249  17.537   8.931   7.064
 3877POPC   C4A50250  17.518   8.976   7.364
 3877POPC   C1B50251  17.438   9.225   6.464
 3877POPC   C2B50252  17.391   9.176   6.764
 3877POPC   C3B50253  17.372   9.193   7.064
 3877POPC   C4B50254  17.428   9.175   7.364
 3878POPC   NC350255  44.684   8.179   5.564
 3878POPC   PO450256  44.712   8.201   5.864
 3878POPC   GL150257  44.652   8.165   6.164
 3878POPC   GL250258  44.552   8.224   6.164
 3878POPC   C1A50259  44.704   8.149   6.464
 3878POPC   D2A50260  44.625   8.207   6.764
 3878POPC   C3A50261  44.710   8.159   7.064
 3878POPC   C4A50262  44.689   8.188   7.364
 3878POPC   C1B50263  44.421   8.201   6.464
 3878POPC   C2B50264  44.381   8.160   6.764
 3878POPC   C3B50265  44.440   8.191   7.064
 3878POPC   C4B50266  44.450   8.234   7.364
 3879POPC   NC350267  15.134  26.789   5.564
 3879POPC   PO450268  15.172  26.865   5.864
 3879POPC   GL150269  15.154  26.843   6.164
 3879POPC   GL250270  15.137  26.943   6.164
 3879POPC   C1A50271  15.163  26.773   6.464
 3879POPC   D2A50272  15.222  26.837   6.764
 3879POPC   C3A50273  15.185  26.770   7.064
 3879POPC   C4A50274  15.154  26.849   7.364
 3879POPC   C1B50275  15.059  27.080   6.464
 3879POPC   C2B50276  15.020  27.011   6.764
 3879POPC   C3B50277  15.067  27.023   7.064
 3879POPC   C4B50278  15.093  27.014   7.364
 3880POPC   NC350279  41.534  20.576   5.564
 3880POPC   PO450280  41.565  20.613   5.864
 3880POPC   GL150281  41.526  20.586   6.164
 3880POPC   GL250282  41.682  20.669   6.164
 3880POPC   C1A50283  41.515  20.572   6.464
 3880POPC   D2A50284  41.557  20.576   6.764
 3880POPC   C3A50285  41.521  20.659   7.064
 3880POPC   C4A50286  41.582  20.659   7.364
 3880POPC   C1B50287  41.813  20.621   6.464
 3880POPC   C2B50288  41.789  20.643   6.764
 3880POPC   C3B50289  41.768  20.653   7.064
 3880POPC   C4B50290  41.835  20.641   7.364
 3881POPC   NC350291  41.593  37.678   5.564
 3881POPC   PO450292  41.517  37.676   5.864
 3881POPC   GL150293  41.558  37.630   6.164
 3881POPC   GL250294  41.488  37.549   6.164
 3881POPC   C1A50295  41.595  37.721   6.464
 3881POPC   D2A50296  41.538  37.727   6.764
 3881POPC   C3A50297  41.538  37.702   7.064
 3881POPC   C4A50298  41.586  37.726   7.364
 3881POPC   C1B50299  41.500  37.467   6.464
 3881POPC   C2B50300  41.496  37.426   6.764
 3881POPC   C3B50301  41.500  37.412   7.064
 3881POPC   C4B50302  41.480  37.441   7.364
 3882POPC   NC350303  17.518  28.327   5.564
 3882POPC   PO450304  17.467  28.383   5.864
 3882POPC   GL150305  17.512  28.342   6.164
 3882POPC   GL250306  17.378  28.334   6.164
 3882POPC   C1A50307  17.544  28.395   6.464
 3882POPC   D2A50308  17.531  28.411   6.764
 3882POPC   C3A50309  17.491  28.411   7.064
 3882POPC   C4A50310  17.475  28.418   7.364
 3882POPC   C1B50311  17.287  28.213   6.464
 3882POPC   C2B50312  17.293  28.252   6.764
 3882POPC   C3B50313  17.311  28.207   7.064
 3882POPC   C4B50314  17.275  28.269   7.364
 3883POPC   NC350315  33.751  21.368   5.564
 3883POPC   PO450316  33.783  21.385   5.864
 3883POPC   GL150317  33.758  21.390   6.164
 3883POPC   GL250318  33.699  21.348   6.164
 3883POPC   C1A50319  33.811  21.344   6.464
 3883POPC   D2A50320  33.836  21.374   6.764
 3883POPC   C3A50321  33.753  21.429   7.064
 3883POPC   C4A50322  33.818  21.428   7.364
 3883POPC   C1B50323  33.514  21.305   6.464
 3883POPC   C2B50324  33.569  21.288   6.764
 3883POPC   C3B50325  33.506  21.364   7.064
 3883POPC   C4B50326  33.562  21.334   7.364
 3884POPC   NC350327  29.891   1.168   5.564
 3884POPC   PO450328  29.872   1.202   5.864
 3884POPC   GL150329  29.938   1.222   6.164
 3884POPC   GL250330  29.943   1.125   6.164
 3884POPC   C1A50331  29.927   1.246   6.464
 3884POPC   D2A50332  29.873   1.226   6.764
 3884POPC   C3A50333  29.941   1.259   7.064
 3884POPC   C4A50334  29.952   1.180   7.364
 3884POPC   C1B50335  29.959   0.961   6.464
 3884POPC   C2B50336  29.940   0.954   6.764
 3884POPC   C3B50337  30.014   0.995   7.064
 3884POPC   C4B50338  30.013   0.974   7.364
 3885POPC   NC350339  36.127  43.884   5.564
 3885POPC   PO450340  36.133  43.845   5.864
 3885POPC   GL150341  36.079  43.927   6.164
 3885POPC   GL250342  36.271  43.961   6.164
 3885POPC   C1A50343  36.082  43.900   6.464
 3885POPC   D2A50344  36.126  43.864   6.764
 3885POPC   C3A50345  36.148  43.882   7.064
 3885POPC   C4A50346  36.120  43.921   7.364
 3885POPC   C1B50347  36.325  43.967   6.464
 3885POPC   C2B50348  36.347  43.936   6.764
 3885POPC   C3B50349  36.343  44.013   7.064
 3885POPC   C4B50350  36.323  43.967   7.364
 3886POPC   NC350351   7.416  16.707   5.564
 3886POPC   PO450352   7.408  16.686   5.864
 3886POPC   GL150353   7.407  16.713   6.164
 3886POPC   GL250354   7.317  16.708   6.164
 3886POPC   C1A50355   7.382  16.687   6.464
 3886POPC   D2A50356   7.467  16.749   6.764
 3886POPC   C3A50357   7.379  16.781   7.064
 3886POPC   C4A50358   7.402  16.716   7.364
 3886POPC   C1B50359   7.207  16.590   6.464
 3886POPC   C2B50360   7.248  16.638   6.764
 3886POPC   C3B50361   7.242  16.605   7.064
 3886POPC   C4B50362   7.238  16.630   7.364
 3887POPC   NC350363  27.565   4.355   5.564
 3887POPC   PO450364  27.575   4.272   5.864
 3887POPC   GL150365  27.626   4.336   6.164
 3887POPC   GL250366  27.682   4.219   6.164
 3887POPC   C1A50367  27.581   4.281   6.464
 3887POPC   D2A50368  27.586   4.367   6.764
 3887POPC   C3A50369  27.593   4.337   7.064
 3887POPC   C4A50370  27.606   4.304   7.364
 3887POPC   C1B50371  27.859   4.185   6.464
 3887POPC   C2B50372  27.781   4.214   6.764
 3887POPC   C3B50373  27.801   4.191   7.064
 3887POPC   C4B50374  27.847   4.174   7.364
 3888POPC   NC350375  33.052  40.048   5.564
 3888POPC   PO450376  33.051  39.976   5.864
 3888POPC   GL150377  32.993  40.034   6.164
 3888POPC   GL250378  32.913  40.078   6.164
 3888POPC   C1A50379  33.007  40.000   6.464
 3888POPC   D2A50380  32.992  39.978   6.764
 3888POPC   C3A50381  33.034  40.012   7.064
 3888POPC   C4A50382  32.987  40.018   7.364
 3888POPC   C1B50383  32.750  40.049   6.464
 3888POPC   C2B50384  32.794  40.051   6.764
 3888POPC   C3B50385  32.748  40.107   7.064
 3888POPC   C4B50386  32.763  40.111   7.364
 3889POPC   NC350387  15.155  15.926   5.564
 3889POPC   PO450388  15.155  15.907   5.864
 3889POPC   GL150389  15.206  15.922   6.164
 3889POPC   GL250390  15.298  15.864   6.164
 3889POPC   C1A50391  15.170  15.935   6.464
 3889POPC   D2A50392  15.227  15.959   6.764
 3889POPC   C3A50393  15.205  15.988   7.064
 3889POPC   C4A50394  15.213  15.926   7.364
 3889POPC   C1B50395  15.349  15.797   6.464
 3889POPC   C2B50396  15.364  15.733   6.764
 3889POPC   C3B50397  15.319  15.732   7.064
 3889POPC   C4B50398  15.373  15.766   7.364
 3890POPC   NC350399  36.164   7.412   5.564
 3890POPC   PO450400  36.134   7.443   5.864
 3890POPC   GL150401  36.117   7.458   6.164
 3890POPC   GL250402  36.054   7.406   6.164
 3890POPC   C1A50403  36.175   7.414   6.464
 3890POPC   D2A50404  36.103   7.415   6.764
 3890POPC   C3A50405  36.111   7.451   7.064
 3890POPC   C4A50406  36.119   7.460   7.364
 3890POPC   C1B50407  35.845   7.472   6.464
 3890POPC   C2B50408  35.897   7.444   6.764
 3890POPC   C3B50409  35.889   7.523   7.064
 3890POPC   C4B50410  35.875   7.484   7.364
 3891POPC   NC350411  20.604   7.432   5.564
 3891POPC   PO450412  20.613   7.381   5.864
 3891POPC   GL150413  20.648   7.465   6.164
 3891POPC   GL250414  20.464   7.414   6.164
 3891POPC   C1A50415  20.595   7.390   6.464
 3891POPC   D2A50416  20.629   7.379   6.764
 3891POPC   C3A50417  20.613   7.448   7.064
 3891POPC   C4A50418  20.583   7.432   7.364
 3891POPC   C1B50419  20.370   7.280   6.464
 3891POPC   C2B50420  20.333   7.331   6.764
 3891POPC   C3B50421  20.406   7.313   7.064
 3891POPC   C4B50422  20.423   7.345   7.364
 3892POPC   NC350423   0.409  43.127   5.564
 3892POPC   PO450424   0.484  43.135   5.864
 3892POPC   GL150425   0.486  43.120   6.164
 3892POPC   GL250426   0.382  43.265   6.164
 3892POPC   C1A50427   0.421  43.151   6.464
 3892POPC   D2A50428   0.394  43.134   6.764
 3892POPC   C3A50429   0.433  43.067   7.064
 3892POPC   C4A50430   0.405  43.085   7.364
 3892POPC   C1B50431   0.375  43.329   6.464
 3892POPC   C2B50432   0.402  43.309   6.764
 3892POPC   C3B50433   0.390  43.341   7.064
 3892POPC   C4B50434   0.326  43.357   7.364
 3893POPC   NC350435  41.556  30.673   5.564
 3893POPC   PO450436  41.541  30.696   5.864
 3893POPC   GL150437  41.554  30.653   6.164
 3893POPC   GL250438  41.536  30.793   6.164
 3893POPC   C1A50439  41.563  30.657   6.464
 3893POPC   D2A50440  41.517  30.687   6.764
 3893POPC   C3A50441  41.534  30.716   7.064
 3893POPC   C4A50442  41.547  30.745   7.364
 3893POPC   C1B50443  41.446  30.870   6.464
 3893POPC   C2B50444  41.434  30.864   6.764
 3893POPC   C3B50445  41.463  30.919   7.064
 3893POPC   C4B50446  41.389  30.916   7.364
 3894POPC   NC350447  15.948  11.294   5.564
 3894POPC   PO450448  15.959  11.348   5.864
 3894POPC   GL150449  15.965  11.349   6.164
 3894POPC   GL250450  16.006  11.212   6.164
 3894POPC   C1A50451  15.919  11.326   6.464
 3894POPC   D2A50452  15.952  11.276   6.764
 3894POPC   C3A50453  15.963  11.254   7.064
 3894POPC   C4A50454  15.920  11.332   7.364
 3894POPC   C1B50455  16.032  11.036   6.464
 3894POPC   C2B50456  16.094  11.026   6.764
 3894POPC   C3B50457  16.086  11.036   7.064
 3894POPC   C4B50458  16.058  11.066   7.364
 3895POPC   NC350459   7.455  21.369   5.564
 3895POPC   PO450460   7.459  21.350   5.864
 3895POPC   GL150461   7.402  21.388   6.164
 3895POPC   GL250462   7.462  21.460   6.164
 3895POPC   C1A50463   7.410  21.350   6.464
 3895POPC   D2A50464   7.420  21.343   6.764
 3895POPC   C3A50465   7.426  21.383   7.064
 3895POPC   C4A50466   7.463  21.387   7.364
 3895POPC   C1B50467   7.567  21.528   6.464
 3895POPC   C2B50468   7.618  21.573   6.764
 3895POPC   C3B50469   7.580  21.523   7.064
 3895POPC   C4B50470   7.575  21.607   7.364
 3896POPC   NC350471  10.515  36.902   5.564
 3896POPC   PO450472  10.477  36.901   5.864
 3896POPC   GL150473  10.565  36.936   6.164
 3896POPC   GL250474  10.611  36.833   6.164
 3896POPC   C1A50475  10.518  36.946   6.464
 3896POPC   D2A50476  10.543  36.861   6.764
 3896POPC   C3A50477  10.549  36.892   7.064
 3896POPC   C4A50478  10.524  36.890   7.364
 3896POPC   C1B50479  10.785  36.801   6.464
 3896POPC   C2B50480  10.732  36.776   6.764
 3896POPC   C3B50481  10.788  36.800   7.064
 3896POPC   C4B50482  10.768  36.808   7.364
 3897POPC   NC350483  19.808  36.087   5.564
 3897POPC   PO450484  19.808  36.097   5.864
 3897POPC   GL150485  19.852  36.162   6.164
 3897POPC   GL250486  19.905  36.039   6.164
 3897POPC   C1A50487  19.828  36.108   6.464
 3897POPC   D2A50488  19.788  36.115   6.764
 3897POPC   C3A50489  19.818  36.132   7.064
 3897POPC   C4A50490  19.851  36.174   7.364
 3897POPC   C1B50491  19.924  35.860   6.464
 3897POPC   C2B50492  19.920  35.909   6.764
 3897POPC   C3B50493  19.923  35.866   7.064
 3897POPC   C4B50494  19.932  35.855   7.364
 3898POPC   NC350495  38.410  35.398   5.564
 3898POPC   PO450496  38.489  35.391   5.864
 3898POPC   GL150497  38.413  35.399   6.164
 3898POPC   GL250498  38.465  35.230   6.164
 3898POPC   C1A50499  38.432  35.361   6.464
 3898POPC   D2A50500  38.412  35.320   6.764
 3898POPC   C3A50501  38.486  35.364   7.064
 3898POPC   C4A50502  38.464  35.319   7.364
 3898POPC   C1B50503  38.394  35.089   6.464
 3898POPC   C2B50504  38.424  35.098   6.764
 3898POPC   C3B50505  38.385  35.157   7.064
 3898POPC   C4B50506  38.353  35.157   7.364
 3899POPC   NC350507  41.519   9.736   5.564
 3899POPC   PO450508  41.550   9.749   5.864
 3899POPC   GL150509  41.583   9.768   6.164
 3899POPC   GL250510  41.578   9.824   6.164
 3899POPC   C1A50511  41.555   9.730   6.464
 3899POPC   D2A50512  41.590   9.756   6.764
 3899POPC   C3A50513  41.596   9.787   7.064
 3899POPC   C4A50514  41.573   9.718   7.364
 3899POPC   C1B50515  41.551  10.009   6.464
 3899POPC   C2B50516  41.597  10.016   6.764
 3899POPC   C3B50517  41.581   9.962   7.064
 3899POPC   C4B50518  41.559  10.007   7.364
 3900POPC   NC350519  20.636  12.124   5.564
 3900POPC   PO450520  20.630  12.029   5.864
 3900POPC   GL150521  20.582  12.062   6.164
 3900POPC   GL250522  20.733  12.217   6.164
 3900POPC   C1A50523  20.639  12.073   6.464
 3900POPC   D2A50524  20.634  12.043   6.764
 3900POPC   C3A50525  20.653  12.031   7.064
 3900POPC   C4A50526  20.629  12.100   7.364
 3900POPC   C1B50527  20.770  12.302   6.464
 3900POPC   C2B50528  20.757  12.302   6.764
 3900POPC   C3B50529  20.730  12.259   7.064
 3900POPC   C4B50530  20.765  12.305   7.364
 3901POPC   NC350531  41.586   5.135   5.564
 3901POPC   PO450532  41.595   5.068   5.864
 3901POPC   GL150533  41.544   5.046   6.164
 3901POPC   GL250534  41.450   5.225   6.164
 3901POPC   C1A50535  41.521   5.085   6.464
 3901POPC   D2A50536  41.583   5.056   6.764
 3901POPC   C3A50537  41.576   5.055   7.064
 3901POPC   C4A50538  41.556   5.087   7.364
 3901POPC   C1B50539  41.403   5.322   6.464
 3901POPC   C2B50540  41.435   5.237   6.764
 3901POPC   C3B50541  41.401   5.277   7.064
 3901POPC   C4B50542  41.377   5.272   7.364
 3902POPC   NC350543  20.603   9.019   5.564
 3902POPC   PO450544  20.630   8.931   5.864
 3902POPC   GL150545  20.620   8.968   6.164
 3902POPC   GL250546  20.551   8.918   6.164
 3902POPC   C1A50547  20.640   9.020   6.464
 3902POPC   D2A50548  20.572   8.963   6.764
 3902POPC   C3A50549  20.611   8.950   7.064
 3902POPC   C4A50550  20.602   8.928   7.364
 3902POPC   C1B50551  20.408   8.796   6.464
 3902POPC   C2B50552  20.356   8.824   6.764
 3902POPC   C3B50553  20.369   8.825   7.064
 3902POPC   C4B50554  20.437   8.828   7.364
 3903POPC   NC350555  11.268   2.004   5.564
 3903POPC   PO450556  11.349   2.031   5.864
 3903POPC   GL150557  11.348   1.950   6.164
 3903POPC   GL250558  11.138   1.986   6.164
 3903POPC   C1A50559  11.264   1.967   6.464
 3903POPC   D2A50560  11.333   2.019   6.764
 3903POPC   C3A50561  11.255   1.960   7.064
 3903POPC   C4A50562  11.312   1.979   7.364
 3903POPC   C1B50563  11.030   1.910   6.464
 3903POPC   C2B50564  11.091   1.906   6.764
 3903POPC   C3B50565  11.056   1.978   7.064
 3903POPC   C4B50566  11.012   1.918   7.364
 3904POPC   NC350567  31.441  36.121   5.564
 3904POPC   PO450568  31.441  36.114   5.864
 3904POPC   GL150569  31.489  36.093   6.164
 3904POPC   GL250570  31.545  36.169   6.164
 3904POPC   C1A50571  31.518  36.111   6.464
 3904POPC   D2A50572  31.468  36.133   6.764
 3904POPC   C3A50573  31.433  36.176   7.064
 3904POPC   C4A50574  31.472  36.135   7.364
 3904POPC   C1B50575  31.729  36.214   6.464
 3904POPC   C2B50576  31.671  36.233   6.764
 3904POPC   C3B50577  31.713  36.214   7.064
 3904POPC   C4B50578  31.678  36.249   7.364
 3905POPC   NC350579  33.756  40.733   5.564
 3905POPC   PO450580  33.848  40.770   5.864
 3905POPC   GL150581  33.753  40.779   6.164
 3905POPC   GL250582  33.835  40.854   6.164
 3905POPC   C1A50583  33.784  40.833   6.464
 3905POPC   D2A50584  33.786  40.741   6.764
 3905POPC   C3A50585  33.810  40.808   7.064
 3905POPC   C4A50586  33.771  40.817   7.364
 3905POPC   C1B50587  33.868  40.978   6.464
 3905POPC   C2B50588  33.919  41.017   6.764
 3905POPC   C3B50589  33.948  41.028   7.064
 3905POPC   C4B50590  33.961  40.998   7.364
 3906POPC   NC350591  29.122  36.102   5.564
 3906POPC   PO450592  29.155  36.164   5.864
 3906POPC   GL150593  29.098  36.090   6.164
 3906POPC   GL250594  29.079  36.214   6.164
 3906POPC   C1A50595  29.194  36.106   6.464
 3906POPC   D2A50596  29.143  36.148   6.764
 3906POPC   C3A50597  29.158  36.092   7.064
 3906POPC   C4A50598  29.111  36.170   7.364
 3906POPC   C1B50599  29.054  36.331   6.464
 3906POPC   C2B50600  29.075  36.380   6.764
 3906POPC   C3B50601  29.024  36.317   7.064
 3906POPC   C4B50602  29.042  36.386   7.364
 3907POPC   NC350603  43.934  19.061   5.564
 3907POPC   PO450604  43.845  19.059   5.864
 3907POPC   GL150605  43.875  19.053   6.164
 3907POPC   GL250606  43.730  19.149   6.164
 3907POPC   C1A50607  43.916  19.053   6.464
 3907POPC   D2A50608  43.840  19.082   6.764
 3907POPC   C3A50609  43.902  19.056   7.064
 3907POPC   C4A50610  43.917  19.049   7.364
 3907POPC   C1B50611  43.710  19.178   6.464
 3907POPC   C2B50612  43.653  19.223   6.764
 3907POPC   C3B50613  43.656  19.174   7.064
 3907POPC   C4B50614  43.702  19.235   7.364
 3908POPC   NC350615   9.778  10.559   5.564
 3908POPC   PO450616   9.709  10.569   5.864
 3908POPC   GL150617   9.745  10.542   6.164
 3908POPC   GL250618   9.869  10.384   6.164
 3908POPC   C1A50619   9.731  10.542   6.464
 3908POPC   D2A50620   9.713  10.568   6.764
 3908POPC   C3A50621   9.752  10.545   7.064
 3908POPC   C4A50622   9.711  10.529   7.364
 3908POPC   C1B50623   9.939  10.303   6.464
 3908POPC   C2B50624   9.869  10.321   6.764
 3908POPC   C3B50625   9.888  10.327   7.064
 3908POPC   C4B50626   9.946  10.297   7.364
 3909POPC   NC350627  12.886   5.051   5.564
 3909POPC   PO450628  12.818   5.097   5.864
 3909POPC   GL150629  12.854   5.092   6.164
 3909POPC   GL250630  12.723   4.973   6.164
 3909POPC   C1A50631  12.860   5.079   6.464
 3909POPC   D2A50632  12.806   5.096   6.764
 3909POPC   C3A50633  12.806   5.077   7.064
 3909POPC   C4A50634  12.816   5.104   7.364
 3909POPC   C1B50635  12.697   4.888   6.464
 3909POPC   C2B50636  12.641   4.940   6.764
 3909POPC   C3B50637  12.701   4.897   7.064
 3909POPC   C4B50638  12.707   4.964   7.364
 3910POPC   NC350639   3.509  39.246   5.564
 3910POPC   PO450640   3.503  39.260   5.864
 3910POPC   GL150641   3.559  39.248   6.164
 3910POPC   GL250642   3.617  39.297   6.164
 3910POPC   C1A50643   3.538  39.257   6.464
 3910POPC   D2A50644   3.522  39.191   6.764
 3910POPC   C3A50645   3.589  39.229   7.064
 3910POPC   C4A50646   3.580  39.226   7.364
 3910POPC   C1B50647   3.699  39.374   6.464
 3910POPC   C2B50648   3.676  39.405   6.764
 3910POPC   C3B50649   3.754  39.370   7.064
 3910POPC   C4B50650   3.662  39.465   7.364
 3911POPC   NC350651  33.005  44.623   5.564
 3911POPC   PO450652  33.030  44.707   5.864
 3911POPC   GL150653  33.057  44.673   6.164
 3911POPC   GL250654  33.110  44.596   6.164
 3911POPC   C1A50655  33.040  44.644   6.464
 3911POPC   D2A50656  32.993  44.692   6.764
 3911POPC   C3A50657  33.051  44.651   7.064
 3911POPC   C4A50658  33.025  44.636   7.364
 3911POPC   C1B50659  33.169  44.458   6.464
 3911POPC   C2B50660  33.221  44.464   6.764
 3911POPC   C3B50661  33.147  44.426   7.064
 3911POPC   C4B50662  33.147  44.437   7.364
 3912POPC   NC350663   3.525   5.907   5.564
 3912POPC   PO450664   3.494   5.826   5.864
 3912POPC   GL150665   3.525   5.870   6.164
 3912POPC   GL250666   3.614   5.964   6.164
 3912POPC   C1A50667   3.528   5.893   6.464
 3912POPC   D2A50668   3.511   5.864   6.764
 3912POPC   C3A50669   3.524   5.913   7.064
 3912POPC   C4A50670   3.559   5.907   7.364
 3912POPC   C1B50671   3.662   6.082   6.464
 3912POPC   C2B50672   3.669   6.084   6.764
 3912POPC   C3B50673   3.693   6.097   7.064
 3912POPC   C4B50674   3.656   6.035   7.364
 3913POPC   NC350675   5.860  29.176   5.564
 3913POPC   PO450676   5.913  29.116   5.864
 3913POPC   GL150677   5.917  29.097   6.164
 3913POPC   GL250678   5.824  28.986   6.164
 3913POPC   C1A50679   5.885  29.099   6.464
 3913POPC   D2A50680   5.872  29.148   6.764
 3913POPC   C3A50681   5.913  29.110   7.064
 3913POPC   C4A50682   5.917  29.146   7.364
 3913POPC   C1B50683   5.838  28.936   6.464
 3913POPC   C2B50684   5.852  28.881   6.764
 3913POPC   C3B50685   5.785  28.883   7.064
 3913POPC   C4B50686   5.802  28.881   7.364
 3914POPC   NC350687  39.267   6.640   5.564
 3914POPC   PO450688  39.202   6.662   5.864
 3914POPC   GL150689  39.235   6.600   6.164
 3914POPC   GL250690  39.112   6.734   6.164
 3914POPC   C1A50691  39.260   6.617   6.464
 3914POPC   D2A50692  39.192   6.650   6.764
 3914POPC   C3A50693  39.261   6.670   7.064
 3914POPC   C4A50694  39.200   6.631   7.364
 3914POPC   C1B50695  39.018   6.802   6.464
 3914POPC   C2B50696  38.967   6.736   6.764
 3914POPC   C3B50697  39.043   6.808   7.064
 3914POPC   C4B50698  39.003   6.747   7.364
 3915POPC   NC350699  15.927   8.225   5.564
 3915POPC   PO450700  15.977   8.167   5.864
 3915POPC   GL150701  15.994   8.203   6.164
 3915POPC   GL250702  15.816   8.167   6.164
 3915POPC   C1A50703  15.984   8.172   6.464
 3915POPC   D2A50704  15.951   8.243   6.764
 3915POPC   C3A50705  15.974   8.234   7.064
 3915POPC   C4A50706  16.004   8.159   7.364
 3915POPC   C1B50707  15.692   8.122   6.464
 3915POPC   C2B50708  15.689   8.140   6.764
 3915POPC   C3B50709  15.705   8.183   7.064
 3915POPC   C4B50710  15.754   8.201   7.364
 3916POPC   NC350711   8.247  40.739   5.564
 3916POPC   PO450712   8.162  40.831   5.864
 3916POPC   GL150713   8.157  40.746   6.164
 3916POPC   GL250714   8.196  40.893   6.164
 3916POPC   C1A50715   8.242  40.767   6.464
 3916POPC   D2A50716   8.227  40.806   6.764
 3916POPC   C3A50717   8.232  40.795   7.064
 3916POPC   C4A50718   8.241  40.798   7.364
 3916POPC   C1B50719   8.219  41.034   6.464
 3916POPC   C2B50720   8.259  41.031   6.764
 3916POPC   C3B50721   8.221  41.039   7.064
 3916POPC   C4B50722   8.258  41.077   7.364
 3917POPC   NC350723  36.162  43.149   5.564
 3917POPC   PO450724  36.170  43.066   5.864
 3917POPC   GL150725  36.164  43.062   6.164
 3917POPC   GL250726  35.988  43.129   6.164
 3917POPC   C1A50727  36.100  43.068   6.464
 3917POPC   D2A50728  36.134  43.094   6.764
 3917POPC   C3A50729  36.125  43.086   7.064
 3917POPC   C4A50730  36.079  43.131   7.364
 3917POPC   C1B50731  35.890  43.203   6.464
 3917POPC   C2B50732  35.877  43.171   6.764
 3917POPC   C3B50733  35.856  43.147   7.064
 3917POPC   C4B50734  35.938  43.176   7.364
 3918POPC   NC350735  12.053   0.402   5.564
 3918POPC   PO450736  12.059   0.438   5.864
 3918POPC   GL150737  12.108   0.470   6.164
 3918POPC   GL250738  12.166   0.553   6.164
 3918POPC   C1A50739  12.045   0.443   6.464
 3918POPC   D2A50740  12.038   0.475   6.764
 3918POPC   C3A50741  12.112   0.457   7.064
 3918POPC   C4A50742  12.103   0.391   7.364
 3918POPC   C1B50743  12.245   0.640   6.464
 3918POPC   C2B50744  12.240   0.591   6.764
 3918POPC   C3B50745  12.266   0.598   7.064
 3918POPC   C4B50746  12.276   0.656   7.364
 3919POPC   NC350747  15.158   9.704   5.564
 3919POPC   PO450748  15.169   9.731   5.864
 3919POPC   GL150749  15.164   9.725   6.164
 3919POPC   GL250750  15.217   9.661   6.164
 3919POPC   C1A50751  15.136   9.769   6.464
 3919POPC   D2A50752  15.142   9.793   6.764
 3919POPC   C3A50753  15.175   9.771   7.064
 3919POPC   C4A50754  15.157   9.749   7.364
 3919POPC   C1B50755  15.324   9.479   6.464
 3919POPC   C2B50756  15.294   9.493   6.764
 3919POPC   C3B50757  15.256   9.553   7.064
 3919POPC   C4B50758  15.234   9.528   7.364
 3920POPC   NC350759  19.036   4.367   5.564
 3920POPC   PO450760  19.083   4.286   5.864
 3920POPC   GL150761  19.089   4.346   6.164
 3920POPC   GL250762  19.117   4.166   6.164
 3920POPC   C1A50763  19.023   4.326   6.464
 3920POPC   D2A50764  19.027   4.275   6.764
 3920POPC   C3A50765  19.039   4.278   7.064
 3920POPC   C4A50766  19.072   4.267   7.364
 3920POPC   C1B50767  19.168   4.046   6.464
 3920POPC   C2B50768  19.136   4.100   6.764
 3920POPC   C3B50769  19.119   4.115   7.064
 3920POPC   C4B50770  19.145   4.120   7.364
 3921POPC   NC350771  10.554   2.811   5.564
 3921POPC   PO450772  10.565   2.758   5.864
 3921POPC   GL150773  10.542   2.765   6.164
 3921POPC   GL250774  10.438   2.795   6.164
 3921POPC   C1A50775  10.521   2.778   6.464
 3921POPC   D2A50776  10.489   2.722   6.764
 3921POPC   C3A50777  10.569   2.796   7.064
 3921POPC   C4A50778  10.563   2.763   7.364
 3921POPC   C1B50779  10.241   2.841   6.464
 3921POPC   C2B50780  10.293   2.844   6.764
 3921POPC   C3B50781  10.297   2.792   7.064
 3921POPC   C4B50782  10.267   2.777   7.364
 3922POPC   NC350783  39.991  33.001   5.564
 3922POPC   PO450784  39.992  33.035   5.864
 3922POPC   GL150785  40.026  33.073   6.164
 3922POPC   GL250786  39.968  33.171   6.164
 3922POPC   C1A50787  39.973  32.995   6.464
 3922POPC   D2A50788  39.967  33.043   6.764
 3922POPC   C3A50789  40.053  33.029   7.064
 3922POPC   C4A50790  40.011  33.027   7.364
 3922POPC   C1B50791  39.899  33.228   6.464
 3922POPC   C2B50792  39.934  33.210   6.764
 3922POPC   C3B50793  39.951  33.304   7.064
 3922POPC   C4B50794  39.928  33.249   7.364
 3923POPC   NC350795   1.178  34.585   5.564
 3923POPC   PO450796   1.221  34.562   5.864
 3923POPC   GL150797   1.221  34.597   6.164
 3923POPC   GL250798   1.300  34.568   6.164
 3923POPC   C1A50799   1.203  34.547   6.464
 3923POPC   D2A50800   1.230  34.598   6.764
 3923POPC   C3A50801   1.182  34.582   7.064
 3923POPC   C4A50802   1.257  34.599   7.364
 3923POPC   C1B50803   1.424  34.566   6.464
 3923POPC   C2B50804   1.499  34.543   6.764
 3923POPC   C3B50805   1.469  34.532   7.064
 3923POPC   C4B50806   1.448  34.590   7.364
 3924POPC   NC350807  42.353  25.288   5.564
 3924POPC   PO450808  42.357  25.254   5.864
 3924POPC   GL150809  42.310  25.298   6.164
 3924POPC   GL250810  42.229  25.378   6.164
 3924POPC   C1A50811  42.375  25.249   6.464
 3924POPC   D2A50812  42.294  25.269   6.764
 3924POPC   C3A50813  42.334  25.291   7.064
 3924POPC   C4A50814  42.343  25.300   7.364
 3924POPC   C1B50815  42.120  25.469   6.464
 3924POPC   C2B50816  42.155  25.402   6.764
 3924POPC   C3B50817  42.136  25.410   7.064
 3924POPC   C4B50818  42.154  25.451   7.364
 3925POPC   NC350819  37.728  26.810   5.564
 3925POPC   PO450820  37.721  26.832   5.864
 3925POPC   GL150821  37.646  26.810   6.164
 3925POPC   GL250822  37.646  26.875   6.164
 3925POPC   C1A50823  37.698  26.845   6.464
 3925POPC   D2A50824  37.693  26.822   6.764
 3925POPC   C3A50825  37.722  26.780   7.064
 3925POPC   C4A50826  37.711  26.820   7.364
 3925POPC   C1B50827  37.536  27.047   6.464
 3925POPC   C2B50828  37.551  27.012   6.764
 3925POPC   C3B50829  37.490  26.992   7.064
 3925POPC   C4B50830  37.478  26.984   7.364
 3926POPC   NC350831  11.285  34.556   5.564
 3926POPC   PO450832  11.348  34.544   5.864
 3926POPC   GL150833  11.343  34.592   6.164
 3926POPC   GL250834  11.376  34.500   6.164
 3926POPC   C1A50835  11.318  34.625   6.464
 3926POPC   D2A50836  11.335  34.593   6.764
 3926POPC   C3A50837  11.302  34.595   7.064
 3926POPC   C4A50838  11.266  34.567   7.364
 3926POPC   C1B50839  11.508  34.438   6.464
 3926POPC   C2B50840  11.539  34.434   6.764
 3926POPC   C3B50841  11.527  34.496   7.064
 3926POPC   C4B50842  11.512  34.425   7.364
 3927POPC   NC350843   7.374  18.244   5.564
 3927POPC   PO450844   7.456  18.274   5.864
 3927POPC   GL150845   7.372  18.256   6.164
 3927POPC   GL250846   7.375  18.207   6.164
 3927POPC   C1A50847   7.414  18.276   6.464
 3927POPC   D2A50848   7.407  18.321   6.764
 3927POPC   C3A50849   7.450  18.328   7.064
 3927POPC   C4A50850   7.413  18.319   7.364
 3927POPC   C1B50851   7.381  18.007   6.464
 3927POPC   C2B50852   7.445  18.070   6.764
 3927POPC   C3B50853   7.418  18.016   7.064
 3927POPC   C4B50854   7.398  18.070   7.364
 3928POPC   NC350855  37.703  11.256   5.564
 3928POPC   PO450856  37.687  11.285   5.864
 3928POPC   GL150857  37.727  11.296   6.164
 3928POPC   GL250858  37.554  11.320   6.164
 3928POPC   C1A50859  37.683  11.281   6.464
 3928POPC   D2A50860  37.637  11.335   6.764
 3928POPC   C3A50861  37.630  11.294   7.064
 3928POPC   C4A50862  37.667  11.344   7.364
 3928POPC   C1B50863  37.419  11.339   6.464
 3928POPC   C2B50864  37.452  11.413   6.764
 3928POPC   C3B50865  37.395  11.382   7.064
 3928POPC   C4B50866  37.445  11.416   7.364
 3929POPC   NC350867   8.219  32.245   5.564
 3929POPC   PO450868   8.184  32.241   5.864
 3929POPC   GL150869   8.218  32.286   6.164
 3929POPC   GL250870   8.141  32.296   6.164
 3929POPC   C1A50871   8.208  32.269   6.464
 3929POPC   D2A50872   8.215  32.254   6.764
 3929POPC   C3A50873   8.240  32.218   7.064
 3929POPC   C4A50874   8.212  32.250   7.364
 3929POPC   C1B50875   8.032  32.342   6.464
 3929POPC   C2B50876   7.950  32.350   6.764
 3929POPC   C3B50877   7.963  32.348   7.064
 3929POPC   C4B50878   7.940  32.416   7.364
 3930POPC   NC350879  41.545   3.522   5.564
 3930POPC   PO450880  41.587   3.500   5.864
 3930POPC   GL150881  41.542   3.559   6.164
 3930POPC   GL250882  41.637   3.616   6.164
 3930POPC   C1A50883  41.575   3.587   6.464
 3930POPC   D2A50884  41.534   3.499   6.764
 3930POPC   C3A50885  41.593   3.569   7.064
 3930POPC   C4A50886  41.540   3.570   7.364
 3930POPC   C1B50887  41.695   3.695   6.464
 3930POPC   C2B50888  41.731   3.732   6.764
 3930POPC   C3B50889  41.740   3.748   7.064
 3930POPC   C4B50890  41.680   3.732   7.364
 3931POPC   NC350891  19.863   0.455   5.564
 3931POPC   PO450892  19.815   0.390   5.864
 3931POPC   GL150893  19.833   0.397   6.164
 3931POPC   GL250894  19.775   0.284   6.164
 3931POPC   C1A50895  19.834   0.460   6.464
 3931POPC   D2A50896  19.866   0.435   6.764
 3931POPC   C3A50897  19.795   0.482   7.064
 3931POPC   C4A50898  19.877   0.404   7.364
 3931POPC   C1B50899  19.805   0.220   6.464
 3931POPC   C2B50900  19.788   0.158   6.764
 3931POPC   C3B50901  19.801   0.228   7.064
 3931POPC   C4B50902  19.747   0.174   7.364
 3932POPC   NC350903  34.618  26.781   5.564
 3932POPC   PO450904  34.592  26.849   5.864
 3932POPC   GL150905  34.600  26.780   6.164
 3932POPC   GL250906  34.646  26.742   6.164
 3932POPC   C1A50907  34.532  26.771   6.464
 3932POPC   D2A50908  34.595  26.866   6.764
 3932POPC   C3A50909  34.619  26.780   7.064
 3932POPC   C4A50910  34.617  26.828   7.364
 3932POPC   C1B50911  34.802  26.687   6.464
 3932POPC   C2B50912  34.746  26.662   6.764
 3932POPC   C3B50913  34.730  26.633   7.064
 3932POPC   C4B50914  34.766  26.598   7.364
 3933POPC   NC350915  39.213  12.038   5.564
 3933POPC   PO450916  39.181  12.057   5.864
 3933POPC   GL150917  39.227  12.080   6.164
 3933POPC   GL250918  39.254  12.200   6.164
 3933POPC   C1A50919  39.219  12.091   6.464
 3933POPC   D2A50920  39.205  12.050   6.764
 3933POPC   C3A50921  39.277  12.121   7.064
 3933POPC   C4A50922  39.234  12.080   7.364
 3933POPC   C1B50923  39.261  12.291   6.464
 3933POPC   C2B50924  39.288  12.326   6.764
 3933POPC   C3B50925  39.316  12.285   7.064
 3933POPC   C4B50926  39.314  12.303   7.364
 3934POPC   NC350927  12.878  36.133   5.564
 3934POPC   PO450928  12.894  36.119   5.864
 3934POPC   GL150929  12.816  36.089   6.164
 3934POPC   GL250930  12.740  36.057   6.164
 3934POPC   C1A50931  12.866  36.153   6.464
 3934POPC   D2A50932  12.815  36.166   6.764
 3934POPC   C3A50933  12.829  36.153   7.064
 3934POPC   C4A50934  12.821  36.164   7.364
 3934POPC   C1B50935  12.716  35.958   6.464
 3934POPC   C2B50936  12.695  35.951   6.764
 3934POPC   C3B50937  12.704  35.881   7.064
 3934POPC   C4B50938  12.722  35.917   7.364
 3935POPC   NC350939  19.012   5.088   5.564
 3935POPC   PO450940  19.089   5.052   5.864
 3935POPC   GL150941  19.089   5.113   6.164
 3935POPC   GL250942  19.177   5.133   6.164
 3935POPC   C1A50943  19.107   5.131   6.464
 3935POPC   D2A50944  19.088   5.142   6.764
 3935POPC   C3A50945  19.087   5.091   7.064
 3935POPC   C4A50946  19.043   5.140   7.364
 3935POPC   C1B50947  19.320   5.166   6.464
 3935POPC   C2B50948  19.293   5.087   6.764
 3935POPC   C3B50949  19.305   5.110   7.064
 3935POPC   C4B50950  19.291   5.116   7.364
 3936POPC   NC350951  31.512  14.416   5.564
 3936POPC   PO450952  31.506  14.439   5.864
 3936POPC   GL150953  31.513  14.442   6.164
 3936POPC   GL250954  31.579  14.350   6.164
 3936POPC   C1A50955  31.513  14.436   6.464
 3936POPC   D2A50956  31.510  14.413   6.764
 3936POPC   C3A50957  31.498  14.430   7.064
 3936POPC   C4A50958  31.437  14.437   7.364
 3936POPC   C1B50959  31.761  14.387   6.464
 3936POPC   C2B50960  31.695  14.402   6.764
 3936POPC   C3B50961  31.696  14.428   7.064
 3936POPC   C4B50962  31.741  14.405   7.364
 3937POPC   NC350963   6.664  15.953   5.564
 3937POPC   PO450964   6.618  15.995   5.864
 3937POPC   GL150965   6.612  15.906   6.164
 3937POPC   GL250966   6.646  15.845   6.164
 3937POPC   C1A50967   6.649  15.987   6.464
 3937POPC   D2A50968   6.668  15.906   6.764
 3937POPC   C3A50969   6.647  15.964   7.064
 3937POPC   C4A50970   6.693  15.931   7.364
 3937POPC   C1B50971   6.512  15.684   6.464
 3937POPC   C2B50972   6.593  15.691   6.764
 3937POPC   C3B50973   6.583  15.706   7.064
 3937POPC   C4B50974   6.522  15.768   7.364
 3938POPC   NC350975  31.473  31.500   5.564
 3938POPC   PO450976  31.468  31.514   5.864
 3938POPC   GL150977  31.495  31.474   6.164
 3938POPC   GL250978  31.424  31.576   6.164
 3938POPC   C1A50979  31.510  31.501   6.464
 3938POPC   D2A50980  31.483  31.468   6.764
 3938POPC   C3A50981  31.482  31.445   7.064
 3938POPC   C4A50982  31.427  31.473   7.364
 3938POPC   C1B50983  31.408  31.675   6.464
 3938POPC   C2B50984  31.372  31.684   6.764
 3938POPC   C3B50985  31.335  31.740   7.064
 3938POPC   C4B50986  31.322  31.738   7.364
 3939POPC   NC350987  15.223   3.583   5.564
 3939POPC   PO450988  15.216   3.530   5.864
 3939POPC   GL150989  15.192   3.538   6.164
 3939POPC   GL250990  15.066   3.401   6.164
 3939POPC   C1A50991  15.188   3.534   6.464
 3939POPC   D2A50992  15.200   3.512   6.764
 3939POPC   C3A50993  15.210   3.529   7.064
 3939POPC   C4A50994  15.160   3.569   7.364
 3939POPC   C1B50995  15.071   3.305   6.464
 3939POPC   C2B50996  15.020   3.346   6.764
 3939POPC   C3B50997  15.013   3.291   7.064
 3939POPC   C4B50998  15.078   3.371   7.364
 3940POPC   NC350999  22.207  43.100   5.564
 3940POPC   PO451000  22.185  43.158   5.864
 3940POPC   GL151001  22.137  43.158   6.164
 3940POPC   GL251002  22.273  43.115   6.164
 3940POPC   C1A51003  22.115  43.127   6.464
 3940POPC   D2A51004  22.135  43.089   6.764
 3940POPC   C3A51005  22.176  43.117   7.064
 3940POPC   C4A51006  22.189  43.129   7.364
 3940POPC   C1B51007  22.419  43.003   6.464
 3940POPC   C2B51008  22.453  43.089   6.764
 3940POPC   C3B51009  22.432  43.083   7.064
 3940POPC   C4B51010  22.448  43.095   7.364
 3941POPC   NC351011  10.543  12.831   5.564
 3941POPC   PO451012  10.553  12.870   5.864
 3941POPC   GL151013  10.507  12.886   6.164
 3941POPC   GL251014  10.651  12.842   6.164
 3941POPC   C1A51015  10.493  12.826   6.464
 3941POPC   D2A51016  10.528  12.896   6.764
 3941POPC   C3A51017  10.540  12.883   7.064
 3941POPC   C4A51018  10.509  12.807   7.364
 3941POPC   C1B51019  10.797  12.907   6.464
 3941POPC   C2B51020  10.742  12.933   6.764
 3941POPC   C3B51021  10.809  12.905   7.064
 3941POPC   C4B51022  10.803  12.907   7.364
 3942POPC   NC351023   5.837   5.849   5.564
 3942POPC   PO451024   5.891   5.899   5.864
 3942POPC   GL151025   5.856   5.892   6.164
 3942POPC   GL251026   5.923   6.010   6.164
 3942POPC   C1A51027   5.884   5.892   6.464
 3942POPC   D2A51028   5.836   5.884   6.764
 3942POPC   C3A51029   5.874   5.894   7.064
 3942POPC   C4A51030   5.822   5.836   7.364
 3942POPC   C1B51031   5.963   6.093   6.464
 3942POPC   C2B51032   6.009   6.108   6.764
 3942POPC   C3B51033   6.012   6.060   7.064
 3942POPC   C4B51034   5.957   6.099   7.364
 3943POPC   NC351035   8.197   9.703   5.564
 3943POPC   PO451036   8.155   9.714   5.864
 3943POPC   GL151037   8.185   9.712   6.164
 3943POPC   GL251038   8.137   9.640   6.164
 3943POPC   C1A51039   8.190   9.732   6.464
 3943POPC   D2A51040   8.153   9.705   6.764
 3943POPC   C3A51041   8.204   9.740   7.064
 3943POPC   C4A51042   8.167   9.760   7.364
 3943POPC   C1B51043   8.051   9.578   6.464
 3943POPC   C2B51044   8.011   9.509   6.764
 3943POPC   C3B51045   8.110   9.503   7.064
 3943POPC   C4B51046   8.051   9.543   7.364
 3944POPC   NC351047  32.273  33.850   5.564
 3944POPC   PO451048  32.244  33.821   5.864
 3944POPC   GL151049  32.200  33.754   6.164
 3944POPC   GL251050  32.152  33.838   6.164
 3944POPC   C1A51051  32.245  33.773   6.464
 3944POPC   D2A51052  32.245  33.777   6.764
 3944POPC   C3A51053  32.286  33.801   7.064
 3944POPC   C4A51054  32.240  33.781   7.364
 3944POPC   C1B51055  32.064  33.940   6.464
 3944POPC   C2B51056  32.000  33.965   6.764
 3944POPC   C3B51057  31.993  33.984   7.064
 3944POPC   C4B51058  32.004  33.959   7.364
 3945POPC   NC351059   6.641  22.169   5.564
 3945POPC   PO451060   6.662  22.141   5.864
 3945POPC   GL151061   6.681  22.153   6.164
 3945POPC   GL251062   6.474  22.205   6.164
 3945POPC   C1A51063   6.674  22.129   6.464
 3945POPC   D2A51064   6.617  22.206   6.764
 3945POPC   C3A51065   6.600  22.139   7.064
 3945POPC   C4A51066   6.601  22.150   7.364
 3945POPC   C1B51067   6.346  22.146   6.464
 3945POPC   C2B51068   6.394  22.167   6.764
 3945POPC   C3B51069   6.352  22.150   7.064
 3945POPC   C4B51070   6.356  22.149   7.364
 3946POPC   NC351071   0.414  27.548   5.564
 3946POPC   PO451072   0.431  27.579   5.864
 3946POPC   GL151073   0.446  27.596   6.164
 3946POPC   GL251074   0.453  27.462   6.164
 3946POPC   C1A51075   0.437  27.620   6.464
 3946POPC   D2A51076   0.462  27.573   6.764
 3946POPC   C3A51077   0.428  27.612   7.064
 3946POPC   C4A51078   0.472  27.609   7.364
 3946POPC   C1B51079   0.577  27.384   6.464
 3946POPC   C2B51080   0.604  27.377   6.764
 3946POPC   C3B51081   0.611  27.353   7.064
 3946POPC   C4B51082   0.538  27.415   7.364
 3947POPC   NC351083  44.626  23.740   5.564
 3947POPC   PO451084  44.668  23.676   5.864
 3947POPC   GL151085  44.669  23.721   6.164
 3947POPC   GL251086  44.687  23.863   6.164
 3947POPC   C1A51087  44.707  23.728   6.464
 3947POPC   D2A51088  44.681  23.692   6.764
 3947POPC   C3A51089  44.672  23.680   7.064
 3947POPC   C4A51090  44.659  23.732   7.364
 3947POPC   C1B51091  44.714  23.976   6.464
 3947POPC   C2B51092  44.670  23.971   6.764
 3947POPC   C3B51093  44.712  23.967   7.064
 3947POPC   C4B51094  44.672  23.962   7.364
 3948POPC   NC351095  26.033  37.644   5.564
 3948POPC   PO451096  25.994  37.702   5.864
 3948POPC   GL151097  26.035  37.645   6.164
 3948POPC   GL251098  25.976  37.599   6.164
 3948POPC   C1A51099  26.037  37.695   6.464
 3948POPC   D2A51100  26.080  37.643   6.764
 3948POPC   C3A51101  26.046  37.693   7.064
 3948POPC   C4A51102  26.007  37.651   7.364
 3948POPC   C1B51103  25.829  37.506   6.464
 3948POPC   C2B51104  25.900  37.535   6.764
 3948POPC   C3B51105  25.862  37.529   7.064
 3948POPC   C4B51106  25.860  37.515   7.364
 3949POPC   NC351107  12.817  20.612   5.564
 3949POPC   PO451108  12.852  20.562   5.864
 3949POPC   GL151109  12.829  20.608   6.164
 3949POPC   GL251110  12.906  20.507   6.164
 3949POPC   C1A51111  12.898  20.622   6.464
 3949POPC   D2A51112  12.880  20.585   6.764
 3949POPC   C3A51113  12.818  20.655   7.064
 3949POPC   C4A51114  12.889  20.634   7.364
 3949POPC   C1B51115  13.006  20.494   6.464
 3949POPC   C2B51116  13.010  20.488   6.764
 3949POPC   C3B51117  13.058  20.472   7.064
 3949POPC   C4B51118  13.066  20.479   7.364
 3950POPC   NC351119  25.293   6.651   5.564
 3950POPC   PO451120  25.293   6.604   5.864
 3950POPC   GL151121  25.249   6.685   6.164
 3950POPC   GL251122  25.343   6.563   6.164
 3950POPC   C1A51123  25.258   6.688   6.464
 3950POPC   D2A51124  25.241   6.625   6.764
 3950POPC   C3A51125  25.219   6.642   7.064
 3950POPC   C4A51126  25.248   6.600   7.364
 3950POPC   C1B51127  25.299   6.395   6.464
 3950POPC   C2B51128  25.318   6.408   6.764
 3950POPC   C3B51129  25.349   6.365   7.064
 3950POPC   C4B51130  25.374   6.439   7.364
 3951POPC   NC351131   4.288  18.237   5.564
 3951POPC   PO451132   4.329  18.316   5.864
 3951POPC   GL151133   4.327  18.276   6.164
 3951POPC   GL251134   4.238  18.419   6.164
 3951POPC   C1A51135   4.337  18.250   6.464
 3951POPC   D2A51136   4.364  18.278   6.764
 3951POPC   C3A51137   4.358  18.234   7.064
 3951POPC   C4A51138   4.362  18.281   7.364
 3951POPC   C1B51139   4.184  18.510   6.464
 3951POPC   C2B51140   4.205  18.529   6.764
 3951POPC   C3B51141   4.190  18.510   7.064
 3951POPC   C4B51142   4.220  18.465   7.364
 3952POPC   NC351143   8.926   5.894   5.564
 3952POPC   PO451144   8.944   5.891   5.864
 3952POPC   GL151145   8.971   5.822   6.164
 3952POPC   GL251146   8.999   5.945   6.164
 3952POPC   C1A51147   8.946   5.856   6.464
 3952POPC   D2A51148   8.942   5.843   6.764
 3952POPC   C3A51149   8.962   5.884   7.064
 3952POPC   C4A51150   8.930   5.902   7.364
 3952POPC   C1B51151   8.986   6.093   6.464
 3952POPC   C2B51152   9.011   6.152   6.764
 3952POPC   C3B51153   8.999   6.159   7.064
 3952POPC   C4B51154   8.964   6.105   7.364
 3953POPC   NC351155  11.310  24.507   5.564
 3953POPC   PO451156  11.276  24.457   5.864
 3953POPC   GL151157  11.264  24.504   6.164
 3953POPC   GL251158  11.190  24.429   6.164
 3953POPC   C1A51159  11.334  24.444   6.464
 3953POPC   D2A51160  11.264  24.480   6.764
 3953POPC   C3A51161  11.324  24.440   7.064
 3953POPC   C4A51162  11.328  24.527   7.364
 3953POPC   C1B51163  11.126  24.245   6.464
 3953POPC   C2B51164  11.124  24.316   6.764
 3953POPC   C3B51165  11.191  24.284   7.064
 3953POPC   C4B51166  11.181  24.296   7.364
 3954POPC   NC351167   9.785  42.300   5.564
 3954POPC   PO451168   9.775  42.309   5.864
 3954POPC   GL151169   9.754  42.289   6.164
 3954POPC   GL251170   9.688  42.424   6.164
 3954POPC   C1A51171   9.780  42.315   6.464
 3954POPC   D2A51172   9.762  42.338   6.764
 3954POPC   C3A51173   9.738  42.384   7.064
 3954POPC   C4A51174   9.701  42.304   7.364
 3954POPC   C1B51175   9.525  42.513   6.464
 3954POPC   C2B51176   9.554  42.549   6.764
 3954POPC   C3B51177   9.554  42.492   7.064
 3954POPC   C4B51178   9.543  42.496   7.364
 3955POPC   NC351179  23.737   1.164   5.564
 3955POPC   PO451180  23.728   1.219   5.864
 3955POPC   GL151181  23.692   1.221   6.164
 3955POPC   GL251182  23.731   1.313   6.164
 3955POPC   C1A51183  23.676   1.255   6.464
 3955POPC   D2A51184  23.717   1.189   6.764
 3955POPC   C3A51185  23.716   1.233   7.064
 3955POPC   C4A51186  23.720   1.230   7.364
 3955POPC   C1B51187  23.773   1.461   6.464
 3955POPC   C2B51188  23.819   1.440   6.764
 3955POPC   C3B51189  23.793   1.478   7.064
 3955POPC   C4B51190  23.821   1.428   7.364
 3956POPC   NC351191  29.172   2.034   5.564
 3956POPC   PO451192  29.137   1.955   5.864
 3956POPC   GL151193  29.150   1.967   6.164
 3956POPC   GL251194  29.211   2.113   6.164
 3956POPC   C1A51195  29.172   2.002   6.464
 3956POPC   D2A51196  29.177   1.972   6.764
 3956POPC   C3A51197  29.191   1.952   7.064
 3956POPC   C4A51198  29.146   1.983   7.364
 3956POPC   C1B51199  29.292   2.124   6.464
 3956POPC   C2B51200  29.360   2.143   6.764
 3956POPC   C3B51201  29.299   2.156   7.064
 3956POPC   C4B51202  29.288   2.180   7.364
 3957POPC   NC351203  19.048  18.251   5.564
 3957POPC   PO451204  19.049  18.288   5.864
 3957POPC   GL151205  19.027  18.301   6.164
 3957POPC   GL251206  18.909  18.200   6.164
 3957POPC   C1A51207  19.045  18.269   6.464
 3957POPC   D2A51208  19.067  18.244   6.764
 3957POPC   C3A51209  19.108  18.321   7.064
 3957POPC   C4A51210  19.017  18.260   7.364
 3957POPC   C1B51211  18.831  18.201   6.464
 3957POPC   C2B51212  18.793  18.203   6.764
 3957POPC   C3B51213  18.865  18.182   7.064
 3957POPC   C4B51214  18.838  18.187   7.364
 3958POPC   NC351215   5.888  22.182   5.564
 3958POPC   PO451216   5.906  22.211   5.864
 3958POPC   GL151217   5.898  22.115   6.164
 3958POPC   GL251218   5.748  22.282   6.164
 3958POPC   C1A51219   5.822  22.173   6.464
 3958POPC   D2A51220   5.901  22.167   6.764
 3958POPC   C3A51221   5.833  22.198   7.064
 3958POPC   C4A51222   5.864  22.207   7.364
 3958POPC   C1B51223   5.640  22.282   6.464
 3958POPC   C2B51224   5.658  22.290   6.764
 3958POPC   C3B51225   5.635  22.337   7.064
 3958POPC   C4B51226   5.677  22.350   7.364
 3959POPC   NC351227   2.036   2.022   5.564
 3959POPC   PO451228   2.030   1.975   5.864
 3959POPC   GL151229   1.967   2.007   6.164
 3959POPC   GL251230   1.931   1.877   6.164
 3959POPC   C1A51231   1.977   1.956   6.464
 3959POPC   D2A51232   1.948   2.015   6.764
 3959POPC   C3A51233   1.947   1.958   7.064
 3959POPC   C4A51234   1.985   1.965   7.364
 3959POPC   C1B51235   1.851   1.855   6.464
 3959POPC   C2B51236   1.860   1.834   6.764
 3959POPC   C3B51237   1.850   1.788   7.064
 3959POPC   C4B51238   1.845   1.796   7.364
 3960POPC   NC351239   1.999  10.479   5.564
 3960POPC   PO451240   2.004  10.484   5.864
 3960POPC   GL151241   1.952  10.543   6.164
 3960POPC   GL251242   2.045  10.385   6.164
 3960POPC   C1A51243   2.036  10.534   6.464
 3960POPC   D2A51244   1.972  10.563   6.764
 3960POPC   C3A51245   1.967  10.537   7.064
 3960POPC   C4A51246   1.998  10.508   7.364
 3960POPC   C1B51247   1.960  10.230   6.464
 3960POPC   C2B51248   1.973  10.248   6.764
 3960POPC   C3B51249   2.015  10.273   7.064
 3960POPC   C4B51250   2.036  10.266   7.364
 3961POPC   NC351251  20.596  22.176   5.564
 3961POPC   PO451252  20.624  22.114   5.864
 3961POPC   GL151253  20.584  22.123   6.164
 3961POPC   GL251254  20.708  22.145   6.164
 3961POPC   C1A51255  20.639  22.179   6.464
 3961POPC   D2A51256  20.606  22.128   6.764
 3961POPC   C3A51257  20.635  22.156   7.064
 3961POPC   C4A51258  20.650  22.191   7.364
 3961POPC   C1B51259  20.874  22.029   6.464
 3961POPC   C2B51260  20.815  22.052   6.764
 3961POPC   C3B51261  20.801  22.062   7.064
 3961POPC   C4B51262  20.864  22.055   7.364
 3962POPC   NC351263   0.395  12.061   5.564
 3962POPC   PO451264   0.400  12.074   5.864
 3962POPC   GL151265   0.452  12.089   6.164
 3962POPC   GL251266   0.289  12.043   6.164
 3962POPC   C1A51267   0.429  12.057   6.464
 3962POPC   D2A51268   0.481  12.119   6.764
 3962POPC   C3A51269   0.433  12.074   7.064
 3962POPC   C4A51270   0.423  12.086   7.364
 3962POPC   C1B51271   0.199  11.937   6.464
 3962POPC   C2B51272   0.201  11.938   6.764
 3962POPC   C3B51273   0.265  12.001   7.064
 3962POPC   C4B51274   0.232  11.982   7.364
 3963POPC   NC351275  24.446  24.526   5.564
 3963POPC   PO451276  24.525  24.464   5.864
 3963POPC   GL151277  24.471  24.474   6.164
 3963POPC   GL251278  24.459  24.427   6.164
 3963POPC   C1A51279  24.458  24.502   6.464
 3963POPC   D2A51280  24.512  24.497   6.764
 3963POPC   C3A51281  24.499  24.470   7.064
 3963POPC   C4A51282  24.531  24.494   7.364
 3963POPC   C1B51283  24.365  24.304   6.464
 3963POPC   C2B51284  24.352  24.272   6.764
 3963POPC   C3B51285  24.352  24.326   7.064
 3963POPC   C4B51286  24.336  24.273   7.364
 3964POPC   NC351287  33.005   0.483   5.564
 3964POPC   PO451288  33.071   0.424   5.864
 3964POPC   GL151289  32.987   0.429   6.164
 3964POPC   GL251290  33.062   0.331   6.164
 3964POPC   C1A51291  32.985   0.475   6.464
 3964POPC   D2A51292  33.071   0.481   6.764
 3964POPC   C3A51293  33.070   0.476   7.064
 3964POPC   C4A51294  33.070   0.416   7.364
 3964POPC   C1B51295  33.061   0.237   6.464
 3964POPC   C2B51296  32.974   0.222   6.764
 3964POPC   C3B51297  32.988   0.139   7.064
 3964POPC   C4B51298  32.977   0.144   7.364
 3965POPC   NC351299  33.848   3.493   5.564
 3965POPC   PO451300  33.825   3.568   5.864
 3965POPC   GL151301  33.785   3.503   6.164
 3965POPC   GL251302  33.694   3.495   6.164
 3965POPC   C1A51303  33.779   3.510   6.464
 3965POPC   D2A51304  33.798   3.567   6.764
 3965POPC   C3A51305  33.849   3.505   7.064
 3965POPC   C4A51306  33.835   3.569   7.364
 3965POPC   C1B51307  33.515   3.499   6.464
 3965POPC   C2B51308  33.502   3.522   6.764
 3965POPC   C3B51309  33.583   3.493   7.064
 3965POPC   C4B51310  33.515   3.573   7.364
 3966POPC   NC351311  26.820  41.555   5.564
 3966POPC   PO451312  26.811  41.572   5.864
 3966POPC   GL151313  26.787  41.527   6.164
 3966POPC   GL251314  26.956  41.583   6.164
 3966POPC   C1A51315  26.835  41.551   6.464
 3966POPC   D2A51316  26.863  41.516   6.764
 3966POPC   C3A51317  26.852  41.573   7.064
 3966POPC   C4A51318  26.849  41.520   7.364
 3966POPC   C1B51319  27.026  41.627   6.464
 3966POPC   C2B51320  27.051  41.669   6.764
 3966POPC   C3B51321  27.098  41.575   7.064
 3966POPC   C4B51322  27.013  41.654   7.364
 3967POPC   NC351323  36.106  18.282   5.564
 3967POPC   PO451324  36.152  18.269   5.864
 3967POPC   GL151325  36.089  18.244   6.164
 3967POPC   GL251326  36.259  18.273   6.164
 3967POPC   C1A51327  36.176  18.274   6.464
 3967POPC   D2A51328  36.130  18.263   6.764
 3967POPC   C3A51329  36.111  18.294   7.064
 3967POPC   C4A51330  36.130  18.265   7.364
 3967POPC   C1B51331  36.399  18.231   6.464
 3967POPC   C2B51332  36.384  18.176   6.764
 3967POPC   C3B51333  36.342  18.159   7.064
 3967POPC   C4B51334  36.342  18.252   7.364
 3968POPC   NC351335  40.026  11.279   5.564
 3968POPC   PO451336  39.977  11.339   5.864
 3968POPC   GL151337  40.054  11.305   6.164
 3968POPC   GL251338  39.871  11.233   6.164
 3968POPC   C1A51339  40.046  11.267   6.464
 3968POPC   D2A51340  40.029  11.342   6.764
 3968POPC   C3A51341  40.045  11.278   7.064
 3968POPC   C4A51342  40.012  11.314   7.364
 3968POPC   C1B51343  39.807  11.210   6.464
 3968POPC   C2B51344  39.771  11.208   6.764
 3968POPC   C3B51345  39.746  11.204   7.064
 3968POPC   C4B51346  39.780  11.255   7.364
 3969POPC   NC351347   0.485  10.502   5.564
 3969POPC   PO451348   0.454  10.519   5.864
 3969POPC   GL151349   0.415  10.506   6.164
 3969POPC   GL251350   0.317  10.448   6.164
 3969POPC   C1A51351   0.449  10.540   6.464
 3969POPC   D2A51352   0.419  10.484   6.764
 3969POPC   C3A51353   0.421  10.559   7.064
 3969POPC   C4A51354   0.483  10.500   7.364
 3969POPC   C1B51355   0.339  10.312   6.464
 3969POPC   C2B51356   0.270  10.293   6.764
 3969POPC   C3B51357   0.253  10.340   7.064
 3969POPC   C4B51358   0.339  10.282   7.364
 3970POPC   NC351359  37.654  40.832   5.564
 3970POPC   PO451360  37.665  40.760   5.864
 3970POPC   GL151361  37.695  40.809   6.164
 3970POPC   GL251362  37.736  40.889   6.164
 3970POPC   C1A51363  37.649  40.808   6.464
 3970POPC   D2A51364  37.661  40.822   6.764
 3970POPC   C3A51365  37.708  40.737   7.064
 3970POPC   C4A51366  37.678  40.798   7.364
 3970POPC   C1B51367  37.783  40.956   6.464
 3970POPC   C2B51368  37.826  41.021   6.764
 3970POPC   C3B51369  37.873  40.962   7.064
 3970POPC   C4B51370  37.810  41.015   7.364
 3971POPC   NC351371  32.241   6.686   5.564
 3971POPC   PO451372  32.228   6.652   5.864
 3971POPC   GL151373  32.297   6.606   6.164
 3971POPC   GL251374  32.247   6.512   6.164
 3971POPC   C1A51375  32.208   6.694   6.464
 3971POPC   D2A51376  32.248   6.674   6.764
 3971POPC   C3A51377  32.277   6.638   7.064
 3971POPC   C4A51378  32.220   6.676   7.364
 3971POPC   C1B51379  32.326   6.421   6.464
 3971POPC   C2B51380  32.318   6.417   6.764
 3971POPC   C3B51381  32.296   6.383   7.064
 3971POPC   C4B51382  32.267   6.420   7.364
 3972POPC   NC351383  33.042  26.847   5.564
 3972POPC   PO451384  33.023  26.866   5.864
 3972POPC   GL151385  33.039  26.849   6.164
 3972POPC   GL251386  32.949  26.877   6.164
 3972POPC   C1A51387  33.061  26.863   6.464
 3972POPC   D2A51388  32.994  26.822   6.764
 3972POPC   C3A51389  33.013  26.838   7.064
 3972POPC   C4A51390  33.007  26.818   7.364
 3972POPC   C1B51391  32.814  26.864   6.464
 3972POPC   C2B51392  32.769  26.861   6.764
 3972POPC   C3B51393  32.739  26.873   7.064
 3972POPC   C4B51394  32.764  26.874   7.364
 3973POPC   NC351395  21.360  18.245   5.564
 3973POPC   PO451396  21.419  18.251   5.864
 3973POPC   GL151397  21.339  18.261   6.164
 3973POPC   GL251398  21.422  18.171   6.164
 3973POPC   C1A51399  21.346  18.323   6.464
 3973POPC   D2A51400  21.376  18.329   6.764
 3973POPC   C3A51401  21.421  18.280   7.064
 3973POPC   C4A51402  21.362  18.241   7.364
 3973POPC   C1B51403  21.462  18.087   6.464
 3973POPC   C2B51404  21.546  18.075   6.764
 3973POPC   C3B51405  21.456  18.071   7.064
 3973POPC   C4B51406  21.496  18.086   7.364
 3974POPC   NC351407  18.257   9.729   5.564
 3974POPC   PO451408  18.305   9.772   5.864
 3974POPC   GL151409  18.295   9.767   6.164
 3974POPC   GL251410  18.177   9.782   6.164
 3974POPC   C1A51411  18.280   9.787   6.464
 3974POPC   D2A51412  18.293   9.709   6.764
 3974POPC   C3A51413  18.247   9.794   7.064
 3974POPC   C4A51414  18.324   9.794   7.364
 3974POPC   C1B51415  17.986   9.740   6.464
 3974POPC   C2B51416  18.018   9.735   6.764
 3974POPC   C3B51417  18.062   9.739   7.064
 3974POPC   C4B51418  18.001   9.755   7.364
 3975POPC   NC351419  22.151  19.067   5.564
 3975POPC   PO451420  22.150  19.023   5.864
 3975POPC   GL151421  22.202  19.071   6.164
 3975POPC   GL251422  22.120  18.904   6.164
 3975POPC   C1A51423  22.157  19.083   6.464
 3975POPC   D2A51424  22.183  19.028   6.764
 3975POPC   C3A51425  22.200  19.019   7.064
 3975POPC   C4A51426  22.188  19.039   7.364
 3975POPC   C1B51427  22.060  18.776   6.464
 3975POPC   C2B51428  22.138  18.805   6.764
 3975POPC   C3B51429  22.125  18.788   7.064
 3975POPC   C4B51430  22.095  18.821   7.364
 3976POPC   NC351431  10.567  23.670   5.564
 3976POPC   PO451432  10.542  23.703   5.864
 3976POPC   GL151433  10.550  23.729   6.164
 3976POPC   GL251434  10.471  23.763   6.164
 3976POPC   C1A51435  10.518  23.688   6.464
 3976POPC   D2A51436  10.479  23.694   6.764
 3976POPC   C3A51437  10.531  23.689   7.064
 3976POPC   C4A51438  10.511  23.714   7.364
 3976POPC   C1B51439  10.403  23.923   6.464
 3976POPC   C2B51440  10.389  23.872   6.764
 3976POPC   C3B51441  10.379  23.905   7.064
 3976POPC   C4B51442  10.324  23.944   7.364
 3977POPC   NC351443  34.578  26.072   5.564
 3977POPC   PO451444  34.598  26.037   5.864
 3977POPC   GL151445  34.554  26.031   6.164
 3977POPC   GL251446  34.625  26.189   6.164
 3977POPC   C1A51447  34.538  26.072   6.464
 3977POPC   D2A51448  34.529  26.079   6.764
 3977POPC   C3A51449  34.530  25.992   7.064
 3977POPC   C4A51450  34.549  26.059   7.364
 3977POPC   C1B51451  34.700  26.203   6.464
 3977POPC   C2B51452  34.750  26.275   6.764
 3977POPC   C3B51453  34.731  26.278   7.064
 3977POPC   C4B51454  34.671  26.240   7.364
 3978POPC   NC351455  10.479  41.571   5.564
 3978POPC   PO451456  10.523  41.557   5.864
 3978POPC   GL151457  10.525  41.561   6.164
 3978POPC   GL251458  10.473  41.504   6.164
 3978POPC   C1A51459  10.490  41.519   6.464
 3978POPC   D2A51460  10.553  41.586   6.764
 3978POPC   C3A51461  10.490  41.544   7.064
 3978POPC   C4A51462  10.532  41.586   7.364
 3978POPC   C1B51463  10.348  41.453   6.464
 3978POPC   C2B51464  10.340  41.365   6.764
 3978POPC   C3B51465  10.342  41.393   7.064
 3978POPC   C4B51466  10.348  41.410   7.364
 3979POPC   NC351467  44.630   4.305   5.564
 3979POPC   PO451468  44.694   4.277   5.864
 3979POPC   GL151469  44.626   4.351   6.164
 3979POPC   GL251470  44.669   4.163   6.164
 3979POPC   C1A51471  44.690   4.302   6.464
 3979POPC   D2A51472  44.674   4.330   6.764
 3979POPC   C3A51473  44.711   4.313   7.064
 3979POPC   C4A51474  44.641   4.351   7.364
 3979POPC   C1B51475  44.665   4.108   6.464
 3979POPC   C2B51476  44.648   4.078   6.764
 3979POPC   C3B51477  44.634   4.066   7.064
 3979POPC   C4B51478  44.652   4.036   7.364
 3980POPC   NC351479  15.213  15.171   5.564
 3980POPC   PO451480  15.132  15.198   5.864
 3980POPC   GL151481  15.229  15.189   6.164
 3980POPC   GL251482  15.310  15.226   6.164
 3980POPC   C1A51483  15.220  15.181   6.464
 3980POPC   D2A51484  15.130  15.146   6.764
 3980POPC   C3A51485  15.149  15.133   7.064
 3980POPC   C4A51486  15.156  15.154   7.364
 3980POPC   C1B51487  15.399  15.394   6.464
 3980POPC   C2B51488  15.397  15.341   6.764
 3980POPC   C3B51489  15.386  15.376   7.064
 3980POPC   C4B51490  15.336  15.312   7.364
 3981POPC   NC351491  12.115  39.979   5.564
 3981POPC   PO451492  12.118  39.969   5.864
 3981POPC   GL151493  12.113  39.989   6.164
 3981POPC   GL251494  12.093  40.154   6.164
 3981POPC   C1A51495  12.100  40.010   6.464
 3981POPC   D2A51496  12.092  39.960   6.764
 3981POPC   C3A51497  12.034  40.047   7.064
 3981POPC   C4A51498  12.111  39.994   7.364
 3981POPC   C1B51499  11.999  40.287   6.464
 3981POPC   C2B51500  11.995  40.245   6.764
 3981POPC   C3B51501  12.030  40.228   7.064
 3981POPC   C4B51502  12.077  40.301   7.364
 3982POPC   NC351503   5.848  31.436   5.564
 3982POPC   PO451504   5.857  31.504   5.864
 3982POPC   GL151505   5.872  31.473   6.164
 3982POPC   GL251506   5.732  31.452   6.164
 3982POPC   C1A51507   5.835  31.443   6.464
 3982POPC   D2A51508   5.888  31.516   6.764
 3982POPC   C3A51509   5.873  31.459   7.064
 3982POPC   C4A51510   5.890  31.490   7.364
 3982POPC   C1B51511   5.649  31.329   6.464
 3982POPC   C2B51512   5.630  31.350   6.764
 3982POPC   C3B51513   5.674  31.351   7.064
 3982POPC   C4B51514   5.668  31.405   7.364
 3983POPC   NC351515  26.844   1.247   5.564
 3983POPC   PO451516  26.839   1.176   5.864
 3983POPC   GL151517  26.851   1.250   6.164
 3983POPC   GL251518  26.756   1.127   6.164
 3983POPC   C1A51519  26.779   1.221   6.464
 3983POPC   D2A51520  26.863   1.214   6.764
 3983POPC   C3A51521  26.815   1.174   7.064
 3983POPC   C4A51522  26.812   1.238   7.364
 3983POPC   C1B51523  26.794   0.981   6.464
 3983POPC   C2B51524  26.753   0.962   6.764
 3983POPC   C3B51525  26.747   1.015   7.064
 3983POPC   C4B51526  26.817   0.965   7.364
 3984POPC   NC351527  14.396  33.012   5.564
 3984POPC   PO451528  14.409  33.050   5.864
 3984POPC   GL151529  14.371  33.028   6.164
 3984POPC   GL251530  14.388  33.158   6.164
 3984POPC   C1A51531  14.443  33.072   6.464
 3984POPC   D2A51532  14.401  33.054   6.764
 3984POPC   C3A51533  14.383  33.044   7.064
 3984POPC   C4A51534  14.445  33.064   7.364
 3984POPC   C1B51535  14.391  33.228   6.464
 3984POPC   C2B51536  14.458  33.265   6.764
 3984POPC   C3B51537  14.400  33.242   7.064
 3984POPC   C4B51538  14.402  33.224   7.364
 3985POPC   NC351539  40.780  40.006   5.564
 3985POPC   PO451540  40.787  40.001   5.864
 3985POPC   GL151541  40.784  40.026   6.164
 3985POPC   GL251542  40.819  40.122   6.164
 3985POPC   C1A51543  40.826  39.986   6.464
 3985POPC   D2A51544  40.754  39.985   6.764
 3985POPC   C3A51545  40.792  39.985   7.064
 3985POPC   C4A51546  40.748  39.979   7.364
 3985POPC   C1B51547  40.991  40.211   6.464
 3985POPC   C2B51548  40.998  40.241   6.764
 3985POPC   C3B51549  40.946  40.217   7.064
 3985POPC   C4B51550  40.987  40.154   7.364
 3986POPC   NC351551   6.681   8.986   5.564
 3986POPC   PO451552   6.620   9.019   5.864
 3986POPC   GL151553   6.681   9.000   6.164
 3986POPC   GL251554   6.524   9.014   6.164
 3986POPC   C1A51555   6.666   9.003   6.464
 3986POPC   D2A51556   6.616   8.987   6.764
 3986POPC   C3A51557   6.607   8.962   7.064
 3986POPC   C4A51558   6.671   8.932   7.364
 3986POPC   C1B51559   6.422   9.033   6.464
 3986POPC   C2B51560   6.412   9.034   6.764
 3986POPC   C3B51561   6.406   9.037   7.064
 3986POPC   C4B51562   6.400   9.035   7.364
 3987POPC   NC351563  21.344  16.763   5.564
 3987POPC   PO451564  21.402  16.684   5.864
 3987POPC   GL151565  21.366  16.752   6.164
 3987POPC   GL251566  21.504  16.692   6.164
 3987POPC   C1A51567  21.387  16.750   6.464
 3987POPC   D2A51568  21.351  16.693   6.764
 3987POPC   C3A51569  21.361  16.733   7.064
 3987POPC   C4A51570  21.338  16.737   7.364
 3987POPC   C1B51571  21.636  16.733   6.464
 3987POPC   C2B51572  21.683  16.779   6.764
 3987POPC   C3B51573  21.611  16.771   7.064
 3987POPC   C4B51574  21.616  16.782   7.364
 3988POPC   NC351575  38.469  26.815   5.564
 3988POPC   PO451576  38.417  26.795   5.864
 3988POPC   GL151577  38.500  26.812   6.164
 3988POPC   GL251578  38.395  26.704   6.164
 3988POPC   C1A51579  38.500  26.844   6.464
 3988POPC   D2A51580  38.466  26.861   6.764
 3988POPC   C3A51581  38.496  26.783   7.064
 3988POPC   C4A51582  38.490  26.807   7.364
 3988POPC   C1B51583  38.367  26.553   6.464
 3988POPC   C2B51584  38.351  26.544   6.764
 3988POPC   C3B51585  38.383  26.560   7.064
 3988POPC   C4B51586  38.405  26.586   7.364
 3989POPC   NC351587   7.382  22.210   5.564
 3989POPC   PO451588   7.380  22.116   5.864
 3989POPC   GL151589   7.422  22.158   6.164
 3989POPC   GL251590   7.348  22.138   6.164
 3989POPC   C1A51591   7.392  22.169   6.464
 3989POPC   D2A51592   7.371  22.134   6.764
 3989POPC   C3A51593   7.454  22.179   7.064
 3989POPC   C4A51594   7.381  22.130   7.364
 3989POPC   C1B51595   7.188  22.059   6.464
 3989POPC   C2B51596   7.222  22.123   6.764
 3989POPC   C3B51597   7.220  22.071   7.064
 3989POPC   C4B51598   7.149  22.104   7.364
 3990POPC   NC351599  25.230  41.549   5.564
 3990POPC   PO451600  25.235  41.579   5.864
 3990POPC   GL151601  25.296  41.516   6.164
 3990POPC   GL251602  25.338  41.696   6.164
 3990POPC   C1A51603  25.219  41.563   6.464
 3990POPC   D2A51604  25.267  41.538   6.764
 3990POPC   C3A51605  25.263  41.519   7.064
 3990POPC   C4A51606  25.297  41.553   7.364
 3990POPC   C1B51607  25.361  41.788   6.464
 3990POPC   C2B51608  25.376  41.775   6.764
 3990POPC   C3B51609  25.403  41.736   7.064
 3990POPC   C4B51610  25.349  41.805   7.364
 3991POPC   NC351611  40.024  24.507   5.564
 3991POPC   PO451612  40.001  24.522   5.864
 3991POPC   GL151613  39.998  24.466   6.164
 3991POPC   GL251614  40.065  24.387   6.164
 3991POPC   C1A51615  39.988  24.493   6.464
 3991POPC   D2A51616  40.009  24.536   6.764
 3991POPC   C3A51617  40.026  24.465   7.064
 3991POPC   C4A51618  40.036  24.498   7.364
 3991POPC   C1B51619  40.111  24.247   6.464
 3991POPC   C2B51620  40.128  24.293   6.764
 3991POPC   C3B51621  40.097  24.302   7.064
 3991POPC   C4B51622  40.067  24.305   7.364
 3992POPC   NC351623  10.539  37.702   5.564
 3992POPC   PO451624  10.574  37.688   5.864
 3992POPC   GL151625  10.573  37.696   6.164
 3992POPC   GL251626  10.470  37.600   6.164
 3992POPC   C1A51627  10.482  37.630   6.464
 3992POPC   D2A51628  10.475  37.651   6.764
 3992POPC   C3A51629  10.539  37.689   7.064
 3992POPC   C4A51630  10.524  37.686   7.364
 3992POPC   C1B51631  10.532  37.395   6.464
 3992POPC   C2B51632  10.513  37.425   6.764
 3992POPC   C3B51633  10.511  37.420   7.064
 3992POPC   C4B51634  10.473  37.416   7.364
 3993POPC   NC351635  22.971   1.941   5.564
 3993POPC   PO451636  22.919   2.007   5.864
 3993POPC   GL151637  22.974   1.984   6.164
 3993POPC   GL251638  22.981   2.076   6.164
 3993POPC   C1A51639  22.926   1.966   6.464
 3993POPC   D2A51640  22.964   1.988   6.764
 3993POPC   C3A51641  22.940   1.946   7.064
 3993POPC   C4A51642  22.950   1.989   7.364
 3993POPC   C1B51643  23.069   2.248   6.464
 3993POPC   C2B51644  23.081   2.254   6.764
 3993POPC   C3B51645  23.068   2.218   7.064
 3993POPC   C4B51646  23.021   2.178   7.364
 3994POPC   NC351647  19.874  12.898   5.564
 3994POPC   PO451648  19.862  12.832   5.864
 3994POPC   GL151649  19.873  12.851   6.164
 3994POPC   GL251650  19.732  12.718   6.164
 3994POPC   C1A51651  19.788  12.868   6.464
 3994POPC   D2A51652  19.807  12.865   6.764
 3994POPC   C3A51653  19.882  12.817   7.064
 3994POPC   C4A51654  19.839  12.834   7.364
 3994POPC   C1B51655  19.759  12.653   6.464
 3994POPC   C2B51656  19.689  12.605   6.764
 3994POPC   C3B51657  19.724  12.636   7.064
 3994POPC   C4B51658  19.770  12.648   7.364
 3995POPC   NC351659  35.344  12.835   5.564
 3995POPC   PO451660  35.355  12.867   5.864
 3995POPC   GL151661  35.321  12.817   6.164
 3995POPC   GL251662  35.398  12.952   6.164
 3995POPC   C1A51663  35.388  12.873   6.464
 3995POPC   D2A51664  35.384  12.888   6.764
 3995POPC   C3A51665  35.365  12.836   7.064
 3995POPC   C4A51666  35.329  12.879   7.364
 3995POPC   C1B51667  35.428  13.055   6.464
 3995POPC   C2B51668  35.378  13.124   6.764
 3995POPC   C3B51669  35.436  13.137   7.064
 3995POPC   C4B51670  35.440  13.094   7.364
 3996POPC   NC351671  33.006  23.718   5.564
 3996POPC   PO451672  32.988  23.740   5.864
 3996POPC   GL151673  32.979  23.670   6.164
 3996POPC   GL251674  33.095  23.850   6.164
 3996POPC   C1A51675  33.073  23.687   6.464
 3996POPC   D2A51676  33.032  23.732   6.764
 3996POPC   C3A51677  33.003  23.673   7.064
 3996POPC   C4A51678  33.013  23.665   7.364
 3996POPC   C1B51679  33.131  23.931   6.464
 3996POPC   C2B51680  33.055  24.002   6.764
 3996POPC   C3B51681  33.132  23.998   7.064
 3996POPC   C4B51682  33.122  23.918   7.364
 3997POPC   NC351683   3.586   9.017   5.564
 3997POPC   PO451684   3.515   9.001   5.864
 3997POPC   GL151685   3.552   9.021   6.164
 3997POPC   GL251686   3.570   9.069   6.164
 3997POPC   C1A51687   3.552   8.978   6.464
 3997POPC   D2A51688   3.550   8.984   6.764
 3997POPC   C3A51689   3.575   9.017   7.064
 3997POPC   C4A51690   3.548   8.970   7.364
 3997POPC   C1B51691   3.554   9.260   6.464
 3997POPC   C2B51692   3.574   9.175   6.764
 3997POPC   C3B51693   3.611   9.193   7.064
 3997POPC   C4B51694   3.605   9.243   7.364
 3998POPC   NC351695  23.695  32.214   5.564
 3998POPC   PO451696  23.706  32.234   5.864
 3998POPC   GL151697  23.729  32.206   6.164
 3998POPC   GL251698  23.630  32.115   6.164
 3998POPC   C1A51699  23.685  32.213   6.464
 3998POPC   D2A51700  23.720  32.232   6.764
 3998POPC   C3A51701  23.705  32.260   7.064
 3998POPC   C4A51702  23.716  32.244   7.364
 3998POPC   C1B51703  23.584  31.981   6.464
 3998POPC   C2B51704  23.577  32.064   6.764
 3998POPC   C3B51705  23.607  31.974   7.064
 3998POPC   C4B51706  23.628  32.041   7.364
 3999POPC   NC351707  38.461  17.500   5.564
 3999POPC   PO451708  38.410  17.526   5.864
 3999POPC   GL151709  38.446  17.474   6.164
 3999POPC   GL251710  38.408  17.663   6.164
 3999POPC   C1A51711  38.424  17.556   6.464
 3999POPC   D2A51712  38.484  17.473   6.764
 3999POPC   C3A51713  38.440  17.532   7.064
 3999POPC   C4A51714  38.445  17.554   7.364
 3999POPC   C1B51715  38.441  17.745   6.464
 3999POPC   C2B51716  38.368  17.747   6.764
 3999POPC   C3B51717  38.352  17.755   7.064
 3999POPC   C4B51718  38.355  17.792   7.364
 4000POPC   NC351719  22.895   3.507   5.564
 4000POPC   PO451720  22.982   3.533   5.864
 4000POPC   GL151721  22.927   3.562   6.164
 4000POPC   GL251722  22.902   3.401   6.164
 4000POPC   C1A51723  22.931   3.564   6.464
 4000POPC   D2A51724  22.906   3.521   6.764
 4000POPC   C3A51725  22.946   3.586   7.064
 4000POPC   C4A51726  22.917   3.583   7.364
 4000POPC   C1B51727  22.902   3.312   6.464
 4000POPC   C2B51728  22.915   3.299   6.764
 4000POPC   C3B51729  22.925   3.265   7.064
 4000POPC   C4B51730  22.893   3.276   7.364
 4001POPC   NC351731  33.007  27.566   5.564
 4001POPC   PO451732  33.044  27.575   5.864
 4001POPC   GL151733  33.017  27.548   6.164
 4001POPC   GL251734  33.117  27.601   6.164
 4001POPC   C1A51735  33.003  27.638   6.464
 4001POPC   D2A51736  33.061  27.581   6.764
 4001POPC   C3A51737  32.978  27.633   7.064
 4001POPC   C4A51738  33.017  27.626   7.364
 4001POPC   C1B51739  33.232  27.642   6.464
 4001POPC   C2B51740  33.283  27.644   6.764
 4001POPC   C3B51741  33.236  27.680   7.064
 4001POPC   C4B51742  33.223  27.717   7.364
 4002POPC   NC351743  35.385  29.896   5.564
 4002POPC   PO451744  35.385  29.887   5.864
 4002POPC   GL151745  35.368  29.911   6.164
 4002POPC   GL251746  35.439  30.008   6.164
 4002POPC   C1A51747  35.309  29.970   6.464
 4002POPC   D2A51748  35.347  29.949   6.764
 4002POPC   C3A51749  35.319  29.925   7.064
 4002POPC   C4A51750  35.398  29.894   7.364
 4002POPC   C1B51751  35.487  30.059   6.464
 4002POPC   C2B51752  35.509  30.054   6.764
 4002POPC   C3B51753  35.546  30.056   7.064
 4002POPC   C4B51754  35.553  30.053   7.364
 4003POPC   NC351755  13.584  29.168   5.564
 4003POPC   PO451756  13.600  29.150   5.864
 4003POPC   GL151757  13.597  29.141   6.164
 4003POPC   GL251758  13.743  29.190   6.164
 4003POPC   C1A51759  13.610  29.173   6.464
 4003POPC   D2A51760  13.655  29.100   6.764
 4003POPC   C3A51761  13.598  29.104   7.064
 4003POPC   C4A51762  13.617  29.190   7.364
 4003POPC   C1B51763  13.779  29.349   6.464
 4003POPC   C2B51764  13.816  29.330   6.764
 4003POPC   C3B51765  13.757  29.330   7.064
 4003POPC   C4B51766  13.799  29.355   7.364
 4004POPC   NC351767  12.111  29.095   5.564
 4004POPC   PO451768  12.047  29.127   5.864
 4004POPC   GL151769  12.053  29.135   6.164
 4004POPC   GL251770  12.229  29.124   6.164
 4004POPC   C1A51771  12.055  29.158   6.464
 4004POPC   D2A51772  12.081  29.180   6.764
 4004POPC   C3A51773  12.097  29.183   7.064
 4004POPC   C4A51774  12.093  29.167   7.364
 4004POPC   C1B51775  12.341  29.119   6.464
 4004POPC   C2B51776  12.297  29.151   6.764
 4004POPC   C3B51777  12.335  29.149   7.064
 4004POPC   C4B51778  12.350  29.130   7.364
 4005POPC   NC351779  23.716  34.554   5.564
 4005POPC   PO451780  23.680  34.557   5.864
 4005POPC   GL151781  23.690  34.604   6.164
 4005POPC   GL251782  23.784  34.462   6.164
 4005POPC   C1A51783  23.763  34.544   6.464
 4005POPC   D2A51784  23.720  34.577   6.764
 4005POPC   C3A51785  23.701  34.607   7.064
 4005POPC   C4A51786  23.730  34.541   7.364
 4005POPC   C1B51787  23.843  34.340   6.464
 4005POPC   C2B51788  23.772  34.345   6.764
 4005POPC   C3B51789  23.821  34.315   7.064
 4005POPC   C4B51790  23.837  34.366   7.364
 4006POPC   NC351791  10.480  13.673   5.564
 4006POPC   PO451792  10.561  13.616   5.864
 4006POPC   GL151793  10.497  13.618   6.164
 4006POPC   GL251794  10.452  13.567   6.164
 4006POPC   C1A51795  10.556  13.587   6.464
 4006POPC   D2A51796  10.543  13.647   6.764
 4006POPC   C3A51797  10.548  13.638   7.064
 4006POPC   C4A51798  10.572  13.658   7.364
 4006POPC   C1B51799  10.280  13.538   6.464
 4006POPC   C2B51800  10.283  13.534   6.764
 4006POPC   C3B51801  10.261  13.537   7.064
 4006POPC   C4B51802  10.277  13.516   7.364
 4007POPC   NC351803  28.370  18.274   5.564
 4007POPC   PO451804  28.377  18.323   5.864
 4007POPC   GL151805  28.375  18.268   6.164
 4007POPC   GL251806  28.215  18.300   6.164
 4007POPC   C1A51807  28.389  18.256   6.464
 4007POPC   D2A51808  28.357  18.251   6.764
 4007POPC   C3A51809  28.397  18.310   7.064
 4007POPC   C4A51810  28.409  18.263   7.364
 4007POPC   C1B51811  28.104  18.306   6.464
 4007POPC   C2B51812  28.095  18.288   6.764
 4007POPC   C3B51813  28.080  18.299   7.064
 4007POPC   C4B51814  28.110  18.333   7.364
 4008POPC   NC351815  15.224  29.964   5.564
 4008POPC   PO451816  15.157  29.919   5.864
 4008POPC   GL151817  15.145  29.957   6.164
 4008POPC   GL251818  15.144  30.061   6.164
 4008POPC   C1A51819  15.153  29.900   6.464
 4008POPC   D2A51820  15.221  29.937   6.764
 4008POPC   C3A51821  15.145  29.940   7.064
 4008POPC   C4A51822  15.164  29.887   7.364
 4008POPC   C1B51823  15.024  30.078   6.464
 4008POPC   C2B51824  15.062  30.144   6.764
 4008POPC   C3B51825  15.068  30.087   7.064
 4008POPC   C4B51826  15.013  30.126   7.364
 4009POPC   NC351827   7.457  29.957   5.564
 4009POPC   PO451828   7.390  29.918   5.864
 4009POPC   GL151829   7.440  29.928   6.164
 4009POPC   GL251830   7.318  29.813   6.164
 4009POPC   C1A51831   7.397  29.909   6.464
 4009POPC   D2A51832   7.382  29.889   6.764
 4009POPC   C3A51833   7.372  29.918   7.064
 4009POPC   C4A51834   7.432  29.923   7.364
 4009POPC   C1B51835   7.272  29.663   6.464
 4009POPC   C2B51836   7.282  29.691   6.764
 4009POPC   C3B51837   7.313  29.697   7.064
 4009POPC   C4B51838   7.309  29.729   7.364
 4010POPC   NC351839   9.771  26.809   5.564
 4010POPC   PO451840   9.759  26.803   5.864
 4010POPC   GL151841   9.785  26.803   6.164
 4010POPC   GL251842   9.746  26.706   6.164
 4010POPC   C1A51843   9.798  26.845   6.464
 4010POPC   D2A51844   9.735  26.809   6.764
 4010POPC   C3A51845   9.772  26.769   7.064
 4010POPC   C4A51846   9.705  26.770   7.364
 4010POPC   C1B51847   9.774  26.588   6.464
 4010POPC   C2B51848   9.748  26.616   6.764
 4010POPC   C3B51849   9.698  26.542   7.064
 4010POPC   C4B51850   9.727  26.550   7.364
 4011POPC   NC351851  39.967  36.145   5.564
 4011POPC   PO451852  39.971  36.097   5.864
 4011POPC   GL151853  39.958  36.126   6.164
 4011POPC   GL251854  39.933  36.022   6.164
 4011POPC   C1A51855  40.018  36.117   6.464
 4011POPC   D2A51856  39.993  36.118   6.764
 4011POPC   C3A51857  40.029  36.127   7.064
 4011POPC   C4A51858  39.987  36.131   7.364
 4011POPC   C1B51859  39.917  35.876   6.464
 4011POPC   C2B51860  39.918  35.875   6.764
 4011POPC   C3B51861  39.965  35.874   7.064
 4011POPC   C4B51862  39.907  35.936   7.364
 4012POPC   NC351863   2.771  24.476   5.564
 4012POPC   PO451864   2.733  24.509   5.864
 4012POPC   GL151865   2.744  24.467   6.164
 4012POPC   GL251866   2.848  24.580   6.164
 4012POPC   C1A51867   2.788  24.535   6.464
 4012POPC   D2A51868   2.732  24.464   6.764
 4012POPC   C3A51869   2.758  24.507   7.064
 4012POPC   C4A51870   2.806  24.451   7.364
 4012POPC   C1B51871   2.905  24.646   6.464
 4012POPC   C2B51872   2.918  24.703   6.764
 4012POPC   C3B51873   2.898  24.649   7.064
 4012POPC   C4B51874   2.967  24.666   7.364
 4013POPC   NC351875   5.060  24.507   5.564
 4013POPC   PO451876   5.109  24.519   5.864
 4013POPC   GL151877   5.122  24.487   6.164
 4013POPC   GL251878   5.122  24.575   6.164
 4013POPC   C1A51879   5.085  24.477   6.464
 4013POPC   D2A51880   5.054  24.440   6.764
 4013POPC   C3A51881   5.135  24.539   7.064
 4013POPC   C4A51882   5.079  24.446   7.364
 4013POPC   C1B51883   5.222  24.694   6.464
 4013POPC   C2B51884   5.179  24.698   6.764
 4013POPC   C3B51885   5.167  24.730   7.064
 4013POPC   C4B51886   5.171  24.706   7.364
 4014POPC   NC351887  14.411  30.679   5.564
 4014POPC   PO451888  14.358  30.744   5.864
 4014POPC   GL151889  14.428  30.721   6.164
 4014POPC   GL251890  14.377  30.624   6.164
 4014POPC   C1A51891  14.390  30.673   6.464
 4014POPC   D2A51892  14.417  30.724   6.764
 4014POPC   C3A51893  14.394  30.734   7.064
 4014POPC   C4A51894  14.377  30.700   7.364
 4014POPC   C1B51895  14.241  30.518   6.464
 4014POPC   C2B51896  14.257  30.453   6.764
 4014POPC   C3B51897  14.229  30.521   7.064
 4014POPC   C4B51898  14.246  30.512   7.364
 4015POPC   NC351899  16.696  21.424   5.564
 4015POPC   PO451900  16.685  21.352   5.864
 4015POPC   GL151901  16.736  21.362   6.164
 4015POPC   GL251902  16.682  21.280   6.164
 4015POPC   C1A51903  16.750  21.391   6.464
 4015POPC   D2A51904  16.749  21.392   6.764
 4015POPC   C3A51905  16.751  21.410   7.064
 4015POPC   C4A51906  16.707  21.376   7.364
 4015POPC   C1B51907  16.558  21.162   6.464
 4015POPC   C2B51908  16.557  21.157   6.764
 4015POPC   C3B51909  16.590  21.228   7.064
 4015POPC   C4B51910  16.584  21.196   7.364
 4016POPC   NC351911  31.510   1.957   5.564
 4016POPC   PO451912  31.440   1.984   5.864
 4016POPC   GL151913  31.482   2.007   6.164
 4016POPC   GL251914  31.351   2.036   6.164
 4016POPC   C1A51915  31.473   1.954   6.464
 4016POPC   D2A51916  31.508   1.986   6.764
 4016POPC   C3A51917  31.491   1.954   7.064
 4016POPC   C4A51918  31.429   2.036   7.364
 4016POPC   C1B51919  31.236   2.011   6.464
 4016POPC   C2B51920  31.277   1.999   6.764
 4016POPC   C3B51921  31.204   2.018   7.064
 4016POPC   C4B51922  31.265   2.033   7.364
 4017POPC   NC351923  19.046  24.490   5.564
 4017POPC   PO451924  19.097  24.504   5.864
 4017POPC   GL151925  19.091  24.505   6.164
 4017POPC   GL251926  19.079  24.341   6.164
 4017POPC   C1A51927  19.086  24.508   6.464
 4017POPC   D2A51928  19.061  24.469   6.764
 4017POPC   C3A51929  19.106  24.520   7.064
 4017POPC   C4A51930  19.094  24.448   7.364
 4017POPC   C1B51931  19.210  24.266   6.464
 4017POPC   C2B51932  19.192  24.284   6.764
 4017POPC   C3B51933  19.167  24.287   7.064
 4017POPC   C4B51934  19.205  24.234   7.364
 4018POPC   NC351935  31.444  23.676   5.564
 4018POPC   PO451936  31.495  23.668   5.864
 4018POPC   GL151937  31.507  23.689   6.164
 4018POPC   GL251938  31.381  23.794   6.164
 4018POPC   C1A51939  31.487  23.743   6.464
 4018POPC   D2A51940  31.438  23.674   6.764
 4018POPC   C3A51941  31.521  23.693   7.064
 4018POPC   C4A51942  31.459  23.687   7.364
 4018POPC   C1B51943  31.316  23.883   6.464
 4018POPC   C2B51944  31.274  23.896   6.764
 4018POPC   C3B51945  31.235  23.884   7.064
 4018POPC   C4B51946  31.303  23.875   7.364
 4019POPC   NC351947  29.179  11.342   5.564
 4019POPC   PO451948  29.152  11.315   5.864
 4019POPC   GL151949  29.163  11.303   6.164
 4019POPC   GL251950  29.123  11.470   6.164
 4019POPC   C1A51951  29.143  11.332   6.464
 4019POPC   D2A51952  29.126  11.280   6.764
 4019POPC   C3A51953  29.159  11.267   7.064
 4019POPC   C4A51954  29.156  11.346   7.364
 4019POPC   C1B51955  29.152  11.536   6.464
 4019POPC   C2B51956  29.112  11.585   6.764
 4019POPC   C3B51957  29.152  11.518   7.064
 4019POPC   C4B51958  29.164  11.536   7.364
 4020POPC   NC351959  22.209  24.482   5.564
 4020POPC   PO451960  22.169  24.453   5.864
 4020POPC   GL151961  22.168  24.462   6.164
 4020POPC   GL251962  22.256  24.537   6.164
 4020POPC   C1A51963  22.190  24.474   6.464
 4020POPC   D2A51964  22.184  24.442   6.764
 4020POPC   C3A51965  22.210  24.539   7.064
 4020POPC   C4A51966  22.208  24.468   7.364
 4020POPC   C1B51967  22.390  24.592   6.464
 4020POPC   C2B51968  22.328  24.602   6.764
 4020POPC   C3B51969  22.324  24.680   7.064
 4020POPC   C4B51970  22.411  24.624   7.364
 4021POPC   NC351971  32.974  19.809   5.564
 4021POPC   PO451972  33.007  19.823   5.864
 4021POPC   GL151973  33.013  19.797   6.164
 4021POPC   GL251974  33.074  19.988   6.164
 4021POPC   C1A51975  33.046  19.819   6.464
 4021POPC   D2A51976  33.057  19.792   6.764
 4021POPC   C3A51977  33.061  19.847   7.064
 4021POPC   C4A51978  33.004  19.831   7.364
 4021POPC   C1B51979  33.114  20.061   6.464
 4021POPC   C2B51980  33.045  20.051   6.764
 4021POPC   C3B51981  33.087  20.073   7.064
 4021POPC   C4B51982  33.106  20.036   7.364
 4022POPC   NC351983  14.359  16.000   5.564
 4022POPC   PO451984  14.378  15.978   5.864
 4022POPC   GL151985  14.381  15.928   6.164
 4022POPC   GL251986  14.401  16.125   6.164
 4022POPC   C1A51987  14.434  15.956   6.464
 4022POPC   D2A51988  14.442  15.992   6.764
 4022POPC   C3A51989  14.357  15.930   7.064
 4022POPC   C4A51990  14.385  15.970   7.364
 4022POPC   C1B51991  14.456  16.166   6.464
 4022POPC   C2B51992  14.472  16.152   6.764
 4022POPC   C3B51993  14.473  16.153   7.064
 4022POPC   C4B51994  14.429  16.207   7.364
 4023POPC   NC351995  23.667  40.783   5.564
 4023POPC   PO451996  23.761  40.749   5.864
 4023POPC   GL151997  23.730  40.770   6.164
 4023POPC   GL251998  23.652  40.915   6.164
 4023POPC   C1A51999  23.753  40.830   6.464
 4023POPC   D2A52000  23.678  40.757   6.764
 4023POPC   C3A52001  23.744  40.743   7.064
 4023POPC   C4A52002  23.696  40.797   7.364
 4023POPC   C1B52003  23.551  41.027   6.464
 4023POPC   C2B52004  23.597  40.968   6.764
 4023POPC   C3B52005  23.623  41.050   7.064
 4023POPC   C4B52006  23.626  41.035   7.364
 4024POPC   NC352007   6.684  16.724   5.564
 4024POPC   PO452008   6.667  16.756   5.864
 4024POPC   GL152009   6.668  16.772   6.164
 4024POPC   GL252010   6.599  16.868   6.164
 4024POPC   C1A52011   6.630  16.702   6.464
 4024POPC   D2A52012   6.677  16.768   6.764
 4024POPC   C3A52013   6.610  16.697   7.064
 4024POPC   C4A52014   6.660  16.744   7.364
 4024POPC   C1B52015   6.616  16.974   6.464
 4024POPC   C2B52016   6.674  16.933   6.764
 4024POPC   C3B52017   6.618  16.994   7.064
 4024POPC   C4B52018   6.660  16.955   7.364
 4025POPC   NC352019  26.804  18.238   5.564
 4025POPC   PO452020  26.800  18.234   5.864
 4025POPC   GL152021  26.803  18.281   6.164
 4025POPC   GL252022  26.947  18.348   6.164
 4025POPC   C1A52023  26.794  18.255   6.464
 4025POPC   D2A52024  26.769  18.321   6.764
 4025POPC   C3A52025  26.781  18.326   7.064
 4025POPC   C4A52026  26.787  18.288   7.364
 4025POPC   C1B52027  26.947  18.475   6.464
 4025POPC   C2B52028  26.939  18.450   6.764
 4025POPC   C3B52029  27.031  18.487   7.064
 4025POPC   C4B52030  26.988  18.430   7.364
 4026POPC   NC352031  43.149  26.768   5.564
 4026POPC   PO452032  43.088  26.843   5.864
 4026POPC   GL152033  43.094  26.861   6.164
 4026POPC   GL252034  43.065  26.907   6.164
 4026POPC   C1A52035  43.100  26.837   6.464
 4026POPC   D2A52036  43.074  26.863   6.764
 4026POPC   C3A52037  43.140  26.797   7.064
 4026POPC   C4A52038  43.060  26.801   7.364
 4026POPC   C1B52039  43.002  27.067   6.464
 4026POPC   C2B52040  42.939  26.993   6.764
 4026POPC   C3B52041  42.991  26.990   7.064
 4026POPC   C4B52042  43.022  27.077   7.364
 4027POPC   NC352043  32.246  22.911   5.564
 4027POPC   PO452044  32.261  22.967   5.864
 4027POPC   GL152045  32.235  22.920   6.164
 4027POPC   GL252046  32.151  22.991   6.164
 4027POPC   C1A52047  32.214  22.986   6.464
 4027POPC   D2A52048  32.285  22.919   6.764
 4027POPC   C3A52049  32.280  22.975   7.064
 4027POPC   C4A52050  32.277  22.937   7.364
 4027POPC   C1B52051  32.042  23.072   6.464
 4027POPC   C2B52052  32.014  23.077   6.764
 4027POPC   C3B52053  31.994  23.002   7.064
 4027POPC   C4B52054  32.067  23.028   7.364
 4028POPC   NC352055  18.318   7.447   5.564
 4028POPC   PO452056  18.270   7.391   5.864
 4028POPC   GL152057  18.333   7.402   6.164
 4028POPC   GL252058  18.235   7.582   6.164
 4028POPC   C1A52059  18.331   7.406   6.464
 4028POPC   D2A52060  18.297   7.438   6.764
 4028POPC   C3A52061  18.307   7.422   7.064
 4028POPC   C4A52062  18.240   7.452   7.364
 4028POPC   C1B52063  18.332   7.642   6.464
 4028POPC   C2B52064  18.268   7.648   6.764
 4028POPC   C3B52065  18.266   7.690   7.064
 4028POPC   C4B52066  18.266   7.687   7.364
 4029POPC   NC352067  40.009  15.223   5.564
 4029POPC   PO452068  40.051  15.222   5.864
 4029POPC   GL152069  40.047  15.131   6.164
 4029POPC   GL252070  39.888  15.191   6.164
 4029POPC   C1A52071  40.056  15.143   6.464
 4029POPC   D2A52072  40.035  15.207   6.764
 4029POPC   C3A52073  40.026  15.229   7.064
 4029POPC   C4A52074  39.961  15.139   7.364
 4029POPC   C1B52075  39.727  15.294   6.464
 4029POPC   C2B52076  39.736  15.264   6.764
 4029POPC   C3B52077  39.747  15.252   7.064
 4029POPC   C4B52078  39.780  15.234   7.364
 4030POPC   NC352079  39.995   3.543   5.564
 4030POPC   PO452080  39.970   3.541   5.864
 4030POPC   GL152081  40.054   3.581   6.164
 4030POPC   GL252082  40.100   3.549   6.164
 4030POPC   C1A52083  39.965   3.522   6.464
 4030POPC   D2A52084  39.965   3.548   6.764
 4030POPC   C3A52085  40.027   3.523   7.064
 4030POPC   C4A52086  40.002   3.577   7.364
 4030POPC   C1B52087  40.258   3.598   6.464
 4030POPC   C2B52088  40.277   3.626   6.764
 4030POPC   C3B52089  40.289   3.608   7.064
 4030POPC   C4B52090  40.193   3.639   7.364
 4031POPC   NC352091  19.039  15.165   5.564
 4031POPC   PO452092  19.077  15.131   5.864
 4031POPC   GL152093  19.022  15.222   6.164
 4031POPC   GL252094  18.968  15.092   6.164
 4031POPC   C1A52095  19.033  15.167   6.464
 4031POPC   D2A52096  19.097  15.167   6.764
 4031POPC   C3A52097  19.075  15.169   7.064
 4031POPC   C4A52098  19.102  15.177   7.364
 4031POPC   C1B52099  18.880  14.993   6.464
 4031POPC   C2B52100  18.889  15.035   6.764
 4031POPC   C3B52101  18.928  14.953   7.064
 4031POPC   C4B52102  18.931  14.945   7.364
 4032POPC   NC352103  37.630   5.911   5.564
 4032POPC   PO452104  37.681   5.848   5.864
 4032POPC   GL152105  37.723   5.914   6.164
 4032POPC   GL252106  37.716   5.749   6.164
 4032POPC   C1A52107  37.669   5.870   6.464
 4032POPC   D2A52108  37.652   5.901   6.764
 4032POPC   C3A52109  37.647   5.897   7.064
 4032POPC   C4A52110  37.704   5.827   7.364
 4032POPC   C1B52111  37.840   5.678   6.464
 4032POPC   C2B52112  37.857   5.693   6.764
 4032POPC   C3B52113  37.805   5.711   7.064
 4032POPC   C4B52114  37.895   5.655   7.364
 4033POPC   NC352115  32.253  19.788   5.564
 4033POPC   PO452116  32.254  19.828   5.864
 4033POPC   GL152117  32.264  19.801   6.164
 4033POPC   GL252118  32.137  19.918   6.164
 4033POPC   C1A52119  32.248  19.843   6.464
 4033POPC   D2A52120  32.200  19.868   6.764
 4033POPC   C3A52121  32.231  19.813   7.064
 4033POPC   C4A52122  32.285  19.882   7.364
 4033POPC   C1B52123  32.049  20.076   6.464
 4033POPC   C2B52124  32.066  19.990   6.764
 4033POPC   C3B52125  32.093  20.071   7.064
 4033POPC   C4B52126  32.132  20.044   7.364
 4034POPC   NC352127  22.131  32.282   5.564
 4034POPC   PO452128  22.204  32.284   5.864
 4034POPC   GL152129  22.176  32.201   6.164
 4034POPC   GL252130  22.038  32.300   6.164
 4034POPC   C1A52131  22.126  32.279   6.464
 4034POPC   D2A52132  22.194  32.245   6.764
 4034POPC   C3A52133  22.116  32.279   7.064
 4034POPC   C4A52134  22.187  32.285   7.364
 4034POPC   C1B52135  21.921  32.368   6.464
 4034POPC   C2B52136  21.948  32.355   6.764
 4034POPC   C3B52137  21.982  32.388   7.064
 4034POPC   C4B52138  21.945  32.338   7.364
 4035POPC   NC352139  35.401  13.582   5.564
 4035POPC   PO452140  35.315  13.595   5.864
 4035POPC   GL152141  35.395  13.617   6.164
 4035POPC   GL252142  35.422  13.509   6.164
 4035POPC   C1A52143  35.377  13.595   6.464
 4035POPC   D2A52144  35.317  13.596   6.764
 4035POPC   C3A52145  35.311  13.667   7.064
 4035POPC   C4A52146  35.393  13.618   7.364
 4035POPC   C1B52147  35.453  13.360   6.464
 4035POPC   C2B52148  35.487  13.378   6.764
 4035POPC   C3B52149  35.473  13.389   7.064
 4035POPC   C4B52150  35.475  13.442   7.364
 4036POPC   NC352151   4.354  44.667   5.564
 4036POPC   PO452152   4.358  44.681   5.864
 4036POPC   GL152153   4.302  44.700   6.164
 4036POPC   GL252154   4.467  44.753   6.164
 4036POPC   C1A52155   4.345  44.625   6.464
 4036POPC   D2A52156   4.306  44.688   6.764
 4036POPC   C3A52157   4.271  44.637   7.064
 4036POPC   C4A52158   4.299  44.641   7.364
 4036POPC   C1B52159   4.545  44.850   6.464
 4036POPC   C2B52160   4.490  44.830   6.764
 4036POPC   C3B52161   4.527  44.849   7.064
 4036POPC   C4B52162   4.495  44.783   7.364
 4037POPC   NC352163  17.545  26.038   5.564
 4037POPC   PO452164  17.536  26.086   5.864
 4037POPC   GL152165  17.543  26.033   6.164
 4037POPC   GL252166  17.417  25.979   6.164
 4037POPC   C1A52167  17.554  25.997   6.464
 4037POPC   D2A52168  17.502  26.090   6.764
 4037POPC   C3A52169  17.511  25.992   7.064
 4037POPC   C4A52170  17.494  26.050   7.364
 4037POPC   C1B52171  17.406  25.795   6.464
 4037POPC   C2B52172  17.365  25.852   6.764
 4037POPC   C3B52173  17.341  25.820   7.064
 4037POPC   C4B52174  17.403  25.856   7.364
 4038POPC   NC352175  36.936   3.569   5.564
 4038POPC   PO452176  36.901   3.503   5.864
 4038POPC   GL152177  36.917   3.568   6.164
 4038POPC   GL252178  36.977   3.418   6.164
 4038POPC   C1A52179  36.855   3.551   6.464
 4038POPC   D2A52180  36.902   3.527   6.764
 4038POPC   C3A52181  36.919   3.573   7.064
 4038POPC   C4A52182  36.947   3.544   7.364
 4038POPC   C1B52183  37.114   3.325   6.464
 4038POPC   C2B52184  37.111   3.331   6.764
 4038POPC   C3B52185  37.088   3.340   7.064
 4038POPC   C4B52186  37.099   3.322   7.364
 4039POPC   NC352187  41.572  24.488   5.564
 4039POPC   PO452188  41.554  24.516   5.864
 4039POPC   GL152189  41.524  24.537   6.164
 4039POPC   GL252190  41.586  24.624   6.164
 4039POPC   C1A52191  41.529  24.489   6.464
 4039POPC   D2A52192  41.531  24.480   6.764
 4039POPC   C3A52193  41.555  24.451   7.064
 4039POPC   C4A52194  41.576  24.504   7.364
 4039POPC   C1B52195  41.552  24.693   6.464
 4039POPC   C2B52196  41.618  24.753   6.764
 4039POPC   C3B52197  41.557  24.721   7.064
 4039POPC   C4B52198  41.530  24.725   7.364
 4040POPC   NC352199   0.437   6.643   5.564
 4040POPC   PO452200   0.400   6.627   5.864
 4040POPC   GL152201   0.399   6.636   6.164
 4040POPC   GL252202   0.584   6.606   6.164
 4040POPC   C1A52203   0.399   6.657   6.464
 4040POPC   D2A52204   0.485   6.596   6.764
 4040POPC   C3A52205   0.427   6.620   7.064
 4040POPC   C4A52206   0.440   6.654   7.364
 4040POPC   C1B52207   0.660   6.602   6.464
 4040POPC   C2B52208   0.708   6.680   6.764
 4040POPC   C3B52209   0.687   6.612   7.064
 4040POPC   C4B52210   0.665   6.635   7.364
 4041POPC   NC352211  21.403   1.967   5.564
 4041POPC   PO452212  21.428   2.009   5.864
 4041POPC   GL152213  21.406   1.944   6.164
 4041POPC   GL252214  21.309   2.102   6.164
 4041POPC   C1A52215  21.410   1.993   6.464
 4041POPC   D2A52216  21.391   1.942   6.764
 4041POPC   C3A52217  21.381   1.976   7.064
 4041POPC   C4A52218  21.348   2.030   7.364
 4041POPC   C1B52219  21.269   2.262   6.464
 4041POPC   C2B52220  21.240   2.229   6.764
 4041POPC   C3B52221  21.323   2.187   7.064
 4041POPC   C4B52222  21.253   2.197   7.364
 4042POPC   NC352223  15.192  12.867   5.564
 4042POPC   PO452224  15.148  12.884   5.864
 4042POPC   GL152225  15.221  12.818   6.164
 4042POPC   GL252226  15.120  12.774   6.164
 4042POPC   C1A52227  15.162  12.854   6.464
 4042POPC   D2A52228  15.140  12.862   6.764
 4042POPC   C3A52229  15.214  12.853   7.064
 4042POPC   C4A52230  15.206  12.862   7.364
 4042POPC   C1B52231  14.979  12.760   6.464
 4042POPC   C2B52232  15.019  12.739   6.764
 4042POPC   C3B52233  14.972  12.736   7.064
 4042POPC   C4B52234  14.937  12.731   7.364
 4043POPC   NC352235  40.808  20.607   5.564
 4043POPC   PO452236  40.817  20.652   5.864
 4043POPC   GL152237  40.761  20.563   6.164
 4043POPC   GL252238  40.671  20.531   6.164
 4043POPC   C1A52239  40.743  20.596   6.464
 4043POPC   D2A52240  40.780  20.571   6.764
 4043POPC   C3A52241  40.830  20.589   7.064
 4043POPC   C4A52242  40.780  20.576   7.364
 4043POPC   C1B52243  40.532  20.568   6.464
 4043POPC   C2B52244  40.505  20.559   6.764
 4043POPC   C3B52245  40.582  20.511   7.064
 4043POPC   C4B52246  40.543  20.530   7.364
 4044POPC   NC352247  22.185  18.323   5.564
 4044POPC   PO452248  22.122  18.241   5.864
 4044POPC   GL152249  22.192  18.323   6.164
 4044POPC   GL252250  22.314  18.391   6.164
 4044POPC   C1A52251  22.183  18.295   6.464
 4044POPC   D2A52252  22.153  18.234   6.764
 4044POPC   C3A52253  22.167  18.265   7.064
 4044POPC   C4A52254  22.194  18.248   7.364
 4044POPC   C1B52255  22.370  18.393   6.464
 4044POPC   C2B52256  22.367  18.408   6.764
 4044POPC   C3B52257  22.404  18.352   7.064
 4044POPC   C4B52258  22.424  18.374   7.364
 4045POPC   NC352259  40.777  17.498   5.564
 4045POPC   PO452260  40.809  17.484   5.864
 4045POPC   GL152261  40.771  17.465   6.164
 4045POPC   GL252262  40.810  17.681   6.164
 4045POPC   C1A52263  40.753  17.480   6.464
 4045POPC   D2A52264  40.787  17.505   6.764
 4045POPC   C3A52265  40.802  17.501   7.064
 4045POPC   C4A52266  40.757  17.530   7.364
 4045POPC   C1B52267  40.848  17.747   6.464
 4045POPC   C2B52268  40.853  17.798   6.764
 4045POPC   C3B52269  40.760  17.723   7.064
 4045POPC   C4B52270  40.846  17.745   7.364
 4046POPC   NC352271   0.437   5.117   5.564
 4046POPC   PO452272   0.412   5.115   5.864
 4046POPC   GL152273   0.395   5.076   6.164
 4046POPC   GL252274   0.550   5.189   6.164
 4046POPC   C1A52275   0.429   5.120   6.464
 4046POPC   D2A52276   0.390   5.059   6.764
 4046POPC   C3A52277   0.475   5.084   7.064
 4046POPC   C4A52278   0.464   5.087   7.364
 4046POPC   C1B52279   0.664   5.250   6.464
 4046POPC   C2B52280   0.641   5.225   6.764
 4046POPC   C3B52281   0.649   5.263   7.064
 4046POPC   C4B52282   0.670   5.300   7.364
 4047POPC   NC352283   0.451  13.666   5.564
 4047POPC   PO452284   0.458  13.649   5.864
 4047POPC   GL152285   0.446  13.594   6.164
 4047POPC   GL252286   0.282  13.685   6.164
 4047POPC   C1A52287   0.442  13.649   6.464
 4047POPC   D2A52288   0.473  13.663   6.764
 4047POPC   C3A52289   0.465  13.610   7.064
 4047POPC   C4A52290   0.429  13.640   7.364
 4047POPC   C1B52291   0.253  13.704   6.464
 4047POPC   C2B52292   0.209  13.719   6.764
 4047POPC   C3B52293   0.237  13.676   7.064
 4047POPC   C4B52294   0.183  13.684   7.364
 4048POPC   NC352295  14.434  27.625   5.564
 4048POPC   PO452296  14.447  27.549   5.864
 4048POPC   GL152297  14.378  27.601   6.164
 4048POPC   GL252298  14.501  27.658   6.164
 4048POPC   C1A52299  14.383  27.637   6.464
 4048POPC   D2A52300  14.452  27.629   6.764
 4048POPC   C3A52301  14.380  27.581   7.064
 4048POPC   C4A52302  14.390  27.613   7.364
 4048POPC   C1B52303  14.641  27.607   6.464
 4048POPC   C2B52304  14.600  27.666   6.764
 4048POPC   C3B52305  14.626  27.684   7.064
 4048POPC   C4B52306  14.670  27.615   7.364
 4049POPC   NC352307  20.605  11.305   5.564
 4049POPC   PO452308  20.581  11.257   5.864
 4049POPC   GL152309  20.579  11.285   6.164
 4049POPC   GL252310  20.767  11.296   6.164
 4049POPC   C1A52311  20.604  11.329   6.464
 4049POPC   D2A52312  20.605  11.292   6.764
 4049POPC   C3A52313  20.587  11.347   7.064
 4049POPC   C4A52314  20.635  11.289   7.364
 4049POPC   C1B52315  20.860  11.201   6.464
 4049POPC   C2B52316  20.880  11.234   6.764
 4049POPC   C3B52317  20.811  11.245   7.064
 4049POPC   C4B52318  20.877  11.267   7.364
 4050POPC   NC352319  39.220  19.821   5.564
 4050POPC   PO452320  39.239  19.872   5.864
 4050POPC   GL152321  39.194  19.815   6.164
 4050POPC   GL252322  39.075  19.796   6.164
 4050POPC   C1A52323  39.204  19.843   6.464
 4050POPC   D2A52324  39.201  19.802   6.764
 4050POPC   C3A52325  39.181  19.798   7.064
 4050POPC   C4A52326  39.272  19.846   7.364
 4050POPC   C1B52327  38.995  19.879   6.464
 4050POPC   C2B52328  38.998  19.789   6.764
 4050POPC   C3B52329  38.994  19.794   7.064
 4050POPC   C4B52330  38.948  19.873   7.364
 4051POPC   NC352331  38.424  40.757   5.564
 4051POPC   PO452332  38.489  40.823   5.864
 4051POPC   GL152333  38.422  40.740   6.164
 4051POPC   GL252334  38.400  40.916   6.164
 4051POPC   C1A52335  38.479  40.813   6.464
 4051POPC   D2A52336  38.450  40.803   6.764
 4051POPC   C3A52337  38.407  40.806   7.064
 4051POPC   C4A52338  38.466  40.783   7.364
 4051POPC   C1B52339  38.460  41.055   6.464
 4051POPC   C2B52340  38.393  41.026   6.764
 4051POPC   C3B52341  38.417  41.020   7.064
 4051POPC   C4B52342  38.460  41.033   7.364
 4052POPC   NC352343  13.639  16.779   5.564
 4052POPC   PO452344  13.617  16.734   5.864
 4052POPC   GL152345  13.625  16.756   6.164
 4052POPC   GL252346  13.763  16.759   6.164
 4052POPC   C1A52347  13.589  16.718   6.464
 4052POPC   D2A52348  13.631  16.709   6.764
 4052POPC   C3A52349  13.661  16.750   7.064
 4052POPC   C4A52350  13.673  16.685   7.364
 4052POPC   C1B52351  13.781  16.934   6.464
 4052POPC   C2B52352  13.830  16.880   6.764
 4052POPC   C3B52353  13.828  16.881   7.064
 4052POPC   C4B52354  13.860  16.856   7.364
 4053POPC   NC352355  28.401  42.286   5.564
 4053POPC   PO452356  28.394  42.294   5.864
 4053POPC   GL152357  28.337  42.299   6.164
 4053POPC   GL252358  28.279  42.445   6.164
 4053POPC   C1A52359  28.324  42.288   6.464
 4053POPC   D2A52360  28.404  42.375   6.764
 4053POPC   C3A52361  28.334  42.344   7.064
 4053POPC   C4A52362  28.397  42.361   7.364
 4053POPC   C1B52363  28.175  42.541   6.464
 4053POPC   C2B52364  28.225  42.556   6.764
 4053POPC   C3B52365  28.170  42.507   7.064
 4053POPC   C4B52366  28.236  42.514   7.364
 4054POPC   NC352367  23.696  37.643   5.564
 4054POPC   PO452368  23.696  37.648   5.864
 4054POPC   GL152369  23.755  37.686   6.164
 4054POPC   GL252370  23.606  37.759   6.164
 4054POPC   C1A52371  23.684  37.729   6.464
 4054POPC   D2A52372  23.715  37.693   6.764
 4054POPC   C3A52373  23.749  37.696   7.064
 4054POPC   C4A52374  23.715  37.680   7.364
 4054POPC   C1B52375  23.554  37.867   6.464
 4054POPC   C2B52376  23.479  37.788   6.764
 4054POPC   C3B52377  23.546  37.778   7.064
 4054POPC   C4B52378  23.472  37.855   7.364
 4055POPC   NC352379  34.551  15.942   5.564
 4055POPC   PO452380  34.567  15.916   5.864
 4055POPC   GL152381  34.580  15.975   6.164
 4055POPC   GL252382  34.663  15.902   6.164
 4055POPC   C1A52383  34.546  15.997   6.464
 4055POPC   D2A52384  34.615  15.996   6.764
 4055POPC   C3A52385  34.605  15.954   7.064
 4055POPC   C4A52386  34.555  15.917   7.364
 4055POPC   C1B52387  34.844  15.891   6.464
 4055POPC   C2B52388  34.795  15.945   6.764
 4055POPC   C3B52389  34.856  15.902   7.064
 4055POPC   C4B52390  34.838  15.884   7.364
 4056POPC   NC352391  16.752  42.349   5.564
 4056POPC   PO452392  16.758  42.308   5.864
 4056POPC   GL152393  16.735  42.301   6.164
 4056POPC   GL252394  16.629  42.198   6.164
 4056POPC   C1A52395  16.722  42.332   6.464
 4056POPC   D2A52396  16.752  42.349   6.764
 4056POPC   C3A52397  16.722  42.310   7.064
 4056POPC   C4A52398  16.710  42.363   7.364
 4056POPC   C1B52399  16.618  42.071   6.464
 4056POPC   C2B52400  16.617  42.077   6.764
 4056POPC   C3B52401  16.622  42.159   7.064
 4056POPC   C4B52402  16.649  42.127   7.364
 4057POPC   NC352403   5.108  22.932   5.564
 4057POPC   PO452404   5.124  22.978   5.864
 4057POPC   GL152405   5.137  22.902   6.164
 4057POPC   GL252406   4.996  22.997   6.164
 4057POPC   C1A52407   5.082  22.986   6.464
 4057POPC   D2A52408   5.092  22.925   6.764
 4057POPC   C3A52409   5.062  22.916   7.064
 4057POPC   C4A52410   5.111  22.889   7.364
 4057POPC   C1B52411   4.852  23.082   6.464
 4057POPC   C2B52412   4.915  23.072   6.764
 4057POPC   C3B52413   4.874  23.107   7.064
 4057POPC   C4B52414   4.908  23.132   7.364
 4058POPC   NC352415  12.078  18.312   5.564
 4058POPC   PO452416  12.084  18.298   5.864
 4058POPC   GL152417  12.078  18.288   6.164
 4058POPC   GL252418  12.051  18.121   6.164
 4058POPC   C1A52419  12.034  18.278   6.464
 4058POPC   D2A52420  12.104  18.233   6.764
 4058POPC   C3A52421  12.091  18.242   7.064
 4058POPC   C4A52422  12.072  18.327   7.364
 4058POPC   C1B52423  11.954  18.065   6.464
 4058POPC   C2B52424  11.971  18.001   6.764
 4058POPC   C3B52425  11.994  18.028   7.064
 4058POPC   C4B52426  12.012  18.013   7.364
 4059POPC   NC352427   4.330  14.393   5.564
 4059POPC   PO452428   4.360  14.365   5.864
 4059POPC   GL152429   4.305  14.393   6.164
 4059POPC   GL252430   4.436  14.385   6.164
 4059POPC   C1A52431   4.329  14.417   6.464
 4059POPC   D2A52432   4.280  14.378   6.764
 4059POPC   C3A52433   4.277  14.354   7.064
 4059POPC   C4A52434   4.275  14.412   7.364
 4059POPC   C1B52435   4.522  14.302   6.464
 4059POPC   C2B52436   4.548  14.340   6.764
 4059POPC   C3B52437   4.572  14.311   7.064
 4059POPC   C4B52438   4.579  14.313   7.364
 4060POPC   NC352439   2.031  31.423   5.564
 4060POPC   PO452440   2.033  31.510   5.864
 4060POPC   GL152441   1.963  31.441   6.164
 4060POPC   GL252442   2.067  31.598   6.164
 4060POPC   C1A52443   2.028  31.424   6.464
 4060POPC   D2A52444   1.977  31.504   6.764
 4060POPC   C3A52445   1.946  31.443   7.064
 4060POPC   C4A52446   1.950  31.510   7.364
 4060POPC   C1B52447   2.030  31.757   6.464
 4060POPC   C2B52448   2.014  31.708   6.764
 4060POPC   C3B52449   2.059  31.681   7.064
 4060POPC   C4B52450   2.078  31.763   7.364
 4061POPC   NC352451  34.548  33.814   5.564
 4061POPC   PO452452  34.580  33.805   5.864
 4061POPC   GL152453  34.527  33.770   6.164
 4061POPC   GL252454  34.660  33.863   6.164
 4061POPC   C1A52455  34.536  33.776   6.464
 4061POPC   D2A52456  34.613  33.816   6.764
 4061POPC   C3A52457  34.529  33.825   7.064
 4061POPC   C4A52458  34.624  33.817   7.364
 4061POPC   C1B52459  34.739  33.933   6.464
 4061POPC   C2B52460  34.767  33.978   6.764
 4061POPC   C3B52461  34.720  34.001   7.064
 4061POPC   C4B52462  34.768  33.979   7.364
 4062POPC   NC352463   2.814  43.067   5.564
 4062POPC   PO452464   2.811  43.132   5.864
 4062POPC   GL152465   2.783  43.148   6.164
 4062POPC   GL252466   2.608  43.208   6.164
 4062POPC   C1A52467   2.734  43.090   6.464
 4062POPC   D2A52468   2.779  43.128   6.764
 4062POPC   C3A52469   2.789  43.090   7.064
 4062POPC   C4A52470   2.736  43.078   7.364
 4062POPC   C1B52471   2.556  43.259   6.464
 4062POPC   C2B52472   2.588  43.273   6.764
 4062POPC   C3B52473   2.592  43.223   7.064
 4062POPC   C4B52474   2.504  43.252   7.364
 4063POPC   NC352475  43.063  30.680   5.564
 4063POPC   PO452476  43.141  30.716   5.864
 4063POPC   GL152477  43.094  30.657   6.164
 4063POPC   GL252478  43.055  30.833   6.164
 4063POPC   C1A52479  43.072  30.732   6.464
 4063POPC   D2A52480  43.137  30.669   6.764
 4063POPC   C3A52481  43.104  30.679   7.064
 4063POPC   C4A52482  43.110  30.724   7.364
 4063POPC   C1B52483  43.041  30.973   6.464
 4063POPC   C2B52484  43.069  30.890   6.764
 4063POPC   C3B52485  43.054  30.892   7.064
 4063POPC   C4B52486  43.020  30.940   7.364
 4064POPC   NC352487   3.566  19.858   5.564
 4064POPC   PO452488   3.538  19.862   5.864
 4064POPC   GL152489   3.552  19.805   6.164
 4064POPC   GL252490   3.445  19.754   6.164
 4064POPC   C1A52491   3.544  19.857   6.464
 4064POPC   D2A52492   3.517  19.846   6.764
 4064POPC   C3A52493   3.584  19.797   7.064
 4064POPC   C4A52494   3.577  19.816   7.364
 4064POPC   C1B52495   3.362  19.684   6.464
 4064POPC   C2B52496   3.308  19.734   6.764
 4064POPC   C3B52497   3.317  19.682   7.064
 4064POPC   C4B52498   3.361  19.662   7.364
 4065POPC   NC352499  33.007  32.200   5.564
 4065POPC   PO452500  33.067  32.271   5.864
 4065POPC   GL152501  33.015  32.271   6.164
 4065POPC   GL252502  32.916  32.196   6.164
 4065POPC   C1A52503  33.073  32.274   6.464
 4065POPC   D2A52504  33.001  32.256   6.764
 4065POPC   C3A52505  33.007  32.276   7.064
 4065POPC   C4A52506  33.026  32.259   7.364
 4065POPC   C1B52507  32.871  32.107   6.464
 4065POPC   C2B52508  32.827  32.035   6.764
 4065POPC   C3B52509  32.828  32.079   7.064
 4065POPC   C4B52510  32.896  32.076   7.364
 4066POPC   NC352511  15.145  36.079   5.564
 4066POPC   PO452512  15.199  36.083   5.864
 4066POPC   GL152513  15.187  36.142   6.164
 4066POPC   GL252514  15.252  36.086   6.164
 4066POPC   C1A52515  15.196  36.137   6.464
 4066POPC   D2A52516  15.224  36.138   6.764
 4066POPC   C3A52517  15.213  36.149   7.064
 4066POPC   C4A52518  15.221  36.151   7.364
 4066POPC   C1B52519  15.411  36.034   6.464
 4066POPC   C2B52520  15.435  36.001   6.764
 4066POPC   C3B52521  15.390  36.003   7.064
 4066POPC   C4B52522  15.392  35.976   7.364
 4067POPC   NC352523   8.240  43.934   5.564
 4067POPC   PO452524   8.210  43.853   5.864
 4067POPC   GL152525   8.163  43.877   6.164
 4067POPC   GL252526   8.095  43.765   6.164
 4067POPC   C1A52527   8.237  43.841   6.464
 4067POPC   D2A52528   8.165  43.863   6.764
 4067POPC   C3A52529   8.237  43.843   7.064
 4067POPC   C4A52530   8.200  43.892   7.364
 4067POPC   C1B52531   7.972  43.676   6.464
 4067POPC   C2B52532   7.998  43.731   6.764
 4067POPC   C3B52533   8.016  43.738   7.064
 4067POPC   C4B52534   7.991  43.707   7.364
 4068POPC   NC352535  10.487  32.212   5.564
 4068POPC   PO452536  10.538  32.255   5.864
 4068POPC   GL152537  10.521  32.260   6.164
 4068POPC   GL252538  10.681  32.201   6.164
 4068POPC   C1A52539  10.571  32.227   6.464
 4068POPC   D2A52540  10.482  32.227   6.764
 4068POPC   C3A52541  10.574  32.223   7.064
 4068POPC   C4A52542  10.569  32.278   7.364
 4068POPC   C1B52543  10.740  32.278   6.464
 4068POPC   C2B52544  10.818  32.259   6.764
 4068POPC   C3B52545  10.744  32.271   7.064
 4068POPC   C4B52546  10.726  32.252   7.364
 4069POPC   NC352547   8.956  15.906   5.564
 4069POPC   PO452548   8.939  15.994   5.864
 4069POPC   GL152549   8.930  15.915   6.164
 4069POPC   GL252550   9.070  15.883   6.164
 4069POPC   C1A52551   8.946  15.938   6.464
 4069POPC   D2A52552   8.961  15.974   6.764
 4069POPC   C3A52553   9.002  15.970   7.064
 4069POPC   C4A52554   8.937  15.921   7.364
 4069POPC   C1B52555   9.207  15.851   6.464
 4069POPC   C2B52556   9.191  15.861   6.764
 4069POPC   C3B52557   9.152  15.845   7.064
 4069POPC   C4B52558   9.202  15.829   7.364
 4070POPC   NC352559   5.138  12.820   5.564
 4070POPC   PO452560   5.094  12.885   5.864
 4070POPC   GL152561   5.054  12.803   6.164
 4070POPC   GL252562   5.057  12.990   6.164
 4070POPC   C1A52563   5.045  12.869   6.464
 4070POPC   D2A52564   5.070  12.846   6.764
 4070POPC   C3A52565   5.120  12.858   7.064
 4070POPC   C4A52566   5.103  12.847   7.364
 4070POPC   C1B52567   4.981  13.032   6.464
 4070POPC   C2B52568   5.010  13.045   6.764
 4070POPC   C3B52569   4.918  13.103   7.064
 4070POPC   C4B52570   4.985  13.081   7.364
 4071POPC   NC352571   3.498  28.355   5.564
 4071POPC   PO452572   3.504  28.363   5.864
 4071POPC   GL152573   3.518  28.403   6.164
 4071POPC   GL252574   3.599  28.527   6.164
 4071POPC   C1A52575   3.555  28.374   6.464
 4071POPC   D2A52576   3.493  28.403   6.764
 4071POPC   C3A52577   3.521  28.341   7.064
 4071POPC   C4A52578   3.546  28.398   7.364
 4071POPC   C1B52579   3.619  28.628   6.464
 4071POPC   C2B52580   3.678  28.623   6.764
 4071POPC   C3B52581   3.700  28.560   7.064
 4071POPC   C4B52582   3.691  28.562   7.364
 4072POPC   NC352583  16.690  17.553   5.564
 4072POPC   PO452584  16.715  17.551   5.864
 4072POPC   GL152585  16.709  17.544   6.164
 4072POPC   GL252586  16.646  17.472   6.164
 4072POPC   C1A52587  16.725  17.467   6.464
 4072POPC   D2A52588  16.711  17.481   6.764
 4072POPC   C3A52589  16.760  17.525   7.064
 4072POPC   C4A52590  16.737  17.533   7.364
 4072POPC   C1B52591  16.501  17.385   6.464
 4072POPC   C2B52592  16.573  17.315   6.764
 4072POPC   C3B52593  16.574  17.326   7.064
 4072POPC   C4B52594  16.502  17.336   7.364
 4073POPC   NC352595  18.287  34.554   5.564
 4073POPC   PO452596  18.317  34.613   5.864
 4073POPC   GL152597  18.304  34.622   6.164
 4073POPC   GL252598  18.203  34.592   6.164
 4073POPC   C1A52599  18.311  34.606   6.464
 4073POPC   D2A52600  18.298  34.551   6.764
 4073POPC   C3A52601  18.319  34.620   7.064
 4073POPC   C4A52602  18.258  34.570   7.364
 4073POPC   C1B52603  18.049  34.481   6.464
 4073POPC   C2B52604  18.061  34.515   6.764
 4073POPC   C3B52605  18.011  34.488   7.064
 4073POPC   C4B52606  18.088  34.496   7.364
 4074POPC   NC352607  32.975  22.209   5.564
 4074POPC   PO452608  33.067  22.191   5.864
 4074POPC   GL152609  33.043  22.169   6.164
 4074POPC   GL252610  33.026  22.001   6.164
 4074POPC   C1A52611  33.039  22.147   6.464
 4074POPC   D2A52612  33.059  22.187   6.764
 4074POPC   C3A52613  32.990  22.129   7.064
 4074POPC   C4A52614  32.993  22.175   7.364
 4074POPC   C1B52615  33.049  21.882   6.464
 4074POPC   C2B52616  33.008  21.908   6.764
 4074POPC   C3B52617  33.055  21.942   7.064
 4074POPC   C4B52618  33.052  21.906   7.364
 4075POPC   NC352619  25.271  21.432   5.564
 4075POPC   PO452620  25.259  21.424   5.864
 4075POPC   GL152621  25.307  21.349   6.164
 4075POPC   GL252622  25.268  21.527   6.164
 4075POPC   C1A52623  25.273  21.403   6.464
 4075POPC   D2A52624  25.302  21.393   6.764
 4075POPC   C3A52625  25.304  21.366   7.064
 4075POPC   C4A52626  25.315  21.363   7.364
 4075POPC   C1B52627  25.244  21.612   6.464
 4075POPC   C2B52628  25.317  21.616   6.764
 4075POPC   C3B52629  25.316  21.666   7.064
 4075POPC   C4B52630  25.307  21.633   7.364
 4076POPC   NC352631  24.499   1.229   5.564
 4076POPC   PO452632  24.496   1.195   5.864
 4076POPC   GL152633  24.518   1.219   6.164
 4076POPC   GL252634  24.568   1.174   6.164
 4076POPC   C1A52635  24.499   1.192   6.464
 4076POPC   D2A52636  24.465   1.246   6.764
 4076POPC   C3A52637  24.519   1.228   7.064
 4076POPC   C4A52638  24.538   1.231   7.364
 4076POPC   C1B52639  24.672   1.114   6.464
 4076POPC   C2B52640  24.672   1.129   6.764
 4076POPC   C3B52641  24.701   1.095   7.064
 4076POPC   C4B52642  24.673   1.126   7.364
 4077POPC   NC352643   1.262  26.768   5.564
 4077POPC   PO452644   1.250  26.772   5.864
 4077POPC   GL152645   1.235  26.861   6.164
 4077POPC   GL252646   1.265  26.710   6.164
 4077POPC   C1A52647   1.254  26.785   6.464
 4077POPC   D2A52648   1.219  26.771   6.764
 4077POPC   C3A52649   1.212  26.854   7.064
 4077POPC   C4A52650   1.209  26.768   7.364
 4077POPC   C1B52651   1.309  26.572   6.464
 4077POPC   C2B52652   1.331  26.602   6.764
 4077POPC   C3B52653   1.324  26.653   7.064
 4077POPC   C4B52654   1.366  26.580   7.364
 4078POPC   NC352655  35.336   5.879   5.564
 4078POPC   PO452656  35.342   5.862   5.864
 4078POPC   GL152657  35.375   5.874   6.164
 4078POPC   GL252658  35.186   5.903   6.164
 4078POPC   C1A52659  35.332   5.913   6.464
 4078POPC   D2A52660  35.317   5.877   6.764
 4078POPC   C3A52661  35.369   5.914   7.064
 4078POPC   C4A52662  35.364   5.874   7.364
 4078POPC   C1B52663  35.082   5.969   6.464
 4078POPC   C2B52664  35.126   5.924   6.764
 4078POPC   C3B52665  35.086   5.967   7.064
 4078POPC   C4B52666  35.107   5.990   7.364
 4079POPC   NC352667  39.199  37.653   5.564
 4079POPC   PO452668  39.279  37.706   5.864
 4079POPC   GL152669  39.257  37.670   6.164
 4079POPC   GL252670  39.275  37.769   6.164
 4079POPC   C1A52671  39.224  37.723   6.464
 4079POPC   D2A52672  39.194  37.700   6.764
 4079POPC   C3A52673  39.233  37.694   7.064
 4079POPC   C4A52674  39.251  37.661   7.364
 4079POPC   C1B52675  39.367  37.957   6.464
 4079POPC   C2B52676  39.337  37.948   6.764
 4079POPC   C3B52677  39.325  37.931   7.064
 4079POPC   C4B52678  39.292  37.892   7.364
 4080POPC   NC352679  10.504  39.261   5.564
 4080POPC   PO452680  10.537  39.189   5.864
 4080POPC   GL152681  10.510  39.195   6.164
 4080POPC   GL252682  10.402  39.277   6.164
 4080POPC   C1A52683  10.552  39.254   6.464
 4080POPC   D2A52684  10.531  39.225   6.764
 4080POPC   C3A52685  10.558  39.218   7.064
 4080POPC   C4A52686  10.483  39.218   7.364
 4080POPC   C1B52687  10.226  39.258   6.464
 4080POPC   C2B52688  10.298  39.207   6.764
 4080POPC   C3B52689  10.253  39.237   7.064
 4080POPC   C4B52690  10.243  39.232   7.364
 4081POPC   NC352691  34.624  29.953   5.564
 4081POPC   PO452692  34.620  29.912   5.864
 4081POPC   GL152693  34.605  29.955   6.164
 4081POPC   GL252694  34.436  29.924   6.164
 4081POPC   C1A52695  34.545  29.930   6.464
 4081POPC   D2A52696  34.620  29.920   6.764
 4081POPC   C3A52697  34.528  29.940   7.064
 4081POPC   C4A52698  34.572  29.890   7.364
 4081POPC   C1B52699  34.347  30.016   6.464
 4081POPC   C2B52700  34.324  29.943   6.764
 4081POPC   C3B52701  34.321  29.957   7.064
 4081POPC   C4B52702  34.378  30.025   7.364
 4082POPC   NC352703  12.824  15.144   5.564
 4082POPC   PO452704  12.837  15.187   5.864
 4082POPC   GL152705  12.825  15.212   6.164
 4082POPC   GL252706  12.933  15.092   6.164
 4082POPC   C1A52707  12.830  15.143   6.464
 4082POPC   D2A52708  12.839  15.198   6.764
 4082POPC   C3A52709  12.805  15.209   7.064
 4082POPC   C4A52710  12.901  15.181   7.364
 4082POPC   C1B52711  13.095  15.039   6.464
 4082POPC   C2B52712  13.069  15.028   6.764
 4082POPC   C3B52713  13.101  15.057   7.064
 4082POPC   C4B52714  13.067  15.063   7.364
 4083POPC   NC352715  19.012  28.386   5.564
 4083POPC   PO452716  19.035  28.367   5.864
 4083POPC   GL152717  19.074  28.368   6.164
 4083POPC   GL252718  18.920  28.351   6.164
 4083POPC   C1A52719  19.099  28.418   6.464
 4083POPC   D2A52720  19.076  28.348   6.764
 4083POPC   C3A52721  19.045  28.341   7.064
 4083POPC   C4A52722  19.096  28.367   7.364
 4083POPC   C1B52723  18.855  28.377   6.464
 4083POPC   C2B52724  18.843  28.287   6.764
 4083POPC   C3B52725  18.862  28.325   7.064
 4083POPC   C4B52726  18.859  28.338   7.364
 4084POPC   NC352727  21.356   2.729   5.564
 4084POPC   PO452728  21.341   2.774   5.864
 4084POPC   GL152729  21.421   2.778   6.164
 4084POPC   GL252730  21.423   2.669   6.164
 4084POPC   C1A52731  21.435   2.772   6.464
 4084POPC   D2A52732  21.433   2.742   6.764
 4084POPC   C3A52733  21.404   2.724   7.064
 4084POPC   C4A52734  21.380   2.737   7.364
 4084POPC   C1B52735  21.509   2.580   6.464
 4084POPC   C2B52736  21.484   2.539   6.764
 4084POPC   C3B52737  21.502   2.534   7.064
 4084POPC   C4B52738  21.462   2.532   7.364
 4085POPC   NC352739  13.668  33.848   5.564
 4085POPC   PO452740  13.659  33.823   5.864
 4085POPC   GL152741  13.633  33.780   6.164
 4085POPC   GL252742  13.627  33.674   6.164
 4085POPC   C1A52743  13.644  33.751   6.464
 4085POPC   D2A52744  13.663  33.811   6.764
 4085POPC   C3A52745  13.611  33.808   7.064
 4085POPC   C4A52746  13.598  33.779   7.364
 4085POPC   C1B52747  13.653  33.530   6.464
 4085POPC   C2B52748  13.687  33.580   6.764
 4085POPC   C3B52749  13.708  33.603   7.064
 4085POPC   C4B52750  13.643  33.584   7.364
 4086POPC   NC352751  13.600  33.074   5.564
 4086POPC   PO452752  13.657  33.002   5.864
 4086POPC   GL152753  13.651  33.005   6.164
 4086POPC   GL252754  13.661  32.868   6.164
 4086POPC   C1A52755  13.622  32.991   6.464
 4086POPC   D2A52756  13.672  33.050   6.764
 4086POPC   C3A52757  13.629  33.006   7.064
 4086POPC   C4A52758  13.674  33.027   7.364
 4086POPC   C1B52759  13.617  32.791   6.464
 4086POPC   C2B52760  13.565  32.753   6.764
 4086POPC   C3B52761  13.577  32.737   7.064
 4086POPC   C4B52762  13.582  32.795   7.364
 4087POPC   NC352763  15.229  12.103   5.564
 4087POPC   PO452764  15.193  12.063   5.864
 4087POPC   GL152765  15.228  12.054   6.164
 4087POPC   GL252766  15.072  12.137   6.164
 4087POPC   C1A52767  15.151  12.033   6.464
 4087POPC   D2A52768  15.202  12.030   6.764
 4087POPC   C3A52769  15.171  12.080   7.064
 4087POPC   C4A52770  15.201  12.085   7.364
 4087POPC   C1B52771  14.945  12.247   6.464
 4087POPC   C2B52772  14.948  12.152   6.764
 4087POPC   C3B52773  14.919  12.176   7.064
 4087POPC   C4B52774  14.964  12.153   7.364
 4088POPC   NC352775   1.233  41.535   5.564
 4088POPC   PO452776   1.234  41.528   5.864
 4088POPC   GL152777   1.188  41.555   6.164
 4088POPC   GL252778   1.249  41.717   6.164
 4088POPC   C1A52779   1.245  41.561   6.464
 4088POPC   D2A52780   1.237  41.589   6.764
 4088POPC   C3A52781   1.167  41.588   7.064
 4088POPC   C4A52782   1.202  41.537   7.364
 4088POPC   C1B52783   1.245  41.767   6.464
 4088POPC   C2B52784   1.204  41.800   6.764
 4088POPC   C3B52785   1.277  41.828   7.064
 4088POPC   C4B52786   1.279  41.842   7.364
 4089POPC   NC352787  24.481  33.777   5.564
 4089POPC   PO452788  24.450  33.771   5.864
 4089POPC   GL152789  24.480  33.802   6.164
 4089POPC   GL252790  24.469  33.972   6.164
 4089POPC   C1A52791  24.502  33.784   6.464
 4089POPC   D2A52792  24.494  33.840   6.764
 4089POPC   C3A52793  24.526  33.809   7.064
 4089POPC   C4A52794  24.493  33.766   7.364
 4089POPC   C1B52795  24.464  34.086   6.464
 4089POPC   C2B52796  24.458  34.020   6.764
 4089POPC   C3B52797  24.475  34.088   7.064
 4089POPC   C4B52798  24.414  34.044   7.364
 4090POPC   NC352799  14.382  16.695   5.564
 4090POPC   PO452800  14.385  16.701   5.864
 4090POPC   GL152801  14.396  16.748   6.164
 4090POPC   GL252802  14.440  16.604   6.164
 4090POPC   C1A52803  14.389  16.695   6.464
 4090POPC   D2A52804  14.356  16.730   6.764
 4090POPC   C3A52805  14.377  16.766   7.064
 4090POPC   C4A52806  14.418  16.727   7.364
 4090POPC   C1B52807  14.401  16.471   6.464
 4090POPC   C2B52808  14.433  16.493   6.764
 4090POPC   C3B52809  14.407  16.526   7.064
 4090POPC   C4B52810  14.422  16.443   7.364
 4091POPC   NC352811   9.750  33.060   5.564
 4091POPC   PO452812   9.743  33.070   5.864
 4091POPC   GL152813   9.772  33.032   6.164
 4091POPC   GL252814   9.679  32.953   6.164
 4091POPC   C1A52815   9.763  33.051   6.464
 4091POPC   D2A52816   9.729  32.977   6.764
 4091POPC   C3A52817   9.742  32.977   7.064
 4091POPC   C4A52818   9.778  32.992   7.364
 4091POPC   C1B52819   9.584  32.812   6.464
 4091POPC   C2B52820   9.566  32.805   6.764
 4091POPC   C3B52821   9.626  32.851   7.064
 4091POPC   C4B52822   9.572  32.844   7.364
 4092POPC   NC352823  33.769  28.363   5.564
 4092POPC   PO452824  33.847  28.373   5.864
 4092POPC   GL152825  33.838  28.344   6.164
 4092POPC   GL252826  33.932  28.407   6.164
 4092POPC   C1A52827  33.788  28.355   6.464
 4092POPC   D2A52828  33.800  28.407   6.764
 4092POPC   C3A52829  33.840  28.324   7.064
 4092POPC   C4A52830  33.758  28.363   7.364
 4092POPC   C1B52831  33.987  28.492   6.464
 4092POPC   C2B52832  33.987  28.508   6.764
 4092POPC   C3B52833  34.004  28.551   7.064
 4092POPC   C4B52834  34.045  28.504   7.364
 4093POPC   NC352835  22.156   1.945   5.564
 4093POPC   PO452836  22.205   1.974   5.864
 4093POPC   GL152837  22.177   1.953   6.164
 4093POPC   GL252838  22.224   1.860   6.164
 4093POPC   C1A52839  22.202   1.957   6.464
 4093POPC   D2A52840  22.138   1.959   6.764
 4093POPC   C3A52841  22.136   2.019   7.064
 4093POPC   C4A52842  22.180   1.969   7.364
 4093POPC   C1B52843  22.230   1.729   6.464
 4093POPC   C2B52844  22.194   1.783   6.764
 4093POPC   C3B52845  22.162   1.783   7.064
 4093POPC   C4B52846  22.204   1.724   7.364
 4094POPC   NC352847  28.368  13.593   5.564
 4094POPC   PO452848  28.412  13.663   5.864
 4094POPC   GL152849  28.321  13.626   6.164
 4094POPC   GL252850  28.452  13.627   6.164
 4094POPC   C1A52851  28.322  13.651   6.464
 4094POPC   D2A52852  28.384  13.588   6.764
 4094POPC   C3A52853  28.370  13.672   7.064
 4094POPC   C4A52854  28.402  13.629   7.364
 4094POPC   C1B52855  28.638  13.596   6.464
 4094POPC   C2B52856  28.604  13.666   6.764
 4094POPC   C3B52857  28.664  13.637   7.064
 4094POPC   C4B52858  28.575  13.616   7.364
 4095POPC   NC352859  29.897  12.886   5.564
 4095POPC   PO452860  29.928  12.823   5.864
 4095POPC   GL152861  29.898  12.827   6.164
 4095POPC   GL252862  29.990  12.945   6.164
 4095POPC   C1A52863  29.890  12.824   6.464
 4095POPC   D2A52864  29.955  12.861   6.764
 4095POPC   C3A52865  29.873  12.899   7.064
 4095POPC   C4A52866  29.931  12.809   7.364
 4095POPC   C1B52867  30.084  13.022   6.464
 4095POPC   C2B52868  30.076  13.058   6.764
 4095POPC   C3B52869  30.089  13.029   7.064
 4095POPC   C4B52870  30.111  12.981   7.364
 4096POPC   NC352871  23.742  31.515   5.564
 4096POPC   PO452872  23.695  31.478   5.864
 4096POPC   GL152873  23.750  31.510   6.164
 4096POPC   GL252874  23.867  31.383   6.164
 4096POPC   C1A52875  23.717  31.519   6.464
 4096POPC   D2A52876  23.725  31.515   6.764
 4096POPC   C3A52877  23.699  31.498   7.064
 4096POPC   C4A52878  23.743  31.522   7.364
 4096POPC   C1B52879  23.920  31.319   6.464
 4096POPC   C2B52880  23.920  31.322   6.764
 4096POPC   C3B52881  23.904  31.315   7.064
 4096POPC   C4B52882  23.889  31.351   7.364
 4097POPC   NC352883  27.572  27.631   5.564
 4097POPC   PO452884  27.631  27.601   5.864
 4097POPC   GL152885  27.579  27.595   6.164
 4097POPC   GL252886  27.510  27.687   6.164
 4097POPC   C1A52887  27.611  27.629   6.464
 4097POPC   D2A52888  27.599  27.606   6.764
 4097POPC   C3A52889  27.632  27.555   7.064
 4097POPC   C4A52890  27.618  27.601   7.364
 4097POPC   C1B52891  27.371  27.711   6.464
 4097POPC   C2B52892  27.355  27.735   6.764
 4097POPC   C3B52893  27.369  27.685   7.064
 4097POPC   C4B52894  27.376  27.757   7.364
 4098POPC   NC352895  40.829   5.834   5.564
 4098POPC   PO452896  40.743   5.896   5.864
 4098POPC   GL152897  40.792   5.900   6.164
 4098POPC   GL252898  40.673   5.798   6.164
 4098POPC   C1A52899  40.768   5.839   6.464
 4098POPC   D2A52900  40.736   5.890   6.764
 4098POPC   C3A52901  40.773   5.845   7.064
 4098POPC   C4A52902  40.828   5.869   7.364
 4098POPC   C1B52903  40.528   5.712   6.464
 4098POPC   C2B52904  40.518   5.716   6.764
 4098POPC   C3B52905  40.580   5.713   7.064
 4098POPC   C4B52906  40.566   5.777   7.364
 4099POPC   NC352907  15.920  34.568   5.564
 4099POPC   PO452908  15.943  34.539   5.864
 4099POPC   GL152909  15.939  34.613   6.164
 4099POPC   GL252910  16.030  34.499   6.164
 4099POPC   C1A52911  15.930  34.535   6.464
 4099POPC   D2A52912  15.909  34.546   6.764
 4099POPC   C3A52913  15.971  34.607   7.064
 4099POPC   C4A52914  15.976  34.554   7.364
 4099POPC   C1B52915  16.152  34.529   6.464
 4099POPC   C2B52916  16.193  34.507   6.764
 4099POPC   C3B52917  16.154  34.457   7.064
 4099POPC   C4B52918  16.178  34.460   7.364
 4100POPC   NC352919  25.305  17.534   5.564
 4100POPC   PO452920  25.294  17.551   5.864
 4100POPC   GL152921  25.246  17.518   6.164
 4100POPC   GL252922  25.199  17.396   6.164
 4100POPC   C1A52923  25.291  17.464   6.464
 4100POPC   D2A52924  25.237  17.514   6.764
 4100POPC   C3A52925  25.301  17.475   7.064
 4100POPC   C4A52926  25.235  17.510   7.364
 4100POPC   C1B52927  25.110  17.344   6.464
 4100POPC   C2B52928  25.107  17.331   6.764
 4100POPC   C3B52929  25.105  17.274   7.064
 4100POPC   C4B52930  25.152  17.276   7.364
 4101POPC   NC352931   2.016  18.303   5.564
 4101POPC   PO452932   2.031  18.300   5.864
 4101POPC   GL152933   1.990  18.248   6.164
 4101POPC   GL252934   2.085  18.431   6.164
 4101POPC   C1A52935   1.972  18.285   6.464
 4101POPC   D2A52936   2.032  18.252   6.764
 4101POPC   C3A52937   2.037  18.285   7.064
 4101POPC   C4A52938   1.984  18.322   7.364
 4101POPC   C1B52939   2.152  18.469   6.464
 4101POPC   C2B52940   2.094  18.548   6.764
 4101POPC   C3B52941   2.079  18.483   7.064
 4101POPC   C4B52942   2.064  18.554   7.364
 4102POPC   NC352943  18.323  27.603   5.564
 4102POPC   PO452944  18.254  27.615   5.864
 4102POPC   GL152945  18.247  27.611   6.164
 4102POPC   GL252946  18.301  27.520   6.164
 4102POPC   C1A52947  18.263  27.557   6.464
 4102POPC   D2A52948  18.298  27.612   6.764
 4102POPC   C3A52949  18.282  27.543   7.064
 4102POPC   C4A52950  18.278  27.545   7.364
 4102POPC   C1B52951  18.371  27.392   6.464
 4102POPC   C2B52952  18.404  27.358   6.764
 4102POPC   C3B52953  18.364  27.359   7.064
 4102POPC   C4B52954  18.375  27.356   7.364
 4103POPC   NC352955  32.278   8.199   5.564
 4103POPC   PO452956  32.210   8.177   5.864
 4103POPC   GL152957  32.289   8.147   6.164
 4103POPC   GL252958  32.093   8.147   6.164
 4103POPC   C1A52959  32.280   8.182   6.464
 4103POPC   D2A52960  32.245   8.204   6.764
 4103POPC   C3A52961  32.209   8.193   7.064
 4103POPC   C4A52962  32.218   8.226   7.364
 4103POPC   C1B52963  31.997   8.119   6.464
 4103POPC   C2B52964  32.001   8.175   6.764
 4103POPC   C3B52965  31.972   8.147   7.064
 4103POPC   C4B52966  31.957   8.173   7.364
 4104POPC   NC352967   2.722  28.347   5.564
 4104POPC   PO452968   2.791  28.389   5.864
 4104POPC   GL152969   2.729  28.383   6.164
 4104POPC   GL252970   2.712  28.285   6.164
 4104POPC   C1A52971   2.764  28.349   6.464
 4104POPC   D2A52972   2.797  28.387   6.764
 4104POPC   C3A52973   2.728  28.363   7.064
 4104POPC   C4A52974   2.804  28.375   7.364
 4104POPC   C1B52975   2.745  28.137   6.464
 4104POPC   C2B52976   2.684  28.148   6.764
 4104POPC   C3B52977   2.678  28.112   7.064
 4104POPC   C4B52978   2.744  28.079   7.364
 4105POPC   NC352979  32.289  29.917   5.564
 4105POPC   PO452980  32.251  29.923   5.864
 4105POPC   GL152981  32.282  29.949   6.164
 4105POPC   GL252982  32.356  29.972   6.164
 4105POPC   C1A52983  32.232  29.920   6.464
 4105POPC   D2A52984  32.267  29.899   6.764
 4105POPC   C3A52985  32.269  29.967   7.064
 4105POPC   C4A52986  32.248  29.968   7.364
 4105POPC   C1B52987  32.513  29.988   6.464
 4105POPC   C2B52988  32.456  29.996   6.764
 4105POPC   C3B52989  32.479  29.987   7.064
 4105POPC   C4B52990  32.464  29.999   7.364
 4106POPC   NC352991   5.111   8.169   5.564
 4106POPC   PO452992   5.050   8.241   5.864
 4106POPC   GL152993   5.074   8.182   6.164
 4106POPC   GL252994   5.131   8.110   6.164
 4106POPC   C1A52995   5.074   8.192   6.464
 4106POPC   D2A52996   5.076   8.199   6.764
 4106POPC   C3A52997   5.064   8.148   7.064
 4106POPC   C4A52998   5.055   8.147   7.364
 4106POPC   C1B52999   5.236   8.011   6.464
 4106POPC   C2B53000   5.265   7.956   6.764
 4106POPC   C3B53001   5.249   7.989   7.064
 4106POPC   C4B53002   5.205   7.970   7.364
 4107POPC   NC353003   2.741   4.284   5.564
 4107POPC   PO453004   2.725   4.276   5.864
 4107POPC   GL153005   2.760   4.281   6.164
 4107POPC   GL253006   2.860   4.207   6.164
 4107POPC   C1A53007   2.804   4.304   6.464
 4107POPC   D2A53008   2.722   4.273   6.764
 4107POPC   C3A53009   2.775   4.271   7.064
 4107POPC   C4A53010   2.806   4.329   7.364
 4107POPC   C1B53011   2.921   4.205   6.464
 4107POPC   C2B53012   2.990   4.136   6.764
 4107POPC   C3B53013   3.003   4.154   7.064
 4107POPC   C4B53014   2.958   4.149   7.364
 4108POPC   NC353015  29.961  15.906   5.564
 4108POPC   PO453016  29.900  15.913   5.864
 4108POPC   GL153017  29.888  15.987   6.164
 4108POPC   GL253018  30.056  15.870   6.164
 4108POPC   C1A53019  29.951  15.978   6.464
 4108POPC   D2A53020  29.912  15.975   6.764
 4108POPC   C3A53021  29.922  15.951   7.064
 4108POPC   C4A53022  29.914  15.981   7.364
 4108POPC   C1B53023  30.136  15.823   6.464
 4108POPC   C2B53024  30.122  15.793   6.764
 4108POPC   C3B53025  30.107  15.856   7.064
 4108POPC   C4B53026  30.184  15.807   7.364
 4109POPC   NC353027  26.068  33.038   5.564
 4109POPC   PO453028  26.061  32.981   5.864
 4109POPC   GL153029  26.022  33.065   6.164
 4109POPC   GL253030  26.159  33.060   6.164
 4109POPC   C1A53031  26.043  33.033   6.464
 4109POPC   D2A53032  26.073  32.989   6.764
 4109POPC   C3A53033  26.051  33.055   7.064
 4109POPC   C4A53034  26.028  33.053   7.364
 4109POPC   C1B53035  26.244  33.174   6.464
 4109POPC   C2B53036  26.297  33.108   6.764
 4109POPC   C3B53037  26.216  33.162   7.064
 4109POPC   C4B53038  26.263  33.179   7.364
 4110POPC   NC353039  15.169  21.386   5.564
 4110POPC   PO453040  15.160  21.368   5.864
 4110POPC   GL153041  15.141  21.435   6.164
 4110POPC   GL253042  15.053  21.378   6.164
 4110POPC   C1A53043  15.209  21.349   6.464
 4110POPC   D2A53044  15.133  21.380   6.764
 4110POPC   C3A53045  15.213  21.392   7.064
 4110POPC   C4A53046  15.133  21.369   7.364
 4110POPC   C1B53047  14.964  21.472   6.464
 4110POPC   C2B53048  14.963  21.453   6.764
 4110POPC   C3B53049  14.899  21.451   7.064
 4110POPC   C4B53050  14.920  21.433   7.364
 4111POPC   NC353051  19.104  33.821   5.564
 4111POPC   PO453052  19.061  33.788   5.864
 4111POPC   GL153053  19.088  33.829   6.164
 4111POPC   GL253054  19.186  33.831   6.164
 4111POPC   C1A53055  19.109  33.819   6.464
 4111POPC   D2A53056  19.078  33.825   6.764
 4111POPC   C3A53057  19.053  33.813   7.064
 4111POPC   C4A53058  19.018  33.783   7.364
 4111POPC   C1B53059  19.243  33.870   6.464
 4111POPC   C2B53060  19.311  33.908   6.764
 4111POPC   C3B53061  19.260  33.900   7.064
 4111POPC   C4B53062  19.316  33.879   7.364
 4112POPC   NC353063  40.813  40.794   5.564
 4112POPC   PO453064  40.816  40.748   5.864
 4112POPC   GL153065  40.797  40.802   6.164
 4112POPC   GL253066  40.684  40.719   6.164
 4112POPC   C1A53067  40.742  40.795   6.464
 4112POPC   D2A53068  40.801  40.735   6.764
 4112POPC   C3A53069  40.766  40.813   7.064
 4112POPC   C4A53070  40.737  40.798   7.364
 4112POPC   C1B53071  40.516  40.635   6.464
 4112POPC   C2B53072  40.516  40.674   6.764
 4112POPC   C3B53073  40.514  40.700   7.064
 4112POPC   C4B53074  40.530  40.679   7.364
 4113POPC   NC353075  39.995   1.181   5.564
 4113POPC   PO453076  40.056   1.253   5.864
 4113POPC   GL153077  40.010   1.213   6.164
 4113POPC   GL253078  39.908   1.282   6.164
 4113POPC   C1A53079  40.003   1.195   6.464
 4113POPC   D2A53080  40.043   1.211   6.764
 4113POPC   C3A53081  40.036   1.187   7.064
 4113POPC   C4A53082  40.050   1.196   7.364
 4113POPC   C1B53083  39.844   1.378   6.464
 4113POPC   C2B53084  39.860   1.370   6.764
 4113POPC   C3B53085  39.801   1.380   7.064
 4113POPC   C4B53086  39.799   1.397   7.364
 4114POPC   NC353087  29.958  24.447   5.564
 4114POPC   PO453088  29.932  24.478   5.864
 4114POPC   GL153089  29.969  24.483   6.164
 4114POPC   GL253090  29.804  24.438   6.164
 4114POPC   C1A53091  29.895  24.518   6.464
 4114POPC   D2A53092  29.962  24.509   6.764
 4114POPC   C3A53093  29.918  24.505   7.064
 4114POPC   C4A53094  29.910  24.466   7.364
 4114POPC   C1B53095  29.697  24.424   6.464
 4114POPC   C2B53096  29.708  24.420   6.764
 4114POPC   C3B53097  29.696  24.478   7.064
 4114POPC   C4B53098  29.703  24.389   7.364
 4115POPC   NC353099   5.125   7.394   5.564
 4115POPC   PO453100   5.050   7.430   5.864
 4115POPC   GL153101   5.046   7.392   6.164
 4115POPC   GL253102   4.994   7.407   6.164
 4115POPC   C1A53103   5.093   7.392   6.464
 4115POPC   D2A53104   5.067   7.394   6.764
 4115POPC   C3A53105   5.140   7.446   7.064
 4115POPC   C4A53106   5.117   7.457   7.364
 4115POPC   C1B53107   4.871   7.402   6.464
 4115POPC   C2B53108   4.885   7.323   6.764
 4115POPC   C3B53109   4.833   7.363   7.064
 4115POPC   C4B53110   4.802   7.381   7.364
 4116POPC   NC353111  36.907   1.999   5.564
 4116POPC   PO453112  36.898   1.986   5.864
 4116POPC   GL153113  36.876   2.022   6.164
 4116POPC   GL253114  36.902   2.141   6.164
 4116POPC   C1A53115  36.943   1.960   6.464
 4116POPC   D2A53116  36.858   1.988   6.764
 4116POPC   C3A53117  36.941   2.022   7.064
 4116POPC   C4A53118  36.943   1.999   7.364
 4116POPC   C1B53119  36.868   2.257   6.464
 4116POPC   C2B53120  36.869   2.280   6.764
 4116POPC   C3B53121  36.860   2.193   7.064
 4116POPC   C4B53122  36.867   2.228   7.364
 4117POPC   NC353123  12.049   3.529   5.564
 4117POPC   PO453124  12.069   3.561   5.864
 4117POPC   GL153125  12.089   3.500   6.164
 4117POPC   GL253126  12.159   3.541   6.164
 4117POPC   C1A53127  12.096   3.514   6.464
 4117POPC   D2A53128  12.036   3.522   6.764
 4117POPC   C3A53129  12.122   3.511   7.064
 4117POPC   C4A53130  12.053   3.569   7.364
 4117POPC   C1B53131  12.276   3.442   6.464
 4117POPC   C2B53132  12.345   3.431   6.764
 4117POPC   C3B53133  12.313   3.479   7.064
 4117POPC   C4B53134  12.281   3.487   7.364
 4118POPC   NC353135  35.336   5.095   5.564
 4118POPC   PO453136  35.360   5.090   5.864
 4118POPC   GL153137  35.341   5.100   6.164
 4118POPC   GL253138  35.365   5.001   6.164
 4118POPC   C1A53139  35.333   5.069   6.464
 4118POPC   D2A53140  35.332   5.078   6.764
 4118POPC   C3A53141  35.398   5.118   7.064
 4118POPC   C4A53142  35.346   5.109   7.364
 4118POPC   C1B53143  35.327   4.833   6.464
 4118POPC   C2B53144  35.357   4.861   6.764
 4118POPC   C3B53145  35.381   4.794   7.064
 4118POPC   C4B53146  35.351   4.802   7.364
 4119POPC   NC353147   5.089   1.218   5.564
 4119POPC   PO453148   5.121   1.234   5.864
 4119POPC   GL153149   5.083   1.249   6.164
 4119POPC   GL253150   5.003   1.328   6.164
 4119POPC   C1A53151   5.137   1.253   6.464
 4119POPC   D2A53152   5.049   1.218   6.764
 4119POPC   C3A53153   5.129   1.166   7.064
 4119POPC   C4A53154   5.093   1.198   7.364
 4119POPC   C1B53155   4.991   1.469   6.464
 4119POPC   C2B53156   4.980   1.415   6.764
 4119POPC   C3B53157   4.963   1.446   7.064
 4119POPC   C4B53158   4.964   1.469   7.364
 4120POPC   NC353159  16.690  12.819   5.564
 4120POPC   PO453160  16.699  12.884   5.864
 4120POPC   GL153161  16.735  12.867   6.164
 4120POPC   GL253162  16.642  12.949   6.164
 4120POPC   C1A53163  16.725  12.897   6.464
 4120POPC   D2A53164  16.696  12.828   6.764
 4120POPC   C3A53165  16.713  12.872   7.064
 4120POPC   C4A53166  16.730  12.804   7.364
 4120POPC   C1B53167  16.484  12.982   6.464
 4120POPC   C2B53168  16.524  13.028   6.764
 4120POPC   C3B53169  16.546  13.034   7.064
 4120POPC   C4B53170  16.487  13.050   7.364
 4121POPC   NC353171  29.936   9.700   5.564
 4121POPC   PO453172  29.931   9.744   5.864
 4121POPC   GL153173  29.963   9.761   6.164
 4121POPC   GL253174  29.814   9.713   6.164
 4121POPC   C1A53175  29.964   9.716   6.464
 4121POPC   D2A53176  29.969   9.751   6.764
 4121POPC   C3A53177  29.966   9.770   7.064
 4121POPC   C4A53178  29.950   9.742   7.364
 4121POPC   C1B53179  29.666   9.614   6.464
 4121POPC   C2B53180  29.725   9.674   6.764
 4121POPC   C3B53181  29.674   9.631   7.064
 4121POPC   C4B53182  29.703   9.610   7.364
 4122POPC   NC353183  27.570  22.956   5.564
 4122POPC   PO453184  27.555  22.926   5.864
 4122POPC   GL153185  27.565  22.905   6.164
 4122POPC   GL253186  27.468  22.855   6.164
 4122POPC   C1A53187  27.639  22.952   6.464
 4122POPC   D2A53188  27.568  22.891   6.764
 4122POPC   C3A53189  27.567  22.955   7.064
 4122POPC   C4A53190  27.616  22.891   7.364
 4122POPC   C1B53191  27.353  22.836   6.464
 4122POPC   C2B53192  27.398  22.869   6.764
 4122POPC   C3B53193  27.403  22.812   7.064
 4122POPC   C4B53194  27.376  22.869   7.364
 4123POPC   NC353195  27.580  44.622   5.564
 4123POPC   PO453196  27.584  44.634   5.864
 4123POPC   GL153197  27.602  44.631   6.164
 4123POPC   GL253198  27.505  44.758   6.164
 4123POPC   C1A53199  27.584  44.648   6.464
 4123POPC   D2A53200  27.591  44.707   6.764
 4123POPC   C3A53201  27.575  44.682   7.064
 4123POPC   C4A53202  27.572  44.682   7.364
 4123POPC   C1B53203  27.432  44.824   6.464
 4123POPC   C2B53204  27.369  44.777   6.764
 4123POPC   C3B53205  27.371  44.758   7.064
 4123POPC   C4B53206  27.337  44.757   7.364
 4124POPC   NC353207  34.537  27.627   5.564
 4124POPC   PO453208  34.590  27.554   5.864
 4124POPC   GL153209  34.539  27.618   6.164
 4124POPC   GL253210  34.658  27.624   6.164
 4124POPC   C1A53211  34.583  27.614   6.464
 4124POPC   D2A53212  34.605  27.642   6.764
 4124POPC   C3A53213  34.560  27.615   7.064
 4124POPC   C4A53214  34.573  27.569   7.364
 4124POPC   C1B53215  34.766  27.730   6.464
 4124POPC   C2B53216  34.833  27.734   6.764
 4124POPC   C3B53217  34.793  27.683   7.064
 4124POPC   C4B53218  34.846  27.722   7.364
 4125POPC   NC353219   1.988  15.970   5.564
 4125POPC   PO453220   2.010  15.908   5.864
 4125POPC   GL153221   1.978  15.922   6.164
 4125POPC   GL253222   2.151  15.921   6.164
 4125POPC   C1A53223   2.015  15.928   6.464
 4125POPC   D2A53224   1.958  15.907   6.764
 4125POPC   C3A53225   1.990  15.926   7.064
 4125POPC   C4A53226   1.949  15.964   7.364
 4125POPC   C1B53227   2.236  15.950   6.464
 4125POPC   C2B53228   2.203  15.926   6.764
 4125POPC   C3B53229   2.278  15.969   7.064
 4125POPC   C4B53230   2.191  15.961   7.364
 4126POPC   NC353231  26.010   5.910   5.564
 4126POPC   PO453232  26.045   5.851   5.864
 4126POPC   GL153233  26.077   5.839   6.164
 4126POPC   GL253234  26.114   5.958   6.164
 4126POPC   C1A53235  26.069   5.878   6.464
 4126POPC   D2A53236  26.087   5.857   6.764
 4126POPC   C3A53237  26.050   5.911   7.064
 4126POPC   C4A53238  26.049   5.823   7.364
 4126POPC   C1B53239  26.264   5.961   6.464
 4126POPC   C2B53240  26.291   5.976   6.764
 4126POPC   C3B53241  26.232   6.025   7.064
 4126POPC   C4B53242  26.293   5.960   7.364
 4127POPC   NC353243  26.016  29.896   5.564
 4127POPC   PO453244  26.051  29.967   5.864
 4127POPC   GL153245  26.051  29.953   6.164
 4127POPC   GL253246  26.025  30.044   6.164
 4127POPC   C1A53247  26.029  29.966   6.464
 4127POPC   D2A53248  26.068  29.877   6.764
 4127POPC   C3A53249  26.067  29.891   7.064
 4127POPC   C4A53250  26.010  29.895   7.364
 4127POPC   C1B53251  26.044  30.206   6.464
 4127POPC   C2B53252  26.018  30.211   6.764
 4127POPC   C3B53253  26.086  30.197   7.064
 4127POPC   C4B53254  26.046  30.128   7.364
 4128POPC   NC353255   2.764  22.115   5.564
 4128POPC   PO453256   2.809  22.131   5.864
 4128POPC   GL153257   2.804  22.210   6.164
 4128POPC   GL253258   2.842  22.106   6.164
 4128POPC   C1A53259   2.744  22.157   6.464
 4128POPC   D2A53260   2.784  22.184   6.764
 4128POPC   C3A53261   2.791  22.198   7.064
 4128POPC   C4A53262   2.800  22.154   7.364
 4128POPC   C1B53263   2.955  22.012   6.464
 4128POPC   C2B53264   2.923  22.061   6.764
 4128POPC   C3B53265   3.007  21.968   7.064
 4128POPC   C4B53266   3.017  22.046   7.364
 4129POPC   NC353267   6.620  12.085   5.564
 4129POPC   PO453268   6.640  12.076   5.864
 4129POPC   GL153269   6.659  12.059   6.164
 4129POPC   GL253270   6.726  12.038   6.164
 4129POPC   C1A53271   6.675  12.066   6.464
 4129POPC   D2A53272   6.665  12.065   6.764
 4129POPC   C3A53273   6.651  12.068   7.064
 4129POPC   C4A53274   6.599  12.078   7.364
 4129POPC   C1B53275   6.877  11.901   6.464
 4129POPC   C2B53276   6.851  11.956   6.764
 4129POPC   C3B53277   6.812  11.937   7.064
 4129POPC   C4B53278   6.879  11.914   7.364
 4130POPC   NC353279  19.084   9.719   5.564
 4130POPC   PO453280  19.082   9.763   5.864
 4130POPC   GL153281  19.090   9.715   6.164
 4130POPC   GL253282  18.995   9.833   6.164
 4130POPC   C1A53283  19.010   9.702   6.464
 4130POPC   D2A53284  19.051   9.725   6.764
 4130POPC   C3A53285  19.042   9.713   7.064
 4130POPC   C4A53286  19.086   9.736   7.364
 4130POPC   C1B53287  18.934   9.964   6.464
 4130POPC   C2B53288  18.913   9.972   6.764
 4130POPC   C3B53289  18.921   9.915   7.064
 4130POPC   C4B53290  18.857   9.950   7.364
 4131POPC   NC353291  15.992  22.211   5.564
 4131POPC   PO453292  15.990  22.212   5.864
 4131POPC   GL153293  15.996  22.144   6.164
 4131POPC   GL253294  15.849  22.028   6.164
 4131POPC   C1A53295  15.920  22.208   6.464
 4131POPC   D2A53296  15.993  22.202   6.764
 4131POPC   C3A53297  15.990  22.160   7.064
 4131POPC   C4A53298  15.935  22.188   7.364
 4131POPC   C1B53299  15.779  21.971   6.464
 4131POPC   C2B53300  15.796  21.991   6.764
 4131POPC   C3B53301  15.852  21.975   7.064
 4131POPC   C4B53302  15.786  21.947   7.364
 4132POPC   NC353303   2.016  20.607   5.564
 4132POPC   PO453304   2.033  20.628   5.864
 4132POPC   GL153305   2.024  20.603   6.164
 4132POPC   GL253306   1.972  20.783   6.164
 4132POPC   C1A53307   1.951  20.628   6.464
 4132POPC   D2A53308   1.981  20.620   6.764
 4132POPC   C3A53309   2.038  20.608   7.064
 4132POPC   C4A53310   2.037  20.656   7.364
 4132POPC   C1B53311   1.981  20.812   6.464
 4132POPC   C2B53312   2.014  20.871   6.764
 4132POPC   C3B53313   1.988  20.905   7.064
 4132POPC   C4B53314   2.039  20.875   7.364
 4133POPC   NC353315  29.909  36.101   5.564
 4133POPC   PO453316  29.924  36.150   5.864
 4133POPC   GL153317  29.959  36.162   6.164
 4133POPC   GL253318  29.869  36.219   6.164
 4133POPC   C1A53319  29.916  36.166   6.464
 4133POPC   D2A53320  29.908  36.145   6.764
 4133POPC   C3A53321  29.920  36.150   7.064
 4133POPC   C4A53322  29.880  36.156   7.364
 4133POPC   C1B53323  29.814  36.405   6.464
 4133POPC   C2B53324  29.770  36.306   6.764
 4133POPC   C3B53325  29.771  36.329   7.064
 4133POPC   C4B53326  29.775  36.328   7.364
 4134POPC   NC353327   9.762  22.929   5.564
 4134POPC   PO453328   9.761  22.985   5.864
 4134POPC   GL153329   9.769  22.889   6.164
 4134POPC   GL253330   9.876  22.918   6.164
 4134POPC   C1A53331   9.736  22.907   6.464
 4134POPC   D2A53332   9.724  22.914   6.764
 4134POPC   C3A53333   9.715  22.905   7.064
 4134POPC   C4A53334   9.747  22.900   7.364
 4134POPC   C1B53335   9.995  22.836   6.464
 4134POPC   C2B53336   9.921  22.814   6.764
 4134POPC   C3B53337   9.955  22.786   7.064
 4134POPC   C4B53338   9.969  22.803   7.364
 4135POPC   NC353339  39.250  33.046   5.564
 4135POPC   PO453340  39.231  33.060   5.864
 4135POPC   GL153341  39.269  33.073   6.164
 4135POPC   GL253342  39.342  33.069   6.164
 4135POPC   C1A53343  39.252  33.058   6.464
 4135POPC   D2A53344  39.213  33.055   6.764
 4135POPC   C3A53345  39.231  32.980   7.064
 4135POPC   C4A53346  39.225  32.987   7.364
 4135POPC   C1B53347  39.470  33.011   6.464
 4135POPC   C2B53348  39.527  33.032   6.764
 4135POPC   C3B53349  39.446  33.020   7.064
 4135POPC   C4B53350  39.504  33.025   7.364
 4136POPC   NC353351  14.426  29.927   5.564
 4136POPC   PO453352  14.418  29.902   5.864
 4136POPC   GL153353  14.397  29.895   6.164
 4136POPC   GL253354  14.372  30.009   6.164
 4136POPC   C1A53355  14.375  29.940   6.464
 4136POPC   D2A53356  14.357  29.888   6.764
 4136POPC   C3A53357  14.442  29.910   7.064
 4136POPC   C4A53358  14.435  29.915   7.364
 4136POPC   C1B53359  14.217  30.093   6.464
 4136POPC   C2B53360  14.254  30.076   6.764
 4136POPC   C3B53361  14.296  30.144   7.064
 4136POPC   C4B53362  14.269  30.099   7.364
 4137POPC   NC353363  37.647  38.449   5.564
 4137POPC   PO453364  37.690  38.447   5.864
 4137POPC   GL153365  37.656  38.469   6.164
 4137POPC   GL253366  37.780  38.520   6.164
 4137POPC   C1A53367  37.653  38.469   6.464
 4137POPC   D2A53368  37.709  38.493   6.764
 4137POPC   C3A53369  37.664  38.422   7.064
 4137POPC   C4A53370  37.652  38.415   7.364
 4137POPC   C1B53371  37.833  38.693   6.464
 4137POPC   C2B53372  37.769  38.682   6.764
 4137POPC   C3B53373  37.766  38.683   7.064
 4137POPC   C4B53374  37.827  38.718   7.364
 4138POPC   NC353375  30.713   4.271   5.564
 4138POPC   PO453376  30.690   4.320   5.864
 4138POPC   GL153377  30.697   4.320   6.164
 4138POPC   GL253378  30.779   4.470   6.164
 4138POPC   C1A53379  30.724   4.339   6.464
 4138POPC   D2A53380  30.725   4.347   6.764
 4138POPC   C3A53381  30.715   4.269   7.064
 4138POPC   C4A53382  30.659   4.295   7.364
 4138POPC   C1B53383  30.795   4.528   6.464
 4138POPC   C2B53384  30.746   4.535   6.764
 4138POPC   C3B53385  30.773   4.536   7.064
 4138POPC   C4B53386  30.813   4.537   7.364
 4139POPC   NC353387  43.877  36.104   5.564
 4139POPC   PO453388  43.921  36.158   5.864
 4139POPC   GL153389  43.866  36.095   6.164
 4139POPC   GL253390  43.801  36.180   6.164
 4139POPC   C1A53391  43.922  36.132   6.464
 4139POPC   D2A53392  43.919  36.117   6.764
 4139POPC   C3A53393  43.887  36.126   7.064
 4139POPC   C4A53394  43.924  36.107   7.364
 4139POPC   C1B53395  43.610  36.190   6.464
 4139POPC   C2B53396  43.690  36.184   6.764
 4139POPC   C3B53397  43.661  36.203   7.064
 4139POPC   C4B53398  43.604  36.186   7.364
 4140POPC   NC353399  30.690  41.597   5.564
 4140POPC   PO453400  30.716  41.586   5.864
 4140POPC   GL153401  30.695  41.531   6.164
 4140POPC   GL253402  30.714  41.445   6.164
 4140POPC   C1A53403  30.695  41.600   6.464
 4140POPC   D2A53404  30.680  41.580   6.764
 4140POPC   C3A53405  30.705  41.536   7.064
 4140POPC   C4A53406  30.713  41.603   7.364
 4140POPC   C1B53407  30.786  41.359   6.464
 4140POPC   C2B53408  30.795  41.308   6.764
 4140POPC   C3B53409  30.766  41.324   7.064
 4140POPC   C4B53410  30.735  41.345   7.364
 4141POPC   NC353411  15.970  41.550   5.564
 4141POPC   PO453412  16.004  41.585   5.864
 4141POPC   GL153413  15.984  41.544   6.164
 4141POPC   GL253414  15.883  41.517   6.164
 4141POPC   C1A53415  15.992  41.549   6.464
 4141POPC   D2A53416  15.982  41.585   6.764
 4141POPC   C3A53417  15.986  41.577   7.064
 4141POPC   C4A53418  15.990  41.542   7.364
 4141POPC   C1B53419  15.696  41.412   6.464
 4141POPC   C2B53420  15.720  41.475   6.764
 4141POPC   C3B53421  15.723  41.474   7.064
 4141POPC   C4B53422  15.776  41.467   7.364
 4142POPC   NC353423  29.150  42.375   5.564
 4142POPC   PO453424  29.151  42.303   5.864
 4142POPC   GL153425  29.125  42.312   6.164
 4142POPC   GL253426  29.176  42.441   6.164
 4142POPC   C1A53427  29.169  42.306   6.464
 4142POPC   D2A53428  29.168  42.318   6.764
 4142POPC   C3A53429  29.144  42.344   7.064
 4142POPC   C4A53430  29.116  42.308   7.364
 4142POPC   C1B53431  29.323  42.539   6.464
 4142POPC   C2B53432  29.322  42.496   6.764
 4142POPC   C3B53433  29.288  42.532   7.064
 4142POPC   C4B53434  29.298  42.494   7.364
 4143POPC   NC353435  32.275  21.362   5.564
 4143POPC   PO453436  32.298  21.383   5.864
 4143POPC   GL153437  32.203  21.400   6.164
 4143POPC   GL253438  32.238  21.516   6.164
 4143POPC   C1A53439  32.266  21.341   6.464
 4143POPC   D2A53440  32.269  21.377   6.764
 4143POPC   C3A53441  32.227  21.360   7.064
 4143POPC   C4A53442  32.232  21.434   7.364
 4143POPC   C1B53443  32.210  21.635   6.464
 4143POPC   C2B53444  32.172  21.667   6.764
 4143POPC   C3B53445  32.233  21.649   7.064
 4143POPC   C4B53446  32.195  21.611   7.364
 4144POPC   NC353447   4.362  32.983   5.564
 4144POPC   PO453448   4.345  32.997   5.864
 4144POPC   GL153449   4.293  33.001   6.164
 4144POPC   GL253450   4.171  33.046   6.164
 4144POPC   C1A53451   4.352  33.003   6.464
 4144POPC   D2A53452   4.364  33.046   6.764
 4144POPC   C3A53453   4.272  33.049   7.064
 4144POPC   C4A53454   4.311  32.996   7.364
 4144POPC   C1B53455   4.073  33.015   6.464
 4144POPC   C2B53456   4.085  33.002   6.764
 4144POPC   C3B53457   4.106  32.993   7.064
 4144POPC   C4B53458   4.066  33.020   7.364
 4145POPC   NC353459   1.173  25.997   5.564
 4145POPC   PO453460   1.171  26.030   5.864
 4145POPC   GL153461   1.223  26.080   6.164
 4145POPC   GL253462   1.258  25.903   6.164
 4145POPC   C1A53463   1.255  25.995   6.464
 4145POPC   D2A53464   1.195  26.046   6.764
 4145POPC   C3A53465   1.183  26.082   7.064
 4145POPC   C4A53466   1.226  26.053   7.364
 4145POPC   C1B53467   1.409  25.842   6.464
 4145POPC   C2B53468   1.338  25.896   6.764
 4145POPC   C3B53469   1.409  25.825   7.064
 4145POPC   C4B53470   1.352  25.908   7.364
 4146POPC   NC353471  36.143   3.552   5.564
 4146POPC   PO453472  36.126   3.530   5.864
 4146POPC   GL153473  36.145   3.526   6.164
 4146POPC   GL253474  36.043   3.589   6.164
 4146POPC   C1A53475  36.118   3.584   6.464
 4146POPC   D2A53476  36.125   3.510   6.764
 4146POPC   C3A53477  36.099   3.519   7.064
 4146POPC   C4A53478  36.109   3.534   7.364
 4146POPC   C1B53479  35.899   3.596   6.464
 4146POPC   C2B53480  35.880   3.557   6.764
 4146POPC   C3B53481  35.858   3.570   7.064
 4146POPC   C4B53482  35.920   3.549   7.364
 4147POPC   NC353483  26.784  17.464   5.564
 4147POPC   PO453484  26.846  17.470   5.864
 4147POPC   GL153485  26.844  17.522   6.164
 4147POPC   GL253486  26.731  17.552   6.164
 4147POPC   C1A53487  26.865  17.520   6.464
 4147POPC   D2A53488  26.816  17.543   6.764
 4147POPC   C3A53489  26.803  17.506   7.064
 4147POPC   C4A53490  26.829  17.554   7.364
 4147POPC   C1B53491  26.587  17.499   6.464
 4147POPC   C2B53492  26.595  17.525   6.764
 4147POPC   C3B53493  26.610  17.502   7.064
 4147POPC   C4B53494  26.599  17.584   7.364
 4148POPC   NC353495  40.809   1.952   5.564
 4148POPC   PO453496  40.784   1.966   5.864
 4148POPC   GL153497  40.809   2.029   6.164
 4148POPC   GL253498  40.705   2.158   6.164
 4148POPC   C1A53499  40.779   1.957   6.464
 4148POPC   D2A53500  40.808   2.009   6.764
 4148POPC   C3A53501  40.801   1.970   7.064
 4148POPC   C4A53502  40.794   1.975   7.364
 4148POPC   C1B53503  40.713   2.191   6.464
 4148POPC   C2B53504  40.759   2.274   6.764
 4148POPC   C3B53505  40.685   2.210   7.064
 4148POPC   C4B53506  40.719   2.235   7.364
 4149POPC   NC353507  42.334  26.823   5.564
 4149POPC   PO453508  42.286  26.779   5.864
 4149POPC   GL153509  42.374  26.784   6.164
 4149POPC   GL253510  42.163  26.787   6.164
 4149POPC   C1A53511  42.326  26.812   6.464
 4149POPC   D2A53512  42.362  26.772   6.764
 4149POPC   C3A53513  42.313  26.814   7.064
 4149POPC   C4A53514  42.334  26.812   7.364
 4149POPC   C1B53515  42.073  26.778   6.464
 4149POPC   C2B53516  42.116  26.813   6.764
 4149POPC   C3B53517  42.131  26.765   7.064
 4149POPC   C4B53518  42.078  26.810   7.364
 4150POPC   NC353519   6.688  28.368   5.564
 4150POPC   PO453520   6.628  28.377   5.864
 4150POPC   GL153521   6.654  28.381   6.164
 4150POPC   GL253522   6.716  28.311   6.164
 4150POPC   C1A53523   6.686  28.341   6.464
 4150POPC   D2A53524   6.607  28.417   6.764
 4150POPC   C3A53525   6.612  28.414   7.064
 4150POPC   C4A53526   6.673  28.402   7.364
 4150POPC   C1B53527   6.777  28.217   6.464
 4150POPC   C2B53528   6.822  28.166   6.764
 4150POPC   C3B53529   6.782  28.230   7.064
 4150POPC   C4B53530   6.842  28.186   7.364
 4151POPC   NC353531  23.686   4.292   5.564
 4151POPC   PO453532  23.731   4.329   5.864
 4151POPC   GL153533  23.729   4.358   6.164
 4151POPC   GL253534  23.850   4.256   6.164
 4151POPC   C1A53535  23.716   4.292   6.464
 4151POPC   D2A53536  23.717   4.291   6.764
 4151POPC   C3A53537  23.737   4.335   7.064
 4151POPC   C4A53538  23.753   4.293   7.364
 4151POPC   C1B53539  23.928   4.327   6.464
 4151POPC   C2B53540  24.007   4.260   6.764
 4151POPC   C3B53541  23.923   4.244   7.064
 4151POPC   C4B53542  23.935   4.249   7.364
 4152POPC   NC353543  26.074  21.429   5.564
 4152POPC   PO453544  26.056  21.375   5.864
 4152POPC   GL153545  26.041  21.348   6.164
 4152POPC   GL253546  26.052  21.487   6.164
 4152POPC   C1A53547  26.048  21.412   6.464
 4152POPC   D2A53548  26.035  21.395   6.764
 4152POPC   C3A53549  26.072  21.388   7.064
 4152POPC   C4A53550  26.042  21.357   7.364
 4152POPC   C1B53551  26.113  21.618   6.464
 4152POPC   C2B53552  26.044  21.608   6.764
 4152POPC   C3B53553  26.083  21.581   7.064
 4152POPC   C4B53554  26.106  21.631   7.364
 4153POPC   NC353555  35.334  14.418   5.564
 4153POPC   PO453556  35.348  14.400   5.864
 4153POPC   GL153557  35.394  14.446   6.164
 4153POPC   GL253558  35.391  14.551   6.164
 4153POPC   C1A53559  35.342  14.382   6.464
 4153POPC   D2A53560  35.396  14.370   6.764
 4153POPC   C3A53561  35.352  14.432   7.064
 4153POPC   C4A53562  35.328  14.355   7.364
 4153POPC   C1B53563  35.418  14.632   6.464
 4153POPC   C2B53564  35.416  14.691   6.764
 4153POPC   C3B53565  35.422  14.674   7.064
 4153POPC   C4B53566  35.379  14.671   7.364
 4154POPC   NC353567   0.398  16.690   5.564
 4154POPC   PO453568   0.471  16.737   5.864
 4154POPC   GL153569   0.454  16.739   6.164
 4154POPC   GL253570   0.404  16.837   6.164
 4154POPC   C1A53571   0.461  16.704   6.464
 4154POPC   D2A53572   0.469  16.765   6.764
 4154POPC   C3A53573   0.392  16.777   7.064
 4154POPC   C4A53574   0.403  16.708   7.364
 4154POPC   C1B53575   0.429  16.992   6.464
 4154POPC   C2B53576   0.464  16.961   6.764
 4154POPC   C3B53577   0.474  16.950   7.064
 4154POPC   C4B53578   0.439  16.985   7.364
 4155POPC   NC353579   6.670   8.176   5.564
 4155POPC   PO453580   6.604   8.206   5.864
 4155POPC   GL153581   6.622   8.193   6.164
 4155POPC   GL253582   6.757   8.130   6.164
 4155POPC   C1A53583   6.649   8.172   6.464
 4155POPC   D2A53584   6.637   8.224   6.764
 4155POPC   C3A53585   6.688   8.210   7.064
 4155POPC   C4A53586   6.677   8.196   7.364
 4155POPC   C1B53587   6.881   8.123   6.464
 4155POPC   C2B53588   6.821   8.117   6.764
 4155POPC   C3B53589   6.850   8.106   7.064
 4155POPC   C4B53590   6.893   8.133   7.364
 4156POPC   NC353591   4.286   8.962   5.564
 4156POPC   PO453592   4.345   9.022   5.864
 4156POPC   GL153593   4.272   8.944   6.164
 4156POPC   GL253594   4.231   8.852   6.164
 4156POPC   C1A53595   4.323   8.955   6.464
 4156POPC   D2A53596   4.339   8.966   6.764
 4156POPC   C3A53597   4.302   8.931   7.064
 4156POPC   C4A53598   4.328   8.938   7.364
 4156POPC   C1B53599   4.200   8.764   6.464
 4156POPC   C2B53600   4.160   8.773   6.764
 4156POPC   C3B53601   4.140   8.759   7.064
 4156POPC   C4B53602   4.211   8.796   7.364
 4157POPC   NC353603  19.072  23.678   5.564
 4157POPC   PO453604  19.057  23.682   5.864
 4157POPC   GL153605  19.037  23.731   6.164
 4157POPC   GL253606  19.197  23.671   6.164
 4157POPC   C1A53607  19.019  23.689   6.464
 4157POPC   D2A53608  19.026  23.716   6.764
 4157POPC   C3A53609  19.016  23.712   7.064
 4157POPC   C4A53610  19.034  23.664   7.364
 4157POPC   C1B53611  19.331  23.620   6.464
 4157POPC   C2B53612  19.273  23.652   6.764
 4157POPC   C3B53613  19.258  23.610   7.064
 4157POPC   C4B53614  19.314  23.638   7.364
 4158POPC   NC353615  16.693  28.385   5.564
 4158POPC   PO453616  16.683  28.418   5.864
 4158POPC   GL153617  16.705  28.402   6.164
 4158POPC   GL253618  16.664  28.495   6.164
 4158POPC   C1A53619  16.719  28.407   6.464
 4158POPC   D2A53620  16.755  28.336   6.764
 4158POPC   C3A53621  16.781  28.369   7.064
 4158POPC   C4A53622  16.704  28.331   7.364
 4158POPC   C1B53623  16.669  28.574   6.464
 4158POPC   C2B53624  16.658  28.626   6.764
 4158POPC   C3B53625  16.661  28.652   7.064
 4158POPC   C4B53626  16.644  28.591   7.364
 4159POPC   NC353627  11.252  43.895   5.564
 4159POPC   PO453628  11.279  43.882   5.864
 4159POPC   GL153629  11.264  43.867   6.164
 4159POPC   GL253630  11.225  43.962   6.164
 4159POPC   C1A53631  11.262  43.907   6.464
 4159POPC   D2A53632  11.307  43.876   6.764
 4159POPC   C3A53633  11.257  43.932   7.064
 4159POPC   C4A53634  11.279  43.930   7.364
 4159POPC   C1B53635  11.129  44.018   6.464
 4159POPC   C2B53636  11.124  43.991   6.764
 4159POPC   C3B53637  11.140  43.991   7.064
 4159POPC   C4B53638  11.101  44.055   7.364
 4160POPC   NC353639  26.034  17.481   5.564
 4160POPC   PO453640  25.997  17.497   5.864
 4160POPC   GL153641  26.070  17.501   6.164
 4160POPC   GL253642  25.891  17.508   6.164
 4160POPC   C1A53643  26.051  17.516   6.464
 4160POPC   D2A53644  26.070  17.546   6.764
 4160POPC   C3A53645  26.045  17.471   7.064
 4160POPC   C4A53646  26.077  17.539   7.364
 4160POPC   C1B53647  25.794  17.587   6.464
 4160POPC   C2B53648  25.819  17.581   6.764
 4160POPC   C3B53649  25.802  17.589   7.064
 4160POPC   C4B53650  25.769  17.636   7.364
 4161POPC   NC353651  43.143  13.597   5.564
 4161POPC   PO453652  43.099  13.633   5.864
 4161POPC   GL153653  43.132  13.583   6.164
 4161POPC   GL253654  42.988  13.700   6.164
 4161POPC   C1A53655  43.126  13.583   6.464
 4161POPC   D2A53656  43.094  13.657   6.764
 4161POPC   C3A53657  43.065  13.607   7.064
 4161POPC   C4A53658  43.063  13.649   7.364
 4161POPC   C1B53659  42.927  13.733   6.464
 4161POPC   C2B53660  42.947  13.752   6.764
 4161POPC   C3B53661  42.935  13.722   7.064
 4161POPC   C4B53662  42.880  13.778   7.364
 4162POPC   NC353663  29.931  29.969   5.564
 4162POPC   PO453664  29.878  29.874   5.864
 4162POPC   GL153665  29.923  29.913   6.164
 4162POPC   GL253666  29.783  30.024   6.164
 4162POPC   C1A53667  29.930  29.879   6.464
 4162POPC   D2A53668  29.873  29.940   6.764
 4162POPC   C3A53669  29.912  29.871   7.064
 4162POPC   C4A53670  29.955  29.931   7.364
 4162POPC   C1B53671  29.693  30.057   6.464
 4162POPC   C2B53672  29.674  30.086   6.764
 4162POPC   C3B53673  29.720  30.075   7.064
 4162POPC   C4B53674  29.694  30.032   7.364
 4163POPC   NC353675  39.270   8.179   5.564
 4163POPC   PO453676  39.221   8.156   5.864
 4163POPC   GL153677  39.226   8.186   6.164
 4163POPC   GL253678  39.215   8.053   6.164
 4163POPC   C1A53679  39.267   8.171   6.464
 4163POPC   D2A53680  39.185   8.233   6.764
 4163POPC   C3A53681  39.235   8.179   7.064
 4163POPC   C4A53682  39.242   8.149   7.364
 4163POPC   C1B53683  39.234   7.897   6.464
 4163POPC   C2B53684  39.279   7.920   6.764
 4163POPC   C3B53685  39.246   7.920   7.064
 4163POPC   C4B53686  39.255   7.923   7.364
 4164POPC   NC353687  10.549  40.832   5.564
 4164POPC   PO453688  10.514  40.783   5.864
 4164POPC   GL153689  10.513  40.754   6.164
 4164POPC   GL253690  10.631  40.687   6.164
 4164POPC   C1A53691  10.528  40.827   6.464
 4164POPC   D2A53692  10.487  40.752   6.764
 4164POPC   C3A53693  10.555  40.783   7.064
 4164POPC   C4A53694  10.570  40.758   7.364
 4164POPC   C1B53695  10.723  40.639   6.464
 4164POPC   C2B53696  10.765  40.631   6.764
 4164POPC   C3B53697  10.751  40.618   7.064
 4164POPC   C4B53698  10.721  40.680   7.364
 4165POPC   NC353699  20.572  42.381   5.564
 4165POPC   PO453700  20.612  42.305   5.864
 4165POPC   GL153701  20.561  42.356   6.164
 4165POPC   GL253702  20.533  42.450   6.164
 4165POPC   C1A53703  20.634  42.294   6.464
 4165POPC   D2A53704  20.605  42.378   6.764
 4165POPC   C3A53705  20.580  42.343   7.064
 4165POPC   C4A53706  20.650  42.307   7.364
 4165POPC   C1B53707  20.477  42.494   6.464
 4165POPC   C2B53708  20.461  42.558   6.764
 4165POPC   C3B53709  20.437  42.495   7.064
 4165POPC   C4B53710  20.462  42.529   7.364
 4166POPC   NC353711  36.900  43.079   5.564
 4166POPC   PO453712  36.901  43.144   5.864
 4166POPC   GL153713  36.872  43.074   6.164
 4166POPC   GL253714  36.971  43.145   6.164
 4166POPC   C1A53715  36.940  43.077   6.464
 4166POPC   D2A53716  36.865  43.102   6.764
 4166POPC   C3A53717  36.921  43.067   7.064
 4166POPC   C4A53718  36.926  43.075   7.364
 4166POPC   C1B53719  37.138  43.248   6.464
 4166POPC   C2B53720  37.108  43.212   6.764
 4166POPC   C3B53721  37.133  43.269   7.064
 4166POPC   C4B53722  37.060  43.234   7.364
 4167POPC   NC353723  17.459   7.381   5.564
 4167POPC   PO453724  17.494   7.424   5.864
 4167POPC   GL153725  17.489   7.467   6.164
 4167POPC   GL253726  17.511   7.521   6.164
 4167POPC   C1A53727  17.508   7.396   6.464
 4167POPC   D2A53728  17.557   7.380   6.764
 4167POPC   C3A53729  17.494   7.438   7.064
 4167POPC   C4A53730  17.490   7.454   7.364
 4167POPC   C1B53731  17.461   7.690   6.464
 4167POPC   C2B53732  17.443   7.676   6.764
 4167POPC   C3B53733  17.460   7.657   7.064
 4167POPC   C4B53734  17.421   7.641   7.364
 4168POPC   NC353735  40.749  31.495   5.564
 4168POPC   PO453736  40.826  31.436   5.864
 4168POPC   GL153737  40.743  31.450   6.164
 4168POPC   GL253738  40.757  31.542   6.164
 4168POPC   C1A53739  40.832  31.513   6.464
 4168POPC   D2A53740  40.821  31.456   6.764
 4168POPC   C3A53741  40.754  31.483   7.064
 4168POPC   C4A53742  40.812  31.455   7.364
 4168POPC   C1B53743  40.652  31.630   6.464
 4168POPC   C2B53744  40.612  31.720   6.764
 4168POPC   C3B53745  40.589  31.690   7.064
 4168POPC   C4B53746  40.600  31.644   7.364
 4169POPC   NC353747  40.749   2.720   5.564
 4169POPC   PO453748  40.824   2.734   5.864
 4169POPC   GL153749  40.790   2.726   6.164
 4169POPC   GL253750  40.921   2.729   6.164
 4169POPC   C1A53751  40.765   2.742   6.464
 4169POPC   D2A53752  40.781   2.745   6.764
 4169POPC   C3A53753  40.824   2.742   7.064
 4169POPC   C4A53754  40.830   2.807   7.364
 4169POPC   C1B53755  40.998   2.689   6.464
 4169POPC   C2B53756  40.989   2.675   6.764
 4169POPC   C3B53757  40.967   2.664   7.064
 4169POPC   C4B53758  40.964   2.604   7.364
 4170POPC   NC353759  32.292  23.712   5.564
 4170POPC   PO453760  32.253  23.714   5.864
 4170POPC   GL153761  32.210  23.706   6.164
 4170POPC   GL253762  32.389  23.632   6.164
 4170POPC   C1A53763  32.292  23.707   6.464
 4170POPC   D2A53764  32.269  23.670   6.764
 4170POPC   C3A53765  32.243  23.738   7.064
 4170POPC   C4A53766  32.290  23.726   7.364
 4170POPC   C1B53767  32.516  23.625   6.464
 4170POPC   C2B53768  32.505  23.579   6.764
 4170POPC   C3B53769  32.501  23.655   7.064
 4170POPC   C4B53770  32.525  23.604   7.364
 4171POPC   NC353771  26.844  16.762   5.564
 4171POPC   PO453772  26.774  16.735   5.864
 4171POPC   GL153773  26.851  16.700   6.164
 4171POPC   GL253774  26.704  16.695   6.164
 4171POPC   C1A53775  26.843  16.772   6.464
 4171POPC   D2A53776  26.855  16.722   6.764
 4171POPC   C3A53777  26.835  16.756   7.064
 4171POPC   C4A53778  26.840  16.765   7.364
 4171POPC   C1B53779  26.577  16.727   6.464
 4171POPC   C2B53780  26.558  16.757   6.764
 4171POPC   C3B53781  26.565  16.726   7.064
 4171POPC   C4B53782  26.590  16.685   7.364
 4172POPC   NC353783   1.983  43.080   5.564
 4172POPC   PO453784   2.034  43.070   5.864
 4172POPC   GL153785   1.954  43.072   6.164
 4172POPC   GL253786   1.962  43.225   6.164
 4172POPC   C1A53787   1.959  43.116   6.464
 4172POPC   D2A53788   1.977  43.119   6.764
 4172POPC   C3A53789   2.016  43.150   7.064
 4172POPC   C4A53790   2.006  43.155   7.364
 4172POPC   C1B53791   1.927  43.364   6.464
 4172POPC   C2B53792   1.945  43.306   6.764
 4172POPC   C3B53793   1.886  43.302   7.064
 4172POPC   C4B53794   1.871  43.327   7.364
 4173POPC   NC353795  21.371  23.732   5.564
 4173POPC   PO453796  21.350  23.678   5.864
 4173POPC   GL153797  21.352  23.710   6.164
 4173POPC   GL253798  21.297  23.673   6.164
 4173POPC   C1A53799  21.371  23.751   6.464
 4173POPC   D2A53800  21.345  23.665   6.764
 4173POPC   C3A53801  21.372  23.702   7.064
 4173POPC   C4A53802  21.343  23.697   7.364
 4173POPC   C1B53803  21.184  23.550   6.464
 4173POPC   C2B53804  21.218  23.625   6.764
 4173POPC   C3B53805  21.179  23.618   7.064
 4173POPC   C4B53806  21.200  23.620   7.364
 4174POPC   NC353807  10.505   1.252   5.564
 4174POPC   PO453808  10.564   1.261   5.864
 4174POPC   GL153809  10.559   1.175   6.164
 4174POPC   GL253810  10.470   1.346   6.164
 4174POPC   C1A53811  10.557   1.243   6.464
 4174POPC   D2A53812  10.488   1.207   6.764
 4174POPC   C3A53813  10.521   1.235   7.064
 4174POPC   C4A53814  10.496   1.202   7.364
 4174POPC   C1B53815  10.331   1.428   6.464
 4174POPC   C2B53816  10.337   1.367   6.764
 4174POPC   C3B53817  10.356   1.367   7.064
 4174POPC   C4B53818  10.403   1.450   7.364
 4175POPC   NC353819  24.478  12.072   5.564
 4175POPC   PO453820  24.520  12.028   5.864
 4175POPC   GL153821  24.494  12.113   6.164
 4175POPC   GL253822  24.348  12.187   6.164
 4175POPC   C1A53823  24.508  12.064   6.464
 4175POPC   D2A53824  24.494  12.074   6.764
 4175POPC   C3A53825  24.476  12.096   7.064
 4175POPC   C4A53826  24.538  12.066   7.364
 4175POPC   C1B53827  24.266  12.198   6.464
 4175POPC   C2B53828  24.330  12.201   6.764
 4175POPC   C3B53829  24.266  12.242   7.064
 4175POPC   C4B53830  24.311  12.188   7.364
 4176POPC   NC353831  19.107  41.535   5.564
 4176POPC   PO453832  19.019  41.607   5.864
 4176POPC   GL153833  19.040  41.524   6.164
 4176POPC   GL253834  19.055  41.419   6.164
 4176POPC   C1A53835  19.103  41.600   6.464
 4176POPC   D2A53836  19.064  41.608   6.764
 4176POPC   C3A53837  19.073  41.569   7.064
 4176POPC   C4A53838  19.087  41.537   7.364
 4176POPC   C1B53839  19.107  41.350   6.464
 4176POPC   C2B53840  19.177  41.298   6.764
 4176POPC   C3B53841  19.147  41.291   7.064
 4176POPC   C4B53842  19.130  41.329   7.364
 4177POPC   NC353843  28.321   1.189   5.564
 4177POPC   PO453844  28.409   1.254   5.864
 4177POPC   GL153845  28.334   1.217   6.164
 4177POPC   GL253846  28.319   1.332   6.164
 4177POPC   C1A53847  28.356   1.224   6.464
 4177POPC   D2A53848  28.352   1.190   6.764
 4177POPC   C3A53849  28.376   1.213   7.064
 4177POPC   C4A53850  28.364   1.262   7.364
 4177POPC   C1B53851  28.336   1.481   6.464
 4177POPC   C2B53852  28.319   1.427   6.764
 4177POPC   C3B53853  28.379   1.476   7.064
 4177POPC   C4B53854  28.373   1.485   7.364
 4178POPC   NC353855  30.740   9.730   5.564
 4178POPC   PO453856  30.697   9.745   5.864
 4178POPC   GL153857  30.704   9.716   6.164
 4178POPC   GL253858  30.608   9.698   6.164
 4178POPC   C1A53859  30.713   9.706   6.464
 4178POPC   D2A53860  30.672   9.781   6.764
 4178POPC   C3A53861  30.723   9.744   7.064
 4178POPC   C4A53862  30.678   9.748   7.364
 4178POPC   C1B53863  30.526   9.593   6.464
 4178POPC   C2B53864  30.504   9.522   6.764
 4178POPC   C3B53865  30.561   9.563   7.064
 4178POPC   C4B53866  30.565   9.547   7.364
 4179POPC   NC353867  22.976  35.398   5.564
 4179POPC   PO453868  22.941  35.362   5.864
 4179POPC   GL153869  22.943  35.366   6.164
 4179POPC   GL253870  23.000  35.183   6.164
 4179POPC   C1A53871  22.962  35.357   6.464
 4179POPC   D2A53872  22.973  35.351   6.764
 4179POPC   C3A53873  22.909  35.394   7.064
 4179POPC   C4A53874  22.944  35.401   7.364
 4179POPC   C1B53875  22.926  35.112   6.464
 4179POPC   C2B53876  22.975  35.086   6.764
 4179POPC   C3B53877  22.941  35.134   7.064
 4179POPC   C4B53878  22.946  35.138   7.364
 4180POPC   NC353879   4.283  36.105   5.564
 4180POPC   PO453880   4.268  36.164   5.864
 4180POPC   GL153881   4.311  36.109   6.164
 4180POPC   GL253882   4.189  36.145   6.164
 4180POPC   C1A53883   4.277  36.159   6.464
 4180POPC   D2A53884   4.282  36.115   6.764
 4180POPC   C3A53885   4.299  36.087   7.064
 4180POPC   C4A53886   4.291  36.087   7.364
 4180POPC   C1B53887   4.115  36.076   6.464
 4180POPC   C2B53888   4.082  36.055   6.764
 4180POPC   C3B53889   4.049  36.047   7.064
 4180POPC   C4B53890   4.080  36.103   7.364
 4181POPC   NC353891   1.177   4.298   5.564
 4181POPC   PO453892   1.174   4.283   5.864
 4181POPC   GL153893   1.189   4.357   6.164
 4181POPC   GL253894   1.062   4.312   6.164
 4181POPC   C1A53895   1.264   4.340   6.464
 4181POPC   D2A53896   1.174   4.296   6.764
 4181POPC   C3A53897   1.263   4.304   7.064
 4181POPC   C4A53898   1.228   4.316   7.364
 4181POPC   C1B53899   0.971   4.272   6.464
 4181POPC   C2B53900   0.946   4.303   6.764
 4181POPC   C3B53901   0.987   4.261   7.064
 4181POPC   C4B53902   1.000   4.341   7.364
 4182POPC   NC353903   1.227  28.389   5.564
 4182POPC   PO453904   1.185  28.383   5.864
 4182POPC   GL153905   1.209  28.333   6.164
 4182POPC   GL253906   1.347  28.284   6.164
 4182POPC   C1A53907   1.170  28.377   6.464
 4182POPC   D2A53908   1.196  28.328   6.764
 4182POPC   C3A53909   1.187  28.403   7.064
 4182POPC   C4A53910   1.219  28.364   7.364
 4182POPC   C1B53911   1.459  28.192   6.464
 4182POPC   C2B53912   1.377  28.192   6.764
 4182POPC   C3B53913   1.391  28.183   7.064
 4182POPC   C4B53914   1.456  28.225   7.364
 4183POPC   NC353915  16.698   6.640   5.564
 4183POPC   PO453916  16.714   6.694   5.864
 4183POPC   GL153917  16.759   6.666   6.164
 4183POPC   GL253918  16.706   6.819   6.164
 4183POPC   C1A53919  16.748   6.690   6.464
 4183POPC   D2A53920  16.706   6.621   6.764
 4183POPC   C3A53921  16.745   6.637   7.064
 4183POPC   C4A53922  16.766   6.692   7.364
 4183POPC   C1B53923  16.721   6.930   6.464
 4183POPC   C2B53924  16.757   6.943   6.764
 4183POPC   C3B53925  16.739   6.916   7.064
 4183POPC   C4B53926  16.696   6.920   7.364
 4184POPC   NC353927  27.639  35.311   5.564
 4184POPC   PO453928  27.563  35.304   5.864
 4184POPC   GL153929  27.615  35.395   6.164
 4184POPC   GL253930  27.700  35.366   6.164
 4184POPC   C1A53931  27.631  35.400   6.464
 4184POPC   D2A53932  27.610  35.333   6.764
 4184POPC   C3A53933  27.603  35.320   7.064
 4184POPC   C4A53934  27.583  35.346   7.364
 4184POPC   C1B53935  27.825  35.399   6.464
 4184POPC   C2B53936  27.833  35.372   6.764
 4184POPC   C3B53937  27.878  35.413   7.064
 4184POPC   C4B53938  27.847  35.349   7.364
 4185POPC   NC353939  18.261  39.216   5.564
 4185POPC   PO453940  18.332  39.251   5.864
 4185POPC   GL153941  18.245  39.241   6.164
 4185POPC   GL253942  18.142  39.265   6.164
 4185POPC   C1A53943  18.247  39.197   6.464
 4185POPC   D2A53944  18.272  39.203   6.764
 4185POPC   C3A53945  18.255  39.219   7.064
 4185POPC   C4A53946  18.324  39.215   7.364
 4185POPC   C1B53947  18.044  39.215   6.464
 4185POPC   C2B53948  18.063  39.274   6.764
 4185POPC   C3B53949  18.027  39.256   7.064
 4185POPC   C4B53950  17.994  39.267   7.364
 4186POPC   NC353951  37.662   9.772   5.564
 4186POPC   PO453952  37.728   9.723   5.864
 4186POPC   GL153953  37.649   9.757   6.164
 4186POPC   GL253954  37.791   9.706   6.164
 4186POPC   C1A53955  37.729   9.767   6.464
 4186POPC   D2A53956  37.704   9.776   6.764
 4186POPC   C3A53957  37.638   9.786   7.064
 4186POPC   C4A53958  37.668   9.716   7.364
 4186POPC   C1B53959  37.970   9.724   6.464
 4186POPC   C2B53960  37.921   9.747   6.764
 4186POPC   C3B53961  37.942   9.739   7.064
 4186POPC   C4B53962  37.933   9.666   7.364
 4187POPC   NC353963  29.136  18.305   5.564
 4187POPC   PO453964  29.119  18.332   5.864
 4187POPC   GL153965  29.114  18.243   6.164
 4187POPC   GL253966  29.152  18.217   6.164
 4187POPC   C1A53967  29.180  18.239   6.464
 4187POPC   D2A53968  29.161  18.311   6.764
 4187POPC   C3A53969  29.156  18.325   7.064
 4187POPC   C4A53970  29.146  18.266   7.364
 4187POPC   C1B53971  29.204  18.071   6.464
 4187POPC   C2B53972  29.294  18.089   6.764
 4187POPC   C3B53973  29.214  18.095   7.064
 4187POPC   C4B53974  29.228  18.037   7.364
 4188POPC   NC353975  36.132  17.522   5.564
 4188POPC   PO453976  36.172  17.515   5.864
 4188POPC   GL153977  36.138  17.458   6.164
 4188POPC   GL253978  36.090  17.594   6.164
 4188POPC   C1A53979  36.122  17.468   6.464
 4188POPC   D2A53980  36.086  17.487   6.764
 4188POPC   C3A53981  36.124  17.555   7.064
 4188POPC   C4A53982  36.158  17.513   7.364
 4188POPC   C1B53983  35.972  17.751   6.464
 4188POPC   C2B53984  36.027  17.703   6.764
 4188POPC   C3B53985  36.038  17.735   7.064
 4188POPC   C4B53986  36.033  17.716   7.364
 4189POPC   NC353987  44.684  35.303   5.564
 4189POPC   PO453988  44.666  35.334   5.864
 4189POPC   GL153989  44.634  35.341   6.164
 4189POPC   GL253990  44.748  35.298   6.164
 4189POPC   C1A53991  44.639  35.379   6.464
 4189POPC   D2A53992  44.687  35.348   6.764
 4189POPC   C3A53993  44.706  35.338   7.064
 4189POPC   C4A53994  44.672  35.353   7.364
 4189POPC   C1B53995  44.864  35.260   6.464
 4189POPC   C2B53996  44.950  35.322   6.764
 4189POPC   C3B53997  44.854  35.324   7.064
 4189POPC   C4B53998  44.879  35.318   7.364
 4190POPC   NC353999  26.090   8.958   5.564
 4190POPC   PO454000  25.996   9.008   5.864
 4190POPC   GL154001  26.076   9.006   6.164
 4190POPC   GL254002  26.070   9.133   6.164
 4190POPC   C1A54003  26.068   8.941   6.464
 4190POPC   D2A54004  26.034   8.943   6.764
 4190POPC   C3A54005  26.060   8.999   7.064
 4190POPC   C4A54006  26.012   8.931   7.364
 4190POPC   C1B54007  26.114   9.172   6.464
 4190POPC   C2B54008  26.172   9.158   6.764
 4190POPC   C3B54009  26.124   9.195   7.064
 4190POPC   C4B54010  26.185   9.173   7.364
 4191POPC   NC354011   5.098  32.256   5.564
 4191POPC   PO454012   5.106  32.230   5.864
 4191POPC   GL154013   5.070  32.259   6.164
 4191POPC   GL254014   5.036  32.350   6.164
 4191POPC   C1A54015   5.083  32.212   6.464
 4191POPC   D2A54016   5.057  32.256   6.764
 4191POPC   C3A54017   5.076  32.204   7.064
 4191POPC   C4A54018   5.066  32.216   7.364
 4191POPC   C1B54019   5.013  32.435   6.464
 4191POPC   C2B54020   4.975  32.508   6.764
 4191POPC   C3B54021   5.039  32.436   7.064
 4191POPC   C4B54022   5.010  32.462   7.364
 4192POPC   NC354023  43.928  24.459   5.564
 4192POPC   PO454024  43.907  24.448   5.864
 4192POPC   GL154025  43.929  24.454   6.164
 4192POPC   GL254026  43.922  24.330   6.164
 4192POPC   C1A54027  43.904  24.522   6.464
 4192POPC   D2A54028  43.869  24.510   6.764
 4192POPC   C3A54029  43.924  24.523   7.064
 4192POPC   C4A54030  43.907  24.471   7.364
 4192POPC   C1B54031  43.953  24.273   6.464
 4192POPC   C2B54032  43.939  24.275   6.764
 4192POPC   C3B54033  44.016  24.276   7.064
 4192POPC   C4B54034  43.995  24.205   7.364
 4193POPC   NC354035  20.584   5.108   5.564
 4193POPC   PO454036  20.648   5.095   5.864
 4193POPC   GL154037  20.570   5.129   6.164
 4193POPC   GL254038  20.514   4.997   6.164
 4193POPC   C1A54039  20.601   5.071   6.464
 4193POPC   D2A54040  20.582   5.096   6.764
 4193POPC   C3A54041  20.650   5.104   7.064
 4193POPC   C4A54042  20.560   5.105   7.364
 4193POPC   C1B54043  20.520   4.890   6.464
 4193POPC   C2B54044  20.534   4.834   6.764
 4193POPC   C3B54045  20.526   4.866   7.064
 4193POPC   C4B54046  20.488   4.868   7.364
 4194POPC   NC354047   1.176  33.809   5.564
 4194POPC   PO454048   1.240  33.809   5.864
 4194POPC   GL154049   1.225  33.810   6.164
 4194POPC   GL254050   1.315  33.923   6.164
 4194POPC   C1A54051   1.251  33.823   6.464
 4194POPC   D2A54052   1.250  33.775   6.764
 4194POPC   C3A54053   1.233  33.842   7.064
 4194POPC   C4A54054   1.222  33.758   7.364
 4194POPC   C1B54055   1.366  33.944   6.464
 4194POPC   C2B54056   1.375  33.939   6.764
 4194POPC   C3B54057   1.346  33.936   7.064
 4194POPC   C4B54058   1.381  33.963   7.364
 4195POPC   NC354059  30.668  27.589   5.564
 4195POPC   PO454060  30.711  27.589   5.864
 4195POPC   GL154061  30.690  27.560   6.164
 4195POPC   GL254062  30.698  27.683   6.164
 4195POPC   C1A54063  30.678  27.558   6.464
 4195POPC   D2A54064  30.727  27.560   6.764
 4195POPC   C3A54065  30.713  27.643   7.064
 4195POPC   C4A54066  30.668  27.570   7.364
 4195POPC   C1B54067  30.673  27.830   6.464
 4195POPC   C2B54068  30.641  27.881   6.764
 4195POPC   C3B54069  30.633  27.813   7.064
 4195POPC   C4B54070  30.622  27.857   7.364
 4196POPC   NC354071   1.237   8.972   5.564
 4196POPC   PO454072   1.198   8.992   5.864
 4196POPC   GL154073   1.173   8.987   6.164
 4196POPC   GL254074   1.260   9.028   6.164
 4196POPC   C1A54075   1.179   9.022   6.464
 4196POPC   D2A54076   1.197   9.007   6.764
 4196POPC   C3A54077   1.187   8.934   7.064
 4196POPC   C4A54078   1.256   8.984   7.364
 4196POPC   C1B54079   1.376   9.114   6.464
 4196POPC   C2B54080   1.415   9.158   6.764
 4196POPC   C3B54081   1.415   9.156   7.064
 4196POPC   C4B54082   1.394   9.163   7.364
 4197POPC   NC354083  26.775  12.090   5.564
 4197POPC   PO454084  26.844  12.098   5.864
 4197POPC   GL154085  26.834  12.063   6.164
 4197POPC   GL254086  26.977  12.096   6.164
 4197POPC   C1A54087  26.811  12.076   6.464
 4197POPC   D2A54088  26.819  12.069   6.764
 4197POPC   C3A54089  26.855  12.068   7.064
 4197POPC   C4A54090  26.774  12.029   7.364
 4197POPC   C1B54091  27.016  12.134   6.464
 4197POPC   C2B54092  27.031  12.155   6.764
 4197POPC   C3B54093  27.059  12.184   7.064
 4197POPC   C4B54094  27.092  12.102   7.364
 4198POPC   NC354095  35.368  25.992   5.564
 4198POPC   PO454096  35.391  26.025   5.864
 4198POPC   GL154097  35.341  26.025   6.164
 4198POPC   GL254098  35.429  25.890   6.164
 4198POPC   C1A54099  35.362  26.032   6.464
 4198POPC   D2A54100  35.330  26.071   6.764
 4198POPC   C3A54101  35.354  26.012   7.064
 4198POPC   C4A54102  35.382  26.055   7.364
 4198POPC   C1B54103  35.465  25.811   6.464
 4198POPC   C2B54104  35.431  25.849   6.764
 4198POPC   C3B54105  35.469  25.813   7.064
 4198POPC   C4B54106  35.504  25.856   7.364
 4199POPC   NC354107  21.377  36.893   5.564
 4199POPC   PO454108  21.429  36.888   5.864
 4199POPC   GL154109  21.356  36.880   6.164
 4199POPC   GL254110  21.473  36.749   6.164
 4199POPC   C1A54111  21.410  36.860   6.464
 4199POPC   D2A54112  21.423  36.860   6.764
 4199POPC   C3A54113  21.390  36.874   7.064
 4199POPC   C4A54114  21.436  36.894   7.364
 4199POPC   C1B54115  21.514  36.635   6.464
 4199POPC   C2B54116  21.509  36.671   6.764
 4199POPC   C3B54117  21.505  36.681   7.064
 4199POPC   C4B54118  21.422  36.638   7.364
 4200POPC   NC354119  16.710  16.688   5.564
 4200POPC   PO454120  16.686  16.684   5.864
 4200POPC   GL154121  16.741  16.681   6.164
 4200POPC   GL254122  16.775  16.660   6.164
 4200POPC   C1A54123  16.748  16.704   6.464
 4200POPC   D2A54124  16.749  16.772   6.764
 4200POPC   C3A54125  16.726  16.769   7.064
 4200POPC   C4A54126  16.778  16.701   7.364
 4200POPC   C1B54127  16.909  16.594   6.464
 4200POPC   C2B54128  16.935  16.536   6.764
 4200POPC   C3B54129  16.922  16.525   7.064
 4200POPC   C4B54130  16.860  16.519   7.364
 4201POPC   NC354131  20.597   1.173   5.564
 4201POPC   PO454132  20.647   1.167   5.864
 4201POPC   GL154133  20.568   1.166   6.164
 4201POPC   GL254134  20.554   1.148   6.164
 4201POPC   C1A54135  20.567   1.212   6.464
 4201POPC   D2A54136  20.634   1.174   6.764
 4201POPC   C3A54137  20.605   1.181   7.064
 4201POPC   C4A54138  20.613   1.168   7.364
 4201POPC   C1B54139  20.495   0.986   6.464
 4201POPC   C2B54140  20.520   0.974   6.764
 4201POPC   C3B54141  20.454   0.985   7.064
 4201POPC   C4B54142  20.428   0.961   7.364
 4202POPC   NC354143  15.957   2.717   5.564
 4202POPC   PO454144  15.924   2.776   5.864
 4202POPC   GL154145  15.942   2.736   6.164
 4202POPC   GL254146  15.817   2.781   6.164
 4202POPC   C1A54147  15.934   2.812   6.464
 4202POPC   D2A54148  15.909   2.724   6.764
 4202POPC   C3A54149  15.995   2.717   7.064
 4202POPC   C4A54150  15.980   2.737   7.364
 4202POPC   C1B54151  15.748   2.772   6.464
 4202POPC   C2B54152  15.722   2.800   6.764
 4202POPC   C3B54153  15.677   2.859   7.064
 4202POPC   C4B54154  15.677   2.785   7.364
 4203POPC   NC354155  34.536  24.511   5.564
 4203POPC   PO454156  34.540  24.514   5.864
 4203POPC   GL154157  34.600  24.480   6.164
 4203POPC   GL254158  34.672  24.599   6.164
 4203POPC   C1A54159  34.609  24.446   6.464
 4203POPC   D2A54160  34.568  24.489   6.764
 4203POPC   C3A54161  34.567  24.455   7.064
 4203POPC   C4A54162  34.616  24.440   7.364
 4203POPC   C1B54163  34.711  24.726   6.464
 4203POPC   C2B54164  34.757  24.678   6.764
 4203POPC   C3B54165  34.760  24.679   7.064
 4203POPC   C4B54166  34.710  24.709   7.364
 4204POPC   NC354167  36.934  19.869   5.564
 4204POPC   PO454168  36.879  19.872   5.864
 4204POPC   GL154169  36.911  19.829   6.164
 4204POPC   GL254170  36.831  19.898   6.164
 4204POPC   C1A54171  36.878  19.814   6.464
 4204POPC   D2A54172  36.925  19.848   6.764
 4204POPC   C3A54173  36.953  19.795   7.064
 4204POPC   C4A54174  36.931  19.845   7.364
 4204POPC   C1B54175  36.702  19.950   6.464
 4204POPC   C2B54176  36.710  19.945   6.764
 4204POPC   C3B54177  36.694  19.969   7.064
 4204POPC   C4B54178  36.720  19.985   7.364
 4205POPC   NC354179  12.889  25.299   5.564
 4205POPC   PO454180  12.808  25.267   5.864
 4205POPC   GL154181  12.805  25.307   6.164
 4205POPC   GL254182  12.829  25.383   6.164
 4205POPC   C1A54183  12.844  25.269   6.464
 4205POPC   D2A54184  12.846  25.271   6.764
 4205POPC   C3A54185  12.852  25.293   7.064
 4205POPC   C4A54186  12.833  25.232   7.364
 4205POPC   C1B54187  12.805  25.466   6.464
 4205POPC   C2B54188  12.775  25.484   6.764
 4205POPC   C3B54189  12.845  25.493   7.064
 4205POPC   C4B54190  12.809  25.490   7.364
 4206POPC   NC354191  29.928  22.963   5.564
 4206POPC   PO454192  29.945  22.896   5.864
 4206POPC   GL154193  29.884  22.946   6.164
 4206POPC   GL254194  29.792  23.054   6.164
 4206POPC   C1A54195  29.886  22.928   6.464
 4206POPC   D2A54196  29.931  22.894   6.764
 4206POPC   C3A54197  29.882  22.906   7.064
 4206POPC   C4A54198  29.913  22.911   7.364
 4206POPC   C1B54199  29.691  23.073   6.464
 4206POPC   C2B54200  29.728  23.093   6.764
 4206POPC   C3B54201  29.770  23.139   7.064
 4206POPC   C4B54202  29.772  23.141   7.364
 4207POPC   NC354203  22.142  38.438   5.564
 4207POPC   PO454204  22.143  38.453   5.864
 4207POPC   GL154205  22.183  38.443   6.164
 4207POPC   GL254206  22.236  38.318   6.164
 4207POPC   C1A54207  22.146  38.487   6.464
 4207POPC   D2A54208  22.167  38.448   6.764
 4207POPC   C3A54209  22.200  38.453   7.064
 4207POPC   C4A54210  22.139  38.490   7.364
 4207POPC   C1B54211  22.348  38.217   6.464
 4207POPC   C2B54212  22.266  38.200   6.764
 4207POPC   C3B54213  22.284  38.249   7.064
 4207POPC   C4B54214  22.300  38.209   7.364
 4208POPC   NC354215   5.129  21.353   5.564
 4208POPC   PO454216   5.056  21.422   5.864
 4208POPC   GL154217   5.059  21.433   6.164
 4208POPC   GL254218   5.046  21.271   6.164
 4208POPC   C1A54219   5.108  21.420   6.464
 4208POPC   D2A54220   5.058  21.426   6.764
 4208POPC   C3A54221   5.136  21.398   7.064
 4208POPC   C4A54222   5.056  21.351   7.364
 4208POPC   C1B54223   5.010  21.104   6.464
 4208POPC   C2B54224   5.009  21.111   6.764
 4208POPC   C3B54225   4.970  21.123   7.064
 4208POPC   C4B54226   5.012  21.163   7.364
 4209POPC   NC354227  39.240  19.014   5.564
 4209POPC   PO454228  39.269  19.056   5.864
 4209POPC   GL154229  39.181  19.075   6.164
 4209POPC   GL254230  39.316  18.924   6.164
 4209POPC   C1A54231  39.263  19.015   6.464
 4209POPC   D2A54232  39.277  19.042   6.764
 4209POPC   C3A54233  39.209  19.063   7.064
 4209POPC   C4A54234  39.236  19.041   7.364
 4209POPC   C1B54235  39.325  18.787   6.464
 4209POPC   C2B54236  39.340  18.851   6.764
 4209POPC   C3B54237  39.269  18.869   7.064
 4209POPC   C4B54238  39.268  18.851   7.364
 4210POPC   NC354239  19.830  17.494   5.564
 4210POPC   PO454240  19.870  17.524   5.864
 4210POPC   GL154241  19.819  17.550   6.164
 4210POPC   GL254242  19.761  17.553   6.164
 4210POPC   C1A54243  19.826  17.497   6.464
 4210POPC   D2A54244  19.802  17.517   6.764
 4210POPC   C3A54245  19.849  17.488   7.064
 4210POPC   C4A54246  19.788  17.463   7.364
 4210POPC   C1B54247  19.650  17.618   6.464
 4210POPC   C2B54248  19.596  17.683   6.764
 4210POPC   C3B54249  19.681  17.611   7.064
 4210POPC   C4B54250  19.634  17.657   7.364
 4211POPC   NC354251  27.550  40.006   5.564
 4211POPC   PO454252  27.616  39.978   5.864
 4211POPC   GL154253  27.590  40.035   6.164
 4211POPC   GL254254  27.516  40.002   6.164
 4211POPC   C1A54255  27.583  39.985   6.464
 4211POPC   D2A54256  27.612  39.964   6.764
 4211POPC   C3A54257  27.637  39.961   7.064
 4211POPC   C4A54258  27.579  39.963   7.364
 4211POPC   C1B54259  27.343  40.056   6.464
 4211POPC   C2B54260  27.392  39.967   6.764
 4211POPC   C3B54261  27.353  40.039   7.064
 4211POPC   C4B54262  27.379  40.012   7.364
 4212POPC   NC354263  15.912  32.214   5.564
 4212POPC   PO454264  15.938  32.210   5.864
 4212POPC   GL154265  15.965  32.233   6.164
 4212POPC   GL254266  15.910  32.383   6.164
 4212POPC   C1A54267  15.910  32.271   6.464
 4212POPC   D2A54268  15.987  32.221   6.764
 4212POPC   C3A54269  15.968  32.284   7.064
 4212POPC   C4A54270  15.926  32.246   7.364
 4212POPC   C1B54271  15.763  32.466   6.464
 4212POPC   C2B54272  15.779  32.377   6.764
 4212POPC   C3B54273  15.787  32.372   7.064
 4212POPC   C4B54274  15.764  32.461   7.364
 4213POPC   NC354275  12.856  43.089   5.564
 4213POPC   PO454276  12.889  43.076   5.864
 4213POPC   GL154277  12.809  43.155   6.164
 4213POPC   GL254278  12.942  43.149   6.164
 4213POPC   C1A54279  12.862  43.085   6.464
 4213POPC   D2A54280  12.832  43.143   6.764
 4213POPC   C3A54281  12.843  43.134   7.064
 4213POPC   C4A54282  12.892  43.109   7.364
 4213POPC   C1B54283  13.096  43.297   6.464
 4213POPC   C2B54284  13.062  43.244   6.764
 4213POPC   C3B54285  13.092  43.271   7.064
 4213POPC   C4B54286  13.090  43.296   7.364
 4214POPC   NC354287  17.505  27.546   5.564
 4214POPC   PO454288  17.514  27.599   5.864
 4214POPC   GL154289  17.491  27.597   6.164
 4214POPC   GL254290  17.595  27.575   6.164
 4214POPC   C1A54291  17.505  27.552   6.464
 4214POPC   D2A54292  17.520  27.583   6.764
 4214POPC   C3A54293  17.476  27.547   7.064
 4214POPC   C4A54294  17.494  27.595   7.364
 4214POPC   C1B54295  17.724  27.532   6.464
 4214POPC   C2B54296  17.770  27.477   6.764
 4214POPC   C3B54297  17.706  27.516   7.064
 4214POPC   C4B54298  17.693  27.477   7.364
 4215POPC   NC354299  12.866  14.356   5.564
 4215POPC   PO454300  12.863  14.364   5.864
 4215POPC   GL154301  12.835  14.419   6.164
 4215POPC   GL254302  12.977  14.463   6.164
 4215POPC   C1A54303  12.874  14.366   6.464
 4215POPC   D2A54304  12.830  14.386   6.764
 4215POPC   C3A54305  12.812  14.365   7.064
 4215POPC   C4A54306  12.885  14.398   7.364
 4215POPC   C1B54307  13.012  14.585   6.464
 4215POPC   C2B54308  12.994  14.623   6.764
 4215POPC   C3B54309  12.988  14.551   7.064
 4215POPC   C4B54310  12.972  14.580   7.364
 4216POPC   NC354311   2.764  15.992   5.564
 4216POPC   PO454312   2.771  15.987   5.864
 4216POPC   GL154313   2.801  15.968   6.164
 4216POPC   GL254314   2.842  15.965   6.164
 4216POPC   C1A54315   2.743  15.955   6.464
 4216POPC   D2A54316   2.776  15.966   6.764
 4216POPC   C3A54317   2.751  15.993   7.064
 4216POPC   C4A54318   2.768  15.950   7.364
 4216POPC   C1B54319   3.025  15.938   6.464
 4216POPC   C2B54320   2.983  15.850   6.764
 4216POPC   C3B54321   3.023  15.846   7.064
 4216POPC   C4B54322   2.991  15.848   7.364
 4217POPC   NC354323   5.110  29.913   5.564
 4217POPC   PO454324   5.094  29.878   5.864
 4217POPC   GL154325   5.103  29.904   6.164
 4217POPC   GL254326   5.050  29.820   6.164
 4217POPC   C1A54327   5.079  29.873   6.464
 4217POPC   D2A54328   5.116  29.961   6.764
 4217POPC   C3A54329   5.065  29.897   7.064
 4217POPC   C4A54330   5.108  29.887   7.364
 4217POPC   C1B54331   4.985  29.713   6.464
 4217POPC   C2B54332   4.979  29.648   6.764
 4217POPC   C3B54333   5.024  29.639   7.064
 4217POPC   C4B54334   5.001  29.657   7.364
 4218POPC   NC354335  27.606  37.702   5.564
 4218POPC   PO454336  27.630  37.672   5.864
 4218POPC   GL154337  27.548  37.674   6.164
 4218POPC   GL254338  27.471  37.581   6.164
 4218POPC   C1A54339  27.607  37.703   6.464
 4218POPC   D2A54340  27.559  37.638   6.764
 4218POPC   C3A54341  27.595  37.641   7.064
 4218POPC   C4A54342  27.574  37.692   7.364
 4218POPC   C1B54343  27.430  37.497   6.464
 4218POPC   C2B54344  27.465  37.448   6.764
 4218POPC   C3B54345  27.389  37.490   7.064
 4218POPC   C4B54346  27.448  37.503   7.364
 4219POPC   NC354347  34.592  10.478   5.564
 4219POPC   PO454348  34.536  10.550   5.864
 4219POPC   GL154349  34.541  10.550   6.164
 4219POPC   GL254350  34.554  10.451   6.164
 4219POPC   C1A54351  34.556  10.559   6.464
 4219POPC   D2A54352  34.617  10.477   6.764
 4219POPC   C3A54353  34.576  10.572   7.064
 4219POPC   C4A54354  34.539  10.561   7.364
 4219POPC   C1B54355  34.638  10.279   6.464
 4219POPC   C2B54356  34.608  10.315   6.764
 4219POPC   C3B54357  34.601  10.270   7.064
 4219POPC   C4B54358  34.610  10.260   7.364
 4220POPC   NC354359  43.927  41.581   5.564
 4220POPC   PO454360  43.935  41.581   5.864
 4220POPC   GL154361  43.863  41.527   6.164
 4220POPC   GL254362  44.054  41.576   6.164
 4220POPC   C1A54363  43.906  41.535   6.464
 4220POPC   D2A54364  43.935  41.579   6.764
 4220POPC   C3A54365  43.857  41.516   7.064
 4220POPC   C4A54366  43.909  41.571   7.364
 4220POPC   C1B54367  44.162  41.543   6.464
 4220POPC   C2B54368  44.102  41.561   6.764
 4220POPC   C3B54369  44.179  41.568   7.064
 4220POPC   C4B54370  44.126  41.542   7.364
 4221POPC   NC354371   5.867  11.252   5.564
 4221POPC   PO454372   5.879  11.321   5.864
 4221POPC   GL154373   5.864  11.301   6.164
 4221POPC   GL254374   5.743  11.258   6.164
 4221POPC   C1A54375   5.870  11.275   6.464
 4221POPC   D2A54376   5.892  11.332   6.764
 4221POPC   C3A54377   5.834  11.293   7.064
 4221POPC   C4A54378   5.853  11.288   7.364
 4221POPC   C1B54379   5.634  11.096   6.464
 4221POPC   C2B54380   5.690  11.133   6.764
 4221POPC   C3B54381   5.632  11.115   7.064
 4221POPC   C4B54382   5.699  11.156   7.364
 4222POPC   NC354383  39.223  23.696   5.564
 4222POPC   PO454384  39.263  23.751   5.864
 4222POPC   GL154385  39.262  23.719   6.164
 4222POPC   GL254386  39.084  23.763   6.164
 4222POPC   C1A54387  39.276  23.670   6.464
 4222POPC   D2A54388  39.278  23.732   6.764
 4222POPC   C3A54389  39.251  23.688   7.064
 4222POPC   C4A54390  39.204  23.712   7.364
 4222POPC   C1B54391  39.028  23.815   6.464
 4222POPC   C2B54392  39.013  23.834   6.764
 4222POPC   C3B54393  39.015  23.797   7.064
 4222POPC   C4B54394  38.995  23.788   7.364
 4223POPC   NC354395  11.309  14.435   5.564
 4223POPC   PO454396  11.313  14.415   5.864
 4223POPC   GL154397  11.292  14.421   6.164
 4223POPC   GL254398  11.238  14.458   6.164
 4223POPC   C1A54399  11.311  14.433   6.464
 4223POPC   D2A54400  11.253  14.423   6.764
 4223POPC   C3A54401  11.322  14.363   7.064
 4223POPC   C4A54402  11.262  14.418   7.364
 4223POPC   C1B54403  11.125  14.620   6.464
 4223POPC   C2B54404  11.103  14.555   6.764
 4223POPC   C3B54405  11.119  14.584   7.064
 4223POPC   C4B54406  11.127  14.594   7.364
 4224POPC   NC354407  18.249   6.649   5.564
 4224POPC   PO454408  18.285   6.692   5.864
 4224POPC   GL154409  18.316   6.635   6.164
 4224POPC   GL254410  18.198   6.699   6.164
 4224POPC   C1A54411  18.326   6.635   6.464
 4224POPC   D2A54412  18.283   6.599   6.764
 4224POPC   C3A54413  18.280   6.643   7.064
 4224POPC   C4A54414  18.318   6.652   7.364
 4224POPC   C1B54415  18.083   6.769   6.464
 4224POPC   C2B54416  18.042   6.750   6.764
 4224POPC   C3B54417  18.022   6.802   7.064
 4224POPC   C4B54418  18.099   6.770   7.364
 4225POPC   NC354419   5.120  43.855   5.564
 4225POPC   PO454420   5.096  43.844   5.864
 4225POPC   GL154421   5.059  43.889   6.164
 4225POPC   GL254422   5.080  43.715   6.164
 4225POPC   C1A54423   5.130  43.900   6.464
 4225POPC   D2A54424   5.052  43.875   6.764
 4225POPC   C3A54425   5.100  43.882   7.064
 4225POPC   C4A54426   5.116  43.902   7.364
 4225POPC   C1B54427   5.113  43.587   6.464
 4225POPC   C2B54428   5.077  43.648   6.764
 4225POPC   C3B54429   5.105  43.671   7.064
 4225POPC   C4B54430   5.151  43.616   7.364
 4226POPC   NC354431  31.432  12.075   5.564
 4226POPC   PO454432  31.467  12.075   5.864
 4226POPC   GL154433  31.520  12.044   6.164
 4226POPC   GL254434  31.334  11.996   6.164
 4226POPC   C1A54435  31.486  12.125   6.464
 4226POPC   D2A54436  31.438  12.125   6.764
 4226POPC   C3A54437  31.519  12.118   7.064
 4226POPC   C4A54438  31.500  12.066   7.364
 4226POPC   C1B54439  31.276  12.002   6.464
 4226POPC   C2B54440  31.222  11.948   6.764
 4226POPC   C3B54441  31.265  11.980   7.064
 4226POPC   C4B54442  31.205  12.000   7.364
 4227POPC   NC354443  29.872   7.397   5.564
 4227POPC   PO454444  29.897   7.459   5.864
 4227POPC   GL154445  29.887   7.433   6.164
 4227POPC   GL254446  30.015   7.493   6.164
 4227POPC   C1A54447  29.897   7.374   6.464
 4227POPC   D2A54448  29.942   7.438   6.764
 4227POPC   C3A54449  29.922   7.392   7.064
 4227POPC   C4A54450  29.899   7.433   7.364
 4227POPC   C1B54451  30.161   7.494   6.464
 4227POPC   C2B54452  30.140   7.505   6.764
 4227POPC   C3B54453  30.143   7.495   7.064
 4227POPC   C4B54454  30.194   7.500   7.364
 4228POPC   NC354455  26.076  27.566   5.564
 4228POPC   PO454456  26.050  27.582   5.864
 4228POPC   GL154457  26.059  27.593   6.164
 4228POPC   GL254458  25.902  27.659   6.164
 4228POPC   C1A54459  25.994  27.613   6.464
 4228POPC   D2A54460  26.003  27.559   6.764
 4228POPC   C3A54461  26.083  27.612   7.064
 4228POPC   C4A54462  26.090  27.565   7.364
 4228POPC   C1B54463  25.818  27.752   6.464
 4228POPC   C2B54464  25.827  27.712   6.764
 4228POPC   C3B54465  25.820  27.689   7.064
 4228POPC   C4B54466  25.791  27.736   7.364
 4229POPC   NC354467  27.598   1.214   5.564
 4229POPC   PO454468  27.612   1.182   5.864
 4229POPC   GL154469  27.630   1.193   6.164
 4229POPC   GL254470  27.660   1.125   6.164
 4229POPC   C1A54471  27.594   1.195   6.464
 4229POPC   D2A54472  27.640   1.223   6.764
 4229POPC   C3A54473  27.615   1.236   7.064
 4229POPC   C4A54474  27.557   1.193   7.364
 4229POPC   C1B54475  27.755   1.091   6.464
 4229POPC   C2B54476  27.770   1.066   6.764
 4229POPC   C3B54477  27.783   1.092   7.064
 4229POPC   C4B54478  27.746   1.044   7.364
 4230POPC   NC354479  36.921  32.266   5.564
 4230POPC   PO454480  36.861  32.218   5.864
 4230POPC   GL154481  36.862  32.284   6.164
 4230POPC   GL254482  36.841  32.389   6.164
 4230POPC   C1A54483  36.918  32.277   6.464
 4230POPC   D2A54484  36.891  32.277   6.764
 4230POPC   C3A54485  36.854  32.220   7.064
 4230POPC   C4A54486  36.883  32.260   7.364
 4230POPC   C1B54487  36.769  32.425   6.464
 4230POPC   C2B54488  36.815  32.468   6.764
 4230POPC   C3B54489  36.737  32.432   7.064
 4230POPC   C4B54490  36.805  32.425   7.364
 4231POPC   NC354491   5.088  37.644   5.564
 4231POPC   PO454492   5.056  37.669   5.864
 4231POPC   GL154493   5.085  37.708   6.164
 4231POPC   GL254494   5.106  37.838   6.164
 4231POPC   C1A54495   5.058  37.630   6.464
 4231POPC   D2A54496   5.075  37.644   6.764
 4231POPC   C3A54497   5.142  37.694   7.064
 4231POPC   C4A54498   5.047  37.641   7.364
 4231POPC   C1B54499   4.975  37.874   6.464
 4231POPC   C2B54500   4.975  37.955   6.764
 4231POPC   C3B54501   5.045  37.948   7.064
 4231POPC   C4B54502   5.005  37.878   7.364
 4232POPC   NC354503  36.887   4.340   5.564
 4232POPC   PO454504  36.906   4.277   5.864
 4232POPC   GL154505  36.896   4.282   6.164
 4232POPC   GL254506  36.802   4.389   6.164
 4232POPC   C1A54507  36.915   4.364   6.464
 4232POPC   D2A54508  36.914   4.330   6.764
 4232POPC   C3A54509  36.859   4.335   7.064
 4232POPC   C4A54510  36.940   4.300   7.364
 4232POPC   C1B54511  36.732   4.509   6.464
 4232POPC   C2B54512  36.679   4.469   6.764
 4232POPC   C3B54513  36.704   4.497   7.064
 4232POPC   C4B54514  36.759   4.515   7.364
 4233POPC   NC354515  29.962  37.634   5.564
 4233POPC   PO454516  29.893  37.638   5.864
 4233POPC   GL154517  29.912  37.639   6.164
 4233POPC   GL254518  29.834  37.574   6.164
 4233POPC   C1A54519  29.954  37.638   6.464
 4233POPC   D2A54520  29.934  37.662   6.764
 4233POPC   C3A54521  29.903  37.677   7.064
 4233POPC   C4A54522  29.900  37.667   7.364
 4233POPC   C1B54523  29.840  37.436   6.464
 4233POPC   C2B54524  29.810  37.465   6.764
 4233POPC   C3B54525  29.775  37.506   7.064
 4233POPC   C4B54526  29.845  37.449   7.364
 4234POPC   NC354527  12.035   8.160   5.564
 4234POPC   PO454528  12.124   8.192   5.864
 4234POPC   GL154529  12.045   8.149   6.164
 4234POPC   GL254530  12.242   8.161   6.164
 4234POPC   C1A54531  12.062   8.159   6.464
 4234POPC   D2A54532  12.093   8.208   6.764
 4234POPC   C3A54533  12.071   8.216   7.064
 4234POPC   C4A54534  12.040   8.179   7.364
 4234POPC   C1B54535  12.354   8.154   6.464
 4234POPC   C2B54536  12.308   8.114   6.764
 4234POPC   C3B54537  12.333   8.081   7.064
 4234POPC   C4B54538  12.350   8.106   7.364
 4235POPC   NC354539  33.019   8.938   5.564
 4235POPC   PO454540  33.039   8.932   5.864
 4235POPC   GL154541  33.056   8.966   6.164
 4235POPC   GL254542  33.155   9.010   6.164
 4235POPC   C1A54543  33.009   8.971   6.464
 4235POPC   D2A54544  32.981   8.956   6.764
 4235POPC   C3A54545  33.065   9.005   7.064
 4235POPC   C4A54546  33.059   9.018   7.364
 4235POPC   C1B54547  33.255   9.011   6.464
 4235POPC   C2B54548  33.313   8.999   6.764
 4235POPC   C3B54549  33.315   9.017   7.064
 4235POPC   C4B54550  33.316   9.018   7.364
 4236POPC   NC354551  26.000  20.602   5.564
 4236POPC   PO454552  26.060  20.583   5.864
 4236POPC   GL154553  26.041  20.577   6.164
 4236POPC   GL254554  26.148  20.652   6.164
 4236POPC   C1A54555  26.090  20.654   6.464
 4236POPC   D2A54556  26.043  20.622   6.764
 4236POPC   C3A54557  26.042  20.575   7.064
 4236POPC   C4A54558  26.001  20.578   7.364
 4236POPC   C1B54559  26.294  20.650   6.464
 4236POPC   C2B54560  26.330  20.597   6.764
 4236POPC   C3B54561  26.316  20.593   7.064
 4236POPC   C4B54562  26.254  20.595   7.364
 4237POPC   NC354563  24.445  15.155   5.564
 4237POPC   PO454564  24.465  15.223   5.864
 4237POPC   GL154565  24.511  15.154   6.164
 4237POPC   GL254566  24.495  15.033   6.164
 4237POPC   C1A54567  24.504  15.220   6.464
 4237POPC   D2A54568  24.537  15.162   6.764
 4237POPC   C3A54569  24.489  15.192   7.064
 4237POPC   C4A54570  24.493  15.145   7.364
 4237POPC   C1B54571  24.500  14.978   6.464
 4237POPC   C2B54572  24.500  14.890   6.764
 4237POPC   C3B54573  24.589  14.919   7.064
 4237POPC   C4B54574  24.540  14.925   7.364
 4238POPC   NC354575  27.571  21.416   5.564
 4238POPC   PO454576  27.584  21.363   5.864
 4238POPC   GL154577  27.606  21.410   6.164
 4238POPC   GL254578  27.717  21.449   6.164
 4238POPC   C1A54579  27.544  21.341   6.464
 4238POPC   D2A54580  27.576  21.364   6.764
 4238POPC   C3A54581  27.552  21.401   7.064
 4238POPC   C4A54582  27.596  21.386   7.364
 4238POPC   C1B54583  27.776  21.566   6.464
 4238POPC   C2B54584  27.778  21.538   6.764
 4238POPC   C3B54585  27.717  21.571   7.064
 4238POPC   C4B54586  27.786  21.535   7.364
 4239POPC   NC354587  37.722  18.258   5.564
 4239POPC   PO454588  37.723  18.281   5.864
 4239POPC   GL154589  37.686  18.287   6.164
 4239POPC   GL254590  37.565  18.193   6.164
 4239POPC   C1A54591  37.709  18.246   6.464
 4239POPC   D2A54592  37.669  18.266   6.764
 4239POPC   C3A54593  37.716  18.310   7.064
 4239POPC   C4A54594  37.652  18.316   7.364
 4239POPC   C1B54595  37.471  18.120   6.464
 4239POPC   C2B54596  37.473  18.130   6.764
 4239POPC   C3B54597  37.471  18.125   7.064
 4239POPC   C4B54598  37.539  18.113   7.364
 4240POPC   NC354599  32.277   1.175   5.564
 4240POPC   PO454600  32.242   1.185   5.864
 4240POPC   GL154601  32.278   1.255   6.164
 4240POPC   GL254602  32.201   1.125   6.164
 4240POPC   C1A54603  32.258   1.203   6.464
 4240POPC   D2A54604  32.297   1.258   6.764
 4240POPC   C3A54605  32.274   1.249   7.064
 4240POPC   C4A54606  32.254   1.221   7.364
 4240POPC   C1B54607  32.248   0.981   6.464
 4240POPC   C2B54608  32.189   0.939   6.764
 4240POPC   C3B54609  32.151   0.976   7.064
 4240POPC   C4B54610  32.204   0.959   7.364
 4241POPC   NC354611  26.029  16.733   5.564
 4241POPC   PO454612  25.998  16.700   5.864
 4241POPC   GL154613  26.030  16.702   6.164
 4241POPC   GL254614  26.102  16.799   6.164
 4241POPC   C1A54615  26.002  16.697   6.464
 4241POPC   D2A54616  26.079  16.686   6.764
 4241POPC   C3A54617  26.047  16.709   7.064
 4241POPC   C4A54618  26.002  16.745   7.364
 4241POPC   C1B54619  26.199  16.931   6.464
 4241POPC   C2B54620  26.201  16.880   6.764
 4241POPC   C3B54621  26.166  16.969   7.064
 4241POPC   C4B54622  26.179  16.902   7.364
 4242POPC   NC354623  19.092  20.655   5.564
 4242POPC   PO454624  19.094  20.614   5.864
 4242POPC   GL154625  19.024  20.658   6.164
 4242POPC   GL254626  19.142  20.532   6.164
 4242POPC   C1A54627  19.062  20.583   6.464
 4242POPC   D2A54628  19.024  20.599   6.764
 4242POPC   C3A54629  19.087  20.634   7.064
 4242POPC   C4A54630  19.019  20.622   7.364
 4242POPC   C1B54631  19.319  20.565   6.464
 4242POPC   C2B54632  19.264  20.493   6.764
 4242POPC   C3B54633  19.253  20.481   7.064
 4242POPC   C4B54634  19.249  20.545   7.364
 4243POPC   NC354635   7.438  30.657   5.564
 4243POPC   PO454636   7.470  30.698   5.864
 4243POPC   GL154637   7.425  30.672   6.164
 4243POPC   GL254638   7.443  30.771   6.164
 4243POPC   C1A54639   7.423  30.736   6.464
 4243POPC   D2A54640   7.418  30.707   6.764
 4243POPC   C3A54641   7.455  30.677   7.064
 4243POPC   C4A54642   7.398  30.655   7.364
 4243POPC   C1B54643   7.493  30.907   6.464
 4243POPC   C2B54644   7.505  30.886   6.764
 4243POPC   C3B54645   7.551  30.878   7.064
 4243POPC   C4B54646   7.502  30.962   7.364
 4244POPC   NC354647  42.334  16.773   5.564
 4244POPC   PO454648  42.298  16.702   5.864
 4244POPC   GL154649  42.345  16.713   6.164
 4244POPC   GL254650  42.195  16.693   6.164
 4244POPC   C1A54651  42.353  16.699   6.464
 4244POPC   D2A54652  42.335  16.766   6.764
 4244POPC   C3A54653  42.289  16.772   7.064
 4244POPC   C4A54654  42.296  16.748   7.364
 4244POPC   C1B54655  42.096  16.719   6.464
 4244POPC   C2B54656  42.065  16.707   6.764
 4244POPC   C3B54657  42.067  16.724   7.064
 4244POPC   C4B54658  42.035  16.793   7.364
 4245POPC   NC354659   3.546  26.786   5.564
 4245POPC   PO454660   3.528  26.770   5.864
 4245POPC   GL154661   3.515  26.790   6.164
 4245POPC   GL254662   3.489  26.712   6.164
 4245POPC   C1A54663   3.590  26.866   6.464
 4245POPC   D2A54664   3.583  26.788   6.764
 4245POPC   C3A54665   3.573  26.847   7.064
 4245POPC   C4A54666   3.513  26.812   7.364
 4245POPC   C1B54667   3.428  26.619   6.464
 4245POPC   C2B54668   3.445  26.649   6.764
 4245POPC   C3B54669   3.402  26.590   7.064
 4245POPC   C4B54670   3.418  26.649   7.364
 4246POPC   NC354671   0.487  22.151   5.564
 4246POPC   PO454672   0.432  22.160   5.864
 4246POPC   GL154673   0.443  22.147   6.164
 4246POPC   GL254674   0.296  22.183   6.164
 4246POPC   C1A54675   0.477  22.160   6.464
 4246POPC   D2A54676   0.443  22.138   6.764
 4246POPC   C3A54677   0.480  22.169   7.064
 4246POPC   C4A54678   0.425  22.124   7.364
 4246POPC   C1B54679   0.182  22.241   6.464
 4246POPC   C2B54680   0.200  22.225   6.764
 4246POPC   C3B54681   0.221  22.211   7.064
 4246POPC   C4B54682   0.227  22.280   7.364
 4247POPC   NC354683  25.257  13.595   5.564
 4247POPC   PO454684  25.277  13.578   5.864
 4247POPC   GL154685  25.291  13.658   6.164
 4247POPC   GL254686  25.367  13.554   6.164
 4247POPC   C1A54687  25.268  13.624   6.464
 4247POPC   D2A54688  25.270  13.642   6.764
 4247POPC   C3A54689  25.261  13.628   7.064
 4247POPC   C4A54690  25.226  13.599   7.364
 4247POPC   C1B54691  25.499  13.466   6.464
 4247POPC   C2B54692  25.502  13.482   6.764
 4247POPC   C3B54693  25.496  13.440   7.064
 4247POPC   C4B54694  25.463  13.482   7.364
 4248POPC   NC354695   5.870  26.849   5.564
 4248POPC   PO454696   5.831  26.788   5.864
 4248POPC   GL154697   5.821  26.861   6.164
 4248POPC   GL254698   6.006  26.888   6.164
 4248POPC   C1A54699   5.885  26.816   6.464
 4248POPC   D2A54700   5.825  26.840   6.764
 4248POPC   C3A54701   5.904  26.819   7.064
 4248POPC   C4A54702   5.857  26.847   7.364
 4248POPC   C1B54703   6.100  26.850   6.464
 4248POPC   C2B54704   6.095  26.885   6.764
 4248POPC   C3B54705   6.141  26.877   7.064
 4248POPC   C4B54706   6.160  26.919   7.364
 4249POPC   NC354707  21.371  14.374   5.564
 4249POPC   PO454708  21.380  14.382   5.864
 4249POPC   GL154709  21.348  14.384   6.164
 4249POPC   GL254710  21.536  14.332   6.164
 4249POPC   C1A54711  21.404  14.443   6.464
 4249POPC   D2A54712  21.408  14.404   6.764
 4249POPC   C3A54713  21.367  14.411   7.064
 4249POPC   C4A54714  21.349  14.391   7.364
 4249POPC   C1B54715  21.648  14.307   6.464
 4249POPC   C2B54716  21.634  14.363   6.764
 4249POPC   C3B54717  21.661  14.337   7.064
 4249POPC   C4B54718  21.651  14.295   7.364
 4250POPC   NC354719  30.718  10.548   5.564
 4250POPC   PO454720  30.696  10.568   5.864
 4250POPC   GL154721  30.717  10.518   6.164
 4250POPC   GL254722  30.675  10.389   6.164
 4250POPC   C1A54723  30.701  10.562   6.464
 4250POPC   D2A54724  30.685  10.551   6.764
 4250POPC   C3A54725  30.689  10.561   7.064
 4250POPC   C4A54726  30.732  10.501   7.364
 4250POPC   C1B54727  30.675  10.241   6.464
 4250POPC   C2B54728  30.672  10.314   6.764
 4250POPC   C3B54729  30.663  10.245   7.064
 4250POPC   C4B54730  30.679  10.302   7.364
 4251POPC   NC354731  42.323  19.877   5.564
 4251POPC   PO454732  42.344  19.806   5.864
 4251POPC   GL154733  42.370  19.819   6.164
 4251POPC   GL254734  42.225  19.705   6.164
 4251POPC   C1A54735  42.318  19.801   6.464
 4251POPC   D2A54736  42.384  19.856   6.764
 4251POPC   C3A54737  42.292  19.866   7.064
 4251POPC   C4A54738  42.299  19.874   7.364
 4251POPC   C1B54739  42.218  19.640   6.464
 4251POPC   C2B54740  42.218  19.609   6.764
 4251POPC   C3B54741  42.155  19.594   7.064
 4251POPC   C4B54742  42.232  19.626   7.364
 4252POPC   NC354743  24.516  33.035   5.564
 4252POPC   PO454744  24.531  33.045   5.864
 4252POPC   GL154745  24.530  32.991   6.164
 4252POPC   GL254746  24.638  32.910   6.164
 4252POPC   C1A54747  24.440  33.009   6.464
 4252POPC   D2A54748  24.484  33.058   6.764
 4252POPC   C3A54749  24.453  33.010   7.064
 4252POPC   C4A54750  24.475  33.048   7.364
 4252POPC   C1B54751  24.677  32.936   6.464
 4252POPC   C2B54752  24.683  32.880   6.764
 4252POPC   C3B54753  24.654  32.880   7.064
 4252POPC   C4B54754  24.678  32.909   7.364
 4253POPC   NC354755  16.001  44.634   5.564
 4253POPC   PO454756  15.957  44.674   5.864
 4253POPC   GL154757  15.910  44.664   6.164
 4253POPC   GL254758  15.850  44.534   6.164
 4253POPC   C1A54759  15.911  44.691   6.464
 4253POPC   D2A54760  15.992  44.701   6.764
 4253POPC   C3A54761  16.005  44.649   7.064
 4253POPC   C4A54762  15.945  44.632   7.364
 4253POPC   C1B54763  15.867  44.459   6.464
 4253POPC   C2B54764  15.833  44.477   6.764
 4253POPC   C3B54765  15.852  44.417   7.064
 4253POPC   C4B54766  15.829  44.426   7.364
 4254POPC   NC354767  27.550  39.207   5.564
 4254POPC   PO454768  27.608  39.204   5.864
 4254POPC   GL154769  27.557  39.255   6.164
 4254POPC   GL254770  27.535  39.306   6.164
 4254POPC   C1A54771  27.581  39.273   6.464
 4254POPC   D2A54772  27.608  39.257   6.764
 4254POPC   C3A54773  27.547  39.191   7.064
 4254POPC   C4A54774  27.565  39.226   7.364
 4254POPC   C1B54775  27.378  39.450   6.464
 4254POPC   C2B54776  27.469  39.398   6.764
 4254POPC   C3B54777  27.387  39.399   7.064
 4254POPC   C4B54778  27.403  39.368   7.364
 4255POPC   NC354779  28.340  23.666   5.564
 4255POPC   PO454780  28.365  23.680   5.864
 4255POPC   GL154781  28.341  23.728   6.164
 4255POPC   GL254782  28.246  23.746   6.164
 4255POPC   C1A54783  28.361  23.751   6.464
 4255POPC   D2A54784  28.361  23.664   6.764
 4255POPC   C3A54785  28.375  23.671   7.064
 4255POPC   C4A54786  28.348  23.742   7.364
 4255POPC   C1B54787  28.107  23.748   6.464
 4255POPC   C2B54788  28.161  23.783   6.764
 4255POPC   C3B54789  28.129  23.814   7.064
 4255POPC   C4B54790  28.136  23.729   7.364
 4256POPC   NC354791  36.144  20.634   5.564
 4256POPC   PO454792  36.101  20.626   5.864
 4256POPC   GL154793  36.150  20.594   6.164
 4256POPC   GL254794  36.054  20.516   6.164
 4256POPC   C1A54795  36.078  20.564   6.464
 4256POPC   D2A54796  36.156  20.641   6.764
 4256POPC   C3A54797  36.172  20.654   7.064
 4256POPC   C4A54798  36.118  20.571   7.364
 4256POPC   C1B54799  35.961  20.379   6.464
 4256POPC   C2B54800  35.987  20.366   6.764
 4256POPC   C3B54801  36.007  20.424   7.064
 4256POPC   C4B54802  36.018  20.370   7.364
 4257POPC   NC354803   1.197  40.739   5.564
 4257POPC   PO454804   1.194  40.771   5.864
 4257POPC   GL154805   1.170  40.832   6.164
 4257POPC   GL254806   1.134  40.901   6.164
 4257POPC   C1A54807   1.220  40.819   6.464
 4257POPC   D2A54808   1.165  40.790   6.764
 4257POPC   C3A54809   1.175  40.745   7.064
 4257POPC   C4A54810   1.248  40.760   7.364
 4257POPC   C1B54811   1.060  41.051   6.464
 4257POPC   C2B54812   1.065  41.007   6.764
 4257POPC   C3B54813   1.139  40.982   7.064
 4257POPC   C4B54814   1.128  41.051   7.364
 4258POPC   NC354815   4.291   2.764   5.564
 4258POPC   PO454816   4.331   2.758   5.864
 4258POPC   GL154817   4.316   2.786   6.164
 4258POPC   GL254818   4.343   2.649   6.164
 4258POPC   C1A54819   4.359   2.717   6.464
 4258POPC   D2A54820   4.277   2.750   6.764
 4258POPC   C3A54821   4.295   2.790   7.064
 4258POPC   C4A54822   4.338   2.813   7.364
 4258POPC   C1B54823   4.349   2.489   6.464
 4258POPC   C2B54824   4.394   2.556   6.764
 4258POPC   C3B54825   4.368   2.536   7.064
 4258POPC   C4B54826   4.338   2.505   7.364
 4259POPC   NC354827   0.417  37.632   5.564
 4259POPC   PO454828   0.416  37.674   5.864
 4259POPC   GL154829   0.460  37.692   6.164
 4259POPC   GL254830   0.463  37.806   6.164
 4259POPC   C1A54831   0.464  37.720   6.464
 4259POPC   D2A54832   0.416  37.640   6.764
 4259POPC   C3A54833   0.391  37.648   7.064
 4259POPC   C4A54834   0.452  37.687   7.364
 4259POPC   C1B54835   0.552  37.929   6.464
 4259POPC   C2B54836   0.593  37.862   6.764
 4259POPC   C3B54837   0.586  37.852   7.064
 4259POPC   C4B54838   0.527  37.934   7.364
 4260POPC   NC354839  36.906  19.030   5.564
 4260POPC   PO454840  36.929  19.028   5.864
 4260POPC   GL154841  36.946  19.085   6.164
 4260POPC   GL254842  36.798  19.127   6.164
 4260POPC   C1A54843  36.920  19.106   6.464
 4260POPC   D2A54844  36.892  19.072   6.764
 4260POPC   C3A54845  36.869  19.050   7.064
 4260POPC   C4A54846  36.892  19.044   7.364
 4260POPC   C1B54847  36.784  19.266   6.464
 4260POPC   C2B54848  36.791  19.318   6.764
 4260POPC   C3B54849  36.797  19.247   7.064
 4260POPC   C4B54850  36.800  19.319   7.364
 4261POPC   NC354851   9.710  37.716   5.564
 4261POPC   PO454852   9.722  37.717   5.864
 4261POPC   GL154853   9.734  37.671   6.164
 4261POPC   GL254854   9.831  37.680   6.164
 4261POPC   C1A54855   9.703  37.638   6.464
 4261POPC   D2A54856   9.767  37.682   6.764
 4261POPC   C3A54857   9.731  37.710   7.064
 4261POPC   C4A54858   9.726  37.706   7.364
 4261POPC   C1B54859  10.027  37.641   6.464
 4261POPC   C2B54860  10.015  37.594   6.764
 4261POPC   C3B54861   9.935  37.589   7.064
 4261POPC   C4B54862   9.980  37.560   7.364
 4262POPC   NC354863   4.361  33.815   5.564
 4262POPC   PO454864   4.364  33.832   5.864
 4262POPC   GL154865   4.315  33.849   6.164
 4262POPC   GL254866   4.353  33.884   6.164
 4262POPC   C1A54867   4.326  33.764   6.464
 4262POPC   D2A54868   4.353  33.790   6.764
 4262POPC   C3A54869   4.296  33.761   7.064
 4262POPC   C4A54870   4.330  33.824   7.364
 4262POPC   C1B54871   4.385  34.044   6.464
 4262POPC   C2B54872   4.336  34.038   6.764
 4262POPC   C3B54873   4.386  34.006   7.064
 4262POPC   C4B54874   4.359  34.094   7.364
 4263POPC   NC354875  23.672  20.633   5.564
 4263POPC   PO454876  23.681  20.605   5.864
 4263POPC   GL154877  23.745  20.581   6.164
 4263POPC   GL254878  23.824  20.651   6.164
 4263POPC   C1A54879  23.763  20.655   6.464
 4263POPC   D2A54880  23.747  20.625   6.764
 4263POPC   C3A54881  23.687  20.605   7.064
 4263POPC   C4A54882  23.759  20.655   7.364
 4263POPC   C1B54883  23.907  20.761   6.464
 4263POPC   C2B54884  23.939  20.701   6.764
 4263POPC   C3B54885  23.903  20.746   7.064
 4263POPC   C4B54886  23.910  20.765   7.364
 4264POPC   NC354887  17.496  37.670   5.564
 4264POPC   PO454888  17.516  37.723   5.864
 4264POPC   GL154889  17.531  37.679   6.164
 4264POPC   GL254890  17.565  37.746   6.164
 4264POPC   C1A54891  17.480  37.704   6.464
 4264POPC   D2A54892  17.527  37.687   6.764
 4264POPC   C3A54893  17.494  37.643   7.064
 4264POPC   C4A54894  17.468  37.680   7.364
 4264POPC   C1B54895  17.683  37.840   6.464
 4264POPC   C2B54896  17.683  37.866   6.764
 4264POPC   C3B54897  17.708  37.807   7.064
 4264POPC   C4B54898  17.675  37.809   7.364
 4265POPC   NC354899  40.779  38.498   5.564
 4265POPC   PO454900  40.777  38.412   5.864
 4265POPC   GL154901  40.831  38.496   6.164
 4265POPC   GL254902  40.892  38.471   6.164
 4265POPC   C1A54903  40.809  38.490   6.464
 4265POPC   D2A54904  40.759  38.433   6.764
 4265POPC   C3A54905  40.741  38.416   7.064
 4265POPC   C4A54906  40.753  38.473   7.364
 4265POPC   C1B54907  40.988  38.436   6.464
 4265POPC   C2B54908  40.995  38.446   6.764
 4265POPC   C3B54909  40.999  38.455   7.064
 4265POPC   C4B54910  41.035  38.469   7.364
 4266POPC   NC354911  12.841  12.860   5.564
 4266POPC   PO454912  12.840  12.802   5.864
 4266POPC   GL154913  12.824  12.877   6.164
 4266POPC   GL254914  12.891  12.934   6.164
 4266POPC   C1A54915  12.849  12.854   6.464
 4266POPC   D2A54916  12.870  12.811   6.764
 4266POPC   C3A54917  12.827  12.900   7.064
 4266POPC   C4A54918  12.854  12.875   7.364
 4266POPC   C1B54919  12.894  13.120   6.464
 4266POPC   C2B54920  12.833  13.098   6.764
 4266POPC   C3B54921  12.814  13.091   7.064
 4266POPC   C4B54922  12.904  13.136   7.364
 4267POPC   NC354923  15.196  10.553   5.564
 4267POPC   PO454924  15.192  10.480   5.864
 4267POPC   GL154925  15.167  10.520   6.164
 4267POPC   GL254926  15.070  10.467   6.164
 4267POPC   C1A54927  15.211  10.546   6.464
 4267POPC   D2A54928  15.211  10.562   6.764
 4267POPC   C3A54929  15.134  10.490   7.064
 4267POPC   C4A54930  15.227  10.502   7.364
 4267POPC   C1B54931  14.975  10.328   6.464
 4267POPC   C2B54932  14.994  10.291   6.764
 4267POPC   C3B54933  14.996  10.306   7.064
 4267POPC   C4B54934  15.006  10.374   7.364
 4268POPC   NC354935   4.341  24.491   5.564
 4268POPC   PO454936   4.343  24.486   5.864
 4268POPC   GL154937   4.306  24.442   6.164
 4268POPC   GL254938   4.334  24.571   6.164
 4268POPC   C1A54939   4.364  24.533   6.464
 4268POPC   D2A54940   4.299  24.452   6.764
 4268POPC   C3A54941   4.273  24.478   7.064
 4268POPC   C4A54942   4.353  24.465   7.364
 4268POPC   C1B54943   4.357  24.757   6.464
 4268POPC   C2B54944   4.389  24.693   6.764
 4268POPC   C3B54945   4.424  24.696   7.064
 4268POPC   C4B54946   4.372  24.770   7.364
 4269POPC   NC354947  41.580  11.272   5.564
 4269POPC   PO454948  41.553  11.256   5.864
 4269POPC   GL154949  41.577  11.286   6.164
 4269POPC   GL254950  41.639  11.401   6.164
 4269POPC   C1A54951  41.541  11.266   6.464
 4269POPC   D2A54952  41.528  11.280   6.764
 4269POPC   C3A54953  41.599  11.253   7.064
 4269POPC   C4A54954  41.521  11.347   7.364
 4269POPC   C1B54955  41.792  11.404   6.464
 4269POPC   C2B54956  41.794  11.381   6.764
 4269POPC   C3B54957  41.732  11.444   7.064
 4269POPC   C4B54958  41.789  11.405   7.364
 4270POPC   NC354959  12.861  27.637   5.564
 4270POPC   PO454960  12.805  27.629   5.864
 4270POPC   GL154961  12.857  27.627   6.164
 4270POPC   GL254962  13.012  27.634   6.164
 4270POPC   C1A54963  12.845  27.631   6.464
 4270POPC   D2A54964  12.837  27.554   6.764
 4270POPC   C3A54965  12.865  27.589   7.064
 4270POPC   C4A54966  12.878  27.612   7.364
 4270POPC   C1B54967  13.117  27.636   6.464
 4270POPC   C2B54968  13.081  27.651   6.764
 4270POPC   C3B54969  13.097  27.656   7.064
 4270POPC   C4B54970  13.103  27.633   7.364
 4271POPC   NC354971  30.719  33.775   5.564
 4271POPC   PO454972  30.711  33.781   5.864
 4271POPC   GL154973  30.682  33.768   6.164
 4271POPC   GL254974  30.630  33.732   6.164
 4271POPC   C1A54975  30.746  33.796   6.464
 4271POPC   D2A54976  30.711  33.809   6.764
 4271POPC   C3A54977  30.684  33.767   7.064
 4271POPC   C4A54978  30.682  33.773   7.364
 4271POPC   C1B54979  30.588  33.542   6.464
 4271POPC   C2B54980  30.582  33.603   6.764
 4271POPC   C3B54981  30.602  33.609   7.064
 4271POPC   C4B54982  30.595  33.540   7.364
 4272POPC   NC354983  31.433  27.609   5.564
 4272POPC   PO454984  31.467  27.556   5.864
 4272POPC   GL154985  31.479  27.564   6.164
 4272POPC   GL254986  31.498  27.724   6.164
 4272POPC   C1A54987  31.508  27.615   6.464
 4272POPC   D2A54988  31.455  27.555   6.764
 4272POPC   C3A54989  31.498  27.603   7.064
 4272POPC   C4A54990  31.474  27.615   7.364
 4272POPC   C1B54991  31.563  27.814   6.464
 4272POPC   C2B54992  31.512  27.882   6.764
 4272POPC   C3B54993  31.498  27.868   7.064
 4272POPC   C4B54994  31.527  27.837   7.364
 4273POPC   NC354995  34.609  40.750   5.564
 4273POPC   PO454996  34.581  40.802   5.864
 4273POPC   GL154997  34.595  40.781   6.164
 4273POPC   GL254998  34.571  40.935   6.164
 4273POPC   C1A54999  34.534  40.831   6.464
 4273POPC   D2A55000  34.623  40.765   6.764
 4273POPC   C3A55001  34.548  40.789   7.064
 4273POPC   C4A55002  34.621  40.754   7.364
 4273POPC   C1B55003  34.600  41.002   6.464
 4273POPC   C2B55004  34.643  41.059   6.764
 4273POPC   C3B55005  34.611  41.029   7.064
 4273POPC   C4B55006  34.610  41.054   7.364
 4274POPC   NC355007   8.150  19.830   5.564
 4274POPC   PO455008   8.228  19.819   5.864
 4274POPC   GL155009   8.169  19.884   6.164
 4274POPC   GL255010   8.129  19.898   6.164
 4274POPC   C1A55011   8.210  19.872   6.464
 4274POPC   D2A55012   8.156  19.844   6.764
 4274POPC   C3A55013   8.242  19.880   7.064
 4274POPC   C4A55014   8.185  19.787   7.364
 4274POPC   C1B55015   8.002  20.039   6.464
 4274POPC   C2B55016   8.021  20.077   6.764
 4274POPC   C3B55017   8.085  20.068   7.064
 4274POPC   C4B55018   8.014  20.030   7.364
 4275POPC   NC355019  39.243  30.696   5.564
 4275POPC   PO455020  39.241  30.694   5.864
 4275POPC   GL155021  39.212  30.718   6.164
 4275POPC   GL255022  39.138  30.810   6.164
 4275POPC   C1A55023  39.247  30.692   6.464
 4275POPC   D2A55024  39.235  30.653   6.764
 4275POPC   C3A55025  39.223  30.716   7.064
 4275POPC   C4A55026  39.244  30.721   7.364
 4275POPC   C1B55027  39.012  30.859   6.464
 4275POPC   C2B55028  39.046  30.844   6.764
 4275POPC   C3B55029  39.076  30.850   7.064
 4275POPC   C4B55030  39.002  30.852   7.364
 4276POPC   NC355031   8.981  15.191   5.564
 4276POPC   PO455032   9.017  15.170   5.864
 4276POPC   GL155033   8.928  15.135   6.164
 4276POPC   GL255034   9.038  15.023   6.164
 4276POPC   C1A55035   8.962  15.194   6.464
 4276POPC   D2A55036   9.015  15.165   6.764
 4276POPC   C3A55037   8.979  15.155   7.064
 4276POPC   C4A55038   8.990  15.202   7.364
 4276POPC   C1B55039   9.081  14.902   6.464
 4276POPC   C2B55040   9.070  14.911   6.764
 4276POPC   C3B55041   9.062  14.987   7.064
 4276POPC   C4B55042   9.044  14.925   7.364
 4277POPC   NC355043  14.402  41.605   5.564
 4277POPC   PO455044  14.369  41.543   5.864
 4277POPC   GL155045  14.422  41.605   6.164
 4277POPC   GL255046  14.515  41.410   6.164
 4277POPC   C1A55047  14.359  41.589   6.464
 4277POPC   D2A55048  14.380  41.553   6.764
 4277POPC   C3A55049  14.393  41.590   7.064
 4277POPC   C4A55050  14.432  41.530   7.364
 4277POPC   C1B55051  14.511  41.386   6.464
 4277POPC   C2B55052  14.518  41.314   6.764
 4277POPC   C3B55053  14.540  41.344   7.064
 4277POPC   C4B55054  14.536  41.384   7.364
 4278POPC   NC355055  43.113   8.185   5.564
 4278POPC   PO455056  43.085   8.187   5.864
 4278POPC   GL155057  43.074   8.198   6.164
 4278POPC   GL255058  43.102   8.095   6.164
 4278POPC   C1A55059  43.152   8.229   6.464
 4278POPC   D2A55060  43.092   8.223   6.764
 4278POPC   C3A55061  43.152   8.203   7.064
 4278POPC   C4A55062  43.077   8.149   7.364
 4278POPC   C1B55063  43.098   7.949   6.464
 4278POPC   C2B55064  43.068   7.998   6.764
 4278POPC   C3B55065  43.064   7.987   7.064
 4278POPC   C4B55066  43.036   7.985   7.364
 4279POPC   NC355067  34.615  37.711   5.564
 4279POPC   PO455068  34.573  37.667   5.864
 4279POPC   GL155069  34.570  37.687   6.164
 4279POPC   GL255070  34.642  37.709   6.164
 4279POPC   C1A55071  34.572  37.651   6.464
 4279POPC   D2A55072  34.582  37.693   6.764
 4279POPC   C3A55073  34.541  37.688   7.064
 4279POPC   C4A55074  34.570  37.723   7.364
 4279POPC   C1B55075  34.752  37.836   6.464
 4279POPC   C2B55076  34.783  37.787   6.764
 4279POPC   C3B55077  34.775  37.802   7.064
 4279POPC   C4B55078  34.799  37.804   7.364
 4280POPC   NC355079   5.057  40.739   5.564
 4280POPC   PO455080   5.100  40.777   5.864
 4280POPC   GL155081   5.112  40.823   6.164
 4280POPC   GL255082   5.251  40.731   6.164
 4280POPC   C1A55083   5.061  40.752   6.464
 4280POPC   D2A55084   5.090  40.788   6.764
 4280POPC   C3A55085   5.119  40.762   7.064
 4280POPC   C4A55086   5.051  40.808   7.364
 4280POPC   C1B55087   5.282  40.694   6.464
 4280POPC   C2B55088   5.266  40.670   6.764
 4280POPC   C3B55089   5.272  40.625   7.064
 4280POPC   C4B55090   5.320  40.696   7.364
 4281POPC   NC355091  43.150  27.546   5.564
 4281POPC   PO455092  43.079  27.619   5.864
 4281POPC   GL155093  43.109  27.548   6.164
 4281POPC   GL255094  43.216  27.524   6.164
 4281POPC   C1A55095  43.064  27.547   6.464
 4281POPC   D2A55096  43.062  27.627   6.764
 4281POPC   C3A55097  43.083  27.632   7.064
 4281POPC   C4A55098  43.141  27.631   7.364
 4281POPC   C1B55099  43.338  27.569   6.464
 4281POPC   C2B55100  43.332  27.499   6.764
 4281POPC   C3B55101  43.361  27.492   7.064
 4281POPC   C4B55102  43.399  27.572   7.364
 4282POPC   NC355103  39.235  10.519   5.564
 4282POPC   PO455104  39.215  10.506   5.864
 4282POPC   GL155105  39.245  10.497   6.164
 4282POPC   GL255106  39.156  10.536   6.164
 4282POPC   C1A55107  39.281  10.534   6.464
 4282POPC   D2A55108  39.202  10.541   6.764
 4282POPC   C3A55109  39.247  10.572   7.064
 4282POPC   C4A55110  39.278  10.476   7.364
 4282POPC   C1B55111  39.028  10.641   6.464
 4282POPC   C2B55112  39.012  10.613   6.764
 4282POPC   C3B55113  39.012  10.634   7.064
 4282POPC   C4B55114  38.969  10.614   7.364
 4283POPC   NC355115   4.285  40.012   5.564
 4283POPC   PO455116   4.341  39.966   5.864
 4283POPC   GL155117   4.292  40.049   6.164
 4283POPC   GL255118   4.267  40.132   6.164
 4283POPC   C1A55119   4.363  40.001   6.464
 4283POPC   D2A55120   4.356  40.042   6.764
 4283POPC   C3A55121   4.353  40.045   7.064
 4283POPC   C4A55122   4.274  40.023   7.364
 4283POPC   C1B55123   4.159  40.225   6.464
 4283POPC   C2B55124   4.145  40.190   6.764
 4283POPC   C3B55125   4.156  40.202   7.064
 4283POPC   C4B55126   4.207  40.169   7.364
 4284POPC   NC355127  11.326  43.133   5.564
 4284POPC   PO455128  11.334  43.159   5.864
 4284POPC   GL155129  11.255  43.098   6.164
 4284POPC   GL255130  11.391  43.064   6.164
 4284POPC   C1A55131  11.323  43.139   6.464
 4284POPC   D2A55132  11.350  43.072   6.764
 4284POPC   C3A55133  11.278  43.148   7.064
 4284POPC   C4A55134  11.322  43.068   7.364
 4284POPC   C1B55135  11.487  42.916   6.464
 4284POPC   C2B55136  11.434  42.963   6.764
 4284POPC   C3B55137  11.487  42.972   7.064
 4284POPC   C4B55138  11.516  42.910   7.364
 4285POPC   NC355139   1.968  19.873   5.564
 4285POPC   PO455140   1.966  19.832   5.864
 4285POPC   GL155141   1.959  19.810   6.164
 4285POPC   GL255142   1.959  19.928   6.164
 4285POPC   C1A55143   2.037  19.882   6.464
 4285POPC   D2A55144   2.001  19.818   6.764
 4285POPC   C3A55145   1.974  19.787   7.064
 4285POPC   C4A55146   1.940  19.850   7.364
 4285POPC   C1B55147   1.953  20.035   6.464
 4285POPC   C2B55148   1.894  20.041   6.764
 4285POPC   C3B55149   1.947  20.078   7.064
 4285POPC   C4B55150   1.883  20.063   7.364
 4286POPC   NC355151  27.561   9.776   5.564
 4286POPC   PO455152  27.580   9.774   5.864
 4286POPC   GL155153  27.600   9.734   6.164
 4286POPC   GL255154  27.560   9.902   6.164
 4286POPC   C1A55155  27.637   9.750   6.464
 4286POPC   D2A55156  27.618   9.708   6.764
 4286POPC   C3A55157  27.568   9.760   7.064
 4286POPC   C4A55158  27.632   9.789   7.364
 4286POPC   C1B55159  27.464   9.955   6.464
 4286POPC   C2B55160  27.481   9.915   6.764
 4286POPC   C3B55161  27.499   9.940   7.064
 4286POPC   C4B55162  27.484   9.971   7.364
 4287POPC   NC355163  12.051  36.872   5.564
 4287POPC   PO455164  12.035  36.868   5.864
 4287POPC   GL155165  12.048  36.863   6.164
 4287POPC   GL255166  11.977  36.974   6.164
 4287POPC   C1A55167  12.111  36.894   6.464
 4287POPC   D2A55168  12.054  36.918   6.764
 4287POPC   C3A55169  12.026  36.949   7.064
 4287POPC   C4A55170  12.125  36.909   7.364
 4287POPC   C1B55171  11.951  37.102   6.464
 4287POPC   C2B55172  11.956  37.116   6.764
 4287POPC   C3B55173  11.959  37.142   7.064
 4287POPC   C4B55174  11.958  37.172   7.364
 4288POPC   NC355175  18.286  13.604   5.564
 4288POPC   PO455176  18.292  13.647   5.864
 4288POPC   GL155177  18.332  13.611   6.164
 4288POPC   GL255178  18.186  13.733   6.164
 4288POPC   C1A55179  18.238  13.637   6.464
 4288POPC   D2A55180  18.236  13.652   6.764
 4288POPC   C3A55181  18.268  13.618   7.064
 4288POPC   C4A55182  18.304  13.604   7.364
 4288POPC   C1B55183  18.157  13.809   6.464
 4288POPC   C2B55184  18.093  13.780   6.764
 4288POPC   C3B55185  18.097  13.819   7.064
 4288POPC   C4B55186  18.101  13.860   7.364
 4289POPC   NC355187  25.253   8.996   5.564
 4289POPC   PO455188  25.304   9.005   5.864
 4289POPC   GL155189  25.220   9.018   6.164
 4289POPC   GL255190  25.122   9.071   6.164
 4289POPC   C1A55191  25.239   8.987   6.464
 4289POPC   D2A55192  25.268   8.973   6.764
 4289POPC   C3A55193  25.217   8.960   7.064
 4289POPC   C4A55194  25.229   8.988   7.364
 4289POPC   C1B55195  25.030   9.069   6.464
 4289POPC   C2B55196  25.059   9.085   6.764
 4289POPC   C3B55197  25.093   9.134   7.064
 4289POPC   C4B55198  25.076   9.147   7.364
 4290POPC   NC355199  36.928  35.357   5.564
 4290POPC   PO455200  36.897  35.339   5.864
 4290POPC   GL155201  36.868  35.333   6.164
 4290POPC   GL255202  36.871  35.460   6.164
 4290POPC   C1A55203  36.883  35.350   6.464
 4290POPC   D2A55204  36.921  35.356   6.764
 4290POPC   C3A55205  36.902  35.382   7.064
 4290POPC   C4A55206  36.919  35.360   7.364
 4290POPC   C1B55207  36.756  35.542   6.464
 4290POPC   C2B55208  36.718  35.528   6.764
 4290POPC   C3B55209  36.781  35.511   7.064
 4290POPC   C4B55210  36.713  35.508   7.364
 4291POPC   NC355211   5.906  16.718   5.564
 4291POPC   PO455212   5.875  16.718   5.864
 4291POPC   GL155213   5.854  16.686   6.164
 4291POPC   GL255214   5.800  16.650   6.164
 4291POPC   C1A55215   5.863  16.721   6.464
 4291POPC   D2A55216   5.881  16.714   6.764
 4291POPC   C3A55217   5.828  16.752   7.064
 4291POPC   C4A55218   5.914  16.736   7.364
 4291POPC   C1B55219   5.663  16.650   6.464
 4291POPC   C2B55220   5.663  16.581   6.764
 4291POPC   C3B55221   5.653  16.606   7.064
 4291POPC   C4B55222   5.660  16.652   7.364
 4292POPC   NC355223  33.795  39.188   5.564
 4292POPC   PO455224  33.773  39.277   5.864
 4292POPC   GL155225  33.767  39.263   6.164
 4292POPC   GL255226  33.669  39.204   6.164
 4292POPC   C1A55227  33.771  39.255   6.464
 4292POPC   D2A55228  33.849  39.251   6.764
 4292POPC   C3A55229  33.825  39.182   7.064
 4292POPC   C4A55230  33.803  39.233   7.364
 4292POPC   C1B55231  33.553  39.134   6.464
 4292POPC   C2B55232  33.595  39.128   6.764
 4292POPC   C3B55233  33.523  39.119   7.064
 4292POPC   C4B55234  33.550  39.158   7.364
 4293POPC   NC355235  27.555  43.083   5.564
 4293POPC   PO455236  27.639  43.107   5.864
 4293POPC   GL155237  27.578  43.149   6.164
 4293POPC   GL255238  27.509  43.038   6.164
 4293POPC   C1A55239  27.550  43.071   6.464
 4293POPC   D2A55240  27.627  43.107   6.764
 4293POPC   C3A55241  27.632  43.109   7.064
 4293POPC   C4A55242  27.570  43.128   7.364
 4293POPC   C1B55243  27.557  42.843   6.464
 4293POPC   C2B55244  27.537  42.865   6.764
 4293POPC   C3B55245  27.560  42.842   7.064
 4293POPC   C4B55246  27.527  42.876   7.364
 4294POPC   NC355247   2.030  17.458   5.564
 4294POPC   PO455248   1.991  17.470   5.864
 4294POPC   GL155249   1.984  17.556   6.164
 4294POPC   GL255250   2.045  17.357   6.164
 4294POPC   C1A55251   1.972  17.474   6.464
 4294POPC   D2A55252   2.012  17.554   6.764
 4294POPC   C3A55253   2.034  17.532   7.064
 4294POPC   C4A55254   2.024  17.530   7.364
 4294POPC   C1B55255   2.053  17.299   6.464
 4294POPC   C2B55256   2.053  17.212   6.764
 4294POPC   C3B55257   2.039  17.219   7.064
 4294POPC   C4B55258   2.049  17.271   7.364
 4295POPC   NC355259   1.254  27.563   5.564
 4295POPC   PO455260   1.181  27.616   5.864
 4295POPC   GL155261   1.210  27.545   6.164
 4295POPC   GL255262   1.110  27.514   6.164
 4295POPC   C1A55263   1.185  27.613   6.464
 4295POPC   D2A55264   1.230  27.576   6.764
 4295POPC   C3A55265   1.212  27.608   7.064
 4295POPC   C4A55266   1.188  27.616   7.364
 4295POPC   C1B55267   1.065  27.429   6.464
 4295POPC   C2B55268   1.059  27.363   6.764
 4295POPC   C3B55269   1.054  27.422   7.064
 4295POPC   C4B55270   1.081  27.406   7.364
 4296POPC   NC355271  32.259  40.750   5.564
 4296POPC   PO455272  32.265  40.817   5.864
 4296POPC   GL155273  32.232  40.787   6.164
 4296POPC   GL255274  32.123  40.875   6.164
 4296POPC   C1A55275  32.257  40.827   6.464
 4296POPC   D2A55276  32.207  40.746   6.764
 4296POPC   C3A55277  32.253  40.807   7.064
 4296POPC   C4A55278  32.253  40.739   7.364
 4296POPC   C1B55279  32.026  40.876   6.464
 4296POPC   C2B55280  32.070  40.908   6.764
 4296POPC   C3B55281  31.991  40.900   7.064
 4296POPC   C4B55282  32.066  40.879   7.364
 4297POPC   NC355283  10.550  10.553   5.564
 4297POPC   PO455284  10.541  10.495   5.864
 4297POPC   GL155285  10.504  10.528   6.164
 4297POPC   GL255286  10.679  10.611   6.164
 4297POPC   C1A55287  10.477  10.495   6.464
 4297POPC   D2A55288  10.562  10.569   6.764
 4297POPC   C3A55289  10.514  10.537   7.064
 4297POPC   C4A55290  10.498  10.506   7.364
 4297POPC   C1B55291  10.729  10.557   6.464
 4297POPC   C2B55292  10.774  10.615   6.764
 4297POPC   C3B55293  10.785  10.590   7.064
 4297POPC   C4B55294  10.760  10.576   7.364
 4298POPC   NC355295  41.534  13.623   5.564
 4298POPC   PO455296  41.546  13.606   5.864
 4298POPC   GL155297  41.533  13.606   6.164
 4298POPC   GL255298  41.636  13.621   6.164
 4298POPC   C1A55299  41.589  13.600   6.464
 4298POPC   D2A55300  41.562  13.677   6.764
 4298POPC   C3A55301  41.571  13.586   7.064
 4298POPC   C4A55302  41.549  13.612   7.364
 4298POPC   C1B55303  41.750  13.516   6.464
 4298POPC   C2B55304  41.745  13.513   6.764
 4298POPC   C3B55305  41.775  13.537   7.064
 4298POPC   C4B55306  41.778  13.494   7.364
 4299POPC   NC355307   1.963  32.260   5.564
 4299POPC   PO455308   1.984  32.294   5.864
 4299POPC   GL155309   1.951  32.290   6.164
 4299POPC   GL255310   2.155  32.282   6.164
 4299POPC   C1A55311   1.971  32.200   6.464
 4299POPC   D2A55312   1.971  32.276   6.764
 4299POPC   C3A55313   1.988  32.255   7.064
 4299POPC   C4A55314   2.030  32.223   7.364
 4299POPC   C1B55315   2.229  32.281   6.464
 4299POPC   C2B55316   2.191  32.277   6.764
 4299POPC   C3B55317   2.212  32.267   7.064
 4299POPC   C4B55318   2.257  32.243   7.364
 4300POPC   NC355319  33.809   8.222   5.564
 4300POPC   PO455320  33.753   8.148   5.864
 4300POPC   GL155321  33.805   8.189   6.164
 4300POPC   GL255322  33.782   8.048   6.164
 4300POPC   C1A55323  33.826   8.246   6.464
 4300POPC   D2A55324  33.799   8.165   6.764
 4300POPC   C3A55325  33.761   8.196   7.064
 4300POPC   C4A55326  33.830   8.200   7.364
 4300POPC   C1B55327  33.720   7.985   6.464
 4300POPC   C2B55328  33.691   8.010   6.764
 4300POPC   C3B55329  33.651   7.925   7.064
 4300POPC   C4B55330  33.662   7.994   7.364
 4301POPC   NC355331  14.411  20.562   5.564
 4301POPC   PO455332  14.361  20.592   5.864
 4301POPC   GL155333  14.394  20.595   6.164
 4301POPC   GL255334  14.392  20.462   6.164
 4301POPC   C1A55335  14.430  20.652   6.464
 4301POPC   D2A55336  14.376  20.652   6.764
 4301POPC   C3A55337  14.369  20.595   7.064
 4301POPC   C4A55338  14.415  20.603   7.364
 4301POPC   C1B55339  14.377  20.405   6.464
 4301POPC   C2B55340  14.377  20.359   6.764
 4301POPC   C3B55341  14.423  20.364   7.064
 4301POPC   C4B55342  14.442  20.365   7.364
 4302POPC   NC355343  33.832   8.932   5.564
 4302POPC   PO455344  33.779   8.963   5.864
 4302POPC   GL155345  33.762   9.006   6.164
 4302POPC   GL255346  33.666   8.950   6.164
 4302POPC   C1A55347  33.793   8.946   6.464
 4302POPC   D2A55348  33.781   8.974   6.764
 4302POPC   C3A55349  33.808   8.931   7.064
 4302POPC   C4A55350  33.833   8.939   7.364
 4302POPC   C1B55351  33.537   8.887   6.464
 4302POPC   C2B55352  33.585   8.943   6.764
 4302POPC   C3B55353  33.569   8.916   7.064
 4302POPC   C4B55354  33.575   8.936   7.364
 4303POPC   NC355355  22.157   2.760   5.564
 4303POPC   PO455356  22.128   2.729   5.864
 4303POPC   GL155357  22.140   2.722   6.164
 4303POPC   GL255358  22.016   2.699   6.164
 4303POPC   C1A55359  22.119   2.754   6.464
 4303POPC   D2A55360  22.182   2.719   6.764
 4303POPC   C3A55361  22.155   2.767   7.064
 4303POPC   C4A55362  22.128   2.720   7.364
 4303POPC   C1B55363  21.932   2.775   6.464
 4303POPC   C2B55364  21.868   2.702   6.764
 4303POPC   C3B55365  21.929   2.727   7.064
 4303POPC   C4B55366  21.945   2.755   7.364
 4304POPC   NC355367  43.090  34.624   5.564
 4304POPC   PO455368  43.079  34.597   5.864
 4304POPC   GL155369  43.128  34.565   6.164
 4304POPC   GL255370  43.035  34.600   6.164
 4304POPC   C1A55371  43.129  34.590   6.464
 4304POPC   D2A55372  43.081  34.617   6.764
 4304POPC   C3A55373  43.143  34.555   7.064
 4304POPC   C4A55374  43.156  34.549   7.364
 4304POPC   C1B55375  42.956  34.762   6.464
 4304POPC   C2B55376  42.864  34.676   6.764
 4304POPC   C3B55377  42.926  34.678   7.064
 4304POPC   C4B55378  42.952  34.755   7.364
 4305POPC   NC355379  40.779  12.811   5.564
 4305POPC   PO455380  40.818  12.887   5.864
 4305POPC   GL155381  40.806  12.823   6.164
 4305POPC   GL255382  40.653  12.822   6.164
 4305POPC   C1A55383  40.820  12.845   6.464
 4305POPC   D2A55384  40.782  12.893   6.764
 4305POPC   C3A55385  40.820  12.854   7.064
 4305POPC   C4A55386  40.787  12.809   7.364
 4305POPC   C1B55387  40.529  12.868   6.464
 4305POPC   C2B55388  40.531  12.823   6.764
 4305POPC   C3B55389  40.536  12.814   7.064
 4305POPC   C4B55390  40.521  12.822   7.364
 4306POPC   NC355391   6.692  29.107   5.564
 4306POPC   PO455392   6.677  29.187   5.864
 4306POPC   GL155393   6.661  29.164   6.164
 4306POPC   GL255394   6.698  29.030   6.164
 4306POPC   C1A55395   6.628  29.145   6.464
 4306POPC   D2A55396   6.684  29.097   6.764
 4306POPC   C3A55397   6.678  29.126   7.064
 4306POPC   C4A55398   6.656  29.167   7.364
 4306POPC   C1B55399   6.798  28.897   6.464
 4306POPC   C2B55400   6.770  28.949   6.764
 4306POPC   C3B55401   6.742  28.942   7.064
 4306POPC   C4B55402   6.798  28.917   7.364
 4307POPC   NC355403  10.539  24.448   5.564
 4307POPC   PO455404  10.513  24.447   5.864
 4307POPC   GL155405  10.518  24.463   6.164
 4307POPC   GL255406  10.590  24.369   6.164
 4307POPC   C1A55407  10.568  24.484   6.464
 4307POPC   D2A55408  10.545  24.503   6.764
 4307POPC   C3A55409  10.475  24.467   7.064
 4307POPC   C4A55410  10.550  24.441   7.364
 4307POPC   C1B55411  10.638  24.227   6.464
 4307POPC   C2B55412  10.659  24.301   6.764
 4307POPC   C3B55413  10.605  24.280   7.064
 4307POPC   C4B55414  10.628  24.300   7.364
 4308POPC   NC355415  26.818   2.748   5.564
 4308POPC   PO455416  26.803   2.723   5.864
 4308POPC   GL155417  26.867   2.774   6.164
 4308POPC   GL255418  26.843   2.597   6.164
 4308POPC   C1A55419  26.816   2.764   6.464
 4308POPC   D2A55420  26.796   2.765   6.764
 4308POPC   C3A55421  26.844   2.750   7.064
 4308POPC   C4A55422  26.801   2.799   7.364
 4308POPC   C1B55423  26.787   2.530   6.464
 4308POPC   C2B55424  26.853   2.539   6.764
 4308POPC   C3B55425  26.846   2.482   7.064
 4308POPC   C4B55426  26.777   2.493   7.364
 4309POPC   NC355427   6.646  44.635   5.564
 4309POPC   PO455428   6.636  44.691   5.864
 4309POPC   GL155429   6.657  44.673   6.164
 4309POPC   GL255430   6.487  44.604   6.164
 4309POPC   C1A55431   6.663  44.615   6.464
 4309POPC   D2A55432   6.678  44.637   6.764
 4309POPC   C3A55433   6.603  44.632   7.064
 4309POPC   C4A55434   6.676  44.633   7.364
 4309POPC   C1B55435   6.367  44.628   6.464
 4309POPC   C2B55436   6.443  44.567   6.764
 4309POPC   C3B55437   6.425  44.636   7.064
 4309POPC   C4B55438   6.402  44.548   7.364
 4310POPC   NC355439  24.491  19.809   5.564
 4310POPC   PO455440  24.490  19.824   5.864
 4310POPC   GL155441  24.497  19.809   6.164
 4310POPC   GL255442  24.458  19.685   6.164
 4310POPC   C1A55443  24.502  19.845   6.464
 4310POPC   D2A55444  24.488  19.806   6.764
 4310POPC   C3A55445  24.468  19.848   7.064
 4310POPC   C4A55446  24.494  19.798   7.364
 4310POPC   C1B55447  24.406  19.585   6.464
 4310POPC   C2B55448  24.346  19.647   6.764
 4310POPC   C3B55449  24.327  19.647   7.064
 4310POPC   C4B55450  24.357  19.588   7.364
 4311POPC   NC355451  38.416   2.036   5.564
 4311POPC   PO455452  38.422   1.962   5.864
 4311POPC   GL155453  38.431   1.949   6.164
 4311POPC   GL255454  38.561   2.072   6.164
 4311POPC   C1A55455  38.492   2.005   6.464
 4311POPC   D2A55456  38.503   1.944   6.764
 4311POPC   C3A55457  38.491   1.964   7.064
 4311POPC   C4A55458  38.439   1.966   7.364
 4311POPC   C1B55459  38.648   2.124   6.464
 4311POPC   C2B55460  38.668   2.133   6.764
 4311POPC   C3B55461  38.672   2.185   7.064
 4311POPC   C4B55462  38.631   2.204   7.364
 4312POPC   NC355463  35.353  20.580   5.564
 4312POPC   PO455464  35.357  20.640   5.864
 4312POPC   GL155465  35.381  20.627   6.164
 4312POPC   GL255466  35.425  20.716   6.164
 4312POPC   C1A55467  35.326  20.614   6.464
 4312POPC   D2A55468  35.380  20.583   6.764
 4312POPC   C3A55469  35.310  20.564   7.064
 4312POPC   C4A55470  35.352  20.562   7.364
 4312POPC   C1B55471  35.492  20.777   6.464
 4312POPC   C2B55472  35.534  20.824   6.764
 4312POPC   C3B55473  35.536  20.782   7.064
 4312POPC   C4B55474  35.462  20.866   7.364
 4313POPC   NC355475   2.733  18.311   5.564
 4313POPC   PO455476   2.760  18.321   5.864
 4313POPC   GL155477   2.736  18.286   6.164
 4313POPC   GL255478   2.692  18.390   6.164
 4313POPC   C1A55479   2.801  18.274   6.464
 4313POPC   D2A55480   2.745  18.298   6.764
 4313POPC   C3A55481   2.798  18.235   7.064
 4313POPC   C4A55482   2.760  18.321   7.364
 4313POPC   C1B55483   2.660  18.529   6.464
 4313POPC   C2B55484   2.723  18.503   6.764
 4313POPC   C3B55485   2.744  18.514   7.064
 4313POPC   C4B55486   2.727  18.537   7.364
 4314POPC   NC355487  42.344  11.273   5.564
 4314POPC   PO455488  42.345  11.277   5.864
 4314POPC   GL155489  42.346  11.347   6.164
 4314POPC   GL255490  42.331  11.185   6.164
 4314POPC   C1A55491  42.318  11.311   6.464
 4314POPC   D2A55492  42.363  11.344   6.764
 4314POPC   C3A55493  42.364  11.276   7.064
 4314POPC   C4A55494  42.295  11.331   7.364
 4314POPC   C1B55495  42.344  11.093   6.464
 4314POPC   C2B55496  42.327  11.025   6.764
 4314POPC   C3B55497  42.290  11.051   7.064
 4314POPC   C4B55498  42.342  11.053   7.364
 4315POPC   NC355499  14.354  29.157   5.564
 4315POPC   PO455500  14.453  29.166   5.864
 4315POPC   GL155501  14.414  29.145   6.164
 4315POPC   GL255502  14.410  29.305   6.164
 4315POPC   C1A55503  14.358  29.193   6.464
 4315POPC   D2A55504  14.429  29.178   6.764
 4315POPC   C3A55505  14.356  29.182   7.064
 4315POPC   C4A55506  14.448  29.150   7.364
 4315POPC   C1B55507  14.385  29.351   6.464
 4315POPC   C2B55508  14.349  29.371   6.764
 4315POPC   C3B55509  14.406  29.425   7.064
 4315POPC   C4B55510  14.353  29.347   7.364
 4316POPC   NC355511   8.997  25.273   5.564
 4316POPC   PO455512   8.959  25.304   5.864
 4316POPC   GL155513   8.937  25.292   6.164
 4316POPC   GL255514   8.959  25.126   6.164
 4316POPC   C1A55515   8.980  25.299   6.464
 4316POPC   D2A55516   8.992  25.304   6.764
 4316POPC   C3A55517   8.944  25.221   7.064
 4316POPC   C4A55518   8.925  25.237   7.364
 4316POPC   C1B55519   8.913  25.002   6.464
 4316POPC   C2B55520   8.931  25.067   6.764
 4316POPC   C3B55521   8.926  25.058   7.064
 4316POPC   C4B55522   8.919  25.029   7.364
 4317POPC   NC355523   2.734  16.780   5.564
 4317POPC   PO455524   2.777  16.700   5.864
 4317POPC   GL155525   2.781  16.765   6.164
 4317POPC   GL255526   2.662  16.856   6.164
 4317POPC   C1A55527   2.784  16.710   6.464
 4317POPC   D2A55528   2.748  16.716   6.764
 4317POPC   C3A55529   2.751  16.738   7.064
 4317POPC   C4A55530   2.802  16.754   7.364
 4317POPC   C1B55531   2.555  16.954   6.464
 4317POPC   C2B55532   2.546  16.883   6.764
 4317POPC   C3B55533   2.561  16.910   7.064
 4317POPC   C4B55534   2.554  16.934   7.364
 4318POPC   NC355535   3.530  17.515   5.564
 4318POPC   PO455536   3.505  17.483   5.864
 4318POPC   GL155537   3.494  17.490   6.164
 4318POPC   GL255538   3.658  17.430   6.164
 4318POPC   C1A55539   3.522  17.524   6.464
 4318POPC   D2A55540   3.535  17.523   6.764
 4318POPC   C3A55541   3.513  17.469   7.064
 4318POPC   C4A55542   3.500  17.488   7.364
 4318POPC   C1B55543   3.666  17.281   6.464
 4318POPC   C2B55544   3.671  17.288   6.764
 4318POPC   C3B55545   3.658  17.325   7.064
 4318POPC   C4B55546   3.726  17.313   7.364
 4319POPC   NC355547  17.509  15.923   5.564
 4319POPC   PO455548  17.553  15.943   5.864
 4319POPC   GL155549  17.487  15.927   6.164
 4319POPC   GL255550  17.544  16.087   6.164
 4319POPC   C1A55551  17.463  15.955   6.464
 4319POPC   D2A55552  17.510  16.003   6.764
 4319POPC   C3A55553  17.526  15.966   7.064
 4319POPC   C4A55554  17.465  15.943   7.364
 4319POPC   C1B55555  17.674  16.165   6.464
 4319POPC   C2B55556  17.679  16.127   6.764
 4319POPC   C3B55557  17.613  16.174   7.064
 4319POPC   C4B55558  17.639  16.116   7.364
 4320POPC   NC355559  21.423   0.450   5.564
 4320POPC   PO455560  21.387   0.398   5.864
 4320POPC   GL155561  21.358   0.451   6.164
 4320POPC   GL255562  21.228   0.434   6.164
 4320POPC   C1A55563  21.413   0.397   6.464
 4320POPC   D2A55564  21.403   0.466   6.764
 4320POPC   C3A55565  21.400   0.445   7.064
 4320POPC   C4A55566  21.373   0.435   7.364
 4320POPC   C1B55567  21.189   0.426   6.464
 4320POPC   C2B55568  21.173   0.348   6.764
 4320POPC   C3B55569  21.119   0.410   7.064
 4320POPC   C4B55570  21.160   0.399   7.364
 4321POPC   NC355571  26.004  40.746   5.564
 4321POPC   PO455572  26.011  40.747   5.864
 4321POPC   GL155573  26.089  40.788   6.164
 4321POPC   GL255574  26.081  40.640   6.164
 4321POPC   C1A55575  26.090  40.756   6.464
 4321POPC   D2A55576  26.050  40.741   6.764
 4321POPC   C3A55577  26.017  40.745   7.064
 4321POPC   C4A55578  26.064  40.733   7.364
 4321POPC   C1B55579  26.144  40.550   6.464
 4321POPC   C2B55580  26.130  40.534   6.764
 4321POPC   C3B55581  26.112  40.545   7.064
 4321POPC   C4B55582  26.073  40.505   7.364
 4322POPC   NC355583   4.361  22.174   5.564
 4322POPC   PO455584   4.323  22.173   5.864
 4322POPC   GL155585   4.271  22.149   6.164
 4322POPC   GL255586   4.206  22.281   6.164
 4322POPC   C1A55587   4.320  22.154   6.464
 4322POPC   D2A55588   4.343  22.167   6.764
 4322POPC   C3A55589   4.318  22.155   7.064
 4322POPC   C4A55590   4.291  22.169   7.364
 4322POPC   C1B55591   4.163  22.369   6.464
 4322POPC   C2B55592   4.168  22.348   6.764
 4322POPC   C3B55593   4.168  22.322   7.064
 4322POPC   C4B55594   4.159  22.359   7.364
 4323POPC   NC355595  40.054  12.096   5.564
 4323POPC   PO455596  40.031  12.081   5.864
 4323POPC   GL155597  39.990  12.078   6.164
 4323POPC   GL255598  40.072  12.208   6.164
 4323POPC   C1A55599  40.047  12.041   6.464
 4323POPC   D2A55600  40.056  12.049   6.764
 4323POPC   C3A55601  40.000  12.087   7.064
 4323POPC   C4A55602  39.983  12.033   7.364
 4323POPC   C1B55603  40.025  12.311   6.464
 4323POPC   C2B55604  40.034  12.349   6.764
 4323POPC   C3B55605  40.110  12.316   7.064
 4323POPC   C4B55606  40.063  12.291   7.364
 4324POPC   NC355607   5.911  18.270   5.564
 4324POPC   PO455608   5.868  18.317   5.864
 4324POPC   GL155609   5.867  18.236   6.164
 4324POPC   GL255610   6.007  18.270   6.164
 4324POPC   C1A55611   5.913  18.298   6.464
 4324POPC   D2A55612   5.882  18.299   6.764
 4324POPC   C3A55613   5.845  18.280   7.064
 4324POPC   C4A55614   5.842  18.249   7.364
 4324POPC   C1B55615   6.159  18.291   6.464
 4324POPC   C2B55616   6.100  18.296   6.764
 4324POPC   C3B55617   6.086  18.240   7.064
 4324POPC   C4B55618   6.097  18.318   7.364
 4325POPC   NC355619  10.517  16.718   5.564
 4325POPC   PO455620  10.521  16.739   5.864
 4325POPC   GL155621  10.555  16.752   6.164
 4325POPC   GL255622  10.504  16.610   6.164
 4325POPC   C1A55623  10.557  16.699   6.464
 4325POPC   D2A55624  10.504  16.718   6.764
 4325POPC   C3A55625  10.517  16.773   7.064
 4325POPC   C4A55626  10.503  16.740   7.364
 4325POPC   C1B55627  10.568  16.460   6.464
 4325POPC   C2B55628  10.611  16.488   6.764
 4325POPC   C3B55629  10.591  16.530   7.064
 4325POPC   C4B55630  10.567  16.475   7.364
 4326POPC   NC355631  21.373   6.654   5.564
 4326POPC   PO455632  21.413   6.659   5.864
 4326POPC   GL155633  21.343   6.681   6.164
 4326POPC   GL255634  21.386   6.535   6.164
 4326POPC   C1A55635  21.408   6.679   6.464
 4326POPC   D2A55636  21.409   6.690   6.764
 4326POPC   C3A55637  21.343   6.645   7.064
 4326POPC   C4A55638  21.407   6.637   7.364
 4326POPC   C1B55639  21.336   6.375   6.464
 4326POPC   C2B55640  21.352   6.370   6.764
 4326POPC   C3B55641  21.301   6.393   7.064
 4326POPC   C4B55642  21.371   6.389   7.364
 4327POPC   NC355643  12.893  29.895   5.564
 4327POPC   PO455644  12.815  29.930   5.864
 4327POPC   GL155645  12.902  29.875   6.164
 4327POPC   GL255646  12.999  29.893   6.164
 4327POPC   C1A55647  12.856  29.889   6.464
 4327POPC   D2A55648  12.891  29.883   6.764
 4327POPC   C3A55649  12.822  29.876   7.064
 4327POPC   C4A55650  12.838  29.899   7.364
 4327POPC   C1B55651  13.091  29.867   6.464
 4327POPC   C2B55652  13.039  29.822   6.764
 4327POPC   C3B55653  13.113  29.843   7.064
 4327POPC   C4B55654  13.119  29.826   7.364
 4328POPC   NC355655  36.096  28.343   5.564
 4328POPC   PO455656  36.106  28.348   5.864
 4328POPC   GL155657  36.176  28.353   6.164
 4328POPC   GL255658  36.254  28.420   6.164
 4328POPC   C1A55659  36.104  28.330   6.464
 4328POPC   D2A55660  36.124  28.334   6.764
 4328POPC   C3A55661  36.120  28.355   7.064
 4328POPC   C4A55662  36.092  28.387   7.364
 4328POPC   C1B55663  36.329  28.344   6.464
 4328POPC   C2B55664  36.357  28.395   6.764
 4328POPC   C3B55665  36.385  28.364   7.064
 4328POPC   C4B55666  36.380  28.386   7.364
 4329POPC   NC355667  43.061  38.500   5.564
 4329POPC   PO455668  43.140  38.431   5.864
 4329POPC   GL155669  43.095  38.469   6.164
 4329POPC   GL255670  43.078  38.576   6.164
 4329POPC   C1A55671  43.064  38.445   6.464
 4329POPC   D2A55672  43.098  38.478   6.764
 4329POPC   C3A55673  43.159  38.486   7.064
 4329POPC   C4A55674  43.116  38.479   7.364
 4329POPC   C1B55675  43.087  38.687   6.464
 4329POPC   C2B55676  43.051  38.700   6.764
 4329POPC   C3B55677  43.128  38.654   7.064
 4329POPC   C4B55678  43.069  38.709   7.364
 4330POPC   NC355679  43.131  42.293   5.564
 4330POPC   PO455680  43.133  42.322   5.864
 4330POPC   GL155681  43.083  42.299   6.164
 4330POPC   GL255682  42.937  42.318   6.164
 4330POPC   C1A55683  43.086  42.305   6.464
 4330POPC   D2A55684  43.127  42.302   6.764
 4330POPC   C3A55685  43.094  42.348   7.064
 4330POPC   C4A55686  43.088  42.314   7.364
 4330POPC   C1B55687  42.865  42.378   6.464
 4330POPC   C2B55688  42.865  42.355   6.764
 4330POPC   C3B55689  42.816  42.332   7.064
 4330POPC   C4B55690  42.845  42.308   7.364
 4331POPC   NC355691  44.655  40.042   5.564
 4331POPC   PO455692  44.691  40.038   5.864
 4331POPC   GL155693  44.689  39.974   6.164
 4331POPC   GL255694  44.524  40.019   6.164
 4331POPC   C1A55695  44.698  40.052   6.464
 4331POPC   D2A55696  44.691  40.038   6.764
 4331POPC   C3A55697  44.707  40.034   7.064
 4331POPC   C4A55698  44.628  40.046   7.364
 4331POPC   C1B55699  44.447  39.932   6.464
 4331POPC   C2B55700  44.459  39.972   6.764
 4331POPC   C3B55701  44.407  40.003   7.064
 4331POPC   C4B55702  44.402  39.936   7.364
 4332POPC   NC355703  16.772  12.079   5.564
 4332POPC   PO455704  16.753  12.039   5.864
 4332POPC   GL155705  16.781  12.063   6.164
 4332POPC   GL255706  16.843  11.934   6.164
 4332POPC   C1A55707  16.779  12.096   6.464
 4332POPC   D2A55708  16.715  12.049   6.764
 4332POPC   C3A55709  16.715  12.031   7.064
 4332POPC   C4A55710  16.737  12.110   7.364
 4332POPC   C1B55711  16.823  11.879   6.464
 4332POPC   C2B55712  16.889  11.876   6.764
 4332POPC   C3B55713  16.903  11.854   7.064
 4332POPC   C4B55714  16.866  11.816   7.364
 4333POPC   NC355715  33.756   9.755   5.564
 4333POPC   PO455716  33.789   9.778   5.864
 4333POPC   GL155717  33.824   9.714   6.164
 4333POPC   GL255718  33.784   9.894   6.164
 4333POPC   C1A55719  33.776   9.782   6.464
 4333POPC   D2A55720  33.794   9.728   6.764
 4333POPC   C3A55721  33.813   9.708   7.064
 4333POPC   C4A55722  33.759   9.716   7.364
 4333POPC   C1B55723  33.723  10.029   6.464
 4333POPC   C2B55724  33.694   9.947   6.764
 4333POPC   C3B55725  33.760   9.981   7.064
 4333POPC   C4B55726  33.748  10.024   7.364
 4334POPC   NC355727  40.009  20.596   5.564
 4334POPC   PO455728  39.979  20.618   5.864
 4334POPC   GL155729  40.016  20.570   6.164
 4334POPC   GL255730  39.909  20.637   6.164
 4334POPC   C1A55731  39.957  20.643   6.464
 4334POPC   D2A55732  40.011  20.641   6.764
 4334POPC   C3A55733  39.997  20.572   7.064
 4334POPC   C4A55734  40.040  20.602   7.364
 4334POPC   C1B55735  39.812  20.790   6.464
 4334POPC   C2B55736  39.778  20.768   6.764
 4334POPC   C3B55737  39.837  20.769   7.064
 4334POPC   C4B55738  39.837  20.727   7.364
 4335POPC   NC355739  43.147  25.241   5.564
 4335POPC   PO455740  43.153  25.258   5.864
 4335POPC   GL155741  43.107  25.299   6.164
 4335POPC   GL255742  43.194  25.261   6.164
 4335POPC   C1A55743  43.076  25.224   6.464
 4335POPC   D2A55744  43.079  25.270   6.764
 4335POPC   C3A55745  43.072  25.270   7.064
 4335POPC   C4A55746  43.075  25.289   7.364
 4335POPC   C1B55747  43.385  25.154   6.464
 4335POPC   C2B55748  43.339  25.196   6.764
 4335POPC   C3B55749  43.330  25.225   7.064
 4335POPC   C4B55750  43.385  25.171   7.364
 4336POPC   NC355751  34.546  16.748   5.564
 4336POPC   PO455752  34.533  16.709   5.864
 4336POPC   GL155753  34.528  16.705   6.164
 4336POPC   GL255754  34.697  16.747   6.164
 4336POPC   C1A55755  34.527  16.750   6.464
 4336POPC   D2A55756  34.539  16.740   6.764
 4336POPC   C3A55757  34.563  16.699   7.064
 4336POPC   C4A55758  34.577  16.754   7.364
 4336POPC   C1B55759  34.799  16.763   6.464
 4336POPC   C2B55760  34.842  16.700   6.764
 4336POPC   C3B55761  34.846  16.727   7.064
 4336POPC   C4B55762  34.778  16.677   7.364
 4337POPC   NC355763  29.142  15.909   5.564
 4337POPC   PO455764  29.147  15.934   5.864
 4337POPC   GL155765  29.116  15.915   6.164
 4337POPC   GL255766  29.234  15.990   6.164
 4337POPC   C1A55767  29.151  15.909   6.464
 4337POPC   D2A55768  29.102  15.975   6.764
 4337POPC   C3A55769  29.163  15.983   7.064
 4337POPC   C4A55770  29.172  15.929   7.364
 4337POPC   C1B55771  29.303  16.103   6.464
 4337POPC   C2B55772  29.321  16.075   6.764
 4337POPC   C3B55773  29.297  16.148   7.064
 4337POPC   C4B55774  29.373  16.116   7.364
 4338POPC   NC355775  39.187   3.545   5.564
 4338POPC   PO455776  39.258   3.512   5.864
 4338POPC   GL155777  39.228   3.589   6.164
 4338POPC   GL255778  39.327   3.556   6.164
 4338POPC   C1A55779  39.210   3.519   6.464
 4338POPC   D2A55780  39.237   3.496   6.764
 4338POPC   C3A55781  39.264   3.540   7.064
 4338POPC   C4A55782  39.186   3.575   7.364
 4338POPC   C1B55783  39.460   3.503   6.464
 4338POPC   C2B55784  39.502   3.472   6.764
 4338POPC   C3B55785  39.506   3.494   7.064
 4338POPC   C4B55786  39.439   3.525   7.364
 4339POPC   NC355787  43.855   6.678   5.564
 4339POPC   PO455788  43.840   6.598   5.864
 4339POPC   GL155789  43.847   6.649   6.164
 4339POPC   GL255790  43.776   6.525   6.164
 4339POPC   C1A55791  43.929   6.648   6.464
 4339POPC   D2A55792  43.915   6.658   6.764
 4339POPC   C3A55793  43.906   6.638   7.064
 4339POPC   C4A55794  43.913   6.684   7.364
 4339POPC   C1B55795  43.723   6.462   6.464
 4339POPC   C2B55796  43.792   6.428   6.764
 4339POPC   C3B55797  43.717   6.476   7.064
 4339POPC   C4B55798  43.753   6.470   7.364
 4340POPC   NC355799  15.189  34.545   5.564
 4340POPC   PO455800  15.202  34.594   5.864
 4340POPC   GL155801  15.140  34.539   6.164
 4340POPC   GL255802  15.178  34.459   6.164
 4340POPC   C1A55803  15.228  34.581   6.464
 4340POPC   D2A55804  15.154  34.613   6.764
 4340POPC   C3A55805  15.172  34.584   7.064
 4340POPC   C4A55806  15.201  34.558   7.364
 4340POPC   C1B55807  15.118  34.311   6.464
 4340POPC   C2B55808  15.048  34.330   6.764
 4340POPC   C3B55809  15.105  34.298   7.064
 4340POPC   C4B55810  15.039  34.339   7.364
 4341POPC   NC355811  19.862  41.569   5.564
 4341POPC   PO455812  19.799  41.594   5.864
 4341POPC   GL155813  19.809  41.559   6.164
 4341POPC   GL255814  19.827  41.713   6.164
 4341POPC   C1A55815  19.824  41.595   6.464
 4341POPC   D2A55816  19.793  41.540   6.764
 4341POPC   C3A55817  19.822  41.536   7.064
 4341POPC   C4A55818  19.849  41.564   7.364
 4341POPC   C1B55819  19.918  41.845   6.464
 4341POPC   C2B55820  19.892  41.773   6.764
 4341POPC   C3B55821  19.874  41.819   7.064
 4341POPC   C4B55822  19.863  41.749   7.364
 4342POPC   NC355823  22.916  37.700   5.564
 4342POPC   PO455824  22.898  37.636   5.864
 4342POPC   GL155825  22.905  37.702   6.164
 4342POPC   GL255826  22.820  37.700   6.164
 4342POPC   C1A55827  22.931  37.690   6.464
 4342POPC   D2A55828  22.982  37.662   6.764
 4342POPC   C3A55829  22.908  37.667   7.064
 4342POPC   C4A55830  22.955  37.717   7.364
 4342POPC   C1B55831  22.722  37.751   6.464
 4342POPC   C2B55832  22.698  37.754   6.764
 4342POPC   C3B55833  22.663  37.741   7.064
 4342POPC   C4B55834  22.674  37.730   7.364
 4343POPC   NC355835  11.308   3.553   5.564
 4343POPC   PO455836  11.272   3.557   5.864
 4343POPC   GL155837  11.336   3.591   6.164
 4343POPC   GL255838  11.299   3.674   6.164
 4343POPC   C1A55839  11.332   3.500   6.464
 4343POPC   D2A55840  11.259   3.522   6.764
 4343POPC   C3A55841  11.324   3.511   7.064
 4343POPC   C4A55842  11.335   3.501   7.364
 4343POPC   C1B55843  11.355   3.773   6.464
 4343POPC   C2B55844  11.351   3.812   6.764
 4343POPC   C3B55845  11.333   3.794   7.064
 4343POPC   C4B55846  11.374   3.789   7.364
 4344POPC   NC355847   3.497  24.492   5.564
 4344POPC   PO455848   3.531  24.446   5.864
 4344POPC   GL155849   3.533  24.528   6.164
 4344POPC   GL255850   3.641  24.564   6.164
 4344POPC   C1A55851   3.588  24.525   6.464
 4344POPC   D2A55852   3.552  24.506   6.764
 4344POPC   C3A55853   3.590  24.491   7.064
 4344POPC   C4A55854   3.586  24.478   7.364
 4344POPC   C1B55855   3.746  24.571   6.464
 4344POPC   C2B55856   3.803  24.571   6.764
 4344POPC   C3B55857   3.752  24.569   7.064
 4344POPC   C4B55858   3.815  24.608   7.364
 4345POPC   NC355859  37.715   7.412   5.564
 4345POPC   PO455860  37.669   7.419   5.864
 4345POPC   GL155861  37.725   7.386   6.164
 4345POPC   GL255862  37.703   7.552   6.164
 4345POPC   C1A55863  37.723   7.419   6.464
 4345POPC   D2A55864  37.654   7.388   6.764
 4345POPC   C3A55865  37.670   7.412   7.064
 4345POPC   C4A55866  37.644   7.466   7.364
 4345POPC   C1B55867  37.767   7.685   6.464
 4345POPC   C2B55868  37.773   7.602   6.764
 4345POPC   C3B55869  37.779   7.649   7.064
 4345POPC   C4B55870  37.789   7.695   7.364
 4346POPC   NC355871   5.073  11.281   5.564
 4346POPC   PO455872   5.121  11.263   5.864
 4346POPC   GL155873   5.050  11.336   6.164
 4346POPC   GL255874   5.163  11.350   6.164
 4346POPC   C1A55875   5.117  11.261   6.464
 4346POPC   D2A55876   5.130  11.317   6.764
 4346POPC   C3A55877   5.047  11.279   7.064
 4346POPC   C4A55878   5.066  11.290   7.364
 4346POPC   C1B55879   5.305  11.439   6.464
 4346POPC   C2B55880   5.261  11.468   6.764
 4346POPC   C3B55881   5.279  11.483   7.064
 4346POPC   C4B55882   5.270  11.429   7.364
 4347POPC   NC355883  24.516   2.013   5.564
 4347POPC   PO455884  24.509   1.997   5.864
 4347POPC   GL155885  24.494   2.015   6.164
 4347POPC   GL255886  24.373   1.894   6.164
 4347POPC   C1A55887  24.472   1.961   6.464
 4347POPC   D2A55888  24.503   2.001   6.764
 4347POPC   C3A55889  24.529   1.946   7.064
 4347POPC   C4A55890  24.470   1.942   7.364
 4347POPC   C1B55891  24.237   1.832   6.464
 4347POPC   C2B55892  24.230   1.860   6.764
 4347POPC   C3B55893  24.270   1.857   7.064
 4347POPC   C4B55894  24.312   1.852   7.364
 4348POPC   NC355895  21.377   7.433   5.564
 4348POPC   PO455896  21.359   7.467   5.864
 4348POPC   GL155897  21.362   7.374   6.164
 4348POPC   GL255898  21.412   7.285   6.164
 4348POPC   C1A55899  21.342   7.465   6.464
 4348POPC   D2A55900  21.413   7.459   6.764
 4348POPC   C3A55901  21.361   7.379   7.064
 4348POPC   C4A55902  21.352   7.393   7.364
 4348POPC   C1B55903  21.342   7.153   6.464
 4348POPC   C2B55904  21.391   7.213   6.764
 4348POPC   C3B55905  21.401   7.212   7.064
 4348POPC   C4B55906  21.319   7.160   7.364
 4349POPC   NC355907  41.566  33.068   5.564
 4349POPC   PO455908  41.561  32.998   5.864
 4349POPC   GL155909  41.590  33.049   6.164
 4349POPC   GL255910  41.490  33.047   6.164
 4349POPC   C1A55911  41.534  33.046   6.464
 4349POPC   D2A55912  41.587  33.039   6.764
 4349POPC   C3A55913  41.566  33.049   7.064
 4349POPC   C4A55914  41.582  33.049   7.364
 4349POPC   C1B55915  41.392  33.136   6.464
 4349POPC   C2B55916  41.369  33.103   6.764
 4349POPC   C3B55917  41.386  33.143   7.064
 4349POPC   C4B55918  41.294  33.132   7.364
 4350POPC   NC355919  20.636  30.659   5.564
 4350POPC   PO455920  20.572  30.733   5.864
 4350POPC   GL155921  20.610  30.745   6.164
 4350POPC   GL255922  20.713  30.586   6.164
 4350POPC   C1A55923  20.629  30.711   6.464
 4350POPC   D2A55924  20.603  30.671   6.764
 4350POPC   C3A55925  20.564  30.716   7.064
 4350POPC   C4A55926  20.566  30.744   7.364
 4350POPC   C1B55927  20.836  30.578   6.464
 4350POPC   C2B55928  20.802  30.571   6.764
 4350POPC   C3B55929  20.786  30.586   7.064
 4350POPC   C4B55930  20.786  30.559   7.364
 4351POPC   NC355931  29.174  34.596   5.564
 4351POPC   PO455932  29.191  34.568   5.864
 4351POPC   GL155933  29.134  34.549   6.164
 4351POPC   GL255934  29.161  34.481   6.164
 4351POPC   C1A55935  29.192  34.620   6.464
 4351POPC   D2A55936  29.191  34.594   6.764
 4351POPC   C3A55937  29.156  34.541   7.064
 4351POPC   C4A55938  29.122  34.545   7.364
 4351POPC   C1B55939  29.045  34.331   6.464
 4351POPC   C2B55940  29.139  34.378   6.764
 4351POPC   C3B55941  29.074  34.356   7.064
 4351POPC   C4B55942  29.093  34.329   7.364
 4352POPC   NC355943  15.175  22.940   5.564
 4352POPC   PO455944  15.219  22.948   5.864
 4352POPC   GL155945  15.163  22.939   6.164
 4352POPC   GL255946  15.277  22.935   6.164
 4352POPC   C1A55947  15.148  22.985   6.464
 4352POPC   D2A55948  15.183  22.974   6.764
 4352POPC   C3A55949  15.173  22.941   7.064
 4352POPC   C4A55950  15.185  22.984   7.364
 4352POPC   C1B55951  15.415  23.015   6.464
 4352POPC   C2B55952  15.400  22.998   6.764
 4352POPC   C3B55953  15.411  22.998   7.064
 4352POPC   C4B55954  15.380  22.985   7.364
 4353POPC   NC355955   3.564  14.399   5.564
 4353POPC   PO455956   3.518  14.426   5.864
 4353POPC   GL155957   3.528  14.385   6.164
 4353POPC   GL255958   3.570  14.488   6.164
 4353POPC   C1A55959   3.542  14.407   6.464
 4353POPC   D2A55960   3.571  14.438   6.764
 4353POPC   C3A55961   3.570  14.406   7.064
 4353POPC   C4A55962   3.590  14.432   7.364
 4353POPC   C1B55963   3.722  14.598   6.464
 4353POPC   C2B55964   3.691  14.593   6.764
 4353POPC   C3B55965   3.640  14.567   7.064
 4353POPC   C4B55966   3.716  14.618   7.364
 4354POPC   NC355967  26.026   1.969   5.564
 4354POPC   PO455968  26.090   2.010   5.864
 4354POPC   GL155969  26.005   2.028   6.164
 4354POPC   GL255970  26.196   2.005   6.164
 4354POPC   C1A55971  25.994   1.996   6.464
 4354POPC   D2A55972  26.054   2.024   6.764
 4354POPC   C3A55973  26.056   1.942   7.064
 4354POPC   C4A55974  26.052   1.941   7.364
 4354POPC   C1B55975  26.308   1.992   6.464
 4354POPC   C2B55976  26.285   1.989   6.764
 4354POPC   C3B55977  26.300   2.015   7.064
 4354POPC   C4B55978  26.338   1.947   7.364
 4355POPC   NC355979  17.499  42.295   5.564
 4355POPC   PO455980  17.511  42.292   5.864
 4355POPC   GL155981  17.518  42.336   6.164
 4355POPC   GL255982  17.441  42.410   6.164
 4355POPC   C1A55983  17.514  42.357   6.464
 4355POPC   D2A55984  17.473  42.302   6.764
 4355POPC   C3A55985  17.461  42.288   7.064
 4355POPC   C4A55986  17.461  42.346   7.364
 4355POPC   C1B55987  17.344  42.521   6.464
 4355POPC   C2B55988  17.305  42.493   6.764
 4355POPC   C3B55989  17.338  42.462   7.064
 4355POPC   C4B55990  17.344  42.440   7.364
 4356POPC   NC355991   2.730  14.427   5.564
 4356POPC   PO455992   2.733  14.375   5.864
 4356POPC   GL155993   2.770  14.427   6.164
 4356POPC   GL255994   2.730  14.502   6.164
 4356POPC   C1A55995   2.753  14.429   6.464
 4356POPC   D2A55996   2.778  14.368   6.764
 4356POPC   C3A55997   2.782  14.383   7.064
 4356POPC   C4A55998   2.760  14.420   7.364
 4356POPC   C1B55999   2.828  14.603   6.464
 4356POPC   C2B56000   2.837  14.605   6.764
 4356POPC   C3B56001   2.782  14.619   7.064
 4356POPC   C4B56002   2.801  14.631   7.364
 4357POPC   NC356003  33.838   1.947   5.564
 4357POPC   PO456004  33.759   2.020   5.864
 4357POPC   GL156005  33.848   1.963   6.164
 4357POPC   GL256006  33.871   1.965   6.164
 4357POPC   C1A56007  33.847   1.986   6.464
 4357POPC   D2A56008  33.759   1.949   6.764
 4357POPC   C3A56009  33.818   1.949   7.064
 4357POPC   C4A56010  33.809   2.035   7.364
 4357POPC   C1B56011  34.006   1.949   6.464
 4357POPC   C2B56012  34.081   1.953   6.764
 4357POPC   C3B56013  34.016   1.946   7.064
 4357POPC   C4B56014  33.990   1.858   7.364
 4358POPC   NC356015  20.625  36.150   5.564
 4358POPC   PO456016  20.656  36.091   5.864
 4358POPC   GL156017  20.588  36.096   6.164
 4358POPC   GL256018  20.564  36.051   6.164
 4358POPC   C1A56019  20.598  36.158   6.464
 4358POPC   D2A56020  20.563  36.092   6.764
 4358POPC   C3A56021  20.571  36.078   7.064
 4358POPC   C4A56022  20.601  36.137   7.364
 4358POPC   C1B56023  20.634  35.855   6.464
 4358POPC   C2B56024  20.636  35.877   6.764
 4358POPC   C3B56025  20.646  35.918   7.064
 4358POPC   C4B56026  20.606  35.911   7.364
 4359POPC   NC356027   3.573  33.006   5.564
 4359POPC   PO456028   3.576  33.043   5.864
 4359POPC   GL156029   3.571  32.987   6.164
 4359POPC   GL256030   3.519  32.919   6.164
 4359POPC   C1A56031   3.532  33.056   6.464
 4359POPC   D2A56032   3.556  32.978   6.764
 4359POPC   C3A56033   3.536  33.015   7.064
 4359POPC   C4A56034   3.581  32.984   7.364
 4359POPC   C1B56035   3.367  32.844   6.464
 4359POPC   C2B56036   3.382  32.841   6.764
 4359POPC   C3B56037   3.381  32.837   7.064
 4359POPC   C4B56038   3.375  32.804   7.364
 4360POPC   NC356039   2.786   7.412   5.564
 4360POPC   PO456040   2.738   7.388   5.864
 4360POPC   GL156041   2.735   7.423   6.164
 4360POPC   GL256042   2.777   7.302   6.164
 4360POPC   C1A56043   2.798   7.438   6.464
 4360POPC   D2A56044   2.797   7.469   6.764
 4360POPC   C3A56045   2.809   7.431   7.064
 4360POPC   C4A56046   2.776   7.466   7.364
 4360POPC   C1B56047   2.784   7.158   6.464
 4360POPC   C2B56048   2.773   7.148   6.764
 4360POPC   C3B56049   2.825   7.202   7.064
 4360POPC   C4B56050   2.838   7.169   7.364
 4361POPC   NC356051  21.366  26.029   5.564
 4361POPC   PO456052  21.406  26.074   5.864
 4361POPC   GL156053  21.428  26.022   6.164
 4361POPC   GL256054  21.447  25.920   6.164
 4361POPC   C1A56055  21.412  26.081   6.464
 4361POPC   D2A56056  21.389  26.068   6.764
 4361POPC   C3A56057  21.339  26.024   7.064
 4361POPC   C4A56058  21.424  25.998   7.364
 4361POPC   C1B56059  21.462  25.836   6.464
 4361POPC   C2B56060  21.474  25.766   6.764
 4361POPC   C3B56061  21.493  25.841   7.064
 4361POPC   C4B56062  21.428  25.763   7.364
 4362POPC   NC356063  43.156  32.296   5.564
 4362POPC   PO456064  43.099  32.294   5.864
 4362POPC   GL156065  43.094  32.292   6.164
 4362POPC   GL256066  43.045  32.159   6.164
 4362POPC   C1A56067  43.089  32.251   6.464
 4362POPC   D2A56068  43.105  32.271   6.764
 4362POPC   C3A56069  43.075  32.247   7.064
 4362POPC   C4A56070  43.083  32.233   7.364
 4362POPC   C1B56071  42.889  32.126   6.464
 4362POPC   C2B56072  42.899  32.080   6.764
 4362POPC   C3B56073  42.872  32.062   7.064
 4362POPC   C4B56074  42.886  32.136   7.364
 4363POPC   NC356075  16.713   5.095   5.564
 4363POPC   PO456076  16.711   5.133   5.864
 4363POPC   GL156077  16.694   5.123   6.164
 4363POPC   GL256078  16.580   5.083   6.164
 4363POPC   C1A56079  16.751   5.059   6.464
 4363POPC   D2A56080  16.710   5.090   6.764
 4363POPC   C3A56081  16.724   5.073   7.064
 4363POPC   C4A56082  16.775   5.083   7.364
 4363POPC   C1B56083  16.484   5.086   6.464
 4363POPC   C2B56084  16.505   5.091   6.764
 4363POPC   C3B56085  16.507   5.045   7.064
 4363POPC   C4B56086  16.452   5.025   7.364
 4364POPC   NC356087  28.358  20.634   5.564
 4364POPC   PO456088  28.370  20.656   5.864
 4364POPC   GL156089  28.320  20.629   6.164
 4364POPC   GL256090  28.345  20.726   6.164
 4364POPC   C1A56091  28.351  20.595   6.464
 4364POPC   D2A56092  28.413  20.604   6.764
 4364POPC   C3A56093  28.346  20.570   7.064
 4364POPC   C4A56094  28.367  20.635   7.364
 4364POPC   C1B56095  28.198  20.838   6.464
 4364POPC   C2B56096  28.288  20.847   6.764
 4364POPC   C3B56097  28.238  20.873   7.064
 4364POPC   C4B56098  28.240  20.873   7.364
 4365POPC   NC356099   4.357  10.547   5.564
 4365POPC   PO456100   4.286  10.568   5.864
 4365POPC   GL156101   4.312  10.507   6.164
 4365POPC   GL256102   4.184  10.596   6.164
 4365POPC   C1A56103   4.288  10.507   6.464
 4365POPC   D2A56104   4.275  10.557   6.764
 4365POPC   C3A56105   4.360  10.509   7.064
 4365POPC   C4A56106   4.344  10.548   7.364
 4365POPC   C1B56107   4.092  10.563   6.464
 4365POPC   C2B56108   4.077  10.638   6.764
 4365POPC   C3B56109   4.106  10.565   7.064
 4365POPC   C4B56110   4.064  10.577   7.364
 4366POPC   NC356111   6.666  18.264   5.564
 4366POPC   PO456112   6.693  18.332   5.864
 4366POPC   GL156113   6.600  18.327   6.164
 4366POPC   GL256114   6.649  18.146   6.164
 4366POPC   C1A56115   6.609  18.251   6.464
 4366POPC   D2A56116   6.609  18.312   6.764
 4366POPC   C3A56117   6.630  18.282   7.064
 4366POPC   C4A56118   6.669  18.242   7.364
 4366POPC   C1B56119   6.744  18.059   6.464
 4366POPC   C2B56120   6.667  18.069   6.764
 4366POPC   C3B56121   6.672  18.036   7.064
 4366POPC   C4B56122   6.712  18.078   7.364
 4367POPC   NC356123   3.575  10.480   5.564
 4367POPC   PO456124   3.499  10.480   5.864
 4367POPC   GL156125   3.554  10.532   6.164
 4367POPC   GL256126   3.445  10.641   6.164
 4367POPC   C1A56127   3.503  10.474   6.464
 4367POPC   D2A56128   3.574  10.493   6.764
 4367POPC   C3A56129   3.571  10.529   7.064
 4367POPC   C4A56130   3.510  10.555   7.364
 4367POPC   C1B56131   3.373  10.765   6.464
 4367POPC   C2B56132   3.427  10.706   6.764
 4367POPC   C3B56133   3.419  10.725   7.064
 4367POPC   C4B56134   3.420  10.695   7.364
 4368POPC   NC356135  31.435  30.651   5.564
 4368POPC   PO456136  31.502  30.737   5.864
 4368POPC   GL156137  31.431  30.663   6.164
 4368POPC   GL256138  31.447  30.845   6.164
 4368POPC   C1A56139  31.513  30.716   6.464
 4368POPC   D2A56140  31.486  30.730   6.764
 4368POPC   C3A56141  31.448  30.728   7.064
 4368POPC   C4A56142  31.467  30.655   7.364
 4368POPC   C1B56143  31.410  30.900   6.464
 4368POPC   C2B56144  31.356  30.982   6.764
 4368POPC   C3B56145  31.439  30.912   7.064
 4368POPC   C4B56146  31.441  30.920   7.364
 4369POPC   NC356147  14.430  40.040   5.564
 4369POPC   PO456148  14.421  40.042   5.864
 4369POPC   GL156149  14.447  40.048   6.164
 4369POPC   GL256150  14.336  39.862   6.164
 4369POPC   C1A56151  14.406  39.976   6.464
 4369POPC   D2A56152  14.418  39.997   6.764
 4369POPC   C3A56153  14.374  39.978   7.064
 4369POPC   C4A56154  14.374  39.993   7.364
 4369POPC   C1B56155  14.323  39.751   6.464
 4369POPC   C2B56156  14.362  39.773   6.764
 4369POPC   C3B56157  14.321  39.730   7.064
 4369POPC   C4B56158  14.390  39.792   7.364
 4370POPC   NC356159  30.709   7.405   5.564
 4370POPC   PO456160  30.689   7.382   5.864
 4370POPC   GL156161  30.660   7.444   6.164
 4370POPC   GL256162  30.616   7.325   6.164
 4370POPC   C1A56163  30.739   7.434   6.464
 4370POPC   D2A56164  30.680   7.420   6.764
 4370POPC   C3A56165  30.659   7.391   7.064
 4370POPC   C4A56166  30.729   7.400   7.364
 4370POPC   C1B56167  30.628   7.180   6.464
 4370POPC   C2B56168  30.569   7.190   6.764
 4370POPC   C3B56169  30.643   7.151   7.064
 4370POPC   C4B56170  30.564   7.153   7.364
 4371POPC   NC356171  43.914  40.023   5.564
 4371POPC   PO456172  43.912  40.017   5.864
 4371POPC   GL156173  43.842  39.985   6.164
 4371POPC   GL256174  43.915  40.152   6.164
 4371POPC   C1A56175  43.859  40.010   6.464
 4371POPC   D2A56176  43.881  40.003   6.764
 4371POPC   C3A56177  43.897  39.997   7.064
 4371POPC   C4A56178  43.859  40.044   7.364
 4371POPC   C1B56179  43.967  40.253   6.464
 4371POPC   C2B56180  43.925  40.281   6.764
 4371POPC   C3B56181  43.993  40.271   7.064
 4371POPC   C4B56182  43.942  40.244   7.364
 4372POPC   NC356183  15.926  28.358   5.564
 4372POPC   PO456184  16.002  28.323   5.864
 4372POPC   GL156185  15.946  28.400   6.164
 4372POPC   GL256186  15.984  28.216   6.164
 4372POPC   C1A56187  15.984  28.391   6.464
 4372POPC   D2A56188  15.984  28.330   6.764
 4372POPC   C3A56189  15.960  28.384   7.064
 4372POPC   C4A56190  15.935  28.382   7.364
 4372POPC   C1B56191  16.066  28.153   6.464
 4372POPC   C2B56192  16.052  28.144   6.764
 4372POPC   C3B56193  15.983  28.139   7.064
 4372POPC   C4B56194  16.012  28.153   7.364
 4373POPC   NC356195   1.260  30.647   5.564
 4373POPC   PO456196   1.193  30.656   5.864
 4373POPC   GL156197   1.264  30.739   6.164
 4373POPC   GL256198   1.057  30.677   6.164
 4373POPC   C1A56199   1.235  30.701   6.464
 4373POPC   D2A56200   1.203  30.687   6.764
 4373POPC   C3A56201   1.263  30.686   7.064
 4373POPC   C4A56202   1.166  30.715   7.364
 4373POPC   C1B56203   0.930  30.707   6.464
 4373POPC   C2B56204   0.967  30.724   6.764
 4373POPC   C3B56205   0.958  30.750   7.064
 4373POPC   C4B56206   0.980  30.776   7.364
 4374POPC   NC356207   3.504  27.581   5.564
 4374POPC   PO456208   3.497  27.564   5.864
 4374POPC   GL156209   3.547  27.563   6.164
 4374POPC   GL256210   3.505  27.664   6.164
 4374POPC   C1A56211   3.547  27.543   6.464
 4374POPC   D2A56212   3.551  27.601   6.764
 4374POPC   C3A56213   3.584  27.582   7.064
 4374POPC   C4A56214   3.528  27.591   7.364
 4374POPC   C1B56215   3.343  27.828   6.464
 4374POPC   C2B56216   3.381  27.774   6.764
 4374POPC   C3B56217   3.421  27.766   7.064
 4374POPC   C4B56218   3.405  27.745   7.364
 4375POPC   NC356219   7.404   4.324   5.564
 4375POPC   PO456220   7.374   4.288   5.864
 4375POPC   GL156221   7.458   4.346   6.164
 4375POPC   GL256222   7.267   4.278   6.164
 4375POPC   C1A56223   7.457   4.282   6.464
 4375POPC   D2A56224   7.428   4.269   6.764
 4375POPC   C3A56225   7.384   4.363   7.064
 4375POPC   C4A56226   7.468   4.341   7.364
 4375POPC   C1B56227   7.216   4.350   6.464
 4375POPC   C2B56228   7.140   4.302   6.764
 4375POPC   C3B56229   7.167   4.290   7.064
 4375POPC   C4B56230   7.204   4.309   7.364
 4376POPC   NC356231  43.882  43.922   5.564
 4376POPC   PO456232  43.889  43.929   5.864
 4376POPC   GL156233  43.905  43.909   6.164
 4376POPC   GL256234  43.930  43.995   6.164
 4376POPC   C1A56235  43.899  43.907   6.464
 4376POPC   D2A56236  43.844  43.925   6.764
 4376POPC   C3A56237  43.838  43.931   7.064
 4376POPC   C4A56238  43.875  43.879   7.364
 4376POPC   C1B56239  43.979  44.115   6.464
 4376POPC   C2B56240  43.995  44.050   6.764
 4376POPC   C3B56241  44.050  44.136   7.064
 4376POPC   C4B56242  43.987  44.091   7.364
 4377POPC   NC356243   1.993  43.901   5.564
 4377POPC   PO456244   2.005  43.867   5.864
 4377POPC   GL156245   1.983  43.861   6.164
 4377POPC   GL256246   1.832  43.981   6.164
 4377POPC   C1A56247   1.942  43.865   6.464
 4377POPC   D2A56248   1.974  43.859   6.764
 4377POPC   C3A56249   1.996  43.931   7.064
 4377POPC   C4A56250   1.999  43.919   7.364
 4377POPC   C1B56251   1.767  43.945   6.464
 4377POPC   C2B56252   1.723  44.042   6.764
 4377POPC   C3B56253   1.807  43.955   7.064
 4377POPC   C4B56254   1.757  43.991   7.364
 4378POPC   NC356255  32.996  22.929   5.564
 4378POPC   PO456256  32.976  22.921   5.864
 4378POPC   GL156257  32.986  22.944   6.164
 4378POPC   GL256258  33.099  23.033   6.164
 4378POPC   C1A56259  33.074  22.979   6.464
 4378POPC   D2A56260  33.036  22.920   6.764
 4378POPC   C3A56261  32.993  22.902   7.064
 4378POPC   C4A56262  33.006  22.916   7.364
 4378POPC   C1B56263  33.170  23.167   6.464
 4378POPC   C2B56264  33.172  23.166   6.764
 4378POPC   C3B56265  33.126  23.203   7.064
 4378POPC   C4B56266  33.135  23.189   7.364
 4379POPC   NC356267  39.241  16.688   5.564
 4379POPC   PO456268  39.189  16.685   5.864
 4379POPC   GL156269  39.278  16.705   6.164
 4379POPC   GL256270  39.139  16.798   6.164
 4379POPC   C1A56271  39.226  16.761   6.464
 4379POPC   D2A56272  39.272  16.762   6.764
 4379POPC   C3A56273  39.227  16.747   7.064
 4379POPC   C4A56274  39.233  16.776   7.364
 4379POPC   C1B56275  39.030  16.857   6.464
 4379POPC   C2B56276  39.038  16.927   6.764
 4379POPC   C3B56277  39.009  16.873   7.064
 4379POPC   C4B56278  39.002  16.856   7.364
 4380POPC   NC356279  38.451  29.946   5.564
 4380POPC   PO456280  38.462  29.871   5.864
 4380POPC   GL156281  38.430  29.907   6.164
 4380POPC   GL256282  38.440  30.041   6.164
 4380POPC   C1A56283  38.441  29.873   6.464
 4380POPC   D2A56284  38.421  29.939   6.764
 4380POPC   C3A56285  38.489  29.901   7.064
 4380POPC   C4A56286  38.438  29.914   7.364
 4380POPC   C1B56287  38.440  30.180   6.464
 4380POPC   C2B56288  38.404  30.151   6.764
 4380POPC   C3B56289  38.424  30.157   7.064
 4380POPC   C4B56290  38.360  30.140   7.364
 4381POPC   NC356291   3.511  31.518   5.564
 4381POPC   PO456292   3.568  31.445   5.864
 4381POPC   GL156293   3.508  31.510   6.164
 4381POPC   GL256294   3.559  31.373   6.164
 4381POPC   C1A56295   3.524  31.501   6.464
 4381POPC   D2A56296   3.551  31.424   6.764
 4381POPC   C3A56297   3.533  31.510   7.064
 4381POPC   C4A56298   3.492  31.506   7.364
 4381POPC   C1B56299   3.579  31.224   6.464
 4381POPC   C2B56300   3.557  31.267   6.764
 4381POPC   C3B56301   3.558  31.211   7.064
 4381POPC   C4B56302   3.618  31.266   7.364
 4382POPC   NC356303   1.999  40.021   5.564
 4382POPC   PO456304   1.949  39.996   5.864
 4382POPC   GL156305   2.025  39.972   6.164
 4382POPC   GL256306   1.840  40.034   6.164
 4382POPC   C1A56307   2.017  40.028   6.464
 4382POPC   D2A56308   1.994  39.971   6.764
 4382POPC   C3A56309   1.941  39.985   7.064
 4382POPC   C4A56310   2.023  40.019   7.364
 4382POPC   C1B56311   1.751  40.077   6.464
 4382POPC   C2B56312   1.718  39.993   6.764
 4382POPC   C3B56313   1.743  40.006   7.064
 4382POPC   C4B56314   1.702  40.049   7.364
 4383POPC   NC356315  23.751  43.890   5.564
 4383POPC   PO456316  23.741  43.879   5.864
 4383POPC   GL156317  23.741  43.932   6.164
 4383POPC   GL256318  23.724  43.762   6.164
 4383POPC   C1A56319  23.708  43.936   6.464
 4383POPC   D2A56320  23.702  43.912   6.764
 4383POPC   C3A56321  23.707  43.889   7.064
 4383POPC   C4A56322  23.729  43.903   7.364
 4383POPC   C1B56323  23.806  43.626   6.464
 4383POPC   C2B56324  23.757  43.644   6.764
 4383POPC   C3B56325  23.768  43.597   7.064
 4383POPC   C4B56326  23.802  43.683   7.364
 4384POPC   NC356327  35.383   2.737   5.564
 4384POPC   PO456328  35.372   2.739   5.864
 4384POPC   GL156329  35.388   2.737   6.164
 4384POPC   GL256330  35.308   2.622   6.164
 4384POPC   C1A56331  35.377   2.765   6.464
 4384POPC   D2A56332  35.360   2.773   6.764
 4384POPC   C3A56333  35.337   2.777   7.064
 4384POPC   C4A56334  35.382   2.786   7.364
 4384POPC   C1B56335  35.186   2.564   6.464
 4384POPC   C2B56336  35.198   2.560   6.764
 4384POPC   C3B56337  35.260   2.587   7.064
 4384POPC   C4B56338  35.269   2.540   7.364
 4385POPC   NC356339  37.702  39.977   5.564
 4385POPC   PO456340  37.662  40.010   5.864
 4385POPC   GL156341  37.724  40.031   6.164
 4385POPC   GL256342  37.516  39.941   6.164
 4385POPC   C1A56343  37.702  39.965   6.464
 4385POPC   D2A56344  37.727  40.040   6.764
 4385POPC   C3A56345  37.663  39.988   7.064
 4385POPC   C4A56346  37.682  39.969   7.364
 4385POPC   C1B56347  37.480  40.005   6.464
 4385POPC   C2B56348  37.402  39.926   6.764
 4385POPC   C3B56349  37.420  39.933   7.064
 4385POPC   C4B56350  37.479  39.921   7.364
 4386POPC   NC356351  36.101  12.102   5.564
 4386POPC   PO456352  36.086  12.121   5.864
 4386POPC   GL156353  36.156  12.042   6.164
 4386POPC   GL256354  36.203  11.949   6.164
 4386POPC   C1A56355  36.177  12.088   6.464
 4386POPC   D2A56356  36.177  12.055   6.764
 4386POPC   C3A56357  36.166  12.110   7.064
 4386POPC   C4A56358  36.170  12.069   7.364
 4386POPC   C1B56359  36.322  11.874   6.464
 4386POPC   C2B56360  36.325  11.879   6.764
 4386POPC   C3B56361  36.274  11.927   7.064
 4386POPC   C4B56362  36.283  11.907   7.364
 4387POPC   NC356363   1.182  32.986   5.564
 4387POPC   PO456364   1.220  33.031   5.864
 4387POPC   GL156365   1.232  33.031   6.164
 4387POPC   GL256366   1.161  33.176   6.164
 4387POPC   C1A56367   1.212  33.000   6.464
 4387POPC   D2A56368   1.207  33.049   6.764
 4387POPC   C3A56369   1.240  33.033   7.064
 4387POPC   C4A56370   1.176  33.069   7.364
 4387POPC   C1B56371   1.135  33.282   6.464
 4387POPC   C2B56372   1.201  33.313   6.764
 4387POPC   C3B56373   1.165  33.256   7.064
 4387POPC   C4B56374   1.186  33.310   7.364
 4388POPC   NC356375  12.826   7.404   5.564
 4388POPC   PO456376  12.889   7.450   5.864
 4388POPC   GL156377  12.865   7.398   6.164
 4388POPC   GL256378  12.798   7.285   6.164
 4388POPC   C1A56379  12.830   7.464   6.464
 4388POPC   D2A56380  12.839   7.381   6.764
 4388POPC   C3A56381  12.861   7.450   7.064
 4388POPC   C4A56382  12.820   7.414   7.364
 4388POPC   C1B56383  12.787   7.193   6.464
 4388POPC   C2B56384  12.768   7.242   6.764
 4388POPC   C3B56385  12.696   7.151   7.064
 4388POPC   C4B56386  12.767   7.153   7.364
 4389POPC   NC356387  20.613  29.126   5.564
 4389POPC   PO456388  20.607  29.101   5.864
 4389POPC   GL156389  20.583  29.137   6.164
 4389POPC   GL256390  20.736  29.200   6.164
 4389POPC   C1A56391  20.570  29.141   6.464
 4389POPC   D2A56392  20.646  29.143   6.764
 4389POPC   C3A56393  20.602  29.191   7.064
 4389POPC   C4A56394  20.642  29.095   7.364
 4389POPC   C1B56395  20.801  29.232   6.464
 4389POPC   C2B56396  20.841  29.259   6.764
 4389POPC   C3B56397  20.806  29.201   7.064
 4389POPC   C4B56398  20.794  29.201   7.364
 4390POPC   NC356399   1.183  18.252   5.564
 4390POPC   PO456400   1.241  18.251   5.864
 4390POPC   GL156401   1.194  18.322   6.164
 4390POPC   GL256402   1.108  18.320   6.164
 4390POPC   C1A56403   1.254  18.289   6.464
 4390POPC   D2A56404   1.188  18.294   6.764
 4390POPC   C3A56405   1.181  18.295   7.064
 4390POPC   C4A56406   1.205  18.288   7.364
 4390POPC   C1B56407   1.015  18.311   6.464
 4390POPC   C2B56408   0.931  18.282   6.764
 4390POPC   C3B56409   0.943  18.270   7.064
 4390POPC   C4B56410   0.953  18.345   7.364
 4391POPC   NC356411  19.049  19.881   5.564
 4391POPC   PO456412  19.086  19.845   5.864
 4391POPC   GL156413  19.103  19.793   6.164
 4391POPC   GL256414  18.976  19.897   6.164
 4391POPC   C1A56415  19.070  19.793   6.464
 4391POPC   D2A56416  19.023  19.809   6.764
 4391POPC   C3A56417  19.089  19.860   7.064
 4391POPC   C4A56418  19.028  19.875   7.364
 4391POPC   C1B56419  18.874  20.003   6.464
 4391POPC   C2B56420  18.962  20.046   6.764
 4391POPC   C3B56421  18.888  20.028   7.064
 4391POPC   C4B56422  18.966  19.995   7.364
 4392POPC   NC356423  17.516  33.788   5.564
 4392POPC   PO456424  17.511  33.758   5.864
 4392POPC   GL156425  17.490  33.832   6.164
 4392POPC   GL256426  17.358  33.710   6.164
 4392POPC   C1A56427  17.518  33.782   6.464
 4392POPC   D2A56428  17.513  33.844   6.764
 4392POPC   C3A56429  17.555  33.781   7.064
 4392POPC   C4A56430  17.517  33.821   7.364
 4392POPC   C1B56431  17.316  33.752   6.464
 4392POPC   C2B56432  17.286  33.672   6.764
 4392POPC   C3B56433  17.290  33.726   7.064
 4392POPC   C4B56434  17.288  33.669   7.364
 4393POPC   NC356435   0.460  20.648   5.564
 4393POPC   PO456436   0.466  20.591   5.864
 4393POPC   GL156437   0.429  20.572   6.164
 4393POPC   GL256438   0.394  20.772   6.164
 4393POPC   C1A56439   0.389  20.606   6.464
 4393POPC   D2A56440   0.457  20.581   6.764
 4393POPC   C3A56441   0.413  20.617   7.064
 4393POPC   C4A56442   0.485  20.583   7.364
 4393POPC   C1B56443   0.377  20.876   6.464
 4393POPC   C2B56444   0.380  20.821   6.764
 4393POPC   C3B56445   0.372  20.854   7.064
 4393POPC   C4B56446   0.364  20.837   7.364
 4394POPC   NC356447   8.948  33.799   5.564
 4394POPC   PO456448   8.959  33.798   5.864
 4394POPC   GL156449   9.022  33.843   6.164
 4394POPC   GL256450   9.007  33.907   6.164
 4394POPC   C1A56451   8.955  33.764   6.464
 4394POPC   D2A56452   8.956  33.779   6.764
 4394POPC   C3A56453   8.989  33.765   7.064
 4394POPC   C4A56454   9.001  33.796   7.364
 4394POPC   C1B56455   9.153  34.015   6.464
 4394POPC   C2B56456   9.130  34.052   6.764
 4394POPC   C3B56457   9.076  34.034   7.064
 4394POPC   C4B56458   9.112  34.020   7.364
 4395POPC   NC356459  27.548   8.925   5.564
 4395POPC   PO456460  27.600   8.991   5.864
 4395POPC   GL156461  27.611   8.962   6.164
 4395POPC   GL256462  27.555   8.889   6.164
 4395POPC   C1A56463  27.638   9.008   6.464
 4395POPC   D2A56464  27.564   8.980   6.764
 4395POPC   C3A56465  27.570   9.016   7.064
 4395POPC   C4A56466  27.549   8.932   7.364
 4395POPC   C1B56467  27.641   8.682   6.464
 4395POPC   C2B56468  27.605   8.735   6.764
 4395POPC   C3B56469  27.640   8.716   7.064
 4395POPC   C4B56470  27.647   8.723   7.364
 4396POPC   NC356471   0.482  32.278   5.564
 4396POPC   PO456472   0.399  32.253   5.864
 4396POPC   GL156473   0.418  32.232   6.164
 4396POPC   GL256474   0.545  32.210   6.164
 4396POPC   C1A56475   0.390  32.255   6.464
 4396POPC   D2A56476   0.462  32.298   6.764
 4396POPC   C3A56477   0.473  32.206   7.064
 4396POPC   C4A56478   0.428  32.260   7.364
 4396POPC   C1B56479   0.638  32.086   6.464
 4396POPC   C2B56480   0.664  32.153   6.764
 4396POPC   C3B56481   0.705  32.088   7.064
 4396POPC   C4B56482   0.669  32.156   7.364
 4397POPC   NC356483  22.924  28.335   5.564
 4397POPC   PO456484  22.943  28.380   5.864
 4397POPC   GL156485  22.962  28.411   6.164
 4397POPC   GL256486  23.063  28.419   6.164
 4397POPC   C1A56487  22.930  28.405   6.464
 4397POPC   D2A56488  22.904  28.395   6.764
 4397POPC   C3A56489  22.901  28.397   7.064
 4397POPC   C4A56490  22.963  28.413   7.364
 4397POPC   C1B56491  23.202  28.527   6.464
 4397POPC   C2B56492  23.191  28.458   6.764
 4397POPC   C3B56493  23.132  28.471   7.064
 4397POPC   C4B56494  23.135  28.443   7.364
 4398POPC   NC356495  37.652  15.969   5.564
 4398POPC   PO456496  37.654  15.942   5.864
 4398POPC   GL156497  37.704  15.968   6.164
 4398POPC   GL256498  37.714  16.042   6.164
 4398POPC   C1A56499  37.703  15.964   6.464
 4398POPC   D2A56500  37.633  15.930   6.764
 4398POPC   C3A56501  37.718  15.965   7.064
 4398POPC   C4A56502  37.674  15.920   7.364
 4398POPC   C1B56503  37.709  16.238   6.464
 4398POPC   C2B56504  37.702  16.244   6.764
 4398POPC   C3B56505  37.731  16.239   7.064
 4398POPC   C4B56506  37.713  16.168   7.364
 4399POPC   NC356507  36.932   2.780   5.564
 4399POPC   PO456508  36.880   2.722   5.864
 4399POPC   GL156509  36.929   2.799   6.164
 4399POPC   GL256510  36.798   2.797   6.164
 4399POPC   C1A56511  36.855   2.760   6.464
 4399POPC   D2A56512  36.883   2.807   6.764
 4399POPC   C3A56513  36.867   2.771   7.064
 4399POPC   C4A56514  36.953   2.751   7.364
 4399POPC   C1B56515  36.643   2.766   6.464
 4399POPC   C2B56516  36.635   2.786   6.764
 4399POPC   C3B56517  36.684   2.711   7.064
 4399POPC   C4B56518  36.703   2.705   7.364
 4400POPC   NC356519   3.531  34.529   5.564
 4400POPC   PO456520   3.529  34.555   5.864
 4400POPC   GL156521   3.507  34.624   6.164
 4400POPC   GL256522   3.698  34.568   6.164
 4400POPC   C1A56523   3.583  34.615   6.464
 4400POPC   D2A56524   3.498  34.576   6.764
 4400POPC   C3A56525   3.575  34.602   7.064
 4400POPC   C4A56526   3.573  34.545   7.364
 4400POPC   C1B56527   3.743  34.601   6.464
 4400POPC   C2B56528   3.771  34.602   6.764
 4400POPC   C3B56529   3.810  34.586   7.064
 4400POPC   C4B56530   3.802  34.673   7.364
 4401POPC   NC356531  36.167  38.488   5.564
 4401POPC   PO456532  36.101  38.416   5.864
 4401POPC   GL156533  36.158  38.424   6.164
 4401POPC   GL256534  36.217  38.343   6.164
 4401POPC   C1A56535  36.133  38.496   6.464
 4401POPC   D2A56536  36.115  38.471   6.764
 4401POPC   C3A56537  36.105  38.485   7.064
 4401POPC   C4A56538  36.108  38.502   7.364
 4401POPC   C1B56539  36.289  38.279   6.464
 4401POPC   C2B56540  36.284  38.237   6.764
 4401POPC   C3B56541  36.327  38.262   7.064
 4401POPC   C4B56542  36.302  38.223   7.364
 4402POPC   NC356543  33.822  13.677   5.564
 4402POPC   PO456544  33.843  13.671   5.864
 4402POPC   GL156545  33.792  13.630   6.164
 4402POPC   GL256546  33.912  13.600   6.164
 4402POPC   C1A56547  33.829  13.658   6.464
 4402POPC   D2A56548  33.850  13.616   6.764
 4402POPC   C3A56549  33.827  13.652   7.064
 4402POPC   C4A56550  33.842  13.651   7.364
 4402POPC   C1B56551  34.022  13.530   6.464
 4402POPC   C2B56552  34.077  13.556   6.764
 4402POPC   C3B56553  34.030  13.523   7.064
 4402POPC   C4B56554  33.998  13.547   7.364
 4403POPC   NC356555   2.013  37.685   5.564
 4403POPC   PO456556   2.028  37.728   5.864
 4403POPC   GL156557   1.999  37.693   6.164
 4403POPC   GL256558   2.019  37.533   6.164
 4403POPC   C1A56559   1.960  37.640   6.464
 4403POPC   D2A56560   1.982  37.646   6.764
 4403POPC   C3A56561   1.961  37.686   7.064
 4403POPC   C4A56562   1.955  37.652   7.364
 4403POPC   C1B56563   2.126  37.457   6.464
 4403POPC   C2B56564   2.168  37.460   6.764
 4403POPC   C3B56565   2.096  37.452   7.064
 4403POPC   C4B56566   2.130  37.446   7.364
 4404POPC   NC356567  17.525  11.263   5.564
 4404POPC   PO456568  17.465  11.302   5.864
 4404POPC   GL156569  17.473  11.315   6.164
 4404POPC   GL256570  17.541  11.421   6.164
 4404POPC   C1A56571  17.510  11.344   6.464
 4404POPC   D2A56572  17.542  11.264   6.764
 4404POPC   C3A56573  17.533  11.313   7.064
 4404POPC   C4A56574  17.494  11.337   7.364
 4404POPC   C1B56575  17.576  11.575   6.464
 4404POPC   C2B56576  17.571  11.593   6.764
 4404POPC   C3B56577  17.552  11.516   7.064
 4404POPC   C4B56578  17.560  11.505   7.364
 4405POPC   NC356579   8.220  10.477   5.564
 4405POPC   PO456580   8.229  10.514   5.864
 4405POPC   GL156581   8.220  10.514   6.164
 4405POPC   GL256582   8.183  10.617   6.164
 4405POPC   C1A56583   8.215  10.551   6.464
 4405POPC   D2A56584   8.184  10.540   6.764
 4405POPC   C3A56585   8.243  10.571   7.064
 4405POPC   C4A56586   8.198  10.484   7.364
 4405POPC   C1B56587   8.193  10.812   6.464
 4405POPC   C2B56588   8.205  10.763   6.764
 4405POPC   C3B56589   8.168  10.732   7.064
 4405POPC   C4B56590   8.172  10.762   7.364
 4406POPC   NC356591  16.744  22.173   5.564
 4406POPC   PO456592  16.778  22.207   5.864
 4406POPC   GL156593  16.728  22.149   6.164
 4406POPC   GL256594  16.598  22.170   6.164
 4406POPC   C1A56595  16.726  22.184   6.464
 4406POPC   D2A56596  16.766  22.211   6.764
 4406POPC   C3A56597  16.684  22.120   7.064
 4406POPC   C4A56598  16.771  22.131   7.364
 4406POPC   C1B56599  16.442  22.056   6.464
 4406POPC   C2B56600  16.494  22.149   6.764
 4406POPC   C3B56601  16.450  22.124   7.064
 4406POPC   C4B56602  16.444  22.065   7.364
 4407POPC   NC356603   4.335   0.453   5.564
 4407POPC   PO456604   4.268   0.461   5.864
 4407POPC   GL156605   4.296   0.452   6.164
 4407POPC   GL256606   4.192   0.309   6.164
 4407POPC   C1A56607   4.285   0.456   6.464
 4407POPC   D2A56608   4.341   0.446   6.764
 4407POPC   C3A56609   4.291   0.419   7.064
 4407POPC   C4A56610   4.277   0.402   7.364
 4407POPC   C1B56611   4.139   0.307   6.464
 4407POPC   C2B56612   4.135   0.240   6.764
 4407POPC   C3B56613   4.145   0.270   7.064
 4407POPC   C4B56614   4.179   0.233   7.364
 4408POPC   NC356615  38.478  11.343   5.564
 4408POPC   PO456616  38.439  11.287   5.864
 4408POPC   GL156617  38.480  11.291   6.164
 4408POPC   GL256618  38.378  11.377   6.164
 4408POPC   C1A56619  38.438  11.345   6.464
 4408POPC   D2A56620  38.501  11.290   6.764
 4408POPC   C3A56621  38.505  11.265   7.064
 4408POPC   C4A56622  38.454  11.252   7.364
 4408POPC   C1B56623  38.313  11.507   6.464
 4408POPC   C2B56624  38.346  11.490   6.764
 4408POPC   C3B56625  38.336  11.460   7.064
 4408POPC   C4B56626  38.285  11.460   7.364
 4409POPC   NC356627   4.315  32.202   5.564
 4409POPC   PO456628   4.316  32.207   5.864
 4409POPC   GL156629   4.327  32.287   6.164
 4409POPC   GL256630   4.485  32.286   6.164
 4409POPC   C1A56631   4.327  32.275   6.464
 4409POPC   D2A56632   4.280  32.250   6.764
 4409POPC   C3A56633   4.338  32.262   7.064
 4409POPC   C4A56634   4.335  32.267   7.364
 4409POPC   C1B56635   4.602  32.290   6.464
 4409POPC   C2B56636   4.553  32.278   6.764
 4409POPC   C3B56637   4.574  32.273   7.064
 4409POPC   C4B56638   4.523  32.259   7.364
 4410POPC   NC356639   6.673  15.213   5.564
 4410POPC   PO456640   6.662  15.162   5.864
 4410POPC   GL156641   6.633  15.179   6.164
 4410POPC   GL256642   6.733  15.112   6.164
 4410POPC   C1A56643   6.691  15.196   6.464
 4410POPC   D2A56644   6.647  15.150   6.764
 4410POPC   C3A56645   6.647  15.165   7.064
 4410POPC   C4A56646   6.633  15.223   7.364
 4410POPC   C1B56647   6.861  15.055   6.464
 4410POPC   C2B56648   6.844  15.059   6.764
 4410POPC   C3B56649   6.833  15.089   7.064
 4410POPC   C4B56650   6.857  15.017   7.364
 4411POPC   NC356651  10.542  27.590   5.564
 4411POPC   PO456652  10.566  27.562   5.864
 4411POPC   GL156653  10.520  27.545   6.164
 4411POPC   GL256654  10.611  27.602   6.164
 4411POPC   C1A56655  10.551  27.617   6.464
 4411POPC   D2A56656  10.559  27.545   6.764
 4411POPC   C3A56657  10.492  27.626   7.064
 4411POPC   C4A56658  10.544  27.550   7.364
 4411POPC   C1B56659  10.786  27.508   6.464
 4411POPC   C2B56660  10.760  27.552   6.764
 4411POPC   C3B56661  10.729  27.499   7.064
 4411POPC   C4B56662  10.750  27.519   7.364
 4412POPC   NC356663  36.170  34.610   5.564
 4412POPC   PO456664  36.152  34.621   5.864
 4412POPC   GL156665  36.174  34.615   6.164
 4412POPC   GL256666  36.206  34.447   6.164
 4412POPC   C1A56667  36.144  34.602   6.464
 4412POPC   D2A56668  36.091  34.594   6.764
 4412POPC   C3A56669  36.167  34.589   7.064
 4412POPC   C4A56670  36.161  34.542   7.364
 4412POPC   C1B56671  36.189  34.354   6.464
 4412POPC   C2B56672  36.241  34.323   6.764
 4412POPC   C3B56673  36.246  34.310   7.064
 4412POPC   C4B56674  36.269  34.397   7.364
 4413POPC   NC356675  17.519  16.752   5.564
 4413POPC   PO456676  17.475  16.748   5.864
 4413POPC   GL156677  17.472  16.754   6.164
 4413POPC   GL256678  17.468  16.639   6.164
 4413POPC   C1A56679  17.552  16.752   6.464
 4413POPC   D2A56680  17.511  16.768   6.764
 4413POPC   C3A56681  17.498  16.739   7.064
 4413POPC   C4A56682  17.539  16.717   7.364
 4413POPC   C1B56683  17.428  16.513   6.464
 4413POPC   C2B56684  17.423  16.492   6.764
 4413POPC   C3B56685  17.445  16.486   7.064
 4413POPC   C4B56686  17.504  16.453   7.364
 4414POPC   NC356687  29.931  21.428   5.564
 4414POPC   PO456688  29.919  21.425   5.864
 4414POPC   GL156689  29.941  21.346   6.164
 4414POPC   GL256690  29.925  21.270   6.164
 4414POPC   C1A56691  29.939  21.409   6.464
 4414POPC   D2A56692  29.904  21.413   6.764
 4414POPC   C3A56693  29.908  21.359   7.064
 4414POPC   C4A56694  29.935  21.420   7.364
 4414POPC   C1B56695  29.956  21.100   6.464
 4414POPC   C2B56696  29.884  21.103   6.764
 4414POPC   C3B56697  29.977  21.169   7.064
 4414POPC   C4B56698  29.896  21.145   7.364
 4415POPC   NC356699   4.300  34.528   5.564
 4415POPC   PO456700   4.324  34.556   5.864
 4415POPC   GL156701   4.296  34.558   6.164
 4415POPC   GL256702   4.432  34.504   6.164
 4415POPC   C1A56703   4.329  34.531   6.464
 4415POPC   D2A56704   4.365  34.539   6.764
 4415POPC   C3A56705   4.274  34.545   7.064
 4415POPC   C4A56706   4.268  34.573   7.364
 4415POPC   C1B56707   4.502  34.365   6.464
 4415POPC   C2B56708   4.448  34.424   6.764
 4415POPC   C3B56709   4.495  34.399   7.064
 4415POPC   C4B56710   4.478  34.354   7.364
 4416POPC   NC356711  13.619   2.727   5.564
 4416POPC   PO456712  13.634   2.797   5.864
 4416POPC   GL156713  13.615   2.751   6.164
 4416POPC   GL256714  13.563   2.894   6.164
 4416POPC   C1A56715  13.584   2.721   6.464
 4416POPC   D2A56716  13.642   2.722   6.764
 4416POPC   C3A56717  13.628   2.736   7.064
 4416POPC   C4A56718  13.581   2.730   7.364
 4416POPC   C1B56719  13.485   2.940   6.464
 4416POPC   C2B56720  13.507   2.961   6.764
 4416POPC   C3B56721  13.527   2.981   7.064
 4416POPC   C4B56722  13.561   2.943   7.364
 4417POPC   NC356723   4.296  38.409   5.564
 4417POPC   PO456724   4.353  38.426   5.864
 4417POPC   GL156725   4.337  38.456   6.164
 4417POPC   GL256726   4.293  38.524   6.164
 4417POPC   C1A56727   4.306  38.478   6.464
 4417POPC   D2A56728   4.340  38.413   6.764
 4417POPC   C3A56729   4.286  38.498   7.064
 4417POPC   C4A56730   4.348  38.461   7.364
 4417POPC   C1B56731   4.215  38.649   6.464
 4417POPC   C2B56732   4.227  38.699   6.764
 4417POPC   C3B56733   4.252  38.729   7.064
 4417POPC   C4B56734   4.205  38.732   7.364
 4418POPC   NC356735  23.727  17.507   5.564
 4418POPC   PO456736  23.727  17.483   5.864
 4418POPC   GL156737  23.762  17.520   6.164
 4418POPC   GL256738  23.555  17.484   6.164
 4418POPC   C1A56739  23.720  17.548   6.464
 4418POPC   D2A56740  23.735  17.502   6.764
 4418POPC   C3A56741  23.673  17.497   7.064
 4418POPC   C4A56742  23.742  17.525   7.364
 4418POPC   C1B56743  23.490  17.477   6.464
 4418POPC   C2B56744  23.484  17.480   6.764
 4418POPC   C3B56745  23.459  17.480   7.064
 4418POPC   C4B56746  23.515  17.498   7.364
 4419POPC   NC356747  22.963  29.945   5.564
 4419POPC   PO456748  22.923  29.930   5.864
 4419POPC   GL156749  22.940  29.893   6.164
 4419POPC   GL256750  22.866  29.958   6.164
 4419POPC   C1A56751  22.963  29.907   6.464
 4419POPC   D2A56752  22.903  29.966   6.764
 4419POPC   C3A56753  22.893  29.941   7.064
 4419POPC   C4A56754  22.906  29.956   7.364
 4419POPC   C1B56755  22.656  30.019   6.464
 4419POPC   C2B56756  22.714  30.006   6.764
 4419POPC   C3B56757  22.651  29.941   7.064
 4419POPC   C4B56758  22.655  30.010   7.364
 4420POPC   NC356759  17.528  13.609   5.564
 4420POPC   PO456760  17.475  13.579   5.864
 4420POPC   GL156761  17.505  13.580   6.164
 4420POPC   GL256762  17.465  13.561   6.164
 4420POPC   C1A56763  17.548  13.626   6.464
 4420POPC   D2A56764  17.483  13.585   6.764
 4420POPC   C3A56765  17.532  13.613   7.064
 4420POPC   C4A56766  17.499  13.612   7.364
 4420POPC   C1B56767  17.320  13.457   6.464
 4420POPC   C2B56768  17.392  13.436   6.764
 4420POPC   C3B56769  17.370  13.383   7.064
 4420POPC   C4B56770  17.350  13.447   7.364
 4421POPC   NC356771   2.761  26.004   5.564
 4421POPC   PO456772   2.745  26.011   5.864
 4421POPC   GL156773   2.762  26.047   6.164
 4421POPC   GL256774   2.839  26.065   6.164
 4421POPC   C1A56775   2.785  26.067   6.464
 4421POPC   D2A56776   2.810  26.063   6.764
 4421POPC   C3A56777   2.772  26.030   7.064
 4421POPC   C4A56778   2.807  26.008   7.364
 4421POPC   C1B56779   2.941  26.208   6.464
 4421POPC   C2B56780   2.959  26.123   6.764
 4421POPC   C3B56781   2.960  26.137   7.064
 4421POPC   C4B56782   3.026  26.138   7.364
 4422POPC   NC356783  29.131  37.698   5.564
 4422POPC   PO456784  29.149  37.648   5.864
 4422POPC   GL156785  29.144  37.717   6.164
 4422POPC   GL256786  29.098  37.834   6.164
 4422POPC   C1A56787  29.102  37.664   6.464
 4422POPC   D2A56788  29.186  37.666   6.764
 4422POPC   C3A56789  29.173  37.722   7.064
 4422POPC   C4A56790  29.175  37.689   7.364
 4422POPC   C1B56791  29.019  37.930   6.464
 4422POPC   C2B56792  29.009  37.890   6.764
 4422POPC   C3B56793  29.038  37.917   7.064
 4422POPC   C4B56794  28.996  37.917   7.364
 4423POPC   NC356795   2.735   6.644   5.564
 4423POPC   PO456796   2.762   6.653   5.864
 4423POPC   GL156797   2.802   6.660   6.164
 4423POPC   GL256798   2.638   6.643   6.164
 4423POPC   C1A56799   2.739   6.638   6.464
 4423POPC   D2A56800   2.742   6.628   6.764
 4423POPC   C3A56801   2.780   6.683   7.064
 4423POPC   C4A56802   2.794   6.615   7.364
 4423POPC   C1B56803   2.469   6.691   6.464
 4423POPC   C2B56804   2.558   6.670   6.764
 4423POPC   C3B56805   2.473   6.633   7.064
 4423POPC   C4B56806   2.499   6.630   7.364
 4424POPC   NC356807  14.398  36.885   5.564
 4424POPC   PO456808  14.376  36.860   5.864
 4424POPC   GL156809  14.439  36.904   6.164
 4424POPC   GL256810  14.277  36.955   6.164
 4424POPC   C1A56811  14.357  36.890   6.464
 4424POPC   D2A56812  14.364  36.911   6.764
 4424POPC   C3A56813  14.358  36.898   7.064
 4424POPC   C4A56814  14.395  36.938   7.364
 4424POPC   C1B56815  14.158  36.991   6.464
 4424POPC   C2B56816  14.168  36.991   6.764
 4424POPC   C3B56817  14.166  37.009   7.064
 4424POPC   C4B56818  14.203  36.996   7.364
 4425POPC   NC356819  17.511  26.778   5.564
 4425POPC   PO456820  17.483  26.790   5.864
 4425POPC   GL156821  17.477  26.789   6.164
 4425POPC   GL256822  17.458  26.949   6.164
 4425POPC   C1A56823  17.535  26.785   6.464
 4425POPC   D2A56824  17.509  26.847   6.764
 4425POPC   C3A56825  17.531  26.832   7.064
 4425POPC   C4A56826  17.457  26.867   7.364
 4425POPC   C1B56827  17.393  27.043   6.464
 4425POPC   C2B56828  17.303  27.045   6.764
 4425POPC   C3B56829  17.361  27.027   7.064
 4425POPC   C4B56830  17.349  26.986   7.364
 4426POPC   NC356831  38.408  18.290   5.564
 4426POPC   PO456832  38.505  18.249   5.864
 4426POPC   GL156833  38.470  18.262   6.164
 4426POPC   GL256834  38.351  18.390   6.164
 4426POPC   C1A56835  38.413  18.233   6.464
 4426POPC   D2A56836  38.428  18.327   6.764
 4426POPC   C3A56837  38.432  18.305   7.064
 4426POPC   C4A56838  38.497  18.325   7.364
 4426POPC   C1B56839  38.240  18.472   6.464
 4426POPC   C2B56840  38.279  18.417   6.764
 4426POPC   C3B56841  38.232  18.406   7.064
 4426POPC   C4B56842  38.227  18.398   7.364
 4427POPC   NC356843  41.573  25.292   5.564
 4427POPC   PO456844  41.568  25.237   5.864
 4427POPC   GL156845  41.589  25.256   6.164
 4427POPC   GL256846  41.491  25.152   6.164
 4427POPC   C1A56847  41.595  25.243   6.464
 4427POPC   D2A56848  41.522  25.293   6.764
 4427POPC   C3A56849  41.533  25.314   7.064
 4427POPC   C4A56850  41.513  25.284   7.364
 4427POPC   C1B56851  41.526  25.043   6.464
 4427POPC   C2B56852  41.472  25.035   6.764
 4427POPC   C3B56853  41.465  25.049   7.064
 4427POPC   C4B56854  41.514  24.994   7.364
 4428POPC   NC356855  40.759  23.687   5.564
 4428POPC   PO456856  40.747  23.733   5.864
 4428POPC   GL156857  40.770  23.713   6.164
 4428POPC   GL256858  40.682  23.601   6.164
 4428POPC   C1A56859  40.773  23.717   6.464
 4428POPC   D2A56860  40.784  23.676   6.764
 4428POPC   C3A56861  40.781  23.665   7.064
 4428POPC   C4A56862  40.812  23.677   7.364
 4428POPC   C1B56863  40.562  23.619   6.464
 4428POPC   C2B56864  40.584  23.575   6.764
 4428POPC   C3B56865  40.540  23.540   7.064
 4428POPC   C4B56866  40.533  23.568   7.364
 4429POPC   NC356867   2.779  39.209   5.564
 4429POPC   PO456868   2.726  39.250   5.864
 4429POPC   GL156869   2.809  39.204   6.164
 4429POPC   GL256870   2.654  39.299   6.164
 4429POPC   C1A56871   2.736  39.189   6.464
 4429POPC   D2A56872   2.791  39.270   6.764
 4429POPC   C3A56873   2.772  39.263   7.064
 4429POPC   C4A56874   2.801  39.222   7.364
 4429POPC   C1B56875   2.551  39.252   6.464
 4429POPC   C2B56876   2.565  39.285   6.764
 4429POPC   C3B56877   2.569  39.258   7.064
 4429POPC   C4B56878   2.515  39.340   7.364
 4430POPC   NC356879  28.396   6.673   5.564
 4430POPC   PO456880  28.385   6.625   5.864
 4430POPC   GL156881  28.374   6.630   6.164
 4430POPC   GL256882  28.442   6.678   6.164
 4430POPC   C1A56883  28.366   6.681   6.464
 4430POPC   D2A56884  28.406   6.674   6.764
 4430POPC   C3A56885  28.350   6.620   7.064
 4430POPC   C4A56886  28.379   6.634   7.364
 4430POPC   C1B56887  28.637   6.671   6.464
 4430POPC   C2B56888  28.658   6.745   6.764
 4430POPC   C3B56889  28.634   6.698   7.064
 4430POPC   C4B56890  28.595   6.691   7.364
 4431POPC   NC356891  22.924  26.854   5.564
 4431POPC   PO456892  22.910  26.832   5.864
 4431POPC   GL156893  22.961  26.830   6.164
 4431POPC   GL256894  22.886  26.940   6.164
 4431POPC   C1A56895  22.965  26.785   6.464
 4431POPC   D2A56896  22.935  26.842   6.764
 4431POPC   C3A56897  22.940  26.791   7.064
 4431POPC   C4A56898  22.935  26.832   7.364
 4431POPC   C1B56899  22.830  27.058   6.464
 4431POPC   C2B56900  22.877  27.037   6.764
 4431POPC   C3B56901  22.838  27.017   7.064
 4431POPC   C4B56902  22.831  27.105   7.364
 4432POPC   NC356903  25.229  12.073   5.564
 4432POPC   PO456904  25.299  12.059   5.864
 4432POPC   GL156905  25.242  12.073   6.164
 4432POPC   GL256906  25.341  12.179   6.164
 4432POPC   C1A56907  25.221  12.075   6.464
 4432POPC   D2A56908  25.232  12.109   6.764
 4432POPC   C3A56909  25.265  12.065   7.064
 4432POPC   C4A56910  25.242  12.121   7.364
 4432POPC   C1B56911  25.416  12.226   6.464
 4432POPC   C2B56912  25.495  12.208   6.764
 4432POPC   C3B56913  25.450  12.197   7.064
 4432POPC   C4B56914  25.498  12.261   7.364
 4433POPC   NC356915  23.711  29.901   5.564
 4433POPC   PO456916  23.743  29.920   5.864
 4433POPC   GL156917  23.724  29.906   6.164
 4433POPC   GL256918  23.576  29.857   6.164
 4433POPC   C1A56919  23.719  29.915   6.464
 4433POPC   D2A56920  23.736  29.940   6.764
 4433POPC   C3A56921  23.735  29.926   7.064
 4433POPC   C4A56922  23.686  29.928   7.364
 4433POPC   C1B56923  23.533  29.730   6.464
 4433POPC   C2B56924  23.476  29.793   6.764
 4433POPC   C3B56925  23.473  29.757   7.064
 4433POPC   C4B56926  23.531  29.752   7.364
 4434POPC   NC356927   0.483  14.414   5.564
 4434POPC   PO456928   0.420  14.376   5.864
 4434POPC   GL156929   0.478  14.355   6.164
 4434POPC   GL256930   0.312  14.399   6.164
 4434POPC   C1A56931   0.447  14.419   6.464
 4434POPC   D2A56932   0.456  14.416   6.764
 4434POPC   C3A56933   0.395  14.376   7.064
 4434POPC   C4A56934   0.392  14.374   7.364
 4434POPC   C1B56935   0.219  14.393   6.464
 4434POPC   C2B56936   0.153  14.481   6.764
 4434POPC   C3B56937   0.196  14.475   7.064
 4434POPC   C4B56938   0.179  14.426   7.364
 4435POPC   NC356939  20.643  43.915   5.564
 4435POPC   PO456940  20.590  43.842   5.864
 4435POPC   GL156941  20.567  43.851   6.164
 4435POPC   GL256942  20.627  44.014   6.164
 4435POPC   C1A56943  20.600  43.860   6.464
 4435POPC   D2A56944  20.588  43.913   6.764
 4435POPC   C3A56945  20.653  43.865   7.064
 4435POPC   C4A56946  20.567  43.900   7.364
 4435POPC   C1B56947  20.625  44.097   6.464
 4435POPC   C2B56948  20.657  44.085   6.764
 4435POPC   C3B56949  20.637  44.149   7.064
 4435POPC   C4B56950  20.667  44.177   7.364
 4436POPC   NC356951   1.986  12.809   5.564
 4436POPC   PO456952   2.028  12.873   5.864
 4436POPC   GL156953   2.031  12.835   6.164
 4436POPC   GL256954   1.984  12.716   6.164
 4436POPC   C1A56955   2.036  12.844   6.464
 4436POPC   D2A56956   1.963  12.883   6.764
 4436POPC   C3A56957   2.029  12.822   7.064
 4436POPC   C4A56958   2.010  12.821   7.364
 4436POPC   C1B56959   1.976  12.554   6.464
 4436POPC   C2B56960   1.940  12.588   6.764
 4436POPC   C3B56961   1.980  12.586   7.064
 4436POPC   C4B56962   2.002  12.608   7.364
 4437POPC   NC356963   3.574  33.798   5.564
 4437POPC   PO456964   3.564  33.761   5.864
 4437POPC   GL156965   3.570  33.783   6.164
 4437POPC   GL256966   3.409  33.752   6.164
 4437POPC   C1A56967   3.494  33.845   6.464
 4437POPC   D2A56968   3.584  33.779   6.764
 4437POPC   C3A56969   3.506  33.762   7.064
 4437POPC   C4A56970   3.522  33.781   7.364
 4437POPC   C1B56971   3.365  33.716   6.464
 4437POPC   C2B56972   3.318  33.684   6.764
 4437POPC   C3B56973   3.349  33.711   7.064
 4437POPC   C4B56974   3.344  33.680   7.364
 4438POPC   NC356975  42.285  22.128   5.564
 4438POPC   PO456976  42.366  22.200   5.864
 4438POPC   GL156977  42.302  22.181   6.164
 4438POPC   GL256978  42.441  22.081   6.164
 4438POPC   C1A56979  42.342  22.173   6.464
 4438POPC   D2A56980  42.351  22.183   6.764
 4438POPC   C3A56981  42.345  22.191   7.064
 4438POPC   C4A56982  42.378  22.131   7.364
 4438POPC   C1B56983  42.516  21.933   6.464
 4438POPC   C2B56984  42.503  22.007   6.764
 4438POPC   C3B56985  42.487  22.012   7.064
 4438POPC   C4B56986  42.459  22.009   7.364
 4439POPC   NC356987  11.306   9.705   5.564
 4439POPC   PO456988  11.346   9.740   5.864
 4439POPC   GL156989  11.255   9.730   6.164
 4439POPC   GL256990  11.400   9.697   6.164
 4439POPC   C1A56991  11.333   9.736   6.464
 4439POPC   D2A56992  11.272   9.781   6.764
 4439POPC   C3A56993  11.336   9.733   7.064
 4439POPC   C4A56994  11.349   9.741   7.364
 4439POPC   C1B56995  11.571   9.759   6.464
 4439POPC   C2B56996  11.570   9.749   6.764
 4439POPC   C3B56997  11.546   9.692   7.064
 4439POPC   C4B56998  11.588   9.771   7.364
 4440POPC   NC356999  22.178   5.122   5.564
 4440POPC   PO457000  22.170   5.115   5.864
 4440POPC   GL157001  22.141   5.065   6.164
 4440POPC   GL257002  22.140   4.964   6.164
 4440POPC   C1A57003  22.163   5.134   6.464
 4440POPC   D2A57004  22.189   5.104   6.764
 4440POPC   C3A57005  22.117   5.138   7.064
 4440POPC   C4A57006  22.163   5.058   7.364
 4440POPC   C1B57007  22.068   4.835   6.464
 4440POPC   C2B57008  22.097   4.833   6.764
 4440POPC   C3B57009  22.102   4.824   7.064
 4440POPC   C4B57010  22.098   4.883   7.364
 4441POPC   NC357011  40.034  34.614   5.564
 4441POPC   PO457012  40.057  34.540   5.864
 4441POPC   GL157013  39.973  34.532   6.164
 4441POPC   GL257014  40.093  34.488   6.164
 4441POPC   C1A57015  40.012  34.604   6.464
 4441POPC   D2A57016  40.003  34.608   6.764
 4441POPC   C3A57017  40.027  34.620   7.064
 4441POPC   C4A57018  40.013  34.583   7.364
 4441POPC   C1B57019  40.213  34.492   6.464
 4441POPC   C2B57020  40.273  34.486   6.764
 4441POPC   C3B57021  40.221  34.482   7.064
 4441POPC   C4B57022  40.247  34.460   7.364
 4442POPC   NC357023  30.728  22.952   5.564
 4442POPC   PO457024  30.739  22.929   5.864
 4442POPC   GL157025  30.701  22.928   6.164
 4442POPC   GL257026  30.799  22.984   6.164
 4442POPC   C1A57027  30.737  22.889   6.464
 4442POPC   D2A57028  30.735  22.948   6.764
 4442POPC   C3A57029  30.706  22.948   7.064
 4442POPC   C4A57030  30.648  22.950   7.364
 4442POPC   C1B57031  30.920  23.087   6.464
 4442POPC   C2B57032  30.843  23.138   6.764
 4442POPC   C3B57033  30.906  23.136   7.064
 4442POPC   C4B57034  30.838  23.140   7.364
 4443POPC   NC357035  22.136  22.949   5.564
 4443POPC   PO457036  22.134  22.931   5.864
 4443POPC   GL157037  22.160  22.964   6.164
 4443POPC   GL257038  22.312  22.918   6.164
 4443POPC   C1A57039  22.132  22.898   6.464
 4443POPC   D2A57040  22.114  22.915   6.764
 4443POPC   C3A57041  22.169  22.924   7.064
 4443POPC   C4A57042  22.134  22.894   7.364
 4443POPC   C1B57043  22.385  22.912   6.464
 4443POPC   C2B57044  22.402  23.000   6.764
 4443POPC   C3B57045  22.457  22.956   7.064
 4443POPC   C4B57046  22.373  22.961   7.364
 4444POPC   NC357047  38.446  40.031   5.564
 4444POPC   PO457048  38.453  40.010   5.864
 4444POPC   GL157049  38.490  40.056   6.164
 4444POPC   GL257050  38.350  39.926   6.164
 4444POPC   C1A57051  38.456  40.021   6.464
 4444POPC   D2A57052  38.467  40.016   6.764
 4444POPC   C3A57053  38.471  40.020   7.064
 4444POPC   C4A57054  38.473  40.009   7.364
 4444POPC   C1B57055  38.257  39.854   6.464
 4444POPC   C2B57056  38.212  39.911   6.764
 4444POPC   C3B57057  38.251  39.938   7.064
 4444POPC   C4B57058  38.252  39.907   7.364
 4445POPC   NC357059  17.512   3.503   5.564
 4445POPC   PO457060  17.483   3.583   5.864
 4445POPC   GL157061  17.517   3.569   6.164
 4445POPC   GL257062  17.532   3.592   6.164
 4445POPC   C1A57063  17.464   3.536   6.464
 4445POPC   D2A57064  17.552   3.537   6.764
 4445POPC   C3A57065  17.533   3.584   7.064
 4445POPC   C4A57066  17.472   3.540   7.364
 4445POPC   C1B57067  17.661   3.713   6.464
 4445POPC   C2B57068  17.635   3.747   6.764
 4445POPC   C3B57069  17.674   3.773   7.064
 4445POPC   C4B57070  17.699   3.724   7.364
 4446POPC   NC357071  16.725  25.250   5.564
 4446POPC   PO457072  16.705  25.292   5.864
 4446POPC   GL157073  16.685  25.240   6.164
 4446POPC   GL257074  16.680  25.399   6.164
 4446POPC   C1A57075  16.698  25.254   6.464
 4446POPC   D2A57076  16.756  25.227   6.764
 4446POPC   C3A57077  16.768  25.238   7.064
 4446POPC   C4A57078  16.698  25.265   7.364
 4446POPC   C1B57079  16.677  25.550   6.464
 4446POPC   C2B57080  16.614  25.472   6.764
 4446POPC   C3B57081  16.673  25.476   7.064
 4446POPC   C4B57082  16.650  25.456   7.364
 4447POPC   NC357083  36.088  36.935   5.564
 4447POPC   PO457084  36.101  36.952   5.864
 4447POPC   GL157085  36.156  36.876   6.164
 4447POPC   GL257086  36.233  36.926   6.164
 4447POPC   C1A57087  36.111  36.935   6.464
 4447POPC   D2A57088  36.111  36.919   6.764
 4447POPC   C3A57089  36.086  36.923   7.064
 4447POPC   C4A57090  36.165  36.864   7.364
 4447POPC   C1B57091  36.402  36.980   6.464
 4447POPC   C2B57092  36.367  36.998   6.764
 4447POPC   C3B57093  36.326  36.989   7.064
 4447POPC   C4B57094  36.391  37.022   7.364
 4448POPC   NC357095  41.607  34.601   5.564
 4448POPC   PO457096  41.515  34.600   5.864
 4448POPC   GL157097  41.546  34.571   6.164
 4448POPC   GL257098  41.663  34.651   6.164
 4448POPC   C1A57099  41.599  34.541   6.464
 4448POPC   D2A57100  41.566  34.565   6.764
 4448POPC   C3A57101  41.597  34.607   7.064
 4448POPC   C4A57102  41.545  34.569   7.364
 4448POPC   C1B57103  41.773  34.702   6.464
 4448POPC   C2B57104  41.789  34.773   6.764
 4448POPC   C3B57105  41.710  34.694   7.064
 4448POPC   C4B57106  41.740  34.762   7.364
 4449POPC   NC357107  36.918  20.581   5.564
 4449POPC   PO457108  36.860  20.606   5.864
 4449POPC   GL157109  36.948  20.660   6.164
 4449POPC   GL257110  36.772  20.732   6.164
 4449POPC   C1A57111  36.898  20.566   6.464
 4449POPC   D2A57112  36.910  20.573   6.764
 4449POPC   C3A57113  36.888  20.581   7.064
 4449POPC   C4A57114  36.910  20.635   7.364
 4449POPC   C1B57115  36.787  20.764   6.464
 4449POPC   C2B57116  36.785  20.809   6.764
 4449POPC   C3B57117  36.699  20.776   7.064
 4449POPC   C4B57118  36.710  20.805   7.364
 4450POPC   NC357119   4.355  19.842   5.564
 4450POPC   PO457120   4.349  19.861   5.864
 4450POPC   GL157121   4.328  19.853   6.164
 4450POPC   GL257122   4.326  19.744   6.164
 4450POPC   C1A57123   4.312  19.875   6.464
 4450POPC   D2A57124   4.301  19.790   6.764
 4450POPC   C3A57125   4.279  19.813   7.064
 4450POPC   C4A57126   4.359  19.865   7.364
 4450POPC   C1B57127   4.374  19.562   6.464
 4450POPC   C2B57128   4.412  19.560   6.764
 4450POPC   C3B57129   4.336  19.571   7.064
 4450POPC   C4B57130   4.419  19.576   7.364
 4451POPC   NC357131  22.192  30.699   5.564
 4451POPC   PO457132  22.149  30.746   5.864
 4451POPC   GL157133  22.171  30.659   6.164
 4451POPC   GL257134  22.323  30.737   6.164
 4451POPC   C1A57135  22.139  30.744   6.464
 4451POPC   D2A57136  22.148  30.727   6.764
 4451POPC   C3A57137  22.124  30.713   7.064
 4451POPC   C4A57138  22.174  30.735   7.364
 4451POPC   C1B57139  22.422  30.835   6.464
 4451POPC   C2B57140  22.394  30.771   6.764
 4451POPC   C3B57141  22.399  30.772   7.064
 4451POPC   C4B57142  22.432  30.767   7.364
 4452POPC   NC357143  13.584   9.787   5.564
 4452POPC   PO457144  13.659   9.772   5.864
 4452POPC   GL157145  13.668   9.783   6.164
 4452POPC   GL257146  13.695   9.676   6.164
 4452POPC   C1A57147  13.615   9.764   6.464
 4452POPC   D2A57148  13.631   9.786   6.764
 4452POPC   C3A57149  13.647   9.780   7.064
 4452POPC   C4A57150  13.665   9.712   7.364
 4452POPC   C1B57151  13.867   9.592   6.464
 4452POPC   C2B57152  13.852   9.624   6.764
 4452POPC   C3B57153  13.812   9.626   7.064
 4452POPC   C4B57154  13.847   9.603   7.364
 4453POPC   NC357155  44.632  29.172   5.564
 4453POPC   PO457156  44.656  29.151   5.864
 4453POPC   GL157157  44.708  29.104   6.164
 4453POPC   GL257158  44.803  29.188   6.164
 4453POPC   C1A57159  44.658  29.155   6.464
 4453POPC   D2A57160  44.650  29.115   6.764
 4453POPC   C3A57161  44.674  29.121   7.064
 4453POPC   C4A57162  44.635  29.119   7.364
 4453POPC   C1B57163  44.956  29.087   6.464
 4453POPC   C2B57164  44.902  29.135   6.764
 4453POPC   C3B57165  44.960  29.149   7.064
 4453POPC   C4B57166  44.950  29.105   7.364
 4454POPC   NC357167  22.897  19.043   5.564
 4454POPC   PO457168  22.986  19.079   5.864
 4454POPC   GL157169  22.951  19.044   6.164
 4454POPC   GL257170  22.908  18.957   6.164
 4454POPC   C1A57171  22.957  19.039   6.464
 4454POPC   D2A57172  22.981  19.045   6.764
 4454POPC   C3A57173  22.982  19.035   7.064
 4454POPC   C4A57174  22.942  19.045   7.364
 4454POPC   C1B57175  22.874  18.793   6.464
 4454POPC   C2B57176  22.794  18.800   6.764
 4454POPC   C3B57177  22.823  18.862   7.064
 4454POPC   C4B57178  22.788  18.795   7.364
 4455POPC   NC357179  29.168  29.120   5.564
 4455POPC   PO457180  29.190  29.144   5.864
 4455POPC   GL157181  29.107  29.105   6.164
 4455POPC   GL257182  29.020  29.191   6.164
 4455POPC   C1A57183  29.106  29.142   6.464
 4455POPC   D2A57184  29.126  29.183   6.764
 4455POPC   C3A57185  29.141  29.157   7.064
 4455POPC   C4A57186  29.145  29.099   7.364
 4455POPC   C1B57187  28.940  29.181   6.464
 4455POPC   C2B57188  28.922  29.233   6.764
 4455POPC   C3B57189  28.938  29.141   7.064
 4455POPC   C4B57190  28.936  29.155   7.364
 4456POPC   NC357191  14.445   2.757   5.564
 4456POPC   PO457192  14.444   2.803   5.864
 4456POPC   GL157193  14.381   2.761   6.164
 4456POPC   GL257194  14.379   2.663   6.164
 4456POPC   C1A57195  14.359   2.737   6.464
 4456POPC   D2A57196  14.393   2.773   6.764
 4456POPC   C3A57197  14.393   2.771   7.064
 4456POPC   C4A57198  14.374   2.721   7.364
 4456POPC   C1B57199  14.297   2.558   6.464
 4456POPC   C2B57200  14.264   2.558   6.764
 4456POPC   C3B57201  14.244   2.563   7.064
 4456POPC   C4B57202  14.331   2.546   7.364
 4457POPC   NC357203   3.582  44.648   5.564
 4457POPC   PO457204   3.558  44.674   5.864
 4457POPC   GL157205   3.536  44.615   6.164
 4457POPC   GL257206   3.645  44.701   6.164
 4457POPC   C1A57207   3.567  44.650   6.464
 4457POPC   D2A57208   3.556  44.657   6.764
 4457POPC   C3A57209   3.497  44.681   7.064
 4457POPC   C4A57210   3.577  44.618   7.364
 4457POPC   C1B57211   3.755  44.689   6.464
 4457POPC   C2B57212   3.742  44.632   6.764
 4457POPC   C3B57213   3.836  44.607   7.064
 4457POPC   C4B57214   3.818  44.661   7.364
 4458POPC   NC357215  41.560  27.597   5.564
 4458POPC   PO457216  41.520  27.635   5.864
 4458POPC   GL157217  41.547  27.640   6.164
 4458POPC   GL257218  41.474  27.620   6.164
 4458POPC   C1A57219  41.588  27.613   6.464
 4458POPC   D2A57220  41.515  27.589   6.764
 4458POPC   C3A57221  41.604  27.619   7.064
 4458POPC   C4A57222  41.578  27.594   7.364
 4458POPC   C1B57223  41.283  27.664   6.464
 4458POPC   C2B57224  41.269  27.609   6.764
 4458POPC   C3B57225  41.343  27.686   7.064
 4458POPC   C4B57226  41.303  27.615   7.364
 4459POPC   NC357227  26.790  36.102   5.564
 4459POPC   PO457228  26.835  36.097   5.864
 4459POPC   GL157229  26.837  36.104   6.164
 4459POPC   GL257230  26.796  36.268   6.164
 4459POPC   C1A57231  26.855  36.111   6.464
 4459POPC   D2A57232  26.864  36.108   6.764
 4459POPC   C3A57233  26.800  36.088   7.064
 4459POPC   C4A57234  26.772  36.112   7.364
 4459POPC   C1B57235  26.887  36.329   6.464
 4459POPC   C2B57236  26.817  36.405   6.764
 4459POPC   C3B57237  26.811  36.394   7.064
 4459POPC   C4B57238  26.836  36.359   7.364
 4460POPC   NC357239  27.604  41.514   5.564
 4460POPC   PO457240  27.602  41.575   5.864
 4460POPC   GL157241  27.558  41.569   6.164
 4460POPC   GL257242  27.498  41.591   6.164
 4460POPC   C1A57243  27.586  41.511   6.464
 4460POPC   D2A57244  27.561  41.608   6.764
 4460POPC   C3A57245  27.625  41.544   7.064
 4460POPC   C4A57246  27.601  41.590   7.364
 4460POPC   C1B57247  27.362  41.537   6.464
 4460POPC   C2B57248  27.333  41.604   6.764
 4460POPC   C3B57249  27.370  41.540   7.064
 4460POPC   C4B57250  27.346  41.539   7.364
 4461POPC   NC357251  22.161  12.039   5.564
 4461POPC   PO457252  22.189  12.076   5.864
 4461POPC   GL157253  22.153  12.082   6.164
 4461POPC   GL257254  22.263  12.126   6.164
 4461POPC   C1A57255  22.184  12.067   6.464
 4461POPC   D2A57256  22.194  12.103   6.764
 4461POPC   C3A57257  22.117  12.113   7.064
 4461POPC   C4A57258  22.195  12.092   7.364
 4461POPC   C1B57259  22.409  12.187   6.464
 4461POPC   C2B57260  22.397  12.248   6.764
 4461POPC   C3B57261  22.397  12.250   7.064
 4461POPC   C4B57262  22.381  12.187   7.364
 4462POPC   NC357263  15.209  13.626   5.564
 4462POPC   PO457264  15.140  13.607   5.864
 4462POPC   GL157265  15.158  13.676   6.164
 4462POPC   GL257266  15.086  13.688   6.164
 4462POPC   C1A57267  15.189  13.581   6.464
 4462POPC   D2A57268  15.131  13.583   6.764
 4462POPC   C3A57269  15.144  13.647   7.064
 4462POPC   C4A57270  15.157  13.656   7.364
 4462POPC   C1B57271  15.016  13.793   6.464
 4462POPC   C2B57272  15.046  13.839   6.764
 4462POPC   C3B57273  15.015  13.814   7.064
 4462POPC   C4B57274  15.086  13.887   7.364
 4463POPC   NC357275  26.081   1.204   5.564
 4463POPC   PO457276  26.007   1.227   5.864
 4463POPC   GL157277  26.080   1.234   6.164
 4463POPC   GL257278  26.058   1.355   6.164
 4463POPC   C1A57279  25.992   1.224   6.464
 4463POPC   D2A57280  26.039   1.247   6.764
 4463POPC   C3A57281  26.010   1.170   7.064
 4463POPC   C4A57282  26.091   1.251   7.364
 4463POPC   C1B57283  26.043   1.498   6.464
 4463POPC   C2B57284  26.048   1.432   6.764
 4463POPC   C3B57285  25.983   1.444   7.064
 4463POPC   C4B57286  26.016   1.484   7.364
 4464POPC   NC357287  32.232  43.067   5.564
 4464POPC   PO457288  32.208  43.086   5.864
 4464POPC   GL157289  32.223  43.116   6.164
 4464POPC   GL257290  32.319  43.264   6.164
 4464POPC   C1A57291  32.233  43.062   6.464
 4464POPC   D2A57292  32.271  43.087   6.764
 4464POPC   C3A57293  32.241  43.088   7.064
 4464POPC   C4A57294  32.213  43.062   7.364
 4464POPC   C1B57295  32.298  43.384   6.464
 4464POPC   C2B57296  32.364  43.327   6.764
 4464POPC   C3B57297  32.319  43.323   7.064
 4464POPC   C4B57298  32.284  43.359   7.364
 4465POPC   NC357299  32.224  10.568   5.564
 4465POPC   PO457300  32.244  10.562   5.864
 4465POPC   GL157301  32.283  10.497   6.164
 4465POPC   GL257302  32.174  10.510   6.164
 4465POPC   C1A57303  32.214  10.541   6.464
 4465POPC   D2A57304  32.292  10.485   6.764
 4465POPC   C3A57305  32.210  10.492   7.064
 4465POPC   C4A57306  32.247  10.497   7.364
 4465POPC   C1B57307  32.019  10.441   6.464
 4465POPC   C2B57308  31.994  10.456   6.764
 4465POPC   C3B57309  32.031  10.449   7.064
 4465POPC   C4B57310  32.010  10.391   7.364
 4466POPC   NC357311  22.980  24.519   5.564
 4466POPC   PO457312  22.944  24.458   5.864
 4466POPC   GL157313  22.939  24.458   6.164
 4466POPC   GL257314  22.990  24.586   6.164
 4466POPC   C1A57315  22.955  24.521   6.464
 4466POPC   D2A57316  22.897  24.446   6.764
 4466POPC   C3A57317  22.932  24.492   7.064
 4466POPC   C4A57318  22.921  24.516   7.364
 4466POPC   C1B57319  22.957  24.689   6.464
 4466POPC   C2B57320  22.980  24.744   6.764
 4466POPC   C3B57321  22.945  24.766   7.064
 4466POPC   C4B57322  22.956  24.701   7.364
 4467POPC   NC357323  37.630  28.348   5.564
 4467POPC   PO457324  37.723  28.344   5.864
 4467POPC   GL157325  37.631  28.354   6.164
 4467POPC   GL257326  37.646  28.259   6.164
 4467POPC   C1A57327  37.712  28.349   6.464
 4467POPC   D2A57328  37.722  28.406   6.764
 4467POPC   C3A57329  37.690  28.393   7.064
 4467POPC   C4A57330  37.653  28.363   7.364
 4467POPC   C1B57331  37.667  28.117   6.464
 4467POPC   C2B57332  37.686  28.077   6.764
 4467POPC   C3B57333  37.712  28.130   7.064
 4467POPC   C4B57334  37.674  28.163   7.364
 4468POPC   NC357335   8.935  43.127   5.564
 4468POPC   PO457336   8.960  43.084   5.864
 4468POPC   GL157337   8.930  43.111   6.164
 4468POPC   GL257338   8.981  43.258   6.164
 4468POPC   C1A57339   8.988  43.091   6.464
 4468POPC   D2A57340   8.981  43.069   6.764
 4468POPC   C3A57341   8.932  43.084   7.064
 4468POPC   C4A57342   8.942  43.130   7.364
 4468POPC   C1B57343   9.057  43.379   6.464
 4468POPC   C2B57344   9.055  43.402   6.764
 4468POPC   C3B57345   8.985  43.351   7.064
 4468POPC   C4B57346   9.042  43.392   7.364
 4469POPC   NC357347  20.571  27.626   5.564
 4469POPC   PO457348  20.591  27.642   5.864
 4469POPC   GL157349  20.613  27.549   6.164
 4469POPC   GL257350  20.669  27.703   6.164
 4469POPC   C1A57351  20.616  27.599   6.464
 4469POPC   D2A57352  20.560  27.588   6.764
 4469POPC   C3A57353  20.639  27.600   7.064
 4469POPC   C4A57354  20.646  27.577   7.364
 4469POPC   C1B57355  20.697  27.766   6.464
 4469POPC   C2B57356  20.696  27.848   6.764
 4469POPC   C3B57357  20.765  27.785   7.064
 4469POPC   C4B57358  20.753  27.794   7.364
 4470POPC   NC357359  20.628  38.497   5.564
 4470POPC   PO457360  20.588  38.473   5.864
 4470POPC   GL157361  20.595  38.414   6.164
 4470POPC   GL257362  20.496  38.342   6.164
 4470POPC   C1A57363  20.607  38.429   6.464
 4470POPC   D2A57364  20.605  38.463   6.764
 4470POPC   C3A57365  20.624  38.491   7.064
 4470POPC   C4A57366  20.632  38.411   7.364
 4470POPC   C1B57367  20.408  38.242   6.464
 4470POPC   C2B57368  20.420  38.307   6.764
 4470POPC   C3B57369  20.405  38.222   7.064
 4470POPC   C4B57370  20.486  38.273   7.364
 4471POPC   NC357371   6.629  11.281   5.564
 4471POPC   PO457372   6.646  11.318   5.864
 4471POPC   GL157373   6.645  11.269   6.164
 4471POPC   GL257374   6.597  11.363   6.164
 4471POPC   C1A57375   6.615  11.321   6.464
 4471POPC   D2A57376   6.610  11.257   6.764
 4471POPC   C3A57377   6.605  11.265   7.064
 4471POPC   C4A57378   6.694  11.261   7.364
 4471POPC   C1B57379   6.468  11.477   6.464
 4471POPC   C2B57380   6.491  11.503   6.764
 4471POPC   C3B57381   6.439  11.454   7.064
 4471POPC   C4B57382   6.426  11.486   7.364
 4472POPC   NC357383  43.914   3.493   5.564
 4472POPC   PO457384  43.923   3.569   5.864
 4472POPC   GL157385  43.851   3.514   6.164
 4472POPC   GL257386  43.878   3.392   6.164
 4472POPC   C1A57387  43.844   3.545   6.464
 4472POPC   D2A57388  43.892   3.511   6.764
 4472POPC   C3A57389  43.891   3.493   7.064
 4472POPC   C4A57390  43.864   3.588   7.364
 4472POPC   C1B57391  43.904   3.308   6.464
 4472POPC   C2B57392  43.893   3.300   6.764
 4472POPC   C3B57393  43.899   3.252   7.064
 4472POPC   C4B57394  43.854   3.285   7.364
 4473POPC   NC357395  15.174  31.503   5.564
 4473POPC   PO457396  15.210  31.436   5.864
 4473POPC   GL157397  15.170  31.464   6.164
 4473POPC   GL257398  15.280  31.405   6.164
 4473POPC   C1A57399  15.202  31.425   6.464
 4473POPC   D2A57400  15.198  31.429   6.764
 4473POPC   C3A57401  15.224  31.509   7.064
 4473POPC   C4A57402  15.170  31.449   7.364
 4473POPC   C1B57403  15.304  31.234   6.464
 4473POPC   C2B57404  15.273  31.282   6.764
 4473POPC   C3B57405  15.247  31.254   7.064
 4473POPC   C4B57406  15.282  31.255   7.364
 4474POPC   NC357407   2.015   5.892   5.564
 4474POPC   PO457408   1.999   5.899   5.864
 4474POPC   GL157409   1.948   5.884   6.164
 4474POPC   GL257410   1.839   5.855   6.164
 4474POPC   C1A57411   1.950   5.821   6.464
 4474POPC   D2A57412   2.006   5.912   6.764
 4474POPC   C3A57413   1.987   5.842   7.064
 4474POPC   C4A57414   2.026   5.855   7.364
 4474POPC   C1B57415   1.805   5.785   6.464
 4474POPC   C2B57416   1.719   5.808   6.764
 4474POPC   C3B57417   1.752   5.822   7.064
 4474POPC   C4B57418   1.796   5.741   7.364
 4475POPC   NC357419  30.704  44.711   5.564
 4475POPC   PO457420  30.670  44.626   5.864
 4475POPC   GL157421  30.653  44.621   6.164
 4475POPC   GL257422  30.791  44.700   6.164
 4475POPC   C1A57423  30.697  44.653   6.464
 4475POPC   D2A57424  30.680  44.649   6.764
 4475POPC   C3A57425  30.721  44.624   7.064
 4475POPC   C4A57426  30.723  44.671   7.364
 4475POPC   C1B57427  30.956  44.631   6.464
 4475POPC   C2B57428  30.924  44.662   6.764
 4475POPC   C3B57429  30.949  44.609   7.064
 4475POPC   C4B57430  30.940  44.695   7.364
 4476POPC   NC357431  37.646   0.481   5.564
 4476POPC   PO457432  37.638   0.469   5.864
 4476POPC   GL157433  37.712   0.421   6.164
 4476POPC   GL257434  37.725   0.559   6.164
 4476POPC   C1A57435  37.673   0.401   6.464
 4476POPC   D2A57436  37.729   0.432   6.764
 4476POPC   C3A57437  37.672   0.445   7.064
 4476POPC   C4A57438  37.722   0.433   7.364
 4476POPC   C1B57439  37.737   0.650   6.464
 4476POPC   C2B57440  37.784   0.695   6.764
 4476POPC   C3B57441  37.743   0.687   7.064
 4476POPC   C4B57442  37.726   0.712   7.364
 4477POPC   NC357443  20.572  41.523   5.564
 4477POPC   PO457444  20.608  41.589   5.864
 4477POPC   GL157445  20.646  41.559   6.164
 4477POPC   GL257446  20.452  41.603   6.164
 4477POPC   C1A57447  20.602  41.537   6.464
 4477POPC   D2A57448  20.645  41.590   6.764
 4477POPC   C3A57449  20.640  41.545   7.064
 4477POPC   C4A57450  20.590  41.548   7.364
 4477POPC   C1B57451  20.400  41.647   6.464
 4477POPC   C2B57452  20.410  41.602   6.764
 4477POPC   C3B57453  20.367  41.636   7.064
 4477POPC   C4B57454  20.395  41.664   7.364
 4478POPC   NC357455  32.992  36.085   5.564
 4478POPC   PO457456  33.071  36.124   5.864
 4478POPC   GL157457  33.053  36.136   6.164
 4478POPC   GL257458  33.082  36.004   6.164
 4478POPC   C1A57459  33.044  36.146   6.464
 4478POPC   D2A57460  33.013  36.109   6.764
 4478POPC   C3A57461  32.991  36.101   7.064
 4478POPC   C4A57462  33.068  36.113   7.364
 4478POPC   C1B57463  33.207  35.898   6.464
 4478POPC   C2B57464  33.193  35.944   6.764
 4478POPC   C3B57465  33.168  35.940   7.064
 4478POPC   C4B57466  33.183  35.933   7.364
 4479POPC   NC357467  36.113  12.897   5.564
 4479POPC   PO457468  36.081  12.868   5.864
 4479POPC   GL157469  36.132  12.853   6.164
 4479POPC   GL257470  36.070  12.991   6.164
 4479POPC   C1A57471  36.081  12.873   6.464
 4479POPC   D2A57472  36.145  12.862   6.764
 4479POPC   C3A57473  36.144  12.835   7.064
 4479POPC   C4A57474  36.157  12.856   7.364
 4479POPC   C1B57475  36.053  13.073   6.464
 4479POPC   C2B57476  36.039  13.067   6.764
 4479POPC   C3B57477  36.054  13.057   7.064
 4479POPC   C4B57478  36.048  13.107   7.364
 4480POPC   NC357479  31.436   0.457   5.564
 4480POPC   PO457480  31.430   0.422   5.864
 4480POPC   GL157481  31.514   0.459   6.164
 4480POPC   GL257482  31.375   0.496   6.164
 4480POPC   C1A57483  31.486   0.472   6.464
 4480POPC   D2A57484  31.500   0.417   6.764
 4480POPC   C3A57485  31.460   0.474   7.064
 4480POPC   C4A57486  31.468   0.469   7.364
 4480POPC   C1B57487  31.277   0.579   6.464
 4480POPC   C2B57488  31.323   0.594   6.764
 4480POPC   C3B57489  31.309   0.618   7.064
 4480POPC   C4B57490  31.340   0.594   7.364
 4481POPC   NC357491  15.991  43.131   5.564
 4481POPC   PO457492  15.932  43.076   5.864
 4481POPC   GL157493  15.924  43.155   6.164
 4481POPC   GL257494  16.003  42.991   6.164
 4481POPC   C1A57495  15.998  43.077   6.464
 4481POPC   D2A57496  15.909  43.105   6.764
 4481POPC   C3A57497  15.918  43.112   7.064
 4481POPC   C4A57498  15.971  43.076   7.364
 4481POPC   C1B57499  16.045  42.886   6.464
 4481POPC   C2B57500  16.022  42.913   6.764
 4481POPC   C3B57501  15.999  42.873   7.064
 4481POPC   C4B57502  15.979  42.881   7.364
 4482POPC   NC357503  41.534  29.118   5.564
 4482POPC   PO457504  41.539  29.126   5.864
 4482POPC   GL157505  41.555  29.134   6.164
 4482POPC   GL257506  41.705  29.226   6.164
 4482POPC   C1A57507  41.575  29.125   6.464
 4482POPC   D2A57508  41.584  29.112   6.764
 4482POPC   C3A57509  41.532  29.102   7.064
 4482POPC   C4A57510  41.608  29.134   7.364
 4482POPC   C1B57511  41.783  29.253   6.464
 4482POPC   C2B57512  41.773  29.290   6.764
 4482POPC   C3B57513  41.762  29.307   7.064
 4482POPC   C4B57514  41.717  29.303   7.364
 4483POPC   NC357515  35.388  19.827   5.564
 4483POPC   PO457516  35.327  19.836   5.864
 4483POPC   GL157517  35.347  19.827   6.164
 4483POPC   GL257518  35.455  19.859   6.164
 4483POPC   C1A57519  35.396  19.877   6.464
 4483POPC   D2A57520  35.362  19.797   6.764
 4483POPC   C3A57521  35.376  19.881   7.064
 4483POPC   C4A57522  35.335  19.844   7.364
 4483POPC   C1B57523  35.566  19.942   6.464
 4483POPC   C2B57524  35.589  19.969   6.764
 4483POPC   C3B57525  35.514  20.010   7.064
 4483POPC   C4B57526  35.612  20.012   7.364
 4484POPC   NC357527  17.524  19.813   5.564
 4484POPC   PO457528  17.496  19.798   5.864
 4484POPC   GL157529  17.524  19.792   6.164
 4484POPC   GL257530  17.651  19.878   6.164
 4484POPC   C1A57531  17.506  19.856   6.464
 4484POPC   D2A57532  17.550  19.823   6.764
 4484POPC   C3A57533  17.477  19.811   7.064
 4484POPC   C4A57534  17.480  19.867   7.364
 4484POPC   C1B57535  17.681  19.950   6.464
 4484POPC   C2B57536  17.759  19.939   6.764
 4484POPC   C3B57537  17.760  19.996   7.064
 4484POPC   C4B57538  17.712  19.974   7.364
 4485POPC   NC357539   2.026   9.789   5.564
 4485POPC   PO457540   1.952   9.763   5.864
 4485POPC   GL157541   1.964   9.724   6.164
 4485POPC   GL257542   1.898   9.676   6.164
 4485POPC   C1A57543   2.011   9.794   6.464
 4485POPC   D2A57544   1.995   9.798   6.764
 4485POPC   C3A57545   2.036   9.772   7.064
 4485POPC   C4A57546   1.960   9.772   7.364
 4485POPC   C1B57547   1.767   9.665   6.464
 4485POPC   C2B57548   1.812   9.633   6.764
 4485POPC   C3B57549   1.748   9.632   7.064
 4485POPC   C4B57550   1.813   9.635   7.364
 4486POPC   NC357551  19.858  36.875   5.564
 4486POPC   PO457552  19.849  36.940   5.864
 4486POPC   GL157553  19.800  36.909   6.164
 4486POPC   GL257554  19.971  36.889   6.164
 4486POPC   C1A57555  19.827  36.897   6.464
 4486POPC   D2A57556  19.855  36.953   6.764
 4486POPC   C3A57557  19.836  36.915   7.064
 4486POPC   C4A57558  19.872  36.894   7.364
 4486POPC   C1B57559  20.102  36.773   6.464
 4486POPC   C2B57560  20.081  36.772   6.764
 4486POPC   C3B57561  20.119  36.864   7.064
 4486POPC   C4B57562  20.114  36.844   7.364
 4487POPC   NC357563  33.750  20.659   5.564
 4487POPC   PO457564  33.758  20.611   5.864
 4487POPC   GL157565  33.776  20.638   6.164
 4487POPC   GL257566  33.789  20.747   6.164
 4487POPC   C1A57567  33.808  20.583   6.464
 4487POPC   D2A57568  33.839  20.561   6.764
 4487POPC   C3A57569  33.803  20.642   7.064
 4487POPC   C4A57570  33.817  20.616   7.364
 4487POPC   C1B57571  33.739  20.868   6.464
 4487POPC   C2B57572  33.744  20.848   6.764
 4487POPC   C3B57573  33.708  20.857   7.064
 4487POPC   C4B57574  33.712  20.837   7.364
 4488POPC   NC357575  12.897  41.576   5.564
 4488POPC   PO457576  12.851  41.525   5.864
 4488POPC   GL157577  12.827  41.572   6.164
 4488POPC   GL257578  12.751  41.662   6.164
 4488POPC   C1A57579  12.894  41.579   6.464
 4488POPC   D2A57580  12.846  41.512   6.764
 4488POPC   C3A57581  12.900  41.601   7.064
 4488POPC   C4A57582  12.875  41.541   7.364
 4488POPC   C1B57583  12.698  41.712   6.464
 4488POPC   C2B57584  12.654  41.684   6.764
 4488POPC   C3B57585  12.626  41.668   7.064
 4488POPC   C4B57586  12.616  41.719   7.364
 4489POPC   NC357587  10.570  29.123   5.564
 4489POPC   PO457588  10.568  29.171   5.864
 4489POPC   GL157589  10.553  29.170   6.164
 4489POPC   GL257590  10.491  28.973   6.164
 4489POPC   C1A57591  10.559  29.195   6.464
 4489POPC   D2A57592  10.494  29.164   6.764
 4489POPC   C3A57593  10.484  29.179   7.064
 4489POPC   C4A57594  10.535  29.186   7.364
 4489POPC   C1B57595  10.526  28.849   6.464
 4489POPC   C2B57596  10.517  28.944   6.764
 4489POPC   C3B57597  10.468  28.882   7.064
 4489POPC   C4B57598  10.523  28.893   7.364
 4490POPC   NC357599  36.119  42.353   5.564
 4490POPC   PO457600  36.129  42.345   5.864
 4490POPC   GL157601  36.146  42.315   6.164
 4490POPC   GL257602  36.267  42.286   6.164
 4490POPC   C1A57603  36.105  42.367   6.464
 4490POPC   D2A57604  36.087  42.289   6.764
 4490POPC   C3A57605  36.160  42.348   7.064
 4490POPC   C4A57606  36.175  42.292   7.364
 4490POPC   C1B57607  36.315  42.238   6.464
 4490POPC   C2B57608  36.373  42.248   6.764
 4490POPC   C3B57609  36.302  42.243   7.064
 4490POPC   C4B57610  36.324  42.200   7.364
 4491POPC   NC357611  15.151  11.320   5.564
 4491POPC   PO457612  15.137  11.307   5.864
 4491POPC   GL157613  15.229  11.293   6.164
 4491POPC   GL257614  15.097  11.182   6.164
 4491POPC   C1A57615  15.138  11.271   6.464
 4491POPC   D2A57616  15.223  11.350   6.764
 4491POPC   C3A57617  15.187  11.270   7.064
 4491POPC   C4A57618  15.208  11.303   7.364
 4491POPC   C1B57619  14.969  11.107   6.464
 4491POPC   C2B57620  14.957  11.175   6.764
 4491POPC   C3B57621  15.011  11.188   7.064
 4491POPC   C4B57622  14.950  11.103   7.364
 4492POPC   NC357623  44.640  33.030   5.564
 4492POPC   PO457624  44.692  33.065   5.864
 4492POPC   GL157625  44.691  33.069   6.164
 4492POPC   GL257626  44.521  32.942   6.164
 4492POPC   C1A57627  44.621  33.056   6.464
 4492POPC   D2A57628  44.673  33.005   6.764
 4492POPC   C3A57629  44.658  33.012   7.064
 4492POPC   C4A57630  44.671  33.069   7.364
 4492POPC   C1B57631  44.488  32.843   6.464
 4492POPC   C2B57632  44.467  32.826   6.764
 4492POPC   C3B57633  44.467  32.879   7.064
 4492POPC   C4B57634  44.471  32.845   7.364
 4493POPC   NC357635   1.222   2.757   5.564
 4493POPC   PO457636   1.168   2.808   5.864
 4493POPC   GL157637   1.168   2.814   6.164
 4493POPC   GL257638   1.110   2.706   6.164
 4493POPC   C1A57639   1.205   2.741   6.464
 4493POPC   D2A57640   1.167   2.810   6.764
 4493POPC   C3A57641   1.201   2.728   7.064
 4493POPC   C4A57642   1.243   2.786   7.364
 4493POPC   C1B57643   0.979   2.698   6.464
 4493POPC   C2B57644   1.016   2.752   6.764
 4493POPC   C3B57645   0.961   2.697   7.064
 4493POPC   C4B57646   1.021   2.679   7.364
 4494POPC   NC357647  12.878  37.639   5.564
 4494POPC   PO457648  12.825  37.641   5.864
 4494POPC   GL157649  12.863  37.659   6.164
 4494POPC   GL257650  12.980  37.697   6.164
 4494POPC   C1A57651  12.816  37.684   6.464
 4494POPC   D2A57652  12.818  37.650   6.764
 4494POPC   C3A57653  12.893  37.644   7.064
 4494POPC   C4A57654  12.849  37.630   7.364
 4494POPC   C1B57655  13.057  37.772   6.464
 4494POPC   C2B57656  13.132  37.782   6.764
 4494POPC   C3B57657  13.050  37.761   7.064
 4494POPC   C4B57658  13.127  37.791   7.364
 4495POPC   NC357659   2.780  34.541   5.564
 4495POPC   PO457660   2.810  34.573   5.864
 4495POPC   GL157661   2.760  34.580   6.164
 4495POPC   GL257662   2.891  34.533   6.164
 4495POPC   C1A57663   2.812  34.606   6.464
 4495POPC   D2A57664   2.812  34.542   6.764
 4495POPC   C3A57665   2.725  34.600   7.064
 4495POPC   C4A57666   2.716  34.602   7.364
 4495POPC   C1B57667   3.007  34.469   6.464
 4495POPC   C2B57668   2.938  34.386   6.764
 4495POPC   C3B57669   2.966  34.433   7.064
 4495POPC   C4B57670   2.983  34.381   7.364
 4496POPC   NC357671  26.772   5.841   5.564
 4496POPC   PO457672  26.852   5.898   5.864
 4496POPC   GL157673  26.773   5.875   6.164
 4496POPC   GL257674  26.850   5.982   6.164
 4496POPC   C1A57675  26.861   5.836   6.464
 4496POPC   D2A57676  26.863   5.866   6.764
 4496POPC   C3A57677  26.849   5.872   7.064
 4496POPC   C4A57678  26.837   5.889   7.364
 4496POPC   C1B57679  26.873   6.114   6.464
 4496POPC   C2B57680  26.905   6.160   6.764
 4496POPC   C3B57681  26.893   6.160   7.064
 4496POPC   C4B57682  26.865   6.136   7.364
 4497POPC   NC357683   3.495  32.297   5.564
 4497POPC   PO457684   3.524  32.248   5.864
 4497POPC   GL157685   3.570  32.204   6.164
 4497POPC   GL257686   3.550  32.375   6.164
 4497POPC   C1A57687   3.560  32.230   6.464
 4497POPC   D2A57688   3.544  32.227   6.764
 4497POPC   C3A57689   3.516  32.230   7.064
 4497POPC   C4A57690   3.567  32.211   7.364
 4497POPC   C1B57691   3.621  32.457   6.464
 4497POPC   C2B57692   3.635  32.435   6.764
 4497POPC   C3B57693   3.583  32.509   7.064
 4497POPC   C4B57694   3.632  32.443   7.364
 4498POPC   NC357695  14.378  12.855   5.564
 4498POPC   PO457696  14.449  12.853   5.864
 4498POPC   GL157697  14.379  12.850   6.164
 4498POPC   GL257698  14.482  12.975   6.164
 4498POPC   C1A57699  14.423  12.824   6.464
 4498POPC   D2A57700  14.375  12.860   6.764
 4498POPC   C3A57701  14.411  12.830   7.064
 4498POPC   C4A57702  14.435  12.867   7.364
 4498POPC   C1B57703  14.634  12.984   6.464
 4498POPC   C2B57704  14.586  13.066   6.764
 4498POPC   C3B57705  14.583  13.068   7.064
 4498POPC   C4B57706  14.583  13.015   7.364
 4499POPC   NC357707  42.309  27.629   5.564
 4499POPC   PO457708  42.321  27.558   5.864
 4499POPC   GL157709  42.289  27.617   6.164
 4499POPC   GL257710  42.479  27.683   6.164
 4499POPC   C1A57711  42.308  27.604   6.464
 4499POPC   D2A57712  42.331  27.573   6.764
 4499POPC   C3A57713  42.299  27.547   7.064
 4499POPC   C4A57714  42.366  27.547   7.364
 4499POPC   C1B57715  42.601  27.737   6.464
 4499POPC   C2B57716  42.526  27.682   6.764
 4499POPC   C3B57717  42.519  27.697   7.064
 4499POPC   C4B57718  42.602  27.677   7.364
 4500POPC   NC357719  43.118  40.751   5.564
 4500POPC   PO457720  43.071  40.750   5.864
 4500POPC   GL157721  43.080  40.749   6.164
 4500POPC   GL257722  43.099  40.946   6.164
 4500POPC   C1A57723  43.115  40.823   6.464
 4500POPC   D2A57724  43.141  40.806   6.764
 4500POPC   C3A57725  43.072  40.799   7.064
 4500POPC   C4A57726  43.149  40.801   7.364
 4500POPC   C1B57727  43.126  40.996   6.464
 4500POPC   C2B57728  43.068  41.079   6.764
 4500POPC   C3B57729  43.077  41.008   7.064
 4500POPC   C4B57730  43.152  40.991   7.364
 4501POPC   NC357731  44.638  19.805   5.564
 4501POPC   PO457732  44.687  19.788   5.864
 4501POPC   GL157733  44.613  19.876   6.164
 4501POPC   GL257734  44.814  19.802   6.164
 4501POPC   C1A57735  44.664  19.812   6.464
 4501POPC   D2A57736  44.680  19.806   6.764
 4501POPC   C3A57737  44.654  19.862   7.064
 4501POPC   C4A57738  44.643  19.817   7.364
 4501POPC   C1B57739  44.840  19.741   6.464
 4501POPC   C2B57740  44.894  19.769   6.764
 4501POPC   C3B57741  44.891  19.699   7.064
 4501POPC   C4B57742  44.878  19.757   7.364
 4502POPC   NC357743  19.028  36.945   5.564
 4502POPC   PO457744  19.067  36.861   5.864
 4502POPC   GL157745  19.019  36.925   6.164
 4502POPC   GL257746  18.903  36.956   6.164
 4502POPC   C1A57747  19.102  36.949   6.464
 4502POPC   D2A57748  19.069  36.936   6.764
 4502POPC   C3A57749  19.041  36.925   7.064
 4502POPC   C4A57750  19.063  36.895   7.364
 4502POPC   C1B57751  18.791  36.908   6.464
 4502POPC   C2B57752  18.799  36.940   6.764
 4502POPC   C3B57753  18.789  36.962   7.064
 4502POPC   C4B57754  18.811  37.001   7.364
 4503POPC   NC357755  26.800  37.642   5.564
 4503POPC   PO457756  26.823  37.691   5.864
 4503POPC   GL157757  26.828  37.639   6.164
 4503POPC   GL257758  26.689  37.736   6.164
 4503POPC   C1A57759  26.860  37.654   6.464
 4503POPC   D2A57760  26.783  37.671   6.764
 4503POPC   C3A57761  26.817  37.634   7.064
 4503POPC   C4A57762  26.844  37.667   7.364
 4503POPC   C1B57763  26.576  37.683   6.464
 4503POPC   C2B57764  26.553  37.741   6.764
 4503POPC   C3B57765  26.559  37.711   7.064
 4503POPC   C4B57766  26.537  37.710   7.364
 4504POPC   NC357767   9.725  17.486   5.564
 4504POPC   PO457768   9.784  17.477   5.864
 4504POPC   GL157769   9.797  17.514   6.164
 4504POPC   GL257770   9.703  17.650   6.164
 4504POPC   C1A57771   9.731  17.474   6.464
 4504POPC   D2A57772   9.751  17.474   6.764
 4504POPC   C3A57773   9.757  17.511   7.064
 4504POPC   C4A57774   9.723  17.517   7.364
 4504POPC   C1B57775   9.655  17.695   6.464
 4504POPC   C2B57776   9.665  17.720   6.764
 4504POPC   C3B57777   9.610  17.743   7.064
 4504POPC   C4B57778   9.602  17.697   7.364
 4505POPC   NC357779  36.168  32.995   5.564
 4505POPC   PO457780  36.140  32.994   5.864
 4505POPC   GL157781  36.114  33.073   6.164
 4505POPC   GL257782  36.168  33.128   6.164
 4505POPC   C1A57783  36.112  32.982   6.464
 4505POPC   D2A57784  36.101  32.997   6.764
 4505POPC   C3A57785  36.100  33.025   7.064
 4505POPC   C4A57786  36.095  32.988   7.364
 4505POPC   C1B57787  36.178  33.302   6.464
 4505POPC   C2B57788  36.177  33.257   6.764
 4505POPC   C3B57789  36.158  33.271   7.064
 4505POPC   C4B57790  36.215  33.243   7.364
 4506POPC   NC357791  37.671  19.018   5.564
 4506POPC   PO457792  37.658  19.102   5.864
 4506POPC   GL157793  37.635  19.081   6.164
 4506POPC   GL257794  37.822  19.081   6.164
 4506POPC   C1A57795  37.720  19.064   6.464
 4506POPC   D2A57796  37.673  19.030   6.764
 4506POPC   C3A57797  37.705  19.082   7.064
 4506POPC   C4A57798  37.683  19.053   7.364
 4506POPC   C1B57799  37.963  19.086   6.464
 4506POPC   C2B57800  37.922  19.084   6.764
 4506POPC   C3B57801  37.972  19.087   7.064
 4506POPC   C4B57802  37.973  19.028   7.364
 4507POPC   NC357803  15.192   7.381   5.564
 4507POPC   PO457804  15.163   7.378   5.864
 4507POPC   GL157805  15.139   7.391   6.164
 4507POPC   GL257806  15.258   7.384   6.164
 4507POPC   C1A57807  15.176   7.432   6.464
 4507POPC   D2A57808  15.151   7.379   6.764
 4507POPC   C3A57809  15.229   7.402   7.064
 4507POPC   C4A57810  15.150   7.465   7.364
 4507POPC   C1B57811  15.420   7.362   6.464
 4507POPC   C2B57812  15.390   7.406   6.764
 4507POPC   C3B57813  15.451   7.323   7.064
 4507POPC   C4B57814  15.453   7.384   7.364
 4508POPC   NC357815  26.850  33.826   5.564
 4508POPC   PO457816  26.794  33.813   5.864
 4508POPC   GL157817  26.767  33.806   6.164
 4508POPC   GL257818  26.661  33.777   6.164
 4508POPC   C1A57819  26.793  33.782   6.464
 4508POPC   D2A57820  26.847  33.797   6.764
 4508POPC   C3A57821  26.770  33.784   7.064
 4508POPC   C4A57822  26.840  33.798   7.364
 4508POPC   C1B57823  26.603  33.847   6.464
 4508POPC   C2B57824  26.540  33.766   6.764
 4508POPC   C3B57825  26.611  33.755   7.064
 4508POPC   C4B57826  26.589  33.770   7.364
 4509POPC   NC357827   3.522  29.130   5.564
 4509POPC   PO457828   3.515  29.126   5.864
 4509POPC   GL157829   3.495  29.167   6.164
 4509POPC   GL257830   3.453  29.148   6.164
 4509POPC   C1A57831   3.586  29.105   6.464
 4509POPC   D2A57832   3.561  29.175   6.764
 4509POPC   C3A57833   3.577  29.126   7.064
 4509POPC   C4A57834   3.514  29.128   7.364
 4509POPC   C1B57835   3.336  29.158   6.464
 4509POPC   C2B57836   3.300  29.094   6.764
 4509POPC   C3B57837   3.304  29.083   7.064
 4509POPC   C4B57838   3.261  29.121   7.364
 4510POPC   NC357839  39.272  12.892   5.564
 4510POPC   PO457840  39.245  12.877   5.864
 4510POPC   GL157841  39.218  12.894   6.164
 4510POPC   GL257842  39.264  12.685   6.164
 4510POPC   C1A57843  39.268  12.820   6.464
 4510POPC   D2A57844  39.225  12.890   6.764
 4510POPC   C3A57845  39.244  12.828   7.064
 4510POPC   C4A57846  39.275  12.865   7.364
 4510POPC   C1B57847  39.180  12.572   6.464
 4510POPC   C2B57848  39.175  12.628   6.764
 4510POPC   C3B57849  39.194  12.596   7.064
 4510POPC   C4B57850  39.181  12.567   7.364
 4511POPC   NC357851  22.888  42.329   5.564
 4511POPC   PO457852  22.940  42.327   5.864
 4511POPC   GL157853  22.957  42.378   6.164
 4511POPC   GL257854  23.080  42.250   6.164
 4511POPC   C1A57855  22.984  42.350   6.464
 4511POPC   D2A57856  22.924  42.349   6.764
 4511POPC   C3A57857  22.972  42.341   7.064
 4511POPC   C4A57858  22.912  42.287   7.364
 4511POPC   C1B57859  23.170  42.205   6.464
 4511POPC   C2B57860  23.156  42.160   6.764
 4511POPC   C3B57861  23.091  42.178   7.064
 4511POPC   C4B57862  23.152  42.183   7.364
 4512POPC   NC357863   1.959   4.302   5.564
 4512POPC   PO457864   1.960   4.280   5.864
 4512POPC   GL157865   2.037   4.359   6.164
 4512POPC   GL257866   2.080   4.433   6.164
 4512POPC   C1A57867   1.948   4.273   6.464
 4512POPC   D2A57868   1.965   4.358   6.764
 4512POPC   C3A57869   2.027   4.332   7.064
 4512POPC   C4A57870   1.998   4.341   7.364
 4512POPC   C1B57871   2.067   4.516   6.464
 4512POPC   C2B57872   2.097   4.516   6.764
 4512POPC   C3B57873   2.087   4.581   7.064
 4512POPC   C4B57874   2.037   4.544   7.364
 4513POPC   NC357875  43.928  22.118   5.564
 4513POPC   PO457876  43.866  22.148   5.864
 4513POPC   GL157877  43.933  22.168   6.164
 4513POPC   GL257878  43.740  22.111   6.164
 4513POPC   C1A57879  43.927  22.126   6.464
 4513POPC   D2A57880  43.848  22.209   6.764
 4513POPC   C3A57881  43.928  22.113   7.064
 4513POPC   C4A57882  43.839  22.189   7.364
 4513POPC   C1B57883  43.606  22.120   6.464
 4513POPC   C2B57884  43.612  22.158   6.764
 4513POPC   C3B57885  43.639  22.114   7.064
 4513POPC   C4B57886  43.624  22.145   7.364
 4514POPC   NC357887   4.287   5.065   5.564
 4514POPC   PO457888   4.297   5.078   5.864
 4514POPC   GL157889   4.276   5.124   6.164
 4514POPC   GL257890   4.242   5.175   6.164
 4514POPC   C1A57891   4.337   5.078   6.464
 4514POPC   D2A57892   4.286   5.141   6.764
 4514POPC   C3A57893   4.297   5.116   7.064
 4514POPC   C4A57894   4.269   5.123   7.364
 4514POPC   C1B57895   4.156   5.300   6.464
 4514POPC   C2B57896   4.239   5.268   6.764
 4514POPC   C3B57897   4.191   5.317   7.064
 4514POPC   C4B57898   4.214   5.293   7.364
 4515POPC   NC357899  30.719  42.355   5.564
 4515POPC   PO457900  30.681  42.320   5.864
 4515POPC   GL157901  30.735  42.292   6.164
 4515POPC   GL257902  30.829  42.267   6.164
 4515POPC   C1A57903  30.744  42.368   6.464
 4515POPC   D2A57904  30.688  42.369   6.764
 4515POPC   C3A57905  30.722  42.330   7.064
 4515POPC   C4A57906  30.675  42.300   7.364
 4515POPC   C1B57907  30.929  42.202   6.464
 4515POPC   C2B57908  30.916  42.141   6.764
 4515POPC   C3B57909  30.921  42.154   7.064
 4515POPC   C4B57910  30.867  42.195   7.364
 4516POPC   NC357911   8.217  12.826   5.564
 4516POPC   PO457912   8.175  12.857   5.864
 4516POPC   GL157913   8.181  12.827   6.164
 4516POPC   GL257914   8.336  12.752   6.164
 4516POPC   C1A57915   8.180  12.890   6.464
 4516POPC   D2A57916   8.153  12.855   6.764
 4516POPC   C3A57917   8.191  12.870   7.064
 4516POPC   C4A57918   8.192  12.820   7.364
 4516POPC   C1B57919   8.407  12.704   6.464
 4516POPC   C2B57920   8.416  12.675   6.764
 4516POPC   C3B57921   8.412  12.661   7.064
 4516POPC   C4B57922   8.334  12.694   7.364
 4517POPC   NC357923  25.277  29.162   5.564
 4517POPC   PO457924  25.303  29.119   5.864
 4517POPC   GL157925  25.280  29.128   6.164
 4517POPC   GL257926  25.309  29.226   6.164
 4517POPC   C1A57927  25.309  29.182   6.464
 4517POPC   D2A57928  25.278  29.167   6.764
 4517POPC   C3A57929  25.312  29.123   7.064
 4517POPC   C4A57930  25.240  29.174   7.364
 4517POPC   C1B57931  25.445  29.312   6.464
 4517POPC   C2B57932  25.396  29.316   6.764
 4517POPC   C3B57933  25.419  29.375   7.064
 4517POPC   C4B57934  25.447  29.399   7.364
 4518POPC   NC357935  44.657   1.227   5.564
 4518POPC   PO457936  44.613   1.215   5.864
 4518POPC   GL157937  44.647   1.231   6.164
 4518POPC   GL257938  44.760   1.171   6.164
 4518POPC   C1A57939  44.620   1.251   6.464
 4518POPC   D2A57940  44.635   1.250   6.764
 4518POPC   C3A57941  44.705   1.186   7.064
 4518POPC   C4A57942  44.680   1.239   7.364
 4518POPC   C1B57943  44.937   1.217   6.464
 4518POPC   C2B57944  44.933   1.235   6.764
 4518POPC   C3B57945  44.907   1.203   7.064
 4518POPC   C4B57946  44.868   1.168   7.364
 4519POPC   NC357947  22.187  40.015   5.564
 4519POPC   PO457948  22.125  39.978   5.864
 4519POPC   GL157949  22.130  39.992   6.164
 4519POPC   GL257950  22.214  40.110   6.164
 4519POPC   C1A57951  22.122  39.985   6.464
 4519POPC   D2A57952  22.187  39.986   6.764
 4519POPC   C3A57953  22.126  40.055   7.064
 4519POPC   C4A57954  22.178  40.032   7.364
 4519POPC   C1B57955  22.165  40.236   6.464
 4519POPC   C2B57956  22.189  40.236   6.764
 4519POPC   C3B57957  22.208  40.246   7.064
 4519POPC   C4B57958  22.195  40.217   7.364
 4520POPC   NC357959  18.282  15.188   5.564
 4520POPC   PO457960  18.268  15.217   5.864
 4520POPC   GL157961  18.293  15.210   6.164
 4520POPC   GL257962  18.268  15.263   6.164
 4520POPC   C1A57963  18.321  15.220   6.464
 4520POPC   D2A57964  18.258  15.162   6.764
 4520POPC   C3A57965  18.298  15.214   7.064
 4520POPC   C4A57966  18.283  15.220   7.364
 4520POPC   C1B57967  18.267  15.450   6.464
 4520POPC   C2B57968  18.282  15.389   6.764
 4520POPC   C3B57969  18.259  15.476   7.064
 4520POPC   C4B57970  18.229  15.420   7.364
 4521POPC   NC357971  43.132  33.073   5.564
 4521POPC   PO457972  43.115  33.052   5.864
 4521POPC   GL157973  43.118  33.044   6.164
 4521POPC   GL257974  43.113  32.916   6.164
 4521POPC   C1A57975  43.128  32.987   6.464
 4521POPC   D2A57976  43.094  32.979   6.764
 4521POPC   C3A57977  43.119  33.042   7.064
 4521POPC   C4A57978  43.150  33.007   7.364
 4521POPC   C1B57979  43.114  32.732   6.464
 4521POPC   C2B57980  43.107  32.725   6.764
 4521POPC   C3B57981  43.109  32.728   7.064
 4521POPC   C4B57982  43.150  32.803   7.364
 4522POPC   NC357983  19.047  26.769   5.564
 4522POPC   PO457984  19.081  26.794   5.864
 4522POPC   GL157985  19.078  26.856   6.164
 4522POPC   GL257986  18.946  26.805   6.164
 4522POPC   C1A57987  19.067  26.780   6.464
 4522POPC   D2A57988  19.079  26.857   6.764
 4522POPC   C3A57989  19.061  26.863   7.064
 4522POPC   C4A57990  19.051  26.823   7.364
 4522POPC   C1B57991  18.811  26.892   6.464
 4522POPC   C2B57992  18.782  26.881   6.764
 4522POPC   C3B57993  18.812  26.869   7.064
 4522POPC   C4B57994  18.776  26.862   7.364
 4523POPC   NC357995  26.064   9.735   5.564
 4523POPC   PO457996  26.008   9.766   5.864
 4523POPC   GL157997  26.048   9.791   6.164
 4523POPC   GL257998  26.177   9.719   6.164
 4523POPC   C1A57999  26.066   9.769   6.464
 4523POPC   D2A58000  25.996   9.711   6.764
 4523POPC   C3A58001  26.088   9.733   7.064
 4523POPC   C4A58002  26.043   9.755   7.364
 4523POPC   C1B58003  26.260   9.712   6.464
 4523POPC   C2B58004  26.238   9.716   6.764
 4523POPC   C3B58005  26.329   9.659   7.064
 4523POPC   C4B58006  26.241   9.690   7.364
 4524POPC   NC358007   2.732  23.670   5.564
 4524POPC   PO458008   2.717  23.741   5.864
 4524POPC   GL158009   2.800  23.674   6.164
 4524POPC   GL258010   2.756  23.870   6.164
 4524POPC   C1A58011   2.787  23.695   6.464
 4524POPC   D2A58012   2.773  23.728   6.764
 4524POPC   C3A58013   2.728  23.729   7.064
 4524POPC   C4A58014   2.797  23.738   7.364
 4524POPC   C1B58015   2.662  23.911   6.464
 4524POPC   C2B58016   2.694  23.899   6.764
 4524POPC   C3B58017   2.621  23.935   7.064
 4524POPC   C4B58018   2.608  23.925   7.364
 4525POPC   NC358019   1.187  43.069   5.564
 4525POPC   PO458020   1.241  43.157   5.864
 4525POPC   GL158021   1.214  43.068   6.164
 4525POPC   GL258022   1.371  43.132   6.164
 4525POPC   C1A58023   1.207  43.126   6.464
 4525POPC   D2A58024   1.230  43.134   6.764
 4525POPC   C3A58025   1.223  43.140   7.064
 4525POPC   C4A58026   1.246  43.090   7.364
 4525POPC   C1B58027   1.469  43.116   6.464
 4525POPC   C2B58028   1.432  43.098   6.764
 4525POPC   C3B58029   1.454  43.083   7.064
 4525POPC   C4B58030   1.455  43.067   7.364
 4526POPC   NC358031  19.856  42.361   5.564
 4526POPC   PO458032  19.802  42.286   5.864
 4526POPC   GL158033  19.799  42.297   6.164
 4526POPC   GL258034  19.727  42.480   6.164
 4526POPC   C1A58035  19.841  42.383   6.464
 4526POPC   D2A58036  19.789  42.288   6.764
 4526POPC   C3A58037  19.854  42.319   7.064
 4526POPC   C4A58038  19.812  42.302   7.364
 4526POPC   C1B58039  19.718  42.525   6.464
 4526POPC   C2B58040  19.683  42.515   6.764
 4526POPC   C3B58041  19.667  42.486   7.064
 4526POPC   C4B58042  19.640  42.568   7.364
 4527POPC   NC358043  33.808  31.476   5.564
 4527POPC   PO458044  33.849  31.509   5.864
 4527POPC   GL158045  33.778  31.479   6.164
 4527POPC   GL258046  33.719  31.426   6.164
 4527POPC   C1A58047  33.827  31.492   6.464
 4527POPC   D2A58048  33.794  31.522   6.764
 4527POPC   C3A58049  33.796  31.457   7.064
 4527POPC   C4A58050  33.836  31.433   7.364
 4527POPC   C1B58051  33.584  31.441   6.464
 4527POPC   C2B58052  33.606  31.419   6.764
 4527POPC   C3B58053  33.597  31.394   7.064
 4527POPC   C4B58054  33.599  31.395   7.364
 4528POPC   NC358055  16.720   9.722   5.564
 4528POPC   PO458056  16.706   9.758   5.864
 4528POPC   GL158057  16.713   9.744   6.164
 4528POPC   GL258058  16.637   9.741   6.164
 4528POPC   C1A58059  16.700   9.745   6.464
 4528POPC   D2A58060  16.738   9.737   6.764
 4528POPC   C3A58061  16.703   9.733   7.064
 4528POPC   C4A58062  16.687   9.768   7.364
 4528POPC   C1B58063  16.441   9.721   6.464
 4528POPC   C2B58064  16.445   9.762   6.764
 4528POPC   C3B58065  16.520   9.743   7.064
 4528POPC   C4B58066  16.450   9.696   7.364
 4529POPC   NC358067  29.934  44.708   5.564
 4529POPC   PO458068  29.963  44.630   5.864
 4529POPC   GL158069  29.941  44.669   6.164
 4529POPC   GL258070  29.911  44.572   6.164
 4529POPC   C1A58071  29.881  44.627   6.464
 4529POPC   D2A58072  29.881  44.640   6.764
 4529POPC   C3A58073  29.939  44.627   7.064
 4529POPC   C4A58074  29.962  44.621   7.364
 4529POPC   C1B58075  30.032  44.462   6.464
 4529POPC   C2B58076  29.951  44.413   6.764
 4529POPC   C3B58077  29.982  44.415   7.064
 4529POPC   C4B58078  29.969  44.470   7.364
 4530POPC   NC358079  12.878  33.019   5.564
 4530POPC   PO458080  12.853  33.049   5.864
 4530POPC   GL158081  12.849  33.028   6.164
 4530POPC   GL258082  12.791  33.166   6.164
 4530POPC   C1A58083  12.895  33.027   6.464
 4530POPC   D2A58084  12.809  33.023   6.764
 4530POPC   C3A58085  12.858  33.069   7.064
 4530POPC   C4A58086  12.862  33.025   7.364
 4530POPC   C1B58087  12.808  33.229   6.464
 4530POPC   C2B58088  12.812  33.221   6.764
 4530POPC   C3B58089  12.765  33.235   7.064
 4530POPC   C4B58090  12.773  33.278   7.364
 4531POPC   NC358091  12.050   4.323   5.564
 4531POPC   PO458092  12.121   4.330   5.864
 4531POPC   GL158093  12.103   4.323   6.164
 4531POPC   GL258094  11.993   4.422   6.164
 4531POPC   C1A58095  12.083   4.314   6.464
 4531POPC   D2A58096  12.078   4.312   6.764
 4531POPC   C3A58097  12.122   4.298   7.064
 4531POPC   C4A58098  12.064   4.349   7.364
 4531POPC   C1B58099  11.876   4.460   6.464
 4531POPC   C2B58100  11.879   4.470   6.764
 4531POPC   C3B58101  11.917   4.542   7.064
 4531POPC   C4B58102  11.864   4.515   7.364
 4532POPC   NC358103  18.291  42.363   5.564
 4532POPC   PO458104  18.237  42.355   5.864
 4532POPC   GL158105  18.291  42.294   6.164
 4532POPC   GL258106  18.343  42.456   6.164
 4532POPC   C1A58107  18.274  42.325   6.464
 4532POPC   D2A58108  18.309  42.304   6.764
 4532POPC   C3A58109  18.302  42.322   7.064
 4532POPC   C4A58110  18.286  42.332   7.364
 4532POPC   C1B58111  18.268  42.547   6.464
 4532POPC   C2B58112  18.290  42.583   6.764
 4532POPC   C3B58113  18.298  42.587   7.064
 4532POPC   C4B58114  18.289  42.597   7.364
 4533POPC   NC358115  12.815  35.317   5.564
 4533POPC   PO458116  12.847  35.354   5.864
 4533POPC   GL158117  12.841  35.340   6.164
 4533POPC   GL258118  12.688  35.337   6.164
 4533POPC   C1A58119  12.874  35.378   6.464
 4533POPC   D2A58120  12.885  35.343   6.764
 4533POPC   C3A58121  12.897  35.396   7.064
 4533POPC   C4A58122  12.895  35.332   7.364
 4533POPC   C1B58123  12.616  35.381   6.464
 4533POPC   C2B58124  12.620  35.338   6.764
 4533POPC   C3B58125  12.632  35.392   7.064
 4533POPC   C4B58126  12.580  35.357   7.364
 4534POPC   NC358127  33.811   0.397   5.564
 4534POPC   PO458128  33.754   0.467   5.864
 4534POPC   GL158129  33.849   0.435   6.164
 4534POPC   GL258130  33.735   0.329   6.164
 4534POPC   C1A58131  33.785   0.467   6.464
 4534POPC   D2A58132  33.766   0.475   6.764
 4534POPC   C3A58133  33.753   0.485   7.064
 4534POPC   C4A58134  33.801   0.484   7.364
 4534POPC   C1B58135  33.637   0.227   6.464
 4534POPC   C2B58136  33.629   0.266   6.764
 4534POPC   C3B58137  33.640   0.249   7.064
 4534POPC   C4B58138  33.655   0.279   7.364
 4535POPC   NC358139  26.021  13.597   5.564
 4535POPC   PO458140  26.027  13.624   5.864
 4535POPC   GL158141  26.017  13.644   6.164
 4535POPC   GL258142  26.121  13.779   6.164
 4535POPC   C1A58143  26.042  13.583   6.464
 4535POPC   D2A58144  26.088  13.668   6.764
 4535POPC   C3A58145  26.004  13.606   7.064
 4535POPC   C4A58146  26.052  13.650   7.364
 4535POPC   C1B58147  26.186  13.832   6.464
 4535POPC   C2B58148  26.144  13.811   6.764
 4535POPC   C3B58149  26.145  13.846   7.064
 4535POPC   C4B58150  26.192  13.843   7.364
 4536POPC   NC358151   4.316  36.953   5.564
 4536POPC   PO458152   4.362  36.869   5.864
 4536POPC   GL158153   4.299  36.942   6.164
 4536POPC   GL258154   4.421  36.995   6.164
 4536POPC   C1A58155   4.350  36.869   6.464
 4536POPC   D2A58156   4.355  36.932   6.764
 4536POPC   C3A58157   4.322  36.936   7.064
 4536POPC   C4A58158   4.270  36.897   7.364
 4536POPC   C1B58159   4.512  37.060   6.464
 4536POPC   C2B58160   4.547  37.093   6.764
 4536POPC   C3B58161   4.517  37.045   7.064
 4536POPC   C4B58162   4.514  37.021   7.364
 4537POPC   NC358163  44.629  40.744   5.564
 4537POPC   PO458164  44.626  40.741   5.864
 4537POPC   GL158165  44.644  40.769   6.164
 4537POPC   GL258166  44.825  40.768   6.164
 4537POPC   C1A58167  44.645  40.750   6.464
 4537POPC   D2A58168  44.702  40.813   6.764
 4537POPC   C3A58169  44.643  40.733   7.064
 4537POPC   C4A58170  44.701  40.824   7.364
 4537POPC   C1B58171  44.948  40.803   6.464
 4537POPC   C2B58172  44.915  40.822   6.764
 4537POPC   C3B58173  44.934  40.764   7.064
 4537POPC   C4B58174  44.958  40.807   7.364
 4538POPC   NC358175  25.235   3.576   5.564
 4538POPC   PO458176  25.255   3.583   5.864
 4538POPC   GL158177  25.252   3.553   6.164
 4538POPC   GL258178  25.353   3.412   6.164
 4538POPC   C1A58179  25.268   3.521   6.464
 4538POPC   D2A58180  25.236   3.586   6.764
 4538POPC   C3A58181  25.282   3.512   7.064
 4538POPC   C4A58182  25.295   3.572   7.364
 4538POPC   C1B58183  25.367   3.361   6.464
 4538POPC   C2B58184  25.396   3.303   6.764
 4538POPC   C3B58185  25.428   3.364   7.064
 4538POPC   C4B58186  25.345   3.322   7.364
 4539POPC   NC358187  27.551  43.842   5.564
 4539POPC   PO458188  27.565  43.900   5.864
 4539POPC   GL158189  27.614  43.865   6.164
 4539POPC   GL258190  27.631  43.769   6.164
 4539POPC   C1A58191  27.557  43.848   6.464
 4539POPC   D2A58192  27.595  43.866   6.764
 4539POPC   C3A58193  27.597  43.845   7.064
 4539POPC   C4A58194  27.631  43.901   7.364
 4539POPC   C1B58195  27.708  43.640   6.464
 4539POPC   C2B58196  27.732  43.683   6.764
 4539POPC   C3B58197  27.764  43.699   7.064
 4539POPC   C4B58198  27.748  43.707   7.364
 4540POPC   NC358199  38.488   5.913   5.564
 4540POPC   PO458200  38.489   5.821   5.864
 4540POPC   GL158201  38.429   5.874   6.164
 4540POPC   GL258202  38.472   5.762   6.164
 4540POPC   C1A58203  38.427   5.846   6.464
 4540POPC   D2A58204  38.415   5.826   6.764
 4540POPC   C3A58205  38.470   5.877   7.064
 4540POPC   C4A58206  38.457   5.907   7.364
 4540POPC   C1B58207  38.513   5.647   6.464
 4540POPC   C2B58208  38.514   5.574   6.764
 4540POPC   C3B58209  38.473   5.641   7.064
 4540POPC   C4B58210  38.527   5.653   7.364
 4541POPC   NC358211  27.559  26.022   5.564
 4541POPC   PO458212  27.610  26.006   5.864
 4541POPC   GL158213  27.548  26.058   6.164
 4541POPC   GL258214  27.455  25.979   6.164
 4541POPC   C1A58215  27.546  26.005   6.464
 4541POPC   D2A58216  27.545  26.067   6.764
 4541POPC   C3A58217  27.580  26.085   7.064
 4541POPC   C4A58218  27.620  26.050   7.364
 4541POPC   C1B58219  27.375  25.982   6.464
 4541POPC   C2B58220  27.317  25.976   6.764
 4541POPC   C3B58221  27.364  25.964   7.064
 4541POPC   C4B58222  27.387  25.949   7.364
 4542POPC   NC358223  20.585  14.381   5.564
 4542POPC   PO458224  20.562  14.360   5.864
 4542POPC   GL158225  20.563  14.375   6.164
 4542POPC   GL258226  20.452  14.379   6.164
 4542POPC   C1A58227  20.608  14.374   6.464
 4542POPC   D2A58228  20.630  14.364   6.764
 4542POPC   C3A58229  20.649  14.453   7.064
 4542POPC   C4A58230  20.574  14.410   7.364
 4542POPC   C1B58231  20.356  14.440   6.464
 4542POPC   C2B58232  20.371  14.397   6.764
 4542POPC   C3B58233  20.394  14.403   7.064
 4542POPC   C4B58234  20.334  14.385   7.364
 4543POPC   NC358235  27.579  10.563   5.564
 4543POPC   PO458236  27.632  10.529   5.864
 4543POPC   GL158237  27.607  10.565   6.164
 4543POPC   GL258238  27.726  10.428   6.164
 4543POPC   C1A58239  27.592  10.538   6.464
 4543POPC   D2A58240  27.607  10.554   6.764
 4543POPC   C3A58241  27.585  10.501   7.064
 4543POPC   C4A58242  27.615  10.522   7.364
 4543POPC   C1B58243  27.767  10.342   6.464
 4543POPC   C2B58244  27.712  10.311   6.764
 4543POPC   C3B58245  27.783  10.289   7.064
 4543POPC   C4B58246  27.751  10.386   7.364
 4544POPC   NC358247  22.917  26.022   5.564
 4544POPC   PO458248  22.917  26.004   5.864
 4544POPC   GL158249  22.972  26.075   6.164
 4544POPC   GL258250  23.022  25.959   6.164
 4544POPC   C1A58251  22.948  26.058   6.464
 4544POPC   D2A58252  22.988  26.042   6.764
 4544POPC   C3A58253  22.961  26.087   7.064
 4544POPC   C4A58254  22.987  26.072   7.364
 4544POPC   C1B58255  23.069  25.865   6.464
 4544POPC   C2B58256  23.092  25.889   6.764
 4544POPC   C3B58257  23.077  25.813   7.064
 4544POPC   C4B58258  23.108  25.847   7.364
 4545POPC   NC358259  24.506  34.581   5.564
 4545POPC   PO458260  24.465  34.580   5.864
 4545POPC   GL158261  24.517  34.566   6.164
 4545POPC   GL258262  24.406  34.554   6.164
 4545POPC   C1A58263  24.482  34.564   6.464
 4545POPC   D2A58264  24.524  34.539   6.764
 4545POPC   C3A58265  24.484  34.601   7.064
 4545POPC   C4A58266  24.454  34.533   7.364
 4545POPC   C1B58267  24.256  34.571   6.464
 4545POPC   C2B58268  24.235  34.592   6.764
 4545POPC   C3B58269  24.246  34.611   7.064
 4545POPC   C4B58270  24.235  34.618   7.364
 4546POPC   NC358271   8.168  26.831   5.564
 4546POPC   PO458272   8.175  26.778   5.864
 4546POPC   GL158273   8.184  26.797   6.164
 4546POPC   GL258274   8.282  26.857   6.164
 4546POPC   C1A58275   8.158  26.793   6.464
 4546POPC   D2A58276   8.166  26.794   6.764
 4546POPC   C3A58277   8.147  26.833   7.064
 4546POPC   C4A58278   8.190  26.860   7.364
 4546POPC   C1B58279   8.371  27.016   6.464
 4546POPC   C2B58280   8.338  27.006   6.764
 4546POPC   C3B58281   8.396  26.961   7.064
 4546POPC   C4B58282   8.344  26.993   7.364
 4547POPC   NC358283   3.508  40.024   5.564
 4547POPC   PO458284   3.531  40.005   5.864
 4547POPC   GL158285   3.495  40.009   6.164
 4547POPC   GL258286   3.433  40.067   6.164
 4547POPC   C1A58287   3.552  39.967   6.464
 4547POPC   D2A58288   3.523  39.976   6.764
 4547POPC   C3A58289   3.497  40.038   7.064
 4547POPC   C4A58290   3.574  40.029   7.364
 4547POPC   C1B58291   3.326  40.158   6.464
 4547POPC   C2B58292   3.397  40.178   6.764
 4547POPC   C3B58293   3.322  40.198   7.064
 4547POPC   C4B58294   3.338  40.143   7.364
 4548POPC   NC358295  40.809  37.639   5.564
 4548POPC   PO458296  40.819  37.729   5.864
 4548POPC   GL158297  40.735  37.631   6.164
 4548POPC   GL258298  40.717  37.649   6.164
 4548POPC   C1A58299  40.824  37.712   6.464
 4548POPC   D2A58300  40.747  37.647   6.764
 4548POPC   C3A58301  40.779  37.698   7.064
 4548POPC   C4A58302  40.752  37.722   7.364
 4548POPC   C1B58303  40.569  37.504   6.464
 4548POPC   C2B58304  40.615  37.529   6.764
 4548POPC   C3B58305  40.553  37.543   7.064
 4548POPC   C4B58306  40.619  37.549   7.364
 4549POPC   NC358307  36.162  37.689   5.564
 4549POPC   PO458308  36.096  37.639   5.864
 4549POPC   GL158309  36.087  37.695   6.164
 4549POPC   GL258310  36.000  37.625   6.164
 4549POPC   C1A58311  36.133  37.681   6.464
 4549POPC   D2A58312  36.127  37.673   6.764
 4549POPC   C3A58313  36.096  37.708   7.064
 4549POPC   C4A58314  36.111  37.722   7.364
 4549POPC   C1B58315  35.936  37.482   6.464
 4549POPC   C2B58316  35.968  37.522   6.764
 4549POPC   C3B58317  36.000  37.497   7.064
 4549POPC   C4B58318  35.980  37.492   7.364
 4550POPC   NC358319  40.822   8.209   5.564
 4550POPC   PO458320  40.768   8.156   5.864
 4550POPC   GL158321  40.824   8.161   6.164
 4550POPC   GL258322  40.675   8.068   6.164
 4550POPC   C1A58323  40.793   8.192   6.464
 4550POPC   D2A58324  40.791   8.183   6.764
 4550POPC   C3A58325  40.746   8.193   7.064
 4550POPC   C4A58326  40.816   8.232   7.364
 4550POPC   C1B58327  40.656   8.023   6.464
 4550POPC   C2B58328  40.614   8.044   6.764
 4550POPC   C3B58329  40.601   7.986   7.064
 4550POPC   C4B58330  40.618   7.977   7.364
 4551POPC   NC358331  29.930  15.158   5.564
 4551POPC   PO458332  29.879  15.166   5.864
 4551POPC   GL158333  29.886  15.204   6.164
 4551POPC   GL258334  30.043  15.132   6.164
 4551POPC   C1A58335  29.962  15.171   6.464
 4551POPC   D2A58336  29.942  15.140   6.764
 4551POPC   C3A58337  29.904  15.153   7.064
 4551POPC   C4A58338  29.927  15.205   7.364
 4551POPC   C1B58339  30.086  15.035   6.464
 4551POPC   C2B58340  30.138  15.008   6.764
 4551POPC   C3B58341  30.085  15.054   7.064
 4551POPC   C4B58342  30.107  15.011   7.364
 4552POPC   NC358343  12.122   8.956   5.564
 4552POPC   PO458344  12.079   8.924   5.864
 4552POPC   GL158345  12.100   8.974   6.164
 4552POPC   GL258346  12.054   9.058   6.164
 4552POPC   C1A58347  12.081   8.978   6.464
 4552POPC   D2A58348  12.096   8.928   6.764
 4552POPC   C3A58349  12.029   8.934   7.064
 4552POPC   C4A58350  12.044   8.999   7.364
 4552POPC   C1B58351  12.090   9.210   6.464
 4552POPC   C2B58352  12.055   9.217   6.764
 4552POPC   C3B58353  12.097   9.217   7.064
 4552POPC   C4B58354  12.056   9.254   7.364
 4553POPC   NC358355  12.886  10.498   5.564
 4553POPC   PO458356  12.848  10.478   5.864
 4553POPC   GL158357  12.841  10.546   6.164
 4553POPC   GL258358  12.776  10.439   6.164
 4553POPC   C1A58359  12.873  10.514   6.464
 4553POPC   D2A58360  12.823  10.538   6.764
 4553POPC   C3A58361  12.863  10.507   7.064
 4553POPC   C4A58362  12.845  10.524   7.364
 4553POPC   C1B58363  12.593  10.370   6.464
 4553POPC   C2B58364  12.640  10.393   6.764
 4553POPC   C3B58365  12.648  10.427   7.064
 4553POPC   C4B58366  12.596  10.384   7.364
 4554POPC   NC358367   3.555   0.398   5.564
 4554POPC   PO458368   3.575   0.404   5.864
 4554POPC   GL158369   3.494   0.401   6.164
 4554POPC   GL258370   3.488   0.533   6.164
 4554POPC   C1A58371   3.560   0.486   6.464
 4554POPC   D2A58372   3.512   0.410   6.764
 4554POPC   C3A58373   3.520   0.404   7.064
 4554POPC   C4A58374   3.519   0.487   7.364
 4554POPC   C1B58375   3.461   0.702   6.464
 4554POPC   C2B58376   3.455   0.701   6.764
 4554POPC   C3B58377   3.490   0.706   7.064
 4554POPC   C4B58378   3.481   0.704   7.364
 4555POPC   NC358379  19.010  15.910   5.564
 4555POPC   PO458380  19.103  15.974   5.864
 4555POPC   GL158381  19.050  15.946   6.164
 4555POPC   GL258382  19.215  15.899   6.164
 4555POPC   C1A58383  19.067  15.909   6.464
 4555POPC   D2A58384  19.041  15.947   6.764
 4555POPC   C3A58385  19.085  15.923   7.064
 4555POPC   C4A58386  19.048  15.935   7.364
 4555POPC   C1B58387  19.319  15.959   6.464
 4555POPC   C2B58388  19.315  15.937   6.764
 4555POPC   C3B58389  19.310  15.957   7.064
 4555POPC   C4B58390  19.297  15.943   7.364
 4556POPC   NC358391  13.624  42.345   5.564
 4556POPC   PO458392  13.645  42.361   5.864
 4556POPC   GL158393  13.649  42.309   6.164
 4556POPC   GL258394  13.550  42.352   6.164
 4556POPC   C1A58395  13.579  42.350   6.464
 4556POPC   D2A58396  13.595  42.332   6.764
 4556POPC   C3A58397  13.596  42.311   7.064
 4556POPC   C4A58398  13.638  42.308   7.364
 4556POPC   C1B58399  13.424  42.255   6.464
 4556POPC   C2B58400  13.346  42.269   6.764
 4556POPC   C3B58401  13.349  42.285   7.064
 4556POPC   C4B58402  13.355  42.302   7.364
 4557POPC   NC358403   8.997  12.851   5.564
 4557POPC   PO458404   9.013  12.876   5.864
 4557POPC   GL158405   9.020  12.823   6.164
 4557POPC   GL258406   8.907  12.797   6.164
 4557POPC   C1A58407   9.018  12.890   6.464
 4557POPC   D2A58408   9.010  12.871   6.764
 4557POPC   C3A58409   8.979  12.854   7.064
 4557POPC   C4A58410   8.987  12.876   7.364
 4557POPC   C1B58411   8.723  12.676   6.464
 4557POPC   C2B58412   8.760  12.680   6.764
 4557POPC   C3B58413   8.739  12.685   7.064
 4557POPC   C4B58414   8.736  12.667   7.364
 4558POPC   NC358415  36.116   2.793   5.564
 4558POPC   PO458416  36.169   2.741   5.864
 4558POPC   GL158417  36.088   2.762   6.164
 4558POPC   GL258418  36.280   2.753   6.164
 4558POPC   C1A58419  36.160   2.761   6.464
 4558POPC   D2A58420  36.134   2.789   6.764
 4558POPC   C3A58421  36.099   2.732   7.064
 4558POPC   C4A58422  36.083   2.740   7.364
 4558POPC   C1B58423  36.362   2.802   6.464
 4558POPC   C2B58424  36.340   2.815   6.764
 4558POPC   C3B58425  36.410   2.816   7.064
 4558POPC   C4B58426  36.369   2.767   7.364
 4559POPC   NC358427  16.693  29.916   5.564
 4559POPC   PO458428  16.685  29.967   5.864
 4559POPC   GL158429  16.781  29.966   6.164
 4559POPC   GL258430  16.638  29.901   6.164
 4559POPC   C1A58431  16.702  29.935   6.464
 4559POPC   D2A58432  16.685  29.969   6.764
 4559POPC   C3A58433  16.751  29.874   7.064
 4559POPC   C4A58434  16.711  29.901   7.364
 4559POPC   C1B58435  16.522  29.896   6.464
 4559POPC   C2B58436  16.508  29.918   6.764
 4559POPC   C3B58437  16.513  29.969   7.064
 4559POPC   C4B58438  16.488  29.949   7.364
 4560POPC   NC358439   3.520  35.350   5.564
 4560POPC   PO458440   3.549  35.337   5.864
 4560POPC   GL158441   3.576  35.324   6.164
 4560POPC   GL258442   3.594  35.504   6.164
 4560POPC   C1A58443   3.516  35.360   6.464
 4560POPC   D2A58444   3.548  35.351   6.764
 4560POPC   C3A58445   3.519  35.390   7.064
 4560POPC   C4A58446   3.554  35.303   7.364
 4560POPC   C1B58447   3.643  35.628   6.464
 4560POPC   C2B58448   3.633  35.573   6.764
 4560POPC   C3B58449   3.589  35.571   7.064
 4560POPC   C4B58450   3.597  35.543   7.364
 4561POPC   NC358451  34.563  30.706   5.564
 4561POPC   PO458452  34.603  30.657   5.864
 4561POPC   GL158453  34.552  30.694   6.164
 4561POPC   GL258454  34.540  30.771   6.164
 4561POPC   C1A58455  34.604  30.686   6.464
 4561POPC   D2A58456  34.555  30.710   6.764
 4561POPC   C3A58457  34.551  30.674   7.064
 4561POPC   C4A58458  34.596  30.694   7.364
 4561POPC   C1B58459  34.463  30.952   6.464
 4561POPC   C2B58460  34.454  30.881   6.764
 4561POPC   C3B58461  34.518  30.905   7.064
 4561POPC   C4B58462  34.483  30.945   7.364
 4562POPC   NC358463  34.571  15.161   5.564
 4562POPC   PO458464  34.562  15.207   5.864
 4562POPC   GL158465  34.591  15.197   6.164
 4562POPC   GL258466  34.459  15.209   6.164
 4562POPC   C1A58467  34.574  15.187   6.464
 4562POPC   D2A58468  34.567  15.184   6.764
 4562POPC   C3A58469  34.543  15.181   7.064
 4562POPC   C4A58470  34.537  15.228   7.364
 4562POPC   C1B58471  34.350  15.368   6.464
 4562POPC   C2B58472  34.361  15.370   6.764
 4562POPC   C3B58473  34.338  15.304   7.064
 4562POPC   C4B58474  34.335  15.344   7.364
 4563POPC   NC358475  43.887  12.824   5.564
 4563POPC   PO458476  43.863  12.839   5.864
 4563POPC   GL158477  43.919  12.877   6.164
 4563POPC   GL258478  43.792  12.832   6.164
 4563POPC   C1A58479  43.923  12.817   6.464
 4563POPC   D2A58480  43.876  12.829   6.764
 4563POPC   C3A58481  43.920  12.875   7.064
 4563POPC   C4A58482  43.883  12.813   7.364
 4563POPC   C1B58483  43.676  12.782   6.464
 4563POPC   C2B58484  43.689  12.756   6.764
 4563POPC   C3B58485  43.619  12.819   7.064
 4563POPC   C4B58486  43.643  12.763   7.364
 4564POPC   NC358487  19.810  23.699   5.564
 4564POPC   PO458488  19.799  23.707   5.864
 4564POPC   GL158489  19.856  23.745   6.164
 4564POPC   GL258490  19.762  23.784   6.164
 4564POPC   C1A58491  19.878  23.702   6.464
 4564POPC   D2A58492  19.869  23.744   6.764
 4564POPC   C3A58493  19.837  23.763   7.064
 4564POPC   C4A58494  19.815  23.672   7.364
 4564POPC   C1B58495  19.613  23.812   6.464
 4564POPC   C2B58496  19.543  23.815   6.764
 4564POPC   C3B58497  19.563  23.812   7.064
 4564POPC   C4B58498  19.580  23.736   7.364
 4565POPC   NC358499  22.158   1.254   5.564
 4565POPC   PO458500  22.148   1.200   5.864
 4565POPC   GL158501  22.167   1.246   6.164
 4565POPC   GL258502  22.219   1.137   6.164
 4565POPC   C1A58503  22.163   1.218   6.464
 4565POPC   D2A58504  22.119   1.228   6.764
 4565POPC   C3A58505  22.197   1.172   7.064
 4565POPC   C4A58506  22.127   1.177   7.364
 4565POPC   C1B58507  22.265   0.963   6.464
 4565POPC   C2B58508  22.251   0.949   6.764
 4565POPC   C3B58509  22.224   0.982   7.064
 4565POPC   C4B58510  22.265   0.976   7.364
 4566POPC   NC358511  29.127  28.335   5.564
 4566POPC   PO458512  29.152  28.381   5.864
 4566POPC   GL158513  29.185  28.354   6.164
 4566POPC   GL258514  29.079  28.451   6.164
 4566POPC   C1A58515  29.129  28.323   6.464
 4566POPC   D2A58516  29.171  28.413   6.764
 4566POPC   C3A58517  29.102  28.380   7.064
 4566POPC   C4A58518  29.180  28.380   7.364
 4566POPC   C1B58519  29.066  28.586   6.464
 4566POPC   C2B58520  29.102  28.626   6.764
 4566POPC   C3B58521  29.070  28.579   7.064
 4566POPC   C4B58522  29.092  28.630   7.364
 4567POPC   NC358523  26.790  21.402   5.564
 4567POPC   PO458524  26.835  21.406   5.864
 4567POPC   GL158525  26.770  21.386   6.164
 4567POPC   GL258526  26.775  21.251   6.164
 4567POPC   C1A58527  26.837  21.350   6.464
 4567POPC   D2A58528  26.857  21.340   6.764
 4567POPC   C3A58529  26.825  21.430   7.064
 4567POPC   C4A58530  26.851  21.337   7.364
 4567POPC   C1B58531  26.813  21.099   6.464
 4567POPC   C2B58532  26.837  21.175   6.764
 4567POPC   C3B58533  26.845  21.111   7.064
 4567POPC   C4B58534  26.777  21.134   7.364
 4568POPC   NC358535  22.197  26.835   5.564
 4568POPC   PO458536  22.149  26.781   5.864
 4568POPC   GL158537  22.138  26.852   6.164
 4568POPC   GL258538  22.287  26.860   6.164
 4568POPC   C1A58539  22.123  26.851   6.464
 4568POPC   D2A58540  22.131  26.806   6.764
 4568POPC   C3A58541  22.166  26.855   7.064
 4568POPC   C4A58542  22.121  26.807   7.364
 4568POPC   C1B58543  22.412  26.865   6.464
 4568POPC   C2B58544  22.400  26.824   6.764
 4568POPC   C3B58545  22.371  26.860   7.064
 4568POPC   C4B58546  22.368  26.809   7.364
 4569POPC   NC358547  18.283  19.070   5.564
 4569POPC   PO458548  18.286  19.107   5.864
 4569POPC   GL158549  18.248  19.103   6.164
 4569POPC   GL258550  18.425  19.113   6.164
 4569POPC   C1A58551  18.287  19.092   6.464
 4569POPC   D2A58552  18.274  19.042   6.764
 4569POPC   C3A58553  18.300  19.069   7.064
 4569POPC   C4A58554  18.288  19.010   7.364
 4569POPC   C1B58555  18.533  19.100   6.464
 4569POPC   C2B58556  18.530  19.105   6.764
 4569POPC   C3B58557  18.573  19.130   7.064
 4569POPC   C4B58558  18.577  19.085   7.364
 4570POPC   NC358559  16.754   8.207   5.564
 4570POPC   PO458560  16.733   8.245   5.864
 4570POPC   GL158561  16.692   8.231   6.164
 4570POPC   GL258562  16.846   8.129   6.164
 4570POPC   C1A58563  16.697   8.209   6.464
 4570POPC   D2A58564  16.757   8.151   6.764
 4570POPC   C3A58565  16.779   8.246   7.064
 4570POPC   C4A58566  16.724   8.236   7.364
 4570POPC   C1B58567  16.968   8.141   6.464
 4570POPC   C2B58568  16.936   8.154   6.764
 4570POPC   C3B58569  17.006   8.109   7.064
 4570POPC   C4B58570  16.996   8.118   7.364
 4571POPC   NC358571  19.846   2.037   5.564
 4571POPC   PO458572  19.867   1.948   5.864
 4571POPC   GL158573  19.787   2.008   6.164
 4571POPC   GL258574  19.875   1.900   6.164
 4571POPC   C1A58575  19.872   1.986   6.464
 4571POPC   D2A58576  19.866   2.012   6.764
 4571POPC   C3A58577  19.860   1.960   7.064
 4571POPC   C4A58578  19.878   1.994   7.364
 4571POPC   C1B58579  19.935   1.780   6.464
 4571POPC   C2B58580  19.852   1.757   6.764
 4571POPC   C3B58581  19.881   1.775   7.064
 4571POPC   C4B58582  19.852   1.730   7.364
 4572POPC   NC358583   6.642  41.581   5.564
 4572POPC   PO458584   6.596  41.540   5.864
 4572POPC   GL158585   6.660  41.526   6.164
 4572POPC   GL258586   6.533  41.667   6.164
 4572POPC   C1A58587   6.595  41.509   6.464
 4572POPC   D2A58588   6.639  41.542   6.764
 4572POPC   C3A58589   6.655  41.522   7.064
 4572POPC   C4A58590   6.650  41.529   7.364
 4572POPC   C1B58591   6.459  41.679   6.464
 4572POPC   C2B58592   6.479  41.688   6.764
 4572POPC   C3B58593   6.432  41.724   7.064
 4572POPC   C4B58594   6.387  41.692   7.364
 4573POPC   NC358595  33.759  25.285   5.564
 4573POPC   PO458596  33.780  25.306   5.864
 4573POPC   GL158597  33.758  25.289   6.164
 4573POPC   GL258598  33.927  25.308   6.164
 4573POPC   C1A58599  33.847  25.240   6.464
 4573POPC   D2A58600  33.803  25.241   6.764
 4573POPC   C3A58601  33.817  25.278   7.064
 4573POPC   C4A58602  33.819  25.254   7.364
 4573POPC   C1B58603  33.968  25.497   6.464
 4573POPC   C2B58604  34.003  25.449   6.764
 4573POPC   C3B58605  34.013  25.428   7.064
 4573POPC   C4B58606  33.989  25.414   7.364
 4574POPC   NC358607   5.044  38.407   5.564
 4574POPC   PO458608   5.134  38.422   5.864
 4574POPC   GL158609   5.140  38.488   6.164
 4574POPC   GL258610   5.178  38.543   6.164
 4574POPC   C1A58611   5.079  38.492   6.464
 4574POPC   D2A58612   5.137  38.410   6.764
 4574POPC   C3A58613   5.046  38.461   7.064
 4574POPC   C4A58614   5.138  38.456   7.364
 4574POPC   C1B58615   5.219  38.660   6.464
 4574POPC   C2B58616   5.293  38.594   6.764
 4574POPC   C3B58617   5.294  38.599   7.064
 4574POPC   C4B58618   5.258  38.664   7.364
 4575POPC   NC358619  40.036  19.860   5.564
 4575POPC   PO458620  40.031  19.787   5.864
 4575POPC   GL158621  40.022  19.829   6.164
 4575POPC   GL258622  39.904  19.919   6.164
 4575POPC   C1A58623  39.993  19.803   6.464
 4575POPC   D2A58624  40.022  19.801   6.764
 4575POPC   C3A58625  40.047  19.817   7.064
 4575POPC   C4A58626  39.980  19.837   7.364
 4575POPC   C1B58627  39.860  20.004   6.464
 4575POPC   C2B58628  39.879  20.034   6.764
 4575POPC   C3B58629  39.868  20.078   7.064
 4575POPC   C4B58630  39.883  20.043   7.364
 4576POPC   NC358631  44.667  33.778   5.564
 4576POPC   PO458632  44.690  33.790   5.864
 4576POPC   GL158633  44.650  33.781   6.164
 4576POPC   GL258634  44.810  33.861   6.164
 4576POPC   C1A58635  44.662  33.793   6.464
 4576POPC   D2A58636  44.679  33.770   6.764
 4576POPC   C3A58637  44.682  33.804   7.064
 4576POPC   C4A58638  44.634  33.789   7.364
 4576POPC   C1B58639  44.944  33.845   6.464
 4576POPC   C2B58640  44.869  33.937   6.764
 4576POPC   C3B58641  44.894  33.869   7.064
 4576POPC   C4B58642  44.873  33.905   7.364
 4577POPC   NC358643  10.481  11.283   5.564
 4577POPC   PO458644  10.496  11.342   5.864
 4577POPC   GL158645  10.565  11.291   6.164
 4577POPC   GL258646  10.611  11.298   6.164
 4577POPC   C1A58647  10.552  11.345   6.464
 4577POPC   D2A58648  10.523  11.254   6.764
 4577POPC   C3A58649  10.511  11.349   7.064
 4577POPC   C4A58650  10.514  11.292   7.364
 4577POPC   C1B58651  10.763  11.268   6.464
 4577POPC   C2B58652  10.754  11.248   6.764
 4577POPC   C3B58653  10.755  11.205   7.064
 4577POPC   C4B58654  10.792  11.252   7.364
 4578POPC   NC358655  39.269  40.014   5.564
 4578POPC   PO458656  39.190  39.964   5.864
 4578POPC   GL158657  39.268  39.964   6.164
 4578POPC   GL258658  39.170  39.863   6.164
 4578POPC   C1A58659  39.205  39.985   6.464
 4578POPC   D2A58660  39.203  39.967   6.764
 4578POPC   C3A58661  39.233  39.987   7.064
 4578POPC   C4A58662  39.226  40.035   7.364
 4578POPC   C1B58663  39.193  39.751   6.464
 4578POPC   C2B58664  39.219  39.802   6.764
 4578POPC   C3B58665  39.204  39.786   7.064
 4578POPC   C4B58666  39.158  39.729   7.364
 4579POPC   NC358667  12.053  32.214   5.564
 4579POPC   PO458668  12.093  32.297   5.864
 4579POPC   GL158669  12.101  32.244   6.164
 4579POPC   GL258670  12.006  32.411   6.164
 4579POPC   C1A58671  12.053  32.273   6.464
 4579POPC   D2A58672  12.042  32.268   6.764
 4579POPC   C3A58673  12.070  32.276   7.064
 4579POPC   C4A58674  12.057  32.205   7.364
 4579POPC   C1B58675  12.029  32.473   6.464
 4579POPC   C2B58676  12.030  32.469   6.764
 4579POPC   C3B58677  12.053  32.449   7.064
 4579POPC   C4B58678  12.043  32.487   7.364
 4580POPC   NC358679  32.235  15.155   5.564
 4580POPC   PO458680  32.239  15.155   5.864
 4580POPC   GL158681  32.204  15.135   6.164
 4580POPC   GL258682  32.164  15.177   6.164
 4580POPC   C1A58683  32.230  15.135   6.464
 4580POPC   D2A58684  32.240  15.144   6.764
 4580POPC   C3A58685  32.271  15.149   7.064
 4580POPC   C4A58686  32.291  15.171   7.364
 4580POPC   C1B58687  32.014  15.189   6.464
 4580POPC   C2B58688  32.040  15.243   6.764
 4580POPC   C3B58689  31.974  15.211   7.064
 4580POPC   C4B58690  31.993  15.206   7.364
 4581POPC   NC358691  39.974  27.586   5.564
 4581POPC   PO458692  40.005  27.619   5.864
 4581POPC   GL158693  40.009  27.573   6.164
 4581POPC   GL258694  39.932  27.567   6.164
 4581POPC   C1A58695  40.019  27.577   6.464
 4581POPC   D2A58696  39.977  27.553   6.764
 4581POPC   C3A58697  39.981  27.608   7.064
 4581POPC   C4A58698  40.051  27.582   7.364
 4581POPC   C1B58699  39.795  27.541   6.464
 4581POPC   C2B58700  39.732  27.614   6.764
 4581POPC   C3B58701  39.739  27.589   7.064
 4581POPC   C4B58702  39.752  27.548   7.364
 4582POPC   NC358703   3.556  11.293   5.564
 4582POPC   PO458704   3.492  11.302   5.864
 4582POPC   GL158705   3.503  11.291   6.164
 4582POPC   GL258706   3.627  11.271   6.164
 4582POPC   C1A58707   3.587  11.323   6.464
 4582POPC   D2A58708   3.523  11.298   6.764
 4582POPC   C3A58709   3.495  11.272   7.064
 4582POPC   C4A58710   3.587  11.303   7.364
 4582POPC   C1B58711   3.798  11.240   6.464
 4582POPC   C2B58712   3.816  11.245   6.764
 4582POPC   C3B58713   3.773  11.260   7.064
 4582POPC   C4B58714   3.779  11.223   7.364
 4583POPC   NC358715  41.552  22.956   5.564
 4583POPC   PO458716  41.548  22.938   5.864
 4583POPC   GL158717  41.563  22.953   6.164
 4583POPC   GL258718  41.418  22.990   6.164
 4583POPC   C1A58719  41.606  22.909   6.464
 4583POPC   D2A58720  41.584  22.959   6.764
 4583POPC   C3A58721  41.602  22.940   7.064
 4583POPC   C4A58722  41.581  22.953   7.364
 4583POPC   C1B58723  41.396  23.106   6.464
 4583POPC   C2B58724  41.298  23.060   6.764
 4583POPC   C3B58725  41.378  23.036   7.064
 4583POPC   C4B58726  41.316  23.023   7.364
 4584POPC   NC358727  23.736   2.002   5.564
 4584POPC   PO458728  23.745   2.002   5.864
 4584POPC   GL158729  23.713   1.966   6.164
 4584POPC   GL258730  23.592   1.921   6.164
 4584POPC   C1A58731  23.709   1.991   6.464
 4584POPC   D2A58732  23.708   1.963   6.764
 4584POPC   C3A58733  23.666   1.959   7.064
 4584POPC   C4A58734  23.726   1.952   7.364
 4584POPC   C1B58735  23.489   1.897   6.464
 4584POPC   C2B58736  23.510   1.912   6.764
 4584POPC   C3B58737  23.487   1.856   7.064
 4584POPC   C4B58738  23.451   1.832   7.364
 4585POPC   NC358739  18.294  24.456   5.564
 4585POPC   PO458740  18.307  24.485   5.864
 4585POPC   GL158741  18.281  24.507   6.164
 4585POPC   GL258742  18.236  24.565   6.164
 4585POPC   C1A58743  18.265  24.461   6.464
 4585POPC   D2A58744  18.253  24.495   6.764
 4585POPC   C3A58745  18.291  24.529   7.064
 4585POPC   C4A58746  18.251  24.467   7.364
 4585POPC   C1B58747  18.161  24.715   6.464
 4585POPC   C2B58748  18.181  24.678   6.764
 4585POPC   C3B58749  18.163  24.743   7.064
 4585POPC   C4B58750  18.182  24.698   7.364
 4586POPC   NC358751   8.982  12.043   5.564
 4586POPC   PO458752   8.951  12.042   5.864
 4586POPC   GL158753   8.945  12.101   6.164
 4586POPC   GL258754   8.883  12.083   6.164
 4586POPC   C1A58755   8.992  12.078   6.464
 4586POPC   D2A58756   8.995  12.122   6.764
 4586POPC   C3A58757   8.977  12.038   7.064
 4586POPC   C4A58758   8.944  12.089   7.364
 4586POPC   C1B58759   8.766  12.061   6.464
 4586POPC   C2B58760   8.703  12.087   6.764
 4586POPC   C3B58761   8.695  12.114   7.064
 4586POPC   C4B58762   8.765  12.117   7.364
 4587POPC   NC358763  13.608  44.706   5.564
 4587POPC   PO458764  13.617  44.626   5.864
 4587POPC   GL158765  13.579  44.707   6.164
 4587POPC   GL258766  13.603  44.774   6.164
 4587POPC   C1A58767  13.600  44.663   6.464
 4587POPC   D2A58768  13.665  44.637   6.764
 4587POPC   C3A58769  13.669  44.692   7.064
 4587POPC   C4A58770  13.667  44.632   7.364
 4587POPC   C1B58771  13.536  44.876   6.464
 4587POPC   C2B58772  13.461  44.893   6.764
 4587POPC   C3B58773  13.509  44.858   7.064
 4587POPC   C4B58774  13.503  44.847   7.364
 4588POPC   NC358775  33.829  14.397   5.564
 4588POPC   PO458776  33.778  14.359   5.864
 4588POPC   GL158777  33.792  14.424   6.164
 4588POPC   GL258778  33.657  14.446   6.164
 4588POPC   C1A58779  33.840  14.439   6.464
 4588POPC   D2A58780  33.801  14.369   6.764
 4588POPC   C3A58781  33.786  14.422   7.064
 4588POPC   C4A58782  33.768  14.363   7.364
 4588POPC   C1B58783  33.584  14.422   6.464
 4588POPC   C2B58784  33.546  14.479   6.764
 4588POPC   C3B58785  33.564  14.468   7.064
 4588POPC   C4B58786  33.547  14.492   7.364
 4589POPC   NC358787  10.569  35.335   5.564
 4589POPC   PO458788  10.549  35.342   5.864
 4589POPC   GL158789  10.506  35.399   6.164
 4589POPC   GL258790  10.555  35.272   6.164
 4589POPC   C1A58791  10.523  35.401   6.464
 4589POPC   D2A58792  10.559  35.332   6.764
 4589POPC   C3A58793  10.527  35.363   7.064
 4589POPC   C4A58794  10.543  35.322   7.364
 4589POPC   C1B58795  10.575  35.112   6.464
 4589POPC   C2B58796  10.587  35.157   6.764
 4589POPC   C3B58797  10.599  35.124   7.064
 4589POPC   C4B58798  10.651  35.109   7.364
 4590POPC   NC358799  34.624  33.051   5.564
 4590POPC   PO458800  34.539  33.028   5.864
 4590POPC   GL158801  34.554  33.056   6.164
 4590POPC   GL258802  34.546  32.937   6.164
 4590POPC   C1A58803  34.609  33.001   6.464
 4590POPC   D2A58804  34.572  33.011   6.764
 4590POPC   C3A58805  34.601  32.981   7.064
 4590POPC   C4A58806  34.624  33.007   7.364
 4590POPC   C1B58807  34.447  32.782   6.464
 4590POPC   C2B58808  34.456  32.762   6.764
 4590POPC   C3B58809  34.473  32.801   7.064
 4590POPC   C4B58810  34.509  32.811   7.364
 4591POPC   NC358811  13.647   8.238   5.564
 4591POPC   PO458812  13.607   8.164   5.864
 4591POPC   GL158813  13.622   8.203   6.164
 4591POPC   GL258814  13.521   8.281   6.164
 4591POPC   C1A58815  13.649   8.205   6.464
 4591POPC   D2A58816  13.667   8.239   6.764
 4591POPC   C3A58817  13.654   8.153   7.064
 4591POPC   C4A58818  13.669   8.221   7.364
 4591POPC   C1B58819  13.464   8.431   6.464
 4591POPC   C2B58820  13.435   8.372   6.764
 4591POPC   C3B58821  13.492   8.410   7.064
 4591POPC   C4B58822  13.446   8.427   7.364
 4592POPC   NC358823  19.033   8.948   5.564
 4592POPC   PO458824  19.009   8.938   5.864
 4592POPC   GL158825  19.039   8.954   6.164
 4592POPC   GL258826  19.052   9.129   6.164
 4592POPC   C1A58827  19.030   8.946   6.464
 4592POPC   D2A58828  19.030   8.975   6.764
 4592POPC   C3A58829  19.061   9.017   7.064
 4592POPC   C4A58830  19.102   8.928   7.364
 4592POPC   C1B58831  19.057   9.177   6.464
 4592POPC   C2B58832  19.023   9.211   6.764
 4592POPC   C3B58833  19.098   9.248   7.064
 4592POPC   C4B58834  19.022   9.272   7.364
 4593POPC   NC358835  30.662  26.824   5.564
 4593POPC   PO458836  30.727  26.821   5.864
 4593POPC   GL158837  30.688  26.846   6.164
 4593POPC   GL258838  30.736  26.672   6.164
 4593POPC   C1A58839  30.653  26.816   6.464
 4593POPC   D2A58840  30.704  26.773   6.764
 4593POPC   C3A58841  30.678  26.867   7.064
 4593POPC   C4A58842  30.729  26.861   7.364
 4593POPC   C1B58843  30.863  26.655   6.464
 4593POPC   C2B58844  30.833  26.650   6.764
 4593POPC   C3B58845  30.839  26.625   7.064
 4593POPC   C4B58846  30.883  26.627   7.364
 4594POPC   NC358847  43.912  16.727   5.564
 4594POPC   PO458848  43.843  16.709   5.864
 4594POPC   GL158849  43.878  16.696   6.164
 4594POPC   GL258850  43.850  16.840   6.164
 4594POPC   C1A58851  43.859  16.759   6.464
 4594POPC   D2A58852  43.886  16.737   6.764
 4594POPC   C3A58853  43.837  16.706   7.064
 4594POPC   C4A58854  43.910  16.703   7.364
 4594POPC   C1B58855  43.844  16.957   6.464
 4594POPC   C2B58856  43.904  17.005   6.764
 4594POPC   C3B58857  43.906  17.004   7.064
 4594POPC   C4B58858  43.860  16.950   7.364
 4595POPC   NC358859   4.348  43.091   5.564
 4595POPC   PO458860   4.275  43.068   5.864
 4595POPC   GL158861   4.313  43.138   6.164
 4595POPC   GL258862   4.147  43.146   6.164
 4595POPC   C1A58863   4.318  43.075   6.464
 4595POPC   D2A58864   4.295  43.086   6.764
 4595POPC   C3A58865   4.297  43.092   7.064
 4595POPC   C4A58866   4.328  43.085   7.364
 4595POPC   C1B58867   4.050  43.204   6.464
 4595POPC   C2B58868   4.111  43.125   6.764
 4595POPC   C3B58869   4.122  43.203   7.064
 4595POPC   C4B58870   4.064  43.138   7.364
 4596POPC   NC358871  29.885  25.226   5.564
 4596POPC   PO458872  29.884  25.282   5.864
 4596POPC   GL158873  29.941  25.218   6.164
 4596POPC   GL258874  29.811  25.319   6.164
 4596POPC   C1A58875  29.903  25.231   6.464
 4596POPC   D2A58876  29.922  25.282   6.764
 4596POPC   C3A58877  29.936  25.289   7.064
 4596POPC   C4A58878  29.871  25.230   7.364
 4596POPC   C1B58879  29.722  25.367   6.464
 4596POPC   C2B58880  29.647  25.294   6.764
 4596POPC   C3B58881  29.704  25.371   7.064
 4596POPC   C4B58882  29.712  25.324   7.364
 4597POPC   NC358883  32.978   9.752   5.564
 4597POPC   PO458884  33.018   9.719   5.864
 4597POPC   GL158885  32.998   9.722   6.164
 4597POPC   GL258886  33.026   9.900   6.164
 4597POPC   C1A58887  33.034   9.710   6.464
 4597POPC   D2A58888  33.059   9.703   6.764
 4597POPC   C3A58889  33.057   9.706   7.064
 4597POPC   C4A58890  32.998   9.738   7.364
 4597POPC   C1B58891  32.962   9.946   6.464
 4597POPC   C2B58892  32.971  10.036   6.764
 4597POPC   C3B58893  33.012  10.018   7.064
 4597POPC   C4B58894  32.920   9.952   7.364
 4598POPC   NC358895   5.821   7.439   5.564
 4598POPC   PO458896   5.844   7.412   5.864
 4598POPC   GL158897   5.897   7.441   6.164
 4598POPC   GL258898   5.786   7.512   6.164
 4598POPC   C1A58899   5.838   7.436   6.464
 4598POPC   D2A58900   5.890   7.449   6.764
 4598POPC   C3A58901   5.829   7.447   7.064
 4598POPC   C4A58902   5.862   7.432   7.364
 4598POPC   C1B58903   5.634   7.518   6.464
 4598POPC   C2B58904   5.687   7.581   6.764
 4598POPC   C3B58905   5.669   7.530   7.064
 4598POPC   C4B58906   5.679   7.493   7.364
 4599POPC   NC358907   7.392   1.263   5.564
 4599POPC   PO458908   7.401   1.216   5.864
 4599POPC   GL158909   7.402   1.227   6.164
 4599POPC   GL258910   7.412   1.343   6.164
 4599POPC   C1A58911   7.406   1.205   6.464
 4599POPC   D2A58912   7.411   1.233   6.764
 4599POPC   C3A58913   7.380   1.175   7.064
 4599POPC   C4A58914   7.421   1.195   7.364
 4599POPC   C1B58915   7.372   1.465   6.464
 4599POPC   C2B58916   7.369   1.474   6.764
 4599POPC   C3B58917   7.424   1.446   7.064
 4599POPC   C4B58918   7.341   1.479   7.364
 4600POPC   NC358919  40.770  10.533   5.564
 4600POPC   PO458920  40.815  10.544   5.864
 4600POPC   GL158921  40.767  10.523   6.164
 4600POPC   GL258922  40.875  10.648   6.164
 4600POPC   C1A58923  40.829  10.497   6.464
 4600POPC   D2A58924  40.772  10.509   6.764
 4600POPC   C3A58925  40.821  10.484   7.064
 4600POPC   C4A58926  40.755  10.544   7.364
 4600POPC   C1B58927  40.942  10.637   6.464
 4600POPC   C2B58928  40.991  10.651   6.764
 4600POPC   C3B58929  40.943  10.647   7.064
 4600POPC   C4B58930  41.009  10.664   7.364
 4601POPC   NC358931  30.741  12.839   5.564
 4601POPC   PO458932  30.746  12.897   5.864
 4601POPC   GL158933  30.729  12.810   6.164
 4601POPC   GL258934  30.704  12.964   6.164
 4601POPC   C1A58935  30.683  12.827   6.464
 4601POPC   D2A58936  30.715  12.808   6.764
 4601POPC   C3A58937  30.689  12.874   7.064
 4601POPC   C4A58938  30.703  12.869   7.364
 4601POPC   C1B58939  30.788  13.100   6.464
 4601POPC   C2B58940  30.796  13.124   6.764
 4601POPC   C3B58941  30.783  13.133   7.064
 4601POPC   C4B58942  30.731  13.060   7.364
 4602POPC   NC358943  12.895  42.365   5.564
 4602POPC   PO458944  12.896  42.303   5.864
 4602POPC   GL158945  12.815  42.296   6.164
 4602POPC   GL258946  12.759  42.397   6.164
 4602POPC   C1A58947  12.849  42.335   6.464
 4602POPC   D2A58948  12.809  42.364   6.764
 4602POPC   C3A58949  12.822  42.306   7.064
 4602POPC   C4A58950  12.837  42.372   7.364
 4602POPC   C1B58951  12.590  42.507   6.464
 4602POPC   C2B58952  12.625  42.469   6.764
 4602POPC   C3B58953  12.637  42.498   7.064
 4602POPC   C4B58954  12.671  42.503   7.364
 4603POPC   NC358955  14.435   4.273   5.564
 4603POPC   PO458956  14.421   4.343   5.864
 4603POPC   GL158957  14.438   4.360   6.164
 4603POPC   GL258958  14.440   4.398   6.164
 4603POPC   C1A58959  14.369   4.311   6.464
 4603POPC   D2A58960  14.449   4.332   6.764
 4603POPC   C3A58961  14.420   4.293   7.064
 4603POPC   C4A58962  14.360   4.327   7.364
 4603POPC   C1B58963  14.517   4.538   6.464
 4603POPC   C2B58964  14.547   4.548   6.764
 4603POPC   C3B58965  14.516   4.582   7.064
 4603POPC   C4B58966  14.479   4.561   7.364
 4604POPC   NC358967  12.027  15.176   5.564
 4604POPC   PO458968  12.084  15.204   5.864
 4604POPC   GL158969  12.121  15.172   6.164
 4604POPC   GL258970  12.008  15.286   6.164
 4604POPC   C1A58971  12.071  15.134   6.464
 4604POPC   D2A58972  12.063  15.218   6.764
 4604POPC   C3A58973  12.110  15.149   7.064
 4604POPC   C4A58974  12.027  15.225   7.364
 4604POPC   C1B58975  11.829  15.269   6.464
 4604POPC   C2B58976  11.870  15.357   6.764
 4604POPC   C3B58977  11.909  15.278   7.064
 4604POPC   C4B58978  11.905  15.318   7.364
 4605POPC   NC358979  19.815  28.356   5.564
 4605POPC   PO458980  19.873  28.371   5.864
 4605POPC   GL158981  19.785  28.389   6.164
 4605POPC   GL258982  19.981  28.409   6.164
 4605POPC   C1A58983  19.822  28.377   6.464
 4605POPC   D2A58984  19.850  28.383   6.764
 4605POPC   C3A58985  19.801  28.368   7.064
 4605POPC   C4A58986  19.810  28.411   7.364
 4605POPC   C1B58987  20.092  28.398   6.464
 4605POPC   C2B58988  20.042  28.350   6.764
 4605POPC   C3B58989  20.107  28.335   7.064
 4605POPC   C4B58990  20.055  28.331   7.364
 4606POPC   NC358991   2.778  10.545   5.564
 4606POPC   PO458992   2.743  10.488   5.864
 4606POPC   GL158993   2.724  10.536   6.164
 4606POPC   GL258994   2.821  10.593   6.164
 4606POPC   C1A58995   2.805  10.553   6.464
 4606POPC   D2A58996   2.733  10.516   6.764
 4606POPC   C3A58997   2.740  10.561   7.064
 4606POPC   C4A58998   2.728  10.549   7.364
 4606POPC   C1B58999   2.851  10.742   6.464
 4606POPC   C2B59000   2.886  10.764   6.764
 4606POPC   C3B59001   2.827  10.806   7.064
 4606POPC   C4B59002   2.820  10.730   7.364
 4607POPC   NC359003   5.850  27.602   5.564
 4607POPC   PO459004   5.869  27.592   5.864
 4607POPC   GL159005   5.839  27.640   6.164
 4607POPC   GL259006   6.007  27.576   6.164
 4607POPC   C1A59007   5.862  27.608   6.464
 4607POPC   D2A59008   5.873  27.571   6.764
 4607POPC   C3A59009   5.844  27.620   7.064
 4607POPC   C4A59010   5.862  27.621   7.364
 4607POPC   C1B59011   6.166  27.519   6.464
 4607POPC   C2B59012   6.087  27.524   6.764
 4607POPC   C3B59013   6.116  27.574   7.064
 4607POPC   C4B59014   6.145  27.544   7.364
 4608POPC   NC359015  10.506  34.531   5.564
 4608POPC   PO459016  10.547  34.553   5.864
 4608POPC   GL159017  10.500  34.607   6.164
 4608POPC   GL259018  10.421  34.598   6.164
 4608POPC   C1A59019  10.479  34.612   6.464
 4608POPC   D2A59020  10.531  34.563   6.764
 4608POPC   C3A59021  10.560  34.596   7.064
 4608POPC   C4A59022  10.572  34.577   7.364
 4608POPC   C1B59023  10.317  34.615   6.464
 4608POPC   C2B59024  10.323  34.651   6.764
 4608POPC   C3B59025  10.278  34.637   7.064
 4608POPC   C4B59026  10.299  34.591   7.364
 4609POPC   NC359027  35.329  43.151   5.564
 4609POPC   PO459028  35.310  43.100   5.864
 4609POPC   GL159029  35.386  43.085   6.164
 4609POPC   GL259030  35.253  42.990   6.164
 4609POPC   C1A59031  35.322  43.126   6.464
 4609POPC   D2A59032  35.398  43.112   6.764
 4609POPC   C3A59033  35.322  43.073   7.064
 4609POPC   C4A59034  35.302  43.142   7.364
 4609POPC   C1B59035  35.240  42.898   6.464
 4609POPC   C2B59036  35.209  42.870   6.764
 4609POPC   C3B59037  35.164  42.920   7.064
 4609POPC   C4B59038  35.158  42.896   7.364
 4610POPC   NC359039   2.798  33.826   5.564
 4610POPC   PO459040   2.716  33.806   5.864
 4610POPC   GL159041   2.772  33.805   6.164
 4610POPC   GL259042   2.601  33.805   6.164
 4610POPC   C1A59043   2.783  33.793   6.464
 4610POPC   D2A59044   2.787  33.795   6.764
 4610POPC   C3A59045   2.724  33.790   7.064
 4610POPC   C4A59046   2.812  33.750   7.364
 4610POPC   C1B59047   2.568  33.749   6.464
 4610POPC   C2B59048   2.523  33.741   6.764
 4610POPC   C3B59049   2.504  33.727   7.064
 4610POPC   C4B59050   2.504  33.784   7.364
 4611POPC   NC359051  14.436  17.474   5.564
 4611POPC   PO459052  14.377  17.482   5.864
 4611POPC   GL159053  14.402  17.528   6.164
 4611POPC   GL259054  14.318  17.489   6.164
 4611POPC   C1A59055  14.404  17.507   6.464
 4611POPC   D2A59056  14.374  17.512   6.764
 4611POPC   C3A59057  14.443  17.493   7.064
 4611POPC   C4A59058  14.428  17.549   7.364
 4611POPC   C1B59059  14.122  17.494   6.464
 4611POPC   C2B59060  14.157  17.483   6.764
 4611POPC   C3B59061  14.170  17.549   7.064
 4611POPC   C4B59062  14.191  17.536   7.364
 4612POPC   NC359063  19.828   8.953   5.564
 4612POPC   PO459064  19.790   8.975   5.864
 4612POPC   GL159065  19.830   8.965   6.164
 4612POPC   GL259066  19.675   8.961   6.164
 4612POPC   C1A59067  19.862   9.017   6.464
 4612POPC   D2A59068  19.877   8.940   6.764
 4612POPC   C3A59069  19.880   9.001   7.064
 4612POPC   C4A59070  19.786   8.965   7.364
 4612POPC   C1B59071  19.630   8.928   6.464
 4612POPC   C2B59072  19.602   8.894   6.764
 4612POPC   C3B59073  19.595   8.874   7.064
 4612POPC   C4B59074  19.584   8.890   7.364
 4613POPC   NC359075   1.191  25.281   5.564
 4613POPC   PO459076   1.201  25.257   5.864
 4613POPC   GL159077   1.258  25.260   6.164
 4613POPC   GL259078   1.188  25.428   6.164
 4613POPC   C1A59079   1.178  25.278   6.464
 4613POPC   D2A59080   1.262  25.273   6.764
 4613POPC   C3A59081   1.171  25.228   7.064
 4613POPC   C4A59082   1.227  25.222   7.364
 4613POPC   C1B59083   1.073  25.487   6.464
 4613POPC   C2B59084   1.129  25.448   6.764
 4613POPC   C3B59085   1.138  25.463   7.064
 4613POPC   C4B59086   1.119  25.510   7.364
 4614POPC   NC359087  14.427   8.962   5.564
 4614POPC   PO459088  14.414   9.000   5.864
 4614POPC   GL159089  14.387   8.992   6.164
 4614POPC   GL259090  14.526   8.955   6.164
 4614POPC   C1A59091  14.408   8.927   6.464
 4614POPC   D2A59092  14.406   8.975   6.764
 4614POPC   C3A59093  14.432   8.950   7.064
 4614POPC   C4A59094  14.451   8.968   7.364
 4614POPC   C1B59095  14.632   8.922   6.464
 4614POPC   C2B59096  14.616   8.933   6.764
 4614POPC   C3B59097  14.650   8.930   7.064
 4614POPC   C4B59098  14.686   8.944   7.364
 4615POPC   NC359099  29.950  40.736   5.564
 4615POPC   PO459100  29.953  40.740   5.864
 4615POPC   GL159101  29.952  40.815   6.164
 4615POPC   GL259102  29.858  40.688   6.164
 4615POPC   C1A59103  29.930  40.784   6.464
 4615POPC   D2A59104  29.943  40.768   6.764
 4615POPC   C3A59105  29.959  40.755   7.064
 4615POPC   C4A59106  29.923  40.798   7.364
 4615POPC   C1B59107  29.759  40.641   6.464
 4615POPC   C2B59108  29.753  40.628   6.764
 4615POPC   C3B59109  29.698  40.621   7.064
 4615POPC   C4B59110  29.683  40.616   7.364
 4616POPC   NC359111  26.796  25.270   5.564
 4616POPC   PO459112  26.857  25.237   5.864
 4616POPC   GL159113  26.845  25.248   6.164
 4616POPC   GL259114  26.900  25.355   6.164
 4616POPC   C1A59115  26.815  25.217   6.464
 4616POPC   D2A59116  26.842  25.295   6.764
 4616POPC   C3A59117  26.783  25.223   7.064
 4616POPC   C4A59118  26.844  25.290   7.364
 4616POPC   C1B59119  27.087  25.377   6.464
 4616POPC   C2B59120  27.022  25.419   6.764
 4616POPC   C3B59121  27.031  25.336   7.064
 4616POPC   C4B59122  27.074  25.416   7.364
 4617POPC   NC359123   0.485   3.568   5.564
 4617POPC   PO459124   0.391   3.543   5.864
 4617POPC   GL159125   0.453   3.575   6.164
 4617POPC   GL259126   0.438   3.422   6.164
 4617POPC   C1A59127   0.460   3.570   6.464
 4617POPC   D2A59128   0.388   3.545   6.764
 4617POPC   C3A59129   0.468   3.537   7.064
 4617POPC   C4A59130   0.390   3.535   7.364
 4617POPC   C1B59131   0.525   3.271   6.464
 4617POPC   C2B59132   0.461   3.333   6.764
 4617POPC   C3B59133   0.468   3.252   7.064
 4617POPC   C4B59134   0.517   3.263   7.364
 4618POPC   NC359135   6.613  14.441   5.564
 4618POPC   PO459136   6.687  14.423   5.864
 4618POPC   GL159137   6.604  14.446   6.164
 4618POPC   GL259138   6.726  14.473   6.164
 4618POPC   C1A59139   6.665  14.384   6.464
 4618POPC   D2A59140   6.653  14.400   6.764
 4618POPC   C3A59141   6.607  14.380   7.064
 4618POPC   C4A59142   6.689  14.358   7.364
 4618POPC   C1B59143   6.766  14.614   6.464
 4618POPC   C2B59144   6.821  14.603   6.764
 4618POPC   C3B59145   6.763  14.611   7.064
 4618POPC   C4B59146   6.768  14.607   7.364
 4619POPC   NC359147  26.822  26.782   5.564
 4619POPC   PO459148  26.829  26.775   5.864
 4619POPC   GL159149  26.865  26.770   6.164
 4619POPC   GL259150  26.747  26.905   6.164
 4619POPC   C1A59151  26.768  26.835   6.464
 4619POPC   D2A59152  26.825  26.823   6.764
 4619POPC   C3A59153  26.775  26.789   7.064
 4619POPC   C4A59154  26.780  26.853   7.364
 4619POPC   C1B59155  26.611  27.012   6.464
 4619POPC   C2B59156  26.591  27.034   6.764
 4619POPC   C3B59157  26.592  26.950   7.064
 4619POPC   C4B59158  26.686  26.960   7.364
 4620POPC   NC359159  20.599   6.648   5.564
 4620POPC   PO459160  20.599   6.595   5.864
 4620POPC   GL159161  20.605   6.653   6.164
 4620POPC   GL259162  20.556   6.513   6.164
 4620POPC   C1A59163  20.607   6.692   6.464
 4620POPC   D2A59164  20.609   6.659   6.764
 4620POPC   C3A59165  20.608   6.677   7.064
 4620POPC   C4A59166  20.614   6.652   7.364
 4620POPC   C1B59167  20.557   6.419   6.464
 4620POPC   C2B59168  20.607   6.418   6.764
 4620POPC   C3B59169  20.641   6.434   7.064
 4620POPC   C4B59170  20.642   6.433   7.364
 4621POPC   NC359171  19.090  12.865   5.564
 4621POPC   PO459172  19.055  12.866   5.864
 4621POPC   GL159173  19.044  12.893   6.164
 4621POPC   GL259174  19.195  12.927   6.164
 4621POPC   C1A59175  19.075  12.807   6.464
 4621POPC   D2A59176  19.091  12.852   6.764
 4621POPC   C3A59177  19.015  12.860   7.064
 4621POPC   C4A59178  19.010  12.887   7.364
 4621POPC   C1B59179  19.255  12.908   6.464
 4621POPC   C2B59180  19.310  12.940   6.764
 4621POPC   C3B59181  19.268  12.906   7.064
 4621POPC   C4B59182  19.271  12.883   7.364
 4622POPC   NC359183  24.539   3.586   5.564
 4622POPC   PO459184  24.451   3.546   5.864
 4622POPC   GL159185  24.500   3.546   6.164
 4622POPC   GL259186  24.502   3.644   6.164
 4622POPC   C1A59187  24.458   3.506   6.464
 4622POPC   D2A59188  24.504   3.560   6.764
 4622POPC   C3A59189  24.536   3.543   7.064
 4622POPC   C4A59190  24.470   3.540   7.364
 4622POPC   C1B59191  24.602   3.744   6.464
 4622POPC   C2B59192  24.602   3.722   6.764
 4622POPC   C3B59193  24.600   3.734   7.064
 4622POPC   C4B59194  24.591   3.752   7.364
 4623POPC   NC359195  36.950  13.642   5.564
 4623POPC   PO459196  36.895  13.599   5.864
 4623POPC   GL159197  36.878  13.600   6.164
 4623POPC   GL259198  37.002  13.542   6.164
 4623POPC   C1A59199  36.890  13.635   6.464
 4623POPC   D2A59200  36.868  13.639   6.764
 4623POPC   C3A59201  36.924  13.624   7.064
 4623POPC   C4A59202  36.874  13.584   7.364
 4623POPC   C1B59203  37.084  13.498   6.464
 4623POPC   C2B59204  37.148  13.515   6.764
 4623POPC   C3B59205  37.112  13.495   7.064
 4623POPC   C4B59206  37.133  13.503   7.364
 4624POPC   NC359207  37.705  12.093   5.564
 4624POPC   PO459208  37.642  12.053   5.864
 4624POPC   GL159209  37.660  12.111   6.164
 4624POPC   GL259210  37.850  12.103   6.164
 4624POPC   C1A59211  37.673  12.091   6.464
 4624POPC   D2A59212  37.665  12.113   6.764
 4624POPC   C3A59213  37.718  12.092   7.064
 4624POPC   C4A59214  37.639  12.038   7.364
 4624POPC   C1B59215  37.975  12.044   6.464
 4624POPC   C2B59216  37.909  12.052   6.764
 4624POPC   C3B59217  37.889  12.051   7.064
 4624POPC   C4B59218  37.920  12.042   7.364
 4625POPC   NC359219  25.272  23.696   5.564
 4625POPC   PO459220  25.234  23.713   5.864
 4625POPC   GL159221  25.244  23.721   6.164
 4625POPC   GL259222  25.304  23.849   6.164
 4625POPC   C1A59223  25.250  23.698   6.464
 4625POPC   D2A59224  25.307  23.712   6.764
 4625POPC   C3A59225  25.281  23.690   7.064
 4625POPC   C4A59226  25.231  23.755   7.364
 4625POPC   C1B59227  25.435  23.963   6.464
 4625POPC   C2B59228  25.459  23.885   6.764
 4625POPC   C3B59229  25.432  23.952   7.064
 4625POPC   C4B59230  25.384  23.871   7.364
 4626POPC   NC359231   1.969  25.304   5.564
 4626POPC   PO459232   1.955  25.265   5.864
 4626POPC   GL159233   2.033  25.276   6.164
 4626POPC   GL259234   1.899  25.189   6.164
 4626POPC   C1A59235   1.950  25.252   6.464
 4626POPC   D2A59236   1.954  25.218   6.764
 4626POPC   C3A59237   1.993  25.217   7.064
 4626POPC   C4A59238   2.033  25.255   7.364
 4626POPC   C1B59239   1.847  25.057   6.464
 4626POPC   C2B59240   1.870  25.008   6.764
 4626POPC   C3B59241   1.879  25.044   7.064
 4626POPC   C4B59242   1.925  25.074   7.364
 4627POPC   NC359243  16.701  39.185   5.564
 4627POPC   PO459244  16.768  39.278   5.864
 4627POPC   GL159245  16.742  39.219   6.164
 4627POPC   GL259246  16.605  39.352   6.164
 4627POPC   C1A59247  16.766  39.213   6.464
 4627POPC   D2A59248  16.691  39.211   6.764
 4627POPC   C3A59249  16.735  39.247   7.064
 4627POPC   C4A59250  16.774  39.243   7.364
 4627POPC   C1B59251  16.524  39.399   6.464
 4627POPC   C2B59252  16.498  39.367   6.764
 4627POPC   C3B59253  16.532  39.415   7.064
 4627POPC   C4B59254  16.573  39.415   7.364
 4628POPC   NC359255  37.642  12.833   5.564
 4628POPC   PO459256  37.696  12.848   5.864
 4628POPC   GL159257  37.674  12.839   6.164
 4628POPC   GL259258  37.731  12.964   6.164
 4628POPC   C1A59259  37.645  12.890   6.464
 4628POPC   D2A59260  37.721  12.844   6.764
 4628POPC   C3A59261  37.648  12.858   7.064
 4628POPC   C4A59262  37.726  12.843   7.364
 4628POPC   C1B59263  37.728  13.113   6.464
 4628POPC   C2B59264  37.733  13.116   6.764
 4628POPC   C3B59265  37.743  13.144   7.064
 4628POPC   C4B59266  37.673  13.116   7.364
 4629POPC   NC359267  15.209  33.028   5.564
 4629POPC   PO459268  15.229  33.018   5.864
 4629POPC   GL159269  15.224  33.032   6.164
 4629POPC   GL259270  15.344  33.097   6.164
 4629POPC   C1A59271  15.144  33.003   6.464
 4629POPC   D2A59272  15.153  33.040   6.764
 4629POPC   C3A59273  15.188  33.064   7.064
 4629POPC   C4A59274  15.193  32.994   7.364
 4629POPC   C1B59275  15.381  33.103   6.464
 4629POPC   C2B59276  15.438  33.135   6.764
 4629POPC   C3B59277  15.453  33.141   7.064
 4629POPC   C4B59278  15.441  33.151   7.364
 4630POPC   NC359279  25.257  32.996   5.564
 4630POPC   PO459280  25.295  33.019   5.864
 4630POPC   GL159281  25.315  33.066   6.164
 4630POPC   GL259282  25.406  33.061   6.164
 4630POPC   C1A59283  25.289  33.048   6.464
 4630POPC   D2A59284  25.241  33.013   6.764
 4630POPC   C3A59285  25.240  32.993   7.064
 4630POPC   C4A59286  25.241  32.991   7.364
 4630POPC   C1B59287  25.513  33.019   6.464
 4630POPC   C2B59288  25.477  33.080   6.764
 4630POPC   C3B59289  25.500  33.055   7.064
 4630POPC   C4B59290  25.515  33.038   7.364
 4631POPC   NC359291  36.167   9.016   5.564
 4631POPC   PO459292  36.091   9.005   5.864
 4631POPC   GL159293  36.106   8.939   6.164
 4631POPC   GL259294  36.210   9.038   6.164
 4631POPC   C1A59295  36.174   8.955   6.464
 4631POPC   D2A59296  36.083   9.021   6.764
 4631POPC   C3A59297  36.096   9.002   7.064
 4631POPC   C4A59298  36.139   8.947   7.364
 4631POPC   C1B59299  36.246   9.169   6.464
 4631POPC   C2B59300  36.268   9.213   6.764
 4631POPC   C3B59301  36.251   9.219   7.064
 4631POPC   C4B59302  36.315   9.133   7.364
 4632POPC   NC359303  20.632  25.288   5.564
 4632POPC   PO459304  20.655  25.300   5.864
 4632POPC   GL159305  20.645  25.300   6.164
 4632POPC   GL259306  20.579  25.162   6.164
 4632POPC   C1A59307  20.610  25.307   6.464
 4632POPC   D2A59308  20.597  25.276   6.764
 4632POPC   C3A59309  20.620  25.242   7.064
 4632POPC   C4A59310  20.590  25.226   7.364
 4632POPC   C1B59311  20.675  24.976   6.464
 4632POPC   C2B59312  20.590  25.041   6.764
 4632POPC   C3B59313  20.656  25.010   7.064
 4632POPC   C4B59314  20.639  25.011   7.364
 4633POPC   NC359315  24.464   5.141   5.564
 4633POPC   PO459316  24.441   5.076   5.864
 4633POPC   GL159317  24.465   5.077   6.164
 4633POPC   GL259318  24.603   5.150   6.164
 4633POPC   C1A59319  24.478   5.068   6.464
 4633POPC   D2A59320  24.443   5.126   6.764
 4633POPC   C3A59321  24.520   5.123   7.064
 4633POPC   C4A59322  24.451   5.106   7.364
 4633POPC   C1B59323  24.625   5.285   6.464
 4633POPC   C2B59324  24.608   5.329   6.764
 4633POPC   C3B59325  24.593   5.315   7.064
 4633POPC   C4B59326  24.671   5.303   7.364
 4634POPC   NC359327   3.541  21.398   5.564
 4634POPC   PO459328   3.562  21.416   5.864
 4634POPC   GL159329   3.508  21.431   6.164
 4634POPC   GL259330   3.508  21.479   6.164
 4634POPC   C1A59331   3.566  21.370   6.464
 4634POPC   D2A59332   3.534  21.354   6.764
 4634POPC   C3A59333   3.556  21.417   7.064
 4634POPC   C4A59334   3.497  21.422   7.364
 4634POPC   C1B59335   3.425  21.541   6.464
 4634POPC   C2B59336   3.416  21.636   6.764
 4634POPC   C3B59337   3.416  21.547   7.064
 4634POPC   C4B59338   3.419  21.575   7.364
 4635POPC   NC359339  18.303  36.952   5.564
 4635POPC   PO459340  18.298  36.874   5.864
 4635POPC   GL159341  18.261  36.864   6.164
 4635POPC   GL259342  18.272  36.739   6.164
 4635POPC   C1A59343  18.269  36.946   6.464
 4635POPC   D2A59344  18.249  36.877   6.764
 4635POPC   C3A59345  18.265  36.880   7.064
 4635POPC   C4A59346  18.242  36.872   7.364
 4635POPC   C1B59347  18.251  36.636   6.464
 4635POPC   C2B59348  18.323  36.619   6.764
 4635POPC   C3B59349  18.278  36.627   7.064
 4635POPC   C4B59350  18.310  36.696   7.364
 4636POPC   NC359351  26.861  13.630   5.564
 4636POPC   PO459352  26.798  13.654   5.864
 4636POPC   GL159353  26.851  13.579   6.164
 4636POPC   GL259354  26.910  13.736   6.164
 4636POPC   C1A59355  26.810  13.658   6.464
 4636POPC   D2A59356  26.820  13.610   6.764
 4636POPC   C3A59357  26.850  13.639   7.064
 4636POPC   C4A59358  26.858  13.640   7.364
 4636POPC   C1B59359  27.048  13.714   6.464
 4636POPC   C2B59360  27.055  13.716   6.764
 4636POPC   C3B59361  27.002  13.792   7.064
 4636POPC   C4B59362  27.021  13.771   7.364
 4637POPC   NC359363   5.856  29.915   5.564
 4637POPC   PO459364   5.832  29.915   5.864
 4637POPC   GL159365   5.881  29.969   6.164
 4637POPC   GL259366   5.935  29.980   6.164
 4637POPC   C1A59367   5.918  29.962   6.464
 4637POPC   D2A59368   5.834  29.880   6.764
 4637POPC   C3A59369   5.910  29.948   7.064
 4637POPC   C4A59370   5.906  29.954   7.364
 4637POPC   C1B59371   6.029  30.059   6.464
 4637POPC   C2B59372   6.086  30.107   6.764
 4637POPC   C3B59373   6.115  30.074   7.064
 4637POPC   C4B59374   6.104  30.064   7.364
 4638POPC   NC359375   1.208  24.452   5.564
 4638POPC   PO459376   1.253  24.447   5.864
 4638POPC   GL159377   1.251  24.512   6.164
 4638POPC   GL259378   1.077  24.517   6.164
 4638POPC   C1A59379   1.185  24.456   6.464
 4638POPC   D2A59380   1.174  24.498   6.764
 4638POPC   C3A59381   1.242  24.442   7.064
 4638POPC   C4A59382   1.180  24.523   7.364
 4638POPC   C1B59383   0.936  24.553   6.464
 4638POPC   C2B59384   0.954  24.602   6.764
 4638POPC   C3B59385   0.950  24.599   7.064
 4638POPC   C4B59386   0.980  24.612   7.364
 4639POPC   NC359387  34.606  14.375   5.564
 4639POPC   PO459388  34.585  14.391   5.864
 4639POPC   GL159389  34.561  14.445   6.164
 4639POPC   GL259390  34.517  14.475   6.164
 4639POPC   C1A59391  34.528  14.426   6.464
 4639POPC   D2A59392  34.624  14.426   6.764
 4639POPC   C3A59393  34.603  14.371   7.064
 4639POPC   C4A59394  34.566  14.374   7.364
 4639POPC   C1B59395  34.501  14.614   6.464
 4639POPC   C2B59396  34.514  14.628   6.764
 4639POPC   C3B59397  34.543  14.656   7.064
 4639POPC   C4B59398  34.468  14.640   7.364
 4640POPC   NC359399  33.776   1.218   5.564
 4640POPC   PO459400  33.759   1.213   5.864
 4640POPC   GL159401  33.802   1.254   6.164
 4640POPC   GL259402  33.870   1.067   6.164
 4640POPC   C1A59403  33.752   1.258   6.464
 4640POPC   D2A59404  33.786   1.184   6.764
 4640POPC   C3A59405  33.753   1.177   7.064
 4640POPC   C4A59406  33.818   1.197   7.364
 4640POPC   C1B59407  33.843   0.956   6.464
 4640POPC   C2B59408  33.868   0.941   6.764
 4640POPC   C3B59409  33.802   0.927   7.064
 4640POPC   C4B59410  33.838   1.016   7.364
 4641POPC   NC359411  41.606  23.690   5.564
 4641POPC   PO459412  41.517  23.690   5.864
 4641POPC   GL159413  41.586  23.697   6.164
 4641POPC   GL259414  41.509  23.859   6.164
 4641POPC   C1A59415  41.581  23.686   6.464
 4641POPC   D2A59416  41.577  23.753   6.764
 4641POPC   C3A59417  41.555  23.747   7.064
 4641POPC   C4A59418  41.606  23.735   7.364
 4641POPC   C1B59419  41.485  23.964   6.464
 4641POPC   C2B59420  41.468  23.988   6.764
 4641POPC   C3B59421  41.462  23.975   7.064
 4641POPC   C4B59422  41.521  24.000   7.364
 4642POPC   NC359423  20.573  36.928   5.564
 4642POPC   PO459424  20.652  36.878   5.864
 4642POPC   GL159425  20.644  36.858   6.164
 4642POPC   GL259426  20.721  36.858   6.164
 4642POPC   C1A59427  20.633  36.891   6.464
 4642POPC   D2A59428  20.621  36.902   6.764
 4642POPC   C3A59429  20.629  36.860   7.064
 4642POPC   C4A59430  20.624  36.875   7.364
 4642POPC   C1B59431  20.797  36.691   6.464
 4642POPC   C2B59432  20.789  36.753   6.764
 4642POPC   C3B59433  20.748  36.725   7.064
 4642POPC   C4B59434  20.830  36.676   7.364
 4643POPC   NC359435   9.761  40.764   5.564
 4643POPC   PO459436   9.777  40.743   5.864
 4643POPC   GL159437   9.700  40.739   6.164
 4643POPC   GL259438   9.679  40.909   6.164
 4643POPC   C1A59439   9.758  40.829   6.464
 4643POPC   D2A59440   9.767  40.801   6.764
 4643POPC   C3A59441   9.766  40.771   7.064
 4643POPC   C4A59442   9.774  40.771   7.364
 4643POPC   C1B59443   9.712  41.017   6.464
 4643POPC   C2B59444   9.687  41.054   6.764
 4643POPC   C3B59445   9.637  41.001   7.064
 4643POPC   C4B59446   9.624  41.043   7.364
 4644POPC   NC359447  25.239  43.931   5.564
 4644POPC   PO459448  25.287  43.847   5.864
 4644POPC   GL159449  25.224  43.869   6.164
 4644POPC   GL259450  25.124  43.763   6.164
 4644POPC   C1A59451  25.237  43.841   6.464
 4644POPC   D2A59452  25.269  43.837   6.764
 4644POPC   C3A59453  25.263  43.920   7.064
 4644POPC   C4A59454  25.221  43.837   7.364
 4644POPC   C1B59455  25.122  43.730   6.464
 4644POPC   C2B59456  25.053  43.739   6.764
 4644POPC   C3B59457  25.034  43.725   7.064
 4644POPC   C4B59458  25.086  43.743   7.364
 4645POPC   NC359459  40.050  26.027   5.564
 4645POPC   PO459460  40.034  25.995   5.864
 4645POPC   GL159461  40.019  26.045   6.164
 4645POPC   GL259462  39.895  26.032   6.164
 4645POPC   C1A59463  39.981  26.085   6.464
 4645POPC   D2A59464  39.986  26.019   6.764
 4645POPC   C3A59465  40.056  26.020   7.064
 4645POPC   C4A59466  39.970  26.086   7.364
 4645POPC   C1B59467  39.767  25.964   6.464
 4645POPC   C2B59468  39.734  25.987   6.764
 4645POPC   C3B59469  39.760  25.964   7.064
 4645POPC   C4B59470  39.732  25.966   7.364
 4646POPC   NC359471  12.082  38.411   5.564
 4646POPC   PO459472  12.108  38.476   5.864
 4646POPC   GL159473  12.097  38.433   6.164
 4646POPC   GL259474  11.993  38.512   6.164
 4646POPC   C1A59475  12.101  38.479   6.464
 4646POPC   D2A59476  12.048  38.446   6.764
 4646POPC   C3A59477  12.083  38.450   7.064
 4646POPC   C4A59478  12.081  38.419   7.364
 4646POPC   C1B59479  11.936  38.663   6.464
 4646POPC   C2B59480  11.955  38.627   6.764
 4646POPC   C3B59481  11.923  38.603   7.064
 4646POPC   C4B59482  11.904  38.645   7.364
 4647POPC   NC359483  40.749  19.822   5.564
 4647POPC   PO459484  40.831  19.814   5.864
 4647POPC   GL159485  40.742  19.808   6.164
 4647POPC   GL259486  40.705  19.715   6.164
 4647POPC   C1A59487  40.753  19.806   6.464
 4647POPC   D2A59488  40.772  19.808   6.764
 4647POPC   C3A59489  40.805  19.804   7.064
 4647POPC   C4A59490  40.738  19.814   7.364
 4647POPC   C1B59491  40.654  19.599   6.464
 4647POPC   C2B59492  40.666  19.603   6.764
 4647POPC   C3B59493  40.690  19.583   7.064
 4647POPC   C4B59494  40.637  19.648   7.364
 4648POPC   NC359495  34.611  20.613   5.564
 4648POPC   PO459496  34.541  20.613   5.864
 4648POPC   GL159497  34.588  20.621   6.164
 4648POPC   GL259498  34.590  20.505   6.164
 4648POPC   C1A59499  34.601  20.627   6.464
 4648POPC   D2A59500  34.595  20.584   6.764
 4648POPC   C3A59501  34.583  20.578   7.064
 4648POPC   C4A59502  34.535  20.610   7.364
 4648POPC   C1B59503  34.524  20.366   6.464
 4648POPC   C2B59504  34.499  20.342   6.764
 4648POPC   C3B59505  34.523  20.349   7.064
 4648POPC   C4B59506  34.490  20.390   7.364
 4649POPC   NC359507  35.311  40.033   5.564
 4649POPC   PO459508  35.304  40.027   5.864
 4649POPC   GL159509  35.375  40.050   6.164
 4649POPC   GL259510  35.416  39.849   6.164
 4649POPC   C1A59511  35.329  40.032   6.464
 4649POPC   D2A59512  35.318  39.979   6.764
 4649POPC   C3A59513  35.334  40.016   7.064
 4649POPC   C4A59514  35.335  39.995   7.364
 4649POPC   C1B59515  35.421  39.818   6.464
 4649POPC   C2B59516  35.434  39.755   6.764
 4649POPC   C3B59517  35.411  39.787   7.064
 4649POPC   C4B59518  35.383  39.735   7.364
 4650POPC   NC359519  10.495  21.338   5.564
 4650POPC   PO459520  10.569  21.397   5.864
 4650POPC   GL159521  10.483  21.362   6.164
 4650POPC   GL259522  10.500  21.280   6.164
 4650POPC   C1A59523  10.571  21.348   6.464
 4650POPC   D2A59524  10.566  21.350   6.764
 4650POPC   C3A59525  10.479  21.374   7.064
 4650POPC   C4A59526  10.530  21.380   7.364
 4650POPC   C1B59527  10.355  21.130   6.464
 4650POPC   C2B59528  10.367  21.216   6.764
 4650POPC   C3B59529  10.352  21.205   7.064
 4650POPC   C4B59530  10.428  21.146   7.364
 4651POPC   NC359531  11.331  41.515   5.564
 4651POPC   PO459532  11.262  41.511   5.864
 4651POPC   GL159533  11.336  41.531   6.164
 4651POPC   GL259534  11.419  41.572   6.164
 4651POPC   C1A59535  11.291  41.597   6.464
 4651POPC   D2A59536  11.349  41.509   6.764
 4651POPC   C3A59537  11.342  41.531   7.064
 4651POPC   C4A59538  11.282  41.509   7.364
 4651POPC   C1B59539  11.587  41.588   6.464
 4651POPC   C2B59540  11.506  41.643   6.764
 4651POPC   C3B59541  11.568  41.576   7.064
 4651POPC   C4B59542  11.516  41.638   7.364
 4652POPC   NC359543  18.317  18.318   5.564
 4652POPC   PO459544  18.258  18.266   5.864
 4652POPC   GL159545  18.321  18.273   6.164
 4652POPC   GL259546  18.211  18.399   6.164
 4652POPC   C1A59547  18.299  18.264   6.464
 4652POPC   D2A59548  18.300  18.267   6.764
 4652POPC   C3A59549  18.300  18.283   7.064
 4652POPC   C4A59550  18.308  18.285   7.364
 4652POPC   C1B59551  18.158  18.486   6.464
 4652POPC   C2B59552  18.136  18.501   6.764
 4652POPC   C3B59553  18.146  18.538   7.064
 4652POPC   C4B59554  18.125  18.516   7.364
 4653POPC   NC359555  31.485  21.339   5.564
 4653POPC   PO459556  31.476  21.400   5.864
 4653POPC   GL159557  31.438  21.429   6.164
 4653POPC   GL259558  31.435  21.302   6.164
 4653POPC   C1A59559  31.433  21.429   6.464
 4653POPC   D2A59560  31.506  21.383   6.764
 4653POPC   C3A59561  31.489  21.357   7.064
 4653POPC   C4A59562  31.451  21.366   7.364
 4653POPC   C1B59563  31.396  21.198   6.464
 4653POPC   C2B59564  31.375  21.118   6.764
 4653POPC   C3B59565  31.338  21.132   7.064
 4653POPC   C4B59566  31.396  21.128   7.364
 4654POPC   NC359567   5.900  33.000   5.564
 4654POPC   PO459568   5.909  33.055   5.864
 4654POPC   GL159569   5.835  32.990   6.164
 4654POPC   GL259570   5.857  33.128   6.164
 4654POPC   C1A59571   5.842  32.998   6.464
 4654POPC   D2A59572   5.902  32.997   6.764
 4654POPC   C3A59573   5.850  33.050   7.064
 4654POPC   C4A59574   5.874  33.059   7.364
 4654POPC   C1B59575   5.817  33.273   6.464
 4654POPC   C2B59576   5.811  33.251   6.764
 4654POPC   C3B59577   5.878  33.297   7.064
 4654POPC   C4B59578   5.803  33.272   7.364
 4655POPC   NC359579   1.263  12.075   5.564
 4655POPC   PO459580   1.260  12.060   5.864
 4655POPC   GL159581   1.176  12.065   6.164
 4655POPC   GL259582   1.191  12.219   6.164
 4655POPC   C1A59583   1.179  12.059   6.464
 4655POPC   D2A59584   1.177  12.043   6.764
 4655POPC   C3A59585   1.230  12.037   7.064
 4655POPC   C4A59586   1.235  12.086   7.364
 4655POPC   C1B59587   1.195  12.373   6.464
 4655POPC   C2B59588   1.165  12.306   6.764
 4655POPC   C3B59589   1.164  12.373   7.064
 4655POPC   C4B59590   1.237  12.276   7.364
 4656POPC   NC359591  22.895  27.612   5.564
 4656POPC   PO459592  22.955  27.574   5.864
 4656POPC   GL159593  22.925  27.595   6.164
 4656POPC   GL259594  22.815  27.516   6.164
 4656POPC   C1A59595  22.920  27.630   6.464
 4656POPC   D2A59596  22.940  27.612   6.764
 4656POPC   C3A59597  22.896  27.629   7.064
 4656POPC   C4A59598  22.941  27.632   7.364
 4656POPC   C1B59599  22.690  27.552   6.464
 4656POPC   C2B59600  22.734  27.477   6.764
 4656POPC   C3B59601  22.718  27.564   7.064
 4656POPC   C4B59602  22.721  27.562   7.364
 4657POPC   NC359603  30.714  15.215   5.564
 4657POPC   PO459604  30.729  15.210   5.864
 4657POPC   GL159605  30.732  15.174   6.164
 4657POPC   GL259606  30.532  15.227   6.164
 4657POPC   C1A59607  30.648  15.206   6.464
 4657POPC   D2A59608  30.682  15.143   6.764
 4657POPC   C3A59609  30.670  15.177   7.064
 4657POPC   C4A59610  30.744  15.147   7.364
 4657POPC   C1B59611  30.490  15.271   6.464
 4657POPC   C2B59612  30.473  15.267   6.764
 4657POPC   C3B59613  30.418  15.184   7.064
 4657POPC   C4B59614  30.435  15.225   7.364
 4658POPC   NC359615   4.316   1.235   5.564
 4658POPC   PO459616   4.275   1.243   5.864
 4658POPC   GL159617   4.344   1.249   6.164
 4658POPC   GL259618   4.189   1.274   6.164
 4658POPC   C1A59619   4.328   1.259   6.464
 4658POPC   D2A59620   4.357   1.171   6.764
 4658POPC   C3A59621   4.292   1.205   7.064
 4658POPC   C4A59622   4.309   1.234   7.364
 4658POPC   C1B59623   4.117   1.237   6.464
 4658POPC   C2B59624   4.102   1.305   6.764
 4658POPC   C3B59625   4.108   1.240   7.064
 4658POPC   C4B59626   4.111   1.229   7.364
 4659POPC   NC359627  18.286  43.866   5.564
 4659POPC   PO459628  18.320  43.875   5.864
 4659POPC   GL159629  18.248  43.891   6.164
 4659POPC   GL259630  18.284  43.965   6.164
 4659POPC   C1A59631  18.276  43.877   6.464
 4659POPC   D2A59632  18.309  43.838   6.764
 4659POPC   C3A59633  18.253  43.916   7.064
 4659POPC   C4A59634  18.308  43.876   7.364
 4659POPC   C1B59635  18.326  44.076   6.464
 4659POPC   C2B59636  18.328  44.170   6.764
 4659POPC   C3B59637  18.318  44.100   7.064
 4659POPC   C4B59638  18.326  44.113   7.364
 4660POPC   NC359639  22.133   5.893   5.564
 4660POPC   PO459640  22.157   5.835   5.864
 4660POPC   GL159641  22.123   5.857   6.164
 4660POPC   GL259642  22.270   5.756   6.164
 4660POPC   C1A59643  22.191   5.874   6.464
 4660POPC   D2A59644  22.185   5.870   6.764
 4660POPC   C3A59645  22.163   5.843   7.064
 4660POPC   C4A59646  22.161   5.838   7.364
 4660POPC   C1B59647  22.280   5.681   6.464
 4660POPC   C2B59648  22.282   5.665   6.764
 4660POPC   C3B59649  22.306   5.677   7.064
 4660POPC   C4B59650  22.278   5.635   7.364
 4661POPC   NC359651  39.251   5.143   5.564
 4661POPC   PO459652  39.247   5.061   5.864
 4661POPC   GL159653  39.262   5.141   6.164
 4661POPC   GL259654  39.142   5.259   6.164
 4661POPC   C1A59655  39.183   5.132   6.464
 4661POPC   D2A59656  39.204   5.102   6.764
 4661POPC   C3A59657  39.242   5.109   7.064
 4661POPC   C4A59658  39.257   5.141   7.364
 4661POPC   C1B59659  39.173   5.296   6.464
 4661POPC   C2B59660  39.126   5.355   6.764
 4661POPC   C3B59661  39.144   5.329   7.064
 4661POPC   C4B59662  39.140   5.328   7.364
 4662POPC   NC359663   5.850  12.885   5.564
 4662POPC   PO459664   5.883  12.827   5.864
 4662POPC   GL159665   5.825  12.901   6.164
 4662POPC   GL259666   5.885  12.762   6.164
 4662POPC   C1A59667   5.850  12.824   6.464
 4662POPC   D2A59668   5.870  12.838   6.764
 4662POPC   C3A59669   5.838  12.839   7.064
 4662POPC   C4A59670   5.904  12.813   7.364
 4662POPC   C1B59671   5.790  12.649   6.464
 4662POPC   C2B59672   5.808  12.621   6.764
 4662POPC   C3B59673   5.779  12.580   7.064
 4662POPC   C4B59674   5.812  12.589   7.364
 4663POPC   NC359675   2.783   1.204   5.564
 4663POPC   PO459676   2.801   1.203   5.864
 4663POPC   GL159677   2.722   1.219   6.164
 4663POPC   GL259678   2.595   1.149   6.164
 4663POPC   C1A59679   2.792   1.244   6.464
 4663POPC   D2A59680   2.728   1.230   6.764
 4663POPC   C3A59681   2.747   1.216   7.064
 4663POPC   C4A59682   2.717   1.205   7.364
 4663POPC   C1B59683   2.486   1.168   6.464
 4663POPC   C2B59684   2.529   1.199   6.764
 4663POPC   C3B59685   2.552   1.193   7.064
 4663POPC   C4B59686   2.483   1.190   7.364
 4664POPC   NC359687  28.414  43.905   5.564
 4664POPC   PO459688  28.329  43.906   5.864
 4664POPC   GL159689  28.366  43.933   6.164
 4664POPC   GL259690  28.291  43.922   6.164
 4664POPC   C1A59691  28.343  43.848   6.464
 4664POPC   D2A59692  28.408  43.881   6.764
 4664POPC   C3A59693  28.373  43.923   7.064
 4664POPC   C4A59694  28.413  43.880   7.364
 4664POPC   C1B59695  28.143  44.003   6.464
 4664POPC   C2B59696  28.196  44.051   6.764
 4664POPC   C3B59697  28.140  44.043   7.064
 4664POPC   C4B59698  28.204  44.079   7.364
 4665POPC   NC359699  14.421  31.491   5.564
 4665POPC   PO459700  14.378  31.460   5.864
 4665POPC   GL159701  14.367  31.487   6.164
 4665POPC   GL259702  14.495  31.363   6.164
 4665POPC   C1A59703  14.434  31.453   6.464
 4665POPC   D2A59704  14.436  31.475   6.764
 4665POPC   C3A59705  14.382  31.447   7.064
 4665POPC   C4A59706  14.403  31.466   7.364
 4665POPC   C1B59707  14.631  31.257   6.464
 4665POPC   C2B59708  14.623  31.329   6.764
 4665POPC   C3B59709  14.625  31.282   7.064
 4665POPC   C4B59710  14.573  31.271   7.364
 4666POPC   NC359711  16.750  11.339   5.564
 4666POPC   PO459712  16.779  11.272   5.864
 4666POPC   GL159713  16.769  11.260   6.164
 4666POPC   GL259714  16.562  11.294   6.164
 4666POPC   C1A59715  16.733  11.338   6.464
 4666POPC   D2A59716  16.734  11.334   6.764
 4666POPC   C3A59717  16.778  11.306   7.064
 4666POPC   C4A59718  16.700  11.258   7.364
 4666POPC   C1B59719  16.510  11.205   6.464
 4666POPC   C2B59720  16.491  11.271   6.764
 4666POPC   C3B59721  16.542  11.237   7.064
 4666POPC   C4B59722  16.465  11.269   7.364
 4667POPC   NC359723  15.178  30.707   5.564
 4667POPC   PO459724  15.205  30.652   5.864
 4667POPC   GL159725  15.226  30.657   6.164
 4667POPC   GL259726  15.265  30.777   6.164
 4667POPC   C1A59727  15.228  30.664   6.464
 4667POPC   D2A59728  15.142  30.704   6.764
 4667POPC   C3A59729  15.223  30.699   7.064
 4667POPC   C4A59730  15.168  30.703   7.364
 4667POPC   C1B59731  15.295  30.869   6.464
 4667POPC   C2B59732  15.378  30.920   6.764
 4667POPC   C3B59733  15.344  30.873   7.064
 4667POPC   C4B59734  15.331  30.900   7.364
 4668POPC   NC359735  22.983  15.161   5.564
 4668POPC   PO459736  22.974  15.167   5.864
 4668POPC   GL159737  22.899  15.177   6.164
 4668POPC   GL259738  22.865  15.082   6.164
 4668POPC   C1A59739  22.972  15.176   6.464
 4668POPC   D2A59740  22.948  15.203   6.764
 4668POPC   C3A59741  22.928  15.137   7.064
 4668POPC   C4A59742  22.914  15.227   7.364
 4668POPC   C1B59743  22.691  15.110   6.464
 4668POPC   C2B59744  22.744  15.032   6.764
 4668POPC   C3B59745  22.710  15.045   7.064
 4668POPC   C4B59746  22.683  15.087   7.364
 4669POPC   NC359747  27.615  22.188   5.564
 4669POPC   PO459748  27.592  22.115   5.864
 4669POPC   GL159749  27.565  22.133   6.164
 4669POPC   GL259750  27.494  22.064   6.164
 4669POPC   C1A59751  27.552  22.139   6.464
 4669POPC   D2A59752  27.575  22.124   6.764
 4669POPC   C3A59753  27.608  22.207   7.064
 4669POPC   C4A59754  27.553  22.135   7.364
 4669POPC   C1B59755  27.327  22.005   6.464
 4669POPC   C2B59756  27.356  22.045   6.764
 4669POPC   C3B59757  27.376  22.085   7.064
 4669POPC   C4B59758  27.327  22.013   7.364
 4670POPC   NC359759   2.748  33.021   5.564
 4670POPC   PO459760   2.716  33.056   5.864
 4670POPC   GL159761   2.718  33.006   6.164
 4670POPC   GL259762   2.662  33.018   6.164
 4670POPC   C1A59763   2.781  33.048   6.464
 4670POPC   D2A59764   2.746  33.045   6.764
 4670POPC   C3A59765   2.732  32.997   7.064
 4670POPC   C4A59766   2.749  33.058   7.364
 4670POPC   C1B59767   2.580  32.944   6.464
 4670POPC   C2B59768   2.546  32.892   6.764
 4670POPC   C3B59769   2.576  32.961   7.064
 4670POPC   C4B59770   2.518  32.941   7.364
 4671POPC   NC359771   2.782  26.845   5.564
 4671POPC   PO459772   2.748  26.858   5.864
 4671POPC   GL159773   2.807  26.828   6.164
 4671POPC   GL259774   2.707  26.753   6.164
 4671POPC   C1A59775   2.770  26.825   6.464
 4671POPC   D2A59776   2.812  26.836   6.764
 4671POPC   C3A59777   2.736  26.798   7.064
 4671POPC   C4A59778   2.724  26.804   7.364
 4671POPC   C1B59779   2.539  26.723   6.464
 4671POPC   C2B59780   2.532  26.675   6.764
 4671POPC   C3B59781   2.587  26.647   7.064
 4671POPC   C4B59782   2.513  26.713   7.364
 4672POPC   NC359783  33.813  44.614   5.564
 4672POPC   PO459784  33.751  44.677   5.864
 4672POPC   GL159785  33.796  44.683   6.164
 4672POPC   GL259786  33.656  44.737   6.164
 4672POPC   C1A59787  33.836  44.697   6.464
 4672POPC   D2A59788  33.754  44.676   6.764
 4672POPC   C3A59789  33.826  44.618   7.064
 4672POPC   C4A59790  33.774  44.667   7.364
 4672POPC   C1B59791  33.611  44.787   6.464
 4672POPC   C2B59792  33.595  44.778   6.764
 4672POPC   C3B59793  33.643  44.821   7.064
 4672POPC   C4B59794  33.613  44.835   7.364
 4673POPC   NC359795  19.031  22.916   5.564
 4673POPC   PO459796  19.010  22.984   5.864
 4673POPC   GL159797  19.023  22.918   6.164
 4673POPC   GL259798  19.127  23.032   6.164
 4673POPC   C1A59799  19.020  22.982   6.464
 4673POPC   D2A59800  19.088  22.930   6.764
 4673POPC   C3A59801  19.029  22.935   7.064
 4673POPC   C4A59802  19.079  22.901   7.364
 4673POPC   C1B59803  19.129  23.173   6.464
 4673POPC   C2B59804  19.193  23.187   6.764
 4673POPC   C3B59805  19.125  23.179   7.064
 4673POPC   C4B59806  19.163  23.159   7.364
 4674POPC   NC359807  12.032  39.280   5.564
 4674POPC   PO459808  12.048  39.233   5.864
 4674POPC   GL159809  12.096  39.275   6.164
 4674POPC   GL259810  12.158  39.264   6.164
 4674POPC   C1A59811  12.028  39.269   6.464
 4674POPC   D2A59812  12.084  39.243   6.764
 4674POPC   C3A59813  12.073  39.204   7.064
 4674POPC   C4A59814  12.106  39.271   7.364
 4674POPC   C1B59815  12.308  39.291   6.464
 4674POPC   C2B59816  12.371  39.211   6.764
 4674POPC   C3B59817  12.350  39.276   7.064
 4674POPC   C4B59818  12.286  39.221   7.364
 4675POPC   NC359819  31.452   9.779   5.564
 4675POPC   PO459820  31.486   9.707   5.864
 4675POPC   GL159821  31.430   9.783   6.164
 4675POPC   GL259822  31.452   9.609   6.164
 4675POPC   C1A59823  31.493   9.742   6.464
 4675POPC   D2A59824  31.469   9.706   6.764
 4675POPC   C3A59825  31.478   9.743   7.064
 4675POPC   C4A59826  31.437   9.730   7.364
 4675POPC   C1B59827  31.507   9.502   6.464
 4675POPC   C2B59828  31.554   9.513   6.764
 4675POPC   C3B59829  31.496   9.482   7.064
 4675POPC   C4B59830  31.518   9.482   7.364
 4676POPC   NC359831  16.684  23.728   5.564
 4676POPC   PO459832  16.753  23.682   5.864
 4676POPC   GL159833  16.686  23.708   6.164
 4676POPC   GL259834  16.589  23.625   6.164
 4676POPC   C1A59835  16.746  23.749   6.464
 4676POPC   D2A59836  16.687  23.673   6.764
 4676POPC   C3A59837  16.705  23.682   7.064
 4676POPC   C4A59838  16.716  23.724   7.364
 4676POPC   C1B59839  16.496  23.572   6.464
 4676POPC   C2B59840  16.494  23.620   6.764
 4676POPC   C3B59841  16.565  23.602   7.064
 4676POPC   C4B59842  16.483  23.608   7.364
 4677POPC   NC359843  15.916  36.938   5.564
 4677POPC   PO459844  15.934  36.940   5.864
 4677POPC   GL159845  15.980  36.951   6.164
 4677POPC   GL259846  16.105  36.879   6.164
 4677POPC   C1A59847  15.966  36.953   6.464
 4677POPC   D2A59848  15.952  36.941   6.764
 4677POPC   C3A59849  15.944  36.931   7.064
 4677POPC   C4A59850  15.960  36.879   7.364
 4677POPC   C1B59851  16.171  36.796   6.464
 4677POPC   C2B59852  16.150  36.744   6.764
 4677POPC   C3B59853  16.127  36.810   7.064
 4677POPC   C4B59854  16.151  36.765   7.364
 4678POPC   NC359855  15.963   5.827   5.564
 4678POPC   PO459856  15.953   5.907   5.864
 4678POPC   GL159857  15.960   5.828   6.164
 4678POPC   GL259858  16.038   5.819   6.164
 4678POPC   C1A59859  15.968   5.864   6.464
 4678POPC   D2A59860  15.964   5.824   6.764
 4678POPC   C3A59861  15.959   5.845   7.064
 4678POPC   C4A59862  15.995   5.840   7.364
 4678POPC   C1B59863  16.125   5.673   6.464
 4678POPC   C2B59864  16.173   5.682   6.764
 4678POPC   C3B59865  16.115   5.701   7.064
 4678POPC   C4B59866  16.117   5.726   7.364
 4679POPC   NC359867  11.304  26.772   5.564
 4679POPC   PO459868  11.253  26.838   5.864
 4679POPC   GL159869  11.270  26.802   6.164
 4679POPC   GL259870  11.298  26.691   6.164
 4679POPC   C1A59871  11.290  26.787   6.464
 4679POPC   D2A59872  11.332  26.775   6.764
 4679POPC   C3A59873  11.318  26.832   7.064
 4679POPC   C4A59874  11.321  26.849   7.364
 4679POPC   C1B59875  11.350  26.588   6.464
 4679POPC   C2B59876  11.356  26.605   6.764
 4679POPC   C3B59877  11.387  26.584   7.064
 4679POPC   C4B59878  11.391  26.594   7.364
 4680POPC   NC359879  16.744   9.014   5.564
 4680POPC   PO459880  16.684   8.933   5.864
 4680POPC   GL159881  16.731   8.991   6.164
 4680POPC   GL259882  16.568   8.926   6.164
 4680POPC   C1A59883  16.688   9.003   6.464
 4680POPC   D2A59884  16.691   8.987   6.764
 4680POPC   C3A59885  16.774   8.953   7.064
 4680POPC   C4A59886  16.759   8.971   7.364
 4680POPC   C1B59887  16.454   8.830   6.464
 4680POPC   C2B59888  16.473   8.869   6.764
 4680POPC   C3B59889  16.469   8.839   7.064
 4680POPC   C4B59890  16.515   8.838   7.364
 4681POPC   NC359891  21.342  27.597   5.564
 4681POPC   PO459892  21.358  27.626   5.864
 4681POPC   GL159893  21.357  27.637   6.164
 4681POPC   GL259894  21.529  27.558   6.164
 4681POPC   C1A59895  21.418  27.548   6.464
 4681POPC   D2A59896  21.353  27.641   6.764
 4681POPC   C3A59897  21.358  27.552   7.064
 4681POPC   C4A59898  21.432  27.605   7.364
 4681POPC   C1B59899  21.649  27.576   6.464
 4681POPC   C2B59900  21.605  27.618   6.764
 4681POPC   C3B59901  21.603  27.558   7.064
 4681POPC   C4B59902  21.629  27.578   7.364
 4682POPC   NC359903   3.586  23.687   5.564
 4682POPC   PO459904   3.556  23.728   5.864
 4682POPC   GL159905   3.525  23.742   6.164
 4682POPC   GL259906   3.666  23.693   6.164
 4682POPC   C1A59907   3.579  23.753   6.464
 4682POPC   D2A59908   3.575  23.753   6.764
 4682POPC   C3A59909   3.512  23.707   7.064
 4682POPC   C4A59910   3.543  23.710   7.364
 4682POPC   C1B59911   3.791  23.670   6.464
 4682POPC   C2B59912   3.814  23.590   6.764
 4682POPC   C3B59913   3.816  23.648   7.064
 4682POPC   C4B59914   3.780  23.627   7.364
 4683POPC   NC359915  21.422   4.289   5.564
 4683POPC   PO459916  21.357   4.343   5.864
 4683POPC   GL159917  21.347   4.274   6.164
 4683POPC   GL259918  21.476   4.296   6.164
 4683POPC   C1A59919  21.401   4.315   6.464
 4683POPC   D2A59920  21.379   4.353   6.764
 4683POPC   C3A59921  21.351   4.286   7.064
 4683POPC   C4A59922  21.358   4.353   7.364
 4683POPC   C1B59923  21.596   4.351   6.464
 4683POPC   C2B59924  21.623   4.319   6.764
 4683POPC   C3B59925  21.646   4.316   7.064
 4683POPC   C4B59926  21.594   4.323   7.364
 4684POPC   NC359927  20.657  16.781   5.564
 4684POPC   PO459928  20.630  16.769   5.864
 4684POPC   GL159929  20.611  16.771   6.164
 4684POPC   GL259930  20.697  16.583   6.164
 4684POPC   C1A59931  20.589  16.694   6.464
 4684POPC   D2A59932  20.608  16.704   6.764
 4684POPC   C3A59933  20.636  16.695   7.064
 4684POPC   C4A59934  20.659  16.712   7.364
 4684POPC   C1B59935  20.670  16.493   6.464
 4684POPC   C2B59936  20.689  16.494   6.764
 4684POPC   C3B59937  20.747  16.458   7.064
 4684POPC   C4B59938  20.708  16.531   7.364
 4685POPC   NC359939  36.902  29.902   5.564
 4685POPC   PO459940  36.858  29.923   5.864
 4685POPC   GL159941  36.952  29.926   6.164
 4685POPC   GL259942  36.781  29.884   6.164
 4685POPC   C1A59943  36.945  29.939   6.464
 4685POPC   D2A59944  36.897  29.942   6.764
 4685POPC   C3A59945  36.908  29.923   7.064
 4685POPC   C4A59946  36.940  29.893   7.364
 4685POPC   C1B59947  36.642  29.909   6.464
 4685POPC   C2B59948  36.690  29.898   6.764
 4685POPC   C3B59949  36.700  29.962   7.064
 4685POPC   C4B59950  36.694  29.986   7.364
 4686POPC   NC359951  36.927  38.501   5.564
 4686POPC   PO459952  36.927  38.461   5.864
 4686POPC   GL159953  36.941  38.497   6.164
 4686POPC   GL259954  37.048  38.370   6.164
 4686POPC   C1A59955  36.878  38.461   6.464
 4686POPC   D2A59956  36.951  38.492   6.764
 4686POPC   C3A59957  36.940  38.442   7.064
 4686POPC   C4A59958  36.869  38.464   7.364
 4686POPC   C1B59959  37.137  38.281   6.464
 4686POPC   C2B59960  37.126  38.334   6.764
 4686POPC   C3B59961  37.105  38.277   7.064
 4686POPC   C4B59962  37.147  38.275   7.364
 4687POPC   NC359963  26.864   6.689   5.564
 4687POPC   PO459964  26.865   6.683   5.864
 4687POPC   GL159965  26.837   6.598   6.164
 4687POPC   GL259966  26.707   6.627   6.164
 4687POPC   C1A59967  26.819   6.638   6.464
 4687POPC   D2A59968  26.773   6.665   6.764
 4687POPC   C3A59969  26.842   6.605   7.064
 4687POPC   C4A59970  26.835   6.691   7.364
 4687POPC   C1B59971  26.573   6.653   6.464
 4687POPC   C2B59972  26.582   6.699   6.764
 4687POPC   C3B59973  26.538   6.661   7.064
 4687POPC   C4B59974  26.545   6.654   7.364
 4688POPC   NC359975   5.053  27.578   5.564
 4688POPC   PO459976   5.071  27.605   5.864
 4688POPC   GL159977   5.047  27.571   6.164
 4688POPC   GL259978   5.220  27.493   6.164
 4688POPC   C1A59979   5.071  27.598   6.464
 4688POPC   D2A59980   5.071  27.549   6.764
 4688POPC   C3A59981   5.077  27.563   7.064
 4688POPC   C4A59982   5.102  27.571   7.364
 4688POPC   C1B59983   5.278  27.415   6.464
 4688POPC   C2B59984   5.266  27.469   6.764
 4688POPC   C3B59985   5.328  27.418   7.064
 4688POPC   C4B59986   5.309  27.427   7.364
 4689POPC   NC359987  10.512  29.909   5.564
 4689POPC   PO459988  10.506  29.937   5.864
 4689POPC   GL159989  10.507  29.967   6.164
 4689POPC   GL259990  10.400  29.952   6.164
 4689POPC   C1A59991  10.525  29.876   6.464
 4689POPC   D2A59992  10.536  29.958   6.764
 4689POPC   C3A59993  10.512  29.914   7.064
 4689POPC   C4A59994  10.505  29.913   7.364
 4689POPC   C1B59995  10.303  29.967   6.464
 4689POPC   C2B59996  10.236  29.962   6.764
 4689POPC   C3B59997  10.276  29.953   7.064
 4689POPC   C4B59998  10.323  29.993   7.364
 4690POPC   NC359999  33.801  30.710   5.564
 4690POPC   PO460000  33.818  30.739   5.864
 4690POPC   GL160001  33.796  30.659   6.164
 4690POPC   GL260002  33.662  30.672   6.164
 4690POPC   C1A60003  33.797  30.734   6.464
 4690POPC   D2A60004  33.814  30.734   6.764
 4690POPC   C3A60005  33.848  30.677   7.064
 4690POPC   C4A60006  33.751  30.730   7.364
 4690POPC   C1B60007  33.604  30.580   6.464
 4690POPC   C2B60008  33.545  30.611   6.764
 4690POPC   C3B60009  33.562  30.638   7.064
 4690POPC   C4B60010  33.593  30.631   7.364
 4691POPC   NC360011  29.875   3.525   5.564
 4691POPC   PO460012  29.909   3.577   5.864
 4691POPC   GL160013  29.948   3.570   6.164
 4691POPC   GL260014  29.847   3.457   6.164
 4691POPC   C1A60015  29.945   3.565   6.464
 4691POPC   D2A60016  29.941   3.572   6.764
 4691POPC   C3A60017  29.962   3.548   7.064
 4691POPC   C4A60018  29.899   3.575   7.364
 4691POPC   C1B60019  29.667   3.424   6.464
 4691POPC   C2B60020  29.649   3.420   6.764
 4691POPC   C3B60021  29.721   3.486   7.064
 4691POPC   C4B60022  29.703   3.479   7.364
 4692POPC   NC360023   7.399   5.043   5.564
 4692POPC   PO460024   7.396   5.141   5.864
 4692POPC   GL160025   7.434   5.046   6.164
 4692POPC   GL260026   7.473   4.975   6.164
 4692POPC   C1A60027   7.381   5.060   6.464
 4692POPC   D2A60028   7.426   5.043   6.764
 4692POPC   C3A60029   7.372   5.066   7.064
 4692POPC   C4A60030   7.422   5.066   7.364
 4692POPC   C1B60031   7.476   4.864   6.464
 4692POPC   C2B60032   7.432   4.807   6.764
 4692POPC   C3B60033   7.415   4.812   7.064
 4692POPC   C4B60034   7.472   4.871   7.364
 4693POPC   NC360035  38.457  28.357   5.564
 4693POPC   PO460036  38.502  28.357   5.864
 4693POPC   GL160037  38.490  28.352   6.164
 4693POPC   GL260038  38.583  28.385   6.164
 4693POPC   C1A60039  38.468  28.378   6.464
 4693POPC   D2A60040  38.438  28.325   6.764
 4693POPC   C3A60041  38.496  28.341   7.064
 4693POPC   C4A60042  38.461  28.379   7.364
 4693POPC   C1B60043  38.687  28.446   6.464
 4693POPC   C2B60044  38.651  28.460   6.764
 4693POPC   C3B60045  38.673  28.474   7.064
 4693POPC   C4B60046  38.709  28.437   7.364
 4694POPC   NC360047  26.013  19.073   5.564
 4694POPC   PO460048  26.072  19.050   5.864
 4694POPC   GL160049  26.048  19.025   6.164
 4694POPC   GL260050  26.014  19.205   6.164
 4694POPC   C1A60051  26.039  19.040   6.464
 4694POPC   D2A60052  26.050  19.043   6.764
 4694POPC   C3A60053  25.991  19.014   7.064
 4694POPC   C4A60054  26.014  19.040   7.364
 4694POPC   C1B60055  25.960  19.251   6.464
 4694POPC   C2B60056  25.973  19.306   6.764
 4694POPC   C3B60057  26.021  19.307   7.064
 4694POPC   C4B60058  25.999  19.267   7.364
 4695POPC   NC360059   7.429  26.090   5.564
 4695POPC   PO460060   7.404  26.038   5.864
 4695POPC   GL160061   7.434  26.010   6.164
 4695POPC   GL260062   7.500  26.029   6.164
 4695POPC   C1A60063   7.468  26.017   6.464
 4695POPC   D2A60064   7.393  26.057   6.764
 4695POPC   C3A60065   7.424  26.079   7.064
 4695POPC   C4A60066   7.414  26.072   7.364
 4695POPC   C1B60067   7.693  26.075   6.464
 4695POPC   C2B60068   7.665  26.029   6.764
 4695POPC   C3B60069   7.666  26.023   7.064
 4695POPC   C4B60070   7.648  26.055   7.364
 4696POPC   NC360071  39.977  36.861   5.564
 4696POPC   PO460072  39.976  36.894   5.864
 4696POPC   GL160073  39.989  36.953   6.164
 4696POPC   GL260074  40.115  36.936   6.164
 4696POPC   C1A60075  40.001  36.898   6.464
 4696POPC   D2A60076  40.017  36.919   6.764
 4696POPC   C3A60077  39.997  36.896   7.064
 4696POPC   C4A60078  39.982  36.939   7.364
 4696POPC   C1B60079  40.220  36.915   6.464
 4696POPC   C2B60080  40.255  36.947   6.764
 4696POPC   C3B60081  40.298  36.911   7.064
 4696POPC   C4B60082  40.259  36.938   7.364
 4697POPC   NC360083  17.481  19.025   5.564
 4697POPC   PO460084  17.523  19.086   5.864
 4697POPC   GL160085  17.515  19.081   6.164
 4697POPC   GL260086  17.467  18.998   6.164
 4697POPC   C1A60087  17.511  19.054   6.464
 4697POPC   D2A60088  17.481  19.055   6.764
 4697POPC   C3A60089  17.522  19.023   7.064
 4697POPC   C4A60090  17.541  19.079   7.364
 4697POPC   C1B60091  17.343  18.864   6.464
 4697POPC   C2B60092  17.384  18.884   6.764
 4697POPC   C3B60093  17.410  18.900   7.064
 4697POPC   C4B60094  17.338  18.865   7.364
 4698POPC   NC360095   3.562  16.748   5.564
 4698POPC   PO460096   3.557  16.727   5.864
 4698POPC   GL160097   3.557  16.754   6.164
 4698POPC   GL260098   3.460  16.664   6.164
 4698POPC   C1A60099   3.540  16.756   6.464
 4698POPC   D2A60100   3.526  16.768   6.764
 4698POPC   C3A60101   3.580  16.768   7.064
 4698POPC   C4A60102   3.521  16.689   7.364
 4698POPC   C1B60103   3.435  16.542   6.464
 4698POPC   C2B60104   3.420  16.565   6.764
 4698POPC   C3B60105   3.369  16.582   7.064
 4698POPC   C4B60106   3.366  16.491   7.364
 4699POPC   NC360107  39.280  29.917   5.564
 4699POPC   PO460108  39.237  29.871   5.864
 4699POPC   GL160109  39.203  29.937   6.164
 4699POPC   GL260110  39.204  29.771   6.164
 4699POPC   C1A60111  39.257  29.931   6.464
 4699POPC   D2A60112  39.269  29.968   6.764
 4699POPC   C3A60113  39.274  29.951   7.064
 4699POPC   C4A60114  39.216  29.907   7.364
 4699POPC   C1B60115  39.114  29.691   6.464
 4699POPC   C2B60116  39.143  29.722   6.764
 4699POPC   C3B60117  39.161  29.700   7.064
 4699POPC   C4B60118  39.104  29.680   7.364
 4700POPC   NC360119   8.968  29.965   5.564
 4700POPC   PO460120   8.949  29.906   5.864
 4700POPC   GL160121   8.923  29.897   6.164
 4700POPC   GL260122   9.035  29.808   6.164
 4700POPC   C1A60123   8.996  29.885   6.464
 4700POPC   D2A60124   8.940  29.921   6.764
 4700POPC   C3A60125   8.967  29.919   7.064
 4700POPC   C4A60126   8.930  29.873   7.364
 4700POPC   C1B60127   9.213  29.748   6.464
 4700POPC   C2B60128   9.145  29.763   6.764
 4700POPC   C3B60129   9.180  29.711   7.064
 4700POPC   C4B60130   9.167  29.716   7.364
 4701POPC   NC360131   3.501  15.977   5.564
 4701POPC   PO460132   3.576  15.989   5.864
 4701POPC   GL160133   3.582  15.925   6.164
 4701POPC   GL260134   3.589  15.783   6.164
 4701POPC   C1A60135   3.561  15.964   6.464
 4701POPC   D2A60136   3.567  15.924   6.764
 4701POPC   C3A60137   3.589  15.937   7.064
 4701POPC   C4A60138   3.536  15.980   7.364
 4701POPC   C1B60139   3.607  15.747   6.464
 4701POPC   C2B60140   3.610  15.747   6.764
 4701POPC   C3B60141   3.631  15.712   7.064
 4701POPC   C4B60142   3.622  15.721   7.364
 4702POPC   NC360143  42.357   5.860   5.564
 4702POPC   PO460144  42.292   5.842   5.864
 4702POPC   GL160145  42.345   5.870   6.164
 4702POPC   GL260146  42.252   6.017   6.164
 4702POPC   C1A60147  42.375   5.828   6.464
 4702POPC   D2A60148  42.335   5.877   6.764
 4702POPC   C3A60149  42.377   5.886   7.064
 4702POPC   C4A60150  42.294   5.858   7.364
 4702POPC   C1B60151  42.221   6.071   6.464
 4702POPC   C2B60152  42.285   6.072   6.764
 4702POPC   C3B60153  42.226   6.076   7.064
 4702POPC   C4B60154  42.279   6.115   7.364
 4703POPC   NC360155  40.793  12.040   5.564
 4703POPC   PO460156  40.743  12.040   5.864
 4703POPC   GL160157  40.733  12.105   6.164
 4703POPC   GL260158  40.694  11.957   6.164
 4703POPC   C1A60159  40.747  12.049   6.464
 4703POPC   D2A60160  40.754  12.067   6.764
 4703POPC   C3A60161  40.749  12.055   7.064
 4703POPC   C4A60162  40.737  12.060   7.364
 4703POPC   C1B60163  40.582  11.952   6.464
 4703POPC   C2B60164  40.629  11.938   6.764
 4703POPC   C3B60165  40.623  11.888   7.064
 4703POPC   C4B60166  40.550  11.924   7.364
 4704POPC   NC360167  15.149   5.878   5.564
 4704POPC   PO460168  15.178   5.864   5.864
 4704POPC   GL160169  15.145   5.841   6.164
 4704POPC   GL260170  15.152   5.748   6.164
 4704POPC   C1A60171  15.204   5.866   6.464
 4704POPC   D2A60172  15.180   5.904   6.764
 4704POPC   C3A60173  15.203   5.863   7.064
 4704POPC   C4A60174  15.189   5.871   7.364
 4704POPC   C1B60175  15.223   5.631   6.464
 4704POPC   C2B60176  15.209   5.627   6.764
 4704POPC   C3B60177  15.185   5.625   7.064
 4704POPC   C4B60178  15.237   5.606   7.364
 4705POPC   NC360179  30.737  12.033   5.564
 4705POPC   PO460180  30.665  12.067   5.864
 4705POPC   GL160181  30.693  12.105   6.164
 4705POPC   GL260182  30.724  12.184   6.164
 4705POPC   C1A60183  30.712  12.114   6.464
 4705POPC   D2A60184  30.709  12.066   6.764
 4705POPC   C3A60185  30.683  12.093   7.064
 4705POPC   C4A60186  30.655  12.109   7.364
 4705POPC   C1B60187  30.780  12.274   6.464
 4705POPC   C2B60188  30.698  12.314   6.764
 4705POPC   C3B60189  30.763  12.285   7.064
 4705POPC   C4B60190  30.700  12.277   7.364
 4706POPC   NC360191  15.959   8.967   5.564
 4706POPC   PO460192  15.948   8.954   5.864
 4706POPC   GL160193  15.927   8.932   6.164
 4706POPC   GL260194  15.905   9.121   6.164
 4706POPC   C1A60195  15.936   9.001   6.464
 4706POPC   D2A60196  16.002   8.946   6.764
 4706POPC   C3A60197  15.983   8.950   7.064
 4706POPC   C4A60198  15.910   8.984   7.364
 4706POPC   C1B60199  15.828   9.172   6.464
 4706POPC   C2B60200  15.795   9.200   6.764
 4706POPC   C3B60201  15.847   9.230   7.064
 4706POPC   C4B60202  15.826   9.153   7.364
 4707POPC   NC360203   1.223  11.275   5.564
 4707POPC   PO460204   1.232  11.343   5.864
 4707POPC   GL160205   1.176  11.344   6.164
 4707POPC   GL260206   1.133  11.161   6.164
 4707POPC   C1A60207   1.259  11.302   6.464
 4707POPC   D2A60208   1.236  11.275   6.764
 4707POPC   C3A60209   1.255  11.284   7.064
 4707POPC   C4A60210   1.178  11.305   7.364
 4707POPC   C1B60211   1.058  11.072   6.464
 4707POPC   C2B60212   1.064  11.068   6.764
 4707POPC   C3B60213   1.094  11.054   7.064
 4707POPC   C4B60214   1.110  11.125   7.364
 4708POPC   NC360215  33.006  43.098   5.564
 4708POPC   PO460216  33.045  43.129   5.864
 4708POPC   GL160217  33.004  43.151   6.164
 4708POPC   GL260218  32.876  43.118   6.164
 4708POPC   C1A60219  33.015  43.088   6.464
 4708POPC   D2A60220  33.006  43.110   6.764
 4708POPC   C3A60221  33.053  43.091   7.064
 4708POPC   C4A60222  33.025  43.153   7.364
 4708POPC   C1B60223  32.799  43.112   6.464
 4708POPC   C2B60224  32.737  43.135   6.764
 4708POPC   C3B60225  32.816  43.108   7.064
 4708POPC   C4B60226  32.816  43.182   7.364
 4709POPC   NC360227  26.778  28.347   5.564
 4709POPC   PO460228  26.769  28.393   5.864
 4709POPC   GL160229  26.824  28.383   6.164
 4709POPC   GL260230  26.734  28.275   6.164
 4709POPC   C1A60231  26.787  28.390   6.464
 4709POPC   D2A60232  26.797  28.322   6.764
 4709POPC   C3A60233  26.798  28.352   7.064
 4709POPC   C4A60234  26.866  28.398   7.364
 4709POPC   C1B60235  26.742  28.129   6.464
 4709POPC   C2B60236  26.700  28.181   6.764
 4709POPC   C3B60237  26.706  28.141   7.064
 4709POPC   C4B60238  26.719  28.112   7.364
 4710POPC   NC360239  36.900  21.393   5.564
 4710POPC   PO460240  36.895  21.420   5.864
 4710POPC   GL160241  36.890  21.337   6.164
 4710POPC   GL260242  37.040  21.408   6.164
 4710POPC   C1A60243  36.934  21.344   6.464
 4710POPC   D2A60244  36.858  21.412   6.764
 4710POPC   C3A60245  36.870  21.421   7.064
 4710POPC   C4A60246  36.859  21.369   7.364
 4710POPC   C1B60247  37.104  21.471   6.464
 4710POPC   C2B60248  37.093  21.490   6.764
 4710POPC   C3B60249  37.124  21.475   7.064
 4710POPC   C4B60250  37.104  21.460   7.364
 4711POPC   NC360251  18.313  22.973   5.564
 4711POPC   PO460252  18.305  22.904   5.864
 4711POPC   GL160253  18.265  22.908   6.164
 4711POPC   GL260254  18.206  22.843   6.164
 4711POPC   C1A60255  18.326  22.966   6.464
 4711POPC   D2A60256  18.250  22.913   6.764
 4711POPC   C3A60257  18.281  22.925   7.064
 4711POPC   C4A60258  18.309  22.956   7.364
 4711POPC   C1B60259  18.210  22.710   6.464
 4711POPC   C2B60260  18.238  22.727   6.764
 4711POPC   C3B60261  18.185  22.726   7.064
 4711POPC   C4B60262  18.195  22.667   7.364
 4712POPC   NC360263  27.596  42.368   5.564
 4712POPC   PO460264  27.604  42.307   5.864
 4712POPC   GL160265  27.637  42.319   6.164
 4712POPC   GL260266  27.494  42.344   6.164
 4712POPC   C1A60267  27.588  42.319   6.464
 4712POPC   D2A60268  27.575  42.303   6.764
 4712POPC   C3A60269  27.616  42.372   7.064
 4712POPC   C4A60270  27.606  42.378   7.364
 4712POPC   C1B60271  27.388  42.338   6.464
 4712POPC   C2B60272  27.392  42.307   6.764
 4712POPC   C3B60273  27.351  42.346   7.064
 4712POPC   C4B60274  27.349  42.348   7.364
 4713POPC   NC360275  44.701   5.888   5.564
 4713POPC   PO460276  44.711   5.856   5.864
 4713POPC   GL160277  44.637   5.913   6.164
 4713POPC   GL260278  44.809   5.833   6.164
 4713POPC   C1A60279  44.615   5.906   6.464
 4713POPC   D2A60280  44.690   5.904   6.764
 4713POPC   C3A60281  44.621   5.894   7.064
 4713POPC   C4A60282  44.652   5.847   7.364
 4713POPC   C1B60283  44.836   5.667   6.464
 4713POPC   C2B60284  44.832   5.758   6.764
 4713POPC   C3B60285  44.836   5.753   7.064
 4713POPC   C4B60286  44.903   5.699   7.364
 4714POPC   NC360287   1.950  42.314   5.564
 4714POPC   PO460288   1.963  42.347   5.864
 4714POPC   GL160289   1.976  42.362   6.164
 4714POPC   GL260290   2.016  42.245   6.164
 4714POPC   C1A60291   2.000  42.297   6.464
 4714POPC   D2A60292   1.979  42.377   6.764
 4714POPC   C3A60293   2.039  42.321   7.064
 4714POPC   C4A60294   2.015  42.330   7.364
 4714POPC   C1B60295   2.058  42.119   6.464
 4714POPC   C2B60296   2.055  42.085   6.764
 4714POPC   C3B60297   2.102  42.151   7.064
 4714POPC   C4B60298   2.132  42.061   7.364
 4715POPC   NC360299  36.889   1.247   5.564
 4715POPC   PO460300  36.874   1.261   5.864
 4715POPC   GL160301  36.854   1.181   6.164
 4715POPC   GL260302  36.974   1.164   6.164
 4715POPC   C1A60303  36.911   1.183   6.464
 4715POPC   D2A60304  36.915   1.178   6.764
 4715POPC   C3A60305  36.890   1.239   7.064
 4715POPC   C4A60306  36.891   1.194   7.364
 4715POPC   C1B60307  37.100   1.111   6.464
 4715POPC   C2B60308  37.158   1.123   6.764
 4715POPC   C3B60309  37.152   1.157   7.064
 4715POPC   C4B60310  37.111   1.160   7.364
 4716POPC   NC360311   8.220  12.055   5.564
 4716POPC   PO460312   8.168  12.106   5.864
 4716POPC   GL160313   8.169  12.113   6.164
 4716POPC   GL260314   8.116  11.952   6.164
 4716POPC   C1A60315   8.214  12.045   6.464
 4716POPC   D2A60316   8.166  12.079   6.764
 4716POPC   C3A60317   8.228  12.093   7.064
 4716POPC   C4A60318   8.154  12.102   7.364
 4716POPC   C1B60319   8.010  11.833   6.464
 4716POPC   C2B60320   8.022  11.876   6.764
 4716POPC   C3B60321   8.064  11.893   7.064
 4716POPC   C4B60322   8.013  11.898   7.364
 4717POPC   NC360323  16.703  15.926   5.564
 4717POPC   PO460324  16.771  15.929   5.864
 4717POPC   GL160325  16.715  16.004   6.164
 4717POPC   GL260326  16.604  15.947   6.164
 4717POPC   C1A60327  16.740  15.975   6.464
 4717POPC   D2A60328  16.768  15.940   6.764
 4717POPC   C3A60329  16.707  15.973   7.064
 4717POPC   C4A60330  16.689  15.920   7.364
 4717POPC   C1B60331  16.482  15.938   6.464
 4717POPC   C2B60332  16.530  15.931   6.764
 4717POPC   C3B60333  16.498  15.948   7.064
 4717POPC   C4B60334  16.518  15.969   7.364
 4718POPC   NC360335  44.646  44.683   5.564
 4718POPC   PO460336  44.711  44.711   5.864
 4718POPC   GL160337  44.701  44.641   6.164
 4718POPC   GL260338  44.753  44.704   6.164
 4718POPC   C1A60339  44.620  44.695   6.464
 4718POPC   D2A60340  44.672  44.634   6.764
 4718POPC   C3A60341  44.624  44.696   7.064
 4718POPC   C4A60342  44.636  44.712   7.364
 4718POPC   C1B60343  44.842  44.862   6.464
 4718POPC   C2B60344  44.826  44.835   6.764
 4718POPC   C3B60345  44.785  44.856   7.064
 4718POPC   C4B60346  44.875  44.875   7.364
 4719POPC   NC360347  19.073  44.656   5.564
 4719POPC   PO460348  19.058  44.702   5.864
 4719POPC   GL160349  19.101  44.659   6.164
 4719POPC   GL260350  18.972  44.723   6.164
 4719POPC   C1A60351  19.087  44.706   6.464
 4719POPC   D2A60352  19.033  44.686   6.764
 4719POPC   C3A60353  19.010  44.673   7.064
 4719POPC   C4A60354  19.047  44.702   7.364
 4719POPC   C1B60355  18.824  44.804   6.464
 4719POPC   C2B60356  18.832  44.786   6.764
 4719POPC   C3B60357  18.845  44.790   7.064
 4719POPC   C4B60358  18.821  44.739   7.364
 4720POPC   NC360359  28.368  14.419   5.564
 4720POPC   PO460360  28.362  14.367   5.864
 4720POPC   GL160361  28.358  14.415   6.164
 4720POPC   GL260362  28.508  14.440   6.164
 4720POPC   C1A60363  28.335  14.446   6.464
 4720POPC   D2A60364  28.410  14.362   6.764
 4720POPC   C3A60365  28.352  14.379   7.064
 4720POPC   C4A60366  28.321  14.445   7.364
 4720POPC   C1B60367  28.649  14.418   6.464
 4720POPC   C2B60368  28.591  14.383   6.764
 4720POPC   C3B60369  28.595  14.419   7.064
 4720POPC   C4B60370  28.603  14.433   7.364
 4721POPC   NC360371  37.685  15.168   5.564
 4721POPC   PO460372  37.654  15.181   5.864
 4721POPC   GL160373  37.646  15.145   6.164
 4721POPC   GL260374  37.708  15.322   6.164
 4721POPC   C1A60375  37.678  15.186   6.464
 4721POPC   D2A60376  37.653  15.187   6.764
 4721POPC   C3A60377  37.653  15.203   7.064
 4721POPC   C4A60378  37.688  15.220   7.364
 4721POPC   C1B60379  37.652  15.406   6.464
 4721POPC   C2B60380  37.661  15.415   6.764
 4721POPC   C3B60381  37.677  15.448   7.064
 4721POPC   C4B60382  37.718  15.450   7.364
 4722POPC   NC360383  16.721  40.790   5.564
 4722POPC   PO460384  16.775  40.818   5.864
 4722POPC   GL160385  16.745  40.749   6.164
 4722POPC   GL260386  16.664  40.662   6.164
 4722POPC   C1A60387  16.736  40.774   6.464
 4722POPC   D2A60388  16.732  40.762   6.764
 4722POPC   C3A60389  16.685  40.827   7.064
 4722POPC   C4A60390  16.748  40.773   7.364
 4722POPC   C1B60391  16.677  40.578   6.464
 4722POPC   C2B60392  16.638  40.536   6.764
 4722POPC   C3B60393  16.647  40.528   7.064
 4722POPC   C4B60394  16.640  40.491   7.364
 4723POPC   NC360395   8.201  11.303   5.564
 4723POPC   PO460396   8.222  11.282   5.864
 4723POPC   GL160397   8.197  11.318   6.164
 4723POPC   GL260398   8.074  11.366   6.164
 4723POPC   C1A60399   8.196  11.298   6.464
 4723POPC   D2A60400   8.209  11.251   6.764
 4723POPC   C3A60401   8.166  11.302   7.064
 4723POPC   C4A60402   8.215  11.262   7.364
 4723POPC   C1B60403   8.020  11.385   6.464
 4723POPC   C2B60404   7.957  11.403   6.764
 4723POPC   C3B60405   7.945  11.453   7.064
 4723POPC   C4B60406   7.975  11.411   7.364
 4724POPC   NC360407   4.357  43.874   5.564
 4724POPC   PO460408   4.269  43.844   5.864
 4724POPC   GL160409   4.314  43.926   6.164
 4724POPC   GL260410   4.213  43.843   6.164
 4724POPC   C1A60411   4.328  43.892   6.464
 4724POPC   D2A60412   4.365  43.861   6.764
 4724POPC   C3A60413   4.363  43.871   7.064
 4724POPC   C4A60414   4.315  43.903   7.364
 4724POPC   C1B60415   4.070  43.777   6.464
 4724POPC   C2B60416   4.117  43.829   6.764
 4724POPC   C3B60417   4.125  43.826   7.064
 4724POPC   C4B60418   4.075  43.788   7.364
 4725POPC   NC360419   5.119  44.646   5.564
 4725POPC   PO460420   5.093  44.638   5.864
 4725POPC   GL160421   5.142  44.626   6.164
 4725POPC   GL260422   5.080  44.753   6.164
 4725POPC   C1A60423   5.132  44.708   6.464
 4725POPC   D2A60424   5.091  44.697   6.764
 4725POPC   C3A60425   5.060  44.645   7.064
 4725POPC   C4A60426   5.117  44.653   7.364
 4725POPC   C1B60427   5.001  44.872   6.464
 4725POPC   C2B60428   5.011  44.910   6.764
 4725POPC   C3B60429   5.035  44.891   7.064
 4725POPC   C4B60430   4.995  44.883   7.364
 4726POPC   NC360431  22.209  26.027   5.564
 4726POPC   PO460432  22.189  26.044   5.864
 4726POPC   GL160433  22.131  26.088   6.164
 4726POPC   GL260434  22.268  26.053   6.164
 4726POPC   C1A60435  22.206  26.001   6.464
 4726POPC   D2A60436  22.194  26.080   6.764
 4726POPC   C3A60437  22.131  26.037   7.064
 4726POPC   C4A60438  22.189  26.083   7.364
 4726POPC   C1B60439  22.393  26.108   6.464
 4726POPC   C2B60440  22.366  26.150   6.764
 4726POPC   C3B60441  22.408  26.147   7.064
 4726POPC   C4B60442  22.428  26.103   7.364
 4727POPC   NC360443   3.494  20.650   5.564
 4727POPC   PO460444   3.535  20.614   5.864
 4727POPC   GL160445   3.532  20.586   6.164
 4727POPC   GL260446   3.478  20.512   6.164
 4727POPC   C1A60447   3.580  20.565   6.464
 4727POPC   D2A60448   3.549  20.586   6.764
 4727POPC   C3A60449   3.509  20.628   7.064
 4727POPC   C4A60450   3.510  20.565   7.364
 4727POPC   C1B60451   3.373  20.484   6.464
 4727POPC   C2B60452   3.383  20.458   6.764
 4727POPC   C3B60453   3.389  20.464   7.064
 4727POPC   C4B60454   3.372  20.427   7.364
 4728POPC   NC360455  22.178  29.969   5.564
 4728POPC   PO460456  22.168  29.956   5.864
 4728POPC   GL160457  22.126  29.946   6.164
 4728POPC   GL260458  22.061  30.028   6.164
 4728POPC   C1A60459  22.182  29.913   6.464
 4728POPC   D2A60460  22.166  29.944   6.764
 4728POPC   C3A60461  22.164  29.954   7.064
 4728POPC   C4A60462  22.185  29.912   7.364
 4728POPC   C1B60463  22.075  30.117   6.464
 4728POPC   C2B60464  22.059  30.132   6.764
 4728POPC   C3B60465  22.060  30.115   7.064
 4728POPC   C4B60466  22.021  30.110   7.364
 4729POPC   NC360467  17.480  18.234   5.564
 4729POPC   PO460468  17.546  18.299   5.864
 4729POPC   GL160469  17.467  18.245   6.164
 4729POPC   GL260470  17.441  18.165   6.164
 4729POPC   C1A60471  17.514  18.307   6.464
 4729POPC   D2A60472  17.522  18.285   6.764
 4729POPC   C3A60473  17.462  18.319   7.064
 4729POPC   C4A60474  17.532  18.243   7.364
 4729POPC   C1B60475  17.435  18.084   6.464
 4729POPC   C2B60476  17.447  18.015   6.764
 4729POPC   C3B60477  17.477  18.089   7.064
 4729POPC   C4B60478  17.401  18.004   7.364
 4730POPC   NC360479   5.893  44.678   5.564
 4730POPC   PO460480   5.880  44.649   5.864
 4730POPC   GL160481   5.869  44.689   6.164
 4730POPC   GL260482   5.766  44.584   6.164
 4730POPC   C1A60483   5.886  44.689   6.464
 4730POPC   D2A60484   5.846  44.708   6.764
 4730POPC   C3A60485   5.918  44.665   7.064
 4730POPC   C4A60486   5.834  44.616   7.364
 4730POPC   C1B60487   5.722  44.521   6.464
 4730POPC   C2B60488   5.648  44.468   6.764
 4730POPC   C3B60489   5.711  44.516   7.064
 4730POPC   C4B60490   5.664  44.481   7.364
 4731POPC   NC360491  11.334  13.616   5.564
 4731POPC   PO460492  11.300  13.665   5.864
 4731POPC   GL160493  11.255  13.656   6.164
 4731POPC   GL260494  11.416  13.573   6.164
 4731POPC   C1A60495  11.302  13.579   6.464
 4731POPC   D2A60496  11.302  13.582   6.764
 4731POPC   C3A60497  11.306  13.667   7.064
 4731POPC   C4A60498  11.284  13.653   7.364
 4731POPC   C1B60499  11.536  13.654   6.464
 4731POPC   C2B60500  11.545  13.665   6.764
 4731POPC   C3B60501  11.543  13.589   7.064
 4731POPC   C4B60502  11.525  13.663   7.364
 4732POPC   NC360503  40.044   8.158   5.564
 4732POPC   PO460504  39.960   8.174   5.864
 4732POPC   GL160505  39.984   8.197   6.164
 4732POPC   GL260506  39.967   8.054   6.164
 4732POPC   C1A60507  40.026   8.200   6.464
 4732POPC   D2A60508  40.011   8.236   6.764
 4732POPC   C3A60509  40.045   8.183   7.064
 4732POPC   C4A60510  39.989   8.198   7.364
 4732POPC   C1B60511  39.961   7.914   6.464
 4732POPC   C2B60512  39.994   7.963   6.764
 4732POPC   C3B60513  39.950   7.936   7.064
 4732POPC   C4B60514  40.021   7.915   7.364
 4733POPC   NC360515  32.256  25.288   5.564
 4733POPC   PO460516  32.232  25.243   5.864
 4733POPC   GL160517  32.235  25.249   6.164
 4733POPC   GL260518  32.418  25.282   6.164
 4733POPC   C1A60519  32.226  25.304   6.464
 4733POPC   D2A60520  32.220  25.260   6.764
 4733POPC   C3A60521  32.285  25.280   7.064
 4733POPC   C4A60522  32.259  25.300   7.364
 4733POPC   C1B60523  32.472  25.280   6.464
 4733POPC   C2B60524  32.462  25.209   6.764
 4733POPC   C3B60525  32.511  25.202   7.064
 4733POPC   C4B60526  32.487  25.284   7.364
 4734POPC   NC360527  34.561   5.071   5.564
 4734POPC   PO460528  34.618   5.133   5.864
 4734POPC   GL160529  34.580   5.096   6.164
 4734POPC   GL260530  34.574   5.184   6.164
 4734POPC   C1A60531  34.555   5.047   6.464
 4734POPC   D2A60532  34.608   5.053   6.764
 4734POPC   C3A60533  34.538   5.079   7.064
 4734POPC   C4A60534  34.528   5.115   7.364
 4734POPC   C1B60535  34.644   5.315   6.464
 4734POPC   C2B60536  34.660   5.324   6.764
 4734POPC   C3B60537  34.658   5.341   7.064
 4734POPC   C4B60538  34.637   5.344   7.364
 4735POPC   NC360539  26.026  26.865   5.564
 4735POPC   PO460540  26.023  26.800   5.864
 4735POPC   GL160541  26.044  26.774   6.164
 4735POPC   GL260542  25.890  26.882   6.164
 4735POPC   C1A60543  26.065  26.783   6.464
 4735POPC   D2A60544  26.003  26.826   6.764
 4735POPC   C3A60545  26.027  26.808   7.064
 4735POPC   C4A60546  26.053  26.833   7.364
 4735POPC   C1B60547  25.780  26.841   6.464
 4735POPC   C2B60548  25.756  26.861   6.764
 4735POPC   C3B60549  25.752  26.914   7.064
 4735POPC   C4B60550  25.805  26.842   7.364
 4736POPC   NC360551  20.566  32.250   5.564
 4736POPC   PO460552  20.619  32.224   5.864
 4736POPC   GL160553  20.636  32.265   6.164
 4736POPC   GL260554  20.577  32.107   6.164
 4736POPC   C1A60555  20.627  32.199   6.464
 4736POPC   D2A60556  20.617  32.211   6.764
 4736POPC   C3A60557  20.653  32.273   7.064
 4736POPC   C4A60558  20.572  32.246   7.364
 4736POPC   C1B60559  20.607  32.030   6.464
 4736POPC   C2B60560  20.531  32.022   6.764
 4736POPC   C3B60561  20.605  31.961   7.064
 4736POPC   C4B60562  20.595  32.039   7.364
 4737POPC   NC360563  12.091  26.027   5.564
 4737POPC   PO460564  12.053  26.034   5.864
 4737POPC   GL160565  12.034  26.010   6.164
 4737POPC   GL260566  12.094  25.902   6.164
 4737POPC   C1A60567  12.114  26.077   6.464
 4737POPC   D2A60568  12.116  26.055   6.764
 4737POPC   C3A60569  12.063  25.996   7.064
 4737POPC   C4A60570  12.118  26.085   7.364
 4737POPC   C1B60571  12.010  25.783   6.464
 4737POPC   C2B60572  12.019  25.792   6.764
 4737POPC   C3B60573  11.982  25.840   7.064
 4737POPC   C4B60574  12.034  25.840   7.364
 4738POPC   NC360575  21.391   1.239   5.564
 4738POPC   PO460576  21.355   1.191   5.864
 4738POPC   GL160577  21.386   1.226   6.164
 4738POPC   GL260578  21.250   1.292   6.164
 4738POPC   C1A60579  21.352   1.202   6.464
 4738POPC   D2A60580  21.351   1.248   6.764
 4738POPC   C3A60581  21.436   1.227   7.064
 4738POPC   C4A60582  21.341   1.183   7.364
 4738POPC   C1B60583  21.154   1.271   6.464
 4738POPC   C2B60584  21.139   1.286   6.764
 4738POPC   C3B60585  21.195   1.342   7.064
 4738POPC   C4B60586  21.152   1.318   7.364
 4739POPC   NC360587  29.167  12.853   5.564
 4739POPC   PO460588  29.180  12.809   5.864
 4739POPC   GL160589  29.098  12.896   6.164
 4739POPC   GL260590  28.983  12.901   6.164
 4739POPC   C1A60591  29.162  12.824   6.464
 4739POPC   D2A60592  29.125  12.805   6.764
 4739POPC   C3A60593  29.159  12.894   7.064
 4739POPC   C4A60594  29.163  12.826   7.364
 4739POPC   C1B60595  28.934  12.887   6.464
 4739POPC   C2B60596  28.860  12.907   6.764
 4739POPC   C3B60597  28.923  12.904   7.064
 4739POPC   C4B60598  28.878  12.868   7.364
 4740POPC   NC360599  29.908   0.463   5.564
 4740POPC   PO460600  29.902   0.431   5.864
 4740POPC   GL160601  29.958   0.414   6.164
 4740POPC   GL260602  30.065   0.456   6.164
 4740POPC   C1A60603  29.878   0.481   6.464
 4740POPC   D2A60604  29.913   0.429   6.764
 4740POPC   C3A60605  29.950   0.423   7.064
 4740POPC   C4A60606  29.961   0.452   7.364
 4740POPC   C1B60607  30.176   0.364   6.464
 4740POPC   C2B60608  30.187   0.399   6.764
 4740POPC   C3B60609  30.184   0.413   7.064
 4740POPC   C4B60610  30.202   0.383   7.364
 4741POPC   NC360611  19.823   6.600   5.564
 4741POPC   PO460612  19.880   6.638   5.864
 4741POPC   GL160613  19.824   6.653   6.164
 4741POPC   GL260614  19.927   6.643   6.164
 4741POPC   C1A60615  19.864   6.615   6.464
 4741POPC   D2A60616  19.826   6.662   6.764
 4741POPC   C3A60617  19.870   6.688   7.064
 4741POPC   C4A60618  19.860   6.617   7.364
 4741POPC   C1B60619  20.069   6.508   6.464
 4741POPC   C2B60620  20.046   6.543   6.764
 4741POPC   C3B60621  20.078   6.528   7.064
 4741POPC   C4B60622  20.088   6.518   7.364
 4742POPC   NC360623  15.937   4.271   5.564
 4742POPC   PO460624  15.977   4.301   5.864
 4742POPC   GL160625  15.974   4.287   6.164
 4742POPC   GL260626  15.803   4.411   6.164
 4742POPC   C1A60627  15.910   4.327   6.464
 4742POPC   D2A60628  15.909   4.293   6.764
 4742POPC   C3A60629  15.941   4.267   7.064
 4742POPC   C4A60630  15.997   4.296   7.364
 4742POPC   C1B60631  15.756   4.425   6.464
 4742POPC   C2B60632  15.758   4.384   6.764
 4742POPC   C3B60633  15.754   4.376   7.064
 4742POPC   C4B60634  15.739   4.388   7.364
 4743POPC   NC360635  39.235  33.759   5.564
 4743POPC   PO460636  39.226  33.770   5.864
 4743POPC   GL160637  39.210  33.787   6.164
 4743POPC   GL260638  39.323  33.776   6.164
 4743POPC   C1A60639  39.229  33.752   6.464
 4743POPC   D2A60640  39.270  33.765   6.764
 4743POPC   C3A60641  39.261  33.752   7.064
 4743POPC   C4A60642  39.267  33.785   7.364
 4743POPC   C1B60643  39.434  33.816   6.464
 4743POPC   C2B60644  39.499  33.783   6.764
 4743POPC   C3B60645  39.435  33.802   7.064
 4743POPC   C4B60646  39.511  33.822   7.364
 4744POPC   NC360647  12.885  38.500   5.564
 4744POPC   PO460648  12.865  38.423   5.864
 4744POPC   GL160649  12.881  38.435   6.164
 4744POPC   GL260650  12.789  38.492   6.164
 4744POPC   C1A60651  12.835  38.412   6.464
 4744POPC   D2A60652  12.807  38.426   6.764
 4744POPC   C3A60653  12.867  38.415   7.064
 4744POPC   C4A60654  12.808  38.464   7.364
 4744POPC   C1B60655  12.679  38.601   6.464
 4744POPC   C2B60656  12.632  38.639   6.764
 4744POPC   C3B60657  12.625  38.629   7.064
 4744POPC   C4B60658  12.615  38.640   7.364
 4745POPC   NC360659   2.006  22.909   5.564
 4745POPC   PO460660   1.967  22.925   5.864
 4745POPC   GL160661   2.023  22.895   6.164
 4745POPC   GL260662   1.945  23.019   6.164
 4745POPC   C1A60663   2.031  22.922   6.464
 4745POPC   D2A60664   2.034  22.951   6.764
 4745POPC   C3A60665   1.950  22.893   7.064
 4745POPC   C4A60666   2.007  22.982   7.364
 4745POPC   C1B60667   1.820  23.128   6.464
 4745POPC   C2B60668   1.901  23.164   6.764
 4745POPC   C3B60669   1.894  23.125   7.064
 4745POPC   C4B60670   1.812  23.125   7.364
 4746POPC   NC360671  40.795  41.514   5.564
 4746POPC   PO460672  40.767  41.579   5.864
 4746POPC   GL160673  40.775  41.570   6.164
 4746POPC   GL260674  40.664  41.502   6.164
 4746POPC   C1A60675  40.821  41.511   6.464
 4746POPC   D2A60676  40.818  41.608   6.764
 4746POPC   C3A60677  40.800  41.529   7.064
 4746POPC   C4A60678  40.810  41.552   7.364
 4746POPC   C1B60679  40.507  41.541   6.464
 4746POPC   C2B60680  40.569  41.471   6.764
 4746POPC   C3B60681  40.573  41.534   7.064
 4746POPC   C4B60682  40.534  41.535   7.364
 4747POPC   NC360683  36.116   8.165   5.564
 4747POPC   PO460684  36.142   8.189   5.864
 4747POPC   GL160685  36.114   8.151   6.164
 4747POPC   GL260686  36.168   8.080   6.164
 4747POPC   C1A60687  36.169   8.182   6.464
 4747POPC   D2A60688  36.122   8.217   6.764
 4747POPC   C3A60689  36.095   8.178   7.064
 4747POPC   C4A60690  36.148   8.241   7.364
 4747POPC   C1B60691  36.199   7.932   6.464
 4747POPC   C2B60692  36.202   7.939   6.764
 4747POPC   C3B60693  36.203   7.949   7.064
 4747POPC   C4B60694  36.281   7.976   7.364
 4748POPC   NC360695  30.745   0.443   5.564
 4748POPC   PO460696  30.717   0.433   5.864
 4748POPC   GL160697  30.679   0.445   6.164
 4748POPC   GL260698  30.855   0.445   6.164
 4748POPC   C1A60699  30.679   0.411   6.464
 4748POPC   D2A60700  30.743   0.431   6.764
 4748POPC   C3A60701  30.705   0.475   7.064
 4748POPC   C4A60702  30.685   0.400   7.364
 4748POPC   C1B60703  30.941   0.500   6.464
 4748POPC   C2B60704  30.979   0.571   6.764
 4748POPC   C3B60705  30.915   0.507   7.064
 4748POPC   C4B60706  30.933   0.490   7.364
 4749POPC   NC360707  42.325  15.986   5.564
 4749POPC   PO460708  42.341  15.988   5.864
 4749POPC   GL160709  42.297  15.908   6.164
 4749POPC   GL260710  42.200  15.884   6.164
 4749POPC   C1A60711  42.298  15.941   6.464
 4749POPC   D2A60712  42.338  15.946   6.764
 4749POPC   C3A60713  42.306  15.916   7.064
 4749POPC   C4A60714  42.315  15.997   7.364
 4749POPC   C1B60715  42.118  15.869   6.464
 4749POPC   C2B60716  42.162  15.798   6.764
 4749POPC   C3B60717  42.134  15.862   7.064
 4749POPC   C4B60718  42.088  15.786   7.364
 4750POPC   NC360719  33.803  15.214   5.564
 4750POPC   PO460720  33.828  15.149   5.864
 4750POPC   GL160721  33.765  15.179   6.164
 4750POPC   GL260722  33.885  15.200   6.164
 4750POPC   C1A60723  33.777  15.182   6.464
 4750POPC   D2A60724  33.849  15.184   6.764
 4750POPC   C3A60725  33.795  15.154   7.064
 4750POPC   C4A60726  33.772  15.209   7.364
 4750POPC   C1B60727  34.081  15.231   6.464
 4750POPC   C2B60728  34.039  15.240   6.764
 4750POPC   C3B60729  33.992  15.264   7.064
 4750POPC   C4B60730  34.030  15.261   7.364
 4751POPC   NC360731  12.067  17.468   5.564
 4751POPC   PO460732  12.109  17.518   5.864
 4751POPC   GL160733  12.088  17.514   6.164
 4751POPC   GL260734  11.927  17.398   6.164
 4751POPC   C1A60735  12.060  17.469   6.464
 4751POPC   D2A60736  12.037  17.554   6.764
 4751POPC   C3A60737  12.075  17.475   7.064
 4751POPC   C4A60738  12.108  17.516   7.364
 4751POPC   C1B60739  11.916  17.359   6.464
 4751POPC   C2B60740  11.831  17.374   6.764
 4751POPC   C3B60741  11.882  17.344   7.064
 4751POPC   C4B60742  11.913  17.338   7.364
 4752POPC   NC360743   7.467   9.767   5.564
 4752POPC   PO460744   7.394   9.752   5.864
 4752POPC   GL160745   7.403   9.719   6.164
 4752POPC   GL260746   7.430   9.666   6.164
 4752POPC   C1A60747   7.438   9.703   6.464
 4752POPC   D2A60748   7.444   9.702   6.764
 4752POPC   C3A60749   7.403   9.759   7.064
 4752POPC   C4A60750   7.454   9.762   7.364
 4752POPC   C1B60751   7.412   9.451   6.464
 4752POPC   C2B60752   7.408   9.487   6.764
 4752POPC   C3B60753   7.422   9.528   7.064
 4752POPC   C4B60754   7.361   9.461   7.364
 4753POPC   NC360755  13.594  19.108   5.564
 4753POPC   PO460756  13.579  19.089   5.864
 4753POPC   GL160757  13.643  19.067   6.164
 4753POPC   GL260758  13.577  19.101   6.164
 4753POPC   C1A60759  13.612  19.022   6.464
 4753POPC   D2A60760  13.606  19.071   6.764
 4753POPC   C3A60761  13.634  19.038   7.064
 4753POPC   C4A60762  13.627  19.107   7.364
 4753POPC   C1B60763  13.449  19.187   6.464
 4753POPC   C2B60764  13.404  19.200   6.764
 4753POPC   C3B60765  13.480  19.280   7.064
 4753POPC   C4B60766  13.451  19.203   7.364
 4754POPC   NC360767  16.722  35.306   5.564
 4754POPC   PO460768  16.778  35.358   5.864
 4754POPC   GL160769  16.694  35.378   6.164
 4754POPC   GL260770  16.652  35.260   6.164
 4754POPC   C1A60771  16.771  35.341   6.464
 4754POPC   D2A60772  16.776  35.393   6.764
 4754POPC   C3A60773  16.758  35.363   7.064
 4754POPC   C4A60774  16.699  35.332   7.364
 4754POPC   C1B60775  16.584  35.169   6.464
 4754POPC   C2B60776  16.498  35.137   6.764
 4754POPC   C3B60777  16.497  35.228   7.064
 4754POPC   C4B60778  16.594  35.168   7.364
 4755POPC   NC360779  29.905   8.938   5.564
 4755POPC   PO460780  29.953   8.951   5.864
 4755POPC   GL160781  29.927   8.975   6.164
 4755POPC   GL260782  30.015   9.016   6.164
 4755POPC   C1A60783  29.898   8.931   6.464
 4755POPC   D2A60784  29.920   8.990   6.764
 4755POPC   C3A60785  29.958   8.963   7.064
 4755POPC   C4A60786  29.920   8.936   7.364
 4755POPC   C1B60787  30.105   9.030   6.464
 4755POPC   C2B60788  30.144   9.046   6.764
 4755POPC   C3B60789  30.157   9.030   7.064
 4755POPC   C4B60790  30.110   9.054   7.364
 4756POPC   NC360791   5.876  32.249   5.564
 4756POPC   PO460792   5.890  32.204   5.864
 4756POPC   GL160793   5.832  32.280   6.164
 4756POPC   GL260794   5.722  32.248   6.164
 4756POPC   C1A60795   5.872  32.261   6.464
 4756POPC   D2A60796   5.829  32.215   6.764
 4756POPC   C3A60797   5.858  32.202   7.064
 4756POPC   C4A60798   5.850  32.230   7.364
 4756POPC   C1B60799   5.610  32.288   6.464
 4756POPC   C2B60800   5.629  32.322   6.764
 4756POPC   C3B60801   5.633  32.265   7.064
 4756POPC   C4B60802   5.593  32.281   7.364
 4757POPC   NC360803  16.750  19.874   5.564
 4757POPC   PO460804  16.758  19.794   5.864
 4757POPC   GL160805  16.730  19.814   6.164
 4757POPC   GL260806  16.726  19.682   6.164
 4757POPC   C1A60807  16.699  19.810   6.464
 4757POPC   D2A60808  16.742  19.840   6.764
 4757POPC   C3A60809  16.747  19.883   7.064
 4757POPC   C4A60810  16.699  19.787   7.364
 4757POPC   C1B60811  16.684  19.638   6.464
 4757POPC   C2B60812  16.697  19.634   6.764
 4757POPC   C3B60813  16.688  19.604   7.064
 4757POPC   C4B60814  16.694  19.575   7.364
 4758POPC   NC360815  26.821  39.273   5.564
 4758POPC   PO460816  26.826  39.201   5.864
 4758POPC   GL160817  26.828  39.242   6.164
 4758POPC   GL260818  26.676  39.357   6.164
 4758POPC   C1A60819  26.777  39.184   6.464
 4758POPC   D2A60820  26.790  39.273   6.764
 4758POPC   C3A60821  26.784  39.200   7.064
 4758POPC   C4A60822  26.857  39.260   7.364
 4758POPC   C1B60823  26.618  39.420   6.464
 4758POPC   C2B60824  26.572  39.375   6.764
 4758POPC   C3B60825  26.575  39.366   7.064
 4758POPC   C4B60826  26.629  39.355   7.364
 4759POPC   NC360827  43.146  15.940   5.564
 4759POPC   PO460828  43.154  15.938   5.864
 4759POPC   GL160829  43.072  15.969   6.164
 4759POPC   GL260830  42.969  15.948   6.164
 4759POPC   C1A60831  43.065  15.960   6.464
 4759POPC   D2A60832  43.072  15.996   6.764
 4759POPC   C3A60833  43.118  15.965   7.064
 4759POPC   C4A60834  43.144  15.949   7.364
 4759POPC   C1B60835  42.876  16.005   6.464
 4759POPC   C2B60836  42.855  15.998   6.764
 4759POPC   C3B60837  42.894  15.986   7.064
 4759POPC   C4B60838  42.922  15.992   7.364
 4760POPC   NC360839   4.323  21.340   5.564
 4760POPC   PO460840   4.341  21.342   5.864
 4760POPC   GL160841   4.279  21.402   6.164
 4760POPC   GL260842   4.193  21.456   6.164
 4760POPC   C1A60843   4.284  21.402   6.464
 4760POPC   D2A60844   4.356  21.366   6.764
 4760POPC   C3A60845   4.298  21.337   7.064
 4760POPC   C4A60846   4.308  21.428   7.364
 4760POPC   C1B60847   4.193  21.540   6.464
 4760POPC   C2B60848   4.120  21.556   6.764
 4760POPC   C3B60849   4.191  21.591   7.064
 4760POPC   C4B60850   4.100  21.615   7.364
 4761POPC   NC360851  19.103  11.297   5.564
 4761POPC   PO460852  19.065  11.343   5.864
 4761POPC   GL160853  19.034  11.264   6.164
 4761POPC   GL260854  19.070  11.429   6.164
 4761POPC   C1A60855  19.030  11.274   6.464
 4761POPC   D2A60856  19.039  11.268   6.764
 4761POPC   C3A60857  19.018  11.326   7.064
 4761POPC   C4A60858  19.087  11.284   7.364
 4761POPC   C1B60859  18.982  11.507   6.464
 4761POPC   C2B60860  18.994  11.572   6.764
 4761POPC   C3B60861  19.050  11.588   7.064
 4761POPC   C4B60862  18.989  11.518   7.364
 4762POPC   NC360863  42.299  23.742   5.564
 4762POPC   PO460864  42.372  23.744   5.864
 4762POPC   GL160865  42.342  23.667   6.164
 4762POPC   GL260866  42.430  23.685   6.164
 4762POPC   C1A60867  42.293  23.747   6.464
 4762POPC   D2A60868  42.367  23.715   6.764
 4762POPC   C3A60869  42.285  23.756   7.064
 4762POPC   C4A60870  42.314  23.734   7.364
 4762POPC   C1B60871  42.585  23.769   6.464
 4762POPC   C2B60872  42.592  23.778   6.764
 4762POPC   C3B60873  42.564  23.722   7.064
 4762POPC   C4B60874  42.580  23.780   7.364
 4763POPC   NC360875   2.777  30.692   5.564
 4763POPC   PO460876   2.720  30.709   5.864
 4763POPC   GL160877   2.739  30.665   6.164
 4763POPC   GL260878   2.662  30.617   6.164
 4763POPC   C1A60879   2.753  30.652   6.464
 4763POPC   D2A60880   2.781  30.686   6.764
 4763POPC   C3A60881   2.752  30.658   7.064
 4763POPC   C4A60882   2.786  30.706   7.364
 4763POPC   C1B60883   2.582  30.473   6.464
 4763POPC   C2B60884   2.635  30.479   6.764
 4763POPC   C3B60885   2.595  30.525   7.064
 4763POPC   C4B60886   2.628  30.520   7.364
 4764POPC   NC360887  15.926   3.520   5.564
 4764POPC   PO460888  15.947   3.590   5.864
 4764POPC   GL160889  15.915   3.561   6.164
 4764POPC   GL260890  16.057   3.583   6.164
 4764POPC   C1A60891  15.912   3.572   6.464
 4764POPC   D2A60892  15.959   3.539   6.764
 4764POPC   C3A60893  15.985   3.573   7.064
 4764POPC   C4A60894  15.942   3.505   7.364
 4764POPC   C1B60895  16.208   3.660   6.464
 4764POPC   C2B60896  16.172   3.611   6.764
 4764POPC   C3B60897  16.224   3.635   7.064
 4764POPC   C4B60898  16.193   3.604   7.364
 4765POPC   NC360899  42.344   9.734   5.564
 4765POPC   PO460900  42.342   9.712   5.864
 4765POPC   GL160901  42.301   9.764   6.164
 4765POPC   GL260902  42.401   9.803   6.164
 4765POPC   C1A60903  42.329   9.780   6.464
 4765POPC   D2A60904  42.300   9.770   6.764
 4765POPC   C3A60905  42.294   9.714   7.064
 4765POPC   C4A60906  42.384   9.700   7.364
 4765POPC   C1B60907  42.520   9.854   6.464
 4765POPC   C2B60908  42.518   9.888   6.764
 4765POPC   C3B60909  42.549   9.877   7.064
 4765POPC   C4B60910  42.533   9.854   7.364
 4766POPC   NC360911   8.238  32.993   5.564
 4766POPC   PO460912   8.174  33.068   5.864
 4766POPC   GL160913   8.242  33.035   6.164
 4766POPC   GL260914   8.262  33.165   6.164
 4766POPC   C1A60915   8.221  33.006   6.464
 4766POPC   D2A60916   8.174  33.055   6.764
 4766POPC   C3A60917   8.162  33.033   7.064
 4766POPC   C4A60918   8.221  32.985   7.364
 4766POPC   C1B60919   8.311  33.203   6.464
 4766POPC   C2B60920   8.271  33.225   6.764
 4766POPC   C3B60921   8.295  33.302   7.064
 4766POPC   C4B60922   8.268  33.234   7.364
 4767POPC   NC360923   7.441   5.915   5.564
 4767POPC   PO460924   7.445   5.844   5.864
 4767POPC   GL160925   7.414   5.899   6.164
 4767POPC   GL260926   7.359   5.787   6.164
 4767POPC   C1A60927   7.391   5.825   6.464
 4767POPC   D2A60928   7.394   5.885   6.764
 4767POPC   C3A60929   7.402   5.872   7.064
 4767POPC   C4A60930   7.419   5.919   7.364
 4767POPC   C1B60931   7.351   5.602   6.464
 4767POPC   C2B60932   7.302   5.666   6.764
 4767POPC   C3B60933   7.301   5.674   7.064
 4767POPC   C4B60934   7.303   5.675   7.364
 4768POPC   NC360935   2.036  24.497   5.564
 4768POPC   PO460936   1.966  24.506   5.864
 4768POPC   GL160937   2.007  24.471   6.164
 4768POPC   GL260938   1.908  24.508   6.164
 4768POPC   C1A60939   2.037  24.478   6.464
 4768POPC   D2A60940   1.942  24.495   6.764
 4768POPC   C3A60941   2.013  24.491   7.064
 4768POPC   C4A60942   1.959  24.525   7.364
 4768POPC   C1B60943   1.792  24.597   6.464
 4768POPC   C2B60944   1.762  24.569   6.764
 4768POPC   C3B60945   1.760  24.583   7.064
 4768POPC   C4B60946   1.713  24.537   7.364
 4769POPC   NC360947   8.936  40.822   5.564
 4769POPC   PO460948   9.019  40.806   5.864
 4769POPC   GL160949   8.973  40.736   6.164
 4769POPC   GL260950   8.948  40.929   6.164
 4769POPC   C1A60951   8.982  40.801   6.464
 4769POPC   D2A60952   8.991  40.782   6.764
 4769POPC   C3A60953   9.018  40.822   7.064
 4769POPC   C4A60954   9.016  40.821   7.364
 4769POPC   C1B60955   8.870  41.019   6.464
 4769POPC   C2B60956   8.937  40.975   6.764
 4769POPC   C3B60957   8.895  41.059   7.064
 4769POPC   C4B60958   8.877  41.011   7.364
 4770POPC   NC360959  31.516  40.764   5.564
 4770POPC   PO460960  31.444  40.771   5.864
 4770POPC   GL160961  31.462  40.806   6.164
 4770POPC   GL260962  31.343  40.832   6.164
 4770POPC   C1A60963  31.433  40.742   6.464
 4770POPC   D2A60964  31.454  40.733   6.764
 4770POPC   C3A60965  31.469  40.752   7.064
 4770POPC   C4A60966  31.425  40.774   7.364
 4770POPC   C1B60967  31.263  40.902   6.464
 4770POPC   C2B60968  31.221  40.901   6.764
 4770POPC   C3B60969  31.229  40.943   7.064
 4770POPC   C4B60970  31.223  40.943   7.364
 4771POPC   NC360971  22.130  44.646   5.564
 4771POPC   PO460972  22.112  44.702   5.864
 4771POPC   GL160973  22.141  44.709   6.164
 4771POPC   GL260974  22.239  44.710   6.164
 4771POPC   C1A60975  22.210  44.643   6.464
 4771POPC   D2A60976  22.186  44.702   6.764
 4771POPC   C3A60977  22.163  44.646   7.064
 4771POPC   C4A60978  22.143  44.684   7.364
 4771POPC   C1B60979  22.348  44.745   6.464
 4771POPC   C2B60980  22.407  44.721   6.764
 4771POPC   C3B60981  22.413  44.797   7.064
 4771POPC   C4B60982  22.356  44.745   7.364
 4772POPC   NC360983   0.486  35.334   5.564
 4772POPC   PO460984   0.451  35.392   5.864
 4772POPC   GL160985   0.427  35.369   6.164
 4772POPC   GL260986   0.292  35.352   6.164
 4772POPC   C1A60987   0.435  35.308   6.464
 4772POPC   D2A60988   0.426  35.308   6.764
 4772POPC   C3A60989   0.444  35.317   7.064
 4772POPC   C4A60990   0.486  35.362   7.364
 4772POPC   C1B60991   0.179  35.409   6.464
 4772POPC   C2B60992   0.212  35.366   6.764
 4772POPC   C3B60993   0.190  35.349   7.064
 4772POPC   C4B60994   0.228  35.419   7.364
 4773POPC   NC360995  44.613  41.608   5.564
 4773POPC   PO460996  44.655  41.548   5.864
 4773POPC   GL160997  44.694  41.554   6.164
 4773POPC   GL260998  44.656  41.702   6.164
 4773POPC   C1A60999  44.644  41.517   6.464
 4773POPC   D2A61000  44.655  41.541   6.764
 4773POPC   C3A61001  44.674  41.514   7.064
 4773POPC   C4A61002  44.658  41.574   7.364
 4773POPC   C1B61003  44.642  41.787   6.464
 4773POPC   C2B61004  44.631  41.802   6.764
 4773POPC   C3B61005  44.681  41.829   7.064
 4773POPC   C4B61006  44.665  41.832   7.364
 4774POPC   NC361007  13.673  36.082   5.564
 4774POPC   PO461008  13.657  36.161   5.864
 4774POPC   GL161009  13.618  36.157   6.164
 4774POPC   GL261010  13.766  36.112   6.164
 4774POPC   C1A61011  13.610  36.133   6.464
 4774POPC   D2A61012  13.631  36.162   6.764
 4774POPC   C3A61013  13.675  36.158   7.064
 4774POPC   C4A61014  13.619  36.114   7.364
 4774POPC   C1B61015  13.884  36.205   6.464
 4774POPC   C2B61016  13.859  36.200   6.764
 4774POPC   C3B61017  13.855  36.210   7.064
 4774POPC   C4B61018  13.914  36.214   7.364
 4775POPC   NC361019   5.901  13.590   5.564
 4775POPC   PO461020   5.911  13.609   5.864
 4775POPC   GL161021   5.907  13.588   6.164
 4775POPC   GL261022   5.889  13.712   6.164
 4775POPC   C1A61023   5.876  13.583   6.464
 4775POPC   D2A61024   5.876  13.663   6.764
 4775POPC   C3A61025   5.825  13.648   7.064
 4775POPC   C4A61026   5.826  13.672   7.364
 4775POPC   C1B61027   5.972  13.877   6.464
 4775POPC   C2B61028   5.934  13.846   6.764
 4775POPC   C3B61029   5.991  13.857   7.064
 4775POPC   C4B61030   5.960  13.831   7.364
 4776POPC   NC361031  40.760  14.442   5.564
 4776POPC   PO461032  40.776  14.409   5.864
 4776POPC   GL161033  40.734  14.442   6.164
 4776POPC   GL261034  40.767  14.519   6.164
 4776POPC   C1A61035  40.788  14.416   6.464
 4776POPC   D2A61036  40.753  14.360   6.764
 4776POPC   C3A61037  40.788  14.382   7.064
 4776POPC   C4A61038  40.734  14.427   7.364
 4776POPC   C1B61039  40.704  14.653   6.464
 4776POPC   C2B61040  40.745  14.681   6.764
 4776POPC   C3B61041  40.680  14.653   7.064
 4776POPC   C4B61042  40.703  14.682   7.364
 4777POPC   NC361043  42.347   2.024   5.564
 4777POPC   PO461044  42.340   2.010   5.864
 4777POPC   GL161045  42.307   2.015   6.164
 4777POPC   GL261046  42.370   1.907   6.164
 4777POPC   C1A61047  42.358   2.013   6.464
 4777POPC   D2A61048  42.341   1.997   6.764
 4777POPC   C3A61049  42.333   1.948   7.064
 4777POPC   C4A61050  42.337   2.036   7.364
 4777POPC   C1B61051  42.482   1.835   6.464
 4777POPC   C2B61052  42.527   1.789   6.764
 4777POPC   C3B61053  42.522   1.751   7.064
 4777POPC   C4B61054  42.536   1.753   7.364
 4778POPC   NC361055  33.764  19.094   5.564
 4778POPC   PO461056  33.837  19.062   5.864
 4778POPC   GL161057  33.837  19.104   6.164
 4778POPC   GL261058  33.862  18.908   6.164
 4778POPC   C1A61059  33.811  19.079   6.464
 4778POPC   D2A61060  33.840  19.069   6.764
 4778POPC   C3A61061  33.776  19.090   7.064
 4778POPC   C4A61062  33.838  19.036   7.364
 4778POPC   C1B61063  33.790  18.808   6.464
 4778POPC   C2B61064  33.839  18.848   6.764
 4778POPC   C3B61065  33.815  18.847   7.064
 4778POPC   C4B61066  33.806  18.774   7.364
 4779POPC   NC361067  10.503  44.673   5.564
 4779POPC   PO461068  10.523  44.681   5.864
 4779POPC   GL161069  10.564  44.706   6.164
 4779POPC   GL261070  10.597  44.739   6.164
 4779POPC   C1A61071  10.552  44.708   6.464
 4779POPC   D2A61072  10.541  44.633   6.764
 4779POPC   C3A61073  10.525  44.614   7.064
 4779POPC   C4A61074  10.565  44.653   7.364
 4779POPC   C1B61075  10.707  44.805   6.464
 4779POPC   C2B61076  10.739  44.794   6.764
 4779POPC   C3B61077  10.698  44.806   7.064
 4779POPC   C4B61078  10.695  44.802   7.364
 4780POPC   NC361079   5.099  28.391   5.564
 4780POPC   PO461080   5.142  28.400   5.864
 4780POPC   GL161081   5.111  28.369   6.164
 4780POPC   GL261082   5.192  28.349   6.164
 4780POPC   C1A61083   5.114  28.417   6.464
 4780POPC   D2A61084   5.084  28.383   6.764
 4780POPC   C3A61085   5.095  28.410   7.064
 4780POPC   C4A61086   5.115  28.387   7.364
 4780POPC   C1B61087   5.327  28.344   6.464
 4780POPC   C2B61088   5.331  28.364   6.764
 4780POPC   C3B61089   5.392  28.356   7.064
 4780POPC   C4B61090   5.335  28.386   7.364
 4781POPC   NC361091  36.861  33.042   5.564
 4781POPC   PO461092  36.927  32.986   5.864
 4781POPC   GL161093  36.867  33.059   6.164
 4781POPC   GL261094  37.022  33.101   6.164
 4781POPC   C1A61095  36.884  33.048   6.464
 4781POPC   D2A61096  36.930  33.003   6.764
 4781POPC   C3A61097  36.863  33.011   7.064
 4781POPC   C4A61098  36.862  32.999   7.364
 4781POPC   C1B61099  37.063  33.165   6.464
 4781POPC   C2B61100  37.077  33.172   6.764
 4781POPC   C3B61101  37.052  33.245   7.064
 4781POPC   C4B61102  37.088  33.257   7.364
 4782POPC   NC361103  37.725  42.352   5.564
 4782POPC   PO461104  37.701  42.337   5.864
 4782POPC   GL161105  37.671  42.346   6.164
 4782POPC   GL261106  37.775  42.457   6.164
 4782POPC   C1A61107  37.652  42.312   6.464
 4782POPC   D2A61108  37.685  42.332   6.764
 4782POPC   C3A61109  37.708  42.344   7.064
 4782POPC   C4A61110  37.719  42.318   7.364
 4782POPC   C1B61111  37.756  42.595   6.464
 4782POPC   C2B61112  37.844  42.506   6.764
 4782POPC   C3B61113  37.831  42.518   7.064
 4782POPC   C4B61114  37.755  42.525   7.364
 4783POPC   NC361115  34.527  17.528   5.564
 4783POPC   PO461116  34.527  17.499   5.864
 4783POPC   GL161117  34.587  17.485   6.164
 4783POPC   GL261118  34.410  17.483   6.164
 4783POPC   C1A61119  34.574  17.537   6.464
 4783POPC   D2A61120  34.534  17.485   6.764
 4783POPC   C3A61121  34.602  17.474   7.064
 4783POPC   C4A61122  34.582  17.547   7.364
 4783POPC   C1B61123  34.324  17.508   6.464
 4783POPC   C2B61124  34.339  17.480   6.764
 4783POPC   C3B61125  34.294  17.480   7.064
 4783POPC   C4B61126  34.328  17.520   7.364
 4784POPC   NC361127  32.262   2.758   5.564
 4784POPC   PO461128  32.227   2.730   5.864
 4784POPC   GL161129  32.285   2.731   6.164
 4784POPC   GL261130  32.284   2.619   6.164
 4784POPC   C1A61131  32.272   2.761   6.464
 4784POPC   D2A61132  32.267   2.805   6.764
 4784POPC   C3A61133  32.297   2.776   7.064
 4784POPC   C4A61134  32.250   2.760   7.364
 4784POPC   C1B61135  32.252   2.555   6.464
 4784POPC   C2B61136  32.221   2.491   6.764
 4784POPC   C3B61137  32.208   2.519   7.064
 4784POPC   C4B61138  32.242   2.541   7.364
 4785POPC   NC361139  19.030  40.767   5.564
 4785POPC   PO461140  19.079  40.806   5.864
 4785POPC   GL161141  19.064  40.813   6.164
 4785POPC   GL261142  18.946  40.725   6.164
 4785POPC   C1A61143  19.105  40.830   6.464
 4785POPC   D2A61144  19.017  40.745   6.764
 4785POPC   C3A61145  19.032  40.785   7.064
 4785POPC   C4A61146  19.094  40.747   7.364
 4785POPC   C1B61147  18.831  40.733   6.464
 4785POPC   C2B61148  18.859  40.714   6.764
 4785POPC   C3B61149  18.861  40.747   7.064
 4785POPC   C4B61150  18.835  40.708   7.364
 4786POPC   NC361151  25.314  34.582   5.564
 4786POPC   PO461152  25.270  34.570   5.864
 4786POPC   GL161153  25.280  34.533   6.164
 4786POPC   GL261154  25.336  34.536   6.164
 4786POPC   C1A61155  25.313  34.617   6.464
 4786POPC   D2A61156  25.312  34.573   6.764
 4786POPC   C3A61157  25.272  34.558   7.064
 4786POPC   C4A61158  25.313  34.626   7.364
 4786POPC   C1B61159  25.481  34.432   6.464
 4786POPC   C2B61160  25.434  34.447   6.764
 4786POPC   C3B61161  25.495  34.439   7.064
 4786POPC   C4B61162  25.431  34.437   7.364
 4787POPC   NC361163  30.737  26.059   5.564
 4787POPC   PO461164  30.722  26.044   5.864
 4787POPC   GL161165  30.672  26.049   6.164
 4787POPC   GL261166  30.625  26.121   6.164
 4787POPC   C1A61167  30.649  25.994   6.464
 4787POPC   D2A61168  30.737  26.027   6.764
 4787POPC   C3A61169  30.738  26.030   7.064
 4787POPC   C4A61170  30.670  26.051   7.364
 4787POPC   C1B61171  30.611  26.280   6.464
 4787POPC   C2B61172  30.557  26.241   6.764
 4787POPC   C3B61173  30.604  26.251   7.064
 4787POPC   C4B61174  30.578  26.271   7.364
 4788POPC   NC361175  26.043  25.281   5.564
 4788POPC   PO461176  26.014  25.227   5.864
 4788POPC   GL161177  26.027  25.281   6.164
 4788POPC   GL261178  25.972  25.347   6.164
 4788POPC   C1A61179  26.058  25.234   6.464
 4788POPC   D2A61180  26.081  25.233   6.764
 4788POPC   C3A61181  26.036  25.299   7.064
 4788POPC   C4A61182  26.060  25.295   7.364
 4788POPC   C1B61183  25.813  25.386   6.464
 4788POPC   C2B61184  25.888  25.461   6.764
 4788POPC   C3B61185  25.877  25.437   7.064
 4788POPC   C4B61186  25.828  25.385   7.364
 4789POPC   NC361187  32.210   8.969   5.564
 4789POPC   PO461188  32.210   8.981   5.864
 4789POPC   GL161189  32.286   8.935   6.164
 4789POPC   GL261190  32.251   8.871   6.164
 4789POPC   C1A61191  32.285   8.991   6.464
 4789POPC   D2A61192  32.266   8.947   6.764
 4789POPC   C3A61193  32.262   8.975   7.064
 4789POPC   C4A61194  32.270   8.960   7.364
 4789POPC   C1B61195  32.275   8.718   6.464
 4789POPC   C2B61196  32.333   8.685   6.764
 4789POPC   C3B61197  32.370   8.782   7.064
 4789POPC   C4B61198  32.370   8.692   7.364
 4790POPC   NC361199   9.703  12.037   5.564
 4790POPC   PO461200   9.763  12.044   5.864
 4790POPC   GL161201   9.744  12.085   6.164
 4790POPC   GL261202   9.811  12.010   6.164
 4790POPC   C1A61203   9.733  12.069   6.464
 4790POPC   D2A61204   9.745  12.090   6.764
 4790POPC   C3A61205   9.781  12.120   7.064
 4790POPC   C4A61206   9.780  12.090   7.364
 4790POPC   C1B61207   9.901  11.851   6.464
 4790POPC   C2B61208   9.941  11.901   6.764
 4790POPC   C3B61209   9.865  11.871   7.064
 4790POPC   C4B61210   9.941  11.870   7.364
 4791POPC   NC361211  19.058  38.426   5.564
 4791POPC   PO461212  19.058  38.458   5.864
 4791POPC   GL161213  19.044  38.449   6.164
 4791POPC   GL261214  18.889  38.485   6.164
 4791POPC   C1A61215  19.103  38.420   6.464
 4791POPC   D2A61216  19.099  38.435   6.764
 4791POPC   C3A61217  19.075  38.462   7.064
 4791POPC   C4A61218  19.051  38.466   7.364
 4791POPC   C1B61219  18.787  38.503   6.464
 4791POPC   C2B61220  18.842  38.542   6.764
 4791POPC   C3B61221  18.831  38.469   7.064
 4791POPC   C4B61222  18.781  38.505   7.364
 4792POPC   NC361223   2.010  13.626   5.564
 4792POPC   PO461224   1.961  13.602   5.864
 4792POPC   GL161225   2.034  13.606   6.164
 4792POPC   GL261226   2.037  13.746   6.164
 4792POPC   C1A61227   2.009  13.603   6.464
 4792POPC   D2A61228   1.997  13.630   6.764
 4792POPC   C3A61229   1.994  13.646   7.064
 4792POPC   C4A61230   1.944  13.626   7.364
 4792POPC   C1B61231   1.973  13.883   6.464
 4792POPC   C2B61232   2.004  13.838   6.764
 4792POPC   C3B61233   1.973  13.837   7.064
 4792POPC   C4B61234   1.967  13.888   7.364
 4793POPC   NC361235  25.296  37.726   5.564
 4793POPC   PO461236  25.284  37.711   5.864
 4793POPC   GL161237  25.246  37.677   6.164
 4793POPC   GL261238  25.178  37.665   6.164
 4793POPC   C1A61239  25.219  37.711   6.464
 4793POPC   D2A61240  25.281  37.653   6.764
 4793POPC   C3A61241  25.268  37.720   7.064
 4793POPC   C4A61242  25.230  37.707   7.364
 4793POPC   C1B61243  25.007  37.618   6.464
 4793POPC   C2B61244  25.062  37.616   6.764
 4793POPC   C3B61245  24.977  37.669   7.064
 4793POPC   C4B61246  25.027  37.641   7.364
 4794POPC   NC361247  18.278  11.329   5.564
 4794POPC   PO461248  18.284  11.253   5.864
 4794POPC   GL161249  18.239  11.329   6.164
 4794POPC   GL261250  18.397  11.362   6.164
 4794POPC   C1A61251  18.257  11.333   6.464
 4794POPC   D2A61252  18.275  11.308   6.764
 4794POPC   C3A61253  18.295  11.330   7.064
 4794POPC   C4A61254  18.237  11.323   7.364
 4794POPC   C1B61255  18.511  11.429   6.464
 4794POPC   C2B61256  18.495  11.473   6.764
 4794POPC   C3B61257  18.538  11.448   7.064
 4794POPC   C4B61258  18.540  11.485   7.364
 4795POPC   NC361259  22.136  16.742   5.564
 4795POPC   PO461260  22.146  16.730   5.864
 4795POPC   GL161261  22.159  16.706   6.164
 4795POPC   GL261262  22.063  16.846   6.164
 4795POPC   C1A61263  22.167  16.733   6.464
 4795POPC   D2A61264  22.142  16.720   6.764
 4795POPC   C3A61265  22.202  16.774   7.064
 4795POPC   C4A61266  22.161  16.720   7.364
 4795POPC   C1B61267  22.052  16.975   6.464
 4795POPC   C2B61268  22.086  16.943   6.764
 4795POPC   C3B61269  22.090  16.926   7.064
 4795POPC   C4B61270  22.016  16.961   7.364
 4796POPC   NC361271  43.870  10.502   5.564
 4796POPC   PO461272  43.889  10.485   5.864
 4796POPC   GL161273  43.922  10.486   6.164
 4796POPC   GL261274  43.970  10.687   6.164
 4796POPC   C1A61275  43.914  10.493   6.464
 4796POPC   D2A61276  43.910  10.556   6.764
 4796POPC   C3A61277  43.899  10.567   7.064
 4796POPC   C4A61278  43.842  10.539   7.364
 4796POPC   C1B61279  43.973  10.719   6.464
 4796POPC   C2B61280  43.959  10.744   6.764
 4796POPC   C3B61281  43.995  10.762   7.064
 4796POPC   C4B61282  44.002  10.740   7.364
 4797POPC   NC361283  14.412  44.620   5.564
 4797POPC   PO461284  14.431  44.711   5.864
 4797POPC   GL161285  14.396  44.626   6.164
 4797POPC   GL261286  14.495  44.605   6.164
 4797POPC   C1A61287  14.440  44.681   6.464
 4797POPC   D2A61288  14.395  44.616   6.764
 4797POPC   C3A61289  14.440  44.659   7.064
 4797POPC   C4A61290  14.384  44.662   7.364
 4797POPC   C1B61291  14.679  44.554   6.464
 4797POPC   C2B61292  14.623  44.559   6.764
 4797POPC   C3B61293  14.694  44.591   7.064
 4797POPC   C4B61294  14.624  44.599   7.364
 4798POPC   NC361295  33.005  11.293   5.564
 4798POPC   PO461296  33.008  11.349   5.864
 4798POPC   GL161297  33.070  11.273   6.164
 4798POPC   GL261298  32.896  11.242   6.164
 4798POPC   C1A61299  33.056  11.303   6.464
 4798POPC   D2A61300  33.044  11.293   6.764
 4798POPC   C3A61301  32.979  11.307   7.064
 4798POPC   C4A61302  32.979  11.285   7.364
 4798POPC   C1B61303  32.782  11.205   6.464
 4798POPC   C2B61304  32.753  11.163   6.764
 4798POPC   C3B61305  32.771  11.237   7.064
 4798POPC   C4B61306  32.748  11.158   7.364
 4799POPC   NC361307   9.010  22.161   5.564
 4799POPC   PO461308   8.936  22.161   5.864
 4799POPC   GL161309   8.968  22.202   6.164
 4799POPC   GL261310   8.826  22.170   6.164
 4799POPC   C1A61311   8.977  22.134   6.464
 4799POPC   D2A61312   8.962  22.122   6.764
 4799POPC   C3A61313   8.995  22.115   7.064
 4799POPC   C4A61314   8.949  22.173   7.364
 4799POPC   C1B61315   8.689  22.231   6.464
 4799POPC   C2B61316   8.745  22.226   6.764
 4799POPC   C3B61317   8.738  22.286   7.064
 4799POPC   C4B61318   8.717  22.288   7.364
 4800POPC   NC361319   6.680  43.933   5.564
 4800POPC   PO461320   6.662  43.894   5.864
 4800POPC   GL161321   6.624  43.901   6.164
 4800POPC   GL261322   6.694  43.979   6.164
 4800POPC   C1A61323   6.638  43.925   6.464
 4800POPC   D2A61324   6.619  43.918   6.764
 4800POPC   C3A61325   6.615  43.916   7.064
 4800POPC   C4A61326   6.640  43.846   7.364
 4800POPC   C1B61327   6.772  44.158   6.464
 4800POPC   C2B61328   6.696  44.139   6.764
 4800POPC   C3B61329   6.779  44.143   7.064
 4800POPC   C4B61330   6.764  44.107   7.364
 4801POPC   NC361331  28.335  12.084   5.564
 4801POPC   PO461332  28.377  12.087   5.864
 4801POPC   GL161333  28.379  12.108   6.164
 4801POPC   GL261334  28.241  12.022   6.164
 4801POPC   C1A61335  28.368  12.111   6.464
 4801POPC   D2A61336  28.350  12.087   6.764
 4801POPC   C3A61337  28.416  12.051   7.064
 4801POPC   C4A61338  28.388  12.048   7.364
 4801POPC   C1B61339  28.215  11.837   6.464
 4801POPC   C2B61340  28.173  11.895   6.764
 4801POPC   C3B61341  28.181  11.934   7.064
 4801POPC   C4B61342  28.224  11.915   7.364
 4802POPC   NC361343  30.682   6.691   5.564
 4802POPC   PO461344  30.708   6.674   5.864
 4802POPC   GL161345  30.651   6.623   6.164
 4802POPC   GL261346  30.751   6.554   6.164
 4802POPC   C1A61347  30.715   6.615   6.464
 4802POPC   D2A61348  30.650   6.688   6.764
 4802POPC   C3A61349  30.670   6.625   7.064
 4802POPC   C4A61350  30.702   6.671   7.364
 4802POPC   C1B61351  30.863   6.493   6.464
 4802POPC   C2B61352  30.845   6.441   6.764
 4802POPC   C3B61353  30.877   6.506   7.064
 4802POPC   C4B61354  30.874   6.446   7.364
 4803POPC   NC361355  43.884  35.323   5.564
 4803POPC   PO461356  43.855  35.388   5.864
 4803POPC   GL161357  43.858  35.330   6.164
 4803POPC   GL261358  43.768  35.395   6.164
 4803POPC   C1A61359  43.864  35.324   6.464
 4803POPC   D2A61360  43.888  35.391   6.764
 4803POPC   C3A61361  43.871  35.333   7.064
 4803POPC   C4A61362  43.864  35.379   7.364
 4803POPC   C1B61363  43.717  35.514   6.464
 4803POPC   C2B61364  43.701  35.475   6.764
 4803POPC   C3B61365  43.685  35.519   7.064
 4803POPC   C4B61366  43.711  35.523   7.364
 4804POPC   NC361367  36.893  31.453   5.564
 4804POPC   PO461368  36.885  31.454   5.864
 4804POPC   GL161369  36.914  31.504   6.164
 4804POPC   GL261370  36.867  31.545   6.164
 4804POPC   C1A61371  36.881  31.499   6.464
 4804POPC   D2A61372  36.935  31.522   6.764
 4804POPC   C3A61373  36.887  31.511   7.064
 4804POPC   C4A61374  36.887  31.468   7.364
 4804POPC   C1B61375  36.758  31.681   6.464
 4804POPC   C2B61376  36.699  31.619   6.764
 4804POPC   C3B61377  36.729  31.637   7.064
 4804POPC   C4B61378  36.734  31.693   7.364
 4805POPC   NC361379  43.842  26.034   5.564
 4805POPC   PO461380  43.915  25.993   5.864
 4805POPC   GL161381  43.852  26.076   6.164
 4805POPC   GL261382  43.824  25.966   6.164
 4805POPC   C1A61383  43.910  26.011   6.464
 4805POPC   D2A61384  43.874  26.090   6.764
 4805POPC   C3A61385  43.914  26.065   7.064
 4805POPC   C4A61386  43.848  26.022   7.364
 4805POPC   C1B61387  43.683  25.885   6.464
 4805POPC   C2B61388  43.702  25.834   6.764
 4805POPC   C3B61389  43.673  25.828   7.064
 4805POPC   C4B61390  43.680  25.846   7.364
 4806POPC   NC361391  43.128  41.517   5.564
 4806POPC   PO461392  43.094  41.601   5.864
 4806POPC   GL161393  43.157  41.577   6.164
 4806POPC   GL261394  43.204  41.577   6.164
 4806POPC   C1A61395  43.155  41.517   6.464
 4806POPC   D2A61396  43.105  41.581   6.764
 4806POPC   C3A61397  43.125  41.596   7.064
 4806POPC   C4A61398  43.138  41.516   7.364
 4806POPC   C1B61399  43.329  41.636   6.464
 4806POPC   C2B61400  43.304  41.673   6.764
 4806POPC   C3B61401  43.336  41.655   7.064
 4806POPC   C4B61402  43.380  41.580   7.364
 4807POPC   NC361403   1.202  40.041   5.564
 4807POPC   PO461404   1.187  40.048   5.864
 4807POPC   GL161405   1.186  40.038   6.164
 4807POPC   GL261406   1.117  39.876   6.164
 4807POPC   C1A61407   1.194  40.016   6.464
 4807POPC   D2A61408   1.261  39.988   6.764
 4807POPC   C3A61409   1.208  40.010   7.064
 4807POPC   C4A61410   1.247  39.984   7.364
 4807POPC   C1B61411   1.039  39.857   6.464
 4807POPC   C2B61412   1.041  39.797   6.764
 4807POPC   C3B61413   0.992  39.854   7.064
 4807POPC   C4B61414   1.041  39.794   7.364
 4808POPC   NC361415   4.318  23.708   5.564
 4808POPC   PO461416   4.309  23.678   5.864
 4808POPC   GL161417   4.367  23.734   6.164
 4808POPC   GL261418   4.443  23.789   6.164
 4808POPC   C1A61419   4.346  23.676   6.464
 4808POPC   D2A61420   4.293  23.740   6.764
 4808POPC   C3A61421   4.269  23.704   7.064
 4808POPC   C4A61422   4.346  23.686   7.364
 4808POPC   C1B61423   4.520  23.835   6.464
 4808POPC   C2B61424   4.549  23.764   6.764
 4808POPC   C3B61425   4.536  23.752   7.064
 4808POPC   C4B61426   4.590  23.816   7.364
 4809POPC   NC361427   1.946  19.025   5.564
 4809POPC   PO461428   1.993  19.039   5.864
 4809POPC   GL161429   1.979  19.040   6.164
 4809POPC   GL261430   1.888  18.922   6.164
 4809POPC   C1A61431   1.983  19.024   6.464
 4809POPC   D2A61432   1.947  19.049   6.764
 4809POPC   C3A61433   1.989  19.046   7.064
 4809POPC   C4A61434   2.027  19.077   7.364
 4809POPC   C1B61435   1.895  18.875   6.464
 4809POPC   C2B61436   1.853  18.886   6.764
 4809POPC   C3B61437   1.806  18.876   7.064
 4809POPC   C4B61438   1.837  18.810   7.364
 4810POPC   NC361439  28.409   5.878   5.564
 4810POPC   PO461440  28.351   5.819   5.864
 4810POPC   GL161441  28.340   5.860   6.164
 4810POPC   GL261442  28.268   5.799   6.164
 4810POPC   C1A61443  28.405   5.870   6.464
 4810POPC   D2A61444  28.392   5.834   6.764
 4810POPC   C3A61445  28.382   5.853   7.064
 4810POPC   C4A61446  28.358   5.821   7.364
 4810POPC   C1B61447  28.166   5.826   6.464
 4810POPC   C2B61448  28.155   5.817   6.764
 4810POPC   C3B61449  28.125   5.831   7.064
 4810POPC   C4B61450  28.102   5.770   7.364
 4811POPC   NC361451  29.189  40.055   5.564
 4811POPC   PO461452  29.098  39.959   5.864
 4811POPC   GL161453  29.132  39.967   6.164
 4811POPC   GL261454  28.989  40.081   6.164
 4811POPC   C1A61455  29.137  39.989   6.464
 4811POPC   D2A61456  29.178  39.959   6.764
 4811POPC   C3A61457  29.188  39.962   7.064
 4811POPC   C4A61458  29.105  40.047   7.364
 4811POPC   C1B61459  28.887  40.094   6.464
 4811POPC   C2B61460  28.925  40.104   6.764
 4811POPC   C3B61461  28.889  40.028   7.064
 4811POPC   C4B61462  28.923  40.048   7.364
 4812POPC   NC361463  34.589   8.955   5.564
 4812POPC   PO461464  34.568   8.940   5.864
 4812POPC   GL161465  34.568   8.945   6.164
 4812POPC   GL261466  34.730   9.035   6.164
 4812POPC   C1A61467  34.599   9.015   6.464
 4812POPC   D2A61468  34.601   8.929   6.764
 4812POPC   C3A61469  34.588   9.022   7.064
 4812POPC   C4A61470  34.574   8.938   7.364
 4812POPC   C1B61471  34.801   9.106   6.464
 4812POPC   C2B61472  34.833   9.091   6.764
 4812POPC   C3B61473  34.758   9.061   7.064
 4812POPC   C4B61474  34.803   9.084   7.364
 4813POPC   NC361475   2.001   8.219   5.564
 4813POPC   PO461476   1.975   8.200   5.864
 4813POPC   GL161477   1.974   8.176   6.164
 4813POPC   GL261478   2.068   8.203   6.164
 4813POPC   C1A61479   2.030   8.183   6.464
 4813POPC   D2A61480   2.011   8.185   6.764
 4813POPC   C3A61481   1.957   8.192   7.064
 4813POPC   C4A61482   1.967   8.228   7.364
 4813POPC   C1B61483   2.180   8.236   6.464
 4813POPC   C2B61484   2.215   8.272   6.764
 4813POPC   C3B61485   2.187   8.306   7.064
 4813POPC   C4B61486   2.249   8.326   7.364
 4814POPC   NC361487  42.375  17.477   5.564
 4814POPC   PO461488  42.351  17.498   5.864
 4814POPC   GL161489  42.314  17.503   6.164
 4814POPC   GL261490  42.401  17.433   6.164
 4814POPC   C1A61491  42.365  17.504   6.464
 4814POPC   D2A61492  42.367  17.530   6.764
 4814POPC   C3A61493  42.320  17.504   7.064
 4814POPC   C4A61494  42.354  17.527   7.364
 4814POPC   C1B61495  42.534  17.375   6.464
 4814POPC   C2B61496  42.540  17.387   6.764
 4814POPC   C3B61497  42.561  17.339   7.064
 4814POPC   C4B61498  42.522  17.386   7.364
 4815POPC   NC361499   0.466  26.018   5.564
 4815POPC   PO461500   0.404  26.042   5.864
 4815POPC   GL161501   0.486  26.049   6.164
 4815POPC   GL261502   0.458  25.911   6.164
 4815POPC   C1A61503   0.480  25.998   6.464
 4815POPC   D2A61504   0.469  26.014   6.764
 4815POPC   C3A61505   0.487  26.080   7.064
 4815POPC   C4A61506   0.412  26.054   7.364
 4815POPC   C1B61507   0.562  25.826   6.464
 4815POPC   C2B61508   0.595  25.797   6.764
 4815POPC   C3B61509   0.574  25.847   7.064
 4815POPC   C4B61510   0.554  25.844   7.364
 4816POPC   NC361511  38.422   4.300   5.564
 4816POPC   PO461512  38.485   4.275   5.864
 4816POPC   GL161513  38.486   4.341   6.164
 4816POPC   GL261514  38.394   4.219   6.164
 4816POPC   C1A61515  38.426   4.289   6.464
 4816POPC   D2A61516  38.435   4.306   6.764
 4816POPC   C3A61517  38.458   4.300   7.064
 4816POPC   C4A61518  38.456   4.270   7.364
 4816POPC   C1B61519  38.253   4.206   6.464
 4816POPC   C2B61520  38.274   4.196   6.764
 4816POPC   C3B61521  38.294   4.160   7.064
 4816POPC   C4B61522  38.245   4.148   7.364
 4817POPC   NC361523  32.237  41.517   5.564
 4817POPC   PO461524  32.238  41.606   5.864
 4817POPC   GL161525  32.278  41.607   6.164
 4817POPC   GL261526  32.163  41.670   6.164
 4817POPC   C1A61527  32.222  41.519   6.464
 4817POPC   D2A61528  32.258  41.551   6.764
 4817POPC   C3A61529  32.214  41.525   7.064
 4817POPC   C4A61530  32.256  41.554   7.364
 4817POPC   C1B61531  32.218  41.830   6.464
 4817POPC   C2B61532  32.192  41.834   6.764
 4817POPC   C3B61533  32.175  41.769   7.064
 4817POPC   C4B61534  32.131  41.790   7.364
 4818POPC   NC361535  23.738  16.005   5.564
 4818POPC   PO461536  23.746  15.941   5.864
 4818POPC   GL161537  23.759  15.940   6.164
 4818POPC   GL261538  23.749  15.858   6.164
 4818POPC   C1A61539  23.716  15.996   6.464
 4818POPC   D2A61540  23.681  15.983   6.764
 4818POPC   C3A61541  23.737  16.002   7.064
 4818POPC   C4A61542  23.756  15.984   7.364
 4818POPC   C1B61543  23.884  15.769   6.464
 4818POPC   C2B61544  23.825  15.786   6.764
 4818POPC   C3B61545  23.879  15.790   7.064
 4818POPC   C4B61546  23.843  15.771   7.364
 4819POPC   NC361547   7.436  43.152   5.564
 4819POPC   PO461548   7.411  43.083   5.864
 4819POPC   GL161549   7.372  43.096   6.164
 4819POPC   GL261550   7.576  43.190   6.164
 4819POPC   C1A61551   7.429  43.121   6.464
 4819POPC   D2A61552   7.437  43.089   6.764
 4819POPC   C3A61553   7.398  43.132   7.064
 4819POPC   C4A61554   7.462  43.101   7.364
 4819POPC   C1B61555   7.642  43.224   6.464
 4819POPC   C2B61556   7.668  43.226   6.764
 4819POPC   C3B61557   7.692  43.219   7.064
 4819POPC   C4B61558   7.627  43.197   7.364
 4820POPC   NC361559   7.460  12.095   5.564
 4820POPC   PO461560   7.444  12.028   5.864
 4820POPC   GL161561   7.433  12.105   6.164
 4820POPC   GL261562   7.560  11.961   6.164
 4820POPC   C1A61563   7.467  12.089   6.464
 4820POPC   D2A61564   7.446  12.099   6.764
 4820POPC   C3A61565   7.372  12.051   7.064
 4820POPC   C4A61566   7.401  12.118   7.364
 4820POPC   C1B61567   7.600  11.902   6.464
 4820POPC   C2B61568   7.636  11.880   6.764
 4820POPC   C3B61569   7.649  11.946   7.064
 4820POPC   C4B61570   7.576  11.917   7.364
 4821POPC   NC361571  40.793  24.476   5.564
 4821POPC   PO461572  40.748  24.443   5.864
 4821POPC   GL161573  40.756  24.491   6.164
 4821POPC   GL261574  40.688  24.457   6.164
 4821POPC   C1A61575  40.771  24.465   6.464
 4821POPC   D2A61576  40.823  24.455   6.764
 4821POPC   C3A61577  40.787  24.533   7.064
 4821POPC   C4A61578  40.739  24.496   7.364
 4821POPC   C1B61579  40.600  24.355   6.464
 4821POPC   C2B61580  40.629  24.365   6.764
 4821POPC   C3B61581  40.545  24.369   7.064
 4821POPC   C4B61582  40.591  24.367   7.364
 4822POPC   NC361583  19.825   2.725   5.564
 4822POPC   PO461584  19.851   2.760   5.864
 4822POPC   GL161585  19.843   2.748   6.164
 4822POPC   GL261586  19.693   2.811   6.164
 4822POPC   C1A61587  19.813   2.757   6.464
 4822POPC   D2A61588  19.807   2.773   6.764
 4822POPC   C3A61589  19.869   2.791   7.064
 4822POPC   C4A61590  19.809   2.754   7.364
 4822POPC   C1B61591  19.602   2.765   6.464
 4822POPC   C2B61592  19.602   2.798   6.764
 4822POPC   C3B61593  19.556   2.807   7.064
 4822POPC   C4B61594  19.572   2.789   7.364
 4823POPC   NC361595   9.747  39.280   5.564
 4823POPC   PO461596   9.700  39.184   5.864
 4823POPC   GL161597   9.701  39.243   6.164
 4823POPC   GL261598   9.719  39.293   6.164
 4823POPC   C1A61599   9.737  39.191   6.464
 4823POPC   D2A61600   9.762  39.206   6.764
 4823POPC   C3A61601   9.776  39.245   7.064
 4823POPC   C4A61602   9.711  39.239   7.364
 4823POPC   C1B61603   9.569  39.474   6.464
 4823POPC   C2B61604   9.602  39.465   6.764
 4823POPC   C3B61605   9.593  39.419   7.064
 4823POPC   C4B61606   9.553  39.449   7.364
 4824POPC   NC361607  27.618  36.945   5.564
 4824POPC   PO461608  27.617  36.886   5.864
 4824POPC   GL161609  27.568  36.938   6.164
 4824POPC   GL261610  27.515  36.956   6.164
 4824POPC   C1A61611  27.566  36.944   6.464
 4824POPC   D2A61612  27.570  36.930   6.764
 4824POPC   C3A61613  27.603  36.929   7.064
 4824POPC   C4A61614  27.620  36.864   7.364
 4824POPC   C1B61615  27.329  36.959   6.464
 4824POPC   C2B61616  27.347  36.920   6.764
 4824POPC   C3B61617  27.390  37.001   7.064
 4824POPC   C4B61618  27.380  37.001   7.364
 4825POPC   NC361619  21.410  33.780   5.564
 4825POPC   PO461620  21.398  33.809   5.864
 4825POPC   GL161621  21.394  33.776   6.164
 4825POPC   GL261622  21.440  33.920   6.164
 4825POPC   C1A61623  21.432  33.847   6.464
 4825POPC   D2A61624  21.338  33.814   6.764
 4825POPC   C3A61625  21.432  33.815   7.064
 4825POPC   C4A61626  21.370  33.783   7.364
 4825POPC   C1B61627  21.478  34.034   6.464
 4825POPC   C2B61628  21.470  34.067   6.764
 4825POPC   C3B61629  21.467  34.036   7.064
 4825POPC   C4B61630  21.516  34.058   7.364
 4826POPC   NC361631  26.027  43.841   5.564
 4826POPC   PO461632  25.995  43.893   5.864
 4826POPC   GL161633  26.054  43.863   6.164
 4826POPC   GL261634  25.966  43.878   6.164
 4826POPC   C1A61635  26.067  43.898   6.464
 4826POPC   D2A61636  25.998  43.917   6.764
 4826POPC   C3A61637  26.057  43.848   7.064
 4826POPC   C4A61638  26.054  43.847   7.364
 4826POPC   C1B61639  25.754  44.005   6.464
 4826POPC   C2B61640  25.800  43.944   6.764
 4826POPC   C3B61641  25.831  43.942   7.064
 4826POPC   C4B61642  25.792  43.930   7.364
 4827POPC   NC361643  35.346  41.510   5.564
 4827POPC   PO461644  35.393  41.605   5.864
 4827POPC   GL161645  35.389  41.520   6.164
 4827POPC   GL261646  35.418  41.444   6.164
 4827POPC   C1A61647  35.369  41.537   6.464
 4827POPC   D2A61648  35.346  41.551   6.764
 4827POPC   C3A61649  35.371  41.525   7.064
 4827POPC   C4A61650  35.379  41.558   7.364
 4827POPC   C1B61651  35.517  41.355   6.464
 4827POPC   C2B61652  35.485  41.300   6.764
 4827POPC   C3B61653  35.481  41.363   7.064
 4827POPC   C4B61654  35.499  41.368   7.364
 4828POPC   NC361655  19.808  11.278   5.564
 4828POPC   PO461656  19.841  11.280   5.864
 4828POPC   GL161657  19.785  11.338   6.164
 4828POPC   GL261658  19.767  11.380   6.164
 4828POPC   C1A61659  19.796  11.287   6.464
 4828POPC   D2A61660  19.878  11.285   6.764
 4828POPC   C3A61661  19.785  11.301   7.064
 4828POPC   C4A61662  19.821  11.347   7.364
 4828POPC   C1B61663  19.690  11.479   6.464
 4828POPC   C2B61664  19.626  11.497   6.764
 4828POPC   C3B61665  19.643  11.440   7.064
 4828POPC   C4B61666  19.663  11.482   7.364
 4829POPC   NC361667  11.280  37.670   5.564
 4829POPC   PO461668  11.347  37.678   5.864
 4829POPC   GL161669  11.335  37.724   6.164
 4829POPC   GL261670  11.143  37.729   6.164
 4829POPC   C1A61671  11.266  37.660   6.464
 4829POPC   D2A61672  11.274  37.729   6.764
 4829POPC   C3A61673  11.317  37.663   7.064
 4829POPC   C4A61674  11.268  37.668   7.364
 4829POPC   C1B61675  11.098  37.770   6.464
 4829POPC   C2B61676  11.100  37.738   6.764
 4829POPC   C3B61677  11.020  37.716   7.064
 4829POPC   C4B61678  11.106  37.727   7.364
 4830POPC   NC361679  15.176  14.418   5.564
 4830POPC   PO461680  15.149  14.380   5.864
 4830POPC   GL161681  15.164  14.453   6.164
 4830POPC   GL261682  15.039  14.500   6.164
 4830POPC   C1A61683  15.151  14.394   6.464
 4830POPC   D2A61684  15.209  14.397   6.764
 4830POPC   C3A61685  15.210  14.389   7.064
 4830POPC   C4A61686  15.224  14.392   7.364
 4830POPC   C1B61687  14.956  14.565   6.464
 4830POPC   C2B61688  14.952  14.511   6.764
 4830POPC   C3B61689  14.943  14.572   7.064
 4830POPC   C4B61690  14.958  14.508   7.364
 4831POPC   NC361691  12.123   5.118   5.564
 4831POPC   PO461692  12.085   5.102   5.864
 4831POPC   GL161693  12.083   5.124   6.164
 4831POPC   GL261694  12.203   5.094   6.164
 4831POPC   C1A61695  12.060   5.118   6.464
 4831POPC   D2A61696  12.101   5.140   6.764
 4831POPC   C3A61697  12.032   5.044   7.064
 4831POPC   C4A61698  12.038   5.136   7.364
 4831POPC   C1B61699  12.375   5.083   6.464
 4831POPC   C2B61700  12.354   5.131   6.764
 4831POPC   C3B61701  12.353   5.139   7.064
 4831POPC   C4B61702  12.287   5.114   7.364
 4832POPC   NC361703  43.106  15.131   5.564
 4832POPC   PO461704  43.083  15.167   5.864
 4832POPC   GL161705  43.097  15.150   6.164
 4832POPC   GL261706  43.098  15.302   6.164
 4832POPC   C1A61707  43.120  15.174   6.464
 4832POPC   D2A61708  43.145  15.151   6.764
 4832POPC   C3A61709  43.103  15.214   7.064
 4832POPC   C4A61710  43.076  15.219   7.364
 4832POPC   C1B61711  43.132  15.389   6.464
 4832POPC   C2B61712  43.204  15.416   6.764
 4832POPC   C3B61713  43.182  15.400   7.064
 4832POPC   C4B61714  43.147  15.396   7.364
 4833POPC   NC361715  23.725  36.866   5.564
 4833POPC   PO461716  23.708  36.881   5.864
 4833POPC   GL161717  23.690  36.892   6.164
 4833POPC   GL261718  23.552  36.894   6.164
 4833POPC   C1A61719  23.673  36.916   6.464
 4833POPC   D2A61720  23.762  36.903   6.764
 4833POPC   C3A61721  23.749  36.950   7.064
 4833POPC   C4A61722  23.725  36.886   7.364
 4833POPC   C1B61723  23.513  36.954   6.464
 4833POPC   C2B61724  23.420  36.904   6.764
 4833POPC   C3B61725  23.452  36.944   7.064
 4833POPC   C4B61726  23.429  36.947   7.364
 4834POPC   NC361727   2.013  28.357   5.564
 4834POPC   PO461728   2.039  28.393   5.864
 4834POPC   GL161729   1.989  28.398   6.164
 4834POPC   GL261730   1.882  28.386   6.164
 4834POPC   C1A61731   2.010  28.392   6.464
 4834POPC   D2A61732   1.954  28.364   6.764
 4834POPC   C3A61733   2.013  28.406   7.064
 4834POPC   C4A61734   2.023  28.340   7.364
 4834POPC   C1B61735   1.782  28.304   6.464
 4834POPC   C2B61736   1.713  28.323   6.764
 4834POPC   C3B61737   1.780  28.334   7.064
 4834POPC   C4B61738   1.722  28.278   7.364
 4835POPC   NC361739  26.816  20.577   5.564
 4835POPC   PO461740  26.848  20.641   5.864
 4835POPC   GL161741  26.792  20.618   6.164
 4835POPC   GL261742  26.914  20.751   6.164
 4835POPC   C1A61743  26.838  20.612   6.464
 4835POPC   D2A61744  26.828  20.622   6.764
 4835POPC   C3A61745  26.847  20.619   7.064
 4835POPC   C4A61746  26.862  20.648   7.364
 4835POPC   C1B61747  26.879  20.882   6.464
 4835POPC   C2B61748  26.947  20.822   6.764
 4835POPC   C3B61749  26.886  20.823   7.064
 4835POPC   C4B61750  26.935  20.863   7.364
 4836POPC   NC361751  11.347  15.981   5.564
 4836POPC   PO461752  11.256  15.967   5.864
 4836POPC   GL161753  11.333  15.945   6.164
 4836POPC   GL261754  11.325  15.804   6.164
 4836POPC   C1A61755  11.260  15.968   6.464
 4836POPC   D2A61756  11.263  15.995   6.764
 4836POPC   C3A61757  11.342  15.915   7.064
 4836POPC   C4A61758  11.316  15.929   7.364
 4836POPC   C1B61759  11.404  15.750   6.464
 4836POPC   C2B61760  11.466  15.742   6.764
 4836POPC   C3B61761  11.394  15.765   7.064
 4836POPC   C4B61762  11.441  15.790   7.364
 4837POPC   NC361763  11.304   5.837   5.564
 4837POPC   PO461764  11.340   5.849   5.864
 4837POPC   GL161765  11.336   5.877   6.164
 4837POPC   GL261766  11.352   5.779   6.164
 4837POPC   C1A61767  11.315   5.820   6.464
 4837POPC   D2A61768  11.292   5.850   6.764
 4837POPC   C3A61769  11.339   5.904   7.064
 4837POPC   C4A61770  11.333   5.838   7.364
 4837POPC   C1B61771  11.462   5.700   6.464
 4837POPC   C2B61772  11.436   5.664   6.764
 4837POPC   C3B61773  11.475   5.642   7.064
 4837POPC   C4B61774  11.500   5.688   7.364
 4838POPC   NC361775  20.646  20.627   5.564
 4838POPC   PO461776  20.620  20.612   5.864
 4838POPC   GL161777  20.611  20.567   6.164
 4838POPC   GL261778  20.462  20.711   6.164
 4838POPC   C1A61779  20.598  20.570   6.464
 4838POPC   D2A61780  20.610  20.597   6.764
 4838POPC   C3A61781  20.592  20.619   7.064
 4838POPC   C4A61782  20.608  20.562   7.364
 4838POPC   C1B61783  20.354  20.736   6.464
 4838POPC   C2B61784  20.420  20.778   6.764
 4838POPC   C3B61785  20.396  20.764   7.064
 4838POPC   C4B61786  20.378  20.709   7.364
 4839POPC   NC361787  40.790  15.982   5.564
 4839POPC   PO461788  40.790  15.985   5.864
 4839POPC   GL161789  40.788  15.989   6.164
 4839POPC   GL261790  40.695  15.864   6.164
 4839POPC   C1A61791  40.803  15.968   6.464
 4839POPC   D2A61792  40.785  15.962   6.764
 4839POPC   C3A61793  40.825  15.908   7.064
 4839POPC   C4A61794  40.744  15.949   7.364
 4839POPC   C1B61795  40.698  15.744   6.464
 4839POPC   C2B61796  40.651  15.693   6.764
 4839POPC   C3B61797  40.692  15.759   7.064
 4839POPC   C4B61798  40.657  15.781   7.364
 4840POPC   NC361799  44.657  43.113   5.564
 4840POPC   PO461800  44.651  43.119   5.864
 4840POPC   GL161801  44.700  43.100   6.164
 4840POPC   GL261802  44.803  43.035   6.164
 4840POPC   C1A61803  44.689  43.118   6.464
 4840POPC   D2A61804  44.680  43.105   6.764
 4840POPC   C3A61805  44.661  43.099   7.064
 4840POPC   C4A61806  44.692  43.097   7.364
 4840POPC   C1B61807  44.932  43.038   6.464
 4840POPC   C2B61808  44.885  43.057   6.764
 4840POPC   C3B61809  44.928  43.030   7.064
 4840POPC   C4B61810  44.944  43.063   7.364
 4841POPC   NC361811  28.324  27.616   5.564
 4841POPC   PO461812  28.362  27.617   5.864
 4841POPC   GL161813  28.369  27.544   6.164
 4841POPC   GL261814  28.411  27.661   6.164
 4841POPC   C1A61815  28.394  27.570   6.464
 4841POPC   D2A61816  28.365  27.604   6.764
 4841POPC   C3A61817  28.376  27.586   7.064
 4841POPC   C4A61818  28.341  27.579   7.364
 4841POPC   C1B61819  28.444  27.839   6.464
 4841POPC   C2B61820  28.471  27.784   6.764
 4841POPC   C3B61821  28.469  27.796   7.064
 4841POPC   C4B61822  28.453  27.786   7.364
 4842POPC   NC361823  33.073  40.823   5.564
 4842POPC   PO461824  33.003  40.795   5.864
 4842POPC   GL161825  33.027  40.768   6.164
 4842POPC   GL261826  33.030  40.636   6.164
 4842POPC   C1A61827  33.061  40.829   6.464
 4842POPC   D2A61828  32.994  40.811   6.764
 4842POPC   C3A61829  32.982  40.789   7.064
 4842POPC   C4A61830  33.007  40.824   7.364
 4842POPC   C1B61831  33.053  40.554   6.464
 4842POPC   C2B61832  32.980  40.492   6.764
 4842POPC   C3B61833  32.982  40.505   7.064
 4842POPC   C4B61834  33.013  40.550   7.364
 4843POPC   NC361835  13.636  43.065   5.564
 4843POPC   PO461836  13.630  43.101   5.864
 4843POPC   GL161837  13.591  43.063   6.164
 4843POPC   GL261838  13.707  43.066   6.164
 4843POPC   C1A61839  13.602  43.149   6.464
 4843POPC   D2A61840  13.586  43.128   6.764
 4843POPC   C3A61841  13.629  43.068   7.064
 4843POPC   C4A61842  13.657  43.081   7.364
 4843POPC   C1B61843  13.801  42.964   6.464
 4843POPC   C2B61844  13.761  42.885   6.764
 4843POPC   C3B61845  13.785  42.892   7.064
 4843POPC   C4B61846  13.763  42.899   7.364
 4844POPC   NC361847  28.396   8.199   5.564
 4844POPC   PO461848  28.387   8.184   5.864
 4844POPC   GL161849  28.365   8.220   6.164
 4844POPC   GL261850  28.212   8.256   6.164
 4844POPC   C1A61851  28.411   8.240   6.464
 4844POPC   D2A61852  28.320   8.193   6.764
 4844POPC   C3A61853  28.321   8.234   7.064
 4844POPC   C4A61854  28.350   8.225   7.364
 4844POPC   C1B61855  28.143   8.218   6.464
 4844POPC   C2B61856  28.081   8.264   6.764
 4844POPC   C3B61857  28.141   8.262   7.064
 4844POPC   C4B61858  28.117   8.264   7.364
 4845POPC   NC361859  23.713  13.661   5.564
 4845POPC   PO461860  23.691  13.654   5.864
 4845POPC   GL161861  23.739  13.645   6.164
 4845POPC   GL261862  23.639  13.619   6.164
 4845POPC   C1A61863  23.751  13.592   6.464
 4845POPC   D2A61864  23.699  13.606   6.764
 4845POPC   C3A61865  23.673  13.585   7.064
 4845POPC   C4A61866  23.760  13.579   7.364
 4845POPC   C1B61867  23.452  13.669   6.464
 4845POPC   C2B61868  23.474  13.652   6.764
 4845POPC   C3B61869  23.473  13.683   7.064
 4845POPC   C4B61870  23.470  13.712   7.364
 4846POPC   NC361871  41.580  26.064   5.564
 4846POPC   PO461872  41.531  26.006   5.864
 4846POPC   GL161873  41.588  26.083   6.164
 4846POPC   GL261874  41.573  25.922   6.164
 4846POPC   C1A61875  41.587  26.069   6.464
 4846POPC   D2A61876  41.520  26.052   6.764
 4846POPC   C3A61877  41.565  26.004   7.064
 4846POPC   C4A61878  41.527  26.041   7.364
 4846POPC   C1B61879  41.556  25.815   6.464
 4846POPC   C2B61880  41.583  25.746   6.764
 4846POPC   C3B61881  41.513  25.799   7.064
 4846POPC   C4B61882  41.583  25.749   7.364
 4847POPC   NC361883  19.815   3.562   5.564
 4847POPC   PO461884  19.793   3.505   5.864
 4847POPC   GL161885  19.802   3.497   6.164
 4847POPC   GL261886  19.744   3.404   6.164
 4847POPC   C1A61887  19.846   3.545   6.464
 4847POPC   D2A61888  19.798   3.582   6.764
 4847POPC   C3A61889  19.847   3.538   7.064
 4847POPC   C4A61890  19.871   3.576   7.364
 4847POPC   C1B61891  19.662   3.411   6.464
 4847POPC   C2B61892  19.656   3.336   6.764
 4847POPC   C3B61893  19.686   3.354   7.064
 4847POPC   C4B61894  19.618   3.374   7.364
 4848POPC   NC361895  29.936  36.908   5.564
 4848POPC   PO461896  29.969  36.943   5.864
 4848POPC   GL161897  29.919  36.907   6.164
 4848POPC   GL261898  29.968  36.976   6.164
 4848POPC   C1A61899  29.915  36.883   6.464
 4848POPC   D2A61900  29.927  36.925   6.764
 4848POPC   C3A61901  29.920  36.888   7.064
 4848POPC   C4A61902  29.875  36.886   7.364
 4848POPC   C1B61903  30.058  37.129   6.464
 4848POPC   C2B61904  30.047  37.062   6.764
 4848POPC   C3B61905  30.090  37.145   7.064
 4848POPC   C4B61906  30.031  37.086   7.364
 4849POPC   NC361907   6.670  27.635   5.564
 4849POPC   PO461908   6.685  27.632   5.864
 4849POPC   GL161909   6.645  27.639   6.164
 4849POPC   GL261910   6.552  27.575   6.164
 4849POPC   C1A61911   6.677  27.568   6.464
 4849POPC   D2A61912   6.631  27.553   6.764
 4849POPC   C3A61913   6.627  27.584   7.064
 4849POPC   C4A61914   6.637  27.557   7.364
 4849POPC   C1B61915   6.406  27.526   6.464
 4849POPC   C2B61916   6.392  27.464   6.764
 4849POPC   C3B61917   6.422  27.508   7.064
 4849POPC   C4B61918   6.396  27.535   7.364
 4850POPC   NC361919  38.438  15.165   5.564
 4850POPC   PO461920  38.427  15.222   5.864
 4850POPC   GL161921  38.474  15.209   6.164
 4850POPC   GL261922  38.372  15.179   6.164
 4850POPC   C1A61923  38.465  15.189   6.464
 4850POPC   D2A61924  38.499  15.174   6.764
 4850POPC   C3A61925  38.439  15.200   7.064
 4850POPC   C4A61926  38.480  15.158   7.364
 4850POPC   C1B61927  38.182  15.244   6.464
 4850POPC   C2B61928  38.167  15.265   6.764
 4850POPC   C3B61929  38.182  15.232   7.064
 4850POPC   C4B61930  38.190  15.237   7.364
 4851POPC   NC361931  29.194   2.785   5.564
 4851POPC   PO461932  29.176   2.736   5.864
 4851POPC   GL161933  29.115   2.757   6.164
 4851POPC   GL261934  29.193   2.911   6.164
 4851POPC   C1A61935  29.190   2.793   6.464
 4851POPC   D2A61936  29.109   2.749   6.764
 4851POPC   C3A61937  29.118   2.764   7.064
 4851POPC   C4A61938  29.179   2.732   7.364
 4851POPC   C1B61939  29.267   3.036   6.464
 4851POPC   C2B61940  29.239   2.966   6.764
 4851POPC   C3B61941  29.247   3.004   7.064
 4851POPC   C4B61942  29.244   2.951   7.364
 4852POPC   NC361943  42.331  21.371   5.564
 4852POPC   PO461944  42.377  21.341   5.864
 4852POPC   GL161945  42.357  21.342   6.164
 4852POPC   GL261946  42.498  21.370   6.164
 4852POPC   C1A61947  42.309  21.405   6.464
 4852POPC   D2A61948  42.337  21.421   6.764
 4852POPC   C3A61949  42.313  21.337   7.064
 4852POPC   C4A61950  42.340  21.420   7.364
 4852POPC   C1B61951  42.579  21.411   6.464
 4852POPC   C2B61952  42.537  21.364   6.764
 4852POPC   C3B61953  42.564  21.406   7.064
 4852POPC   C4B61954  42.581  21.352   7.364
 4853POPC   NC361955  44.655  34.556   5.564
 4853POPC   PO461956  44.659  34.527   5.864
 4853POPC   GL161957  44.620  34.557   6.164
 4853POPC   GL261958  44.735  34.603   6.164
 4853POPC   C1A61959  44.698  34.625   6.464
 4853POPC   D2A61960  44.658  34.562   6.764
 4853POPC   C3A61961  44.640  34.588   7.064
 4853POPC   C4A61962  44.661  34.531   7.364
 4853POPC   C1B61963  44.891  34.729   6.464
 4853POPC   C2B61964  44.916  34.758   6.764
 4853POPC   C3B61965  44.885  34.706   7.064
 4853POPC   C4B61966  44.911  34.689   7.364
 4854POPC   NC361967  38.437  30.733   5.564
 4854POPC   PO461968  38.495  30.686   5.864
 4854POPC   GL161969  38.422  30.667   6.164
 4854POPC   GL261970  38.564  30.793   6.164
 4854POPC   C1A61971  38.411  30.667   6.464
 4854POPC   D2A61972  38.497  30.687   6.764
 4854POPC   C3A61973  38.429  30.718   7.064
 4854POPC   C4A61974  38.470  30.709   7.364
 4854POPC   C1B61975  38.623  30.913   6.464
 4854POPC   C2B61976  38.619  30.929   6.764
 4854POPC   C3B61977  38.599  30.942   7.064
 4854POPC   C4B61978  38.576  30.887   7.364
 4855POPC   NC361979  21.420  37.715   5.564
 4855POPC   PO461980  21.391  37.665   5.864
 4855POPC   GL161981  21.395  37.710   6.164
 4855POPC   GL261982  21.479  37.816   6.164
 4855POPC   C1A61983  21.394  37.716   6.464
 4855POPC   D2A61984  21.395  37.727   6.764
 4855POPC   C3A61985  21.418  37.634   7.064
 4855POPC   C4A61986  21.388  37.687   7.364
 4855POPC   C1B61987  21.469  37.855   6.464
 4855POPC   C2B61988  21.511  37.858   6.764
 4855POPC   C3B61989  21.518  37.938   7.064
 4855POPC   C4B61990  21.550  37.853   7.364
 4856POPC   NC361991   1.175   2.012   5.564
 4856POPC   PO461992   1.206   2.029   5.864
 4856POPC   GL161993   1.224   2.032   6.164
 4856POPC   GL261994   1.148   1.902   6.164
 4856POPC   C1A61995   1.165   2.018   6.464
 4856POPC   D2A61996   1.199   2.026   6.764
 4856POPC   C3A61997   1.250   1.997   7.064
 4856POPC   C4A61998   1.211   1.944   7.364
 4856POPC   C1B61999   1.122   1.800   6.464
 4856POPC   C2B62000   1.133   1.745   6.764
 4856POPC   C3B62001   1.110   1.800   7.064
 4856POPC   C4B62002   1.157   1.761   7.364
 4857POPC   NC362003  41.606  15.927   5.564
 4857POPC   PO462004  41.537  15.946   5.864
 4857POPC   GL162005  41.601  15.988   6.164
 4857POPC   GL262006  41.665  16.026   6.164
 4857POPC   C1A62007  41.585  15.993   6.464
 4857POPC   D2A62008  41.524  15.910   6.764
 4857POPC   C3A62009  41.512  15.922   7.064
 4857POPC   C4A62010  41.514  15.951   7.364
 4857POPC   C1B62011  41.742  16.156   6.464
 4857POPC   C2B62012  41.710  16.115   6.764
 4857POPC   C3B62013  41.674  16.183   7.064
 4857POPC   C4B62014  41.735  16.130   7.364
 4858POPC   NC362015  19.098  21.389   5.564
 4858POPC   PO462016  19.067  21.433   5.864
 4858POPC   GL162017  19.019  21.371   6.164
 4858POPC   GL262018  18.993  21.519   6.164
 4858POPC   C1A62019  19.016  21.360   6.464
 4858POPC   D2A62020  19.103  21.356   6.764
 4858POPC   C3A62021  19.026  21.431   7.064
 4858POPC   C4A62022  19.104  21.337   7.364
 4858POPC   C1B62023  18.906  21.520   6.464
 4858POPC   C2B62024  18.861  21.512   6.764
 4858POPC   C3B62025  18.896  21.584   7.064
 4858POPC   C4B62026  18.854  21.531   7.364
 4859POPC   NC362027  40.821  22.121   5.564
 4859POPC   PO462028  40.819  22.124   5.864
 4859POPC   GL162029  40.825  22.197   6.164
 4859POPC   GL262030  40.851  22.291   6.164
 4859POPC   C1A62031  40.818  22.118   6.464
 4859POPC   D2A62032  40.749  22.206   6.764
 4859POPC   C3A62033  40.812  22.171   7.064
 4859POPC   C4A62034  40.758  22.162   7.364
 4859POPC   C1B62035  40.886  22.413   6.464
 4859POPC   C2B62036  40.902  22.352   6.764
 4859POPC   C3B62037  40.829  22.413   7.064
 4859POPC   C4B62038  40.833  22.363   7.364
 4860POPC   NC362039  16.734  29.121   5.564
 4860POPC   PO462040  16.757  29.181   5.864
 4860POPC   GL162041  16.717  29.144   6.164
 4860POPC   GL262042  16.829  29.210   6.164
 4860POPC   C1A62043  16.744  29.159   6.464
 4860POPC   D2A62044  16.708  29.141   6.764
 4860POPC   C3A62045  16.695  29.130   7.064
 4860POPC   C4A62046  16.695  29.185   7.364
 4860POPC   C1B62047  16.945  29.172   6.464
 4860POPC   C2B62048  17.020  29.202   6.764
 4860POPC   C3B62049  17.018  29.239   7.064
 4860POPC   C4B62050  16.962  29.192   7.364
 4861POPC   NC362051  18.321   2.781   5.564
 4861POPC   PO462052  18.288   2.745   5.864
 4861POPC   GL162053  18.256   2.759   6.164
 4861POPC   GL262054  18.456   2.789   6.164
 4861POPC   C1A62055  18.317   2.742   6.464
 4861POPC   D2A62056  18.287   2.731   6.764
 4861POPC   C3A62057  18.305   2.778   7.064
 4861POPC   C4A62058  18.297   2.798   7.364
 4861POPC   C1B62059  18.512   2.679   6.464
 4861POPC   C2B62060  18.530   2.754   6.764
 4861POPC   C3B62061  18.528   2.689   7.064
 4861POPC   C4B62062  18.496   2.678   7.364
 4862POPC   NC362063  28.352  19.875   5.564
 4862POPC   PO462064  28.391  19.807   5.864
 4862POPC   GL162065  28.340  19.799   6.164
 4862POPC   GL262066  28.236  19.826   6.164
 4862POPC   C1A62067  28.320  19.802   6.464
 4862POPC   D2A62068  28.363  19.881   6.764
 4862POPC   C3A62069  28.408  19.863   7.064
 4862POPC   C4A62070  28.377  19.807   7.364
 4862POPC   C1B62071  28.088  19.719   6.464
 4862POPC   C2B62072  28.151  19.737   6.764
 4862POPC   C3B62073  28.102  19.743   7.064
 4862POPC   C4B62074  28.150  19.745   7.364
 4863POPC   NC362075   2.736   2.796   5.564
 4863POPC   PO462076   2.782   2.801   5.864
 4863POPC   GL162077   2.726   2.717   6.164
 4863POPC   GL262078   2.821   2.843   6.164
 4863POPC   C1A62079   2.770   2.721   6.464
 4863POPC   D2A62080   2.732   2.730   6.764
 4863POPC   C3A62081   2.784   2.808   7.064
 4863POPC   C4A62082   2.728   2.755   7.364
 4863POPC   C1B62083   2.801   2.982   6.464
 4863POPC   C2B62084   2.810   2.967   6.764
 4863POPC   C3B62085   2.832   3.037   7.064
 4863POPC   C4B62086   2.797   3.045   7.364
 4864POPC   NC362087   1.168  10.533   5.564
 4864POPC   PO462088   1.217  10.483   5.864
 4864POPC   GL162089   1.238  10.497   6.164
 4864POPC   GL262090   1.139  10.426   6.164
 4864POPC   C1A62091   1.206  10.525   6.464
 4864POPC   D2A62092   1.210  10.547   6.764
 4864POPC   C3A62093   1.180  10.533   7.064
 4864POPC   C4A62094   1.178  10.548   7.364
 4864POPC   C1B62095   1.067  10.381   6.464
 4864POPC   C2B62096   1.055  10.387   6.764
 4864POPC   C3B62097   1.086  10.339   7.064
 4864POPC   C4B62098   1.066  10.357   7.364
 4865POPC   NC362099  40.779  33.022   5.564
 4865POPC   PO462100  40.810  33.053   5.864
 4865POPC   GL162101  40.801  33.010   6.164
 4865POPC   GL262102  40.737  32.919   6.164
 4865POPC   C1A62103  40.753  33.013   6.464
 4865POPC   D2A62104  40.740  33.066   6.764
 4865POPC   C3A62105  40.735  33.036   7.064
 4865POPC   C4A62106  40.814  33.067   7.364
 4865POPC   C1B62107  40.565  32.812   6.464
 4865POPC   C2B62108  40.590  32.803   6.764
 4865POPC   C3B62109  40.575  32.828   7.064
 4865POPC   C4B62110  40.656  32.795   7.364
 4866POPC   NC362111  29.183   4.297   5.564
 4866POPC   PO462112  29.109   4.330   5.864
 4866POPC   GL162113  29.123   4.308   6.164
 4866POPC   GL262114  29.040   4.350   6.164
 4866POPC   C1A62115  29.189   4.281   6.464
 4866POPC   D2A62116  29.158   4.273   6.764
 4866POPC   C3A62117  29.111   4.289   7.064
 4866POPC   C4A62118  29.130   4.348   7.364
 4866POPC   C1B62119  28.914   4.355   6.464
 4866POPC   C2B62120  28.906   4.283   6.764
 4866POPC   C3B62121  28.924   4.327   7.064
 4866POPC   C4B62122  28.933   4.339   7.364
 4867POPC   NC362123  28.374  29.097   5.564
 4867POPC   PO462124  28.394  29.142   5.864
 4867POPC   GL162125  28.368  29.171   6.164
 4867POPC   GL262126  28.370  29.293   6.164
 4867POPC   C1A62127  28.402  29.134   6.464
 4867POPC   D2A62128  28.373  29.139   6.764
 4867POPC   C3A62129  28.375  29.132   7.064
 4867POPC   C4A62130  28.416  29.154   7.364
 4867POPC   C1B62131  28.280  29.378   6.464
 4867POPC   C2B62132  28.282  29.379   6.764
 4867POPC   C3B62133  28.248  29.417   7.064
 4867POPC   C4B62134  28.301  29.392   7.364
 4868POPC   NC362135   9.711  29.176   5.564
 4868POPC   PO462136   9.741  29.128   5.864
 4868POPC   GL162137   9.779  29.096   6.164
 4868POPC   GL262138   9.761  29.264   6.164
 4868POPC   C1A62139   9.790  29.111   6.464
 4868POPC   D2A62140   9.742  29.140   6.764
 4868POPC   C3A62141   9.726  29.130   7.064
 4868POPC   C4A62142   9.739  29.102   7.364
 4868POPC   C1B62143   9.824  29.335   6.464
 4868POPC   C2B62144   9.823  29.352   6.764
 4868POPC   C3B62145   9.841  29.359   7.064
 4868POPC   C4B62146   9.813  29.362   7.364
 4869POPC   NC362147  44.668  39.183   5.564
 4869POPC   PO462148  44.636  39.268   5.864
 4869POPC   GL162149  44.706  39.259   6.164
 4869POPC   GL262150  44.491  39.197   6.164
 4869POPC   C1A62151  44.700  39.202   6.464
 4869POPC   D2A62152  44.618  39.280   6.764
 4869POPC   C3A62153  44.640  39.235   7.064
 4869POPC   C4A62154  44.616  39.220   7.364
 4869POPC   C1B62155  44.391  39.188   6.464
 4869POPC   C2B62156  44.383  39.263   6.764
 4869POPC   C3B62157  44.408  39.270   7.064
 4869POPC   C4B62158  44.364  39.243   7.364
 4870POPC   NC362159   8.241   5.134   5.564
 4870POPC   PO462160   8.227   5.060   5.864
 4870POPC   GL162161   8.167   5.100   6.164
 4870POPC   GL262162   8.124   4.950   6.164
 4870POPC   C1A62163   8.212   5.105   6.464
 4870POPC   D2A62164   8.209   5.114   6.764
 4870POPC   C3A62165   8.167   5.107   7.064
 4870POPC   C4A62166   8.212   5.133   7.364
 4870POPC   C1B62167   8.102   4.824   6.464
 4870POPC   C2B62168   8.108   4.850   6.764
 4870POPC   C3B62169   8.093   4.875   7.064
 4870POPC   C4B62170   8.076   4.831   7.364
 4871POPC   NC362171   3.559   3.527   5.564
 4871POPC   PO462172   3.566   3.503   5.864
 4871POPC   GL162173   3.566   3.550   6.164
 4871POPC   GL262174   3.632   3.434   6.164
 4871POPC   C1A62175   3.577   3.546   6.464
 4871POPC   D2A62176   3.574   3.506   6.764
 4871POPC   C3A62177   3.588   3.508   7.064
 4871POPC   C4A62178   3.507   3.519   7.364
 4871POPC   C1B62179   3.752   3.386   6.464
 4871POPC   C2B62180   3.785   3.373   6.764
 4871POPC   C3B62181   3.773   3.429   7.064
 4871POPC   C4B62182   3.789   3.395   7.364
 4872POPC   NC362183  13.616  29.874   5.564
 4872POPC   PO462184  13.617  29.938   5.864
 4872POPC   GL162185  13.585  29.898   6.164
 4872POPC   GL262186  13.704  29.913   6.164
 4872POPC   C1A62187  13.627  29.963   6.464
 4872POPC   D2A62188  13.650  29.969   6.764
 4872POPC   C3A62189  13.613  29.920   7.064
 4872POPC   C4A62190  13.589  29.879   7.364
 4872POPC   C1B62191  13.824  29.786   6.464
 4872POPC   C2B62192  13.862  29.812   6.764
 4872POPC   C3B62193  13.876  29.824   7.064
 4872POPC   C4B62194  13.867  29.793   7.364
 4873POPC   NC362195  31.425  11.327   5.564
 4873POPC   PO462196  31.511  11.318   5.864
 4873POPC   GL162197  31.446  11.349   6.164
 4873POPC   GL262198  31.472  11.190   6.164
 4873POPC   C1A62199  31.479  11.292   6.464
 4873POPC   D2A62200  31.466  11.274   6.764
 4873POPC   C3A62201  31.457  11.324   7.064
 4873POPC   C4A62202  31.498  11.316   7.364
 4873POPC   C1B62203  31.510  11.081   6.464
 4873POPC   C2B62204  31.527  11.041   6.764
 4873POPC   C3B62205  31.444  11.018   7.064
 4873POPC   C4B62206  31.436  11.029   7.364
 4874POPC   NC362207   1.963   0.471   5.564
 4874POPC   PO462208   1.999   0.427   5.864
 4874POPC   GL162209   2.033   0.482   6.164
 4874POPC   GL262210   1.968   0.358   6.164
 4874POPC   C1A62211   1.968   0.458   6.464
 4874POPC   D2A62212   2.016   0.393   6.764
 4874POPC   C3A62213   2.026   0.480   7.064
 4874POPC   C4A62214   1.996   0.464   7.364
 4874POPC   C1B62215   1.821   0.220   6.464
 4874POPC   C2B62216   1.868   0.223   6.764
 4874POPC   C3B62217   1.847   0.224   7.064
 4874POPC   C4B62218   1.909   0.258   7.364
 4875POPC   NC362219   4.332  30.714   5.564
 4875POPC   PO462220   4.280  30.696   5.864
 4875POPC   GL162221   4.282  30.698   6.164
 4875POPC   GL262222   4.236  30.618   6.164
 4875POPC   C1A62223   4.355  30.650   6.464
 4875POPC   D2A62224   4.351  30.708   6.764
 4875POPC   C3A62225   4.349  30.677   7.064
 4875POPC   C4A62226   4.298  30.737   7.364
 4875POPC   C1B62227   4.079  30.592   6.464
 4875POPC   C2B62228   4.059  30.589   6.764
 4875POPC   C3B62229   4.076  30.566   7.064
 4875POPC   C4B62230   4.128  30.585   7.364
 4876POPC   NC362231   6.673   0.446   5.564
 4876POPC   PO462232   6.691   0.455   5.864
 4876POPC   GL162233   6.622   0.420   6.164
 4876POPC   GL262234   6.630   0.512   6.164
 4876POPC   C1A62235   6.622   0.451   6.464
 4876POPC   D2A62236   6.613   0.408   6.764
 4876POPC   C3A62237   6.645   0.406   7.064
 4876POPC   C4A62238   6.650   0.431   7.364
 4876POPC   C1B62239   6.503   0.664   6.464
 4876POPC   C2B62240   6.542   0.657   6.764
 4876POPC   C3B62241   6.543   0.625   7.064
 4876POPC   C4B62242   6.498   0.614   7.364
 4877POPC   NC362243  28.364   0.473   5.564
 4877POPC   PO462244  28.342   0.412   5.864
 4877POPC   GL162245  28.335   0.408   6.164
 4877POPC   GL262246  28.364   0.554   6.164
 4877POPC   C1A62247  28.347   0.486   6.464
 4877POPC   D2A62248  28.395   0.398   6.764
 4877POPC   C3A62249  28.340   0.446   7.064
 4877POPC   C4A62250  28.410   0.482   7.364
 4877POPC   C1B62251  28.464   0.628   6.464
 4877POPC   C2B62252  28.461   0.698   6.764
 4877POPC   C3B62253  28.432   0.633   7.064
 4877POPC   C4B62254  28.393   0.659   7.364
 4878POPC   NC362255  40.031   4.346   5.564
 4878POPC   PO462256  39.965   4.355   5.864
 4878POPC   GL162257  40.019   4.360   6.164
 4878POPC   GL262258  39.889   4.255   6.164
 4878POPC   C1A62259  39.965   4.330   6.464
 4878POPC   D2A62260  40.053   4.304   6.764
 4878POPC   C3A62261  40.007   4.306   7.064
 4878POPC   C4A62262  39.984   4.350   7.364
 4878POPC   C1B62263  39.807   4.115   6.464
 4878POPC   C2B62264  39.869   4.149   6.764
 4878POPC   C3B62265  39.789   4.112   7.064
 4878POPC   C4B62266  39.798   4.168   7.364
 4879POPC   NC362267   0.441  22.925   5.564
 4879POPC   PO462268   0.443  22.965   5.864
 4879POPC   GL162269   0.411  22.941   6.164
 4879POPC   GL262270   0.509  22.812   6.164
 4879POPC   C1A62271   0.459  22.932   6.464
 4879POPC   D2A62272   0.475  22.933   6.764
 4879POPC   C3A62273   0.410  22.964   7.064
 4879POPC   C4A62274   0.456  22.900   7.364
 4879POPC   C1B62275   0.511  22.741   6.464
 4879POPC   C2B62276   0.524  22.755   6.764
 4879POPC   C3B62277   0.525  22.740   7.064
 4879POPC   C4B62278   0.535  22.729   7.364
 4880POPC   NC362279  26.787  40.735   5.564
 4880POPC   PO462280  26.788  40.760   5.864
 4880POPC   GL162281  26.859  40.798   6.164
 4880POPC   GL262282  26.838  40.890   6.164
 4880POPC   C1A62283  26.823  40.786   6.464
 4880POPC   D2A62284  26.787  40.735   6.764
 4880POPC   C3A62285  26.859  40.746   7.064
 4880POPC   C4A62286  26.820  40.757   7.364
 4880POPC   C1B62287  26.947  40.967   6.464
 4880POPC   C2B62288  26.953  40.996   6.764
 4880POPC   C3B62289  26.900  41.013   7.064
 4880POPC   C4B62290  26.888  41.038   7.364
 4881POPC   NC362291  19.058  35.303   5.564
 4881POPC   PO462292  19.093  35.340   5.864
 4881POPC   GL162293  19.031  35.354   6.164
 4881POPC   GL262294  19.058  35.486   6.164
 4881POPC   C1A62295  19.036  35.391   6.464
 4881POPC   D2A62296  19.061  35.360   6.764
 4881POPC   C3A62297  19.028  35.315   7.064
 4881POPC   C4A62298  19.021  35.347   7.364
 4881POPC   C1B62299  19.044  35.627   6.464
 4881POPC   C2B62300  19.016  35.576   6.764
 4881POPC   C3B62301  19.080  35.644   7.064
 4881POPC   C4B62302  19.004  35.551   7.364
 4882POPC   NC362303  15.221  27.612   5.564
 4882POPC   PO462304  15.174  27.586   5.864
 4882POPC   GL162305  15.158  27.561   6.164
 4882POPC   GL262306  15.074  27.621   6.164
 4882POPC   C1A62307  15.178  27.627   6.464
 4882POPC   D2A62308  15.181  27.546   6.764
 4882POPC   C3A62309  15.181  27.552   7.064
 4882POPC   C4A62310  15.141  27.549   7.364
 4882POPC   C1B62311  14.978  27.638   6.464
 4882POPC   C2B62312  14.958  27.658   6.764
 4882POPC   C3B62313  14.973  27.647   7.064
 4882POPC   C4B62314  14.981  27.667   7.364
 4883POPC   NC362315  43.934  39.219   5.564
 4883POPC   PO462316  43.905  39.215   5.864
 4883POPC   GL162317  43.857  39.249   6.164
 4883POPC   GL262318  43.909  39.350   6.164
 4883POPC   C1A62319  43.890  39.199   6.464
 4883POPC   D2A62320  43.875  39.228   6.764
 4883POPC   C3A62321  43.922  39.268   7.064
 4883POPC   C4A62322  43.897  39.210   7.364
 4883POPC   C1B62323  43.945  39.500   6.464
 4883POPC   C2B62324  44.003  39.430   6.764
 4883POPC   C3B62325  44.029  39.425   7.064
 4883POPC   C4B62326  43.951  39.456   7.364
 4884POPC   NC362327  21.422  29.889   5.564
 4884POPC   PO462328  21.382  29.955   5.864
 4884POPC   GL162329  21.435  29.951   6.164
 4884POPC   GL262330  21.310  29.843   6.164
 4884POPC   C1A62331  21.371  29.903   6.464
 4884POPC   D2A62332  21.391  29.905   6.764
 4884POPC   C3A62333  21.395  29.872   7.064
 4884POPC   C4A62334  21.367  29.970   7.364
 4884POPC   C1B62335  21.179  29.764   6.464
 4884POPC   C2B62336  21.180  29.765   6.764
 4884POPC   C3B62337  21.240  29.739   7.064
 4884POPC   C4B62338  21.191  29.772   7.364
 4885POPC   NC362339  16.691  20.603   5.564
 4885POPC   PO462340  16.726  20.639   5.864
 4885POPC   GL162341  16.775  20.641   6.164
 4885POPC   GL262342  16.672  20.698   6.164
 4885POPC   C1A62343  16.739  20.604   6.464
 4885POPC   D2A62344  16.726  20.566   6.764
 4885POPC   C3A62345  16.769  20.574   7.064
 4885POPC   C4A62346  16.745  20.655   7.364
 4885POPC   C1B62347  16.550  20.725   6.464
 4885POPC   C2B62348  16.551  20.746   6.764
 4885POPC   C3B62349  16.499  20.726   7.064
 4885POPC   C4B62350  16.497  20.797   7.364
 4886POPC   NC362351  26.001   2.803   5.564
 4886POPC   PO462352  26.090   2.779   5.864
 4886POPC   GL162353  26.012   2.803   6.164
 4886POPC   GL262354  25.952   2.686   6.164
 4886POPC   C1A62355  26.040   2.785   6.464
 4886POPC   D2A62356  25.999   2.751   6.764
 4886POPC   C3A62357  26.029   2.745   7.064
 4886POPC   C4A62358  26.070   2.767   7.364
 4886POPC   C1B62359  25.889   2.534   6.464
 4886POPC   C2B62360  25.905   2.554   6.764
 4886POPC   C3B62361  25.848   2.598   7.064
 4886POPC   C4B62362  25.861   2.519   7.364
 4887POPC   NC362363  43.882  27.582   5.564
 4887POPC   PO462364  43.900  27.568   5.864
 4887POPC   GL162365  43.856  27.558   6.164
 4887POPC   GL262366  43.969  27.609   6.164
 4887POPC   C1A62367  43.901  27.616   6.464
 4887POPC   D2A62368  43.851  27.616   6.764
 4887POPC   C3A62369  43.885  27.601   7.064
 4887POPC   C4A62370  43.897  27.580   7.364
 4887POPC   C1B62371  44.111  27.608   6.464
 4887POPC   C2B62372  44.158  27.675   6.764
 4887POPC   C3B62373  44.090  27.630   7.064
 4887POPC   C4B62374  44.176  27.668   7.364
 4888POPC   NC362375  19.818  10.534   5.564
 4888POPC   PO462376  19.848  10.528   5.864
 4888POPC   GL162377  19.816  10.565   6.164
 4888POPC   GL262378  19.738  10.556   6.164
 4888POPC   C1A62379  19.877  10.508   6.464
 4888POPC   D2A62380  19.820  10.484   6.764
 4888POPC   C3A62381  19.883  10.533   7.064
 4888POPC   C4A62382  19.873  10.535   7.364
 4888POPC   C1B62383  19.546  10.541   6.464
 4888POPC   C2B62384  19.586  10.551   6.764
 4888POPC   C3B62385  19.549  10.564   7.064
 4888POPC   C4B62386  19.580  10.516   7.364
 4889POPC   NC362387  31.514   4.317   5.564
 4889POPC   PO462388  31.444   4.286   5.864
 4889POPC   GL162389  31.451   4.326   6.164
 4889POPC   GL262390  31.444   4.456   6.164
 4889POPC   C1A62391  31.489   4.328   6.464
 4889POPC   D2A62392  31.510   4.273   6.764
 4889POPC   C3A62393  31.476   4.342   7.064
 4889POPC   C4A62394  31.450   4.311   7.364
 4889POPC   C1B62395  31.481   4.552   6.464
 4889POPC   C2B62396  31.448   4.595   6.764
 4889POPC   C3B62397  31.442   4.566   7.064
 4889POPC   C4B62398  31.476   4.555   7.364
 4890POPC   NC362399  19.015  42.349   5.564
 4890POPC   PO462400  19.028  42.311   5.864
 4890POPC   GL162401  19.019  42.299   6.164
 4890POPC   GL262402  19.157  42.369   6.164
 4890POPC   C1A62403  19.079  42.327   6.464
 4890POPC   D2A62404  19.108  42.316   6.764
 4890POPC   C3A62405  19.091  42.364   7.064
 4890POPC   C4A62406  19.022  42.341   7.364
 4890POPC   C1B62407  19.261  42.441   6.464
 4890POPC   C2B62408  19.232  42.446   6.764
 4890POPC   C3B62409  19.244  42.489   7.064
 4890POPC   C4B62410  19.250  42.530   7.364
 4891POPC   NC362411  12.027  30.700   5.564
 4891POPC   PO462412  12.113  30.722   5.864
 4891POPC   GL162413  12.049  30.670   6.164
 4891POPC   GL262414  12.080  30.578   6.164
 4891POPC   C1A62415  12.080  30.684   6.464
 4891POPC   D2A62416  12.035  30.692   6.764
 4891POPC   C3A62417  12.082  30.655   7.064
 4891POPC   C4A62418  12.029  30.730   7.364
 4891POPC   C1B62419  12.084  30.409   6.464
 4891POPC   C2B62420  12.048  30.421   6.764
 4891POPC   C3B62421  12.085  30.441   7.064
 4891POPC   C4B62422  12.026  30.406   7.364
 4892POPC   NC362423  44.624  14.409   5.564
 4892POPC   PO462424  44.628  14.415   5.864
 4892POPC   GL162425  44.698  14.436   6.164
 4892POPC   GL262426  44.505  14.417   6.164
 4892POPC   C1A62427  44.645  14.380   6.464
 4892POPC   D2A62428  44.633  14.361   6.764
 4892POPC   C3A62429  44.635  14.362   7.064
 4892POPC   C4A62430  44.693  14.364   7.364
 4892POPC   C1B62431  44.403  14.514   6.464
 4892POPC   C2B62432  44.385  14.452   6.764
 4892POPC   C3B62433  44.375  14.487   7.064
 4892POPC   C4B62434  44.409  14.514   7.364
 4893POPC   NC362435  32.257  11.304   5.564
 4893POPC   PO462436  32.230  11.271   5.864
 4893POPC   GL162437  32.204  11.309   6.164
 4893POPC   GL262438  32.168  11.453   6.164
 4893POPC   C1A62439  32.272  11.259   6.464
 4893POPC   D2A62440  32.270  11.279   6.764
 4893POPC   C3A62441  32.215  11.279   7.064
 4893POPC   C4A62442  32.210  11.280   7.364
 4893POPC   C1B62443  32.199  11.530   6.464
 4893POPC   C2B62444  32.178  11.524   6.764
 4893POPC   C3B62445  32.133  11.583   7.064
 4893POPC   C4B62446  32.148  11.563   7.364
 4894POPC   NC362447   0.420  33.051   5.564
 4894POPC   PO462448   0.408  33.051   5.864
 4894POPC   GL162449   0.430  32.979   6.164
 4894POPC   GL262450   0.362  33.174   6.164
 4894POPC   C1A62451   0.471  33.046   6.464
 4894POPC   D2A62452   0.453  33.056   6.764
 4894POPC   C3A62453   0.425  32.991   7.064
 4894POPC   C4A62454   0.413  33.003   7.364
 4894POPC   C1B62455   0.339  33.204   6.464
 4894POPC   C2B62456   0.351  33.263   6.764
 4894POPC   C3B62457   0.376  33.297   7.064
 4894POPC   C4B62458   0.375  33.227   7.364
 4895POPC   NC362459  19.806   8.166   5.564
 4895POPC   PO462460  19.841   8.213   5.864
 4895POPC   GL162461  19.856   8.189   6.164
 4895POPC   GL262462  19.771   8.129   6.164
 4895POPC   C1A62463  19.865   8.192   6.464
 4895POPC   D2A62464  19.875   8.186   6.764
 4895POPC   C3A62465  19.828   8.236   7.064
 4895POPC   C4A62466  19.883   8.178   7.364
 4895POPC   C1B62467  19.661   8.041   6.464
 4895POPC   C2B62468  19.586   8.065   6.764
 4895POPC   C3B62469  19.573   8.055   7.064
 4895POPC   C4B62470  19.627   8.128   7.364
 4896POPC   NC362471  12.106   7.433   5.564
 4896POPC   PO462472  12.111   7.393   5.864
 4896POPC   GL162473  12.090   7.435   6.164
 4896POPC   GL262474  12.215   7.417   6.164
 4896POPC   C1A62475  12.097   7.453   6.464
 4896POPC   D2A62476  12.036   7.430   6.764
 4896POPC   C3A62477  12.055   7.440   7.064
 4896POPC   C4A62478  12.037   7.453   7.364
 4896POPC   C1B62479  12.363   7.498   6.464
 4896POPC   C2B62480  12.274   7.491   6.764
 4896POPC   C3B62481  12.368   7.468   7.064
 4896POPC   C4B62482  12.303   7.483   7.364
 4897POPC   NC362483  39.193  26.771   5.564
 4897POPC   PO462484  39.251  26.856   5.864
 4897POPC   GL162485  39.210  26.820   6.164
 4897POPC   GL262486  39.143  26.922   6.164
 4897POPC   C1A62487  39.186  26.853   6.464
 4897POPC   D2A62488  39.192  26.784   6.764
 4897POPC   C3A62489  39.241  26.829   7.064
 4897POPC   C4A62490  39.222  26.839   7.364
 4897POPC   C1B62491  39.007  26.949   6.464
 4897POPC   C2B62492  39.076  26.958   6.764
 4897POPC   C3B62493  39.039  26.972   7.064
 4897POPC   C4B62494  39.000  26.967   7.364
 4898POPC   NC362495  28.323  15.996   5.564
 4898POPC   PO462496  28.392  15.917   5.864
 4898POPC   GL162497  28.320  15.994   6.164
 4898POPC   GL262498  28.307  15.889   6.164
 4898POPC   C1A62499  28.409  15.990   6.464
 4898POPC   D2A62500  28.340  15.960   6.764
 4898POPC   C3A62501  28.336  15.947   7.064
 4898POPC   C4A62502  28.352  15.972   7.364
 4898POPC   C1B62503  28.276  15.711   6.464
 4898POPC   C2B62504  28.221  15.781   6.764
 4898POPC   C3B62505  28.196  15.792   7.064
 4898POPC   C4B62506  28.200  15.782   7.364
 4899POPC   NC362507  20.586   2.006   5.564
 4899POPC   PO462508  20.575   1.971   5.864
 4899POPC   GL162509  20.645   2.032   6.164
 4899POPC   GL262510  20.688   2.079   6.164
 4899POPC   C1A62511  20.596   1.971   6.464
 4899POPC   D2A62512  20.645   1.994   6.764
 4899POPC   C3A62513  20.567   1.985   7.064
 4899POPC   C4A62514  20.628   1.954   7.364
 4899POPC   C1B62515  20.862   2.090   6.464
 4899POPC   C2B62516  20.842   2.047   6.764
 4899POPC   C3B62517  20.884   2.083   7.064
 4899POPC   C4B62518  20.876   2.125   7.364
 4900POPC   NC362519   8.217  26.009   5.564
 4900POPC   PO462520   8.246  26.029   5.864
 4900POPC   GL162521   8.164  26.020   6.164
 4900POPC   GL262522   8.232  26.121   6.164
 4900POPC   C1A62523   8.147  26.074   6.464
 4900POPC   D2A62524   8.193  26.086   6.764
 4900POPC   C3A62525   8.171  26.066   7.064
 4900POPC   C4A62526   8.244  26.053   7.364
 4900POPC   C1B62527   8.348  26.258   6.464
 4900POPC   C2B62528   8.282  26.258   6.764
 4900POPC   C3B62529   8.337  26.217   7.064
 4900POPC   C4B62530   8.364  26.244   7.364
 4901POPC   NC362531  10.573  17.472   5.564
 4901POPC   PO462532  10.502  17.471   5.864
 4901POPC   GL162533  10.564  17.517   6.164
 4901POPC   GL262534  10.665  17.517   6.164
 4901POPC   C1A62535  10.495  17.479   6.464
 4901POPC   D2A62536  10.479  17.495   6.764
 4901POPC   C3A62537  10.516  17.477   7.064
 4901POPC   C4A62538  10.544  17.488   7.364
 4901POPC   C1B62539  10.820  17.577   6.464
 4901POPC   C2B62540  10.796  17.578   6.764
 4901POPC   C3B62541  10.768  17.492   7.064
 4901POPC   C4B62542  10.800  17.541   7.364
 4902POPC   NC362543  23.667  35.320   5.564
 4902POPC   PO462544  23.725  35.339   5.864
 4902POPC   GL162545  23.664  35.346   6.164
 4902POPC   GL262546  23.840  35.299   6.164
 4902POPC   C1A62547  23.700  35.312   6.464
 4902POPC   D2A62548  23.757  35.360   6.764
 4902POPC   C3A62549  23.709  35.385   7.064
 4902POPC   C4A62550  23.727  35.315   7.364
 4902POPC   C1B62551  23.869  35.161   6.464
 4902POPC   C2B62552  23.953  35.222   6.764
 4902POPC   C3B62553  23.921  35.206   7.064
 4902POPC   C4B62554  23.919  35.166   7.364
 4903POPC   NC362555  38.487  34.572   5.564
 4903POPC   PO462556  38.471  34.568   5.864
 4903POPC   GL162557  38.422  34.622   6.164
 4903POPC   GL262558  38.305  34.536   6.164
 4903POPC   C1A62559  38.472  34.550   6.464
 4903POPC   D2A62560  38.409  34.555   6.764
 4903POPC   C3A62561  38.427  34.567   7.064
 4903POPC   C4A62562  38.462  34.605   7.364
 4903POPC   C1B62563  38.232  34.542   6.464
 4903POPC   C2B62564  38.235  34.471   6.764
 4903POPC   C3B62565  38.216  34.508   7.064
 4903POPC   C4B62566  38.258  34.489   7.364
 4904POPC   NC362567  42.295  12.084   5.564
 4904POPC   PO462568  42.334  12.041   5.864
 4904POPC   GL162569  42.305  12.044   6.164
 4904POPC   GL262570  42.489  12.120   6.164
 4904POPC   C1A62571  42.299  12.040   6.464
 4904POPC   D2A62572  42.305  12.093   6.764
 4904POPC   C3A62573  42.346  12.040   7.064
 4904POPC   C4A62574  42.294  12.041   7.364
 4904POPC   C1B62575  42.603  12.203   6.464
 4904POPC   C2B62576  42.594  12.211   6.764
 4904POPC   C3B62577  42.529  12.185   7.064
 4904POPC   C4B62578  42.569  12.194   7.364
 4905POPC   NC362579   6.668  43.079   5.564
 4905POPC   PO462580   6.664  43.124   5.864
 4905POPC   GL162581   6.595  43.130   6.164
 4905POPC   GL262582   6.652  42.982   6.164
 4905POPC   C1A62583   6.659  43.117   6.464
 4905POPC   D2A62584   6.617  43.140   6.764
 4905POPC   C3A62585   6.647  43.127   7.064
 4905POPC   C4A62586   6.665  43.148   7.364
 4905POPC   C1B62587   6.726  42.843   6.464
 4905POPC   C2B62588   6.686  42.865   6.764
 4905POPC   C3B62589   6.722  42.864   7.064
 4905POPC   C4B62590   6.636  42.882   7.364
 4906POPC   NC362591  15.991  13.596   5.564
 4906POPC   PO462592  15.906  13.641   5.864
 4906POPC   GL162593  15.992  13.657   6.164
 4906POPC   GL262594  15.883  13.496   6.164
 4906POPC   C1A62595  15.947  13.614   6.464
 4906POPC   D2A62596  15.911  13.648   6.764
 4906POPC   C3A62597  15.943  13.631   7.064
 4906POPC   C4A62598  15.910  13.592   7.364
 4906POPC   C1B62599  15.758  13.485   6.464
 4906POPC   C2B62600  15.753  13.449   6.764
 4906POPC   C3B62601  15.786  13.416   7.064
 4906POPC   C4B62602  15.814  13.472   7.364
 4907POPC   NC362603  33.750  12.086   5.564
 4907POPC   PO462604  33.785  12.042   5.864
 4907POPC   GL162605  33.772  12.110   6.164
 4907POPC   GL262606  33.783  11.995   6.164
 4907POPC   C1A62607  33.785  12.121   6.464
 4907POPC   D2A62608  33.762  12.123   6.764
 4907POPC   C3A62609  33.824  12.051   7.064
 4907POPC   C4A62610  33.792  12.095   7.364
 4907POPC   C1B62611  33.702  11.873   6.464
 4907POPC   C2B62612  33.753  11.834   6.764
 4907POPC   C3B62613  33.716  11.854   7.064
 4907POPC   C4B62614  33.765  11.844   7.364
 4908POPC   NC362615  23.692  44.650   5.564
 4908POPC   PO462616  23.759  44.660   5.864
 4908POPC   GL162617  23.741  44.632   6.164
 4908POPC   GL262618  23.643  44.584   6.164
 4908POPC   C1A62619  23.750  44.619   6.464
 4908POPC   D2A62620  23.679  44.616   6.764
 4908POPC   C3A62621  23.676  44.702   7.064
 4908POPC   C4A62622  23.708  44.657   7.364
 4908POPC   C1B62623  23.581  44.412   6.464
 4908POPC   C2B62624  23.619  44.430   6.764
 4908POPC   C3B62625  23.605  44.437   7.064
 4908POPC   C4B62626  23.612  44.469   7.364
 4909POPC   NC362627   0.403   1.246   5.564
 4909POPC   PO462628   0.458   1.242   5.864
 4909POPC   GL162629   0.458   1.185   6.164
 4909POPC   GL262630   0.293   1.154   6.164
 4909POPC   C1A62631   0.488   1.171   6.464
 4909POPC   D2A62632   0.473   1.238   6.764
 4909POPC   C3A62633   0.484   1.172   7.064
 4909POPC   C4A62634   0.423   1.187   7.364
 4909POPC   C1B62635   0.196   1.074   6.464
 4909POPC   C2B62636   0.247   1.053   6.764
 4909POPC   C3B62637   0.195   1.038   7.064
 4909POPC   C4B62638   0.251   1.084   7.364
 4910POPC   NC362639  12.050   2.754   5.564
 4910POPC   PO462640  12.119   2.781   5.864
 4910POPC   GL162641  12.095   2.783   6.164
 4910POPC   GL262642  12.189   2.887   6.164
 4910POPC   C1A62643  12.099   2.728   6.464
 4910POPC   D2A62644  12.115   2.750   6.764
 4910POPC   C3A62645  12.028   2.722   7.064
 4910POPC   C4A62646  12.062   2.782   7.364
 4910POPC   C1B62647  12.264   2.969   6.464
 4910POPC   C2B62648  12.230   2.999   6.764
 4910POPC   C3B62649  12.194   2.966   7.064
 4910POPC   C4B62650  12.221   2.920   7.364
 4911POPC   NC362651  30.693  19.804   5.564
 4911POPC   PO462652  30.665  19.867   5.864
 4911POPC   GL162653  30.719  19.828   6.164
 4911POPC   GL262654  30.713  19.690   6.164
 4911POPC   C1A62655  30.735  19.791   6.464
 4911POPC   D2A62656  30.656  19.832   6.764
 4911POPC   C3A62657  30.740  19.836   7.064
 4911POPC   C4A62658  30.717  19.798   7.364
 4911POPC   C1B62659  30.759  19.648   6.464
 4911POPC   C2B62660  30.778  19.603   6.764
 4911POPC   C3B62661  30.819  19.619   7.064
 4911POPC   C4B62662  30.781  19.652   7.364
 4912POPC   NC362663  23.747  15.197   5.564
 4912POPC   PO462664  23.691  15.137   5.864
 4912POPC   GL162665  23.746  15.161   6.164
 4912POPC   GL262666  23.605  15.182   6.164
 4912POPC   C1A62667  23.692  15.136   6.464
 4912POPC   D2A62668  23.681  15.195   6.764
 4912POPC   C3A62669  23.706  15.179   7.064
 4912POPC   C4A62670  23.707  15.157   7.364
 4912POPC   C1B62671  23.447  15.164   6.464
 4912POPC   C2B62672  23.428  15.184   6.764
 4912POPC   C3B62673  23.431  15.244   7.064
 4912POPC   C4B62674  23.422  15.241   7.364
 4913POPC   NC362675  43.099   6.603   5.564
 4913POPC   PO462676  43.084   6.613   5.864
 4913POPC   GL162677  43.121   6.612   6.164
 4913POPC   GL262678  43.053   6.604   6.164
 4913POPC   C1A62679  43.074   6.620   6.464
 4913POPC   D2A62680  43.148   6.619   6.764
 4913POPC   C3A62681  43.135   6.681   7.064
 4913POPC   C4A62682  43.113   6.650   7.364
 4913POPC   C1B62683  42.886   6.494   6.464
 4913POPC   C2B62684  42.940   6.493   6.764
 4913POPC   C3B62685  42.886   6.503   7.064
 4913POPC   C4B62686  42.953   6.515   7.364
 4914POPC   NC362687  33.070  21.371   5.564
 4914POPC   PO462688  33.021  21.339   5.864
 4914POPC   GL162689  33.010  21.418   6.164
 4914POPC   GL262690  33.111  21.338   6.164
 4914POPC   C1A62691  33.053  21.382   6.464
 4914POPC   D2A62692  33.022  21.422   6.764
 4914POPC   C3A62693  32.995  21.409   7.064
 4914POPC   C4A62694  33.002  21.414   7.364
 4914POPC   C1B62695  33.200  21.243   6.464
 4914POPC   C2B62696  33.181  21.215   6.764
 4914POPC   C3B62697  33.157  21.208   7.064
 4914POPC   C4B62698  33.221  21.183   7.364
 4915POPC   NC362699  12.089  31.503   5.564
 4915POPC   PO462700  12.031  31.490   5.864
 4915POPC   GL162701  12.054  31.434   6.164
 4915POPC   GL262702  11.963  31.487   6.164
 4915POPC   C1A62703  12.099  31.508   6.464
 4915POPC   D2A62704  12.032  31.451   6.764
 4915POPC   C3A62705  12.052  31.522   7.064
 4915POPC   C4A62706  12.069  31.432   7.364
 4915POPC   C1B62707  11.837  31.618   6.464
 4915POPC   C2B62708  11.872  31.539   6.764
 4915POPC   C3B62709  11.859  31.609   7.064
 4915POPC   C4B62710  11.895  31.582   7.364
 4916POPC   NC362711  43.081  19.096   5.564
 4916POPC   PO462712  43.160  19.072   5.864
 4916POPC   GL162713  43.131  19.058   6.164
 4916POPC   GL262714  43.191  19.123   6.164
 4916POPC   C1A62715  43.149  19.086   6.464
 4916POPC   D2A62716  43.151  19.052   6.764
 4916POPC   C3A62717  43.122  19.029   7.064
 4916POPC   C4A62718  43.127  19.098   7.364
 4916POPC   C1B62719  43.238  19.307   6.464
 4916POPC   C2B62720  43.265  19.248   6.764
 4916POPC   C3B62721  43.225  19.325   7.064
 4916POPC   C4B62722  43.233  19.279   7.364
 4917POPC   NC362723  42.308  15.165   5.564
 4917POPC   PO462724  42.291  15.221   5.864
 4917POPC   GL162725  42.306  15.160   6.164
 4917POPC   GL262726  42.399  15.098   6.164
 4917POPC   C1A62727  42.375  15.135   6.464
 4917POPC   D2A62728  42.300  15.150   6.764
 4917POPC   C3A62729  42.333  15.153   7.064
 4917POPC   C4A62730  42.341  15.217   7.364
 4917POPC   C1B62731  42.402  14.898   6.464
 4917POPC   C2B62732  42.375  14.933   6.764
 4917POPC   C3B62733  42.390  14.918   7.064
 4917POPC   C4B62734  42.401  14.913   7.364
 4918POPC   NC362735  25.269  22.896   5.564
 4918POPC   PO462736  25.302  22.973   5.864
 4918POPC   GL162737  25.240  22.891   6.164
 4918POPC   GL262738  25.302  22.842   6.164
 4918POPC   C1A62739  25.314  22.987   6.464
 4918POPC   D2A62740  25.299  22.905   6.764
 4918POPC   C3A62741  25.314  22.966   7.064
 4918POPC   C4A62742  25.308  22.903   7.364
 4918POPC   C1B62743  25.300  22.732   6.464
 4918POPC   C2B62744  25.346  22.688   6.764
 4918POPC   C3B62745  25.319  22.690   7.064
 4918POPC   C4B62746  25.320  22.723   7.364
 4919POPC   NC362747  17.517  43.160   5.564
 4919POPC   PO462748  17.489  43.065   5.864
 4919POPC   GL162749  17.549  43.160   6.164
 4919POPC   GL262750  17.504  42.945   6.164
 4919POPC   C1A62751  17.505  43.078   6.464
 4919POPC   D2A62752  17.486  43.066   6.764
 4919POPC   C3A62753  17.512  43.097   7.064
 4919POPC   C4A62754  17.532  43.083   7.364
 4919POPC   C1B62755  17.610  42.829   6.464
 4919POPC   C2B62756  17.602  42.895   6.764
 4919POPC   C3B62757  17.589  42.861   7.064
 4919POPC   C4B62758  17.627  42.868   7.364
 4920POPC   NC362759  14.387  13.659   5.564
 4920POPC   PO462760  14.405  13.643   5.864
 4920POPC   GL162761  14.381  13.649   6.164
 4920POPC   GL262762  14.554  13.637   6.164
 4920POPC   C1A62763  14.450  13.597   6.464
 4920POPC   D2A62764  14.440  13.660   6.764
 4920POPC   C3A62765  14.437  13.628   7.064
 4920POPC   C4A62766  14.426  13.673   7.364
 4920POPC   C1B62767  14.628  13.627   6.464
 4920POPC   C2B62768  14.696  13.552   6.764
 4920POPC   C3B62769  14.659  13.560   7.064
 4920POPC   C4B62770  14.663  13.538   7.364
 4921POPC   NC362771   6.680   5.890   5.564
 4921POPC   PO462772   6.643   5.840   5.864
 4921POPC   GL162773   6.605   5.910   6.164
 4921POPC   GL262774   6.589   6.010   6.164
 4921POPC   C1A62775   6.677   5.853   6.464
 4921POPC   D2A62776   6.668   5.854   6.764
 4921POPC   C3A62777   6.638   5.866   7.064
 4921POPC   C4A62778   6.663   5.851   7.364
 4921POPC   C1B62779   6.594   6.134   6.464
 4921POPC   C2B62780   6.559   6.069   6.764
 4921POPC   C3B62781   6.560   6.113   7.064
 4921POPC   C4B62782   6.572   6.131   7.364
 4922POPC   NC362783   8.183  43.132   5.564
 4922POPC   PO462784   8.148  43.115   5.864
 4922POPC   GL162785   8.239  43.152   6.164
 4922POPC   GL262786   8.125  43.266   6.164
 4922POPC   C1A62787   8.162  43.097   6.464
 4922POPC   D2A62788   8.169  43.122   6.764
 4922POPC   C3A62789   8.232  43.131   7.064
 4922POPC   C4A62790   8.216  43.082   7.364
 4922POPC   C1B62791   8.105  43.342   6.464
 4922POPC   C2B62792   8.114  43.305   6.764
 4922POPC   C3B62793   8.091  43.370   7.064
 4922POPC   C4B62794   8.128  43.389   7.364
 4923POPC   NC362795   8.981  30.667   5.564
 4923POPC   PO462796   8.947  30.658   5.864
 4923POPC   GL162797   8.942  30.699   6.164
 4923POPC   GL262798   8.912  30.587   6.164
 4923POPC   C1A62799   8.926  30.649   6.464
 4923POPC   D2A62800   8.961  30.656   6.764
 4923POPC   C3A62801   8.935  30.729   7.064
 4923POPC   C4A62802   8.933  30.665   7.364
 4923POPC   C1B62803   8.758  30.579   6.464
 4923POPC   C2B62804   8.802  30.545   6.764
 4923POPC   C3B62805   8.740  30.486   7.064
 4923POPC   C4B62806   8.741  30.581   7.364
 4924POPC   NC362807   0.469  23.735   5.564
 4924POPC   PO462808   0.484  23.711   5.864
 4924POPC   GL162809   0.473  23.751   6.164
 4924POPC   GL262810   0.357  23.673   6.164
 4924POPC   C1A62811   0.416  23.699   6.464
 4924POPC   D2A62812   0.476  23.713   6.764
 4924POPC   C3A62813   0.474  23.716   7.064
 4924POPC   C4A62814   0.399  23.713   7.364
 4924POPC   C1B62815   0.275  23.575   6.464
 4924POPC   C2B62816   0.249  23.548   6.764
 4924POPC   C3B62817   0.274  23.519   7.064
 4924POPC   C4B62818   0.255  23.557   7.364
 4925POPC   NC362819   6.675   1.975   5.564
 4925POPC   PO462820   6.663   1.982   5.864
 4925POPC   GL162821   6.635   2.012   6.164
 4925POPC   GL262822   6.552   1.988   6.164
 4925POPC   C1A62823   6.615   1.998   6.464
 4925POPC   D2A62824   6.605   1.960   6.764
 4925POPC   C3A62825   6.626   1.989   7.064
 4925POPC   C4A62826   6.633   2.014   7.364
 4925POPC   C1B62827   6.426   2.099   6.464
 4925POPC   C2B62828   6.393   2.071   6.764
 4925POPC   C3B62829   6.408   2.071   7.064
 4925POPC   C4B62830   6.378   2.079   7.364
 4926POPC   NC362831  39.960  31.486   5.564
 4926POPC   PO462832  39.999  31.519   5.864
 4926POPC   GL162833  40.045  31.501   6.164
 4926POPC   GL262834  40.105  31.595   6.164
 4926POPC   C1A62835  40.030  31.516   6.464
 4926POPC   D2A62836  40.022  31.473   6.764
 4926POPC   C3A62837  40.001  31.447   7.064
 4926POPC   C4A62838  39.962  31.485   7.364
 4926POPC   C1B62839  40.153  31.657   6.464
 4926POPC   C2B62840  40.164  31.623   6.764
 4926POPC   C3B62841  40.173  31.651   7.064
 4926POPC   C4B62842  40.135  31.625   7.364
 4927POPC   NC362843  18.289  20.630   5.564
 4927POPC   PO462844  18.237  20.574   5.864
 4927POPC   GL162845  18.318  20.576   6.164
 4927POPC   GL262846  18.239  20.475   6.164
 4927POPC   C1A62847  18.302  20.637   6.464
 4927POPC   D2A62848  18.263  20.645   6.764
 4927POPC   C3A62849  18.233  20.565   7.064
 4927POPC   C4A62850  18.284  20.582   7.364
 4927POPC   C1B62851  18.155  20.450   6.464
 4927POPC   C2B62852  18.126  20.435   6.764
 4927POPC   C3B62853  18.090  20.388   7.064
 4927POPC   C4B62854  18.072  20.419   7.364
 4928POPC   NC362855   6.605  26.788   5.564
 4928POPC   PO462856   6.621  26.839   5.864
 4928POPC   GL162857   6.606  26.774   6.164
 4928POPC   GL262858   6.580  26.867   6.164
 4928POPC   C1A62859   6.636  26.768   6.464
 4928POPC   D2A62860   6.602  26.779   6.764
 4928POPC   C3A62861   6.664  26.856   7.064
 4928POPC   C4A62862   6.600  26.797   7.364
 4928POPC   C1B62863   6.452  26.981   6.464
 4928POPC   C2B62864   6.469  27.007   6.764
 4928POPC   C3B62865   6.492  27.016   7.064
 4928POPC   C4B62866   6.472  26.999   7.364
 4929POPC   NC362867  19.064  22.210   5.564
 4929POPC   PO462868  19.068  22.114   5.864
 4929POPC   GL162869  19.109  22.141   6.164
 4929POPC   GL262870  19.066  21.989   6.164
 4929POPC   C1A62871  19.012  22.136   6.464
 4929POPC   D2A62872  19.032  22.191   6.764
 4929POPC   C3A62873  19.098  22.195   7.064
 4929POPC   C4A62874  19.059  22.205   7.364
 4929POPC   C1B62875  19.091  21.886   6.464
 4929POPC   C2B62876  19.099  21.900   6.764
 4929POPC   C3B62877  19.058  21.902   7.064
 4929POPC   C4B62878  19.127  21.963   7.364
 4930POPC   NC362879  21.434  26.861   5.564
 4930POPC   PO462880  21.409  26.846   5.864
 4930POPC   GL162881  21.386  26.808   6.164
 4930POPC   GL262882  21.240  26.731   6.164
 4930POPC   C1A62883  21.404  26.864   6.464
 4930POPC   D2A62884  21.350  26.865   6.764
 4930POPC   C3A62885  21.390  26.838   7.064
 4930POPC   C4A62886  21.359  26.787   7.364
 4930POPC   C1B62887  21.141  26.694   6.464
 4930POPC   C2B62888  21.172  26.653   6.764
 4930POPC   C3B62889  21.215  26.665   7.064
 4930POPC   C4B62890  21.137  26.694   7.364
 4931POPC   NC362891  15.920   9.714   5.564
 4931POPC   PO462892  15.943   9.747   5.864
 4931POPC   GL162893  15.951   9.798   6.164
 4931POPC   GL262894  16.033   9.612   6.164
 4931POPC   C1A62895  15.923   9.794   6.464
 4931POPC   D2A62896  15.926   9.744   6.764
 4931POPC   C3A62897  15.996   9.703   7.064
 4931POPC   C4A62898  15.911   9.797   7.364
 4931POPC   C1B62899  16.093   9.620   6.464
 4931POPC   C2B62900  16.179   9.556   6.764
 4931POPC   C3B62901  16.170   9.535   7.064
 4931POPC   C4B62902  16.084   9.529   7.364
 4932POPC   NC362903  29.926   6.643   5.564
 4932POPC   PO462904  29.916   6.661   5.864
 4932POPC   GL162905  29.936   6.676   6.164
 4932POPC   GL262906  30.028   6.783   6.164
 4932POPC   C1A62907  29.904   6.596   6.464
 4932POPC   D2A62908  29.950   6.615   6.764
 4932POPC   C3A62909  29.883   6.688   7.064
 4932POPC   C4A62910  29.932   6.631   7.364
 4932POPC   C1B62911  30.087   6.884   6.464
 4932POPC   C2B62912  30.029   6.839   6.764
 4932POPC   C3B62913  30.049   6.889   7.064
 4932POPC   C4B62914  30.088   6.847   7.364
 4933POPC   NC362915  33.016  42.384   5.564
 4933POPC   PO462916  33.041  42.366   5.864
 4933POPC   GL162917  32.979  42.375   6.164
 4933POPC   GL262918  32.986  42.441   6.164
 4933POPC   C1A62919  33.027  42.313   6.464
 4933POPC   D2A62920  33.062  42.350   6.764
 4933POPC   C3A62921  33.050  42.364   7.064
 4933POPC   C4A62922  33.064  42.348   7.364
 4933POPC   C1B62923  32.983  42.616   6.464
 4933POPC   C2B62924  32.922  42.610   6.764
 4933POPC   C3B62925  32.948  42.550   7.064
 4933POPC   C4B62926  32.940  42.528   7.364
 4934POPC   NC362927  34.624   5.840   5.564
 4934POPC   PO462928  34.606   5.911   5.864
 4934POPC   GL162929  34.529   5.906   6.164
 4934POPC   GL262930  34.693   5.824   6.164
 4934POPC   C1A62931  34.584   5.910   6.464
 4934POPC   D2A62932  34.526   5.893   6.764
 4934POPC   C3A62933  34.600   5.819   7.064
 4934POPC   C4A62934  34.610   5.905   7.364
 4934POPC   C1B62935  34.837   5.822   6.464
 4934POPC   C2B62936  34.848   5.875   6.764
 4934POPC   C3B62937  34.844   5.862   7.064
 4934POPC   C4B62938  34.866   5.787   7.364
 4935POPC   NC362939   2.740  32.224   5.564
 4935POPC   PO462940   2.731  32.246   5.864
 4935POPC   GL162941   2.815  32.273   6.164
 4935POPC   GL262942   2.782  32.133   6.164
 4935POPC   C1A62943   2.755  32.234   6.464
 4935POPC   D2A62944   2.758  32.233   6.764
 4935POPC   C3A62945   2.742  32.253   7.064
 4935POPC   C4A62946   2.784  32.210   7.364
 4935POPC   C1B62947   2.852  32.046   6.464
 4935POPC   C2B62948   2.838  32.005   6.764
 4935POPC   C3B62949   2.804  31.971   7.064
 4935POPC   C4B62950   2.873  31.976   7.364
 4936POPC   NC362951   1.206  20.575   5.564
 4936POPC   PO462952   1.232  20.636   5.864
 4936POPC   GL162953   1.220  20.604   6.164
 4936POPC   GL262954   1.111  20.552   6.164
 4936POPC   C1A62955   1.254  20.646   6.464
 4936POPC   D2A62956   1.178  20.655   6.764
 4936POPC   C3A62957   1.199  20.577   7.064
 4936POPC   C4A62958   1.207  20.638   7.364
 4936POPC   C1B62959   0.995  20.481   6.464
 4936POPC   C2B62960   0.983  20.459   6.764
 4936POPC   C3B62961   0.970  20.531   7.064
 4936POPC   C4B62962   1.010  20.488   7.364
 4937POPC   NC362963   2.742   9.744   5.564
 4937POPC   PO462964   2.811   9.784   5.864
 4937POPC   GL162965   2.770   9.773   6.164
 4937POPC   GL262966   2.835   9.698   6.164
 4937POPC   C1A62967   2.809   9.704   6.464
 4937POPC   D2A62968   2.728   9.721   6.764
 4937POPC   C3A62969   2.729   9.724   7.064
 4937POPC   C4A62970   2.779   9.739   7.364
 4937POPC   C1B62971   2.954   9.604   6.464
 4937POPC   C2B62972   2.940   9.633   6.764
 4937POPC   C3B62973   2.974   9.655   7.064
 4937POPC   C4B62974   2.972   9.586   7.364
 4938POPC   NC362975  23.698  30.682   5.564
 4938POPC   PO462976  23.733  30.692   5.864
 4938POPC   GL162977  23.757  30.675   6.164
 4938POPC   GL262978  23.868  30.728   6.164
 4938POPC   C1A62979  23.692  30.735   6.464
 4938POPC   D2A62980  23.679  30.657   6.764
 4938POPC   C3A62981  23.704  30.690   7.064
 4938POPC   C4A62982  23.755  30.670   7.364
 4938POPC   C1B62983  23.991  30.718   6.464
 4938POPC   C2B62984  24.001  30.706   6.764
 4938POPC   C3B62985  24.012  30.642   7.064
 4938POPC   C4B62986  23.961  30.695   7.364
 4939POPC   NC362987   6.612  39.219   5.564
 4939POPC   PO462988   6.657  39.247   5.864
 4939POPC   GL162989   6.629  39.279   6.164
 4939POPC   GL262990   6.763  39.176   6.164
 4939POPC   C1A62991   6.665  39.248   6.464
 4939POPC   D2A62992   6.668  39.209   6.764
 4939POPC   C3A62993   6.664  39.224   7.064
 4939POPC   C4A62994   6.657  39.278   7.364
 4939POPC   C1B62995   6.802  39.140   6.464
 4939POPC   C2B62996   6.848  39.105   6.764
 4939POPC   C3B62997   6.866  39.093   7.064
 4939POPC   C4B62998   6.872  39.093   7.364
 4940POPC   NC362999  12.831  16.757   5.564
 4940POPC   PO463000  12.892  16.721   5.864
 4940POPC   GL163001  12.841  16.723   6.164
 4940POPC   GL263002  12.906  16.789   6.164
 4940POPC   C1A63003  12.861  16.711   6.464
 4940POPC   D2A63004  12.838  16.759   6.764
 4940POPC   C3A63005  12.808  16.691   7.064
 4940POPC   C4A63006  12.815  16.742   7.364
 4940POPC   C1B63007  12.953  16.943   6.464
 4940POPC   C2B63008  12.958  16.897   6.764
 4940POPC   C3B63009  13.017  16.959   7.064
 4940POPC   C4B63010  12.947  16.917   7.364
 4941POPC   NC363011  27.559  15.226   5.564
 4941POPC   PO463012  27.556  15.150   5.864
 4941POPC   GL163013  27.572  15.215   6.164
 4941POPC   GL263014  27.433  15.198   6.164
 4941POPC   C1A63015  27.624  15.179   6.464
 4941POPC   D2A63016  27.643  15.147   6.764
 4941POPC   C3A63017  27.610  15.170   7.064
 4941POPC   C4A63018  27.565  15.140   7.364
 4941POPC   C1B63019  27.409  15.346   6.464
 4941POPC   C2B63020  27.414  15.337   6.764
 4941POPC   C3B63021  27.406  15.269   7.064
 4941POPC   C4B63022  27.342  15.289   7.364
 4942POPC   NC363023  31.510  43.915   5.564
 4942POPC   PO463024  31.475  43.913   5.864
 4942POPC   GL163025  31.444  43.904   6.164
 4942POPC   GL263026  31.321  43.913   6.164
 4942POPC   C1A63027  31.424  43.918   6.464
 4942POPC   D2A63028  31.508  43.844   6.764
 4942POPC   C3A63029  31.479  43.913   7.064
 4942POPC   C4A63030  31.493  43.854   7.364
 4942POPC   C1B63031  31.281  43.957   6.464
 4942POPC   C2B63032  31.212  43.987   6.764
 4942POPC   C3B63033  31.276  43.934   7.064
 4942POPC   C4B63034  31.223  43.947   7.364
 4943POPC   NC363035  22.929   5.853   5.564
 4943POPC   PO463036  22.956   5.898   5.864
 4943POPC   GL163037  22.955   5.829   6.164
 4943POPC   GL263038  22.929   5.744   6.164
 4943POPC   C1A63039  22.929   5.834   6.464
 4943POPC   D2A63040  22.897   5.913   6.764
 4943POPC   C3A63041  22.942   5.831   7.064
 4943POPC   C4A63042  22.902   5.871   7.364
 4943POPC   C1B63043  22.858   5.618   6.464
 4943POPC   C2B63044  22.905   5.607   6.764
 4943POPC   C3B63045  22.893   5.628   7.064
 4943POPC   C4B63046  22.842   5.656   7.364
 4944POPC   NC363047  19.833  19.844   5.564
 4944POPC   PO463048  19.799  19.838   5.864
 4944POPC   GL163049  19.824  19.816   6.164
 4944POPC   GL263050  19.676  19.822   6.164
 4944POPC   C1A63051  19.810  19.883   6.464
 4944POPC   D2A63052  19.863  19.817   6.764
 4944POPC   C3A63053  19.838  19.876   7.064
 4944POPC   C4A63054  19.803  19.825   7.364
 4944POPC   C1B63055  19.546  19.771   6.464
 4944POPC   C2B63056  19.618  19.793   6.764
 4944POPC   C3B63057  19.544  19.762   7.064
 4944POPC   C4B63058  19.617  19.744   7.364
 4945POPC   NC363059  32.239  22.134   5.564
 4945POPC   PO463060  32.230  22.126   5.864
 4945POPC   GL163061  32.295  22.140   6.164
 4945POPC   GL263062  32.332  22.090   6.164
 4945POPC   C1A63063  32.256  22.206   6.464
 4945POPC   D2A63064  32.282  22.194   6.764
 4945POPC   C3A63065  32.241  22.125   7.064
 4945POPC   C4A63066  32.226  22.148   7.364
 4945POPC   C1B63067  32.444  22.143   6.464
 4945POPC   C2B63068  32.472  22.072   6.764
 4945POPC   C3B63069  32.479  22.082   7.064
 4945POPC   C4B63070  32.474  22.081   7.364
 4946POPC   NC363071  44.711  11.281   5.564
 4946POPC   PO463072  44.638  11.279   5.864
 4946POPC   GL163073  44.644  11.311   6.164
 4946POPC   GL263074  44.598  11.439   6.164
 4946POPC   C1A63075  44.701  11.289   6.464
 4946POPC   D2A63076  44.659  11.330   6.764
 4946POPC   C3A63077  44.696  11.335   7.064
 4946POPC   C4A63078  44.677  11.283   7.364
 4946POPC   C1B63079  44.605  11.579   6.464
 4946POPC   C2B63080  44.562  11.506   6.764
 4946POPC   C3B63081  44.599  11.493   7.064
 4946POPC   C4B63082  44.561  11.512   7.364
 4947POPC   NC363083  42.381  26.034   5.564
 4947POPC   PO463084  42.291  26.085   5.864
 4947POPC   GL163085  42.333  26.055   6.164
 4947POPC   GL263086  42.508  26.071   6.164
 4947POPC   C1A63087  42.342  26.032   6.464
 4947POPC   D2A63088  42.361  26.069   6.764
 4947POPC   C3A63089  42.298  26.070   7.064
 4947POPC   C4A63090  42.354  26.071   7.364
 4947POPC   C1B63091  42.587  26.051   6.464
 4947POPC   C2B63092  42.534  26.018   6.764
 4947POPC   C3B63093  42.563  26.040   7.064
 4947POPC   C4B63094  42.585  25.991   7.364
 4948POPC   NC363095   3.539   1.255   5.564
 4948POPC   PO463096   3.557   1.219   5.864
 4948POPC   GL163097   3.525   1.260   6.164
 4948POPC   GL263098   3.409   1.147   6.164
 4948POPC   C1A63099   3.570   1.201   6.464
 4948POPC   D2A63100   3.493   1.234   6.764
 4948POPC   C3A63101   3.538   1.264   7.064
 4948POPC   C4A63102   3.528   1.261   7.364
 4948POPC   C1B63103   3.274   1.135   6.464
 4948POPC   C2B63104   3.341   1.192   6.764
 4948POPC   C3B63105   3.260   1.201   7.064
 4948POPC   C4B63106   3.250   1.169   7.364
 4949POPC   NC363107  21.411  13.607   5.564
 4949POPC   PO463108  21.375  13.606   5.864
 4949POPC   GL163109  21.418  13.655   6.164
 4949POPC   GL263110  21.238  13.580   6.164
 4949POPC   C1A63111  21.357  13.645   6.464
 4949POPC   D2A63112  21.411  13.609   6.764
 4949POPC   C3A63113  21.343  13.671   7.064
 4949POPC   C4A63114  21.350  13.659   7.364
 4949POPC   C1B63115  21.188  13.541   6.464
 4949POPC   C2B63116  21.136  13.486   6.764
 4949POPC   C3B63117  21.206  13.530   7.064
 4949POPC   C4B63118  21.124  13.547   7.364
 4950POPC   NC363119  26.781   8.970   5.564
 4950POPC   PO463120  26.801   8.970   5.864
 4950POPC   GL163121  26.781   9.006   6.164
 4950POPC   GL263122  26.889   8.885   6.164
 4950POPC   C1A63123  26.799   9.020   6.464
 4950POPC   D2A63124  26.845   8.930   6.764
 4950POPC   C3A63125  26.822   8.975   7.064
 4950POPC   C4A63126  26.786   8.963   7.364
 4950POPC   C1B63127  26.884   8.685   6.464
 4950POPC   C2B63128  26.867   8.740   6.764
 4950POPC   C3B63129  26.825   8.700   7.064
 4950POPC   C4B63130  26.844   8.714   7.364
 4951POPC   NC363131  33.786   7.430   5.564
 4951POPC   PO463132  33.782   7.465   5.864
 4951POPC   GL163133  33.760   7.451   6.164
 4951POPC   GL263134  33.951   7.322   6.164
 4951POPC   C1A63135  33.786   7.426   6.464
 4951POPC   D2A63136  33.788   7.450   6.764
 4951POPC   C3A63137  33.819   7.432   7.064
 4951POPC   C4A63138  33.780   7.430   7.364
 4951POPC   C1B63139  34.065   7.270   6.464
 4951POPC   C2B63140  34.071   7.303   6.764
 4951POPC   C3B63141  33.985   7.359   7.064
 4951POPC   C4B63142  34.007   7.333   7.364
 4952POPC   NC363143  19.848  26.082   5.564
 4952POPC   PO463144  19.800  26.032   5.864
 4952POPC   GL163145  19.812  26.067   6.164
 4952POPC   GL263146  19.754  26.142   6.164
 4952POPC   C1A63147  19.786  26.034   6.464
 4952POPC   D2A63148  19.842  26.056   6.764
 4952POPC   C3A63149  19.807  26.014   7.064
 4952POPC   C4A63150  19.857  26.020   7.364
 4952POPC   C1B63151  19.618  26.164   6.464
 4952POPC   C2B63152  19.663  26.176   6.764
 4952POPC   C3B63153  19.670  26.190   7.064
 4952POPC   C4B63154  19.642  26.149   7.364
 4953POPC   NC363155  15.149   8.944   5.564
 4953POPC   PO463156  15.221   8.994   5.864
 4953POPC   GL163157  15.217   8.927   6.164
 4953POPC   GL263158  15.301   8.915   6.164
 4953POPC   C1A63159  15.190   8.930   6.464
 4953POPC   D2A63160  15.223   9.016   6.764
 4953POPC   C3A63161  15.165   8.937   7.064
 4953POPC   C4A63162  15.142   8.971   7.364
 4953POPC   C1B63163  15.409   8.817   6.464
 4953POPC   C2B63164  15.324   8.780   6.764
 4953POPC   C3B63165  15.373   8.796   7.064
 4953POPC   C4B63166  15.410   8.796   7.364
 4954POPC   NC363167  12.820  18.311   5.564
 4954POPC   PO463168  12.876  18.285   5.864
 4954POPC   GL163169  12.865  18.333   6.164
 4954POPC   GL263170  12.734  18.232   6.164
 4954POPC   C1A63171  12.860  18.330   6.464
 4954POPC   D2A63172  12.855  18.274   6.764
 4954POPC   C3A63173  12.879  18.263   7.064
 4954POPC   C4A63174  12.805  18.290   7.364
 4954POPC   C1B63175  12.633  18.329   6.464
 4954POPC   C2B63176  12.623  18.271   6.764
 4954POPC   C3B63177  12.645  18.232   7.064
 4954POPC   C4B63178  12.553  18.292   7.364
 4955POPC   NC363179   1.996  39.245   5.564
 4955POPC   PO463180   2.005  39.193   5.864
 4955POPC   GL163181   2.004  39.214   6.164
 4955POPC   GL263182   2.132  39.318   6.164
 4955POPC   C1A63183   2.010  39.206   6.464
 4955POPC   D2A63184   2.005  39.211   6.764
 4955POPC   C3A63185   1.992  39.206   7.064
 4955POPC   C4A63186   1.957  39.216   7.364
 4955POPC   C1B63187   2.163  39.405   6.464
 4955POPC   C2B63188   2.232  39.349   6.764
 4955POPC   C3B63189   2.167  39.370   7.064
 4955POPC   C4B63190   2.221  39.384   7.364
 4956POPC   NC363191  37.683  37.690   5.564
 4956POPC   PO463192  37.687  37.692   5.864
 4956POPC   GL163193  37.700  37.665   6.164
 4956POPC   GL263194  37.809  37.762   6.164
 4956POPC   C1A63195  37.694  37.633   6.464
 4956POPC   D2A63196  37.704  37.658   6.764
 4956POPC   C3A63197  37.680  37.659   7.064
 4956POPC   C4A63198  37.696  37.676   7.364
 4956POPC   C1B63199  37.890  37.744   6.464
 4956POPC   C2B63200  37.955  37.744   6.764
 4956POPC   C3B63201  37.936  37.806   7.064
 4956POPC   C4B63202  37.937  37.731   7.364
 4957POPC   NC363203  11.340  17.479   5.564
 4957POPC   PO463204  11.288  17.490   5.864
 4957POPC   GL163205  11.265  17.546   6.164
 4957POPC   GL263206  11.134  17.510   6.164
 4957POPC   C1A63207  11.283  17.550   6.464
 4957POPC   D2A63208  11.250  17.495   6.764
 4957POPC   C3A63209  11.286  17.538   7.064
 4957POPC   C4A63210  11.297  17.545   7.364
 4957POPC   C1B63211  11.037  17.509   6.464
 4957POPC   C2B63212  11.082  17.424   6.764
 4957POPC   C3B63213  11.067  17.483   7.064
 4957POPC   C4B63214  11.100  17.493   7.364
 4958POPC   NC363215   5.108  19.842   5.564
 4958POPC   PO463216   5.111  19.825   5.864
 4958POPC   GL163217   5.066  19.791   6.164
 4958POPC   GL263218   5.009  19.956   6.164
 4958POPC   C1A63219   5.131  19.825   6.464
 4958POPC   D2A63220   5.072  19.838   6.764
 4958POPC   C3A63221   5.117  19.831   7.064
 4958POPC   C4A63222   5.101  19.789   7.364
 4958POPC   C1B63223   4.859  20.018   6.464
 4958POPC   C2B63224   4.868  20.007   6.764
 4958POPC   C3B63225   4.887  19.988   7.064
 4958POPC   C4B63226   4.862  19.974   7.364
 4959POPC   NC363227   9.014  19.820   5.564
 4959POPC   PO463228   9.015  19.873   5.864
 4959POPC   GL163229   8.985  19.791   6.164
 4959POPC   GL263230   9.072  19.924   6.164
 4959POPC   C1A63231   8.929  19.816   6.464
 4959POPC   D2A63232   8.987  19.864   6.764
 4959POPC   C3A63233   9.002  19.809   7.064
 4959POPC   C4A63234   9.013  19.788   7.364
 4959POPC   C1B63235   9.202  19.881   6.464
 4959POPC   C2B63236   9.239  19.934   6.764
 4959POPC   C3B63237   9.181  19.880   7.064
 4959POPC   C4B63238   9.202  19.941   7.364
 4960POPC   NC363239  15.189  44.616   5.564
 4960POPC   PO463240  15.163  44.635   5.864
 4960POPC   GL163241  15.180  44.619   6.164
 4960POPC   GL263242  15.089  44.570   6.164
 4960POPC   C1A63243  15.221  44.615   6.464
 4960POPC   D2A63244  15.175  44.689   6.764
 4960POPC   C3A63245  15.130  44.614   7.064
 4960POPC   C4A63246  15.172  44.697   7.364
 4960POPC   C1B63247  15.124  44.405   6.464
 4960POPC   C2B63248  15.055  44.416   6.764
 4960POPC   C3B63249  15.143  44.376   7.064
 4960POPC   C4B63250  15.112  44.451   7.364
 4961POPC   NC363251  13.633  30.719   5.564
 4961POPC   PO463252  13.661  30.695   5.864
 4961POPC   GL163253  13.651  30.663   6.164
 4961POPC   GL263254  13.701  30.710   6.164
 4961POPC   C1A63255  13.663  30.731   6.464
 4961POPC   D2A63256  13.626  30.650   6.764
 4961POPC   C3A63257  13.662  30.672   7.064
 4961POPC   C4A63258  13.622  30.665   7.364
 4961POPC   C1B63259  13.850  30.795   6.464
 4961POPC   C2B63260  13.843  30.817   6.764
 4961POPC   C3B63261  13.862  30.803   7.064
 4961POPC   C4B63262  13.858  30.827   7.364
 4962POPC   NC363263  13.649  31.442   5.564
 4962POPC   PO463264  13.618  31.496   5.864
 4962POPC   GL163265  13.583  31.500   6.164
 4962POPC   GL263266  13.528  31.399   6.164
 4962POPC   C1A63267  13.633  31.430   6.464
 4962POPC   D2A63268  13.581  31.483   6.764
 4962POPC   C3A63269  13.625  31.455   7.064
 4962POPC   C4A63270  13.594  31.449   7.364
 4962POPC   C1B63271  13.431  31.396   6.464
 4962POPC   C2B63272  13.408  31.363   6.764
 4962POPC   C3B63273  13.420  31.351   7.064
 4962POPC   C4B63274  13.371  31.334   7.364
 4963POPC   NC363275  10.564  43.099   5.564
 4963POPC   PO463276  10.522  43.124   5.864
 4963POPC   GL163277  10.498  43.157   6.164
 4963POPC   GL263278  10.523  43.237   6.164
 4963POPC   C1A63279  10.523  43.086   6.464
 4963POPC   D2A63280  10.485  43.143   6.764
 4963POPC   C3A63281  10.563  43.142   7.064
 4963POPC   C4A63282  10.476  43.152   7.364
 4963POPC   C1B63283  10.544  43.365   6.464
 4963POPC   C2B63284  10.627  43.334   6.764
 4963POPC   C3B63285  10.538  43.395   7.064
 4963POPC   C4B63286  10.598  43.361   7.364
 4964POPC   NC363287  39.186  34.548   5.564
 4964POPC   PO463288  39.269  34.545   5.864
 4964POPC   GL163289  39.214  34.580   6.164
 4964POPC   GL263290  39.198  34.690   6.164
 4964POPC   C1A63291  39.229  34.606   6.464
 4964POPC   D2A63292  39.270  34.626   6.764
 4964POPC   C3A63293  39.183  34.565   7.064
 4964POPC   C4A63294  39.222  34.568   7.364
 4964POPC   C1B63295  39.204  34.798   6.464
 4964POPC   C2B63296  39.163  34.778   6.764
 4964POPC   C3B63297  39.201  34.775   7.064
 4964POPC   C4B63298  39.221  34.845   7.364
 4965POPC   NC363299  32.273  26.038   5.564
 4965POPC   PO463300  32.220  25.999   5.864
 4965POPC   GL163301  32.216  26.006   6.164
 4965POPC   GL263302  32.285  25.891   6.164
 4965POPC   C1A63303  32.217  26.070   6.464
 4965POPC   D2A63304  32.244  26.019   6.764
 4965POPC   C3A63305  32.207  26.048   7.064
 4965POPC   C4A63306  32.221  26.086   7.364
 4965POPC   C1B63307  32.394  25.859   6.464
 4965POPC   C2B63308  32.391  25.792   6.764
 4965POPC   C3B63309  32.340  25.818   7.064
 4965POPC   C4B63310  32.370  25.812   7.364
 4966POPC   NC363311  19.881  39.225   5.564
 4966POPC   PO463312  19.883  39.256   5.864
 4966POPC   GL163313  19.824  39.211   6.164
 4966POPC   GL263314  19.943  39.163   6.164
 4966POPC   C1A63315  19.858  39.261   6.464
 4966POPC   D2A63316  19.800  39.270   6.764
 4966POPC   C3A63317  19.859  39.275   7.064
 4966POPC   C4A63318  19.808  39.256   7.364
 4966POPC   C1B63319  20.085  39.131   6.464
 4966POPC   C2B63320  20.057  39.084   6.764
 4966POPC   C3B63321  20.057  39.080   7.064
 4966POPC   C4B63322  20.081  39.076   7.364
 4967POPC   NC363323  40.016  21.342   5.564
 4967POPC   PO463324  39.961  21.372   5.864
 4967POPC   GL163325  39.977  21.436   6.164
 4967POPC   GL263326  40.112  21.472   6.164
 4967POPC   C1A63327  40.008  21.413   6.464
 4967POPC   D2A63328  39.996  21.382   6.764
 4967POPC   C3A63329  40.022  21.421   7.064
 4967POPC   C4A63330  39.971  21.398   7.364
 4967POPC   C1B63331  40.152  21.542   6.464
 4967POPC   C2B63332  40.163  21.560   6.764
 4967POPC   C3B63333  40.162  21.605   7.064
 4967POPC   C4B63334  40.167  21.597   7.364
 4968POPC   NC363335  31.438  44.637   5.564
 4968POPC   PO463336  31.470  44.702   5.864
 4968POPC   GL163337  31.482  44.678   6.164
 4968POPC   GL263338  31.396  44.600   6.164
 4968POPC   C1A63339  31.512  44.711   6.464
 4968POPC   D2A63340  31.433  44.690   6.764
 4968POPC   C3A63341  31.492  44.628   7.064
 4968POPC   C4A63342  31.475  44.653   7.364
 4968POPC   C1B63343  31.214  44.596   6.464
 4968POPC   C2B63344  31.280  44.616   6.764
 4968POPC   C3B63345  31.268  44.578   7.064
 4968POPC   C4B63346  31.267  44.567   7.364
 4969POPC   NC363347  43.853  40.819   5.564
 4969POPC   PO463348  43.917  40.832   5.864
 4969POPC   GL163349  43.885  40.742   6.164
 4969POPC   GL263350  43.940  40.678   6.164
 4969POPC   C1A63351  43.877  40.758   6.464
 4969POPC   D2A63352  43.892  40.784   6.764
 4969POPC   C3A63353  43.924  40.737   7.064
 4969POPC   C4A63354  43.933  40.789   7.364
 4969POPC   C1B63355  43.915  40.501   6.464
 4969POPC   C2B63356  43.926  40.509   6.764
 4969POPC   C3B63357  43.945  40.533   7.064
 4969POPC   C4B63358  43.898  40.538   7.364
 4970POPC   NC363359   6.645  31.437   5.564
 4970POPC   PO463360   6.678  31.450   5.864
 4970POPC   GL163361   6.622  31.443   6.164
 4970POPC   GL263362   6.734  31.572   6.164
 4970POPC   C1A63363   6.682  31.521   6.464
 4970POPC   D2A63364   6.644  31.499   6.764
 4970POPC   C3A63365   6.624  31.442   7.064
 4970POPC   C4A63366   6.656  31.433   7.364
 4970POPC   C1B63367   6.682  31.725   6.464
 4970POPC   C2B63368   6.734  31.683   6.764
 4970POPC   C3B63369   6.707  31.710   7.064
 4970POPC   C4B63370   6.734  31.702   7.364
 4971POPC   NC363371  13.652  15.205   5.564
 4971POPC   PO463372  13.666  15.212   5.864
 4971POPC   GL163373  13.649  15.171   6.164
 4971POPC   GL263374  13.579  15.245   6.164
 4971POPC   C1A63375  13.661  15.216   6.464
 4971POPC   D2A63376  13.665  15.161   6.764
 4971POPC   C3A63377  13.655  15.226   7.064
 4971POPC   C4A63378  13.625  15.171   7.364
 4971POPC   C1B63379  13.435  15.421   6.464
 4971POPC   C2B63380  13.479  15.414   6.764
 4971POPC   C3B63381  13.476  15.325   7.064
 4971POPC   C4B63382  13.449  15.392   7.364
 4972POPC   NC363383   8.166  22.189   5.564
 4972POPC   PO463384   8.230  22.182   5.864
 4972POPC   GL163385   8.154  22.200   6.164
 4972POPC   GL263386   8.291  22.100   6.164
 4972POPC   C1A63387   8.216  22.177   6.464
 4972POPC   D2A63388   8.214  22.177   6.764
 4972POPC   C3A63389   8.161  22.175   7.064
 4972POPC   C4A63390   8.188  22.170   7.364
 4972POPC   C1B63391   8.354  22.018   6.464
 4972POPC   C2B63392   8.357  21.983   6.764
 4972POPC   C3B63393   8.401  21.992   7.064
 4972POPC   C4B63394   8.330  22.003   7.364
 4973POPC   NC363395  12.067  20.612   5.564
 4973POPC   PO463396  12.049  20.617   5.864
 4973POPC   GL163397  12.061  20.629   6.164
 4973POPC   GL263398  12.037  20.465   6.164
 4973POPC   C1A63399  12.113  20.561   6.464
 4973POPC   D2A63400  12.109  20.590   6.764
 4973POPC   C3A63401  12.109  20.579   7.064
 4973POPC   C4A63402  12.065  20.641   7.364
 4973POPC   C1B63403  12.130  20.337   6.464
 4973POPC   C2B63404  12.057  20.337   6.764
 4973POPC   C3B63405  12.065  20.362   7.064
 4973POPC   C4B63406  12.065  20.331   7.364
 4974POPC   NC363407   8.210  27.623   5.564
 4974POPC   PO463408   8.201  27.591   5.864
 4974POPC   GL163409   8.183  27.610   6.164
 4974POPC   GL263410   8.119  27.609   6.164
 4974POPC   C1A63411   8.167  27.633   6.464
 4974POPC   D2A63412   8.162  27.557   6.764
 4974POPC   C3A63413   8.215  27.636   7.064
 4974POPC   C4A63414   8.154  27.561   7.364
 4974POPC   C1B63415   7.989  27.662   6.464
 4974POPC   C2B63416   7.941  27.578   6.764
 4974POPC   C3B63417   7.925  27.657   7.064
 4974POPC   C4B63418   7.904  27.645   7.364
 4975POPC   NC363419   5.898  15.167   5.564
 4975POPC   PO463420   5.913  15.145   5.864
 4975POPC   GL163421   5.914  15.194   6.164
 4975POPC   GL263422   5.796  15.066   6.164
 4975POPC   C1A63423   5.830  15.156   6.464
 4975POPC   D2A63424   5.845  15.134   6.764
 4975POPC   C3A63425   5.850  15.187   7.064
 4975POPC   C4A63426   5.902  15.214   7.364
 4975POPC   C1B63427   5.833  14.948   6.464
 4975POPC   C2B63428   5.827  14.983   6.764
 4975POPC   C3B63429   5.778  14.913   7.064
 4975POPC   C4B63430   5.828  14.965   7.364
 4976POPC   NC363431  43.910   1.980   5.564
 4976POPC   PO463432  43.850   1.943   5.864
 4976POPC   GL163433  43.896   1.997   6.164
 4976POPC   GL263434  43.760   1.936   6.164
 4976POPC   C1A63435  43.895   1.974   6.464
 4976POPC   D2A63436  43.840   1.963   6.764
 4976POPC   C3A63437  43.848   1.975   7.064
 4976POPC   C4A63438  43.848   2.017   7.364
 4976POPC   C1B63439  43.619   1.978   6.464
 4976POPC   C2B63440  43.634   1.992   6.764
 4976POPC   C3B63441  43.661   1.921   7.064
 4976POPC   C4B63442  43.669   1.972   7.364
 4977POPC   NC363443  29.901  42.365   5.564
 4977POPC   PO463444  29.934  42.323   5.864
 4977POPC   GL163445  29.966  42.356   6.164
 4977POPC   GL263446  30.022  42.259   6.164
 4977POPC   C1A63447  29.896  42.305   6.464
 4977POPC   D2A63448  29.916  42.326   6.764
 4977POPC   C3A63449  29.937  42.306   7.064
 4977POPC   C4A63450  29.938  42.311   7.364
 4977POPC   C1B63451  30.164  42.321   6.464
 4977POPC   C2B63452  30.174  42.296   6.764
 4977POPC   C3B63453  30.136  42.303   7.064
 4977POPC   C4B63454  30.175  42.240   7.364
 4978POPC   NC363455  29.909   8.236   5.564
 4978POPC   PO463456  29.872   8.219   5.864
 4978POPC   GL163457  29.919   8.196   6.164
 4978POPC   GL263458  29.785   8.170   6.164
 4978POPC   C1A63459  29.934   8.184   6.464
 4978POPC   D2A63460  29.913   8.215   6.764
 4978POPC   C3A63461  29.887   8.216   7.064
 4978POPC   C4A63462  29.927   8.214   7.364
 4978POPC   C1B63463  29.721   8.118   6.464
 4978POPC   C2B63464  29.735   8.098   6.764
 4978POPC   C3B63465  29.654   8.093   7.064
 4978POPC   C4B63466  29.702   8.077   7.364
 4979POPC   NC363467  31.463  22.932   5.564
 4979POPC   PO463468  31.501  22.971   5.864
 4979POPC   GL163469  31.507  22.955   6.164
 4979POPC   GL263470  31.630  22.966   6.164
 4979POPC   C1A63471  31.455  22.976   6.464
 4979POPC   D2A63472  31.466  22.941   6.764
 4979POPC   C3A63473  31.504  22.946   7.064
 4979POPC   C4A63474  31.428  22.982   7.364
 4979POPC   C1B63475  31.723  23.034   6.464
 4979POPC   C2B63476  31.661  23.081   6.764
 4979POPC   C3B63477  31.672  23.015   7.064
 4979POPC   C4B63478  31.685  23.011   7.364
 4980POPC   NC363479   8.204  19.098   5.564
 4980POPC   PO463480   8.184  19.038   5.864
 4980POPC   GL163481   8.164  19.043   6.164
 4980POPC   GL263482   8.180  18.941   6.164
 4980POPC   C1A63483   8.244  19.062   6.464
 4980POPC   D2A63484   8.239  19.076   6.764
 4980POPC   C3A63485   8.166  19.027   7.064
 4980POPC   C4A63486   8.213  19.016   7.364
 4980POPC   C1B63487   8.254  18.814   6.464
 4980POPC   C2B63488   8.271  18.796   6.764
 4980POPC   C3B63489   8.202  18.783   7.064
 4980POPC   C4B63490   8.200  18.829   7.364
 4981POPC   NC363491  35.309   0.421   5.564
 4981POPC   PO463492  35.309   0.462   5.864
 4981POPC   GL163493  35.399   0.402   6.164
 4981POPC   GL263494  35.387   0.557   6.164
 4981POPC   C1A63495  35.305   0.441   6.464
 4981POPC   D2A63496  35.357   0.404   6.764
 4981POPC   C3A63497  35.310   0.461   7.064
 4981POPC   C4A63498  35.370   0.475   7.364
 4981POPC   C1B63499  35.376   0.663   6.464
 4981POPC   C2B63500  35.370   0.689   6.764
 4981POPC   C3B63501  35.378   0.688   7.064
 4981POPC   C4B63502  35.361   0.726   7.364
 4982POPC   NC363503  12.037  40.806   5.564
 4982POPC   PO463504  12.080  40.805   5.864
 4982POPC   GL163505  12.059  40.784   6.164
 4982POPC   GL263506  12.037  40.671   6.164
 4982POPC   C1A63507  12.116  40.796   6.464
 4982POPC   D2A63508  12.071  40.770   6.764
 4982POPC   C3A63509  12.052  40.823   7.064
 4982POPC   C4A63510  12.078  40.832   7.364
 4982POPC   C1B63511  12.021  40.568   6.464
 4982POPC   C2B63512  11.993  40.541   6.764
 4982POPC   C3B63513  12.044  40.537   7.064
 4982POPC   C4B63514  12.011  40.564   7.364
 4983POPC   NC363515  24.490  16.766   5.564
 4983POPC   PO463516  24.537  16.747   5.864
 4983POPC   GL163517  24.499  16.779   6.164
 4983POPC   GL263518  24.402  16.792   6.164
 4983POPC   C1A63519  24.474  16.717   6.464
 4983POPC   D2A63520  24.475  16.755   6.764
 4983POPC   C3A63521  24.444  16.701   7.064
 4983POPC   C4A63522  24.507  16.700   7.364
 4983POPC   C1B63523  24.321  16.837   6.464
 4983POPC   C2B63524  24.316  16.905   6.764
 4983POPC   C3B63525  24.230  16.844   7.064
 4983POPC   C4B63526  24.289  16.902   7.364
 4984POPC   NC363527  38.416   8.936   5.564
 4984POPC   PO463528  38.453   8.986   5.864
 4984POPC   GL163529  38.410   8.928   6.164
 4984POPC   GL263530  38.588   8.912   6.164
 4984POPC   C1A63531  38.459   8.977   6.464
 4984POPC   D2A63532  38.499   8.948   6.764
 4984POPC   C3A63533  38.406   9.005   7.064
 4984POPC   C4A63534  38.456   9.011   7.364
 4984POPC   C1B63535  38.697   8.962   6.464
 4984POPC   C2B63536  38.706   8.967   6.764
 4984POPC   C3B63537  38.749   8.904   7.064
 4984POPC   C4B63538  38.703   8.978   7.364
 4985POPC   NC363539  23.723  23.740   5.564
 4985POPC   PO463540  23.717  23.685   5.864
 4985POPC   GL163541  23.744  23.665   6.164
 4985POPC   GL263542  23.621  23.796   6.164
 4985POPC   C1A63543  23.672  23.715   6.464
 4985POPC   D2A63544  23.753  23.726   6.764
 4985POPC   C3A63545  23.763  23.712   7.064
 4985POPC   C4A63546  23.717  23.715   7.364
 4985POPC   C1B63547  23.487  23.829   6.464
 4985POPC   C2B63548  23.488  23.844   6.764
 4985POPC   C3B63549  23.567  23.827   7.064
 4985POPC   C4B63550  23.571  23.860   7.364
 4986POPC   NC363551  22.897  33.039   5.564
 4986POPC   PO463552  22.960  32.978   5.864
 4986POPC   GL163553  22.959  33.005   6.164
 4986POPC   GL263554  23.046  33.133   6.164
 4986POPC   C1A63555  22.958  33.017   6.464
 4986POPC   D2A63556  22.984  33.047   6.764
 4986POPC   C3A63557  22.987  33.029   7.064
 4986POPC   C4A63558  22.961  33.009   7.364
 4986POPC   C1B63559  23.099  33.121   6.464
 4986POPC   C2B63560  23.096  33.200   6.764
 4986POPC   C3B63561  23.108  33.131   7.064
 4986POPC   C4B63562  23.173  33.179   7.364
 4987POPC   NC363563   8.219  18.321   5.564
 4987POPC   PO463564   8.159  18.308   5.864
 4987POPC   GL163565   8.187  18.235   6.164
 4987POPC   GL263566   8.207  18.181   6.164
 4987POPC   C1A63567   8.184  18.297   6.464
 4987POPC   D2A63568   8.164  18.281   6.764
 4987POPC   C3A63569   8.185  18.252   7.064
 4987POPC   C4A63570   8.231  18.248   7.364
 4987POPC   C1B63571   8.307  18.058   6.464
 4987POPC   C2B63572   8.305  18.072   6.764
 4987POPC   C3B63573   8.238  18.054   7.064
 4987POPC   C4B63574   8.260  18.086   7.364
 4988POPC   NC363575  12.806  28.378   5.564
 4988POPC   PO463576  12.873  28.368   5.864
 4988POPC   GL163577  12.863  28.410   6.164
 4988POPC   GL263578  12.922  28.233   6.164
 4988POPC   C1A63579  12.861  28.407   6.464
 4988POPC   D2A63580  12.813  28.341   6.764
 4988POPC   C3A63581  12.813  28.353   7.064
 4988POPC   C4A63582  12.826  28.361   7.364
 4988POPC   C1B63583  12.881  28.151   6.464
 4988POPC   C2B63584  12.903  28.110   6.764
 4988POPC   C3B63585  12.911  28.123   7.064
 4988POPC   C4B63586  12.891  28.077   7.364
 4989POPC   NC363587  12.829  26.020   5.564
 4989POPC   PO463588  12.848  26.015   5.864
 4989POPC   GL163589  12.866  26.058   6.164
 4989POPC   GL263590  12.993  26.038   6.164
 4989POPC   C1A63591  12.884  26.024   6.464
 4989POPC   D2A63592  12.864  26.057   6.764
 4989POPC   C3A63593  12.848  26.083   7.064
 4989POPC   C4A63594  12.866  26.008   7.364
 4989POPC   C1B63595  13.121  26.014   6.464
 4989POPC   C2B63596  13.089  26.072   6.764
 4989POPC   C3B63597  13.132  26.033   7.064
 4989POPC   C4B63598  13.076  26.063   7.364
 4990POPC   NC363599  24.538  36.886   5.564
 4990POPC   PO463600  24.499  36.935   5.864
 4990POPC   GL163601  24.492  36.880   6.164
 4990POPC   GL263602  24.486  36.827   6.164
 4990POPC   C1A63603  24.459  36.906   6.464
 4990POPC   D2A63604  24.441  36.938   6.764
 4990POPC   C3A63605  24.453  36.886   7.064
 4990POPC   C4A63606  24.486  36.902   7.364
 4990POPC   C1B63607  24.585  36.670   6.464
 4990POPC   C2B63608  24.569  36.696   6.764
 4990POPC   C3B63609  24.592  36.647   7.064
 4990POPC   C4B63610  24.598  36.695   7.364
 4991POPC   NC363611  31.480   6.597   5.564
 4991POPC   PO463612  31.503   6.609   5.864
 4991POPC   GL163613  31.508   6.660   6.164
 4991POPC   GL263614  31.420   6.744   6.164
 4991POPC   C1A63615  31.444   6.632   6.464
 4991POPC   D2A63616  31.473   6.666   6.764
 4991POPC   C3A63617  31.486   6.638   7.064
 4991POPC   C4A63618  31.486   6.625   7.364
 4991POPC   C1B63619  31.301   6.768   6.464
 4991POPC   C2B63620  31.301   6.753   6.764
 4991POPC   C3B63621  31.264   6.795   7.064
 4991POPC   C4B63622  31.250   6.813   7.364
 4992POPC   NC363623   2.747  29.110   5.564
 4992POPC   PO463624   2.731  29.116   5.864
 4992POPC   GL163625   2.799  29.104   6.164
 4992POPC   GL263626   2.867  29.050   6.164
 4992POPC   C1A63627   2.788  29.114   6.464
 4992POPC   D2A63628   2.722  29.156   6.764
 4992POPC   C3A63629   2.773  29.106   7.064
 4992POPC   C4A63630   2.771  29.111   7.364
 4992POPC   C1B63631   3.011  28.978   6.464
 4992POPC   C2B63632   3.025  29.066   6.764
 4992POPC   C3B63633   2.943  29.019   7.064
 4992POPC   C4B63634   2.982  29.007   7.364
 4993POPC   NC363635   1.198  36.127   5.564
 4993POPC   PO463636   1.228  36.134   5.864
 4993POPC   GL163637   1.169  36.097   6.164
 4993POPC   GL263638   1.347  36.183   6.164
 4993POPC   C1A63639   1.252  36.099   6.464
 4993POPC   D2A63640   1.196  36.092   6.764
 4993POPC   C3A63641   1.231  36.109   7.064
 4993POPC   C4A63642   1.210  36.105   7.364
 4993POPC   C1B63643   1.449  36.220   6.464
 4993POPC   C2B63644   1.472  36.241   6.764
 4993POPC   C3B63645   1.388  36.262   7.064
 4993POPC   C4B63646   1.381  36.234   7.364
 4994POPC   NC363647  15.947  20.632   5.564
 4994POPC   PO463648  15.992  20.615   5.864
 4994POPC   GL163649  15.969  20.656   6.164
 4994POPC   GL263650  15.869  20.657   6.164
 4994POPC   C1A63651  15.928  20.643   6.464
 4994POPC   D2A63652  15.991  20.617   6.764
 4994POPC   C3A63653  15.924  20.623   7.064
 4994POPC   C4A63654  15.918  20.644   7.364
 4994POPC   C1B63655  15.755  20.772   6.464
 4994POPC   C2B63656  15.733  20.723   6.764
 4994POPC   C3B63657  15.773  20.700   7.064
 4994POPC   C4B63658  15.770  20.750   7.364
 4995POPC   NC363659  43.075  40.033   5.564
 4995POPC   PO463660  43.077  40.018   5.864
 4995POPC   GL163661  43.083  40.005   6.164
 4995POPC   GL263662  42.965  40.009   6.164
 4995POPC   C1A63663  43.092  39.980   6.464
 4995POPC   D2A63664  43.082  39.983   6.764
 4995POPC   C3A63665  43.079  40.042   7.064
 4995POPC   C4A63666  43.123  39.979   7.364
 4995POPC   C1B63667  42.903  40.097   6.464
 4995POPC   C2B63668  42.916  40.066   6.764
 4995POPC   C3B63669  42.911  40.102   7.064
 4995POPC   C4B63670  42.832  40.069   7.364
 4996POPC   NC363671  23.743  43.102   5.564
 4996POPC   PO463672  23.751  43.120   5.864
 4996POPC   GL163673  23.734  43.156   6.164
 4996POPC   GL263674  23.589  43.006   6.164
 4996POPC   C1A63675  23.701  43.090   6.464
 4996POPC   D2A63676  23.706  43.102   6.764
 4996POPC   C3A63677  23.722  43.129   7.064
 4996POPC   C4A63678  23.731  43.121   7.364
 4996POPC   C1B63679  23.573  42.902   6.464
 4996POPC   C2B63680  23.540  42.917   6.764
 4996POPC   C3B63681  23.500  42.926   7.064
 4996POPC   C4B63682  23.559  42.943   7.364
 4997POPC   NC363683  12.851   1.234   5.564
 4997POPC   PO463684  12.836   1.256   5.864
 4997POPC   GL163685  12.806   1.222   6.164
 4997POPC   GL263686  12.739   1.121   6.164
 4997POPC   C1A63687  12.881   1.248   6.464
 4997POPC   D2A63688  12.826   1.234   6.764
 4997POPC   C3A63689  12.856   1.205   7.064
 4997POPC   C4A63690  12.875   1.227   7.364
 4997POPC   C1B63691  12.677   1.079   6.464
 4997POPC   C2B63692  12.675   1.021   6.764
 4997POPC   C3B63693  12.696   1.032   7.064
 4997POPC   C4B63694  12.636   1.073   7.364
 4998POPC   NC363695  12.035   6.645   5.564
 4998POPC   PO463696  12.123   6.625   5.864
 4998POPC   GL163697  12.115   6.629   6.164
 4998POPC   GL263698  11.944   6.663   6.164
 4998POPC   C1A63699  12.054   6.665   6.464
 4998POPC   D2A63700  12.124   6.651   6.764
 4998POPC   C3A63701  12.093   6.623   7.064
 4998POPC   C4A63702  12.123   6.660   7.364
 4998POPC   C1B63703  11.797   6.581   6.464
 4998POPC   C2B63704  11.815   6.542   6.764
 4998POPC   C3B63705  11.836   6.540   7.064
 4998POPC   C4B63706  11.825   6.572   7.364
 4999POPC   NC363707   2.748  11.294   5.564
 4999POPC   PO463708   2.737  11.305   5.864
 4999POPC   GL163709   2.805  11.341   6.164
 4999POPC   GL263710   2.778  11.164   6.164
 4999POPC   C1A63711   2.768  11.313   6.464
 4999POPC   D2A63712   2.799  11.260   6.764
 4999POPC   C3A63713   2.740  11.275   7.064
 4999POPC   C4A63714   2.768  11.318   7.364
 4999POPC   C1B63715   2.851  11.086   6.464
 4999POPC   C2B63716   2.803  11.013   6.764
 4999POPC   C3B63717   2.820  11.027   7.064
 4999POPC   C4B63718   2.770  11.019   7.364
 5000POPC   NC363719   3.497   8.229   5.564
 5000POPC   PO463720   3.500   8.209   5.864
 5000POPC   GL163721   3.527   8.208   6.164
 5000POPC   GL263722   3.593   8.123   6.164
 5000POPC   C1A63723   3.582   8.230   6.464
 5000POPC   D2A63724   3.530   8.189   6.764
 5000POPC   C3A63725   3.524   8.151   7.064
 5000POPC   C4A63726   3.565   8.182   7.364
 5000POPC   C1B63727   3.653   7.980   6.464
 5000POPC   C2B63728   3.650   8.006   6.764
 5000POPC   C3B63729   3.701   7.992   7.064
 5000POPC   C4B63730   3.674   7.973   7.364
 5001POPC   NC363731  32.289  14.405   5.564
 5001POPC   PO463732  32.259  14.407   5.864
 5001POPC   GL163733  32.225  14.391   6.164
 5001POPC   GL263734  32.206  14.305   6.164
 5001POPC   C1A63735  32.224  14.453   6.464
 5001POPC   D2A63736  32.207  14.355   6.764
 5001POPC   C3A63737  32.235  14.442   7.064
 5001POPC   C4A63738  32.259  14.373   7.364
 5001POPC   C1B63739  32.248  14.133   6.464
 5001POPC   C2B63740  32.218  14.188   6.764
 5001POPC   C3B63741  32.172  14.126   7.064
 5001POPC   C4B63742  32.265  14.169   7.364
 5002POPC   NC363743  25.305   2.001   5.564
 5002POPC   PO463744  25.295   1.966   5.864
 5002POPC   GL163745  25.239   2.016   6.164
 5002POPC   GL263746  25.213   1.924   6.164
 5002POPC   C1A63747  25.256   2.000   6.464
 5002POPC   D2A63748  25.218   2.000   6.764
 5002POPC   C3A63749  25.303   2.016   7.064
 5002POPC   C4A63750  25.302   1.956   7.364
 5002POPC   C1B63751  25.180   1.808   6.464
 5002POPC   C2B63752  25.152   1.784   6.764
 5002POPC   C3B63753  25.143   1.771   7.064
 5002POPC   C4B63754  25.154   1.811   7.364
 5003POPC   NC363755  10.504  22.112   5.564
 5003POPC   PO463756  10.512  22.141   5.864
 5003POPC   GL163757  10.564  22.199   6.164
 5003POPC   GL263758  10.444  22.178   6.164
 5003POPC   C1A63759  10.563  22.195   6.464
 5003POPC   D2A63760  10.495  22.196   6.764
 5003POPC   C3A63761  10.535  22.138   7.064
 5003POPC   C4A63762  10.476  22.206   7.364
 5003POPC   C1B63763  10.294  22.130   6.464
 5003POPC   C2B63764  10.225  22.122   6.764
 5003POPC   C3B63765  10.303  22.149   7.064
 5003POPC   C4B63766  10.315  22.155   7.364
 5004POPC   NC363767   8.982  24.501   5.564
 5004POPC   PO463768   9.002  24.532   5.864
 5004POPC   GL163769   8.998  24.477   6.164
 5004POPC   GL263770   8.801  24.518   6.164
 5004POPC   C1A63771   8.951  24.481   6.464
 5004POPC   D2A63772   8.964  24.479   6.764
 5004POPC   C3A63773   8.953  24.515   7.064
 5004POPC   C4A63774   8.985  24.523   7.364
 5004POPC   C1B63775   8.681  24.533   6.464
 5004POPC   C2B63776   8.746  24.502   6.764
 5004POPC   C3B63777   8.686  24.535   7.064
 5004POPC   C4B63778   8.768  24.581   7.364
 5005POPC   NC363779   2.785  35.371   5.564
 5005POPC   PO463780   2.801  35.325   5.864
 5005POPC   GL163781   2.736  35.309   6.164
 5005POPC   GL263782   2.806  35.428   6.164
 5005POPC   C1A63783   2.800  35.375   6.464
 5005POPC   D2A63784   2.719  35.369   6.764
 5005POPC   C3A63785   2.726  35.360   7.064
 5005POPC   C4A63786   2.745  35.391   7.364
 5005POPC   C1B63787   2.837  35.556   6.464
 5005POPC   C2B63788   2.881  35.635   6.764
 5005POPC   C3B63789   2.848  35.588   7.064
 5005POPC   C4B63790   2.809  35.545   7.364
 5006POPC   NC363791  27.621  20.583   5.564
 5006POPC   PO463792  27.561  20.629   5.864
 5006POPC   GL163793  27.617  20.627   6.164
 5006POPC   GL263794  27.580  20.529   6.164
 5006POPC   C1A63795  27.560  20.612   6.464
 5006POPC   D2A63796  27.587  20.581   6.764
 5006POPC   C3A63797  27.553  20.561   7.064
 5006POPC   C4A63798  27.621  20.600   7.364
 5006POPC   C1B63799  27.598  20.409   6.464
 5006POPC   C2B63800  27.640  20.317   6.764
 5006POPC   C3B63801  27.547  20.325   7.064
 5006POPC   C4B63802  27.607  20.372   7.364
 5007POPC   NC363803  22.204  13.663   5.564
 5007POPC   PO463804  22.130  13.676   5.864
 5007POPC   GL163805  22.197  13.622   6.164
 5007POPC   GL263806  22.311  13.562   6.164
 5007POPC   C1A63807  22.157  13.655   6.464
 5007POPC   D2A63808  22.204  13.592   6.764
 5007POPC   C3A63809  22.211  13.673   7.064
 5007POPC   C4A63810  22.152  13.602   7.364
 5007POPC   C1B63811  22.383  13.552   6.464
 5007POPC   C2B63812  22.416  13.530   6.764
 5007POPC   C3B63813  22.385  13.547   7.064
 5007POPC   C4B63814  22.354  13.563   7.364
 5008POPC   NC363815  24.515  22.204   5.564
 5008POPC   PO463816  24.471  22.168   5.864
 5008POPC   GL163817  24.494  22.152   6.164
 5008POPC   GL263818  24.562  22.053   6.164
 5008POPC   C1A63819  24.456  22.210   6.464
 5008POPC   D2A63820  24.525  22.143   6.764
 5008POPC   C3A63821  24.519  22.161   7.064
 5008POPC   C4A63822  24.521  22.147   7.364
 5008POPC   C1B63823  24.592  21.942   6.464
 5008POPC   C2B63824  24.591  21.942   6.764
 5008POPC   C3B63825  24.575  21.913   7.064
 5008POPC   C4B63826  24.580  21.949   7.364
 5009POPC   NC363827   8.955  28.404   5.564
 5009POPC   PO463828   8.980  28.333   5.864
 5009POPC   GL163829   8.981  28.366   6.164
 5009POPC   GL263830   8.969  28.236   6.164
 5009POPC   C1A63831   9.003  28.367   6.464
 5009POPC   D2A63832   8.925  28.380   6.764
 5009POPC   C3A63833   9.016  28.355   7.064
 5009POPC   C4A63834   8.969  28.365   7.364
 5009POPC   C1B63835   8.949  28.082   6.464
 5009POPC   C2B63836   8.934  28.075   6.764
 5009POPC   C3B63837   8.993  28.132   7.064
 5009POPC   C4B63838   8.961  28.073   7.364
 5010POPC   NC363839  40.043  17.546   5.564
 5010POPC   PO463840  40.015  17.510   5.864
 5010POPC   GL163841  39.990  17.460   6.164
 5010POPC   GL263842  39.891  17.445   6.164
 5010POPC   C1A63843  40.021  17.485   6.464
 5010POPC   D2A63844  39.990  17.478   6.764
 5010POPC   C3A63845  40.016  17.512   7.064
 5010POPC   C4A63846  39.979  17.480   7.364
 5010POPC   C1B63847  39.837  17.278   6.464
 5010POPC   C2B63848  39.816  17.315   6.764
 5010POPC   C3B63849  39.896  17.253   7.064
 5010POPC   C4B63850  39.850  17.259   7.364
 5011POPC   NC363851  15.168  42.295   5.564
 5011POPC   PO463852  15.204  42.314   5.864
 5011POPC   GL163853  15.144  42.295   6.164
 5011POPC   GL263854  15.195  42.229   6.164
 5011POPC   C1A63855  15.170  42.337   6.464
 5011POPC   D2A63856  15.198  42.315   6.764
 5011POPC   C3A63857  15.202  42.363   7.064
 5011POPC   C4A63858  15.181  42.315   7.364
 5011POPC   C1B63859  15.187  42.040   6.464
 5011POPC   C2B63860  15.223  42.074   6.764
 5011POPC   C3B63861  15.245  42.115   7.064
 5011POPC   C4B63862  15.185  42.052   7.364
 5012POPC   NC363863  32.208  28.322   5.564
 5012POPC   PO463864  32.215  28.355   5.864
 5012POPC   GL163865  32.269  28.327   6.164
 5012POPC   GL263866  32.163  28.369   6.164
 5012POPC   C1A63867  32.229  28.346   6.464
 5012POPC   D2A63868  32.266  28.374   6.764
 5012POPC   C3A63869  32.253  28.390   7.064
 5012POPC   C4A63870  32.218  28.395   7.364
 5012POPC   C1B63871  31.987  28.406   6.464
 5012POPC   C2B63872  31.997  28.445   6.764
 5012POPC   C3B63873  31.987  28.488   7.064
 5012POPC   C4B63874  32.023  28.490   7.364
 5013POPC   NC363875  36.930  12.833   5.564
 5013POPC   PO463876  36.952  12.878   5.864
 5013POPC   GL163877  36.866  12.864   6.164
 5013POPC   GL263878  36.861  12.936   6.164
 5013POPC   C1A63879  36.916  12.867   6.464
 5013POPC   D2A63880  36.871  12.871   6.764
 5013POPC   C3A63881  36.904  12.835   7.064
 5013POPC   C4A63882  36.860  12.878   7.364
 5013POPC   C1B63883  36.692  12.992   6.464
 5013POPC   C2B63884  36.777  12.997   6.764
 5013POPC   C3B63885  36.769  13.064   7.064
 5013POPC   C4B63886  36.732  13.075   7.364
 5014POPC   NC363887  12.810  39.230   5.564
 5014POPC   PO463888  12.848  39.203   5.864
 5014POPC   GL163889  12.887  39.268   6.164
 5014POPC   GL263890  12.933  39.375   6.164
 5014POPC   C1A63891  12.840  39.193   6.464
 5014POPC   D2A63892  12.819  39.264   6.764
 5014POPC   C3A63893  12.874  39.188   7.064
 5014POPC   C4A63894  12.849  39.220   7.364
 5014POPC   C1B63895  12.982  39.385   6.464
 5014POPC   C2B63896  13.022  39.440   6.764
 5014POPC   C3B63897  13.053  39.430   7.064
 5014POPC   C4B63898  13.035  39.398   7.364
 5015POPC   NC363899   5.890  38.420   5.564
 5015POPC   PO463900   5.917  38.447   5.864
 5015POPC   GL163901   5.895  38.490   6.164
 5015POPC   GL263902   5.827  38.538   6.164
 5015POPC   C1A63903   5.872  38.494   6.464
 5015POPC   D2A63904   5.908  38.503   6.764
 5015POPC   C3A63905   5.850  38.412   7.064
 5015POPC   C4A63906   5.837  38.494   7.364
 5015POPC   C1B63907   5.731  38.630   6.464
 5015POPC   C2B63908   5.704  38.667   6.764
 5015POPC   C3B63909   5.731  38.639   7.064
 5015POPC   C4B63910   5.730  38.611   7.364
 5016POPC   NC363911  27.571  15.924   5.564
 5016POPC   PO463912  27.572  15.993   5.864
 5016POPC   GL163913  27.603  16.003   6.164
 5016POPC   GL263914  27.573  15.860   6.164
 5016POPC   C1A63915  27.563  15.949   6.464
 5016POPC   D2A63916  27.598  15.985   6.764
 5016POPC   C3A63917  27.555  15.924   7.064
 5016POPC   C4A63918  27.583  15.936   7.364
 5016POPC   C1B63919  27.523  15.678   6.464
 5016POPC   C2B63920  27.535  15.697   6.764
 5016POPC   C3B63921  27.503  15.671   7.064
 5016POPC   C4B63922  27.540  15.710   7.364
 5017POPC   NC363923   9.744  38.463   5.564
 5017POPC   PO463924   9.780  38.469   5.864
 5017POPC   GL163925   9.745  38.494   6.164
 5017POPC   GL263926   9.651  38.561   6.164
 5017POPC   C1A63927   9.742  38.492   6.464
 5017POPC   D2A63928   9.779  38.412   6.764
 5017POPC   C3A63929   9.704  38.410   7.064
 5017POPC   C4A63930   9.750  38.420   7.364
 5017POPC   C1B63931   9.575  38.566   6.464
 5017POPC   C2B63932   9.545  38.582   6.764
 5017POPC   C3B63933   9.549  38.561   7.064
 5017POPC   C4B63934   9.577  38.577   7.364
 5018POPC   NC363935  22.907  40.005   5.564
 5018POPC   PO463936  22.957  39.973   5.864
 5018POPC   GL163937  22.914  39.987   6.164
 5018POPC   GL263938  22.931  39.888   6.164
 5018POPC   C1A63939  22.977  39.958   6.464
 5018POPC   D2A63940  22.931  40.013   6.764
 5018POPC   C3A63941  22.890  40.040   7.064
 5018POPC   C4A63942  22.912  40.050   7.364
 5018POPC   C1B63943  22.852  39.782   6.464
 5018POPC   C2B63944  22.862  39.766   6.764
 5018POPC   C3B63945  22.898  39.806   7.064
 5018POPC   C4B63946  22.836  39.794   7.364
 5019POPC   NC363947  40.031   8.949   5.564
 5019POPC   PO463948  40.036   8.997   5.864
 5019POPC   GL163949  39.961   8.966   6.164
 5019POPC   GL263950  40.072   8.899   6.164
 5019POPC   C1A63951  40.053   8.950   6.464
 5019POPC   D2A63952  40.056   8.979   6.764
 5019POPC   C3A63953  39.982   8.973   7.064
 5019POPC   C4A63954  40.050   8.938   7.364
 5019POPC   C1B63955  40.202   8.834   6.464
 5019POPC   C2B63956  40.221   8.853   6.764
 5019POPC   C3B63957  40.193   8.832   7.064
 5019POPC   C4B63958  40.208   8.789   7.364
 5020POPC   NC363959  37.685  30.670   5.564
 5020POPC   PO463960  37.671  30.670   5.864
 5020POPC   GL163961  37.657  30.691   6.164
 5020POPC   GL263962  37.659  30.840   6.164
 5020POPC   C1A63963  37.649  30.732   6.464
 5020POPC   D2A63964  37.674  30.670   6.764
 5020POPC   C3A63965  37.641  30.661   7.064
 5020POPC   C4A63966  37.725  30.649   7.364
 5020POPC   C1B63967  37.574  30.958   6.464
 5020POPC   C2B63968  37.657  30.973   6.764
 5020POPC   C3B63969  37.656  30.967   7.064
 5020POPC   C4B63970  37.568  30.960   7.364
 5021POPC   NC363971  28.357  11.264   5.564
 5021POPC   PO463972  28.383  11.327   5.864
 5021POPC   GL163973  28.407  11.256   6.164
 5021POPC   GL263974  28.415  11.414   6.164
 5021POPC   C1A63975  28.416  11.344   6.464
 5021POPC   D2A63976  28.359  11.348   6.764
 5021POPC   C3A63977  28.375  11.292   7.064
 5021POPC   C4A63978  28.372  11.285   7.364
 5021POPC   C1B63979  28.463  11.533   6.464
 5021POPC   C2B63980  28.427  11.549   6.764
 5021POPC   C3B63981  28.442  11.510   7.064
 5021POPC   C4B63982  28.403  11.589   7.364
 5022POPC   NC363983  22.136   4.354   5.564
 5022POPC   PO463984  22.150   4.307   5.864
 5022POPC   GL163985  22.174   4.272   6.164
 5022POPC   GL263986  22.114   4.414   6.164
 5022POPC   C1A63987  22.151   4.339   6.464
 5022POPC   D2A63988  22.124   4.361   6.764
 5022POPC   C3A63989  22.197   4.303   7.064
 5022POPC   C4A63990  22.197   4.282   7.364
 5022POPC   C1B63991  22.004   4.542   6.464
 5022POPC   C2B63992  21.974   4.530   6.764
 5022POPC   C3B63993  22.037   4.469   7.064
 5022POPC   C4B63994  22.020   4.553   7.364
 5023POPC   NC363995  34.617  35.357   5.564
 5023POPC   PO463996  34.599  35.367   5.864
 5023POPC   GL163997  34.546  35.328   6.164
 5023POPC   GL263998  34.415  35.362   6.164
 5023POPC   C1A63999  34.613  35.310   6.464
 5023POPC   D2A64000  34.584  35.346   6.764
 5023POPC   C3A64001  34.555  35.322   7.064
 5023POPC   C4A64002  34.569  35.341   7.364
 5023POPC   C1B64003  34.358  35.469   6.464
 5023POPC   C2B64004  34.313  35.420   6.764
 5023POPC   C3B64005  34.374  35.390   7.064
 5023POPC   C4B64006  34.307  35.391   7.364
 5024POPC   NC364007  23.714  12.805   5.564
 5024POPC   PO464008  23.717  12.821   5.864
 5024POPC   GL164009  23.755  12.849   6.164
 5024POPC   GL264010  23.699  12.743   6.164
 5024POPC   C1A64011  23.706  12.894   6.464
 5024POPC   D2A64012  23.732  12.891   6.764
 5024POPC   C3A64013  23.746  12.831   7.064
 5024POPC   C4A64014  23.741  12.827   7.364
 5024POPC   C1B64015  23.777  12.612   6.464
 5024POPC   C2B64016  23.746  12.590   6.764
 5024POPC   C3B64017  23.789  12.559   7.064
 5024POPC   C4B64018  23.797  12.635   7.364
 5025POPC   NC364019   5.904   0.440   5.564
 5025POPC   PO464020   5.890   0.468   5.864
 5025POPC   GL164021   5.916   0.419   6.164
 5025POPC   GL264022   5.942   0.353   6.164
 5025POPC   C1A64023   5.885   0.424   6.464
 5025POPC   D2A64024   5.909   0.406   6.764
 5025POPC   C3A64025   5.831   0.403   7.064
 5025POPC   C4A64026   5.842   0.432   7.364
 5025POPC   C1B64027   5.913   0.201   6.464
 5025POPC   C2B64028   5.941   0.150   6.764
 5025POPC   C3B64029   5.942   0.183   7.064
 5025POPC   C4B64030   5.939   0.159   7.364
 5026POPC   NC364031  43.911  30.690   5.564
 5026POPC   PO464032  43.866  30.713   5.864
 5026POPC   GL164033  43.933  30.655   6.164
 5026POPC   GL264034  43.969  30.839   6.164
 5026POPC   C1A64035  43.860  30.700   6.464
 5026POPC   D2A64036  43.895  30.717   6.764
 5026POPC   C3A64037  43.847  30.676   7.064
 5026POPC   C4A64038  43.881  30.725   7.364
 5026POPC   C1B64039  44.029  30.928   6.464
 5026POPC   C2B64040  44.033  30.888   6.764
 5026POPC   C3B64041  44.020  30.879   7.064
 5026POPC   C4B64042  44.017  30.957   7.364
 5027POPC   NC364043  36.930   0.473   5.564
 5027POPC   PO464044  36.895   0.480   5.864
 5027POPC   GL164045  36.873   0.438   6.164
 5027POPC   GL264046  36.964   0.349   6.164
 5027POPC   C1A64047  36.916   0.420   6.464
 5027POPC   D2A64048  36.894   0.452   6.764
 5027POPC   C3A64049  36.889   0.408   7.064
 5027POPC   C4A64050  36.935   0.471   7.364
 5027POPC   C1B64051  37.034   0.278   6.464
 5027POPC   C2B64052  37.055   0.303   6.764
 5027POPC   C3B64053  37.057   0.265   7.064
 5027POPC   C4B64054  37.080   0.256   7.364
 5028POPC   NC364055  18.234  43.118   5.564
 5028POPC   PO464056  18.247  43.141   5.864
 5028POPC   GL164057  18.245  43.146   6.164
 5028POPC   GL264058  18.360  42.992   6.164
 5028POPC   C1A64059  18.290  43.087   6.464
 5028POPC   D2A64060  18.315  43.099   6.764
 5028POPC   C3A64061  18.314  43.068   7.064
 5028POPC   C4A64062  18.303  43.111   7.364
 5028POPC   C1B64063  18.407  42.943   6.464
 5028POPC   C2B64064  18.432  42.974   6.764
 5028POPC   C3B64065  18.410  42.966   7.064
 5028POPC   C4B64066  18.452  42.953   7.364
 5029POPC   NC364067  32.998  10.562   5.564
 5029POPC   PO464068  33.050  10.477   5.864
 5029POPC   GL164069  32.981  10.565   6.164
 5029POPC   GL264070  32.882  10.535   6.164
 5029POPC   C1A64071  33.020  10.495   6.464
 5029POPC   D2A64072  32.976  10.475   6.764
 5029POPC   C3A64073  33.046  10.483   7.064
 5029POPC   C4A64074  33.038  10.486   7.364
 5029POPC   C1B64075  32.789  10.488   6.464
 5029POPC   C2B64076  32.787  10.482   6.764
 5029POPC   C3B64077  32.822  10.425   7.064
 5029POPC   C4B64078  32.753  10.417   7.364
 5030POPC   NC364079  37.637  36.092   5.564
 5030POPC   PO464080  37.693  36.136   5.864
 5030POPC   GL164081  37.639  36.088   6.164
 5030POPC   GL264082  37.766  36.110   6.164
 5030POPC   C1A64083  37.650  36.150   6.464
 5030POPC   D2A64084  37.638  36.134   6.764
 5030POPC   C3A64085  37.712  36.079   7.064
 5030POPC   C4A64086  37.708  36.078   7.364
 5030POPC   C1B64087  37.962  36.077   6.464
 5030POPC   C2B64088  37.893  36.069   6.764
 5030POPC   C3B64089  37.955  36.110   7.064
 5030POPC   C4B64090  37.951  36.098   7.364
 5031POPC   NC364091  33.011  41.523   5.564
 5031POPC   PO464092  33.056  41.527   5.864
 5031POPC   GL164093  33.011  41.534   6.164
 5031POPC   GL264094  32.901  41.612   6.164
 5031POPC   C1A64095  33.034  41.515   6.464
 5031POPC   D2A64096  33.032  41.521   6.764
 5031POPC   C3A64097  33.064  41.582   7.064
 5031POPC   C4A64098  33.014  41.515   7.364
 5031POPC   C1B64099  32.765  41.691   6.464
 5031POPC   C2B64100  32.814  41.712   6.764
 5031POPC   C3B64101  32.825  41.736   7.064
 5031POPC   C4B64102  32.828  41.722   7.364
 5032POPC   NC364103  43.112  19.803   5.564
 5032POPC   PO464104  43.068  19.790   5.864
 5032POPC   GL164105  43.083  19.805   6.164
 5032POPC   GL264106  43.191  19.771   6.164
 5032POPC   C1A64107  43.091  19.785   6.464
 5032POPC   D2A64108  43.147  19.820   6.764
 5032POPC   C3A64109  43.112  19.829   7.064
 5032POPC   C4A64110  43.104  19.879   7.364
 5032POPC   C1B64111  43.292  19.657   6.464
 5032POPC   C2B64112  43.264  19.652   6.764
 5032POPC   C3B64113  43.259  19.643   7.064
 5032POPC   C4B64114  43.242  19.627   7.364
 5033POPC   NC364115  31.446  25.276   5.564
 5033POPC   PO464116  31.447  25.311   5.864
 5033POPC   GL164117  31.427  25.245   6.164
 5033POPC   GL264118  31.328  25.318   6.164
 5033POPC   C1A64119  31.480  25.285   6.464
 5033POPC   D2A64120  31.476  25.233   6.764
 5033POPC   C3A64121  31.425  25.312   7.064
 5033POPC   C4A64122  31.432  25.305   7.364
 5033POPC   C1B64123  31.275  25.311   6.464
 5033POPC   C2B64124  31.200  25.329   6.764
 5033POPC   C3B64125  31.211  25.287   7.064
 5033POPC   C4B64126  31.269  25.354   7.364
 5034POPC   NC364127  26.053  23.716   5.564
 5034POPC   PO464128  26.090  23.716   5.864
 5034POPC   GL164129  26.018  23.695   6.164
 5034POPC   GL264130  26.013  23.874   6.164
 5034POPC   C1A64131  25.999  23.692   6.464
 5034POPC   D2A64132  26.030  23.706   6.764
 5034POPC   C3A64133  26.072  23.756   7.064
 5034POPC   C4A64134  26.033  23.694   7.364
 5034POPC   C1B64135  26.083  23.920   6.464
 5034POPC   C2B64136  26.055  23.966   6.764
 5034POPC   C3B64137  26.057  23.911   7.064
 5034POPC   C4B64138  26.068  23.989   7.364
 5035POPC   NC364139   8.957   1.962   5.564
 5035POPC   PO464140   9.004   1.983   5.864
 5035POPC   GL164141   9.002   1.947   6.164
 5035POPC   GL264142   8.881   2.147   6.164
 5035POPC   C1A64143   8.926   2.029   6.464
 5035POPC   D2A64144   8.964   1.955   6.764
 5035POPC   C3A64145   8.957   2.017   7.064
 5035POPC   C4A64146   8.983   1.977   7.364
 5035POPC   C1B64147   8.876   2.203   6.464
 5035POPC   C2B64148   8.919   2.255   6.764
 5035POPC   C3B64149   8.876   2.255   7.064
 5035POPC   C4B64150   8.829   2.206   7.364
 5036POPC   NC364151  22.956  14.376   5.564
 5036POPC   PO464152  22.949  14.389   5.864
 5036POPC   GL164153  22.937  14.370   6.164
 5036POPC   GL264154  22.810  14.363   6.164
 5036POPC   C1A64155  22.977  14.357   6.464
 5036POPC   D2A64156  22.922  14.387   6.764
 5036POPC   C3A64157  22.972  14.368   7.064
 5036POPC   C4A64158  22.889  14.442   7.364
 5036POPC   C1B64159  22.772  14.239   6.464
 5036POPC   C2B64160  22.763  14.291   6.764
 5036POPC   C3B64161  22.743  14.300   7.064
 5036POPC   C4B64162  22.722  14.241   7.364
 5037POPC   NC364163  11.319   2.814   5.564
 5037POPC   PO464164  11.297   2.770   5.864
 5037POPC   GL164165  11.285   2.735   6.164
 5037POPC   GL264166  11.284   2.909   6.164
 5037POPC   C1A64167  11.288   2.784   6.464
 5037POPC   D2A64168  11.269   2.774   6.764
 5037POPC   C3A64169  11.310   2.782   7.064
 5037POPC   C4A64170  11.263   2.721   7.364
 5037POPC   C1B64171  11.258   3.015   6.464
 5037POPC   C2B64172  11.265   2.980   6.764
 5037POPC   C3B64173  11.198   2.983   7.064
 5037POPC   C4B64174  11.284   2.958   7.364
 5038POPC   NC364175  15.196  28.380   5.564
 5038POPC   PO464176  15.216  28.369   5.864
 5038POPC   GL164177  15.177  28.352   6.164
 5038POPC   GL264178  15.293  28.451   6.164
 5038POPC   C1A64179  15.217  28.398   6.464
 5038POPC   D2A64180  15.169  28.390   6.764
 5038POPC   C3A64181  15.226  28.347   7.064
 5038POPC   C4A64182  15.219  28.405   7.364
 5038POPC   C1B64183  15.383  28.536   6.464
 5038POPC   C2B64184  15.321  28.506   6.764
 5038POPC   C3B64185  15.369  28.563   7.064
 5038POPC   C4B64186  15.326  28.541   7.364
 5039POPC   NC364187  37.634  19.827   5.564
 5039POPC   PO464188  37.657  19.846   5.864
 5039POPC   GL164189  37.723  19.802   6.164
 5039POPC   GL264190  37.659  19.756   6.164
 5039POPC   C1A64191  37.636  19.820   6.464
 5039POPC   D2A64192  37.687  19.871   6.764
 5039POPC   C3A64193  37.669  19.809   7.064
 5039POPC   C4A64194  37.723  19.801   7.364
 5039POPC   C1B64195  37.719  19.576   6.464
 5039POPC   C2B64196  37.663  19.561   6.764
 5039POPC   C3B64197  37.656  19.599   7.064
 5039POPC   C4B64198  37.664  19.613   7.364
 5040POPC   NC364199  36.177  29.101   5.564
 5040POPC   PO464200  36.081  29.191   5.864
 5040POPC   GL164201  36.102  29.131   6.164
 5040POPC   GL264202  36.144  29.304   6.164
 5040POPC   C1A64203  36.129  29.138   6.464
 5040POPC   D2A64204  36.115  29.153   6.764
 5040POPC   C3A64205  36.110  29.124   7.064
 5040POPC   C4A64206  36.140  29.175   7.364
 5040POPC   C1B64207  36.212  29.390   6.464
 5040POPC   C2B64208  36.211  29.390   6.764
 5040POPC   C3B64209  36.242  29.414   7.064
 5040POPC   C4B64210  36.227  29.345   7.364
 5041POPC   NC364211   5.898  10.489   5.564
 5041POPC   PO464212   5.912  10.537   5.864
 5041POPC   GL164213   5.850  10.485   6.164
 5041POPC   GL264214   5.836  10.409   6.164
 5041POPC   C1A64215   5.901  10.504   6.464
 5041POPC   D2A64216   5.918  10.558   6.764
 5041POPC   C3A64217   5.851  10.483   7.064
 5041POPC   C4A64218   5.899  10.554   7.364
 5041POPC   C1B64219   5.791  10.306   6.464
 5041POPC   C2B64220   5.821  10.343   6.764
 5041POPC   C3B64221   5.814  10.332   7.064
 5041POPC   C4B64222   5.815  10.280   7.364
 5042POPC   NC364223  19.050  27.592   5.564
 5042POPC   PO464224  19.091  27.574   5.864
 5042POPC   GL164225  19.097  27.619   6.164
 5042POPC   GL264226  19.152  27.672   6.164
 5042POPC   C1A64227  19.014  27.634   6.464
 5042POPC   D2A64228  19.046  27.629   6.764
 5042POPC   C3A64229  19.013  27.587   7.064
 5042POPC   C4A64230  19.032  27.596   7.364
 5042POPC   C1B64231  19.160  27.803   6.464
 5042POPC   C2B64232  19.161  27.780   6.764
 5042POPC   C3B64233  19.195  27.817   7.064
 5042POPC   C4B64234  19.195  27.835   7.364
 5043POPC   NC364235  33.842  37.709   5.564
 5043POPC   PO464236  33.793  37.675   5.864
 5043POPC   GL164237  33.792  37.671   6.164
 5043POPC   GL264238  33.911  37.746   6.164
 5043POPC   C1A64239  33.764  37.668   6.464
 5043POPC   D2A64240  33.784  37.657   6.764
 5043POPC   C3A64241  33.782  37.675   7.064
 5043POPC   C4A64242  33.762  37.724   7.364
 5043POPC   C1B64243  34.015  37.776   6.464
 5043POPC   C2B64244  34.016  37.754   6.764
 5043POPC   C3B64245  34.075  37.767   7.064
 5043POPC   C4B64246  34.015  37.731   7.364
 5044POPC   NC364247   1.240  15.189   5.564
 5044POPC   PO464248   1.234  15.200   5.864
 5044POPC   GL164249   1.176  15.152   6.164
 5044POPC   GL264250   1.162  15.141   6.164
 5044POPC   C1A64251   1.238  15.177   6.464
 5044POPC   D2A64252   1.256  15.210   6.764
 5044POPC   C3A64253   1.232  15.157   7.064
 5044POPC   C4A64254   1.182  15.164   7.364
 5044POPC   C1B64255   0.998  14.976   6.464
 5044POPC   C2B64256   0.987  15.024   6.764
 5044POPC   C3B64257   1.060  15.004   7.064
 5044POPC   C4B64258   1.057  15.038   7.364
 5045POPC   NC364259  11.274  12.813   5.564
 5045POPC   PO464260  11.336  12.822   5.864
 5045POPC   GL164261  11.286  12.849   6.164
 5045POPC   GL264262  11.257  12.765   6.164
 5045POPC   C1A64263  11.266  12.834   6.464
 5045POPC   D2A64264  11.288  12.849   6.764
 5045POPC   C3A64265  11.268  12.826   7.064
 5045POPC   C4A64266  11.324  12.847   7.364
 5045POPC   C1B64267  11.227  12.652   6.464
 5045POPC   C2B64268  11.269  12.590   6.764
 5045POPC   C3B64269  11.232  12.585   7.064
 5045POPC   C4B64270  11.239  12.574   7.364
 5046POPC   NC364271  30.745   3.585   5.564
 5046POPC   PO464272  30.665   3.543   5.864
 5046POPC   GL164273  30.714   3.543   6.164
 5046POPC   GL264274  30.799   3.506   6.164
 5046POPC   C1A64275  30.667   3.550   6.464
 5046POPC   D2A64276  30.728   3.504   6.764
 5046POPC   C3A64277  30.693   3.532   7.064
 5046POPC   C4A64278  30.663   3.572   7.364
 5046POPC   C1B64279  30.937   3.431   6.464
 5046POPC   C2B64280  30.864   3.350   6.764
 5046POPC   C3B64281  30.893   3.378   7.064
 5046POPC   C4B64282  30.926   3.381   7.364
 5047POPC   NC364283  17.540  10.520   5.564
 5047POPC   PO464284  17.460  10.530   5.864
 5047POPC   GL164285  17.474  10.535   6.164
 5047POPC   GL264286  17.421  10.636   6.164
 5047POPC   C1A64287  17.508  10.492   6.464
 5047POPC   D2A64288  17.492  10.513   6.764
 5047POPC   C3A64289  17.487  10.479   7.064
 5047POPC   C4A64290  17.494  10.511   7.364
 5047POPC   C1B64291  17.444  10.752   6.464
 5047POPC   C2B64292  17.468  10.811   6.764
 5047POPC   C3B64293  17.385  10.715   7.064
 5047POPC   C4B64294  17.415  10.716   7.364
 5048POPC   NC364295   7.426  12.809   5.564
 5048POPC   PO464296   7.389  12.814   5.864
 5048POPC   GL164297   7.408  12.837   6.164
 5048POPC   GL264298   7.357  12.787   6.164
 5048POPC   C1A64299   7.429  12.810   6.464
 5048POPC   D2A64300   7.455  12.884   6.764
 5048POPC   C3A64301   7.413  12.865   7.064
 5048POPC   C4A64302   7.429  12.830   7.364
 5048POPC   C1B64303   7.234  12.688   6.464
 5048POPC   C2B64304   7.181  12.688   6.764
 5048POPC   C3B64305   7.166  12.685   7.064
 5048POPC   C4B64306   7.236  12.723   7.364
 5049POPC   NC364307  12.077  15.912   5.564
 5049POPC   PO464308  12.038  15.972   5.864
 5049POPC   GL164309  12.081  15.949   6.164
 5049POPC   GL264310  12.148  16.037   6.164
 5049POPC   C1A64311  12.118  15.988   6.464
 5049POPC   D2A64312  12.030  15.908   6.764
 5049POPC   C3A64313  12.070  15.919   7.064
 5049POPC   C4A64314  12.078  15.945   7.364
 5049POPC   C1B64315  12.348  16.064   6.464
 5049POPC   C2B64316  12.332  16.070   6.764
 5049POPC   C3B64317  12.287  16.014   7.064
 5049POPC   C4B64318  12.327  16.058   7.364
 5050POPC   NC364319  26.005  12.082   5.564
 5050POPC   PO464320  26.062  12.043   5.864
 5050POPC   GL164321  25.999  12.111   6.164
 5050POPC   GL264322  26.108  12.125   6.164
 5050POPC   C1A64323  26.051  12.040   6.464
 5050POPC   D2A64324  26.031  12.114   6.764
 5050POPC   C3A64325  26.071  12.030   7.064
 5050POPC   C4A64326  26.054  12.039   7.364
 5050POPC   C1B64327  26.235  12.174   6.464
 5050POPC   C2B64328  26.302  12.170   6.764
 5050POPC   C3B64329  26.272  12.211   7.064
 5050POPC   C4B64330  26.286  12.238   7.364
 5051POPC   NC364331   6.645  22.938   5.564
 5051POPC   PO464332   6.632  22.947   5.864
 5051POPC   GL164333   6.655  22.890   6.164
 5051POPC   GL264334   6.714  23.004   6.164
 5051POPC   C1A64335   6.641  22.977   6.464
 5051POPC   D2A64336   6.623  22.889   6.764
 5051POPC   C3A64337   6.626  22.917   7.064
 5051POPC   C4A64338   6.616  22.954   7.364
 5051POPC   C1B64339   6.805  23.183   6.464
 5051POPC   C2B64340   6.761  23.187   6.764
 5051POPC   C3B64341   6.808  23.162   7.064
 5051POPC   C4B64342   6.825  23.136   7.364
 5052POPC   NC364343  43.156  17.483   5.564
 5052POPC   PO464344  43.068  17.525   5.864
 5052POPC   GL164345  43.073  17.470   6.164
 5052POPC   GL264346  43.103  17.658   6.164
 5052POPC   C1A64347  43.155  17.543   6.464
 5052POPC   D2A64348  43.072  17.527   6.764
 5052POPC   C3A64349  43.155  17.556   7.064
 5052POPC   C4A64350  43.130  17.462   7.364
 5052POPC   C1B64351  43.138  17.794   6.464
 5052POPC   C2B64352  43.167  17.706   6.764
 5052POPC   C3B64353  43.113  17.772   7.064
 5052POPC   C4B64354  43.092  17.722   7.364
 5053POPC   NC364355  14.357   6.679   5.564
 5053POPC   PO464356  14.427   6.600   5.864
 5053POPC   GL164357  14.369   6.605   6.164
 5053POPC   GL264358  14.444   6.543   6.164
 5053POPC   C1A64359  14.444   6.608   6.464
 5053POPC   D2A64360  14.442   6.675   6.764
 5053POPC   C3A64361  14.412   6.622   7.064
 5053POPC   C4A64362  14.446   6.651   7.364
 5053POPC   C1B64363  14.505   6.411   6.464
 5053POPC   C2B64364  14.508   6.411   6.764
 5053POPC   C3B64365  14.500   6.483   7.064
 5053POPC   C4B64366  14.571   6.405   7.364
 5054POPC   NC364367  13.602  37.655   5.564
 5054POPC   PO464368  13.583  37.712   5.864
 5054POPC   GL164369  13.663  37.672   6.164
 5054POPC   GL264370  13.574  37.620   6.164
 5054POPC   C1A64371  13.615  37.700   6.464
 5054POPC   D2A64372  13.580  37.710   6.764
 5054POPC   C3A64373  13.583  37.685   7.064
 5054POPC   C4A64374  13.672  37.633   7.364
 5054POPC   C1B64375  13.497  37.447   6.464
 5054POPC   C2B64376  13.458  37.486   6.764
 5054POPC   C3B64377  13.466  37.447   7.064
 5054POPC   C4B64378  13.500  37.510   7.364
 5055POPC   NC364379  29.120  22.943   5.564
 5055POPC   PO464380  29.178  22.925   5.864
 5055POPC   GL164381  29.155  22.891   6.164
 5055POPC   GL264382  29.121  23.011   6.164
 5055POPC   C1A64383  29.189  22.918   6.464
 5055POPC   D2A64384  29.136  22.967   6.764
 5055POPC   C3A64385  29.108  22.984   7.064
 5055POPC   C4A64386  29.097  22.958   7.364
 5055POPC   C1B64387  29.050  23.180   6.464
 5055POPC   C2B64388  29.052  23.176   6.764
 5055POPC   C3B64389  29.057  23.185   7.064
 5055POPC   C4B64390  29.020  23.105   7.364
 5056POPC   NC364391  34.527   9.790   5.564
 5056POPC   PO464392  34.581   9.716   5.864
 5056POPC   GL164393  34.551   9.776   6.164
 5056POPC   GL264394  34.588   9.834   6.164
 5056POPC   C1A64395  34.619   9.700   6.464
 5056POPC   D2A64396  34.545   9.777   6.764
 5056POPC   C3A64397  34.577   9.732   7.064
 5056POPC   C4A64398  34.545   9.785   7.364
 5056POPC   C1B64399  34.644  10.006   6.464
 5056POPC   C2B64400  34.601  10.003   6.764
 5056POPC   C3B64401  34.652   9.956   7.064
 5056POPC   C4B64402  34.626  10.003   7.364
 5057POPC   NC364403  25.314  16.731   5.564
 5057POPC   PO464404  25.219  16.746   5.864
 5057POPC   GL164405  25.232  16.744   6.164
 5057POPC   GL264406  25.195  16.666   6.164
 5057POPC   C1A64407  25.298  16.718   6.464
 5057POPC   D2A64408  25.289  16.751   6.764
 5057POPC   C3A64409  25.243  16.718   7.064
 5057POPC   C4A64410  25.289  16.684   7.364
 5057POPC   C1B64411  25.118  16.532   6.464
 5057POPC   C2B64412  25.131  16.570   6.764
 5057POPC   C3B64413  25.110  16.581   7.064
 5057POPC   C4B64414  25.105  16.523   7.364
 5058POPC   NC364415  21.341  25.239   5.564
 5058POPC   PO464416  21.421  25.287   5.864
 5058POPC   GL164417  21.414  25.259   6.164
 5058POPC   GL264418  21.249  25.313   6.164
 5058POPC   C1A64419  21.423  25.218   6.464
 5058POPC   D2A64420  21.376  25.266   6.764
 5058POPC   C3A64421  21.414  25.298   7.064
 5058POPC   C4A64422  21.355  25.257   7.364
 5058POPC   C1B64423  21.222  25.478   6.464
 5058POPC   C2B64424  21.151  25.385   6.764
 5058POPC   C3B64425  21.227  25.476   7.064
 5058POPC   C4B64426  21.241  25.435   7.364
 5059POPC   NC364427  10.485  14.404   5.564
 5059POPC   PO464428  10.505  14.416   5.864
 5059POPC   GL164429  10.514  14.412   6.164
 5059POPC   GL264430  10.547  14.488   6.164
 5059POPC   C1A64431  10.506  14.406   6.464
 5059POPC   D2A64432  10.563  14.405   6.764
 5059POPC   C3A64433  10.508  14.381   7.064
 5059POPC   C4A64434  10.531  14.393   7.364
 5059POPC   C1B64435  10.671  14.615   6.464
 5059POPC   C2B64436  10.640  14.582   6.764
 5059POPC   C3B64437  10.617  14.662   7.064
 5059POPC   C4B64438  10.598  14.653   7.364
 5060POPC   NC364439   5.083  26.855   5.564
 5060POPC   PO464440   5.110  26.774   5.864
 5060POPC   GL164441   5.106  26.773   6.164
 5060POPC   GL264442   5.021  26.955   6.164
 5060POPC   C1A64443   5.141  26.842   6.464
 5060POPC   D2A64444   5.070  26.768   6.764
 5060POPC   C3A64445   5.130  26.805   7.064
 5060POPC   C4A64446   5.063  26.794   7.364
 5060POPC   C1B64447   4.942  27.051   6.464
 5060POPC   C2B64448   4.943  27.073   6.764
 5060POPC   C3B64449   4.939  27.024   7.064
 5060POPC   C4B64450   4.951  27.045   7.364
 5061POPC   NC364451  43.859  12.065   5.564
 5061POPC   PO464452  43.869  12.120   5.864
 5061POPC   GL164453  43.884  12.063   6.164
 5061POPC   GL264454  43.790  12.107   6.164
 5061POPC   C1A64455  43.852  12.063   6.464
 5061POPC   D2A64456  43.931  12.062   6.764
 5061POPC   C3A64457  43.931  12.051   7.064
 5061POPC   C4A64458  43.915  12.035   7.364
 5061POPC   C1B64459  43.719  12.231   6.464
 5061POPC   C2B64460  43.710  12.256   6.764
 5061POPC   C3B64461  43.730  12.284   7.064
 5061POPC   C4B64462  43.716  12.213   7.364
 5062POPC   NC364463  16.777  33.819   5.564
 5062POPC   PO464464  16.738  33.833   5.864
 5062POPC   GL164465  16.777  33.779   6.164
 5062POPC   GL264466  16.819  33.791   6.164
 5062POPC   C1A64467  16.688  33.827   6.464
 5062POPC   D2A64468  16.743  33.844   6.764
 5062POPC   C3A64469  16.774  33.849   7.064
 5062POPC   C4A64470  16.687  33.824   7.364
 5062POPC   C1B64471  16.942  33.789   6.464
 5062POPC   C2B64472  17.029  33.841   6.764
 5062POPC   C3B64473  17.031  33.797   7.064
 5062POPC   C4B64474  16.977  33.819   7.364
 5063POPC   NC364475  43.066   2.732   5.564
 5063POPC   PO464476  43.081   2.798   5.864
 5063POPC   GL164477  43.078   2.800   6.164
 5063POPC   GL264478  43.217   2.790   6.164
 5063POPC   C1A64479  43.159   2.731   6.464
 5063POPC   D2A64480  43.159   2.779   6.764
 5063POPC   C3A64481  43.082   2.723   7.064
 5063POPC   C4A64482  43.124   2.754   7.364
 5063POPC   C1B64483  43.388   2.846   6.464
 5063POPC   C2B64484  43.329   2.814   6.764
 5063POPC   C3B64485  43.393   2.844   7.064
 5063POPC   C4B64486  43.362   2.776   7.364
 5064POPC   NC364487  40.822  36.932   5.564
 5064POPC   PO464488  40.745  36.909   5.864
 5064POPC   GL164489  40.785  36.921   6.164
 5064POPC   GL264490  40.813  36.783   6.164
 5064POPC   C1A64491  40.800  36.879   6.464
 5064POPC   D2A64492  40.829  36.883   6.764
 5064POPC   C3A64493  40.807  36.894   7.064
 5064POPC   C4A64494  40.767  36.906   7.364
 5064POPC   C1B64495  40.812  36.654   6.464
 5064POPC   C2B64496  40.885  36.663   6.764
 5064POPC   C3B64497  40.885  36.703   7.064
 5064POPC   C4B64498  40.827  36.622   7.364
 5065POPC   NC364499  20.564  10.494   5.564
 5065POPC   PO464500  20.598  10.519   5.864
 5065POPC   GL164501  20.635  10.557   6.164
 5065POPC   GL264502  20.453  10.556   6.164
 5065POPC   C1A64503  20.591  10.488   6.464
 5065POPC   D2A64504  20.612  10.563   6.764
 5065POPC   C3A64505  20.610  10.553   7.064
 5065POPC   C4A64506  20.593  10.562   7.364
 5065POPC   C1B64507  20.323  10.504   6.464
 5065POPC   C2B64508  20.374  10.514   6.764
 5065POPC   C3B64509  20.406  10.499   7.064
 5065POPC   C4B64510  20.407  10.530   7.364
 5066POPC   NC364511  33.810  23.752   5.564
 5066POPC   PO464512  33.776  23.694   5.864
 5066POPC   GL164513  33.755  23.722   6.164
 5066POPC   GL264514  33.964  23.669   6.164
 5066POPC   C1A64515  33.825  23.715   6.464
 5066POPC   D2A64516  33.813  23.726   6.764
 5066POPC   C3A64517  33.814  23.724   7.064
 5066POPC   C4A64518  33.769  23.735   7.364
 5066POPC   C1B64519  34.083  23.602   6.464
 5066POPC   C2B64520  34.014  23.605   6.764
 5066POPC   C3B64521  34.063  23.650   7.064
 5066POPC   C4B64522  33.990  23.622   7.364
 5067POPC   NC364523  44.677  30.683   5.564
 5067POPC   PO464524  44.689  30.735   5.864
 5067POPC   GL164525  44.637  30.739   6.164
 5067POPC   GL264526  44.570  30.808   6.164
 5067POPC   C1A64527  44.667  30.670   6.464
 5067POPC   D2A64528  44.617  30.678   6.764
 5067POPC   C3A64529  44.659  30.726   7.064
 5067POPC   C4A64530  44.679  30.689   7.364
 5067POPC   C1B64531  44.423  30.832   6.464
 5067POPC   C2B64532  44.415  30.866   6.764
 5067POPC   C3B64533  44.463  30.840   7.064
 5067POPC   C4B64534  44.403  30.796   7.364
 5068POPC   NC364535  19.063  10.495   5.564
 5068POPC   PO464536  19.039  10.487   5.864
 5068POPC   GL164537  19.051  10.495   6.164
 5068POPC   GL264538  18.934  10.580   6.164
 5068POPC   C1A64539  19.057  10.501   6.464
 5068POPC   D2A64540  19.088  10.483   6.764
 5068POPC   C3A64541  19.021  10.531   7.064
 5068POPC   C4A64542  19.102  10.536   7.364
 5068POPC   C1B64543  18.779  10.617   6.464
 5068POPC   C2B64544  18.853  10.635   6.764
 5068POPC   C3B64545  18.801  10.644   7.064
 5068POPC   C4B64546  18.799  10.642   7.364
 5069POPC   NC364547  14.450  11.260   5.564
 5069POPC   PO464548  14.420  11.293   5.864
 5069POPC   GL164549  14.386  11.292   6.164
 5069POPC   GL264550  14.500  11.315   6.164
 5069POPC   C1A64551  14.395  11.324   6.464
 5069POPC   D2A64552  14.428  11.278   6.764
 5069POPC   C3A64553  14.357  11.341   7.064
 5069POPC   C4A64554  14.354  11.313   7.364
 5069POPC   C1B64555  14.675  11.348   6.464
 5069POPC   C2B64556  14.631  11.344   6.764
 5069POPC   C3B64557  14.604  11.314   7.064
 5069POPC   C4B64558  14.676  11.353   7.364
 5070POPC   NC364559  12.031   1.253   5.564
 5070POPC   PO464560  12.051   1.239   5.864
 5070POPC   GL164561  12.087   1.251   6.164
 5070POPC   GL264562  12.168   1.097   6.164
 5070POPC   C1A64563  12.060   1.170   6.464
 5070POPC   D2A64564  12.044   1.192   6.764
 5070POPC   C3A64565  12.063   1.209   7.064
 5070POPC   C4A64566  12.070   1.248   7.364
 5070POPC   C1B64567  12.240   1.006   6.464
 5070POPC   C2B64568  12.174   0.976   6.764
 5070POPC   C3B64569  12.202   1.004   7.064
 5070POPC   C4B64570  12.226   1.015   7.364
 5071POPC   NC364571  26.065  12.803   5.564
 5071POPC   PO464572  25.994  12.834   5.864
 5071POPC   GL164573  26.005  12.812   6.164
 5071POPC   GL264574  25.968  12.766   6.164
 5071POPC   C1A64575  26.062  12.829   6.464
 5071POPC   D2A64576  26.020  12.831   6.764
 5071POPC   C3A64577  26.024  12.880   7.064
 5071POPC   C4A64578  26.043  12.841   7.364
 5071POPC   C1B64579  25.914  12.644   6.464
 5071POPC   C2B64580  25.947  12.623   6.764
 5071POPC   C3B64581  25.969  12.678   7.064
 5071POPC   C4B64582  25.967  12.677   7.364
 5072POPC   NC364583  38.485  21.369   5.564
 5072POPC   PO464584  38.476  21.352   5.864
 5072POPC   GL164585  38.501  21.374   6.164
 5072POPC   GL264586  38.433  21.476   6.164
 5072POPC   C1A64587  38.407  21.412   6.464
 5072POPC   D2A64588  38.418  21.422   6.764
 5072POPC   C3A64589  38.474  21.413   7.064
 5072POPC   C4A64590  38.479  21.366   7.364
 5072POPC   C1B64591  38.495  21.600   6.464
 5072POPC   C2B64592  38.498  21.608   6.764
 5072POPC   C3B64593  38.463  21.634   7.064
 5072POPC   C4B64594  38.431  21.626   7.364
 5073POPC   NC364595  26.063  38.444   5.564
 5073POPC   PO464596  25.993  38.486   5.864
 5073POPC   GL164597  26.055  38.453   6.164
 5073POPC   GL264598  26.135  38.305   6.164
 5073POPC   C1A64599  25.996  38.440   6.464
 5073POPC   D2A64600  26.012  38.442   6.764
 5073POPC   C3A64601  26.085  38.426   7.064
 5073POPC   C4A64602  26.017  38.449   7.364
 5073POPC   C1B64603  26.184  38.292   6.464
 5073POPC   C2B64604  26.186  38.230   6.764
 5073POPC   C3B64605  26.143  38.269   7.064
 5073POPC   C4B64606  26.187  38.249   7.364
 5074POPC   NC364607  12.053  35.356   5.564
 5074POPC   PO464608  12.125  35.373   5.864
 5074POPC   GL164609  12.077  35.343   6.164
 5074POPC   GL264610  11.951  35.442   6.164
 5074POPC   C1A64611  12.071  35.389   6.464
 5074POPC   D2A64612  12.072  35.350   6.764
 5074POPC   C3A64613  12.058  35.386   7.064
 5074POPC   C4A64614  12.124  35.347   7.364
 5074POPC   C1B64615  11.892  35.493   6.464
 5074POPC   C2B64616  11.924  35.479   6.764
 5074POPC   C3B64617  11.920  35.540   7.064
 5074POPC   C4B64618  11.910  35.496   7.364
 5075POPC   NC364619   5.887   3.551   5.564
 5075POPC   PO464620   5.895   3.573   5.864
 5075POPC   GL164621   5.828   3.591   6.164
 5075POPC   GL264622   5.892   3.441   6.164
 5075POPC   C1A64623   5.831   3.533   6.464
 5075POPC   D2A64624   5.873   3.565   6.764
 5075POPC   C3A64625   5.852   3.515   7.064
 5075POPC   C4A64626   5.823   3.530   7.364
 5075POPC   C1B64627   5.909   3.269   6.464
 5075POPC   C2B64628   5.961   3.264   6.764
 5075POPC   C3B64629   5.957   3.293   7.064
 5075POPC   C4B64630   5.944   3.256   7.364
 5076POPC   NC364631  30.724  34.562   5.564
 5076POPC   PO464632  30.665  34.598   5.864
 5076POPC   GL164633  30.697  34.581   6.164
 5076POPC   GL264634  30.667  34.654   6.164
 5076POPC   C1A64635  30.683  34.559   6.464
 5076POPC   D2A64636  30.721  34.561   6.764
 5076POPC   C3A64637  30.695  34.602   7.064
 5076POPC   C4A64638  30.685  34.616   7.364
 5076POPC   C1B64639  30.642  34.814   6.464
 5076POPC   C2B64640  30.685  34.794   6.764
 5076POPC   C3B64641  30.661  34.847   7.064
 5076POPC   C4B64642  30.620  34.813   7.364
 5077POPC   NC364643   1.254  38.475   5.564
 5077POPC   PO464644   1.256  38.442   5.864
 5077POPC   GL164645   1.207  38.423   6.164
 5077POPC   GL264646   1.219  38.571   6.164
 5077POPC   C1A64647   1.238  38.465   6.464
 5077POPC   D2A64648   1.262  38.502   6.764
 5077POPC   C3A64649   1.187  38.478   7.064
 5077POPC   C4A64650   1.231  38.466   7.364
 5077POPC   C1B64651   1.270  38.702   6.464
 5077POPC   C2B64652   1.257  38.722   6.764
 5077POPC   C3B64653   1.266  38.677   7.064
 5077POPC   C4B64654   1.315  38.710   7.364
 5078POPC   NC364655  22.895   5.065   5.564
 5078POPC   PO464656  22.961   5.106   5.864
 5078POPC   GL164657  22.911   5.084   6.164
 5078POPC   GL264658  22.883   4.928   6.164
 5078POPC   C1A64659  22.912   5.046   6.464
 5078POPC   D2A64660  22.960   5.097   6.764
 5078POPC   C3A64661  22.966   5.121   7.064
 5078POPC   C4A64662  22.890   5.112   7.364
 5078POPC   C1B64663  22.963   4.867   6.464
 5078POPC   C2B64664  22.885   4.889   6.764
 5078POPC   C3B64665  22.883   4.838   7.064
 5078POPC   C4B64666  22.962   4.806   7.364
 5079POPC   NC364667  40.019  23.673   5.564
 5079POPC   PO464668  39.974  23.708   5.864
 5079POPC   GL164669  39.994  23.736   6.164
 5079POPC   GL264670  40.102  23.858   6.164
 5079POPC   C1A64671  40.016  23.668   6.464
 5079POPC   D2A64672  39.994  23.718   6.764
 5079POPC   C3A64673  40.011  23.763   7.064
 5079POPC   C4A64674  40.025  23.698   7.364
 5079POPC   C1B64675  40.111  23.926   6.464
 5079POPC   C2B64676  40.154  23.882   6.764
 5079POPC   C3B64677  40.155  23.910   7.064
 5079POPC   C4B64678  40.096  23.911   7.364
 5080POPC   NC364679  12.808   8.212   5.564
 5080POPC   PO464680  12.863   8.222   5.864
 5080POPC   GL164681  12.837   8.195   6.164
 5080POPC   GL264682  12.778   8.204   6.164
 5080POPC   C1A64683  12.893   8.215   6.464
 5080POPC   D2A64684  12.885   8.241   6.764
 5080POPC   C3A64685  12.860   8.218   7.064
 5080POPC   C4A64686  12.821   8.238   7.364
 5080POPC   C1B64687  12.560   8.220   6.464
 5080POPC   C2B64688  12.598   8.247   6.764
 5080POPC   C3B64689  12.596   8.219   7.064
 5080POPC   C4B64690  12.627   8.238   7.364
 5081POPC   NC364691  39.995  19.086   5.564
 5081POPC   PO464692  40.037  19.098   5.864
 5081POPC   GL164693  40.025  19.030   6.164
 5081POPC   GL264694  39.907  19.131   6.164
 5081POPC   C1A64695  39.962  19.048   6.464
 5081POPC   D2A64696  40.003  19.060   6.764
 5081POPC   C3A64697  40.052  19.012   7.064
 5081POPC   C4A64698  40.024  19.051   7.364
 5081POPC   C1B64699  39.863  19.199   6.464
 5081POPC   C2B64700  39.863  19.220   6.764
 5081POPC   C3B64701  39.826  19.211   7.064
 5081POPC   C4B64702  39.781  19.214   7.364
 5082POPC   NC364703   2.752  17.524   5.564
 5082POPC   PO464704   2.744  17.511   5.864
 5082POPC   GL164705   2.769  17.497   6.164
 5082POPC   GL264706   2.685  17.532   6.164
 5082POPC   C1A64707   2.783  17.541   6.464
 5082POPC   D2A64708   2.791  17.501   6.764
 5082POPC   C3A64709   2.809  17.534   7.064
 5082POPC   C4A64710   2.726  17.507   7.364
 5082POPC   C1B64711   2.538  17.596   6.464
 5082POPC   C2B64712   2.539  17.617   6.764
 5082POPC   C3B64713   2.551  17.599   7.064
 5082POPC   C4B64714   2.513  17.636   7.364
 5083POPC   NC364715  41.563  17.545   5.564
 5083POPC   PO464716  41.529  17.482   5.864
 5083POPC   GL164717  41.604  17.557   6.164
 5083POPC   GL264718  41.452  17.583   6.164
 5083POPC   C1A64719  41.594  17.490   6.464
 5083POPC   D2A64720  41.595  17.459   6.764
 5083POPC   C3A64721  41.516  17.555   7.064
 5083POPC   C4A64722  41.598  17.464   7.364
 5083POPC   C1B64723  41.368  17.748   6.464
 5083POPC   C2B64724  41.433  17.675   6.764
 5083POPC   C3B64725  41.372  17.669   7.064
 5083POPC   C4B64726  41.427  17.733   7.364
 5084POPC   NC364727  19.107  33.049   5.564
 5084POPC   PO464728  19.015  32.992   5.864
 5084POPC   GL164729  19.010  33.009   6.164
 5084POPC   GL264730  19.078  33.192   6.164
 5084POPC   C1A64731  19.050  33.053   6.464
 5084POPC   D2A64732  19.109  33.031   6.764
 5084POPC   C3A64733  19.044  32.988   7.064
 5084POPC   C4A64734  19.061  33.051   7.364
 5084POPC   C1B64735  19.078  33.320   6.464
 5084POPC   C2B64736  19.023  33.255   6.764
 5084POPC   C3B64737  19.088  33.249   7.064
 5084POPC   C4B64738  19.102  33.224   7.364
 5085POPC   NC364739  34.527   3.512   5.564
 5085POPC   PO464740  34.610   3.517   5.864
 5085POPC   GL164741  34.530   3.571   6.164
 5085POPC   GL264742  34.466   3.397   6.164
 5085POPC   C1A64743  34.551   3.541   6.464
 5085POPC   D2A64744  34.533   3.559   6.764
 5085POPC   C3A64745  34.575   3.519   7.064
 5085POPC   C4A64746  34.559   3.518   7.364
 5085POPC   C1B64747  34.385   3.339   6.464
 5085POPC   C2B64748  34.381   3.394   6.764
 5085POPC   C3B64749  34.467   3.312   7.064
 5085POPC   C4B64750  34.396   3.364   7.364
 5086POPC   NC364751   5.082  33.811   5.564
 5086POPC   PO464752   5.102  33.801   5.864
 5086POPC   GL164753   5.113  33.771   6.164
 5086POPC   GL264754   5.234  33.756   6.164
 5086POPC   C1A64755   5.066  33.796   6.464
 5086POPC   D2A64756   5.084  33.836   6.764
 5086POPC   C3A64757   5.068  33.773   7.064
 5086POPC   C4A64758   5.052  33.800   7.364
 5086POPC   C1B64759   5.364  33.800   6.464
 5086POPC   C2B64760   5.390  33.743   6.764
 5086POPC   C3B64761   5.342  33.835   7.064
 5086POPC   C4B64762   5.342  33.743   7.364
 5087POPC   NC364763  20.653  18.306   5.564
 5087POPC   PO464764  20.564  18.281   5.864
 5087POPC   GL164765  20.567  18.310   6.164
 5087POPC   GL264766  20.761  18.273   6.164
 5087POPC   C1A64767  20.576  18.325   6.464
 5087POPC   D2A64768  20.623  18.286   6.764
 5087POPC   C3A64769  20.575  18.295   7.064
 5087POPC   C4A64770  20.651  18.266   7.364
 5087POPC   C1B64771  20.877  18.341   6.464
 5087POPC   C2B64772  20.895  18.342   6.764
 5087POPC   C3B64773  20.819  18.346   7.064
 5087POPC   C4B64774  20.873  18.327   7.364
 5088POPC   NC364775  37.704   8.160   5.564
 5088POPC   PO464776  37.638   8.175   5.864
 5088POPC   GL164777  37.726   8.156   6.164
 5088POPC   GL264778  37.541   8.138   6.164
 5088POPC   C1A64779  37.690   8.210   6.464
 5088POPC   D2A64780  37.650   8.198   6.764
 5088POPC   C3A64781  37.683   8.208   7.064
 5088POPC   C4A64782  37.706   8.170   7.364
 5088POPC   C1B64783  37.516   8.058   6.464
 5088POPC   C2B64784  37.488   8.014   6.764
 5088POPC   C3B64785  37.455   8.077   7.064
 5088POPC   C4B64786  37.506   8.049   7.364
 5089POPC   NC364787  16.724  40.000   5.564
 5089POPC   PO464788  16.745  40.002   5.864
 5089POPC   GL164789  16.763  40.039   6.164
 5089POPC   GL264790  16.710  39.875   6.164
 5089POPC   C1A64791  16.781  40.050   6.464
 5089POPC   D2A64792  16.697  40.033   6.764
 5089POPC   C3A64793  16.687  40.027   7.064
 5089POPC   C4A64794  16.766  40.031   7.364
 5089POPC   C1B64795  16.643  39.745   6.464
 5089POPC   C2B64796  16.660  39.736   6.764
 5089POPC   C3B64797  16.639  39.781   7.064
 5089POPC   C4B64798  16.660  39.748   7.364
 5090POPC   NC364799  27.595  40.751   5.564
 5090POPC   PO464800  27.635  40.831   5.864
 5090POPC   GL164801  27.611  40.774   6.164
 5090POPC   GL264802  27.531  40.792   6.164
 5090POPC   C1A64803  27.621  40.785   6.464
 5090POPC   D2A64804  27.581  40.791   6.764
 5090POPC   C3A64805  27.548  40.786   7.064
 5090POPC   C4A64806  27.577  40.773   7.364
 5090POPC   C1B64807  27.359  40.853   6.464
 5090POPC   C2B64808  27.326  40.886   6.764
 5090POPC   C3B64809  27.341  40.885   7.064
 5090POPC   C4B64810  27.385  40.874   7.364
 5091POPC   NC364811  22.175   8.214   5.564
 5091POPC   PO464812  22.159   8.216   5.864
 5091POPC   GL164813  22.117   8.181   6.164
 5091POPC   GL264814  22.216   8.106   6.164
 5091POPC   C1A64815  22.159   8.158   6.464
 5091POPC   D2A64816  22.131   8.225   6.764
 5091POPC   C3A64817  22.204   8.174   7.064
 5091POPC   C4A64818  22.151   8.238   7.364
 5091POPC   C1B64819  22.259   8.001   6.464
 5091POPC   C2B64820  22.166   7.913   6.764
 5091POPC   C3B64821  22.165   7.929   7.064
 5091POPC   C4B64822  22.260   7.974   7.364
 5092POPC   NC364823  42.369  37.697   5.564
 5092POPC   PO464824  42.375  37.674   5.864
 5092POPC   GL164825  42.373  37.706   6.164
 5092POPC   GL264826  42.270  37.832   6.164
 5092POPC   C1A64827  42.291  37.708   6.464
 5092POPC   D2A64828  42.360  37.681   6.764
 5092POPC   C3A64829  42.327  37.654   7.064
 5092POPC   C4A64830  42.326  37.701   7.364
 5092POPC   C1B64831  42.284  37.936   6.464
 5092POPC   C2B64832  42.307  37.926   6.764
 5092POPC   C3B64833  42.267  37.942   7.064
 5092POPC   C4B64834  42.311  37.885   7.364
 5093POPC   NC364835  21.402  35.309   5.564
 5093POPC   PO464836  21.414  35.315   5.864
 5093POPC   GL164837  21.385  35.360   6.164
 5093POPC   GL264838  21.308  35.255   6.164
 5093POPC   C1A64839  21.429  35.315   6.464
 5093POPC   D2A64840  21.363  35.388   6.764
 5093POPC   C3A64841  21.363  35.387   7.064
 5093POPC   C4A64842  21.381  35.350   7.364
 5093POPC   C1B64843  21.232  35.123   6.464
 5093POPC   C2B64844  21.209  35.170   6.764
 5093POPC   C3B64845  21.183  35.133   7.064
 5093POPC   C4B64846  21.193  35.203   7.364
 5094POPC   NC364847  29.949  39.272   5.564
 5094POPC   PO464848  29.900  39.201   5.864
 5094POPC   GL164849  29.947  39.225   6.164
 5094POPC   GL264850  29.788  39.312   6.164
 5094POPC   C1A64851  29.966  39.239   6.464
 5094POPC   D2A64852  29.919  39.242   6.764
 5094POPC   C3A64853  29.894  39.204   7.064
 5094POPC   C4A64854  29.879  39.211   7.364
 5094POPC   C1B64855  29.746  39.397   6.464
 5094POPC   C2B64856  29.740  39.319   6.764
 5094POPC   C3B64857  29.737  39.330   7.064
 5094POPC   C4B64858  29.688  39.314   7.364
 5095POPC   NC364859  35.322  44.628   5.564
 5095POPC   PO464860  35.375  44.682   5.864
 5095POPC   GL164861  35.368  44.652   6.164
 5095POPC   GL264862  35.455  44.580   6.164
 5095POPC   C1A64863  35.345  44.667   6.464
 5095POPC   D2A64864  35.317  44.639   6.764
 5095POPC   C3A64865  35.349  44.630   7.064
 5095POPC   C4A64866  35.308  44.660   7.364
 5095POPC   C1B64867  35.510  44.472   6.464
 5095POPC   C2B64868  35.450  44.420   6.764
 5095POPC   C3B64869  35.491  44.444   7.064
 5095POPC   C4B64870  35.431  44.450   7.364
 5096POPC   NC364871  20.579  21.402   5.564
 5096POPC   PO464872  20.607  21.423   5.864
 5096POPC   GL164873  20.606  21.359   6.164
 5096POPC   GL264874  20.645  21.258   6.164
 5096POPC   C1A64875  20.569  21.381   6.464
 5096POPC   D2A64876  20.613  21.392   6.764
 5096POPC   C3A64877  20.645  21.354   7.064
 5096POPC   C4A64878  20.657  21.428   7.364
 5096POPC   C1B64879  20.687  21.166   6.464
 5096POPC   C2B64880  20.700  21.169   6.764
 5096POPC   C3B64881  20.704  21.195   7.064
 5096POPC   C4B64882  20.752  21.109   7.364
 5097POPC   NC364883  42.341   8.213   5.564
 5097POPC   PO464884  42.354   8.238   5.864
 5097POPC   GL164885  42.345   8.155   6.164
 5097POPC   GL264886  42.457   8.206   6.164
 5097POPC   C1A64887  42.337   8.168   6.464
 5097POPC   D2A64888  42.336   8.214   6.764
 5097POPC   C3A64889  42.287   8.189   7.064
 5097POPC   C4A64890  42.324   8.224   7.364
 5097POPC   C1B64891  42.547   8.188   6.464
 5097POPC   C2B64892  42.617   8.165   6.764
 5097POPC   C3B64893  42.556   8.212   7.064
 5097POPC   C4B64894  42.551   8.206   7.364
 5098POPC   NC364895  18.303   4.323   5.564
 5098POPC   PO464896  18.266   4.334   5.864
 5098POPC   GL164897  18.233   4.288   6.164
 5098POPC   GL264898  18.114   4.363   6.164
 5098POPC   C1A64899  18.264   4.318   6.464
 5098POPC   D2A64900  18.249   4.331   6.764
 5098POPC   C3A64901  18.311   4.290   7.064
 5098POPC   C4A64902  18.321   4.323   7.364
 5098POPC   C1B64903  17.993   4.355   6.464
 5098POPC   C2B64904  18.064   4.322   6.764
 5098POPC   C3B64905  18.039   4.386   7.064
 5098POPC   C4B64906  18.077   4.331   7.364
 5099POPC   NC364907   8.182  21.378   5.564
 5099POPC   PO464908   8.243  21.396   5.864
 5099POPC   GL164909   8.155  21.382   6.164
 5099POPC   GL264910   8.086  21.472   6.164
 5099POPC   C1A64911   8.158  21.409   6.464
 5099POPC   D2A64912   8.185  21.418   6.764
 5099POPC   C3A64913   8.165  21.420   7.064
 5099POPC   C4A64914   8.162  21.364   7.364
 5099POPC   C1B64915   7.936  21.538   6.464
 5099POPC   C2B64916   7.974  21.492   6.764
 5099POPC   C3B64917   7.965  21.517   7.064
 5099POPC   C4B64918   7.948  21.564   7.364
 5100POPC   NC364919  40.015  22.929   5.564
 5100POPC   PO464920  40.006  22.926   5.864
 5100POPC   GL164921  40.021  22.948   6.164
 5100POPC   GL264922  39.882  23.021   6.164
 5100POPC   C1A64923  40.046  22.918   6.464
 5100POPC   D2A64924  39.980  22.947   6.764
 5100POPC   C3A64925  39.963  22.926   7.064
 5100POPC   C4A64926  39.978  22.959   7.364
 5100POPC   C1B64927  39.737  23.076   6.464
 5100POPC   C2B64928  39.766  23.069   6.764
 5100POPC   C3B64929  39.751  23.071   7.064
 5100POPC   C4B64930  39.828  23.028   7.364
 5101POPC   NC364931  40.810  18.275   5.564
 5101POPC   PO464932  40.821  18.316   5.864
 5101POPC   GL164933  40.785  18.276   6.164
 5101POPC   GL264934  40.730  18.398   6.164
 5101POPC   C1A64935  40.767  18.303   6.464
 5101POPC   D2A64936  40.739  18.300   6.764
 5101POPC   C3A64937  40.782  18.312   7.064
 5101POPC   C4A64938  40.810  18.277   7.364
 5101POPC   C1B64939  40.617  18.515   6.464
 5101POPC   C2B64940  40.590  18.518   6.764
 5101POPC   C3B64941  40.612  18.505   7.064
 5101POPC   C4B64942  40.613  18.532   7.364
 5102POPC   NC364943  43.077   5.911   5.564
 5102POPC   PO464944  43.082   5.838   5.864
 5102POPC   GL164945  43.087   5.879   6.164
 5102POPC   GL264946  43.061   5.998   6.164
 5102POPC   C1A64947  43.092   5.886   6.464
 5102POPC   D2A64948  43.146   5.872   6.764
 5102POPC   C3A64949  43.074   5.901   7.064
 5102POPC   C4A64950  43.134   5.870   7.364
 5102POPC   C1B64951  42.982   6.040   6.464
 5102POPC   C2B64952  42.931   6.063   6.764
 5102POPC   C3B64953  42.949   6.024   7.064
 5102POPC   C4B64954  42.911   6.009   7.364
 5103POPC   NC364955   5.109   5.903   5.564
 5103POPC   PO464956   5.066   5.841   5.864
 5103POPC   GL164957   5.083   5.878   6.164
 5103POPC   GL264958   5.172   5.806   6.164
 5103POPC   C1A64959   5.080   5.911   6.464
 5103POPC   D2A64960   5.135   5.913   6.764
 5103POPC   C3A64961   5.076   5.848   7.064
 5103POPC   C4A64962   5.125   5.893   7.364
 5103POPC   C1B64963   5.313   5.868   6.464
 5103POPC   C2B64964   5.328   5.811   6.764
 5103POPC   C3B64965   5.356   5.826   7.064
 5103POPC   C4B64966   5.368   5.811   7.364
 5104POPC   NC364967  36.928  29.179   5.564
 5104POPC   PO464968  36.857  29.133   5.864
 5104POPC   GL164969  36.919  29.128   6.164
 5104POPC   GL264970  36.904  29.277   6.164
 5104POPC   C1A64971  36.861  29.159   6.464
 5104POPC   D2A64972  36.888  29.167   6.764
 5104POPC   C3A64973  36.902  29.125   7.064
 5104POPC   C4A64974  36.881  29.172   7.364
 5104POPC   C1B64975  36.856  29.365   6.464
 5104POPC   C2B64976  36.858  29.355   6.764
 5104POPC   C3B64977  36.807  29.386   7.064
 5104POPC   C4B64978  36.836  29.391   7.364
 5105POPC   NC364979  29.118   1.251   5.564
 5105POPC   PO464980  29.148   1.176   5.864
 5105POPC   GL164981  29.155   1.250   6.164
 5105POPC   GL264982  29.180   1.317   6.164
 5105POPC   C1A64983  29.194   1.259   6.464
 5105POPC   D2A64984  29.192   1.182   6.764
 5105POPC   C3A64985  29.133   1.258   7.064
 5105POPC   C4A64986  29.144   1.175   7.364
 5105POPC   C1B64987  29.254   1.463   6.464
 5105POPC   C2B64988  29.290   1.436   6.764
 5105POPC   C3B64989  29.254   1.423   7.064
 5105POPC   C4B64990  29.300   1.401   7.364
 5106POPC   NC364991  33.054  15.192   5.564
 5106POPC   PO464992  32.976  15.214   5.864
 5106POPC   GL164993  33.057  15.203   6.164
 5106POPC   GL264994  32.993  15.058   6.164
 5106POPC   C1A64995  32.999  15.169   6.464
 5106POPC   D2A64996  33.027  15.180   6.764
 5106POPC   C3A64997  32.980  15.188   7.064
 5106POPC   C4A64998  33.040  15.137   7.364
 5106POPC   C1B64999  33.019  14.971   6.464
 5106POPC   C2B65000  33.056  14.894   6.764
 5106POPC   C3B65001  33.013  14.901   7.064
 5106POPC   C4B65002  32.970  14.979   7.364
 5107POPC   NC365003  38.464  13.677   5.564
 5107POPC   PO465004  38.431  13.647   5.864
 5107POPC   GL165005  38.442  13.585   6.164
 5107POPC   GL265006  38.501  13.764   6.164
 5107POPC   C1A65007  38.462  13.654   6.464
 5107POPC   D2A65008  38.463  13.645   6.764
 5107POPC   C3A65009  38.474  13.602   7.064
 5107POPC   C4A65010  38.474  13.677   7.364
 5107POPC   C1B65011  38.518  13.859   6.464
 5107POPC   C2B65012  38.512  13.839   6.764
 5107POPC   C3B65013  38.551  13.913   7.064
 5107POPC   C4B65014  38.482  13.862   7.364
 5108POPC   NC365015  17.529  35.396   5.564
 5108POPC   PO465016  17.463  35.356   5.864
 5108POPC   GL165017  17.538  35.383   6.164
 5108POPC   GL265018  17.414  35.228   6.164
 5108POPC   C1A65019  17.480  35.395   6.464
 5108POPC   D2A65020  17.516  35.328   6.764
 5108POPC   C3A65021  17.462  35.335   7.064
 5108POPC   C4A65022  17.507  35.388   7.364
 5108POPC   C1B65023  17.427  35.099   6.464
 5108POPC   C2B65024  17.408  35.165   6.764
 5108POPC   C3B65025  17.382  35.120   7.064
 5108POPC   C4B65026  17.456  35.162   7.364
 5109POPC   NC365027   8.940  23.720   5.564
 5109POPC   PO465028   8.979  23.707   5.864
 5109POPC   GL165029   8.986  23.756   6.164
 5109POPC   GL265030   8.837  23.673   6.164
 5109POPC   C1A65031   8.923  23.759   6.464
 5109POPC   D2A65032   8.928  23.674   6.764
 5109POPC   C3A65033   8.990  23.695   7.064
 5109POPC   C4A65034   8.974  23.728   7.364
 5109POPC   C1B65035   8.837  23.543   6.464
 5109POPC   C2B65036   8.829  23.576   6.764
 5109POPC   C3B65037   8.818  23.563   7.064
 5109POPC   C4B65038   8.814  23.541   7.364
 5110POPC   NC365039  32.996   5.833   5.564
 5110POPC   PO465040  33.062   5.819   5.864
 5110POPC   GL165041  33.032   5.857   6.164
 5110POPC   GL265042  32.894   5.906   6.164
 5110POPC   C1A65043  33.073   5.834   6.464
 5110POPC   D2A65044  32.989   5.902   6.764
 5110POPC   C3A65045  33.041   5.837   7.064
 5110POPC   C4A65046  32.990   5.847   7.364
 5110POPC   C1B65047  32.771   6.010   6.464
 5110POPC   C2B65048  32.806   6.009   6.764
 5110POPC   C3B65049  32.824   5.983   7.064
 5110POPC   C4B65050  32.795   6.011   7.364
 5111POPC   NC365051  17.463  20.602   5.564
 5111POPC   PO465052  17.475  20.585   5.864
 5111POPC   GL165053  17.554  20.595   6.164
 5111POPC   GL265054  17.492  20.737   6.164
 5111POPC   C1A65055  17.491  20.597   6.464
 5111POPC   D2A65056  17.557  20.637   6.764
 5111POPC   C3A65057  17.476  20.584   7.064
 5111POPC   C4A65058  17.554  20.594   7.364
 5111POPC   C1B65059  17.510  20.870   6.464
 5111POPC   C2B65060  17.546  20.834   6.764
 5111POPC   C3B65061  17.508  20.820   7.064
 5111POPC   C4B65062  17.542  20.814   7.364
 5112POPC   NC365063  11.317  15.132   5.564
 5112POPC   PO465064  11.278  15.156   5.864
 5112POPC   GL165065  11.303  15.139   6.164
 5112POPC   GL265066  11.208  15.250   6.164
 5112POPC   C1A65067  11.268  15.138   6.464
 5112POPC   D2A65068  11.349  15.131   6.764
 5112POPC   C3A65069  11.299  15.212   7.064
 5112POPC   C4A65070  11.274  15.221   7.364
 5112POPC   C1B65071  11.066  15.334   6.464
 5112POPC   C2B65072  11.103  15.289   6.764
 5112POPC   C3B65073  11.093  15.242   7.064
 5112POPC   C4B65074  11.082  15.288   7.364
 5113POPC   NC365075  43.930  37.729   5.564
 5113POPC   PO465076  43.875  37.686   5.864
 5113POPC   GL165077  43.894  37.725   6.164
 5113POPC   GL265078  43.987  37.675   6.164
 5113POPC   C1A65079  43.932  37.726   6.464
 5113POPC   D2A65080  43.875  37.665   6.764
 5113POPC   C3A65081  43.917  37.729   7.064
 5113POPC   C4A65082  43.879  37.714   7.364
 5113POPC   C1B65083  44.071  37.580   6.464
 5113POPC   C2B65084  44.069  37.585   6.764
 5113POPC   C3B65085  44.168  37.565   7.064
 5113POPC   C4B65086  44.089  37.546   7.364
 5114POPC   NC365087  39.187  32.275   5.564
 5114POPC   PO465088  39.214  32.211   5.864
 5114POPC   GL165089  39.225  32.270   6.164
 5114POPC   GL265090  39.198  32.379   6.164
 5114POPC   C1A65091  39.204  32.214   6.464
 5114POPC   D2A65092  39.244  32.277   6.764
 5114POPC   C3A65093  39.218  32.290   7.064
 5114POPC   C4A65094  39.230  32.256   7.364
 5114POPC   C1B65095  39.164  32.504   6.464
 5114POPC   C2B65096  39.191  32.545   6.764
 5114POPC   C3B65097  39.228  32.541   7.064
 5114POPC   C4B65098  39.183  32.502   7.364
 5115POPC   NC365099   5.890  15.939   5.564
 5115POPC   PO465100   5.844  15.969   5.864
 5115POPC   GL165101   5.849  15.940   6.164
 5115POPC   GL265102   5.998  15.895   6.164
 5115POPC   C1A65103   5.874  15.990   6.464
 5115POPC   D2A65104   5.870  16.003   6.764
 5115POPC   C3A65105   5.895  15.954   7.064
 5115POPC   C4A65106   5.911  15.920   7.364
 5115POPC   C1B65107   6.106  15.889   6.464
 5115POPC   C2B65108   6.122  15.849   6.764
 5115POPC   C3B65109   6.107  15.860   7.064
 5115POPC   C4B65110   6.137  15.878   7.364
 5116POPC   NC365111  33.042  35.314   5.564
 5116POPC   PO465112  33.023  35.355   5.864
 5116POPC   GL165113  33.057  35.381   6.164
 5116POPC   GL265114  32.946  35.402   6.164
 5116POPC   C1A65115  33.028  35.334   6.464
 5116POPC   D2A65116  33.054  35.356   6.764
 5116POPC   C3A65117  33.059  35.367   7.064
 5116POPC   C4A65118  33.029  35.336   7.364
 5116POPC   C1B65119  32.816  35.370   6.464
 5116POPC   C2B65120  32.775  35.380   6.764
 5116POPC   C3B65121  32.818  35.397   7.064
 5116POPC   C4B65122  32.761  35.376   7.364
 5117POPC   NC365123  11.274  22.163   5.564
 5117POPC   PO465124  11.267  22.147   5.864
 5117POPC   GL165125  11.265  22.211   6.164
 5117POPC   GL265126  11.276  22.241   6.164
 5117POPC   C1A65127  11.296  22.140   6.464
 5117POPC   D2A65128  11.280  22.143   6.764
 5117POPC   C3A65129  11.302  22.167   7.064
 5117POPC   C4A65130  11.279  22.187   7.364
 5117POPC   C1B65131  11.274  22.447   6.464
 5117POPC   C2B65132  11.204  22.412   6.764
 5117POPC   C3B65133  11.270  22.361   7.064
 5117POPC   C4B65134  11.266  22.364   7.364
 5118POPC   NC365135  15.188  18.283   5.564
 5118POPC   PO465136  15.157  18.310   5.864
 5118POPC   GL165137  15.201  18.320   6.164
 5118POPC   GL265138  15.043  18.292   6.164
 5118POPC   C1A65139  15.177  18.236   6.464
 5118POPC   D2A65140  15.166  18.239   6.764
 5118POPC   C3A65141  15.226  18.245   7.064
 5118POPC   C4A65142  15.192  18.237   7.364
 5118POPC   C1B65143  14.971  18.169   6.464
 5118POPC   C2B65144  14.984  18.221   6.764
 5118POPC   C3B65145  14.966  18.210   7.064
 5118POPC   C4B65146  14.984  18.241   7.364
 5119POPC   NC365147   5.852  26.057   5.564
 5119POPC   PO465148   5.827  26.082   5.864
 5119POPC   GL165149   5.844  26.074   6.164
 5119POPC   GL265150   5.967  26.054   6.164
 5119POPC   C1A65151   5.830  26.065   6.464
 5119POPC   D2A65152   5.835  26.031   6.764
 5119POPC   C3A65153   5.891  26.089   7.064
 5119POPC   C4A65154   5.833  26.067   7.364
 5119POPC   C1B65155   6.112  26.007   6.464
 5119POPC   C2B65156   6.101  26.009   6.764
 5119POPC   C3B65157   6.130  25.983   7.064
 5119POPC   C4B65158   6.086  25.988   7.364
 5120POPC   NC365159  22.165   7.371   5.564
 5120POPC   PO465160  22.197   7.400   5.864
 5120POPC   GL165161  22.181   7.417   6.164
 5120POPC   GL265162  22.046   7.310   6.164
 5120POPC   C1A65163  22.135   7.468   6.464
 5120POPC   D2A65164  22.157   7.453   6.764
 5120POPC   C3A65165  22.203   7.420   7.064
 5120POPC   C4A65166  22.176   7.426   7.364
 5120POPC   C1B65167  21.943   7.296   6.464
 5120POPC   C2B65168  22.008   7.258   6.764
 5120POPC   C3B65169  21.940   7.242   7.064
 5120POPC   C4B65170  21.990   7.234   7.364
 5121POPC   NC365171  20.647  19.085   5.564
 5121POPC   PO465172  20.572  19.095   5.864
 5121POPC   GL165173  20.643  19.053   6.164
 5121POPC   GL265174  20.635  19.182   6.164
 5121POPC   C1A65175  20.575  19.096   6.464
 5121POPC   D2A65176  20.617  19.051   6.764
 5121POPC   C3A65177  20.588  19.027   7.064
 5121POPC   C4A65178  20.650  19.043   7.364
 5121POPC   C1B65179  20.563  19.291   6.464
 5121POPC   C2B65180  20.560  19.316   6.764
 5121POPC   C3B65181  20.553  19.303   7.064
 5121POPC   C4B65182  20.587  19.342   7.364
 5122POPC   NC365183  20.657   2.815   5.564
 5122POPC   PO465184  20.615   2.810   5.864
 5122POPC   GL165185  20.657   2.793   6.164
 5122POPC   GL265186  20.580   2.836   6.164
 5122POPC   C1A65187  20.625   2.813   6.464
 5122POPC   D2A65188  20.592   2.733   6.764
 5122POPC   C3A65189  20.578   2.773   7.064
 5122POPC   C4A65190  20.592   2.790   7.364
 5122POPC   C1B65191  20.450   2.962   6.464
 5122POPC   C2B65192  20.448   2.936   6.764
 5122POPC   C3B65193  20.479   3.027   7.064
 5122POPC   C4B65194  20.497   3.030   7.364
 5123POPC   NC365195  34.599  19.024   5.564
 5123POPC   PO465196  34.605  19.036   5.864
 5123POPC   GL165197  34.566  19.084   6.164
 5123POPC   GL265198  34.450  19.137   6.164
 5123POPC   C1A65199  34.547  19.085   6.464
 5123POPC   D2A65200  34.611  19.054   6.764
 5123POPC   C3A65201  34.614  19.035   7.064
 5123POPC   C4A65202  34.541  19.087   7.364
 5123POPC   C1B65203  34.411  19.196   6.464
 5123POPC   C2B65204  34.410  19.252   6.764
 5123POPC   C3B65205  34.434  19.254   7.064
 5123POPC   C4B65206  34.361  19.265   7.364
 5124POPC   NC365207  32.242   9.747   5.564
 5124POPC   PO465208  32.218   9.772   5.864
 5124POPC   GL165209  32.294   9.782   6.164
 5124POPC   GL265210  32.229   9.588   6.164
 5124POPC   C1A65211  32.252   9.729   6.464
 5124POPC   D2A65212  32.275   9.756   6.764
 5124POPC   C3A65213  32.271   9.795   7.064
 5124POPC   C4A65214  32.221   9.723   7.364
 5124POPC   C1B65215  32.196   9.503   6.464
 5124POPC   C2B65216  32.116   9.487   6.764
 5124POPC   C3B65217  32.113   9.555   7.064
 5124POPC   C4B65218  32.139   9.483   7.364
 5125POPC   NC365219   8.947  29.130   5.564
 5125POPC   PO465220   8.993  29.102   5.864
 5125POPC   GL165221   8.936  29.193   6.164
 5125POPC   GL265222   8.862  29.238   6.164
 5125POPC   C1A65223   9.006  29.176   6.464
 5125POPC   D2A65224   8.978  29.148   6.764
 5125POPC   C3A65225   9.018  29.100   7.064
 5125POPC   C4A65226   8.983  29.150   7.364
 5125POPC   C1B65227   8.806  29.325   6.464
 5125POPC   C2B65228   8.809  29.398   6.764
 5125POPC   C3B65229   8.788  29.343   7.064
 5125POPC   C4B65230   8.854  29.311   7.364
 5126POPC   NC365231  35.318  38.494   5.564
 5126POPC   PO465232  35.331  38.471   5.864
 5126POPC   GL165233  35.375  38.486   6.164
 5126POPC   GL265234  35.265  38.402   6.164
 5126POPC   C1A65235  35.320  38.480   6.464
 5126POPC   D2A65236  35.398  38.422   6.764
 5126POPC   C3A65237  35.333  38.504   7.064
 5126POPC   C4A65238  35.358  38.468   7.364
 5126POPC   C1B65239  35.221  38.252   6.464
 5126POPC   C2B65240  35.154  38.215   6.764
 5126POPC   C3B65241  35.169  38.273   7.064
 5126POPC   C4B65242  35.182  38.277   7.364
 5127POPC   NC365243  26.007  40.025   5.564
 5127POPC   PO465244  26.076  40.022   5.864
 5127POPC   GL165245  26.047  39.972   6.164
 5127POPC   GL265246  25.894  39.946   6.164
 5127POPC   C1A65247  26.089  40.006   6.464
 5127POPC   D2A65248  26.064  39.960   6.764
 5127POPC   C3A65249  26.016  40.040   7.064
 5127POPC   C4A65250  26.028  40.007   7.364
 5127POPC   C1B65251  25.782  39.978   6.464
 5127POPC   C2B65252  25.848  39.896   6.764
 5127POPC   C3B65253  25.757  39.910   7.064
 5127POPC   C4B65254  25.810  39.918   7.364
 5128POPC   NC365255  14.412  43.132   5.564
 5128POPC   PO465256  14.401  43.118   5.864
 5128POPC   GL165257  14.385  43.078   6.164
 5128POPC   GL265258  14.313  43.043   6.164
 5128POPC   C1A65259  14.434  43.062   6.464
 5128POPC   D2A65260  14.412  43.152   6.764
 5128POPC   C3A65261  14.443  43.124   7.064
 5128POPC   C4A65262  14.372  43.085   7.364
 5128POPC   C1B65263  14.176  43.036   6.464
 5128POPC   C2B65264  14.114  43.086   6.764
 5128POPC   C3B65265  14.113  43.062   7.064
 5128POPC   C4B65266  14.135  43.049   7.364
 5129POPC   NC365267  32.283  30.736   5.564
 5129POPC   PO465268  32.203  30.678   5.864
 5129POPC   GL165269  32.288  30.649   6.164
 5129POPC   GL265270  32.109  30.701   6.164
 5129POPC   C1A65271  32.247  30.668   6.464
 5129POPC   D2A65272  32.213  30.677   6.764
 5129POPC   C3A65273  32.253  30.691   7.064
 5129POPC   C4A65274  32.218  30.692   7.364
 5129POPC   C1B65275  32.034  30.719   6.464
 5129POPC   C2B65276  31.976  30.798   6.764
 5129POPC   C3B65277  32.023  30.719   7.064
 5129POPC   C4B65278  32.052  30.786   7.364
 5130POPC   NC365279  30.707   8.933   5.564
 5130POPC   PO465280  30.674   8.983   5.864
 5130POPC   GL165281  30.690   8.934   6.164
 5130POPC   GL265282  30.687   8.807   6.164
 5130POPC   C1A65283  30.743   8.957   6.464
 5130POPC   D2A65284  30.689   8.941   6.764
 5130POPC   C3A65285  30.729   8.986   7.064
 5130POPC   C4A65286  30.679   9.017   7.364
 5130POPC   C1B65287  30.679   8.693   6.464
 5130POPC   C2B65288  30.706   8.754   6.764
 5130POPC   C3B65289  30.690   8.749   7.064
 5130POPC   C4B65290  30.764   8.691   7.364
 5131POPC   NC365291  15.193  19.067   5.564
 5131POPC   PO465292  15.158  19.020   5.864
 5131POPC   GL165293  15.205  19.058   6.164
 5131POPC   GL265294  15.123  18.953   6.164
 5131POPC   C1A65295  15.187  19.081   6.464
 5131POPC   D2A65296  15.188  19.014   6.764
 5131POPC   C3A65297  15.206  19.016   7.064
 5131POPC   C4A65298  15.204  19.065   7.364
 5131POPC   C1B65299  15.107  18.776   6.464
 5131POPC   C2B65300  15.159  18.830   6.764
 5131POPC   C3B65301  15.107  18.850   7.064
 5131POPC   C4B65302  15.145  18.822   7.364
 5132POPC   NC365303  24.490   4.335   5.564
 5132POPC   PO465304  24.511   4.365   5.864
 5132POPC   GL165305  24.463   4.295   6.164
 5132POPC   GL265306  24.504   4.191   6.164
 5132POPC   C1A65307  24.535   4.324   6.464
 5132POPC   D2A65308  24.524   4.310   6.764
 5132POPC   C3A65309  24.488   4.303   7.064
 5132POPC   C4A65310  24.465   4.277   7.364
 5132POPC   C1B65311  24.434   4.110   6.464
 5132POPC   C2B65312  24.438   4.021   6.764
 5132POPC   C3B65313  24.480   4.061   7.064
 5132POPC   C4B65314  24.491   4.055   7.364
 5133POPC   NC365315   6.662  30.734   5.564
 5133POPC   PO465316   6.599  30.665   5.864
 5133POPC   GL165317   6.607  30.720   6.164
 5133POPC   GL265318   6.764  30.733   6.164
 5133POPC   C1A65319   6.640  30.690   6.464
 5133POPC   D2A65320   6.596  30.746   6.764
 5133POPC   C3A65321   6.597  30.653   7.064
 5133POPC   C4A65322   6.681  30.704   7.364
 5133POPC   C1B65323   6.875  30.674   6.464
 5133POPC   C2B65324   6.877  30.674   6.764
 5133POPC   C3B65325   6.905  30.755   7.064
 5133POPC   C4B65326   6.884  30.743   7.364
 5134POPC   NC365327  23.697  36.128   5.564
 5134POPC   PO465328  23.707  36.146   5.864
 5134POPC   GL165329  23.669  36.108   6.164
 5134POPC   GL265330  23.637  36.073   6.164
 5134POPC   C1A65331  23.749  36.173   6.464
 5134POPC   D2A65332  23.664  36.162   6.764
 5134POPC   C3A65333  23.717  36.104   7.064
 5134POPC   C4A65334  23.665  36.164   7.364
 5134POPC   C1B65335  23.479  36.069   6.464
 5134POPC   C2B65336  23.453  36.039   6.764
 5134POPC   C3B65337  23.435  36.119   7.064
 5134POPC   C4B65338  23.492  36.112   7.364
 5135POPC   NC365339  26.845   9.793   5.564
 5135POPC   PO465340  26.789   9.740   5.864
 5135POPC   GL165341  26.774   9.769   6.164
 5135POPC   GL265342  26.950   9.827   6.164
 5135POPC   C1A65343  26.839   9.755   6.464
 5135POPC   D2A65344  26.791   9.792   6.764
 5135POPC   C3A65345  26.784   9.756   7.064
 5135POPC   C4A65346  26.860   9.741   7.364
 5135POPC   C1B65347  27.006   9.837   6.464
 5135POPC   C2B65348  26.987   9.847   6.764
 5135POPC   C3B65349  27.017   9.845   7.064
 5135POPC   C4B65350  27.018   9.925   7.364
 5136POPC   NC365351  27.565  23.676   5.564
 5136POPC   PO465352  27.550  23.691   5.864
 5136POPC   GL165353  27.558  23.724   6.164
 5136POPC   GL265354  27.529  23.552   6.164
 5136POPC   C1A65355  27.570  23.713   6.464
 5136POPC   D2A65356  27.640  23.753   6.764
 5136POPC   C3A65357  27.563  23.721   7.064
 5136POPC   C4A65358  27.574  23.760   7.364
 5136POPC   C1B65359  27.523  23.433   6.464
 5136POPC   C2B65360  27.492  23.451   6.764
 5136POPC   C3B65361  27.513  23.469   7.064
 5136POPC   C4B65362  27.511  23.490   7.364
 5137POPC   NC365363   5.885  28.320   5.564
 5137POPC   PO465364   5.841  28.395   5.864
 5137POPC   GL165365   5.882  28.368   6.164
 5137POPC   GL265366   5.850  28.456   6.164
 5137POPC   C1A65367   5.863  28.390   6.464
 5137POPC   D2A65368   5.841  28.387   6.764
 5137POPC   C3A65369   5.837  28.348   7.064
 5137POPC   C4A65370   5.833  28.347   7.364
 5137POPC   C1B65371   5.968  28.645   6.464
 5137POPC   C2B65372   5.962  28.576   6.764
 5137POPC   C3B65373   5.914  28.615   7.064
 5137POPC   C4B65374   5.921  28.605   7.364
 5138POPC   NC365375  30.710  28.324   5.564
 5138POPC   PO465376  30.701  28.352   5.864
 5138POPC   GL165377  30.660  28.342   6.164
 5138POPC   GL265378  30.730  28.277   6.164
 5138POPC   C1A65379  30.649  28.338   6.464
 5138POPC   D2A65380  30.652  28.385   6.764
 5138POPC   C3A65381  30.701  28.340   7.064
 5138POPC   C4A65382  30.700  28.377   7.364
 5138POPC   C1B65383  30.825  28.167   6.464
 5138POPC   C2B65384  30.776  28.150   6.764
 5138POPC   C3B65385  30.802  28.162   7.064
 5138POPC   C4B65386  30.849  28.135   7.364
 5139POPC   NC365387   8.241   0.398   5.564
 5139POPC   PO465388   8.186   0.453   5.864
 5139POPC   GL165389   8.191   0.392   6.164
 5139POPC   GL265390   8.240   0.313   6.164
 5139POPC   C1A65391   8.155   0.458   6.464
 5139POPC   D2A65392   8.221   0.396   6.764
 5139POPC   C3A65393   8.221   0.482   7.064
 5139POPC   C4A65394   8.154   0.400   7.364
 5139POPC   C1B65395   8.332   0.227   6.464
 5139POPC   C2B65396   8.317   0.208   6.764
 5139POPC   C3B65397   8.325   0.217   7.064
 5139POPC   C4B65398   8.307   0.239   7.364
 5140POPC   NC365399   9.748   4.301   5.564
 5140POPC   PO465400   9.705   4.308   5.864
 5140POPC   GL165401   9.703   4.328   6.164
 5140POPC   GL265402   9.770   4.451   6.164
 5140POPC   C1A65403   9.766   4.329   6.464
 5140POPC   D2A65404   9.700   4.348   6.764
 5140POPC   C3A65405   9.754   4.298   7.064
 5140POPC   C4A65406   9.700   4.289   7.364
 5140POPC   C1B65407   9.851   4.576   6.464
 5140POPC   C2B65408   9.909   4.496   6.764
 5140POPC   C3B65409   9.905   4.518   7.064
 5140POPC   C4B65410   9.886   4.495   7.364
 5141POPC   NC365411  44.694  29.935   5.564
 5141POPC   PO465412  44.614  29.949   5.864
 5141POPC   GL165413  44.710  29.938   6.164
 5141POPC   GL265414  44.589  29.886   6.164
 5141POPC   C1A65415  44.683  29.924   6.464
 5141POPC   D2A65416  44.684  29.944   6.764
 5141POPC   C3A65417  44.634  29.950   7.064
 5141POPC   C4A65418  44.648  29.883   7.364
 5141POPC   C1B65419  44.439  29.773   6.464
 5141POPC   C2B65420  44.452  29.744   6.764
 5141POPC   C3B65421  44.478  29.786   7.064
 5141POPC   C4B65422  44.478  29.755   7.364
 5142POPC   NC365423  43.143  29.181   5.564
 5142POPC   PO465424  43.094  29.147   5.864
 5142POPC   GL165425  43.088  29.158   6.164
 5142POPC   GL265426  42.964  29.170   6.164
 5142POPC   C1A65427  43.132  29.149   6.464
 5142POPC   D2A65428  43.138  29.192   6.764
 5142POPC   C3A65429  43.077  29.131   7.064
 5142POPC   C4A65430  43.132  29.139   7.364
 5142POPC   C1B65431  42.880  29.147   6.464
 5142POPC   C2B65432  42.863  29.120   6.764
 5142POPC   C3B65433  42.913  29.096   7.064
 5142POPC   C4B65434  42.856  29.079   7.364
 5143POPC   NC365435  33.762  29.906   5.564
 5143POPC   PO465436  33.793  29.963   5.864
 5143POPC   GL165437  33.841  29.890   6.164
 5143POPC   GL265438  33.856  29.843   6.164
 5143POPC   C1A65439  33.778  29.898   6.464
 5143POPC   D2A65440  33.828  29.874   6.764
 5143POPC   C3A65441  33.816  29.898   7.064
 5143POPC   C4A65442  33.765  29.956   7.364
 5143POPC   C1B65443  33.785  29.688   6.464
 5143POPC   C2B65444  33.795  29.713   6.764
 5143POPC   C3B65445  33.805  29.643   7.064
 5143POPC   C4B65446  33.810  29.665   7.364
 5144POPC   NC365447  11.312  28.400   5.564
 5144POPC   PO465448  11.327  28.392   5.864
 5144POPC   GL165449  11.297  28.408   6.164
 5144POPC   GL265450  11.160  28.362   6.164
 5144POPC   C1A65451  11.262  28.319   6.464
 5144POPC   D2A65452  11.342  28.322   6.764
 5144POPC   C3A65453  11.281  28.332   7.064
 5144POPC   C4A65454  11.345  28.411   7.364
 5144POPC   C1B65455  11.095  28.399   6.464
 5144POPC   C2B65456  11.063  28.420   6.764
 5144POPC   C3B65457  11.065  28.400   7.064
 5144POPC   C4B65458  11.096  28.462   7.364
 5145POPC   NC365459  26.786   3.553   5.564
 5145POPC   PO465460  26.792   3.557   5.864
 5145POPC   GL165461  26.823   3.528   6.164
 5145POPC   GL265462  26.904   3.444   6.164
 5145POPC   C1A65463  26.839   3.579   6.464
 5145POPC   D2A65464  26.845   3.562   6.764
 5145POPC   C3A65465  26.780   3.547   7.064
 5145POPC   C4A65466  26.846   3.493   7.364
 5145POPC   C1B65467  27.017   3.421   6.464
 5145POPC   C2B65468  27.000   3.439   6.764
 5145POPC   C3B65469  27.050   3.427   7.064
 5145POPC   C4B65470  26.998   3.355   7.364
 5146POPC   NC365471  38.439  14.440   5.564
 5146POPC   PO465472  38.430  14.445   5.864
 5146POPC   GL165473  38.504  14.434   6.164
 5146POPC   GL265474  38.449  14.283   6.164
 5146POPC   C1A65475  38.447  14.413   6.464
 5146POPC   D2A65476  38.434  14.365   6.764
 5146POPC   C3A65477  38.459  14.416   7.064
 5146POPC   C4A65478  38.448  14.427   7.364
 5146POPC   C1B65479  38.429  14.191   6.464
 5146POPC   C2B65480  38.402  14.109   6.764
 5146POPC   C3B65481  38.405  14.106   7.064
 5146POPC   C4B65482  38.440  14.167   7.364
 5147POPC   NC365483  13.649  43.898   5.564
 5147POPC   PO465484  13.635  43.882   5.864
 5147POPC   GL165485  13.590  43.848   6.164
 5147POPC   GL265486  13.762  43.939   6.164
 5147POPC   C1A65487  13.616  43.848   6.464
 5147POPC   D2A65488  13.654  43.850   6.764
 5147POPC   C3A65489  13.602  43.888   7.064
 5147POPC   C4A65490  13.663  43.847   7.364
 5147POPC   C1B65491  13.825  43.988   6.464
 5147POPC   C2B65492  13.877  43.931   6.764
 5147POPC   C3B65493  13.875  43.975   7.064
 5147POPC   C4B65494  13.879  43.941   7.364
 5148POPC   NC365495  29.940  33.814   5.564
 5148POPC   PO465496  29.925  33.839   5.864
 5148POPC   GL165497  29.906  33.799   6.164
 5148POPC   GL265498  29.751  33.804   6.164
 5148POPC   C1A65499  29.886  33.814   6.464
 5148POPC   D2A65500  29.873  33.798   6.764
 5148POPC   C3A65501  29.914  33.776   7.064
 5148POPC   C4A65502  29.886  33.785   7.364
 5148POPC   C1B65503  29.719  33.805   6.464
 5148POPC   C2B65504  29.706  33.847   6.764
 5148POPC   C3B65505  29.629  33.818   7.064
 5148POPC   C4B65506  29.627  33.859   7.364
 5149POPC   NC365507  44.706   7.427   5.564
 5149POPC   PO465508  44.671   7.419   5.864
 5149POPC   GL165509  44.675   7.377   6.164
 5149POPC   GL265510  44.682   7.518   6.164
 5149POPC   C1A65511  44.628   7.394   6.464
 5149POPC   D2A65512  44.642   7.425   6.764
 5149POPC   C3A65513  44.650   7.377   7.064
 5149POPC   C4A65514  44.705   7.415   7.364
 5149POPC   C1B65515  44.759   7.596   6.464
 5149POPC   C2B65516  44.829   7.683   6.764
 5149POPC   C3B65517  44.813   7.665   7.064
 5149POPC   C4B65518  44.746   7.617   7.364
 5150POPC   NC365519   9.745  21.395   5.564
 5150POPC   PO465520   9.760  21.426   5.864
 5150POPC   GL165521   9.754  21.398   6.164
 5150POPC   GL265522   9.630  21.445   6.164
 5150POPC   C1A65523   9.706  21.339   6.464
 5150POPC   D2A65524   9.776  21.388   6.764
 5150POPC   C3A65525   9.792  21.432   7.064
 5150POPC   C4A65526   9.774  21.358   7.364
 5150POPC   C1B65527   9.503  21.531   6.464
 5150POPC   C2B65528   9.586  21.508   6.764
 5150POPC   C3B65529   9.586  21.565   7.064
 5150POPC   C4B65530   9.582  21.492   7.364
 5151POPC   NC365531  40.054  32.249   5.564
 5151POPC   PO465532  39.960  32.221   5.864
 5151POPC   GL165533  39.964  32.293   6.164
 5151POPC   GL265534  40.111  32.321   6.164
 5151POPC   C1A65535  39.964  32.221   6.464
 5151POPC   D2A65536  39.981  32.272   6.764
 5151POPC   C3A65537  39.984  32.245   7.064
 5151POPC   C4A65538  40.029  32.234   7.364
 5151POPC   C1B65539  40.109  32.513   6.464
 5151POPC   C2B65540  40.078  32.508   6.764
 5151POPC   C3B65541  40.140  32.511   7.064
 5151POPC   C4B65542  40.146  32.443   7.364
 5152POPC   NC365543   4.312   7.426   5.564
 5152POPC   PO465544   4.351   7.416   5.864
 5152POPC   GL165545   4.306   7.444   6.164
 5152POPC   GL265546   4.432   7.544   6.164
 5152POPC   C1A65547   4.276   7.412   6.464
 5152POPC   D2A65548   4.367   7.386   6.764
 5152POPC   C3A65549   4.333   7.457   7.064
 5152POPC   C4A65550   4.289   7.390   7.364
 5152POPC   C1B65551   4.470   7.611   6.464
 5152POPC   C2B65552   4.425   7.607   6.764
 5152POPC   C3B65553   4.500   7.648   7.064
 5152POPC   C4B65554   4.417   7.667   7.364
 5153POPC   NC365555   5.912  42.309   5.564
 5153POPC   PO465556   5.852  42.365   5.864
 5153POPC   GL165557   5.867  42.317   6.164
 5153POPC   GL265558   5.753  42.327   6.164
 5153POPC   C1A65559   5.918  42.298   6.464
 5153POPC   D2A65560   5.857  42.324   6.764
 5153POPC   C3A65561   5.872  42.382   7.064
 5153POPC   C4A65562   5.915  42.346   7.364
 5153POPC   C1B65563   5.629  42.298   6.464
 5153POPC   C2B65564   5.573  42.321   6.764
 5153POPC   C3B65565   5.640  42.357   7.064
 5153POPC   C4B65566   5.639  42.282   7.364
 5154POPC   NC365567  22.888  19.813   5.564
 5154POPC   PO465568  22.908  19.805   5.864
 5154POPC   GL165569  22.967  19.857   6.164
 5154POPC   GL265570  22.838  19.827   6.164
 5154POPC   C1A65571  22.907  19.849   6.464
 5154POPC   D2A65572  22.940  19.845   6.764
 5154POPC   C3A65573  22.940  19.813   7.064
 5154POPC   C4A65574  22.936  19.813   7.364
 5154POPC   C1B65575  22.653  19.843   6.464
 5154POPC   C2B65576  22.655  19.861   6.764
 5154POPC   C3B65577  22.665  19.877   7.064
 5154POPC   C4B65578  22.644  19.869   7.364
 5155POPC   NC365579  16.687   4.279   5.564
 5155POPC   PO465580  16.721   4.273   5.864
 5155POPC   GL165581  16.755   4.270   6.164
 5155POPC   GL265582  16.611   4.316   6.164
 5155POPC   C1A65583  16.755   4.356   6.464
 5155POPC   D2A65584  16.766   4.311   6.764
 5155POPC   C3A65585  16.721   4.328   7.064
 5155POPC   C4A65586  16.758   4.328   7.364
 5155POPC   C1B65587  16.464   4.244   6.464
 5155POPC   C2B65588  16.531   4.174   6.764
 5155POPC   C3B65589  16.488   4.168   7.064
 5155POPC   C4B65590  16.496   4.244   7.364
 5156POPC   NC365591  28.418  36.109   5.564
 5156POPC   PO465592  28.380  36.079   5.864
 5156POPC   GL165593  28.335  36.103   6.164
 5156POPC   GL265594  28.465  36.156   6.164
 5156POPC   C1A65595  28.348  36.081   6.464
 5156POPC   D2A65596  28.321  36.171   6.764
 5156POPC   C3A65597  28.379  36.107   7.064
 5156POPC   C4A65598  28.387  36.157   7.364
 5156POPC   C1B65599  28.540  36.206   6.464
 5156POPC   C2B65600  28.626  36.288   6.764
 5156POPC   C3B65601  28.542  36.268   7.064
 5156POPC   C4B65602  28.632  36.209   7.364
 5157POPC   NC365603  43.104  12.888   5.564
 5157POPC   PO465604  43.073  12.884   5.864
 5157POPC   GL165605  43.104  12.874   6.164
 5157POPC   GL265606  43.180  12.995   6.164
 5157POPC   C1A65607  43.062  12.898   6.464
 5157POPC   D2A65608  43.151  12.838   6.764
 5157POPC   C3A65609  43.148  12.875   7.064
 5157POPC   C4A65610  43.101  12.828   7.364
 5157POPC   C1B65611  43.206  13.086   6.464
 5157POPC   C2B65612  43.276  13.064   6.764
 5157POPC   C3B65613  43.218  13.098   7.064
 5157POPC   C4B65614  43.224  13.054   7.364
 5158POPC   NC365615  10.546   9.721   5.564
 5158POPC   PO465616  10.558   9.736   5.864
 5158POPC   GL165617  10.487   9.758   6.164
 5158POPC   GL265618  10.557   9.637   6.164
 5158POPC   C1A65619  10.491   9.793   6.464
 5158POPC   D2A65620  10.508   9.701   6.764
 5158POPC   C3A65621  10.543   9.746   7.064
 5158POPC   C4A65622  10.491   9.752   7.364
 5158POPC   C1B65623  10.600   9.514   6.464
 5158POPC   C2B65624  10.657   9.533   6.764
 5158POPC   C3B65625  10.607   9.508   7.064
 5158POPC   C4B65626  10.663   9.505   7.364
 5159POPC   NC365627  40.778   5.053   5.564
 5159POPC   PO465628  40.824   5.050   5.864
 5159POPC   GL165629  40.747   5.125   6.164
 5159POPC   GL265630  40.870   4.949   6.164
 5159POPC   C1A65631  40.754   5.142   6.464
 5159POPC   D2A65632  40.772   5.133   6.764
 5159POPC   C3A65633  40.743   5.092   7.064
 5159POPC   C4A65634  40.734   5.087   7.364
 5159POPC   C1B65635  40.884   4.885   6.464
 5159POPC   C2B65636  40.887   4.838   6.764
 5159POPC   C3B65637  40.904   4.828   7.064
 5159POPC   C4B65638  40.823   4.843   7.364
 5160POPC   NC365639  20.586   0.426   5.564
 5160POPC   PO465640  20.650   0.394   5.864
 5160POPC   GL165641  20.617   0.456   6.164
 5160POPC   GL265642  20.506   0.358   6.164
 5160POPC   C1A65643  20.636   0.454   6.464
 5160POPC   D2A65644  20.612   0.441   6.764
 5160POPC   C3A65645  20.628   0.418   7.064
 5160POPC   C4A65646  20.578   0.408   7.364
 5160POPC   C1B65647  20.517   0.261   6.464
 5160POPC   C2B65648  20.504   0.234   6.764
 5160POPC   C3B65649  20.427   0.188   7.064
 5160POPC   C4B65650  20.493   0.241   7.364
 5161POPC   NC365651   5.896  24.476   5.564
 5161POPC   PO465652   5.842  24.482   5.864
 5161POPC   GL165653   5.834  24.446   6.164
 5161POPC   GL265654   5.873  24.642   6.164
 5161POPC   C1A65655   5.853  24.457   6.464
 5161POPC   D2A65656   5.868  24.464   6.764
 5161POPC   C3A65657   5.835  24.475   7.064
 5161POPC   C4A65658   5.888  24.522   7.364
 5161POPC   C1B65659   5.923  24.726   6.464
 5161POPC   C2B65660   5.913  24.746   6.764
 5161POPC   C3B65661   5.919  24.677   7.064
 5161POPC   C4B65662   5.974  24.710   7.364
 5162POPC   NC365663  33.780  19.864   5.564
 5162POPC   PO465664  33.827  19.858   5.864
 5162POPC   GL165665  33.788  19.860   6.164
 5162POPC   GL265666  33.843  19.910   6.164
 5162POPC   C1A65667  33.792  19.832   6.464
 5162POPC   D2A65668  33.823  19.817   6.764
 5162POPC   C3A65669  33.821  19.859   7.064
 5162POPC   C4A65670  33.825  19.819   7.364
 5162POPC   C1B65671  33.865  20.078   6.464
 5162POPC   C2B65672  33.841  20.042   6.764
 5162POPC   C3B65673  33.875  20.120   7.064
 5162POPC   C4B65674  33.867  20.121   7.364
 5163POPC   NC365675  40.784  11.301   5.564
 5163POPC   PO465676  40.763  11.324   5.864
 5163POPC   GL165677  40.738  11.253   6.164
 5163POPC   GL265678  40.866  11.403   6.164
 5163POPC   C1A65679  40.798  11.269   6.464
 5163POPC   D2A65680  40.805  11.278   6.764
 5163POPC   C3A65681  40.769  11.344   7.064
 5163POPC   C4A65682  40.810  11.264   7.364
 5163POPC   C1B65683  40.908  11.494   6.464
 5163POPC   C2B65684  40.976  11.452   6.764
 5163POPC   C3B65685  40.902  11.459   7.064
 5163POPC   C4B65686  40.946  11.498   7.364
 5164POPC   NC365687  40.804   0.430   5.564
 5164POPC   PO465688  40.754   0.478   5.864
 5164POPC   GL165689  40.760   0.462   6.164
 5164POPC   GL265690  40.863   0.463   6.164
 5164POPC   C1A65691  40.785   0.455   6.464
 5164POPC   D2A65692  40.810   0.442   6.764
 5164POPC   C3A65693  40.734   0.444   7.064
 5164POPC   C4A65694  40.737   0.438   7.364
 5164POPC   C1B65695  41.005   0.542   6.464
 5164POPC   C2B65696  40.961   0.614   6.764
 5164POPC   C3B65697  40.975   0.611   7.064
 5164POPC   C4B65698  40.951   0.547   7.364
 5165POPC   NC365699  38.432  16.715   5.564
 5165POPC   PO465700  38.406  16.723   5.864
 5165POPC   GL165701  38.504  16.774   6.164
 5165POPC   GL265702  38.549  16.832   6.164
 5165POPC   C1A65703  38.427  16.752   6.464
 5165POPC   D2A65704  38.440  16.772   6.764
 5165POPC   C3A65705  38.495  16.742   7.064
 5165POPC   C4A65706  38.495  16.702   7.364
 5165POPC   C1B65707  38.579  16.938   6.464
 5165POPC   C2B65708  38.601  16.897   6.764
 5165POPC   C3B65709  38.585  16.936   7.064
 5165POPC   C4B65710  38.572  16.980   7.364
 5166POPC   NC365711  29.922  43.097   5.564
 5166POPC   PO465712  29.881  43.157   5.864
 5166POPC   GL165713  29.906  43.121   6.164
 5166POPC   GL265714  29.811  43.224   6.164
 5166POPC   C1A65715  29.924  43.094   6.464
 5166POPC   D2A65716  29.896  43.072   6.764
 5166POPC   C3A65717  29.936  43.106   7.064
 5166POPC   C4A65718  29.970  43.146   7.364
 5166POPC   C1B65719  29.787  43.310   6.464
 5166POPC   C2B65720  29.799  43.266   6.764
 5166POPC   C3B65721  29.749  43.331   7.064
 5166POPC   C4B65722  29.789  43.293   7.364
 5167POPC   NC365723  42.286  36.907   5.564
 5167POPC   PO465724  42.382  36.914   5.864
 5167POPC   GL165725  42.369  36.897   6.164
 5167POPC   GL265726  42.237  37.026   6.164
 5167POPC   C1A65727  42.309  36.936   6.464
 5167POPC   D2A65728  42.376  36.859   6.764
 5167POPC   C3A65729  42.324  36.860   7.064
 5167POPC   C4A65730  42.366  36.932   7.364
 5167POPC   C1B65731  42.120  37.040   6.464
 5167POPC   C2B65732  42.156  37.030   6.764
 5167POPC   C3B65733  42.176  37.052   7.064
 5167POPC   C4B65734  42.108  37.118   7.364
 5168POPC   NC365735   6.637  23.689   5.564
 5168POPC   PO465736   6.621  23.702   5.864
 5168POPC   GL165737   6.637  23.691   6.164
 5168POPC   GL265738   6.547  23.778   6.164
 5168POPC   C1A65739   6.623  23.706   6.464
 5168POPC   D2A65740   6.684  23.744   6.764
 5168POPC   C3A65741   6.622  23.717   7.064
 5168POPC   C4A65742   6.657  23.754   7.364
 5168POPC   C1B65743   6.537  23.919   6.464
 5168POPC   C2B65744   6.457  23.918   6.764
 5168POPC   C3B65745   6.493  23.888   7.064
 5168POPC   C4B65746   6.496  23.886   7.364
 5169POPC   NC365747   5.129   2.804   5.564
 5169POPC   PO465748   5.104   2.805   5.864
 5169POPC   GL165749   5.075   2.765   6.164
 5169POPC   GL265750   5.234   2.713   6.164
 5169POPC   C1A65751   5.100   2.734   6.464
 5169POPC   D2A65752   5.075   2.777   6.764
 5169POPC   C3A65753   5.060   2.788   7.064
 5169POPC   C4A65754   5.134   2.777   7.364
 5169POPC   C1B65755   5.243   2.599   6.464
 5169POPC   C2B65756   5.289   2.632   6.764
 5169POPC   C3B65757   5.326   2.628   7.064
 5169POPC   C4B65758   5.303   2.604   7.364
 5170POPC   NC365759  13.654  38.476   5.564
 5170POPC   PO465760  13.663  38.451   5.864
 5170POPC   GL165761  13.636  38.456   6.164
 5170POPC   GL265762  13.749  38.420   6.164
 5170POPC   C1A65763  13.614  38.431   6.464
 5170POPC   D2A65764  13.661  38.407   6.764
 5170POPC   C3A65765  13.604  38.471   7.064
 5170POPC   C4A65766  13.605  38.408   7.364
 5170POPC   C1B65767  13.879  38.313   6.464
 5170POPC   C2B65768  13.822  38.331   6.764
 5170POPC   C3B65769  13.788  38.356   7.064
 5170POPC   C4B65770  13.870  38.309   7.364
 5171POPC   NC365771  25.273  14.374   5.564
 5171POPC   PO465772  25.293  14.405   5.864
 5171POPC   GL165773  25.278  14.364   6.164
 5171POPC   GL265774  25.345  14.522   6.164
 5171POPC   C1A65775  25.221  14.364   6.464
 5171POPC   D2A65776  25.241  14.385   6.764
 5171POPC   C3A65777  25.278  14.426   7.064
 5171POPC   C4A65778  25.235  14.374   7.364
 5171POPC   C1B65779  25.360  14.669   6.464
 5171POPC   C2B65780  25.292  14.683   6.764
 5171POPC   C3B65781  25.342  14.687   7.064
 5171POPC   C4B65782  25.321  14.657   7.364
 5172POPC   NC365783  24.452  13.646   5.564
 5172POPC   PO465784  24.515  13.657   5.864
 5172POPC   GL165785  24.503  13.620   6.164
 5172POPC   GL265786  24.448  13.550   6.164
 5172POPC   C1A65787  24.533  13.600   6.464
 5172POPC   D2A65788  24.485  13.625   6.764
 5172POPC   C3A65789  24.487  13.625   7.064
 5172POPC   C4A65790  24.477  13.674   7.364
 5172POPC   C1B65791  24.410  13.384   6.464
 5172POPC   C2B65792  24.392  13.424   6.764
 5172POPC   C3B65793  24.366  13.364   7.064
 5172POPC   C4B65794  24.378  13.379   7.364
 5173POPC   NC365795  19.863  43.105   5.564
 5173POPC   PO465796  19.811  43.071   5.864
 5173POPC   GL165797  19.795  43.142   6.164
 5173POPC   GL265798  19.803  43.258   6.164
 5173POPC   C1A65799  19.788  43.115   6.464
 5173POPC   D2A65800  19.830  43.074   6.764
 5173POPC   C3A65801  19.879  43.091   7.064
 5173POPC   C4A65802  19.809  43.074   7.364
 5173POPC   C1B65803  19.762  43.318   6.464
 5173POPC   C2B65804  19.772  43.312   6.764
 5173POPC   C3B65805  19.697  43.311   7.064
 5173POPC   C4B65806  19.684  43.360   7.364
 5174POPC   NC365807  14.419   1.263   5.564
 5174POPC   PO465808  14.413   1.219   5.864
 5174POPC   GL165809  14.437   1.243   6.164
 5174POPC   GL265810  14.369   1.104   6.164
 5174POPC   C1A65811  14.391   1.182   6.464
 5174POPC   D2A65812  14.397   1.229   6.764
 5174POPC   C3A65813  14.441   1.201   7.064
 5174POPC   C4A65814  14.405   1.253   7.364
 5174POPC   C1B65815  14.277   1.000   6.464
 5174POPC   C2B65816  14.309   0.988   6.764
 5174POPC   C3B65817  14.223   0.959   7.064
 5174POPC   C4B65818  14.213   1.017   7.364
 5175POPC   NC365819  43.113  36.081   5.564
 5175POPC   PO465820  43.085  36.173   5.864
 5175POPC   GL165821  43.065  36.114   6.164
 5175POPC   GL265822  43.012  36.040   6.164
 5175POPC   C1A65823  43.144  36.078   6.464
 5175POPC   D2A65824  43.122  36.105   6.764
 5175POPC   C3A65825  43.101  36.160   7.064
 5175POPC   C4A65826  43.158  36.174   7.364
 5175POPC   C1B65827  42.922  36.070   6.464
 5175POPC   C2B65828  42.858  36.023   6.764
 5175POPC   C3B65829  42.888  35.986   7.064
 5175POPC   C4B65830  42.896  35.997   7.364
 5176POPC   NC365831  21.426  34.587   5.564
 5176POPC   PO465832  21.435  34.598   5.864
 5176POPC   GL165833  21.418  34.555   6.164
 5176POPC   GL265834  21.317  34.715   6.164
 5176POPC   C1A65835  21.411  34.597   6.464
 5176POPC   D2A65836  21.429  34.602   6.764
 5176POPC   C3A65837  21.384  34.543   7.064
 5176POPC   C4A65838  21.388  34.625   7.364
 5176POPC   C1B65839  21.338  34.839   6.464
 5176POPC   C2B65840  21.295  34.793   6.764
 5176POPC   C3B65841  21.313  34.837   7.064
 5176POPC   C4B65842  21.357  34.864   7.364
 5177POPC   NC365843  36.950   6.619   5.564
 5177POPC   PO465844  36.901   6.602   5.864
 5177POPC   GL165845  36.950   6.607   6.164
 5177POPC   GL265846  36.835   6.577   6.164
 5177POPC   C1A65847  36.904   6.649   6.464
 5177POPC   D2A65848  36.951   6.661   6.764
 5177POPC   C3A65849  36.884   6.613   7.064
 5177POPC   C4A65850  36.903   6.640   7.364
 5177POPC   C1B65851  36.813   6.389   6.464
 5177POPC   C2B65852  36.816   6.396   6.764
 5177POPC   C3B65853  36.740   6.471   7.064
 5177POPC   C4B65854  36.811   6.408   7.364
 5178POPC   NC365855  36.859  28.402   5.564
 5178POPC   PO465856  36.948  28.346   5.864
 5178POPC   GL165857  36.953  28.365   6.164
 5178POPC   GL265858  36.970  28.281   6.164
 5178POPC   C1A65859  36.951  28.406   6.464
 5178POPC   D2A65860  36.911  28.407   6.764
 5178POPC   C3A65861  36.911  28.400   7.064
 5178POPC   C4A65862  36.889  28.350   7.364
 5178POPC   C1B65863  36.909  28.127   6.464
 5178POPC   C2B65864  36.911  28.109   6.764
 5178POPC   C3B65865  36.933  28.102   7.064
 5178POPC   C4B65866  36.956  28.109   7.364
 5179POPC   NC365867  15.981  21.386   5.564
 5179POPC   PO465868  15.928  21.435   5.864
 5179POPC   GL165869  15.947  21.395   6.164
 5179POPC   GL265870  15.991  21.312   6.164
 5179POPC   C1A65871  15.996  21.409   6.464
 5179POPC   D2A65872  15.926  21.430   6.764
 5179POPC   C3A65873  15.989  21.375   7.064
 5179POPC   C4A65874  15.965  21.339   7.364
 5179POPC   C1B65875  16.058  21.107   6.464
 5179POPC   C2B65876  16.062  21.151   6.764
 5179POPC   C3B65877  16.058  21.156   7.064
 5179POPC   C4B65878  16.021  21.184   7.364
 5180POPC   NC365879  29.177  20.643   5.564
 5180POPC   PO465880  29.169  20.574   5.864
 5180POPC   GL165881  29.193  20.579   6.164
 5180POPC   GL265882  29.060  20.602   6.164
 5180POPC   C1A65883  29.157  20.634   6.464
 5180POPC   D2A65884  29.153  20.606   6.764
 5180POPC   C3A65885  29.132  20.652   7.064
 5180POPC   C4A65886  29.128  20.566   7.364
 5180POPC   C1B65887  28.936  20.617   6.464
 5180POPC   C2B65888  28.940  20.621   6.764
 5180POPC   C3B65889  28.933  20.569   7.064
 5180POPC   C4B65890  28.946  20.616   7.364
 5181POPC   NC365891  14.449   3.562   5.564
 5181POPC   PO465892  14.445   3.559   5.864
 5181POPC   GL165893  14.449   3.564   6.164
 5181POPC   GL265894  14.475   3.500   6.164
 5181POPC   C1A65895  14.367   3.535   6.464
 5181POPC   D2A65896  14.397   3.574   6.764
 5181POPC   C3A65897  14.368   3.528   7.064
 5181POPC   C4A65898  14.424   3.576   7.364
 5181POPC   C1B65899  14.599   3.459   6.464
 5181POPC   C2B65900  14.615   3.383   6.764
 5181POPC   C3B65901  14.606   3.389   7.064
 5181POPC   C4B65902  14.572   3.440   7.364
 5182POPC   NC365903  20.628  39.187   5.564
 5182POPC   PO465904  20.635  39.181   5.864
 5182POPC   GL165905  20.570  39.197   6.164
 5182POPC   GL265906  20.675  39.148   6.164
 5182POPC   C1A65907  20.615  39.201   6.464
 5182POPC   D2A65908  20.644  39.224   6.764
 5182POPC   C3A65909  20.627  39.276   7.064
 5182POPC   C4A65910  20.562  39.276   7.364
 5182POPC   C1B65911  20.867  39.106   6.464
 5182POPC   C2B65912  20.836  39.111   6.764
 5182POPC   C3B65913  20.881  39.093   7.064
 5182POPC   C4B65914  20.886  39.146   7.364
 5183POPC   NC365915   2.795  25.292   5.564
 5183POPC   PO465916   2.760  25.315   5.864
 5183POPC   GL165917   2.745  25.265   6.164
 5183POPC   GL265918   2.678  25.308   6.164
 5183POPC   C1A65919   2.759  25.289   6.464
 5183POPC   D2A65920   2.770  25.303   6.764
 5183POPC   C3A65921   2.724  25.304   7.064
 5183POPC   C4A65922   2.815  25.282   7.364
 5183POPC   C1B65923   2.606  25.416   6.464
 5183POPC   C2B65924   2.584  25.457   6.764
 5183POPC   C3B65925   2.584  25.435   7.064
 5183POPC   C4B65926   2.545  25.405   7.364
 5184POPC   NC365927  33.784  26.002   5.564
 5184POPC   PO465928  33.752  26.047   5.864
 5184POPC   GL165929  33.848  26.037   6.164
 5184POPC   GL265930  33.936  26.107   6.164
 5184POPC   C1A65931  33.810  26.039   6.464
 5184POPC   D2A65932  33.772  26.038   6.764
 5184POPC   C3A65933  33.839  26.054   7.064
 5184POPC   C4A65934  33.797  26.056   7.364
 5184POPC   C1B65935  34.062  26.135   6.464
 5184POPC   C2B65936  34.014  26.081   6.764
 5184POPC   C3B65937  34.012  26.103   7.064
 5184POPC   C4B65938  34.094  26.050   7.364
 5185POPC   NC365939  30.652  33.053   5.564
 5185POPC   PO465940  30.710  33.013   5.864
 5185POPC   GL165941  30.692  33.019   6.164
 5185POPC   GL265942  30.609  33.079   6.164
 5185POPC   C1A65943  30.710  33.072   6.464
 5185POPC   D2A65944  30.719  33.032   6.764
 5185POPC   C3A65945  30.672  33.048   7.064
 5185POPC   C4A65946  30.658  32.996   7.364
 5185POPC   C1B65947  30.448  33.097   6.464
 5185POPC   C2B65948  30.498  33.100   6.764
 5185POPC   C3B65949  30.454  33.091   7.064
 5185POPC   C4B65950  30.469  33.094   7.364
 5186POPC   NC365951   2.795   5.102   5.564
 5186POPC   PO465952   2.739   5.063   5.864
 5186POPC   GL165953   2.729   5.117   6.164
 5186POPC   GL265954   2.817   5.191   6.164
 5186POPC   C1A65955   2.726   5.138   6.464
 5186POPC   D2A65956   2.790   5.107   6.764
 5186POPC   C3A65957   2.719   5.089   7.064
 5186POPC   C4A65958   2.732   5.097   7.364
 5186POPC   C1B65959   2.851   5.293   6.464
 5186POPC   C2B65960   2.838   5.314   6.764
 5186POPC   C3B65961   2.901   5.293   7.064
 5186POPC   C4B65962   2.835   5.357   7.364
 5187POPC   NC365963  29.891  43.932   5.564
 5187POPC   PO465964  29.941  43.875   5.864
 5187POPC   GL165965  29.887  43.900   6.164
 5187POPC   GL265966  29.934  43.979   6.164
 5187POPC   C1A65967  29.925  43.910   6.464
 5187POPC   D2A65968  29.881  43.870   6.764
 5187POPC   C3A65969  29.872  43.856   7.064
 5187POPC   C4A65970  29.920  43.894   7.364
 5187POPC   C1B65971  29.984  44.106   6.464
 5187POPC   C2B65972  30.020  44.161   6.764
 5187POPC   C3B65973  30.036  44.166   7.064
 5187POPC   C4B65974  29.966  44.101   7.364
 5188POPC   NC365975   2.772  36.087   5.564
 5188POPC   PO465976   2.776  36.125   5.864
 5188POPC   GL165977   2.731  36.107   6.164
 5188POPC   GL265978   2.725  36.217   6.164
 5188POPC   C1A65979   2.767  36.087   6.464
 5188POPC   D2A65980   2.788  36.154   6.764
 5188POPC   C3A65981   2.798  36.085   7.064
 5188POPC   C4A65982   2.788  36.157   7.364
 5188POPC   C1B65983   2.830  36.389   6.464
 5188POPC   C2B65984   2.775  36.376   6.764
 5188POPC   C3B65985   2.832  36.376   7.064
 5188POPC   C4B65986   2.804  36.424   7.364
 5189POPC   NC365987  36.111  31.507   5.564
 5189POPC   PO465988  36.135  31.432   5.864
 5189POPC   GL165989  36.162  31.485   6.164
 5189POPC   GL265990  36.082  31.580   6.164
 5189POPC   C1A65991  36.093  31.479   6.464
 5189POPC   D2A65992  36.119  31.486   6.764
 5189POPC   C3A65993  36.146  31.516   7.064
 5189POPC   C4A65994  36.128  31.431   7.364
 5189POPC   C1B65995  35.988  31.661   6.464
 5189POPC   C2B65996  35.912  31.647   6.764
 5189POPC   C3B65997  35.951  31.698   7.064
 5189POPC   C4B65998  35.992  31.610   7.364
 5190POPC   NC365999  17.525  39.981   5.564
 5190POPC   PO466000  17.485  39.979   5.864
 5190POPC   GL166001  17.536  40.001   6.164
 5190POPC   GL266002  17.664  39.935   6.164
 5190POPC   C1A66003  17.472  39.988   6.464
 5190POPC   D2A66004  17.478  39.974   6.764
 5190POPC   C3A66005  17.491  40.001   7.064
 5190POPC   C4A66006  17.522  40.009   7.364
 5190POPC   C1B66007  17.734  39.943   6.464
 5190POPC   C2B66008  17.725  39.962   6.764
 5190POPC   C3B66009  17.779  39.940   7.064
 5190POPC   C4B66010  17.698  39.902   7.364
 5191POPC   NC366011  30.647  30.713   5.564
 5191POPC   PO466012  30.668  30.674   5.864
 5191POPC   GL166013  30.718  30.719   6.164
 5191POPC   GL266014  30.690  30.797   6.164
 5191POPC   C1A66015  30.682  30.670   6.464
 5191POPC   D2A66016  30.734  30.726   6.764
 5191POPC   C3A66017  30.726  30.695   7.064
 5191POPC   C4A66018  30.658  30.657   7.364
 5191POPC   C1B66019  30.564  30.935   6.464
 5191POPC   C2B66020  30.616  30.916   6.764
 5191POPC   C3B66021  30.603  30.937   7.064
 5191POPC   C4B66022  30.562  30.937   7.364
 5192POPC   NC366023   9.765  20.639   5.564
 5192POPC   PO466024   9.730  20.641   5.864
 5192POPC   GL166025   9.727  20.647   6.164
 5192POPC   GL266026   9.658  20.761   6.164
 5192POPC   C1A66027   9.793  20.633   6.464
 5192POPC   D2A66028   9.748  20.614   6.764
 5192POPC   C3A66029   9.774  20.624   7.064
 5192POPC   C4A66030   9.738  20.597   7.364
 5192POPC   C1B66031   9.646  20.796   6.464
 5192POPC   C2B66032   9.607  20.860   6.764
 5192POPC   C3B66033   9.647  20.832   7.064
 5192POPC   C4B66034   9.573  20.834   7.364
 5193POPC   NC366035  41.604   8.956   5.564
 5193POPC   PO466036  41.556   8.997   5.864
 5193POPC   GL166037  41.566   9.019   6.164
 5193POPC   GL266038  41.483   8.834   6.164
 5193POPC   C1A66039  41.519   8.984   6.464
 5193POPC   D2A66040  41.590   8.982   6.764
 5193POPC   C3A66041  41.595   8.985   7.064
 5193POPC   C4A66042  41.556   8.944   7.364
 5193POPC   C1B66043  41.537   8.702   6.464
 5193POPC   C2B66044  41.509   8.740   6.764
 5193POPC   C3B66045  41.490   8.731   7.064
 5193POPC   C4B66046  41.454   8.734   7.364
 5194POPC   NC366047  30.664  36.168   5.564
 5194POPC   PO466048  30.651  36.158   5.864
 5194POPC   GL166049  30.664  36.170   6.164
 5194POPC   GL266050  30.817  36.088   6.164
 5194POPC   C1A66051  30.662  36.106   6.464
 5194POPC   D2A66052  30.695  36.146   6.764
 5194POPC   C3A66053  30.719  36.111   7.064
 5194POPC   C4A66054  30.704  36.102   7.364
 5194POPC   C1B66055  30.958  36.141   6.464
 5194POPC   C2B66056  30.953  36.161   6.764
 5194POPC   C3B66057  30.936  36.159   7.064
 5194POPC   C4B66058  30.953  36.095   7.364
 5195POPC   NC366059  33.063  33.829   5.564
 5195POPC   PO466060  32.993  33.820   5.864
 5195POPC   GL166061  33.033  33.837   6.164
 5195POPC   GL266062  32.901  33.826   6.164
 5195POPC   C1A66063  33.029  33.823   6.464
 5195POPC   D2A66064  33.030  33.771   6.764
 5195POPC   C3A66065  33.060  33.828   7.064
 5195POPC   C4A66066  33.071  33.833   7.364
 5195POPC   C1B66067  32.801  33.802   6.464
 5195POPC   C2B66068  32.732  33.876   6.764
 5195POPC   C3B66069  32.787  33.798   7.064
 5195POPC   C4B66070  32.813  33.842   7.364
 5196POPC   NC366071  29.937  38.495   5.564
 5196POPC   PO466072  29.942  38.469   5.864
 5196POPC   GL166073  29.886  38.488   6.164
 5196POPC   GL266074  29.806  38.443   6.164
 5196POPC   C1A66075  29.918  38.415   6.464
 5196POPC   D2A66076  29.915  38.449   6.764
 5196POPC   C3A66077  29.923  38.423   7.064
 5196POPC   C4A66078  29.905  38.496   7.364
 5196POPC   C1B66079  29.651  38.535   6.464
 5196POPC   C2B66080  29.719  38.448   6.764
 5196POPC   C3B66081  29.647  38.507   7.064
 5196POPC   C4B66082  29.667  38.465   7.364
 5197POPC   NC366083  15.160  38.462   5.564
 5197POPC   PO466084  15.142  38.465   5.864
 5197POPC   GL166085  15.216  38.419   6.164
 5197POPC   GL266086  15.223  38.607   6.164
 5197POPC   C1A66087  15.189  38.490   6.464
 5197POPC   D2A66088  15.179  38.453   6.764
 5197POPC   C3A66089  15.220  38.463   7.064
 5197POPC   C4A66090  15.141  38.431   7.364
 5197POPC   C1B66091  15.179  38.715   6.464
 5197POPC   C2B66092  15.236  38.703   6.764
 5197POPC   C3B66093  15.239  38.733   7.064
 5197POPC   C4B66094  15.183  38.701   7.364
 5198POPC   NC366095  19.029   5.838   5.564
 5198POPC   PO466096  19.107   5.909   5.864
 5198POPC   GL166097  19.027   5.862   6.164
 5198POPC   GL266098  18.951   5.877   6.164
 5198POPC   C1A66099  19.026   5.890   6.464
 5198POPC   D2A66100  19.078   5.847   6.764
 5198POPC   C3A66101  19.058   5.879   7.064
 5198POPC   C4A66102  19.108   5.849   7.364
 5198POPC   C1B66103  18.803   5.900   6.464
 5198POPC   C2B66104  18.778   5.894   6.764
 5198POPC   C3B66105  18.817   5.859   7.064
 5198POPC   C4B66106  18.767   5.898   7.364
 5199POPC   NC366107  35.352   1.204   5.564
 5199POPC   PO466108  35.346   1.257   5.864
 5199POPC   GL166109  35.390   1.249   6.164
 5199POPC   GL266110  35.350   1.370   6.164
 5199POPC   C1A66111  35.364   1.249   6.464
 5199POPC   D2A66112  35.307   1.168   6.764
 5199POPC   C3A66113  35.335   1.198   7.064
 5199POPC   C4A66114  35.367   1.188   7.364
 5199POPC   C1B66115  35.332   1.496   6.464
 5199POPC   C2B66116  35.362   1.501   6.764
 5199POPC   C3B66117  35.348   1.509   7.064
 5199POPC   C4B66118  35.397   1.454   7.364
 5200POPC   NC366119  29.099  12.085   5.564
 5200POPC   PO466120  29.164  12.087   5.864
 5200POPC   GL166121  29.110  12.112   6.164
 5200POPC   GL266122  29.095  11.952   6.164
 5200POPC   C1A66123  29.095  12.093   6.464
 5200POPC   D2A66124  29.096  12.103   6.764
 5200POPC   C3A66125  29.168  12.067   7.064
 5200POPC   C4A66126  29.175  12.115   7.364
 5200POPC   C1B66127  29.173  11.784   6.464
 5200POPC   C2B66128  29.132  11.876   6.764
 5200POPC   C3B66129  29.133  11.849   7.064
 5200POPC   C4B66130  29.099  11.853   7.364
 5201POPC   NC366131  43.923  29.934   5.564
 5201POPC   PO466132  43.854  29.905   5.864
 5201POPC   GL166133  43.916  29.922   6.164
 5201POPC   GL266134  43.856  29.821   6.164
 5201POPC   C1A66135  43.892  29.923   6.464
 5201POPC   D2A66136  43.837  29.948   6.764
 5201POPC   C3A66137  43.889  29.881   7.064
 5201POPC   C4A66138  43.894  29.872   7.364
 5201POPC   C1B66139  43.868  29.712   6.464
 5201POPC   C2B66140  43.867  29.720   6.764
 5201POPC   C3B66141  43.820  29.676   7.064
 5201POPC   C4B66142  43.873  29.656   7.364
 5202POPC   NC366143  27.621  28.414   5.564
 5202POPC   PO466144  27.621  28.363   5.864
 5202POPC   GL166145  27.588  28.360   6.164
 5202POPC   GL266146  27.687  28.298   6.164
 5202POPC   C1A66147  27.592  28.343   6.464
 5202POPC   D2A66148  27.636  28.407   6.764
 5202POPC   C3A66149  27.586  28.329   7.064
 5202POPC   C4A66150  27.636  28.414   7.364
 5202POPC   C1B66151  27.812  28.290   6.464
 5202POPC   C2B66152  27.803  28.313   6.764
 5202POPC   C3B66153  27.794  28.311   7.064
 5202POPC   C4B66154  27.840  28.300   7.364
 5203POPC   NC366155  26.049   7.392   5.564
 5203POPC   PO466156  26.044   7.408   5.864
 5203POPC   GL166157  26.023   7.445   6.164
 5203POPC   GL266158  26.158   7.434   6.164
 5203POPC   C1A66159  26.029   7.401   6.464
 5203POPC   D2A66160  26.035   7.427   6.764
 5203POPC   C3A66161  26.087   7.401   7.064
 5203POPC   C4A66162  26.005   7.460   7.364
 5203POPC   C1B66163  26.298   7.488   6.464
 5203POPC   C2B66164  26.254   7.500   6.764
 5203POPC   C3B66165  26.307   7.423   7.064
 5203POPC   C4B66166  26.292   7.436   7.364
 5204POPC   NC366167  41.538  40.021   5.564
 5204POPC   PO466168  41.593  40.018   5.864
 5204POPC   GL166169  41.567  40.030   6.164
 5204POPC   GL266170  41.411  39.901   6.164
 5204POPC   C1A66171  41.526  40.048   6.464
 5204POPC   D2A66172  41.603  39.972   6.764
 5204POPC   C3A66173  41.607  40.021   7.064
 5204POPC   C4A66174  41.603  40.039   7.364
 5204POPC   C1B66175  41.340  39.875   6.464
 5204POPC   C2B66176  41.374  39.905   6.764
 5204POPC   C3B66177  41.390  39.932   7.064
 5204POPC   C4B66178  41.339  39.898   7.364
 5205POPC   NC366179   1.976  26.014   5.564
 5205POPC   PO466180   2.022  26.015   5.864
 5205POPC   GL166181   2.036  26.047   6.164
 5205POPC   GL266182   2.132  25.996   6.164
 5205POPC   C1A66183   1.968  26.062   6.464
 5205POPC   D2A66184   2.030  25.999   6.764
 5205POPC   C3A66185   1.967  26.039   7.064
 5205POPC   C4A66186   2.027  26.059   7.364
 5205POPC   C1B66187   2.208  25.917   6.464
 5205POPC   C2B66188   2.187  25.903   6.764
 5205POPC   C3B66189   2.200  25.889   7.064
 5205POPC   C4B66190   2.230  25.888   7.364
 5206POPC   NC366191  20.590  12.880   5.564
 5206POPC   PO466192  20.621  12.814   5.864
 5206POPC   GL166193  20.656  12.853   6.164
 5206POPC   GL266194  20.516  12.930   6.164
 5206POPC   C1A66195  20.585  12.805   6.464
 5206POPC   D2A66196  20.630  12.835   6.764
 5206POPC   C3A66197  20.573  12.873   7.064
 5206POPC   C4A66198  20.608  12.833   7.364
 5206POPC   C1B66199  20.377  12.919   6.464
 5206POPC   C2B66200  20.332  12.893   6.764
 5206POPC   C3B66201  20.389  12.935   7.064
 5206POPC   C4B66202  20.365  12.979   7.364
 5207POPC   NC366203   9.748  15.134   5.564
 5207POPC   PO466204   9.770  15.139   5.864
 5207POPC   GL166205   9.702  15.206   6.164
 5207POPC   GL266206   9.842  15.170   6.164
 5207POPC   C1A66207   9.774  15.226   6.464
 5207POPC   D2A66208   9.718  15.145   6.764
 5207POPC   C3A66209   9.747  15.139   7.064
 5207POPC   C4A66210   9.706  15.185   7.364
 5207POPC   C1B66211  10.012  15.273   6.464
 5207POPC   C2B66212  10.000  15.192   6.764
 5207POPC   C3B66213  10.031  15.191   7.064
 5207POPC   C4B66214  10.010  15.262   7.364
 5208POPC   NC366215  21.421  20.620   5.564
 5208POPC   PO466216  21.362  20.565   5.864
 5208POPC   GL166217  21.412  20.642   6.164
 5208POPC   GL266218  21.467  20.454   6.164
 5208POPC   C1A66219  21.428  20.596   6.464
 5208POPC   D2A66220  21.383  20.644   6.764
 5208POPC   C3A66221  21.357  20.572   7.064
 5208POPC   C4A66222  21.434  20.592   7.364
 5208POPC   C1B66223  21.460  20.401   6.464
 5208POPC   C2B66224  21.498  20.392   6.764
 5208POPC   C3B66225  21.454  20.352   7.064
 5208POPC   C4B66226  21.430  20.403   7.364
 5209POPC   NC366227  34.617  13.600   5.564
 5209POPC   PO466228  34.559  13.649   5.864
 5209POPC   GL166229  34.625  13.676   6.164
 5209POPC   GL266230  34.589  13.754   6.164
 5209POPC   C1A66231  34.561  13.671   6.464
 5209POPC   D2A66232  34.552  13.658   6.764
 5209POPC   C3A66233  34.589  13.629   7.064
 5209POPC   C4A66234  34.544  13.606   7.364
 5209POPC   C1B66235  34.588  13.898   6.464
 5209POPC   C2B66236  34.601  13.925   6.764
 5209POPC   C3B66237  34.557  13.850   7.064
 5209POPC   C4B66238  34.617  13.896   7.364
 5210POPC   NC366239  43.914  15.200   5.564
 5210POPC   PO466240  43.856  15.132   5.864
 5210POPC   GL166241  43.848  15.191   6.164
 5210POPC   GL266242  43.862  15.068   6.164
 5210POPC   C1A66243  43.935  15.168   6.464
 5210POPC   D2A66244  43.911  15.137   6.764
 5210POPC   C3A66245  43.927  15.174   7.064
 5210POPC   C4A66246  43.856  15.148   7.364
 5210POPC   C1B66247  43.941  14.909   6.464
 5210POPC   C2B66248  43.941  14.945   6.764
 5210POPC   C3B66249  43.936  14.944   7.064
 5210POPC   C4B66250  43.903  14.923   7.364
 5211POPC   NC366251  10.540   4.274   5.564
 5211POPC   PO466252  10.560   4.278   5.864
 5211POPC   GL166253  10.570   4.321   6.164
 5211POPC   GL266254  10.665   4.390   6.164
 5211POPC   C1A66255  10.530   4.345   6.464
 5211POPC   D2A66256  10.484   4.354   6.764
 5211POPC   C3A66257  10.507   4.271   7.064
 5211POPC   C4A66258  10.495   4.331   7.364
 5211POPC   C1B66259  10.753   4.409   6.464
 5211POPC   C2B66260  10.794   4.419   6.764
 5211POPC   C3B66261  10.785   4.399   7.064
 5211POPC   C4B66262  10.788   4.413   7.364
 5212POPC   NC366263  26.013  42.335   5.564
 5212POPC   PO466264  26.013  42.329   5.864
 5212POPC   GL166265  26.084  42.348   6.164
 5212POPC   GL266266  26.091  42.224   6.164
 5212POPC   C1A66267  26.003  42.375   6.464
 5212POPC   D2A66268  26.087  42.383   6.764
 5212POPC   C3A66269  25.996  42.335   7.064
 5212POPC   C4A66270  26.063  42.362   7.364
 5212POPC   C1B66271  26.091  42.142   6.464
 5212POPC   C2B66272  26.153  42.133   6.764
 5212POPC   C3B66273  26.083  42.114   7.064
 5212POPC   C4B66274  26.132  42.108   7.364
 5213POPC   NC366275   2.006  12.027   5.564
 5213POPC   PO466276   2.038  12.084   5.864
 5213POPC   GL166277   2.031  12.053   6.164
 5213POPC   GL266278   1.823  12.083   6.164
 5213POPC   C1A66279   2.011  12.055   6.464
 5213POPC   D2A66280   2.028  12.071   6.764
 5213POPC   C3A66281   1.967  12.113   7.064
 5213POPC   C4A66282   1.963  12.077   7.364
 5213POPC   C1B66283   1.779  12.064   6.464
 5213POPC   C2B66284   1.783  12.064   6.764
 5213POPC   C3B66285   1.742  12.043   7.064
 5213POPC   C4B66286   1.732  12.068   7.364
 5214POPC   NC366287  32.977   4.316   5.564
 5214POPC   PO466288  33.049   4.313   5.864
 5214POPC   GL166289  33.020   4.312   6.164
 5214POPC   GL266290  33.043   4.452   6.164
 5214POPC   C1A66291  33.060   4.339   6.464
 5214POPC   D2A66292  33.014   4.360   6.764
 5214POPC   C3A66293  33.033   4.286   7.064
 5214POPC   C4A66294  32.982   4.335   7.364
 5214POPC   C1B66295  33.051   4.580   6.464
 5214POPC   C2B66296  33.027   4.514   6.764
 5214POPC   C3B66297  33.041   4.586   7.064
 5214POPC   C4B66298  33.101   4.588   7.364
 5215POPC   NC366299  24.479  25.248   5.564
 5215POPC   PO466300  24.458  25.280   5.864
 5215POPC   GL166301  24.468  25.244   6.164
 5215POPC   GL266302  24.574  25.274   6.164
 5215POPC   C1A66303  24.445  25.257   6.464
 5215POPC   D2A66304  24.491  25.306   6.764
 5215POPC   C3A66305  24.456  25.292   7.064
 5215POPC   C4A66306  24.501  25.272   7.364
 5215POPC   C1B66307  24.688  25.395   6.464
 5215POPC   C2B66308  24.685  25.342   6.764
 5215POPC   C3B66309  24.696  25.390   7.064
 5215POPC   C4B66310  24.672  25.378   7.364
 5216POPC   NC366311  34.619  41.527   5.564
 5216POPC   PO466312  34.570  41.554   5.864
 5216POPC   GL166313  34.579  41.540   6.164
 5216POPC   GL266314  34.673  41.659   6.164
 5216POPC   C1A66315  34.568  41.568   6.464
 5216POPC   D2A66316  34.623  41.568   6.764
 5216POPC   C3A66317  34.597  41.573   7.064
 5216POPC   C4A66318  34.572  41.567   7.364
 5216POPC   C1B66319  34.789  41.760   6.464
 5216POPC   C2B66320  34.736  41.688   6.764
 5216POPC   C3B66321  34.759  41.707   7.064
 5216POPC   C4B66322  34.747  41.726   7.364
 5217POPC   NC366323  40.008  29.915   5.564
 5217POPC   PO466324  40.013  29.965   5.864
 5217POPC   GL166325  40.033  29.961   6.164
 5217POPC   GL266326  39.913  29.835   6.164
 5217POPC   C1A66327  40.013  29.895   6.464
 5217POPC   D2A66328  39.979  29.873   6.764
 5217POPC   C3A66329  40.023  29.931   7.064
 5217POPC   C4A66330  40.056  29.915   7.364
 5217POPC   C1B66331  39.891  29.688   6.464
 5217POPC   C2B66332  39.889  29.701   6.764
 5217POPC   C3B66333  39.849  29.745   7.064
 5217POPC   C4B66334  39.843  29.675   7.364
 5218POPC   NC366335  35.377   6.639   5.564
 5218POPC   PO466336  35.310   6.674   5.864
 5218POPC   GL166337  35.305   6.689   6.164
 5218POPC   GL266338  35.231   6.709   6.164
 5218POPC   C1A66339  35.377   6.659   6.464
 5218POPC   D2A66340  35.345   6.666   6.764
 5218POPC   C3A66341  35.317   6.623   7.064
 5218POPC   C4A66342  35.379   6.596   7.364
 5218POPC   C1B66343  35.104   6.688   6.464
 5218POPC   C2B66344  35.118   6.720   6.764
 5218POPC   C3B66345  35.057   6.715   7.064
 5218POPC   C4B66346  35.146   6.635   7.364
 5219POPC   NC366347  22.154  39.263   5.564
 5219POPC   PO466348  22.194  39.202   5.864
 5219POPC   GL166349  22.145  39.244   6.164
 5219POPC   GL266350  22.137  39.092   6.164
 5219POPC   C1A66351  22.139  39.195   6.464
 5219POPC   D2A66352  22.204  39.215   6.764
 5219POPC   C3A66353  22.180  39.227   7.064
 5219POPC   C4A66354  22.121  39.251   7.364
 5219POPC   C1B66355  22.154  39.007   6.464
 5219POPC   C2B66356  22.163  38.998   6.764
 5219POPC   C3B66357  22.121  38.949   7.064
 5219POPC   C4B66358  22.110  38.951   7.364
 5220POPC   NC366359  41.533  12.900   5.564
 5220POPC   PO466360  41.511  12.861   5.864
 5220POPC   GL166361  41.609  12.834   6.164
 5220POPC   GL266362  41.430  12.957   6.164
 5220POPC   C1A66363  41.593  12.850   6.464
 5220POPC   D2A66364  41.572  12.861   6.764
 5220POPC   C3A66365  41.552  12.812   7.064
 5220POPC   C4A66366  41.537  12.872   7.364
 5220POPC   C1B66367  41.407  12.998   6.464
 5220POPC   C2B66368  41.400  12.993   6.764
 5220POPC   C3B66369  41.372  12.998   7.064
 5220POPC   C4B66370  41.406  13.024   7.364
 5221POPC   NC366371  33.753  11.288   5.564
 5221POPC   PO466372  33.756  11.300   5.864
 5221POPC   GL166373  33.782  11.292   6.164
 5221POPC   GL266374  33.639  11.299   6.164
 5221POPC   C1A66375  33.800  11.267   6.464
 5221POPC   D2A66376  33.840  11.316   6.764
 5221POPC   C3A66377  33.828  11.331   7.064
 5221POPC   C4A66378  33.782  11.318   7.364
 5221POPC   C1B66379  33.562  11.204   6.464
 5221POPC   C2B66380  33.532  11.192   6.764
 5221POPC   C3B66381  33.551  11.175   7.064
 5221POPC   C4B66382  33.615  11.165   7.364
 5222POPC   NC366383  15.228  19.877   5.564
 5222POPC   PO466384  15.163  19.831   5.864
 5222POPC   GL166385  15.187  19.787   6.164
 5222POPC   GL266386  15.067  19.896   6.164
 5222POPC   C1A66387  15.141  19.883   6.464
 5222POPC   D2A66388  15.195  19.862   6.764
 5222POPC   C3A66389  15.199  19.853   7.064
 5222POPC   C4A66390  15.188  19.843   7.364
 5222POPC   C1B66391  14.980  19.853   6.464
 5222POPC   C2B66392  14.968  19.861   6.764
 5222POPC   C3B66393  14.919  19.917   7.064
 5222POPC   C4B66394  14.963  19.865   7.364
 5223POPC   NC366395  43.150  22.926   5.564
 5223POPC   PO466396  43.099  22.938   5.864
 5223POPC   GL166397  43.092  22.965   6.164
 5223POPC   GL266398  43.209  22.986   6.164
 5223POPC   C1A66399  43.078  22.907   6.464
 5223POPC   D2A66400  43.147  22.946   6.764
 5223POPC   C3A66401  43.073  22.978   7.064
 5223POPC   C4A66402  43.124  22.910   7.364
 5223POPC   C1B66403  43.316  22.974   6.464
 5223POPC   C2B66404  43.343  22.961   6.764
 5223POPC   C3B66405  43.320  22.968   7.064
 5223POPC   C4B66406  43.308  22.965   7.364
 5224POPC   NC366407  36.078  32.222   5.564
 5224POPC   PO466408  36.103  32.222   5.864
 5224POPC   GL166409  36.097  32.208   6.164
 5224POPC   GL266410  36.225  32.179   6.164
 5224POPC   C1A66411  36.156  32.225   6.464
 5224POPC   D2A66412  36.085  32.231   6.764
 5224POPC   C3A66413  36.170  32.208   7.064
 5224POPC   C4A66414  36.080  32.288   7.364
 5224POPC   C1B66415  36.371  32.220   6.464
 5224POPC   C2B66416  36.390  32.218   6.764
 5224POPC   C3B66417  36.379  32.250   7.064
 5224POPC   C4B66418  36.412  32.162   7.364
 5225POPC   NC366419   1.241  29.154   5.564
 5225POPC   PO466420   1.224  29.123   5.864
 5225POPC   GL166421   1.201  29.121   6.164
 5225POPC   GL266422   1.224  28.984   6.164
 5225POPC   C1A66423   1.176  29.121   6.464
 5225POPC   D2A66424   1.260  29.165   6.764
 5225POPC   C3A66425   1.204  29.184   7.064
 5225POPC   C4A66426   1.187  29.146   7.364
 5225POPC   C1B66427   1.330  28.947   6.464
 5225POPC   C2B66428   1.325  28.874   6.764
 5225POPC   C3B66429   1.309  28.887   7.064
 5225POPC   C4B66430   1.301  28.933   7.364
 5226POPC   NC366431   2.779  21.345   5.564
 5226POPC   PO466432   2.803  21.430   5.864
 5226POPC   GL166433   2.807  21.415   6.164
 5226POPC   GL266434   2.825  21.494   6.164
 5226POPC   C1A66435   2.770  21.362   6.464
 5226POPC   D2A66436   2.760  21.401   6.764
 5226POPC   C3A66437   2.793  21.375   7.064
 5226POPC   C4A66438   2.762  21.373   7.364
 5226POPC   C1B66439   2.803  21.647   6.464
 5226POPC   C2B66440   2.804  21.629   6.764
 5226POPC   C3B66441   2.868  21.593   7.064
 5226POPC   C4B66442   2.880  21.629   7.364
 5227POPC   NC366443   1.973  44.700   5.564
 5227POPC   PO466444   2.039  44.619   5.864
 5227POPC   GL166445   1.954  44.706   6.164
 5227POPC   GL266446   2.047  44.527   6.164
 5227POPC   C1A66447   2.018  44.694   6.464
 5227POPC   D2A66448   1.958  44.696   6.764
 5227POPC   C3A66449   1.947  44.616   7.064
 5227POPC   C4A66450   2.020  44.627   7.364
 5227POPC   C1B66451   2.153  44.464   6.464
 5227POPC   C2B66452   2.071  44.492   6.764
 5227POPC   C3B66453   2.141  44.476   7.064
 5227POPC   C4B66454   2.160  44.437   7.364
 5228POPC   NC366455  12.097  12.085   5.564
 5228POPC   PO466456  12.068  12.090   5.864
 5228POPC   GL166457  12.033  12.026   6.164
 5228POPC   GL266458  12.177  12.002   6.164
 5228POPC   C1A66459  12.060  12.091   6.464
 5228POPC   D2A66460  12.034  12.076   6.764
 5228POPC   C3A66461  12.085  12.092   7.064
 5228POPC   C4A66462  12.078  12.094   7.364
 5228POPC   C1B66463  12.215  11.911   6.464
 5228POPC   C2B66464  12.284  11.887   6.764
 5228POPC   C3B66465  12.305  11.876   7.064
 5228POPC   C4B66466  12.226  11.924   7.364
 5229POPC   NC366467  15.174  39.996   5.564
 5229POPC   PO466468  15.130  39.967   5.864
 5229POPC   GL166469  15.130  40.048   6.164
 5229POPC   GL266470  15.308  39.941   6.164
 5229POPC   C1A66471  15.196  40.043   6.464
 5229POPC   D2A66472  15.223  40.040   6.764
 5229POPC   C3A66473  15.179  40.034   7.064
 5229POPC   C4A66474  15.169  40.053   7.364
 5229POPC   C1B66475  15.384  39.946   6.464
 5229POPC   C2B66476  15.456  39.941   6.764
 5229POPC   C3B66477  15.441  39.858   7.064
 5229POPC   C4B66478  15.407  39.889   7.364
 5230POPC   NC366479  36.898  17.470   5.564
 5230POPC   PO466480  36.911  17.497   5.864
 5230POPC   GL166481  36.863  17.524   6.164
 5230POPC   GL266482  36.847  17.611   6.164
 5230POPC   C1A66483  36.926  17.472   6.464
 5230POPC   D2A66484  36.859  17.554   6.764
 5230POPC   C3A66485  36.942  17.531   7.064
 5230POPC   C4A66486  36.868  17.555   7.364
 5230POPC   C1B66487  36.821  17.714   6.464
 5230POPC   C2B66488  36.860  17.784   6.764
 5230POPC   C3B66489  36.807  17.705   7.064
 5230POPC   C4B66490  36.803  17.713   7.364
 5231POPC   NC366491  43.114  43.922   5.564
 5231POPC   PO466492  43.125  43.878   5.864
 5231POPC   GL166493  43.155  43.901   6.164
 5231POPC   GL266494  43.126  44.011   6.164
 5231POPC   C1A66495  43.128  43.912   6.464
 5231POPC   D2A66496  43.112  43.896   6.764
 5231POPC   C3A66497  43.137  43.893   7.064
 5231POPC   C4A66498  43.121  43.883   7.364
 5231POPC   C1B66499  43.137  44.135   6.464
 5231POPC   C2B66500  43.095  44.166   6.764
 5231POPC   C3B66501  43.164  44.160   7.064
 5231POPC   C4B66502  43.122  44.102   7.364
 5232POPC   NC366503   2.794  12.881   5.564
 5232POPC   PO466504   2.734  12.891   5.864
 5232POPC   GL166505   2.724  12.891   6.164
 5232POPC   GL266506   2.666  12.970   6.164
 5232POPC   C1A66507   2.744  12.896   6.464
 5232POPC   D2A66508   2.773  12.876   6.764
 5232POPC   C3A66509   2.801  12.873   7.064
 5232POPC   C4A66510   2.741  12.879   7.364
 5232POPC   C1B66511   2.619  13.071   6.464
 5232POPC   C2B66512   2.662  13.094   6.764
 5232POPC   C3B66513   2.585  13.054   7.064
 5232POPC   C4B66514   2.646  13.090   7.364
 5233POPC   NC366515  25.241  36.891   5.564
 5233POPC   PO466516  25.288  36.857   5.864
 5233POPC   GL166517  25.274  36.950   6.164
 5233POPC   GL266518  25.186  37.001   6.164
 5233POPC   C1A66519  25.245  36.861   6.464
 5233POPC   D2A66520  25.311  36.900   6.764
 5233POPC   C3A66521  25.304  36.898   7.064
 5233POPC   C4A66522  25.278  36.911   7.364
 5233POPC   C1B66523  25.050  36.958   6.464
 5233POPC   C2B66524  25.066  36.955   6.764
 5233POPC   C3B66525  25.074  36.984   7.064
 5233POPC   C4B66526  25.075  37.048   7.364
 5234POPC   NC366527  18.288   5.824   5.564
 5234POPC   PO466528  18.327   5.854   5.864
 5234POPC   GL166529  18.323   5.896   6.164
 5234POPC   GL266530  18.160   5.983   6.164
 5234POPC   C1A66531  18.241   5.839   6.464
 5234POPC   D2A66532  18.271   5.915   6.764
 5234POPC   C3A66533  18.255   5.865   7.064
 5234POPC   C4A66534  18.233   5.909   7.364
 5234POPC   C1B66535  18.124   6.061   6.464
 5234POPC   C2B66536  18.165   6.083   6.764
 5234POPC   C3B66537  18.134   6.036   7.064
 5234POPC   C4B66538  18.131   6.060   7.364
 5235POPC   NC366539  14.405  25.308   5.564
 5235POPC   PO466540  14.436  25.217   5.864
 5235POPC   GL166541  14.420  25.234   6.164
 5235POPC   GL266542  14.506  25.413   6.164
 5235POPC   C1A66543  14.371  25.300   6.464
 5235POPC   D2A66544  14.434  25.280   6.764
 5235POPC   C3A66545  14.405  25.300   7.064
 5235POPC   C4A66546  14.399  25.260   7.364
 5235POPC   C1B66547  14.491  25.448   6.464
 5235POPC   C2B66548  14.567  25.470   6.764
 5235POPC   C3B66549  14.535  25.523   7.064
 5235POPC   C4B66550  14.490  25.483   7.364
 5236POPC   NC366551   3.493  36.903   5.564
 5236POPC   PO466552   3.539  36.872   5.864
 5236POPC   GL166553   3.542  36.948   6.164
 5236POPC   GL266554   3.401  36.951   6.164
 5236POPC   C1A66555   3.549  36.903   6.464
 5236POPC   D2A66556   3.547  36.905   6.764
 5236POPC   C3A66557   3.591  36.913   7.064
 5236POPC   C4A66558   3.500  36.930   7.364
 5236POPC   C1B66559   3.327  37.009   6.464
 5236POPC   C2B66560   3.266  37.017   6.764
 5236POPC   C3B66561   3.322  37.009   7.064
 5236POPC   C4B66562   3.283  37.026   7.364
 5237POPC   NC366563  19.031  16.696   5.564
 5237POPC   PO466564  19.089  16.698   5.864
 5237POPC   GL166565  19.094  16.686   6.164
 5237POPC   GL266566  19.100  16.844   6.164
 5237POPC   C1A66567  19.046  16.775   6.464
 5237POPC   D2A66568  19.108  16.711   6.764
 5237POPC   C3A66569  19.064  16.770   7.064
 5237POPC   C4A66570  19.079  16.696   7.364
 5237POPC   C1B66571  19.164  16.942   6.464
 5237POPC   C2B66572  19.107  16.953   6.764
 5237POPC   C3B66573  19.123  16.986   7.064
 5237POPC   C4B66574  19.138  16.975   7.364
 5238POPC   NC366575  39.226  25.273   5.564
 5238POPC   PO466576  39.259  25.249   5.864
 5238POPC   GL166577  39.206  25.257   6.164
 5238POPC   GL266578  39.337  25.395   6.164
 5238POPC   C1A66579  39.201  25.273   6.464
 5238POPC   D2A66580  39.205  25.230   6.764
 5238POPC   C3A66581  39.265  25.240   7.064
 5238POPC   C4A66582  39.235  25.217   7.364
 5238POPC   C1B66583  39.347  25.511   6.464
 5238POPC   C2B66584  39.329  25.445   6.764
 5238POPC   C3B66585  39.373  25.438   7.064
 5238POPC   C4B66586  39.347  25.506   7.364
 5239POPC   NC366587  15.206  16.692   5.564
 5239POPC   PO466588  15.177  16.689   5.864
 5239POPC   GL166589  15.198  16.719   6.164
 5239POPC   GL266590  15.252  16.759   6.164
 5239POPC   C1A66591  15.181  16.684   6.464
 5239POPC   D2A66592  15.184  16.715   6.764
 5239POPC   C3A66593  15.222  16.733   7.064
 5239POPC   C4A66594  15.154  16.706   7.364
 5239POPC   C1B66595  15.355  16.914   6.464
 5239POPC   C2B66596  15.349  16.902   6.764
 5239POPC   C3B66597  15.409  16.820   7.064
 5239POPC   C4B66598  15.434  16.836   7.364
 5240POPC   NC366599   6.612  12.831   5.564
 5240POPC   PO466600   6.693  12.884   5.864
 5240POPC   GL166601   6.682  12.880   6.164
 5240POPC   GL266602   6.775  12.776   6.164
 5240POPC   C1A66603   6.666  12.821   6.464
 5240POPC   D2A66604   6.665  12.866   6.764
 5240POPC   C3A66605   6.691  12.895   7.064
 5240POPC   C4A66606   6.631  12.890   7.364
 5240POPC   C1B66607   6.891  12.794   6.464
 5240POPC   C2B66608   6.925  12.744   6.764
 5240POPC   C3B66609   6.862  12.778   7.064
 5240POPC   C4B66610   6.828  12.716   7.364
 5241POPC   NC366611  17.500  41.588   5.564
 5241POPC   PO466612  17.473  41.578   5.864
 5241POPC   GL166613  17.550  41.586   6.164
 5241POPC   GL266614  17.389  41.570   6.164
 5241POPC   C1A66615  17.474  41.523   6.464
 5241POPC   D2A66616  17.498  41.510   6.764
 5241POPC   C3A66617  17.520  41.601   7.064
 5241POPC   C4A66618  17.459  41.561   7.364
 5241POPC   C1B66619  17.294  41.464   6.464
 5241POPC   C2B66620  17.222  41.488   6.764
 5241POPC   C3B66621  17.285  41.454   7.064
 5241POPC   C4B66622  17.233  41.463   7.364
 5242POPC   NC366623  11.341  20.644   5.564
 5242POPC   PO466624  11.333  20.626   5.864
 5242POPC   GL166625  11.343  20.566   6.164
 5242POPC   GL266626  11.405  20.506   6.164
 5242POPC   C1A66627  11.287  20.584   6.464
 5242POPC   D2A66628  11.282  20.595   6.764
 5242POPC   C3A66629  11.307  20.597   7.064
 5242POPC   C4A66630  11.278  20.618   7.364
 5242POPC   C1B66631  11.513  20.439   6.464
 5242POPC   C2B66632  11.499  20.401   6.764
 5242POPC   C3B66633  11.443  20.383   7.064
 5242POPC   C4B66634  11.492  20.439   7.364
 5243POPC   NC366635  24.536  43.897   5.564
 5243POPC   PO466636  24.519  43.919   5.864
 5243POPC   GL166637  24.472  43.868   6.164
 5243POPC   GL266638  24.444  43.736   6.164
 5243POPC   C1A66639  24.457  43.841   6.464
 5243POPC   D2A66640  24.504  43.919   6.764
 5243POPC   C3A66641  24.467  43.881   7.064
 5243POPC   C4A66642  24.499  43.906   7.364
 5243POPC   C1B66643  24.408  43.633   6.464
 5243POPC   C2B66644  24.412  43.667   6.764
 5243POPC   C3B66645  24.419  43.690   7.064
 5243POPC   C4B66646  24.411  43.676   7.364
 5244POPC   NC366647  33.752  38.498   5.564
 5244POPC   PO466648  33.828  38.478   5.864
 5244POPC   GL166649  33.826  38.408   6.164
 5244POPC   GL266650  33.653  38.445   6.164
 5244POPC   C1A66651  33.816  38.485   6.464
 5244POPC   D2A66652  33.756  38.497   6.764
 5244POPC   C3A66653  33.767  38.429   7.064
 5244POPC   C4A66654  33.836  38.459   7.364
 5244POPC   C1B66655  33.581  38.379   6.464
 5244POPC   C2B66656  33.613  38.355   6.764
 5244POPC   C3B66657  33.590  38.361   7.064
 5244POPC   C4B66658  33.546  38.386   7.364
 5245POPC   NC366659   8.239  30.734   5.564
 5245POPC   PO466660   8.243  30.743   5.864
 5245POPC   GL166661   8.201  30.683   6.164
 5245POPC   GL266662   8.064  30.673   6.164
 5245POPC   C1A66663   8.194  30.700   6.464
 5245POPC   D2A66664   8.156  30.650   6.764
 5245POPC   C3A66665   8.178  30.658   7.064
 5245POPC   C4A66666   8.214  30.727   7.364
 5245POPC   C1B66667   7.917  30.682   6.464
 5245POPC   C2B66668   7.925  30.683   6.764
 5245POPC   C3B66669   7.944  30.736   7.064
 5245POPC   C4B66670   7.897  30.690   7.364
 5246POPC   NC366671  31.519  12.894   5.564
 5246POPC   PO466672  31.483  12.811   5.864
 5246POPC   GL166673  31.478  12.807   6.164
 5246POPC   GL266674  31.486  13.026   6.164
 5246POPC   C1A66675  31.490  12.847   6.464
 5246POPC   D2A66676  31.458  12.855   6.764
 5246POPC   C3A66677  31.476  12.876   7.064
 5246POPC   C4A66678  31.423  12.849   7.364
 5246POPC   C1B66679  31.427  13.097   6.464
 5246POPC   C2B66680  31.507  13.147   6.764
 5246POPC   C3B66681  31.463  13.122   7.064
 5246POPC   C4B66682  31.518  13.137   7.364
 5247POPC   NC366683   0.420  19.013   5.564
 5247POPC   PO466684   0.398  19.078   5.864
 5247POPC   GL166685   0.388  19.068   6.164
 5247POPC   GL266686   0.334  19.042   6.164
 5247POPC   C1A66687   0.452  19.033   6.464
 5247POPC   D2A66688   0.470  19.062   6.764
 5247POPC   C3A66689   0.463  19.081   7.064
 5247POPC   C4A66690   0.445  19.064   7.364
 5247POPC   C1B66691   0.229  18.916   6.464
 5247POPC   C2B66692   0.191  18.952   6.764
 5247POPC   C3B66693   0.174  18.935   7.064
 5247POPC   C4B66694   0.199  18.977   7.364
 5248POPC   NC366695  21.363  31.471   5.564
 5248POPC   PO466696  21.367  31.479   5.864
 5248POPC   GL166697  21.385  31.450   6.164
 5248POPC   GL266698  21.325  31.401   6.164
 5248POPC   C1A66699  21.354  31.437   6.464
 5248POPC   D2A66700  21.358  31.477   6.764
 5248POPC   C3A66701  21.372  31.514   7.064
 5248POPC   C4A66702  21.428  31.522   7.364
 5248POPC   C1B66703  21.273  31.296   6.464
 5248POPC   C2B66704  21.268  31.253   6.764
 5248POPC   C3B66705  21.215  31.228   7.064
 5248POPC   C4B66706  21.259  31.277   7.364
 5249POPC   NC366707   2.033   8.925   5.564
 5249POPC   PO466708   2.024   9.012   5.864
 5249POPC   GL166709   1.955   9.007   6.164
 5249POPC   GL266710   2.116   8.852   6.164
 5249POPC   C1A66711   1.989   9.006   6.464
 5249POPC   D2A66712   2.028   8.924   6.764
 5249POPC   C3A66713   2.015   8.982   7.064
 5249POPC   C4A66714   1.947   8.924   7.364
 5249POPC   C1B66715   2.195   8.816   6.464
 5249POPC   C2B66716   2.141   8.764   6.764
 5249POPC   C3B66717   2.217   8.842   7.064
 5249POPC   C4B66718   2.179   8.792   7.364
 5250POPC   NC366719  23.741  21.405   5.564
 5250POPC   PO466720  23.742  21.362   5.864
 5250POPC   GL166721  23.676  21.435   6.164
 5250POPC   GL266722  23.685  21.507   6.164
 5250POPC   C1A66723  23.719  21.375   6.464
 5250POPC   D2A66724  23.714  21.406   6.764
 5250POPC   C3A66725  23.758  21.392   7.064
 5250POPC   C4A66726  23.762  21.400   7.364
 5250POPC   C1B66727  23.744  21.595   6.464
 5250POPC   C2B66728  23.772  21.594   6.764
 5250POPC   C3B66729  23.752  21.612   7.064
 5250POPC   C4B66730  23.792  21.672   7.364
 5251POPC   NC366731  33.073   1.229   5.564
 5251POPC   PO466732  33.008   1.189   5.864
 5251POPC   GL166733  32.980   1.180   6.164
 5251POPC   GL266734  33.099   1.118   6.164
 5251POPC   C1A66735  33.065   1.168   6.464
 5251POPC   D2A66736  33.066   1.185   6.764
 5251POPC   C3A66737  33.047   1.204   7.064
 5251POPC   C4A66738  32.984   1.225   7.364
 5251POPC   C1B66739  33.115   0.930   6.464
 5251POPC   C2B66740  33.049   0.992   6.764
 5251POPC   C3B66741  33.056   0.978   7.064
 5251POPC   C4B66742  33.097   0.953   7.364
 5252POPC   NC366743  31.507  38.426   5.564
 5252POPC   PO466744  31.448  38.438   5.864
 5252POPC   GL166745  31.467  38.469   6.164
 5252POPC   GL266746  31.594  38.490   6.164
 5252POPC   C1A66747  31.512  38.409   6.464
 5252POPC   D2A66748  31.507  38.457   6.764
 5252POPC   C3A66749  31.455  38.456   7.064
 5252POPC   C4A66750  31.522  38.461   7.364
 5252POPC   C1B66751  31.750  38.430   6.464
 5252POPC   C2B66752  31.685  38.411   6.764
 5252POPC   C3B66753  31.769  38.473   7.064
 5252POPC   C4B66754  31.719  38.408   7.364
 5253POPC   NC366755  33.775  43.839   5.564
 5253POPC   PO466756  33.849  43.860   5.864
 5253POPC   GL166757  33.815  43.928   6.164
 5253POPC   GL266758  33.937  43.909   6.164
 5253POPC   C1A66759  33.816  43.863   6.464
 5253POPC   D2A66760  33.818  43.883   6.764
 5253POPC   C3A66761  33.796  43.912   7.064
 5253POPC   C4A66762  33.761  43.896   7.364
 5253POPC   C1B66763  34.005  44.036   6.464
 5253POPC   C2B66764  34.012  44.002   6.764
 5253POPC   C3B66765  34.061  43.948   7.064
 5253POPC   C4B66766  34.025  44.028   7.364
 5254POPC   NC366767  15.927  18.319   5.564
 5254POPC   PO466768  15.940  18.317   5.864
 5254POPC   GL166769  15.910  18.318   6.164
 5254POPC   GL266770  15.927  18.158   6.164
 5254POPC   C1A66771  15.937  18.245   6.464
 5254POPC   D2A66772  15.988  18.290   6.764
 5254POPC   C3A66773  15.968  18.241   7.064
 5254POPC   C4A66774  15.961  18.278   7.364
 5254POPC   C1B66775  15.878  18.070   6.464
 5254POPC   C2B66776  15.831  18.064   6.764
 5254POPC   C3B66777  15.822  18.093   7.064
 5254POPC   C4B66778  15.854  18.017   7.364
 5255POPC   NC366779  20.651  24.502   5.564
 5255POPC   PO466780  20.567  24.503   5.864
 5255POPC   GL166781  20.620  24.474   6.164
 5255POPC   GL266782  20.701  24.412   6.164
 5255POPC   C1A66783  20.610  24.512   6.464
 5255POPC   D2A66784  20.642  24.536   6.764
 5255POPC   C3A66785  20.651  24.537   7.064
 5255POPC   C4A66786  20.625  24.517   7.364
 5255POPC   C1B66787  20.660  24.242   6.464
 5255POPC   C2B66788  20.728  24.237   6.764
 5255POPC   C3B66789  20.676  24.285   7.064
 5255POPC   C4B66790  20.675  24.266   7.364
 5256POPC   NC366791  32.209  37.708   5.564
 5256POPC   PO466792  32.227  37.651   5.864
 5256POPC   GL166793  32.293  37.659   6.164
 5256POPC   GL266794  32.309  37.825   6.164
 5256POPC   C1A66795  32.223  37.651   6.464
 5256POPC   D2A66796  32.201  37.684   6.764
 5256POPC   C3A66797  32.222  37.641   7.064
 5256POPC   C4A66798  32.258  37.662   7.364
 5256POPC   C1B66799  32.325  37.940   6.464
 5256POPC   C2B66800  32.365  37.846   6.764
 5256POPC   C3B66801  32.393  37.857   7.064
 5256POPC   C4B66802  32.351  37.890   7.364
 5257POPC   NC366803   1.221  19.851   5.564
 5257POPC   PO466804   1.242  19.850   5.864
 5257POPC   GL166805   1.184  19.881   6.164
 5257POPC   GL266806   1.154  19.763   6.164
 5257POPC   C1A66807   1.243  19.817   6.464
 5257POPC   D2A66808   1.256  19.792   6.764
 5257POPC   C3A66809   1.188  19.844   7.064
 5257POPC   C4A66810   1.241  19.868   7.364
 5257POPC   C1B66811   1.093  19.576   6.464
 5257POPC   C2B66812   1.076  19.582   6.764
 5257POPC   C3B66813   1.088  19.563   7.064
 5257POPC   C4B66814   1.097  19.641   7.364
 5258POPC   NC366815  25.229  33.814   5.564
 5258POPC   PO466816  25.279  33.789   5.864
 5258POPC   GL166817  25.289  33.787   6.164
 5258POPC   GL266818  25.259  33.909   6.164
 5258POPC   C1A66819  25.283  33.845   6.464
 5258POPC   D2A66820  25.216  33.830   6.764
 5258POPC   C3A66821  25.278  33.781   7.064
 5258POPC   C4A66822  25.289  33.785   7.364
 5258POPC   C1B66823  25.171  34.008   6.464
 5258POPC   C2B66824  25.226  34.042   6.764
 5258POPC   C3B66825  25.217  34.040   7.064
 5258POPC   C4B66826  25.222  34.033   7.364
 5259POPC   NC366827  18.329  40.764   5.564
 5259POPC   PO466828  18.239  40.778   5.864
 5259POPC   GL166829  18.312  40.751   6.164
 5259POPC   GL266830  18.338  40.932   6.164
 5259POPC   C1A66831  18.281  40.792   6.464
 5259POPC   D2A66832  18.263  40.790   6.764
 5259POPC   C3A66833  18.258  40.799   7.064
 5259POPC   C4A66834  18.300  40.733   7.364
 5259POPC   C1B66835  18.387  41.005   6.464
 5259POPC   C2B66836  18.398  40.964   6.764
 5259POPC   C3B66837  18.422  41.050   7.064
 5259POPC   C4B66838  18.383  41.029   7.364
 5260POPC   NC366839   9.718  34.546   5.564
 5260POPC   PO466840   9.742  34.527   5.864
 5260POPC   GL166841   9.701  34.574   6.164
 5260POPC   GL266842   9.815  34.460   6.164
 5260POPC   C1A66843   9.713  34.541   6.464
 5260POPC   D2A66844   9.737  34.555   6.764
 5260POPC   C3A66845   9.723  34.594   7.064
 5260POPC   C4A66846   9.709  34.568   7.364
 5260POPC   C1B66847   9.934  34.333   6.464
 5260POPC   C2B66848   9.859  34.399   6.764
 5260POPC   C3B66849   9.905  34.368   7.064
 5260POPC   C4B66850   9.951  34.364   7.364
 5261POPC   NC366851  32.287  43.874   5.564
 5261POPC   PO466852  32.266  43.873   5.864
 5261POPC   GL166853  32.259  43.848   6.164
 5261POPC   GL266854  32.165  43.878   6.164
 5261POPC   C1A66855  32.289  43.915   6.464
 5261POPC   D2A66856  32.269  43.861   6.764
 5261POPC   C3A66857  32.272  43.863   7.064
 5261POPC   C4A66858  32.282  43.889   7.364
 5261POPC   C1B66859  32.013  43.922   6.464
 5261POPC   C2B66860  32.014  43.882   6.764
 5261POPC   C3B66861  32.027  43.915   7.064
 5261POPC   C4B66862  32.011  43.887   7.364
 5262POPC   NC366863  11.287  11.285   5.564
 5262POPC   PO466864  11.337  11.294   5.864
 5262POPC   GL166865  11.256  11.293   6.164
 5262POPC   GL266866  11.171  11.330   6.164
 5262POPC   C1A66867  11.259  11.313   6.464
 5262POPC   D2A66868  11.262  11.290   6.764
 5262POPC   C3A66869  11.292  11.336   7.064
 5262POPC   C4A66870  11.288  11.329   7.364
 5262POPC   C1B66871  11.036  11.345   6.464
 5262POPC   C2B66872  11.076  11.326   6.764
 5262POPC   C3B66873  11.025  11.333   7.064
 5262POPC   C4B66874  11.019  11.395   7.364
 5263POPC   NC366875  18.254  23.707   5.564
 5263POPC   PO466876  18.237  23.690   5.864
 5263POPC   GL166877  18.332  23.692   6.164
 5263POPC   GL266878  18.370  23.819   6.164
 5263POPC   C1A66879  18.248  23.731   6.464
 5263POPC   D2A66880  18.235  23.670   6.764
 5263POPC   C3A66881  18.247  23.742   7.064
 5263POPC   C4A66882  18.274  23.699   7.364
 5263POPC   C1B66883  18.378  23.933   6.464
 5263POPC   C2B66884  18.413  23.951   6.764
 5263POPC   C3B66885  18.378  23.925   7.064
 5263POPC   C4B66886  18.416  23.959   7.364
 5264POPC   NC366887  40.749  16.690   5.564
 5264POPC   PO466888  40.737  16.722   5.864
 5264POPC   GL166889  40.800  16.702   6.164
 5264POPC   GL266890  40.736  16.629   6.164
 5264POPC   C1A66891  40.748  16.692   6.464
 5264POPC   D2A66892  40.784  16.709   6.764
 5264POPC   C3A66893  40.809  16.724   7.064
 5264POPC   C4A66894  40.800  16.698   7.364
 5264POPC   C1B66895  40.711  16.480   6.464
 5264POPC   C2B66896  40.706  16.470   6.764
 5264POPC   C3B66897  40.738  16.531   7.064
 5264POPC   C4B66898  40.774  16.470   7.364
 5265POPC   NC366899   9.009  16.713   5.564
 5265POPC   PO466900   8.979  16.752   5.864
 5265POPC   GL166901   8.963  16.756   6.164
 5265POPC   GL266902   9.043  16.622   6.164
 5265POPC   C1A66903   8.939  16.772   6.464
 5265POPC   D2A66904   8.994  16.755   6.764
 5265POPC   C3A66905   8.975  16.750   7.064
 5265POPC   C4A66906   8.947  16.775   7.364
 5265POPC   C1B66907   9.176  16.522   6.464
 5265POPC   C2B66908   9.077  16.534   6.764
 5265POPC   C3B66909   9.118  16.507   7.064
 5265POPC   C4B66910   9.103  16.512   7.364
 5266POPC   NC366911  38.448   5.073   5.564
 5266POPC   PO466912  38.421   5.142   5.864
 5266POPC   GL166913  38.426   5.082   6.164
 5266POPC   GL266914  38.534   5.122   6.164
 5266POPC   C1A66915  38.456   5.133   6.464
 5266POPC   D2A66916  38.430   5.049   6.764
 5266POPC   C3A66917  38.431   5.105   7.064
 5266POPC   C4A66918  38.456   5.090   7.364
 5266POPC   C1B66919  38.718   5.091   6.464
 5266POPC   C2B66920  38.712   5.067   6.764
 5266POPC   C3B66921  38.691   5.064   7.064
 5266POPC   C4B66922  38.660   5.041   7.364
 5267POPC   NC366923  19.019  43.886   5.564
 5267POPC   PO466924  19.096  43.890   5.864
 5267POPC   GL166925  19.064  43.857   6.164
 5267POPC   GL266926  19.072  43.760   6.164
 5267POPC   C1A66927  19.071  43.873   6.464
 5267POPC   D2A66928  19.080  43.898   6.764
 5267POPC   C3A66929  19.101  43.890   7.064
 5267POPC   C4A66930  19.021  43.837   7.364
 5267POPC   C1B66931  19.009  43.649   6.464
 5267POPC   C2B66932  19.015  43.642   6.764
 5267POPC   C3B66933  19.034  43.685   7.064
 5267POPC   C4B66934  18.957  43.658   7.364
 5268POPC   NC366935  39.974  25.306   5.564
 5268POPC   PO466936  40.025  25.310   5.864
 5268POPC   GL166937  40.048  25.255   6.164
 5268POPC   GL266938  39.916  25.244   6.164
 5268POPC   C1A66939  39.974  25.286   6.464
 5268POPC   D2A66940  40.004  25.261   6.764
 5268POPC   C3A66941  40.052  25.242   7.064
 5268POPC   C4A66942  39.986  25.282   7.364
 5268POPC   C1B66943  39.790  25.171   6.464
 5268POPC   C2B66944  39.742  25.131   6.764
 5268POPC   C3B66945  39.795  25.140   7.064
 5268POPC   C4B66946  39.765  25.225   7.364
 5269POPC   NC366947   7.433  29.098   5.564
 5269POPC   PO466948   7.383  29.147   5.864
 5269POPC   GL166949   7.454  29.181   6.164
 5269POPC   GL266950   7.563  29.199   6.164
 5269POPC   C1A66951   7.445  29.178   6.464
 5269POPC   D2A66952   7.400  29.148   6.764
 5269POPC   C3A66953   7.380  29.135   7.064
 5269POPC   C4A66954   7.465  29.128   7.364
 5269POPC   C1B66955   7.595  29.291   6.464
 5269POPC   C2B66956   7.647  29.315   6.764
 5269POPC   C3B66957   7.622  29.301   7.064
 5269POPC   C4B66958   7.672  29.292   7.364
 5270POPC   NC366959  19.785  35.326   5.564
 5270POPC   PO466960  19.822  35.332   5.864
 5270POPC   GL166961  19.789  35.307   6.164
 5270POPC   GL266962  19.674  35.349   6.164
 5270POPC   C1A66963  19.855  35.353   6.464
 5270POPC   D2A66964  19.785  35.340   6.764
 5270POPC   C3A66965  19.798  35.324   7.064
 5270POPC   C4A66966  19.869  35.325   7.364
 5270POPC   C1B66967  19.562  35.289   6.464
 5270POPC   C2B66968  19.632  35.293   6.764
 5270POPC   C3B66969  19.542  35.345   7.064
 5270POPC   C4B66970  19.572  35.314   7.364
 5271POPC   NC366971   3.516   1.998   5.564
 5271POPC   PO466972   3.493   1.954   5.864
 5271POPC   GL166973   3.540   2.039   6.164
 5271POPC   GL266974   3.457   2.040   6.164
 5271POPC   C1A66975   3.531   1.980   6.464
 5271POPC   D2A66976   3.560   2.028   6.764
 5271POPC   C3A66977   3.524   1.980   7.064
 5271POPC   C4A66978   3.578   1.950   7.364
 5271POPC   C1B66979   3.359   2.165   6.464
 5271POPC   C2B66980   3.294   2.141   6.764
 5271POPC   C3B66981   3.377   2.121   7.064
 5271POPC   C4B66982   3.311   2.132   7.364
 5272POPC   NC366983   0.433  29.190   5.564
 5272POPC   PO466984   0.476  29.187   5.864
 5272POPC   GL166985   0.420  29.103   6.164
 5272POPC   GL266986   0.339  29.063   6.164
 5272POPC   C1A66987   0.476  29.190   6.464
 5272POPC   D2A66988   0.483  29.162   6.764
 5272POPC   C3A66989   0.415  29.167   7.064
 5272POPC   C4A66990   0.463  29.108   7.364
 5272POPC   C1B66991   0.240  28.992   6.464
 5272POPC   C2B66992   0.196  28.967   6.764
 5272POPC   C3B66993   0.281  28.992   7.064
 5272POPC   C4B66994   0.275  29.036   7.364
 5273POPC   NC366995   6.614   4.306   5.564
 5273POPC   PO466996   6.651   4.328   5.864
 5273POPC   GL166997   6.671   4.318   6.164
 5273POPC   GL266998   6.742   4.265   6.164
 5273POPC   C1A66999   6.657   4.293   6.464
 5273POPC   D2A67000   6.620   4.360   6.764
 5273POPC   C3A67001   6.689   4.316   7.064
 5273POPC   C4A67002   6.605   4.288   7.364
 5273POPC   C1B67003   6.779   4.181   6.464
 5273POPC   C2B67004   6.793   4.112   6.764
 5273POPC   C3B67005   6.800   4.127   7.064
 5273POPC   C4B67006   6.793   4.099   7.364
 5274POPC   NC367007  15.156  37.645   5.564
 5274POPC   PO467008  15.172  37.648   5.864
 5274POPC   GL167009  15.209  37.688   6.164
 5274POPC   GL267010  15.139  37.757   6.164
 5274POPC   C1A67011  15.192  37.704   6.464
 5274POPC   D2A67012  15.155  37.706   6.764
 5274POPC   C3A67013  15.149  37.718   7.064
 5274POPC   C4A67014  15.176  37.719   7.364
 5274POPC   C1B67015  15.174  37.889   6.464
 5274POPC   C2B67016  15.150  37.903   6.764
 5274POPC   C3B67017  15.114  37.929   7.064
 5274POPC   C4B67018  15.189  37.902   7.364
 5275POPC   NC367019  39.967   5.844   5.564
 5275POPC   PO467020  40.024   5.834   5.864
 5275POPC   GL167021  39.966   5.891   6.164
 5275POPC   GL267022  39.900   5.867   6.164
 5275POPC   C1A67023  39.976   5.886   6.464
 5275POPC   D2A67024  39.996   5.851   6.764
 5275POPC   C3A67025  40.013   5.874   7.064
 5275POPC   C4A67026  39.993   5.832   7.364
 5275POPC   C1B67027  39.725   5.865   6.464
 5275POPC   C2B67028  39.772   5.873   6.764
 5275POPC   C3B67029  39.756   5.893   7.064
 5275POPC   C4B67030  39.775   5.894   7.364
 5276POPC   NC367031   3.578  38.410   5.564
 5276POPC   PO467032   3.565  38.442   5.864
 5276POPC   GL167033   3.581  38.407   6.164
 5276POPC   GL267034   3.452  38.569   6.164
 5276POPC   C1A67035   3.515  38.503   6.464
 5276POPC   D2A67036   3.494  38.499   6.764
 5276POPC   C3A67037   3.544  38.451   7.064
 5276POPC   C4A67038   3.520  38.470   7.364
 5276POPC   C1B67039   3.382  38.681   6.464
 5276POPC   C2B67040   3.361  38.588   6.764
 5276POPC   C3B67041   3.389  38.655   7.064
 5276POPC   C4B67042   3.326  38.588   7.364
 5277POPC   NC367043  35.392  27.558   5.564
 5277POPC   PO467044  35.321  27.560   5.864
 5277POPC   GL167045  35.371  27.587   6.164
 5277POPC   GL267046  35.246  27.536   6.164
 5277POPC   C1A67047  35.311  27.569   6.464
 5277POPC   D2A67048  35.345  27.576   6.764
 5277POPC   C3A67049  35.373  27.626   7.064
 5277POPC   C4A67050  35.340  27.563   7.364
 5277POPC   C1B67051  35.237  27.383   6.464
 5277POPC   C2B67052  35.173  27.411   6.764
 5277POPC   C3B67053  35.217  27.379   7.064
 5277POPC   C4B67054  35.203  27.413   7.364
 5278POPC   NC367055  12.892  19.070   5.564
 5278POPC   PO467056  12.804  19.013   5.864
 5278POPC   GL167057  12.825  19.010   6.164
 5278POPC   GL267058  12.945  19.016   6.164
 5278POPC   C1A67059  12.838  19.052   6.464
 5278POPC   D2A67060  12.831  19.039   6.764
 5278POPC   C3A67061  12.836  19.073   7.064
 5278POPC   C4A67062  12.876  19.100   7.364
 5278POPC   C1B67063  13.050  18.913   6.464
 5278POPC   C2B67064  13.048  18.899   6.764
 5278POPC   C3B67065  13.005  18.903   7.064
 5278POPC   C4B67066  13.040  18.876   7.364
 5279POPC   NC367067   3.591   6.681   5.564
 5279POPC   PO467068   3.570   6.611   5.864
 5279POPC   GL167069   3.568   6.690   6.164
 5279POPC   GL267070   3.478   6.720   6.164
 5279POPC   C1A67071   3.567   6.639   6.464
 5279POPC   D2A67072   3.502   6.640   6.764
 5279POPC   C3A67073   3.515   6.604   7.064
 5279POPC   C4A67074   3.558   6.608   7.364
 5279POPC   C1B67075   3.399   6.824   6.464
 5279POPC   C2B67076   3.417   6.842   6.764
 5279POPC   C3B67077   3.475   6.860   7.064
 5279POPC   C4B67078   3.424   6.872   7.364
 5280POPC   NC367079  39.268  35.400   5.564
 5280POPC   PO467080  39.225  35.349   5.864
 5280POPC   GL167081  39.197  35.352   6.164
 5280POPC   GL267082  39.311  35.436   6.164
 5280POPC   C1A67083  39.279  35.310   6.464
 5280POPC   D2A67084  39.181  35.316   6.764
 5280POPC   C3A67085  39.260  35.326   7.064
 5280POPC   C4A67086  39.252  35.323   7.364
 5280POPC   C1B67087  39.416  35.521   6.464
 5280POPC   C2B67088  39.454  35.467   6.764
 5280POPC   C3B67089  39.429  35.514   7.064
 5280POPC   C4B67090  39.443  35.443   7.364
 5281POPC   NC367091  26.792  24.448   5.564
 5281POPC   PO467092  26.834  24.479   5.864
 5281POPC   GL167093  26.776  24.520   6.164
 5281POPC   GL267094  26.891  24.378   6.164
 5281POPC   C1A67095  26.804  24.499   6.464
 5281POPC   D2A67096  26.817  24.516   6.764
 5281POPC   C3A67097  26.803  24.472   7.064
 5281POPC   C4A67098  26.850  24.495   7.364
 5281POPC   C1B67099  27.022  24.276   6.464
 5281POPC   C2B67100  26.942  24.299   6.764
 5281POPC   C3B67101  26.954  24.335   7.064
 5281POPC   C4B67102  26.998  24.319   7.364
 5282POPC   NC367103  24.494  14.391   5.564
 5282POPC   PO467104  24.454  14.381   5.864
 5282POPC   GL167105  24.479  14.359   6.164
 5282POPC   GL267106  24.617  14.432   6.164
 5282POPC   C1A67107  24.442  14.375   6.464
 5282POPC   D2A67108  24.476  14.410   6.764
 5282POPC   C3A67109  24.478  14.439   7.064
 5282POPC   C4A67110  24.525  14.429   7.364
 5282POPC   C1B67111  24.758  14.480   6.464
 5282POPC   C2B67112  24.777  14.415   6.764
 5282POPC   C3B67113  24.763  14.411   7.064
 5282POPC   C4B67114  24.774  14.395   7.364
 5283POPC   NC367115   4.339  11.294   5.564
 5283POPC   PO467116   4.325  11.300   5.864
 5283POPC   GL167117   4.345  11.326   6.164
 5283POPC   GL267118   4.413  11.331   6.164
 5283POPC   C1A67119   4.289  11.322   6.464
 5283POPC   D2A67120   4.268  11.273   6.764
 5283POPC   C3A67121   4.311  11.307   7.064
 5283POPC   C4A67122   4.293  11.279   7.364
 5283POPC   C1B67123   4.602  11.319   6.464
 5283POPC   C2B67124   4.583  11.351   6.764
 5283POPC   C3B67125   4.517  11.279   7.064
 5283POPC   C4B67126   4.555  11.344   7.364
 5284POPC   NC367127  32.979  28.393   5.564
 5284POPC   PO467128  33.031  28.338   5.864
 5284POPC   GL167129  33.064  28.409   6.164
 5284POPC   GL267130  32.992  28.474   6.164
 5284POPC   C1A67131  33.070  28.355   6.464
 5284POPC   D2A67132  33.000  28.406   6.764
 5284POPC   C3A67133  33.054  28.409   7.064
 5284POPC   C4A67134  33.070  28.371   7.364
 5284POPC   C1B67135  32.997  28.666   6.464
 5284POPC   C2B67136  32.995  28.572   6.764
 5284POPC   C3B67137  33.033  28.609   7.064
 5284POPC   C4B67138  32.994  28.659   7.364
 5285POPC   NC367139   8.165  39.222   5.564
 5285POPC   PO467140   8.235  39.230   5.864
 5285POPC   GL167141   8.196  39.221   6.164
 5285POPC   GL267142   8.268  39.207   6.164
 5285POPC   C1A67143   8.149  39.259   6.464
 5285POPC   D2A67144   8.211  39.273   6.764
 5285POPC   C3A67145   8.225  39.219   7.064
 5285POPC   C4A67146   8.236  39.212   7.364
 5285POPC   C1B67147   8.429  39.130   6.464
 5285POPC   C2B67148   8.396  39.104   6.764
 5285POPC   C3B67149   8.451  39.153   7.064
 5285POPC   C4B67150   8.398  39.111   7.364
 5286POPC   NC367151  43.935  17.498   5.564
 5286POPC   PO467152  43.895  17.537   5.864
 5286POPC   GL167153  43.889  17.548   6.164
 5286POPC   GL267154  43.769  17.477   6.164
 5286POPC   C1A67155  43.888  17.479   6.464
 5286POPC   D2A67156  43.924  17.463   6.764
 5286POPC   C3A67157  43.879  17.459   7.064
 5286POPC   C4A67158  43.849  17.550   7.364
 5286POPC   C1B67159  43.711  17.379   6.464
 5286POPC   C2B67160  43.651  17.363   6.764
 5286POPC   C3B67161  43.665  17.412   7.064
 5286POPC   C4B67162  43.639  17.390   7.364
 5287POPC   NC367163   6.646  38.438   5.564
 5287POPC   PO467164   6.685  38.494   5.864
 5287POPC   GL167165   6.689  38.457   6.164
 5287POPC   GL267166   6.620  38.380   6.164
 5287POPC   C1A67167   6.627  38.465   6.464
 5287POPC   D2A67168   6.679  38.470   6.764
 5287POPC   C3A67169   6.637  38.427   7.064
 5287POPC   C4A67170   6.629  38.450   7.364
 5287POPC   C1B67171   6.577  38.241   6.464
 5287POPC   C2B67172   6.551  38.229   6.764
 5287POPC   C3B67173   6.533  38.241   7.064
 5287POPC   C4B67174   6.522  38.209   7.364
 5288POPC   NC367175  23.736  28.395   5.564
 5288POPC   PO467176  23.730  28.377   5.864
 5288POPC   GL167177  23.708  28.377   6.164
 5288POPC   GL267178  23.745  28.543   6.164
 5288POPC   C1A67179  23.747  28.341   6.464
 5288POPC   D2A67180  23.750  28.387   6.764
 5288POPC   C3A67181  23.719  28.391   7.064
 5288POPC   C4A67182  23.693  28.366   7.364
 5288POPC   C1B67183  23.664  28.639   6.464
 5288POPC   C2B67184  23.688  28.569   6.764
 5288POPC   C3B67185  23.703  28.569   7.064
 5288POPC   C4B67186  23.680  28.609   7.364
 5289POPC   NC367187  20.564  22.924   5.564
 5289POPC   PO467188  20.608  22.905   5.864
 5289POPC   GL167189  20.626  22.918   6.164
 5289POPC   GL267190  20.704  22.932   6.164
 5289POPC   C1A67191  20.610  22.988   6.464
 5289POPC   D2A67192  20.576  22.945   6.764
 5289POPC   C3A67193  20.633  22.889   7.064
 5289POPC   C4A67194  20.626  22.958   7.364
 5289POPC   C1B67195  20.882  22.909   6.464
 5289POPC   C2B67196  20.850  22.921   6.764
 5289POPC   C3B67197  20.833  22.890   7.064
 5289POPC   C4B67198  20.826  22.920   7.364
 5290POPC   NC367199  43.927   9.765   5.564
 5290POPC   PO467200  43.921   9.782   5.864
 5290POPC   GL167201  43.899   9.742   6.164
 5290POPC   GL267202  43.899   9.599   6.164
 5290POPC   C1A67203  43.920   9.738   6.464
 5290POPC   D2A67204  43.874   9.720   6.764
 5290POPC   C3A67205  43.904   9.739   7.064
 5290POPC   C4A67206  43.890   9.786   7.364
 5290POPC   C1B67207  44.027   9.484   6.464
 5290POPC   C2B67208  43.977   9.517   6.764
 5290POPC   C3B67209  43.984   9.578   7.064
 5290POPC   C4B67210  44.043   9.527   7.364
 5291POPC   NC367211  18.296  16.692   5.564
 5291POPC   PO467212  18.248  16.762   5.864
 5291POPC   GL167213  18.314  16.687   6.164
 5291POPC   GL267214  18.227  16.857   6.164
 5291POPC   C1A67215  18.295  16.725   6.464
 5291POPC   D2A67216  18.314  16.688   6.764
 5291POPC   C3A67217  18.310  16.779   7.064
 5291POPC   C4A67218  18.253  16.745   7.364
 5291POPC   C1B67219  18.159  16.893   6.464
 5291POPC   C2B67220  18.106  16.884   6.764
 5291POPC   C3B67221  18.168  16.922   7.064
 5291POPC   C4B67222  18.087  16.956   7.364
 5292POPC   NC367223  19.791  22.164   5.564
 5292POPC   PO467224  19.797  22.204   5.864
 5292POPC   GL167225  19.838  22.148   6.164
 5292POPC   GL267226  19.702  22.067   6.164
 5292POPC   C1A67227  19.792  22.122   6.464
 5292POPC   D2A67228  19.791  22.130   6.764
 5292POPC   C3A67229  19.820  22.159   7.064
 5292POPC   C4A67230  19.812  22.134   7.364
 5292POPC   C1B67231  19.584  22.060   6.464
 5292POPC   C2B67232  19.617  22.058   6.764
 5292POPC   C3B67233  19.583  22.106   7.064
 5292POPC   C4B67234  19.590  22.084   7.364
 5293POPC   NC367235   5.834  34.579   5.564
 5293POPC   PO467236   5.912  34.600   5.864
 5293POPC   GL167237   5.849  34.527   6.164
 5293POPC   GL267238   5.996  34.472   6.164
 5293POPC   C1A67239   5.912  34.610   6.464
 5293POPC   D2A67240   5.897  34.605   6.764
 5293POPC   C3A67241   5.838  34.577   7.064
 5293POPC   C4A67242   5.867  34.557   7.364
 5293POPC   C1B67243   6.061  34.351   6.464
 5293POPC   C2B67244   6.046  34.411   6.764
 5293POPC   C3B67245   6.057  34.408   7.064
 5293POPC   C4B67246   6.074  34.409   7.364
 5294POPC   NC367247  42.317  32.210   5.564
 5294POPC   PO467248  42.306  32.246   5.864
 5294POPC   GL167249  42.382  32.253   6.164
 5294POPC   GL267250  42.470  32.236   6.164
 5294POPC   C1A67251  42.346  32.227   6.464
 5294POPC   D2A67252  42.312  32.202   6.764
 5294POPC   C3A67253  42.355  32.202   7.064
 5294POPC   C4A67254  42.298  32.277   7.364
 5294POPC   C1B67255  42.554  32.331   6.464
 5294POPC   C2B67256  42.577  32.336   6.764
 5294POPC   C3B67257  42.552  32.332   7.064
 5294POPC   C4B67258  42.559  32.284   7.364
 5295POPC   NC367259  15.161  29.100   5.564
 5295POPC   PO467260  15.172  29.121   5.864
 5295POPC   GL167261  15.142  29.158   6.164
 5295POPC   GL267262  15.312  29.055   6.164
 5295POPC   C1A67263  15.203  29.170   6.464
 5295POPC   D2A67264  15.169  29.178   6.764
 5295POPC   C3A67265  15.202  29.156   7.064
 5295POPC   C4A67266  15.204  29.135   7.364
 5295POPC   C1B67267  15.357  29.020   6.464
 5295POPC   C2B67268  15.377  29.001   6.764
 5295POPC   C3B67269  15.340  28.995   7.064
 5295POPC   C4B67270  15.373  28.983   7.364
 5296POPC   NC367271   0.459   1.966   5.564
 5296POPC   PO467272   0.403   1.981   5.864
 5296POPC   GL167273   0.394   1.977   6.164
 5296POPC   GL267274   0.345   2.037   6.164
 5296POPC   C1A67275   0.419   2.028   6.464
 5296POPC   D2A67276   0.422   2.006   6.764
 5296POPC   C3A67277   0.423   1.985   7.064
 5296POPC   C4A67278   0.456   1.980   7.364
 5296POPC   C1B67279   0.206   2.161   6.464
 5296POPC   C2B67280   0.248   2.130   6.764
 5296POPC   C3B67281   0.262   2.114   7.064
 5296POPC   C4B67282   0.266   2.156   7.364
 5297POPC   NC367283   3.522   2.738   5.564
 5297POPC   PO467284   3.527   2.767   5.864
 5297POPC   GL167285   3.516   2.809   6.164
 5297POPC   GL267286   3.557   2.601   6.164
 5297POPC   C1A67287   3.528   2.722   6.464
 5297POPC   D2A67288   3.548   2.810   6.764
 5297POPC   C3A67289   3.513   2.764   7.064
 5297POPC   C4A67290   3.590   2.750   7.364
 5297POPC   C1B67291   3.518   2.517   6.464
 5297POPC   C2B67292   3.580   2.505   6.764
 5297POPC   C3B67293   3.563   2.474   7.064
 5297POPC   C4B67294   3.596   2.468   7.364
 5298POPC   NC367295  16.753  26.019   5.564
 5298POPC   PO467296  16.748  26.050   5.864
 5298POPC   GL167297  16.725  25.997   6.164
 5298POPC   GL267298  16.797  25.903   6.164
 5298POPC   C1A67299  16.702  26.089   6.464
 5298POPC   D2A67300  16.722  26.029   6.764
 5298POPC   C3A67301  16.702  26.083   7.064
 5298POPC   C4A67302  16.691  25.999   7.364
 5298POPC   C1B67303  16.884  25.778   6.464
 5298POPC   C2B67304  16.805  25.788   6.764
 5298POPC   C3B67305  16.850  25.781   7.064
 5298POPC   C4B67306  16.811  25.862   7.364
 5299POPC   NC367307  18.313  35.316   5.564
 5299POPC   PO467308  18.248  35.363   5.864
 5299POPC   GL167309  18.234  35.371   6.164
 5299POPC   GL267310  18.184  35.355   6.164
 5299POPC   C1A67311  18.298  35.363   6.464
 5299POPC   D2A67312  18.252  35.315   6.764
 5299POPC   C3A67313  18.315  35.318   7.064
 5299POPC   C4A67314  18.273  35.335   7.364
 5299POPC   C1B67315  17.992  35.285   6.464
 5299POPC   C2B67316  18.047  35.310   6.764
 5299POPC   C3B67317  18.077  35.286   7.064
 5299POPC   C4B67318  18.013  35.284   7.364
 5300POPC   NC367319  35.304  39.246   5.564
 5300POPC   PO467320  35.307  39.190   5.864
 5300POPC   GL167321  35.332  39.237   6.164
 5300POPC   GL267322  35.483  39.326   6.164
 5300POPC   C1A67323  35.345  39.274   6.464
 5300POPC   D2A67324  35.304  39.191   6.764
 5300POPC   C3A67325  35.350  39.258   7.064
 5300POPC   C4A67326  35.357  39.239   7.364
 5300POPC   C1B67327  35.572  39.401   6.464
 5300POPC   C2B67328  35.511  39.373   6.764
 5300POPC   C3B67329  35.520  39.346   7.064
 5300POPC   C4B67330  35.520  39.361   7.364
 5301POPC   NC367331  38.430  22.190   5.564
 5301POPC   PO467332  38.472  22.114   5.864
 5301POPC   GL167333  38.415  22.121   6.164
 5301POPC   GL267334  38.399  22.080   6.164
 5301POPC   C1A67335  38.474  22.117   6.464
 5301POPC   D2A67336  38.477  22.130   6.764
 5301POPC   C3A67337  38.405  22.207   7.064
 5301POPC   C4A67338  38.503  22.147   7.364
 5301POPC   C1B67339  38.237  22.006   6.464
 5301POPC   C2B67340  38.296  21.977   6.764
 5301POPC   C3B67341  38.269  21.958   7.064
 5301POPC   C4B67342  38.254  21.966   7.364
 5302POPC   NC367343  13.612  18.318   5.564
 5302POPC   PO467344  13.667  18.244   5.864
 5302POPC   GL167345  13.674  18.315   6.164
 5302POPC   GL267346  13.716  18.195   6.164
 5302POPC   C1A67347  13.662  18.323   6.464
 5302POPC   D2A67348  13.644  18.274   6.764
 5302POPC   C3A67349  13.628  18.256   7.064
 5302POPC   C4A67350  13.623  18.263   7.364
 5302POPC   C1B67351  13.743  18.102   6.464
 5302POPC   C2B67352  13.746  18.042   6.764
 5302POPC   C3B67353  13.736  18.088   7.064
 5302POPC   C4B67354  13.795  18.041   7.364
 5303POPC   NC367355  25.277   8.224   5.564
 5303POPC   PO467356  25.315   8.242   5.864
 5303POPC   GL167357  25.244   8.244   6.164
 5303POPC   GL267358  25.434   8.250   6.164
 5303POPC   C1A67359  25.289   8.206   6.464
 5303POPC   D2A67360  25.261   8.241   6.764
 5303POPC   C3A67361  25.289   8.150   7.064
 5303POPC   C4A67362  25.234   8.215   7.364
 5303POPC   C1B67363  25.477   8.288   6.464
 5303POPC   C2B67364  25.537   8.256   6.764
 5303POPC   C3B67365  25.477   8.271   7.064
 5303POPC   C4B67366  25.458   8.302   7.364
 5304POPC   NC367367  21.347  38.464   5.564
 5304POPC   PO467368  21.396  38.489   5.864
 5304POPC   GL167369  21.427  38.435   6.164
 5304POPC   GL267370  21.289  38.353   6.164
 5304POPC   C1A67371  21.350  38.504   6.464
 5304POPC   D2A67372  21.418  38.455   6.764
 5304POPC   C3A67373  21.405  38.449   7.064
 5304POPC   C4A67374  21.363  38.456   7.364
 5304POPC   C1B67375  21.253  38.258   6.464
 5304POPC   C2B67376  21.207  38.307   6.764
 5304POPC   C3B67377  21.236  38.212   7.064
 5304POPC   C4B67378  21.197  38.254   7.364
 5305POPC   NC367379  34.578  12.836   5.564
 5305POPC   PO467380  34.588  12.869   5.864
 5305POPC   GL167381  34.593  12.827   6.164
 5305POPC   GL267382  34.660  12.924   6.164
 5305POPC   C1A67383  34.565  12.853   6.464
 5305POPC   D2A67384  34.539  12.829   6.764
 5305POPC   C3A67385  34.612  12.871   7.064
 5305POPC   C4A67386  34.578  12.896   7.364
 5305POPC   C1B67387  34.715  13.036   6.464
 5305POPC   C2B67388  34.715  12.988   6.764
 5305POPC   C3B67389  34.726  13.000   7.064
 5305POPC   C4B67390  34.714  13.032   7.364
 5306POPC   NC367391   6.634  24.490   5.564
 5306POPC   PO467392   6.692  24.457   5.864
 5306POPC   GL167393   6.604  24.516   6.164
 5306POPC   GL267394   6.684  24.618   6.164
 5306POPC   C1A67395   6.690  24.467   6.464
 5306POPC   D2A67396   6.670  24.497   6.764
 5306POPC   C3A67397   6.601  24.441   7.064
 5306POPC   C4A67398   6.623  24.537   7.364
 5306POPC   C1B67399   6.678  24.702   6.464
 5306POPC   C2B67400   6.605  24.785   6.764
 5306POPC   C3B67401   6.591  24.737   7.064
 5306POPC   C4B67402   6.631  24.719   7.364
 5307POPC   NC367403  41.511   7.380   5.564
 5307POPC   PO467404  41.537   7.429   5.864
 5307POPC   GL167405  41.583   7.420   6.164
 5307POPC   GL267406  41.420   7.400   6.164
 5307POPC   C1A67407  41.605   7.434   6.464
 5307POPC   D2A67408  41.571   7.431   6.764
 5307POPC   C3A67409  41.568   7.390   7.064
 5307POPC   C4A67410  41.536   7.377   7.364
 5307POPC   C1B67411  41.326   7.362   6.464
 5307POPC   C2B67412  41.305   7.330   6.764
 5307POPC   C3B67413  41.380   7.277   7.064
 5307POPC   C4B67414  41.285   7.283   7.364
 5308POPC   NC367415  19.821  39.987   5.564
 5308POPC   PO467416  19.817  40.034   5.864
 5308POPC   GL167417  19.879  40.044   6.164
 5308POPC   GL267418  19.963  40.028   6.164
 5308POPC   C1A67419  19.824  40.008   6.464
 5308POPC   D2A67420  19.815  40.039   6.764
 5308POPC   C3A67421  19.835  39.998   7.064
 5308POPC   C4A67422  19.830  40.037   7.364
 5308POPC   C1B67423  20.039  39.935   6.464
 5308POPC   C2B67424  20.107  39.974   6.764
 5308POPC   C3B67425  20.043  39.925   7.064
 5308POPC   C4B67426  20.036  40.000   7.364
 5309POPC   NC367427  19.814  15.226   5.564
 5309POPC   PO467428  19.825  15.187   5.864
 5309POPC   GL167429  19.797  15.137   6.164
 5309POPC   GL267430  19.723  15.079   6.164
 5309POPC   C1A67431  19.836  15.182   6.464
 5309POPC   D2A67432  19.802  15.168   6.764
 5309POPC   C3A67433  19.808  15.219   7.064
 5309POPC   C4A67434  19.863  15.195   7.364
 5309POPC   C1B67435  19.696  15.056   6.464
 5309POPC   C2B67436  19.622  15.055   6.764
 5309POPC   C3B67437  19.658  14.965   7.064
 5309POPC   C4B67438  19.655  15.058   7.364
 5310POPC   NC367439  10.536  42.327   5.564
 5310POPC   PO467440  10.522  42.331   5.864
 5310POPC   GL167441  10.532  42.368   6.164
 5310POPC   GL267442  10.562  42.251   6.164
 5310POPC   C1A67443  10.516  42.325   6.464
 5310POPC   D2A67444  10.485  42.367   6.764
 5310POPC   C3A67445  10.500  42.304   7.064
 5310POPC   C4A67446  10.570  42.317   7.364
 5310POPC   C1B67447  10.642  42.067   6.464
 5310POPC   C2B67448  10.592  42.097   6.764
 5310POPC   C3B67449  10.658  42.141   7.064
 5310POPC   C4B67450  10.657  42.126   7.364
 5311POPC   NC367451  43.934  22.921   5.564
 5311POPC   PO467452  43.926  22.925   5.864
 5311POPC   GL167453  43.915  22.925   6.164
 5311POPC   GL267454  44.018  22.886   6.164
 5311POPC   C1A67455  43.866  22.893   6.464
 5311POPC   D2A67456  43.919  22.975   6.764
 5311POPC   C3A67457  43.875  22.932   7.064
 5311POPC   C4A67458  43.898  22.953   7.364
 5311POPC   C1B67459  44.140  22.923   6.464
 5311POPC   C2B67460  44.149  22.938   6.764
 5311POPC   C3B67461  44.110  22.869   7.064
 5311POPC   C4B67462  44.179  22.918   7.364
 5312POPC   NC367463   9.012  13.638   5.564
 5312POPC   PO467464   8.951  13.670   5.864
 5312POPC   GL167465   8.983  13.639   6.164
 5312POPC   GL267466   9.049  13.482   6.164
 5312POPC   C1A67467   8.969  13.641   6.464
 5312POPC   D2A67468   8.964  13.641   6.764
 5312POPC   C3A67469   8.964  13.657   7.064
 5312POPC   C4A67470   9.013  13.616   7.364
 5312POPC   C1B67471   9.086  13.375   6.464
 5312POPC   C2B67472   9.072  13.408   6.764
 5312POPC   C3B67473   9.094  13.400   7.064
 5312POPC   C4B67474   9.124  13.427   7.364
 5313POPC   NC367475   0.389  30.742   5.564
 5313POPC   PO467476   0.401  30.670   5.864
 5313POPC   GL167477   0.486  30.648   6.164
 5313POPC   GL267478   0.519  30.660   6.164
 5313POPC   C1A67479   0.479  30.732   6.464
 5313POPC   D2A67480   0.458  30.701   6.764
 5313POPC   C3A67481   0.450  30.666   7.064
 5313POPC   C4A67482   0.415  30.682   7.364
 5313POPC   C1B67483   0.583  30.493   6.464
 5313POPC   C2B67484   0.662  30.550   6.764
 5313POPC   C3B67485   0.605  30.520   7.064
 5313POPC   C4B67486   0.615  30.512   7.364
 5314POPC   NC367487  15.994  35.355   5.564
 5314POPC   PO467488  16.005  35.323   5.864
 5314POPC   GL167489  15.955  35.303   6.164
 5314POPC   GL267490  16.018  35.478   6.164
 5314POPC   C1A67491  15.946  35.310   6.464
 5314POPC   D2A67492  15.979  35.319   6.764
 5314POPC   C3A67493  15.907  35.336   7.064
 5314POPC   C4A67494  15.906  35.361   7.364
 5314POPC   C1B67495  16.023  35.574   6.464
 5314POPC   C2B67496  16.001  35.579   6.764
 5314POPC   C3B67497  16.007  35.565   7.064
 5314POPC   C4B67498  15.994  35.623   7.364
 5315POPC   NC367499  27.637  16.686   5.564
 5315POPC   PO467500  27.613  16.776   5.864
 5315POPC   GL167501  27.603  16.781   6.164
 5315POPC   GL267502  27.504  16.793   6.164
 5315POPC   C1A67503  27.572  16.750   6.464
 5315POPC   D2A67504  27.571  16.757   6.764
 5315POPC   C3A67505  27.598  16.751   7.064
 5315POPC   C4A67506  27.569  16.718   7.364
 5315POPC   C1B67507  27.453  16.951   6.464
 5315POPC   C2B67508  27.498  16.933   6.764
 5315POPC   C3B67509  27.440  16.934   7.064
 5315POPC   C4B67510  27.509  16.935   7.364
 5316POPC   NC367511  22.116  21.339   5.564
 5316POPC   PO467512  22.205  21.388   5.864
 5316POPC   GL167513  22.209  21.422   6.164
 5316POPC   GL267514  22.025  21.484   6.164
 5316POPC   C1A67515  22.165  21.419   6.464
 5316POPC   D2A67516  22.142  21.348   6.764
 5316POPC   C3A67517  22.117  21.354   7.064
 5316POPC   C4A67518  22.139  21.363   7.364
 5316POPC   C1B67519  21.967  21.475   6.464
 5316POPC   C2B67520  21.968  21.535   6.764
 5316POPC   C3B67521  21.916  21.526   7.064
 5316POPC   C4B67522  21.940  21.487   7.364
 5317POPC   NC367523  12.121  44.671   5.564
 5317POPC   PO467524  12.093  44.675   5.864
 5317POPC   GL167525  12.064  44.618   6.164
 5317POPC   GL267526  12.192  44.540   6.164
 5317POPC   C1A67527  12.068  44.703   6.464
 5317POPC   D2A67528  12.044  44.646   6.764
 5317POPC   C3A67529  12.049  44.635   7.064
 5317POPC   C4A67530  12.031  44.689   7.364
 5317POPC   C1B67531  12.245  44.467   6.464
 5317POPC   C2B67532  12.319  44.475   6.764
 5317POPC   C3B67533  12.313  44.526   7.064
 5317POPC   C4B67534  12.315  44.460   7.364
 5318POPC   NC367535  19.803  44.663   5.564
 5318POPC   PO467536  19.866  44.629   5.864
 5318POPC   GL167537  19.883  44.677   6.164
 5318POPC   GL267538  19.796  44.559   6.164
 5318POPC   C1A67539  19.867  44.622   6.464
 5318POPC   D2A67540  19.862  44.665   6.764
 5318POPC   C3A67541  19.830  44.622   7.064
 5318POPC   C4A67542  19.875  44.651   7.364
 5318POPC   C1B67543  19.789  44.391   6.464
 5318POPC   C2B67544  19.803  44.453   6.764
 5318POPC   C3B67545  19.871  44.386   7.064
 5318POPC   C4B67546  19.798  44.411   7.364
 5319POPC   NC367547  27.641  18.244   5.564
 5319POPC   PO467548  27.589  18.251   5.864
 5319POPC   GL167549  27.593  18.314   6.164
 5319POPC   GL267550  27.749  18.340   6.164
 5319POPC   C1A67551  27.581  18.268   6.464
 5319POPC   D2A67552  27.588  18.279   6.764
 5319POPC   C3A67553  27.625  18.299   7.064
 5319POPC   C4A67554  27.641  18.264   7.364
 5319POPC   C1B67555  27.830  18.363   6.464
 5319POPC   C2B67556  27.785  18.359   6.764
 5319POPC   C3B67557  27.874  18.371   7.064
 5319POPC   C4B67558  27.838  18.405   7.364
 5320POPC   NC367559  34.572   1.996   5.564
 5320POPC   PO467560  34.621   2.039   5.864
 5320POPC   GL167561  34.579   2.014   6.164
 5320POPC   GL267562  34.541   2.130   6.164
 5320POPC   C1A67563  34.555   2.010   6.464
 5320POPC   D2A67564  34.554   1.965   6.764
 5320POPC   C3A67565  34.588   1.950   7.064
 5320POPC   C4A67566  34.538   1.986   7.364
 5320POPC   C1B67567  34.473   2.272   6.464
 5320POPC   C2B67568  34.505   2.235   6.764
 5320POPC   C3B67569  34.478   2.232   7.064
 5320POPC   C4B67570  34.478   2.266   7.364
 5321POPC   NC367571   8.969  26.786   5.564
 5321POPC   PO467572   8.994  26.819   5.864
 5321POPC   GL167573   8.984  26.860   6.164
 5321POPC   GL267574   8.871  26.741   6.164
 5321POPC   C1A67575   9.021  26.768   6.464
 5321POPC   D2A67576   8.995  26.807   6.764
 5321POPC   C3A67577   9.017  26.837   7.064
 5321POPC   C4A67578   8.972  26.826   7.364
 5321POPC   C1B67579   8.700  26.699   6.464
 5321POPC   C2B67580   8.742  26.754   6.764
 5321POPC   C3B67581   8.746  26.743   7.064
 5321POPC   C4B67582   8.746  26.775   7.364
 5322POPC   NC367583  15.910  25.300   5.564
 5322POPC   PO467584  15.962  25.256   5.864
 5322POPC   GL167585  15.974  25.288   6.164
 5322POPC   GL267586  15.807  25.297   6.164
 5322POPC   C1A67587  15.939  25.242   6.464
 5322POPC   D2A67588  15.980  25.218   6.764
 5322POPC   C3A67589  15.954  25.258   7.064
 5322POPC   C4A67590  15.976  25.217   7.364
 5322POPC   C1B67591  15.709  25.374   6.464
 5322POPC   C2B67592  15.693  25.372   6.764
 5322POPC   C3B67593  15.694  25.318   7.064
 5322POPC   C4B67594  15.682  25.332   7.364
 5323POPC   NC367595  40.015   5.045   5.564
 5323POPC   PO467596  39.970   5.114   5.864
 5323POPC   GL167597  39.972   5.066   6.164
 5323POPC   GL267598  40.078   4.974   6.164
 5323POPC   C1A67599  40.010   5.062   6.464
 5323POPC   D2A67600  40.029   5.064   6.764
 5323POPC   C3A67601  40.034   5.060   7.064
 5323POPC   C4A67602  40.049   5.067   7.364
 5323POPC   C1B67603  40.195   4.858   6.464
 5323POPC   C2B67604  40.121   4.935   6.764
 5323POPC   C3B67605  40.211   4.930   7.064
 5323POPC   C4B67606  40.204   4.884   7.364
 5324POPC   NC367607  33.021   8.246   5.564
 5324POPC   PO467608  33.044   8.157   5.864
 5324POPC   GL167609  33.001   8.185   6.164
 5324POPC   GL267610  32.886   8.303   6.164
 5324POPC   C1A67611  33.013   8.158   6.464
 5324POPC   D2A67612  32.975   8.245   6.764
 5324POPC   C3A67613  33.054   8.178   7.064
 5324POPC   C4A67614  33.035   8.218   7.364
 5324POPC   C1B67615  32.873   8.341   6.464
 5324POPC   C2B67616  32.879   8.374   6.764
 5324POPC   C3B67617  32.852   8.385   7.064
 5324POPC   C4B67618  32.878   8.394   7.364
 5325POPC   NC367619   4.333  20.659   5.564
 5325POPC   PO467620   4.311  20.638   5.864
 5325POPC   GL167621   4.280  20.618   6.164
 5325POPC   GL267622   4.362  20.739   6.164
 5325POPC   C1A67623   4.274  20.584   6.464
 5325POPC   D2A67624   4.334  20.571   6.764
 5325POPC   C3A67625   4.288  20.631   7.064
 5325POPC   C4A67626   4.360  20.643   7.364
 5325POPC   C1B67627   4.462  20.868   6.464
 5325POPC   C2B67628   4.456  20.794   6.764
 5325POPC   C3B67629   4.471  20.808   7.064
 5325POPC   C4B67630   4.451  20.769   7.364
 5326POPC   NC367631  23.688  40.035   5.564
 5326POPC   PO467632  23.675  40.016   5.864
 5326POPC   GL167633  23.692  39.967   6.164
 5326POPC   GL267634  23.755  40.141   6.164
 5326POPC   C1A67635  23.740  40.040   6.464
 5326POPC   D2A67636  23.706  40.035   6.764
 5326POPC   C3A67637  23.681  40.038   7.064
 5326POPC   C4A67638  23.723  40.052   7.364
 5326POPC   C1B67639  23.859  40.196   6.464
 5326POPC   C2B67640  23.801  40.267   6.764
 5326POPC   C3B67641  23.792  40.222   7.064
 5326POPC   C4B67642  23.813  40.247   7.364
 5327POPC   NC367643   5.902   8.178   5.564
 5327POPC   PO467644   5.863   8.173   5.864
 5327POPC   GL167645   5.909   8.226   6.164
 5327POPC   GL267646   5.977   8.241   6.164
 5327POPC   C1A67647   5.847   8.147   6.464
 5327POPC   D2A67648   5.899   8.208   6.764
 5327POPC   C3A67649   5.902   8.155   7.064
 5327POPC   C4A67650   5.889   8.168   7.364
 5327POPC   C1B67651   6.119   8.277   6.464
 5327POPC   C2B67652   6.149   8.245   6.764
 5327POPC   C3B67653   6.127   8.304   7.064
 5327POPC   C4B67654   6.099   8.262   7.364
 5328POPC   NC367655  10.568  30.732   5.564
 5328POPC   PO467656  10.527  30.664   5.864
 5328POPC   GL167657  10.492  30.728   6.164
 5328POPC   GL267658  10.515  30.798   6.164
 5328POPC   C1A67659  10.549  30.671   6.464
 5328POPC   D2A67660  10.507  30.688   6.764
 5328POPC   C3A67661  10.517  30.678   7.064
 5328POPC   C4A67662  10.553  30.685   7.364
 5328POPC   C1B67663  10.477  30.889   6.464
 5328POPC   C2B67664  10.420  30.974   6.764
 5328POPC   C3B67665  10.463  30.933   7.064
 5328POPC   C4B67666  10.471  30.975   7.364
 5329POPC   NC367667   2.716  38.503   5.564
 5329POPC   PO467668   2.805  38.487   5.864
 5329POPC   GL167669   2.802  38.472   6.164
 5329POPC   GL267670   2.703  38.364   6.164
 5329POPC   C1A67671   2.771  38.490   6.464
 5329POPC   D2A67672   2.794  38.480   6.764
 5329POPC   C3A67673   2.769  38.407   7.064
 5329POPC   C4A67674   2.787  38.473   7.364
 5329POPC   C1B67675   2.653  38.246   6.464
 5329POPC   C2B67676   2.682  38.200   6.764
 5329POPC   C3B67677   2.606  38.268   7.064
 5329POPC   C4B67678   2.641  38.214   7.364
 5330POPC   NC367679  29.947  22.164   5.564
 5330POPC   PO467680  29.929  22.194   5.864
 5330POPC   GL167681  29.949  22.192   6.164
 5330POPC   GL267682  29.981  22.034   6.164
 5330POPC   C1A67683  29.893  22.169   6.464
 5330POPC   D2A67684  29.875  22.205   6.764
 5330POPC   C3A67685  29.933  22.175   7.064
 5330POPC   C4A67686  29.888  22.182   7.364
 5330POPC   C1B67687  30.002  21.984   6.464
 5330POPC   C2B67688  30.006  21.906   6.764
 5330POPC   C3B67689  30.064  21.915   7.064
 5330POPC   C4B67690  30.055  21.944   7.364
 5331POPC   NC367691  41.545  35.357   5.564
 5331POPC   PO467692  41.520  35.338   5.864
 5331POPC   GL167693  41.522  35.351   6.164
 5331POPC   GL267694  41.457  35.285   6.164
 5331POPC   C1A67695  41.515  35.358   6.464
 5331POPC   D2A67696  41.599  35.389   6.764
 5331POPC   C3A67697  41.581  35.326   7.064
 5331POPC   C4A67698  41.526  35.336   7.364
 5331POPC   C1B67699  41.334  35.273   6.464
 5331POPC   C2B67700  41.365  35.276   6.764
 5331POPC   C3B67701  41.366  35.219   7.064
 5331POPC   C4B67702  41.320  35.279   7.364
 5332POPC   NC367703  11.291   9.021   5.564
 5332POPC   PO467704  11.330   8.980   5.864
 5332POPC   GL167705  11.337   8.965   6.164
 5332POPC   GL267706  11.281   9.077   6.164
 5332POPC   C1A67707  11.255   8.931   6.464
 5332POPC   D2A67708  11.339   8.932   6.764
 5332POPC   C3A67709  11.313   8.925   7.064
 5332POPC   C4A67710  11.316   8.986   7.364
 5332POPC   C1B67711  11.323   9.189   6.464
 5332POPC   C2B67712  11.386   9.257   6.764
 5332POPC   C3B67713  11.342   9.237   7.064
 5332POPC   C4B67714  11.344   9.172   7.364
 5333POPC   NC367715  39.961  35.345   5.564
 5333POPC   PO467716  39.966  35.360   5.864
 5333POPC   GL167717  39.978  35.331   6.164
 5333POPC   GL267718  40.076  35.447   6.164
 5333POPC   C1A67719  40.054  35.318   6.464
 5333POPC   D2A67720  40.042  35.316   6.764
 5333POPC   C3A67721  39.978  35.334   7.064
 5333POPC   C4A67722  39.971  35.385   7.364
 5333POPC   C1B67723  40.192  35.509   6.464
 5333POPC   C2B67724  40.246  35.513   6.764
 5333POPC   C3B67725  40.255  35.481   7.064
 5333POPC   C4B67726  40.160  35.493   7.364
 5334POPC   NC367727  17.496  36.127   5.564
 5334POPC   PO467728  17.498  36.098   5.864
 5334POPC   GL167729  17.554  36.137   6.164
 5334POPC   GL267730  17.602  36.210   6.164
 5334POPC   C1A67731  17.467  36.085   6.464
 5334POPC   D2A67732  17.517  36.120   6.764
 5334POPC   C3A67733  17.502  36.108   7.064
 5334POPC   C4A67734  17.545  36.080   7.364
 5334POPC   C1B67735  17.574  36.373   6.464
 5334POPC   C2B67736  17.606  36.354   6.764
 5334POPC   C3B67737  17.607  36.324   7.064
 5334POPC   C4B67738  17.649  36.340   7.364
 5335POPC   NC367739  16.727  32.983   5.564
 5335POPC   PO467740  16.754  32.975   5.864
 5335POPC   GL167741  16.694  32.983   6.164
 5335POPC   GL267742  16.803  32.953   6.164
 5335POPC   C1A67743  16.726  33.070   6.464
 5335POPC   D2A67744  16.730  33.026   6.764
 5335POPC   C3A67745  16.716  33.068   7.064
 5335POPC   C4A67746  16.684  32.983   7.364
 5335POPC   C1B67747  16.752  32.832   6.464
 5335POPC   C2B67748  16.761  32.753   6.764
 5335POPC   C3B67749  16.808  32.742   7.064
 5335POPC   C4B67750  16.791  32.750   7.364
 5336POPC   NC367751  22.905  36.158   5.564
 5336POPC   PO467752  22.910  36.144   5.864
 5336POPC   GL167753  22.904  36.100   6.164
 5336POPC   GL267754  22.892  36.052   6.164
 5336POPC   C1A67755  22.952  36.165   6.464
 5336POPC   D2A67756  22.909  36.139   6.764
 5336POPC   C3A67757  22.985  36.150   7.064
 5336POPC   C4A67758  22.931  36.114   7.364
 5336POPC   C1B67759  22.858  35.882   6.464
 5336POPC   C2B67760  22.803  35.908   6.764
 5336POPC   C3B67761  22.821  35.922   7.064
 5336POPC   C4B67762  22.779  35.954   7.364
 5337POPC   NC367763  26.815  10.545   5.564
 5337POPC   PO467764  26.842  10.529   5.864
 5337POPC   GL167765  26.783  10.475   6.164
 5337POPC   GL267766  26.763  10.462   6.164
 5337POPC   C1A67767  26.810  10.477   6.464
 5337POPC   D2A67768  26.801  10.555   6.764
 5337POPC   C3A67769  26.768  10.480   7.064
 5337POPC   C4A67770  26.804  10.534   7.364
 5337POPC   C1B67771  26.625  10.372   6.464
 5337POPC   C2B67772  26.657  10.298   6.764
 5337POPC   C3B67773  26.652  10.373   7.064
 5337POPC   C4B67774  26.662  10.326   7.364
 5338POPC   NC367775  16.732  41.556   5.564
 5338POPC   PO467776  16.708  41.553   5.864
 5338POPC   GL167777  16.686  41.597   6.164
 5338POPC   GL267778  16.734  41.670   6.164
 5338POPC   C1A67779  16.707  41.590   6.464
 5338POPC   D2A67780  16.772  41.607   6.764
 5338POPC   C3A67781  16.729  41.604   7.064
 5338POPC   C4A67782  16.741  41.570   7.364
 5338POPC   C1B67783  16.690  41.847   6.464
 5338POPC   C2B67784  16.686  41.776   6.764
 5338POPC   C3B67785  16.691  41.801   7.064
 5338POPC   C4B67786  16.741  41.764   7.364
 5339POPC   NC367787  13.645   5.142   5.564
 5339POPC   PO467788  13.578   5.074   5.864
 5339POPC   GL167789  13.630   5.102   6.164
 5339POPC   GL267790  13.511   5.119   6.164
 5339POPC   C1A67791  13.650   5.079   6.464
 5339POPC   D2A67792  13.622   5.071   6.764
 5339POPC   C3A67793  13.658   5.132   7.064
 5339POPC   C4A67794  13.621   5.101   7.364
 5339POPC   C1B67795  13.424   5.018   6.464
 5339POPC   C2B67796  13.413   5.063   6.764
 5339POPC   C3B67797  13.410   5.078   7.064
 5339POPC   C4B67798  13.378   5.046   7.364
 5340POPC   NC367799  36.130  36.169   5.564
 5340POPC   PO467800  36.160  36.162   5.864
 5340POPC   GL167801  36.156  36.087   6.164
 5340POPC   GL267802  36.199  36.046   6.164
 5340POPC   C1A67803  36.101  36.163   6.464
 5340POPC   D2A67804  36.087  36.145   6.764
 5340POPC   C3A67805  36.163  36.172   7.064
 5340POPC   C4A67806  36.091  36.123   7.364
 5340POPC   C1B67807  36.269  35.960   6.464
 5340POPC   C2B67808  36.260  35.930   6.764
 5340POPC   C3B67809  36.260  35.936   7.064
 5340POPC   C4B67810  36.298  35.960   7.364
 5341POPC   NC367811  42.312   6.662   5.564
 5341POPC   PO467812  42.293   6.597   5.864
 5341POPC   GL167813  42.360   6.599   6.164
 5341POPC   GL267814  42.450   6.716   6.164
 5341POPC   C1A67815  42.354   6.674   6.464
 5341POPC   D2A67816  42.294   6.675   6.764
 5341POPC   C3A67817  42.382   6.614   7.064
 5341POPC   C4A67818  42.344   6.602   7.364
 5341POPC   C1B67819  42.558   6.752   6.464
 5341POPC   C2B67820  42.510   6.748   6.764
 5341POPC   C3B67821  42.566   6.807   7.064
 5341POPC   C4B67822  42.556   6.786   7.364
 5342POPC   NC367823  26.773  12.811   5.564
 5342POPC   PO467824  26.807  12.824   5.864
 5342POPC   GL167825  26.795  12.879   6.164
 5342POPC   GL267826  26.930  12.967   6.164
 5342POPC   C1A67827  26.789  12.850   6.464
 5342POPC   D2A67828  26.825  12.894   6.764
 5342POPC   C3A67829  26.805  12.845   7.064
 5342POPC   C4A67830  26.799  12.844   7.364
 5342POPC   C1B67831  27.025  13.078   6.464
 5342POPC   C2B67832  26.951  13.003   6.764
 5342POPC   C3B67833  26.943  13.048   7.064
 5342POPC   C4B67834  26.933  12.997   7.364
 5343POPC   NC367835  42.298  28.321   5.564
 5343POPC   PO467836  42.343  28.410   5.864
 5343POPC   GL167837  42.307  28.365   6.164
 5343POPC   GL267838  42.349  28.217   6.164
 5343POPC   C1A67839  42.311  28.359   6.464
 5343POPC   D2A67840  42.328  28.357   6.764
 5343POPC   C3A67841  42.367  28.390   7.064
 5343POPC   C4A67842  42.288  28.391   7.364
 5343POPC   C1B67843  42.297  28.165   6.464
 5343POPC   C2B67844  42.247  28.107   6.764
 5343POPC   C3B67845  42.323  28.089   7.064
 5343POPC   C4B67846  42.250  28.117   7.364
 5344POPC   NC367847   1.182   5.848   5.564
 5344POPC   PO467848   1.221   5.839   5.864
 5344POPC   GL167849   1.244   5.822   6.164
 5344POPC   GL267850   1.154   5.952   6.164
 5344POPC   C1A67851   1.180   5.868   6.464
 5344POPC   D2A67852   1.193   5.861   6.764
 5344POPC   C3A67853   1.262   5.847   7.064
 5344POPC   C4A67854   1.230   5.911   7.364
 5344POPC   C1B67855   0.972   6.044   6.464
 5344POPC   C2B67856   0.992   6.078   6.764
 5344POPC   C3B67857   0.977   6.021   7.064
 5344POPC   C4B67858   1.019   6.025   7.364
 5345POPC   NC367859  12.073  36.153   5.564
 5345POPC   PO467860  12.034  36.130   5.864
 5345POPC   GL167861  12.080  36.132   6.164
 5345POPC   GL267862  11.974  36.122   6.164
 5345POPC   C1A67863  12.104  36.143   6.464
 5345POPC   D2A67864  12.084  36.120   6.764
 5345POPC   C3A67865  12.085  36.135   7.064
 5345POPC   C4A67866  12.059  36.147   7.364
 5345POPC   C1B67867  11.811  36.147   6.464
 5345POPC   C2B67868  11.860  36.130   6.764
 5345POPC   C3B67869  11.819  36.066   7.064
 5345POPC   C4B67870  11.824  36.050   7.364
 5346POPC   NC367871  36.903  42.325   5.564
 5346POPC   PO467872  36.934  42.317   5.864
 5346POPC   GL167873  36.903  42.326   6.164
 5346POPC   GL267874  37.066  42.290   6.164
 5346POPC   C1A67875  36.926  42.341   6.464
 5346POPC   D2A67876  36.911  42.384   6.764
 5346POPC   C3A67877  36.853  42.316   7.064
 5346POPC   C4A67878  36.869  42.383   7.364
 5346POPC   C1B67879  37.199  42.385   6.464
 5346POPC   C2B67880  37.106  42.372   6.764
 5346POPC   C3B67881  37.197  42.299   7.064
 5346POPC   C4B67882  37.167  42.287   7.364
 5347POPC   NC367883  12.103   1.981   5.564
 5347POPC   PO467884  12.118   2.002   5.864
 5347POPC   GL167885  12.084   1.967   6.164
 5347POPC   GL267886  12.160   1.828   6.164
 5347POPC   C1A67887  12.111   1.996   6.464
 5347POPC   D2A67888  12.057   2.018   6.764
 5347POPC   C3A67889  12.077   1.961   7.064
 5347POPC   C4A67890  12.073   1.950   7.364
 5347POPC   C1B67891  12.220   1.745   6.464
 5347POPC   C2B67892  12.203   1.719   6.764
 5347POPC   C3B67893  12.153   1.718   7.064
 5347POPC   C4B67894  12.213   1.726   7.364
 5348POPC   NC367895  28.385  40.760   5.564
 5348POPC   PO467896  28.404  40.783   5.864
 5348POPC   GL167897  28.345  40.733   6.164
 5348POPC   GL267898  28.439  40.774   6.164
 5348POPC   C1A67899  28.375  40.789   6.464
 5348POPC   D2A67900  28.407  40.735   6.764
 5348POPC   C3A67901  28.326  40.808   7.064
 5348POPC   C4A67902  28.334  40.798   7.364
 5348POPC   C1B67903  28.625  40.717   6.464
 5348POPC   C2B67904  28.614  40.702   6.764
 5348POPC   C3B67905  28.598  40.651   7.064
 5348POPC   C4B67906  28.570  40.723   7.364
 5349POPC   NC367907  31.510  13.661   5.564
 5349POPC   PO467908  31.464  13.671   5.864
 5349POPC   GL167909  31.473  13.669   6.164
 5349POPC   GL267910  31.521  13.742   6.164
 5349POPC   C1A67911  31.475  13.655   6.464
 5349POPC   D2A67912  31.435  13.616   6.764
 5349POPC   C3A67913  31.463  13.629   7.064
 5349POPC   C4A67914  31.519  13.580   7.364
 5349POPC   C1B67915  31.682  13.809   6.464
 5349POPC   C2B67916  31.604  13.823   6.764
 5349POPC   C3B67917  31.598  13.827   7.064
 5349POPC   C4B67918  31.646  13.801   7.364
 5350POPC   NC367919  21.388  19.073   5.564
 5350POPC   PO467920  21.374  19.107   5.864
 5350POPC   GL167921  21.435  19.046   6.164
 5350POPC   GL267922  21.385  19.207   6.164
 5350POPC   C1A67923  21.426  19.056   6.464
 5350POPC   D2A67924  21.390  19.100   6.764
 5350POPC   C3A67925  21.379  19.090   7.064
 5350POPC   C4A67926  21.424  19.106   7.364
 5350POPC   C1B67927  21.319  19.326   6.464
 5350POPC   C2B67928  21.344  19.262   6.764
 5350POPC   C3B67929  21.349  19.311   7.064
 5350POPC   C4B67930  21.382  19.320   7.364
 5351POPC   NC367931  40.048  40.044   5.564
 5351POPC   PO467932  40.004  40.027   5.864
 5351POPC   GL167933  40.042  39.993   6.164
 5351POPC   GL267934  39.895  40.069   6.164
 5351POPC   C1A67935  40.025  39.965   6.464
 5351POPC   D2A67936  39.971  39.982   6.764
 5351POPC   C3A67937  40.050  40.044   7.064
 5351POPC   C4A67938  40.022  39.960   7.364
 5351POPC   C1B67939  39.781  40.120   6.464
 5351POPC   C2B67940  39.770  40.094   6.764
 5351POPC   C3B67941  39.796  40.089   7.064
 5351POPC   C4B67942  39.776  40.103   7.364
 5352POPC   NC367943  18.272  28.342   5.564
 5352POPC   PO467944  18.236  28.377   5.864
 5352POPC   GL167945  18.323  28.353   6.164
 5352POPC   GL267946  18.181  28.467   6.164
 5352POPC   C1A67947  18.299  28.328   6.464
 5352POPC   D2A67948  18.263  28.373   6.764
 5352POPC   C3A67949  18.251  28.353   7.064
 5352POPC   C4A67950  18.285  28.349   7.364
 5352POPC   C1B67951  18.069  28.577   6.464
 5352POPC   C2B67952  18.085  28.533   6.764
 5352POPC   C3B67953  18.151  28.587   7.064
 5352POPC   C4B67954  18.107  28.500   7.364
 5353POPC   NC367955  39.275  13.628   5.564
 5353POPC   PO467956  39.199  13.587   5.864
 5353POPC   GL167957  39.184  13.612   6.164
 5353POPC   GL267958  39.124  13.678   6.164
 5353POPC   C1A67959  39.278  13.615   6.464
 5353POPC   D2A67960  39.198  13.631   6.764
 5353POPC   C3A67961  39.199  13.606   7.064
 5353POPC   C4A67962  39.266  13.619   7.364
 5353POPC   C1B67963  39.013  13.646   6.464
 5353POPC   C2B67964  38.954  13.607   6.764
 5353POPC   C3B67965  38.998  13.636   7.064
 5353POPC   C4B67966  38.970  13.651   7.364
 5354POPC   NC367967  25.228   2.757   5.564
 5354POPC   PO467968  25.285   2.786   5.864
 5354POPC   GL167969  25.304   2.790   6.164
 5354POPC   GL267970  25.373   2.737   6.164
 5354POPC   C1A67971  25.230   2.719   6.464
 5354POPC   D2A67972  25.315   2.800   6.764
 5354POPC   C3A67973  25.222   2.745   7.064
 5354POPC   C4A67974  25.251   2.782   7.364
 5354POPC   C1B67975  25.502   2.761   6.464
 5354POPC   C2B67976  25.527   2.726   6.764
 5354POPC   C3B67977  25.478   2.813   7.064
 5354POPC   C4B67978  25.469   2.767   7.364
 5355POPC   NC367979   1.953  11.325   5.564
 5355POPC   PO467980   1.972  11.329   5.864
 5355POPC   GL167981   1.965  11.288   6.164
 5355POPC   GL267982   1.861  11.258   6.164
 5355POPC   C1A67983   2.002  11.260   6.464
 5355POPC   D2A67984   2.039  11.345   6.764
 5355POPC   C3A67985   1.986  11.299   7.064
 5355POPC   C4A67986   1.940  11.316   7.364
 5355POPC   C1B67987   1.772  11.169   6.464
 5355POPC   C2B67988   1.802  11.127   6.764
 5355POPC   C3B67989   1.802  11.103   7.064
 5355POPC   C4B67990   1.784  11.107   7.364
 5356POPC   NC367991   1.185   5.139   5.564
 5356POPC   PO467992   1.222   5.067   5.864
 5356POPC   GL167993   1.203   5.135   6.164
 5356POPC   GL267994   1.163   5.195   6.164
 5356POPC   C1A67995   1.231   5.084   6.464
 5356POPC   D2A67996   1.228   5.135   6.764
 5356POPC   C3A67997   1.223   5.112   7.064
 5356POPC   C4A67998   1.202   5.091   7.364
 5356POPC   C1B67999   1.208   5.381   6.464
 5356POPC   C2B68000   1.182   5.352   6.764
 5356POPC   C3B68001   1.159   5.348   7.064
 5356POPC   C4B68002   1.156   5.313   7.364
 5357POPC   NC368003  27.576  29.959   5.564
 5357POPC   PO468004  27.624  29.970   5.864
 5357POPC   GL168005  27.603  29.939   6.164
 5357POPC   GL268006  27.676  29.989   6.164
 5357POPC   C1A68007  27.560  29.947   6.464
 5357POPC   D2A68008  27.623  29.953   6.764
 5357POPC   C3A68009  27.631  29.904   7.064
 5357POPC   C4A68010  27.590  29.929   7.364
 5357POPC   C1B68011  27.736  30.124   6.464
 5357POPC   C2B68012  27.708  30.155   6.764
 5357POPC   C3B68013  27.684  30.113   7.064
 5357POPC   C4B68014  27.748  30.173   7.364
 5358POPC   NC368015  26.810  34.545   5.564
 5358POPC   PO468016  26.862  34.602   5.864
 5358POPC   GL168017  26.854  34.626   6.164
 5358POPC   GL268018  26.962  34.543   6.164
 5358POPC   C1A68019  26.830  34.599   6.464
 5358POPC   D2A68020  26.816  34.599   6.764
 5358POPC   C3A68021  26.826  34.581   7.064
 5358POPC   C4A68022  26.804  34.590   7.364
 5358POPC   C1B68023  27.066  34.584   6.464
 5358POPC   C2B68024  27.092  34.538   6.764
 5358POPC   C3B68025  27.036  34.555   7.064
 5358POPC   C4B68026  27.029  34.501   7.364
 5359POPC   NC368027  21.357  40.039   5.564
 5359POPC   PO468028  21.403  39.969   5.864
 5359POPC   GL168029  21.382  39.986   6.164
 5359POPC   GL268030  21.226  40.075   6.164
 5359POPC   C1A68031  21.342  39.973   6.464
 5359POPC   D2A68032  21.368  40.028   6.764
 5359POPC   C3A68033  21.387  40.054   7.064
 5359POPC   C4A68034  21.378  39.969   7.364
 5359POPC   C1B68035  21.137  40.124   6.464
 5359POPC   C2B68036  21.208  40.061   6.764
 5359POPC   C3B68037  21.205  40.104   7.064
 5359POPC   C4B68038  21.119  40.105   7.364
 5360POPC   NC368039  43.159  22.198   5.564
 5360POPC   PO468040  43.135  22.191   5.864
 5360POPC   GL168041  43.141  22.202   6.164
 5360POPC   GL268042  43.220  22.052   6.164
 5360POPC   C1A68043  43.064  22.145   6.464
 5360POPC   D2A68044  43.127  22.114   6.764
 5360POPC   C3A68045  43.094  22.199   7.064
 5360POPC   C4A68046  43.115  22.147   7.364
 5360POPC   C1B68047  43.201  21.918   6.464
 5360POPC   C2B68048  43.267  22.001   6.764
 5360POPC   C3B68049  43.218  21.944   7.064
 5360POPC   C4B68050  43.277  21.985   7.364
 5361POPC   NC368051  30.673   2.725   5.564
 5361POPC   PO468052  30.681   2.730   5.864
 5361POPC   GL168053  30.740   2.808   6.164
 5361POPC   GL268054  30.780   2.720   6.164
 5361POPC   C1A68055  30.707   2.799   6.464
 5361POPC   D2A68056  30.687   2.760   6.764
 5361POPC   C3A68057  30.665   2.756   7.064
 5361POPC   C4A68058  30.706   2.758   7.364
 5361POPC   C1B68059  30.938   2.693   6.464
 5361POPC   C2B68060  30.945   2.719   6.764
 5361POPC   C3B68061  30.968   2.678   7.064
 5361POPC   C4B68062  30.921   2.687   7.364
 5362POPC   NC368063  34.608  22.125   5.564
 5362POPC   PO468064  34.619  22.204   5.864
 5362POPC   GL168065  34.590  22.136   6.164
 5362POPC   GL268066  34.601  22.333   6.164
 5362POPC   C1A68067  34.528  22.158   6.464
 5362POPC   D2A68068  34.549  22.136   6.764
 5362POPC   C3A68069  34.531  22.144   7.064
 5362POPC   C4A68070  34.590  22.167   7.364
 5362POPC   C1B68071  34.587  22.378   6.464
 5362POPC   C2B68072  34.592  22.444   6.764
 5362POPC   C3B68073  34.598  22.377   7.064
 5362POPC   C4B68074  34.575  22.403   7.364
 5363POPC   NC368075   8.186   2.793   5.564
 5363POPC   PO468076   8.188   2.770   5.864
 5363POPC   GL168077   8.243   2.774   6.164
 5363POPC   GL268078   8.245   2.903   6.164
 5363POPC   C1A68079   8.196   2.754   6.464
 5363POPC   D2A68080   8.242   2.740   6.764
 5363POPC   C3A68081   8.147   2.732   7.064
 5363POPC   C4A68082   8.163   2.796   7.364
 5363POPC   C1B68083   8.201   3.059   6.464
 5363POPC   C2B68084   8.285   3.005   6.764
 5363POPC   C3B68085   8.293   2.998   7.064
 5363POPC   C4B68086   8.226   3.016   7.364
 5364POPC   NC368087  13.645  26.079   5.564
 5364POPC   PO468088  13.643  26.017   5.864
 5364POPC   GL168089  13.635  26.056   6.164
 5364POPC   GL268090  13.694  26.093   6.164
 5364POPC   C1A68091  13.581  26.072   6.464
 5364POPC   D2A68092  13.633  26.017   6.764
 5364POPC   C3A68093  13.664  26.041   7.064
 5364POPC   C4A68094  13.650  26.040   7.364
 5364POPC   C1B68095  13.793  26.187   6.464
 5364POPC   C2B68096  13.869  26.243   6.764
 5364POPC   C3B68097  13.817  26.218   7.064
 5364POPC   C4B68098  13.827  26.235   7.364
 5365POPC   NC368099  10.513  33.031   5.564
 5365POPC   PO468100  10.493  33.033   5.864
 5365POPC   GL168101  10.495  33.002   6.164
 5365POPC   GL268102  10.447  33.050   6.164
 5365POPC   C1A68103  10.526  32.976   6.464
 5365POPC   D2A68104  10.493  33.016   6.764
 5365POPC   C3A68105  10.512  33.026   7.064
 5365POPC   C4A68106  10.537  33.043   7.364
 5365POPC   C1B68107  10.261  33.043   6.464
 5365POPC   C2B68108  10.298  33.030   6.764
 5365POPC   C3B68109  10.258  33.036   7.064
 5365POPC   C4B68110  10.227  33.035   7.364
 5366POPC   NC368111  12.100  14.447   5.564
 5366POPC   PO468112  12.114  14.405   5.864
 5366POPC   GL168113  12.107  14.361   6.164
 5366POPC   GL268114  12.100  14.561   6.164
 5366POPC   C1A68115  12.106  14.441   6.464
 5366POPC   D2A68116  12.063  14.430   6.764
 5366POPC   C3A68117  12.112  14.379   7.064
 5366POPC   C4A68118  12.103  14.355   7.364
 5366POPC   C1B68119  12.144  14.672   6.464
 5366POPC   C2B68120  12.121  14.643   6.764
 5366POPC   C3B68121  12.061  14.659   7.064
 5366POPC   C4B68122  12.126  14.651   7.364
 5367POPC   NC368123  17.496  12.126   5.564
 5367POPC   PO468124  17.477  12.119   5.864
 5367POPC   GL168125  17.528  12.070   6.164
 5367POPC   GL268126  17.664  12.080   6.164
 5367POPC   C1A68127  17.524  12.109   6.464
 5367POPC   D2A68128  17.459  12.098   6.764
 5367POPC   C3A68129  17.498  12.087   7.064
 5367POPC   C4A68130  17.542  12.093   7.364
 5367POPC   C1B68131  17.793  12.059   6.464
 5367POPC   C2B68132  17.785  12.012   6.764
 5367POPC   C3B68133  17.740  12.040   7.064
 5367POPC   C4B68134  17.746  12.038   7.364
 5368POPC   NC368135  18.319  25.997   5.564
 5368POPC   PO468136  18.321  26.032   5.864
 5368POPC   GL168137  18.240  25.992   6.164
 5368POPC   GL268138  18.253  25.954   6.164
 5368POPC   C1A68139  18.331  26.063   6.464
 5368POPC   D2A68140  18.245  25.996   6.764
 5368POPC   C3A68141  18.302  26.036   7.064
 5368POPC   C4A68142  18.267  26.087   7.364
 5368POPC   C1B68143  18.257  25.798   6.464
 5368POPC   C2B68144  18.215  25.795   6.764
 5368POPC   C3B68145  18.276  25.753   7.064
 5368POPC   C4B68146  18.277  25.756   7.364
 5369POPC   NC368147  29.941  11.298   5.564
 5369POPC   PO468148  29.925  11.256   5.864
 5369POPC   GL168149  29.937  11.277   6.164
 5369POPC   GL268150  29.810  11.252   6.164
 5369POPC   C1A68151  29.882  11.262   6.464
 5369POPC   D2A68152  29.897  11.304   6.764
 5369POPC   C3A68153  29.922  11.251   7.064
 5369POPC   C4A68154  29.921  11.270   7.364
 5369POPC   C1B68155  29.736  11.168   6.464
 5369POPC   C2B68156  29.679  11.193   6.764
 5369POPC   C3B68157  29.662  11.159   7.064
 5369POPC   C4B68158  29.723  11.169   7.364
 5370POPC   NC368159  24.503  40.808   5.564
 5370POPC   PO468160  24.453  40.769   5.864
 5370POPC   GL168161  24.492  40.767   6.164
 5370POPC   GL268162  24.563  40.883   6.164
 5370POPC   C1A68163  24.536  40.756   6.464
 5370POPC   D2A68164  24.461  40.781   6.764
 5370POPC   C3A68165  24.519  40.762   7.064
 5370POPC   C4A68166  24.442  40.764   7.364
 5370POPC   C1B68167  24.566  40.956   6.464
 5370POPC   C2B68168  24.601  41.046   6.764
 5370POPC   C3B68169  24.650  40.956   7.064
 5370POPC   C4B68170  24.632  41.009   7.364
 5371POPC   NC368171  38.504  10.485   5.564
 5371POPC   PO468172  38.417  10.541   5.864
 5371POPC   GL168173  38.503  10.507   6.164
 5371POPC   GL268174  38.514  10.581   6.164
 5371POPC   C1A68175  38.466  10.541   6.464
 5371POPC   D2A68176  38.444  10.551   6.764
 5371POPC   C3A68177  38.425  10.496   7.064
 5371POPC   C4A68178  38.499  10.518   7.364
 5371POPC   C1B68179  38.595  10.678   6.464
 5371POPC   C2B68180  38.563  10.759   6.764
 5371POPC   C3B68181  38.643  10.742   7.064
 5371POPC   C4B68182  38.635  10.764   7.364
 5372POPC   NC368183  25.250   1.210   5.564
 5372POPC   PO468184  25.289   1.184   5.864
 5372POPC   GL168185  25.243   1.259   6.164
 5372POPC   GL268186  25.333   1.295   6.164
 5372POPC   C1A68187  25.302   1.237   6.464
 5372POPC   D2A68188  25.281   1.196   6.764
 5372POPC   C3A68189  25.245   1.194   7.064
 5372POPC   C4A68190  25.263   1.237   7.364
 5372POPC   C1B68191  25.425   1.420   6.464
 5372POPC   C2B68192  25.402   1.417   6.764
 5372POPC   C3B68193  25.433   1.476   7.064
 5372POPC   C4B68194  25.428   1.415   7.364
 5373POPC   NC368195  41.553  42.299   5.564
 5373POPC   PO468196  41.535  42.329   5.864
 5373POPC   GL168197  41.571  42.326   6.164
 5373POPC   GL268198  41.452  42.455   6.164
 5373POPC   C1A68199  41.528  42.304   6.464
 5373POPC   D2A68200  41.545  42.347   6.764
 5373POPC   C3A68201  41.608  42.356   7.064
 5373POPC   C4A68202  41.575  42.348   7.364
 5373POPC   C1B68203  41.432  42.542   6.464
 5373POPC   C2B68204  41.450  42.492   6.764
 5373POPC   C3B68205  41.427  42.556   7.064
 5373POPC   C4B68206  41.390  42.527   7.364
 5374POPC   NC368207   6.673  25.288   5.564
 5374POPC   PO468208   6.650  25.276   5.864
 5374POPC   GL168209   6.635  25.227   6.164
 5374POPC   GL268210   6.558  25.160   6.164
 5374POPC   C1A68211   6.611  25.250   6.464
 5374POPC   D2A68212   6.654  25.262   6.764
 5374POPC   C3A68213   6.602  25.289   7.064
 5374POPC   C4A68214   6.598  25.229   7.364
 5374POPC   C1B68215   6.489  25.088   6.464
 5374POPC   C2B68216   6.501  24.999   6.764
 5374POPC   C3B68217   6.531  24.998   7.064
 5374POPC   C4B68218   6.569  25.053   7.364
 5375POPC   NC368219  19.795  18.284   5.564
 5375POPC   PO468220  19.869  18.244   5.864
 5375POPC   GL168221  19.866  18.233   6.164
 5375POPC   GL268222  19.860  18.367   6.164
 5375POPC   C1A68223  19.831  18.265   6.464
 5375POPC   D2A68224  19.841  18.262   6.764
 5375POPC   C3A68225  19.802  18.245   7.064
 5375POPC   C4A68226  19.850  18.247   7.364
 5375POPC   C1B68227  19.937  18.543   6.464
 5375POPC   C2B68228  19.977  18.515   6.764
 5375POPC   C3B68229  19.935  18.484   7.064
 5375POPC   C4B68230  19.943  18.507   7.364
 5376POPC   NC368231  36.083  33.755   5.564
 5376POPC   PO468232  36.088  33.814   5.864
 5376POPC   GL168233  36.142  33.766   6.164
 5376POPC   GL268234  36.055  33.632   6.164
 5376POPC   C1A68235  36.137  33.777   6.464
 5376POPC   D2A68236  36.157  33.836   6.764
 5376POPC   C3A68237  36.177  33.847   7.064
 5376POPC   C4A68238  36.158  33.778   7.364
 5376POPC   C1B68239  36.078  33.511   6.464
 5376POPC   C2B68240  36.029  33.597   6.764
 5376POPC   C3B68241  36.033  33.589   7.064
 5376POPC   C4B68242  36.042  33.523   7.364
 5377POPC   NC368243  25.992   6.668   5.564
 5377POPC   PO468244  26.026   6.686   5.864
 5377POPC   GL168245  25.998   6.602   6.164
 5377POPC   GL268246  26.107   6.481   6.164
 5377POPC   C1A68247  26.077   6.654   6.464
 5377POPC   D2A68248  26.038   6.640   6.764
 5377POPC   C3A68249  26.080   6.645   7.064
 5377POPC   C4A68250  26.034   6.605   7.364
 5377POPC   C1B68251  26.092   6.407   6.464
 5377POPC   C2B68252  26.135   6.423   6.764
 5377POPC   C3B68253  26.136   6.427   7.064
 5377POPC   C4B68254  26.065   6.361   7.364
 5378POPC   NC368255  30.670   8.176   5.564
 5378POPC   PO468256  30.673   8.228   5.864
 5378POPC   GL168257  30.660   8.229   6.164
 5378POPC   GL268258  30.761   8.099   6.164
 5378POPC   C1A68259  30.724   8.201   6.464
 5378POPC   D2A68260  30.702   8.191   6.764
 5378POPC   C3A68261  30.703   8.188   7.064
 5378POPC   C4A68262  30.733   8.180   7.364
 5378POPC   C1B68263  30.800   7.983   6.464
 5378POPC   C2B68264  30.768   7.982   6.764
 5378POPC   C3B68265  30.821   7.945   7.064
 5378POPC   C4B68266  30.824   7.999   7.364
 5379POPC   NC368267  19.850  25.233   5.564
 5379POPC   PO468268  19.857  25.276   5.864
 5379POPC   GL168269  19.798  25.257   6.164
 5379POPC   GL268270  19.681  25.284   6.164
 5379POPC   C1A68271  19.842  25.274   6.464
 5379POPC   D2A68272  19.824  25.246   6.764
 5379POPC   C3A68273  19.842  25.282   7.064
 5379POPC   C4A68274  19.813  25.238   7.364
 5379POPC   C1B68275  19.622  25.308   6.464
 5379POPC   C2B68276  19.626  25.233   6.764
 5379POPC   C3B68277  19.625  25.275   7.064
 5379POPC   C4B68278  19.553  25.262   7.364
 5380POPC   NC368279  33.001  20.612   5.564
 5380POPC   PO468280  33.053  20.592   5.864
 5380POPC   GL168281  33.048  20.566   6.164
 5380POPC   GL268282  32.952  20.518   6.164
 5380POPC   C1A68283  33.016  20.624   6.464
 5380POPC   D2A68284  32.987  20.562   6.764
 5380POPC   C3A68285  33.020  20.563   7.064
 5380POPC   C4A68286  33.016  20.562   7.364
 5380POPC   C1B68287  32.848  20.401   6.464
 5380POPC   C2B68288  32.887  20.433   6.764
 5380POPC   C3B68289  32.869  20.477   7.064
 5380POPC   C4B68290  32.797  20.466   7.364
 5381POPC   NC368291  12.893   2.038   5.564
 5381POPC   PO468292  12.845   2.029   5.864
 5381POPC   GL168293  12.870   1.980   6.164
 5381POPC   GL268294  12.910   2.100   6.164
 5381POPC   C1A68295  12.842   1.964   6.464
 5381POPC   D2A68296  12.889   1.960   6.764
 5381POPC   C3A68297  12.802   2.019   7.064
 5381POPC   C4A68298  12.877   2.038   7.364
 5381POPC   C1B68299  12.998   2.120   6.464
 5381POPC   C2B68300  13.059   2.139   6.764
 5381POPC   C3B68301  13.052   2.185   7.064
 5381POPC   C4B68302  13.000   2.129   7.364
 5382POPC   NC368303  43.919   4.343   5.564
 5382POPC   PO468304  43.923   4.303   5.864
 5382POPC   GL168305  43.857   4.293   6.164
 5382POPC   GL268306  43.877   4.444   6.164
 5382POPC   C1A68307  43.923   4.321   6.464
 5382POPC   D2A68308  43.894   4.311   6.764
 5382POPC   C3A68309  43.928   4.282   7.064
 5382POPC   C4A68310  43.891   4.315   7.364
 5382POPC   C1B68311  43.741   4.572   6.464
 5382POPC   C2B68312  43.786   4.569   6.764
 5382POPC   C3B68313  43.773   4.580   7.064
 5382POPC   C4B68314  43.794   4.569   7.364
 5383POPC   NC368315  36.854  39.191   5.564
 5383POPC   PO468316  36.946  39.199   5.864
 5383POPC   GL168317  36.857  39.219   6.164
 5383POPC   GL268318  36.730  39.204   6.164
 5383POPC   C1A68319  36.877  39.278   6.464
 5383POPC   D2A68320  36.909  39.228   6.764
 5383POPC   C3A68321  36.918  39.258   7.064
 5383POPC   C4A68322  36.859  39.228   7.364
 5383POPC   C1B68323  36.664  39.301   6.464
 5383POPC   C2B68324  36.672  39.272   6.764
 5383POPC   C3B68325  36.646  39.217   7.064
 5383POPC   C4B68326  36.606  39.270   7.364
 5384POPC   NC368327  28.405   4.314   5.564
 5384POPC   PO468328  28.407   4.327   5.864
 5384POPC   GL168329  28.355   4.342   6.164
 5384POPC   GL268330  28.460   4.379   6.164
 5384POPC   C1A68331  28.361   4.280   6.464
 5384POPC   D2A68332  28.379   4.282   6.764
 5384POPC   C3A68333  28.329   4.279   7.064
 5384POPC   C4A68334  28.366   4.270   7.364
 5384POPC   C1B68335  28.568   4.300   6.464
 5384POPC   C2B68336  28.600   4.373   6.764
 5384POPC   C3B68337  28.582   4.344   7.064
 5384POPC   C4B68338  28.584   4.332   7.364
 5385POPC   NC368339   4.295  42.366   5.564
 5385POPC   PO468340   4.319  42.369   5.864
 5385POPC   GL168341   4.313  42.320   6.164
 5385POPC   GL268342   4.284  42.498   6.164
 5385POPC   C1A68343   4.329  42.329   6.464
 5385POPC   D2A68344   4.338  42.331   6.764
 5385POPC   C3A68345   4.303  42.343   7.064
 5385POPC   C4A68346   4.283  42.312   7.364
 5385POPC   C1B68347   4.255  42.547   6.464
 5385POPC   C2B68348   4.254  42.536   6.764
 5385POPC   C3B68349   4.239  42.519   7.064
 5385POPC   C4B68350   4.249  42.588   7.364
 5386POPC   NC368351  13.608  10.561   5.564
 5386POPC   PO468352  13.578  10.477   5.864
 5386POPC   GL168353  13.652  10.500   6.164
 5386POPC   GL268354  13.700  10.552   6.164
 5386POPC   C1A68355  13.611  10.488   6.464
 5386POPC   D2A68356  13.605  10.567   6.764
 5386POPC   C3A68357  13.598  10.481   7.064
 5386POPC   C4A68358  13.632  10.540   7.364
 5386POPC   C1B68359  13.806  10.622   6.464
 5386POPC   C2B68360  13.831  10.605   6.764
 5386POPC   C3B68361  13.846  10.650   7.064
 5386POPC   C4B68362  13.881  10.700   7.364
 5387POPC   NC368363  10.485   1.959   5.564
 5387POPC   PO468364  10.522   2.018   5.864
 5387POPC   GL168365  10.510   1.946   6.164
 5387POPC   GL268366  10.462   1.872   6.164
 5387POPC   C1A68367  10.512   1.973   6.464
 5387POPC   D2A68368  10.520   2.030   6.764
 5387POPC   C3A68369  10.557   1.963   7.064
 5387POPC   C4A68370  10.530   2.020   7.364
 5387POPC   C1B68371  10.526   1.746   6.464
 5387POPC   C2B68372  10.469   1.784   6.764
 5387POPC   C3B68373  10.512   1.790   7.064
 5387POPC   C4B68374  10.452   1.730   7.364
 5388POPC   NC368375   5.877   2.026   5.564
 5388POPC   PO468376   5.885   1.955   5.864
 5388POPC   GL168377   5.890   2.025   6.164
 5388POPC   GL268378   5.984   1.914   6.164
 5388POPC   C1A68379   5.839   2.038   6.464
 5388POPC   D2A68380   5.907   1.956   6.764
 5388POPC   C3A68381   5.895   1.993   7.064
 5388POPC   C4A68382   5.861   2.039   7.364
 5388POPC   C1B68383   6.039   1.884   6.464
 5388POPC   C2B68384   6.090   1.840   6.764
 5388POPC   C3B68385   6.087   1.868   7.064
 5388POPC   C4B68386   6.041   1.811   7.364
 5389POPC   NC368387  16.747  22.986   5.564
 5389POPC   PO468388  16.708  22.988   5.864
 5389POPC   GL168389  16.769  22.975   6.164
 5389POPC   GL268390  16.633  22.915   6.164
 5389POPC   C1A68391  16.769  22.976   6.464
 5389POPC   D2A68392  16.779  22.908   6.764
 5389POPC   C3A68393  16.777  22.931   7.064
 5389POPC   C4A68394  16.752  22.929   7.364
 5389POPC   C1B68395  16.464  22.976   6.464
 5389POPC   C2B68396  16.438  22.990   6.764
 5389POPC   C3B68397  16.528  23.002   7.064
 5389POPC   C4B68398  16.508  22.929   7.364
 5390POPC   NC368399  37.667   1.177   5.564
 5390POPC   PO468400  37.662   1.260   5.864
 5390POPC   GL168401  37.684   1.171   6.164
 5390POPC   GL268402  37.569   1.096   6.164
 5390POPC   C1A68403  37.694   1.165   6.464
 5390POPC   D2A68404  37.674   1.181   6.764
 5390POPC   C3A68405  37.669   1.221   7.064
 5390POPC   C4A68406  37.676   1.197   7.364
 5390POPC   C1B68407  37.530   0.977   6.464
 5390POPC   C2B68408  37.509   0.972   6.764
 5390POPC   C3B68409  37.542   0.989   7.064
 5390POPC   C4B68410  37.539   1.067   7.364
 5391POPC   NC368411  14.445  26.050   5.564
 5391POPC   PO468412  14.388  26.044   5.864
 5391POPC   GL168413  14.360  26.083   6.164
 5391POPC   GL268414  14.484  25.913   6.164
 5391POPC   C1A68415  14.368  26.041   6.464
 5391POPC   D2A68416  14.396  26.059   6.764
 5391POPC   C3A68417  14.413  25.996   7.064
 5391POPC   C4A68418  14.376  25.999   7.364
 5391POPC   C1B68419  14.561  25.831   6.464
 5391POPC   C2B68420  14.626  25.867   6.764
 5391POPC   C3B68421  14.632  25.864   7.064
 5391POPC   C4B68422  14.540  25.902   7.364
 5392POPC   NC368423  38.409  38.457   5.564
 5392POPC   PO468424  38.484  38.502   5.864
 5392POPC   GL168425  38.406  38.464   6.164
 5392POPC   GL268426  38.540  38.386   6.164
 5392POPC   C1A68427  38.437  38.419   6.464
 5392POPC   D2A68428  38.488  38.406   6.764
 5392POPC   C3A68429  38.477  38.416   7.064
 5392POPC   C4A68430  38.423  38.408   7.364
 5392POPC   C1B68431  38.557  38.246   6.464
 5392POPC   C2B68432  38.545  38.290   6.764
 5392POPC   C3B68433  38.589  38.202   7.064
 5392POPC   C4B68434  38.585  38.250   7.364
 5393POPC   NC368435  39.202  29.122   5.564
 5393POPC   PO468436  39.262  29.145   5.864
 5393POPC   GL168437  39.184  29.171   6.164
 5393POPC   GL268438  39.364  29.148   6.164
 5393POPC   C1A68439  39.247  29.174   6.464
 5393POPC   D2A68440  39.186  29.121   6.764
 5393POPC   C3A68441  39.232  29.115   7.064
 5393POPC   C4A68442  39.213  29.124   7.364
 5393POPC   C1B68443  39.447  29.130   6.464
 5393POPC   C2B68444  39.493  29.049   6.764
 5393POPC   C3B68445  39.452  29.131   7.064
 5393POPC   C4B68446  39.445  29.121   7.364
 5394POPC   NC368447   9.716   1.261   5.564
 5394POPC   PO468448   9.734   1.189   5.864
 5394POPC   GL168449   9.781   1.212   6.164
 5394POPC   GL268450   9.897   1.248   6.164
 5394POPC   C1A68451   9.782   1.241   6.464
 5394POPC   D2A68452   9.785   1.171   6.764
 5394POPC   C3A68453   9.700   1.225   7.064
 5394POPC   C4A68454   9.783   1.206   7.364
 5394POPC   C1B68455  10.045   1.215   6.464
 5394POPC   C2B68456   9.978   1.187   6.764
 5394POPC   C3B68457  10.013   1.204   7.064
 5394POPC   C4B68458  10.016   1.188   7.364
 5395POPC   NC368459  31.512  40.010   5.564
 5395POPC   PO468460  31.467  40.025   5.864
 5395POPC   GL168461  31.502  39.975   6.164
 5395POPC   GL268462  31.442  40.153   6.164
 5395POPC   C1A68463  31.492  40.033   6.464
 5395POPC   D2A68464  31.457  40.020   6.764
 5395POPC   C3A68465  31.443  39.964   7.064
 5395POPC   C4A68466  31.444  40.014   7.364
 5395POPC   C1B68467  31.322  40.277   6.464
 5395POPC   C2B68468  31.341  40.255   6.764
 5395POPC   C3B68469  31.398  40.243   7.064
 5395POPC   C4B68470  31.345  40.272   7.364
 5396POPC   NC368471   1.244   8.171   5.564
 5396POPC   PO468472   1.210   8.196   5.864
 5396POPC   GL168473   1.175   8.216   6.164
 5396POPC   GL268474   1.093   8.224   6.164
 5396POPC   C1A68475   1.214   8.168   6.464
 5396POPC   D2A68476   1.255   8.182   6.764
 5396POPC   C3A68477   1.196   8.196   7.064
 5396POPC   C4A68478   1.166   8.167   7.364
 5396POPC   C1B68479   0.945   8.184   6.464
 5396POPC   C2B68480   0.957   8.119   6.764
 5396POPC   C3B68481   0.975   8.164   7.064
 5396POPC   C4B68482   0.982   8.164   7.364
 5397POPC   NC368483  16.701  13.605   5.564
 5397POPC   PO468484  16.774  13.612   5.864
 5397POPC   GL168485  16.772  13.604   6.164
 5397POPC   GL268486  16.834  13.581   6.164
 5397POPC   C1A68487  16.740  13.609   6.464
 5397POPC   D2A68488  16.759  13.604   6.764
 5397POPC   C3A68489  16.684  13.643   7.064
 5397POPC   C4A68490  16.690  13.665   7.364
 5397POPC   C1B68491  16.994  13.589   6.464
 5397POPC   C2B68492  16.935  13.570   6.764
 5397POPC   C3B68493  16.973  13.556   7.064
 5397POPC   C4B68494  17.015  13.601   7.364
 5398POPC   NC368495  39.256  38.455   5.564
 5398POPC   PO468496  39.212  38.476   5.864
 5398POPC   GL168497  39.198  38.413   6.164
 5398POPC   GL268498  39.292  38.314   6.164
 5398POPC   C1A68499  39.264  38.434   6.464
 5398POPC   D2A68500  39.189  38.469   6.764
 5398POPC   C3A68501  39.182  38.408   7.064
 5398POPC   C4A68502  39.274  38.501   7.364
 5398POPC   C1B68503  39.258  38.160   6.464
 5398POPC   C2B68504  39.281  38.212   6.764
 5398POPC   C3B68505  39.284  38.210   7.064
 5398POPC   C4B68506  39.231  38.192   7.364
 5399POPC   NC368507  40.785  34.557   5.564
 5399POPC   PO468508  40.815  34.595   5.864
 5399POPC   GL168509  40.818  34.576   6.164
 5399POPC   GL268510  40.721  34.489   6.164
 5399POPC   C1A68511  40.737  34.615   6.464
 5399POPC   D2A68512  40.766  34.579   6.764
 5399POPC   C3A68513  40.774  34.546   7.064
 5399POPC   C4A68514  40.752  34.564   7.364
 5399POPC   C1B68515  40.540  34.445   6.464
 5399POPC   C2B68516  40.603  34.440   6.764
 5399POPC   C3B68517  40.623  34.460   7.064
 5399POPC   C4B68518  40.554  34.405   7.364
 5400POPC   NC368519  31.449   2.770   5.564
 5400POPC   PO468520  31.513   2.794   5.864
 5400POPC   GL168521  31.484   2.729   6.164
 5400POPC   GL268522  31.426   2.614   6.164
 5400POPC   C1A68523  31.427   2.744   6.464
 5400POPC   D2A68524  31.451   2.811   6.764
 5400POPC   C3A68525  31.514   2.765   7.064
 5400POPC   C4A68526  31.483   2.727   7.364
 5400POPC   C1B68527  31.323   2.583   6.464
 5400POPC   C2B68528  31.301   2.539   6.764
 5400POPC   C3B68529  31.295   2.530   7.064
 5400POPC   C4B68530  31.320   2.580   7.364
 5401POPC   NC368531   9.711  27.552   5.564
 5401POPC   PO468532   9.792  27.548   5.864
 5401POPC   GL168533   9.798  27.616   6.164
 5401POPC   GL268534   9.756  27.701   6.164
 5401POPC   C1A68535   9.757  27.622   6.464
 5401POPC   D2A68536   9.770  27.606   6.764
 5401POPC   C3A68537   9.779  27.577   7.064
 5401POPC   C4A68538   9.718  27.564   7.364
 5401POPC   C1B68539   9.662  27.859   6.464
 5401POPC   C2B68540   9.721  27.791   6.764
 5401POPC   C3B68541   9.651  27.797   7.064
 5401POPC   C4B68542   9.682  27.812   7.364
 5402POPC   NC368543   4.345  35.339   5.564
 5402POPC   PO468544   4.353  35.325   5.864
 5402POPC   GL168545   4.304  35.376   6.164
 5402POPC   GL268546   4.431  35.357   6.164
 5402POPC   C1A68547   4.340  35.313   6.464
 5402POPC   D2A68548   4.367  35.376   6.764
 5402POPC   C3A68549   4.319  35.311   7.064
 5402POPC   C4A68550   4.284  35.395   7.364
 5402POPC   C1B68551   4.597  35.307   6.464
 5402POPC   C2B68552   4.525  35.308   6.764
 5402POPC   C3B68553   4.567  35.349   7.064
 5402POPC   C4B68554   4.564  35.333   7.364
 5403POPC   NC368555  10.562  15.206   5.564
 5403POPC   PO468556  10.510  15.144   5.864
 5403POPC   GL168557  10.523  15.176   6.164
 5403POPC   GL268558  10.641  15.203   6.164
 5403POPC   C1A68559  10.537  15.216   6.464
 5403POPC   D2A68560  10.497  15.208   6.764
 5403POPC   C3A68561  10.531  15.216   7.064
 5403POPC   C4A68562  10.506  15.191   7.364
 5403POPC   C1B68563  10.751  15.271   6.464
 5403POPC   C2B68564  10.783  15.284   6.764
 5403POPC   C3B68565  10.695  15.308   7.064
 5403POPC   C4B68566  10.742  15.299   7.364
 5404POPC   NC368567  10.523   3.565   5.564
 5404POPC   PO468568  10.481   3.505   5.864
 5404POPC   GL168569  10.564   3.571   6.164
 5404POPC   GL268570  10.552   3.627   6.164
 5404POPC   C1A68571  10.522   3.519   6.464
 5404POPC   D2A68572  10.494   3.503   6.764
 5404POPC   C3A68573  10.498   3.494   7.064
 5404POPC   C4A68574  10.557   3.586   7.364
 5404POPC   C1B68575  10.664   3.759   6.464
 5404POPC   C2B68576  10.638   3.763   6.764
 5404POPC   C3B68577  10.692   3.736   7.064
 5404POPC   C4B68578  10.648   3.724   7.364
 5405POPC   NC368579  22.919  44.709   5.564
 5405POPC   PO468580  22.891  44.669   5.864
 5405POPC   GL168581  22.891  44.622   6.164
 5405POPC   GL268582  23.012  44.594   6.164
 5405POPC   C1A68583  22.948  44.711   6.464
 5405POPC   D2A68584  22.962  44.682   6.764
 5405POPC   C3A68585  22.934  44.670   7.064
 5405POPC   C4A68586  22.924  44.658   7.364
 5405POPC   C1B68587  23.160  44.543   6.464
 5405POPC   C2B68588  23.164  44.580   6.764
 5405POPC   C3B68589  23.221  44.541   7.064
 5405POPC   C4B68590  23.223  44.568   7.364
 5406POPC   NC368591  14.438  19.020   5.564
 5406POPC   PO468592  14.394  19.063   5.864
 5406POPC   GL168593  14.386  19.093   6.164
 5406POPC   GL268594  14.508  19.159   6.164
 5406POPC   C1A68595  14.418  19.024   6.464
 5406POPC   D2A68596  14.401  19.061   6.764
 5406POPC   C3A68597  14.379  19.070   7.064
 5406POPC   C4A68598  14.367  19.102   7.364
 5406POPC   C1B68599  14.573  19.270   6.464
 5406POPC   C2B68600  14.547  19.222   6.764
 5406POPC   C3B68601  14.535  19.250   7.064
 5406POPC   C4B68602  14.555  19.211   7.364
 5407POPC   NC368603   9.708   3.526   5.564
 5407POPC   PO468604   9.718   3.523   5.864
 5407POPC   GL168605   9.773   3.568   6.164
 5407POPC   GL268606   9.785   3.631   6.164
 5407POPC   C1A68607   9.780   3.494   6.464
 5407POPC   D2A68608   9.713   3.559   6.764
 5407POPC   C3A68609   9.767   3.529   7.064
 5407POPC   C4A68610   9.705   3.492   7.364
 5407POPC   C1B68611   9.898   3.726   6.464
 5407POPC   C2B68612   9.856   3.794   6.764
 5407POPC   C3B68613   9.846   3.710   7.064
 5407POPC   C4B68614   9.898   3.785   7.364
 5408POPC   NC368615   8.188   4.360   5.564
 5408POPC   PO468616   8.164   4.316   5.864
 5408POPC   GL168617   8.201   4.295   6.164
 5408POPC   GL268618   8.263   4.352   6.164
 5408POPC   C1A68619   8.245   4.330   6.464
 5408POPC   D2A68620   8.171   4.284   6.764
 5408POPC   C3A68621   8.211   4.352   7.064
 5408POPC   C4A68622   8.222   4.350   7.364
 5408POPC   C1B68623   8.393   4.478   6.464
 5408POPC   C2B68624   8.340   4.453   6.764
 5408POPC   C3B68625   8.384   4.452   7.064
 5408POPC   C4B68626   8.333   4.522   7.364
 5409POPC   NC368627  41.510   8.221   5.564
 5409POPC   PO468628  41.555   8.152   5.864
 5409POPC   GL168629  41.515   8.218   6.164
 5409POPC   GL268630  41.443   8.055   6.164
 5409POPC   C1A68631  41.541   8.159   6.464
 5409POPC   D2A68632  41.514   8.180   6.764
 5409POPC   C3A68633  41.581   8.199   7.064
 5409POPC   C4A68634  41.523   8.213   7.364
 5409POPC   C1B68635  41.466   7.969   6.464
 5409POPC   C2B68636  41.465   8.011   6.764
 5409POPC   C3B68637  41.411   7.940   7.064
 5409POPC   C4B68638  41.392   7.954   7.364
 5410POPC   NC368639  15.956  42.355   5.564
 5410POPC   PO468640  15.962  42.364   5.864
 5410POPC   GL168641  15.957  42.303   6.164
 5410POPC   GL268642  15.812  42.381   6.164
 5410POPC   C1A68643  16.000  42.302   6.464
 5410POPC   D2A68644  15.994  42.369   6.764
 5410POPC   C3A68645  15.990  42.369   7.064
 5410POPC   C4A68646  15.933  42.309   7.364
 5410POPC   C1B68647  15.703  42.349   6.464
 5410POPC   C2B68648  15.663  42.328   6.764
 5410POPC   C3B68649  15.686  42.350   7.064
 5410POPC   C4B68650  15.667  42.366   7.364
 5411POPC   NC368651  36.080   5.829   5.564
 5411POPC   PO468652  36.121   5.891   5.864
 5411POPC   GL168653  36.174   5.915   6.164
 5411POPC   GL268654  36.175   5.790   6.164
 5411POPC   C1A68655  36.174   5.820   6.464
 5411POPC   D2A68656  36.108   5.852   6.764
 5411POPC   C3A68657  36.174   5.858   7.064
 5411POPC   C4A68658  36.092   5.891   7.364
 5411POPC   C1B68659  36.247   5.663   6.464
 5411POPC   C2B68660  36.258   5.644   6.764
 5411POPC   C3B68661  36.177   5.659   7.064
 5411POPC   C4B68662  36.224   5.590   7.364
 5412POPC   NC368663  40.043  26.786   5.564
 5412POPC   PO468664  40.018  26.802   5.864
 5412POPC   GL168665  39.969  26.862   6.164
 5412POPC   GL268666  39.901  26.828   6.164
 5412POPC   C1A68667  40.039  26.814   6.464
 5412POPC   D2A68668  40.005  26.796   6.764
 5412POPC   C3A68669  40.006  26.789   7.064
 5412POPC   C4A68670  40.004  26.808   7.364
 5412POPC   C1B68671  39.744  26.714   6.464
 5412POPC   C2B68672  39.803  26.785   6.764
 5412POPC   C3B68673  39.813  26.767   7.064
 5412POPC   C4B68674  39.744  26.789   7.364
 5413POPC   NC368675  39.240  26.072   5.564
 5413POPC   PO468676  39.259  26.030   5.864
 5413POPC   GL168677  39.273  26.059   6.164
 5413POPC   GL268678  39.288  26.146   6.164
 5413POPC   C1A68679  39.207  25.993   6.464
 5413POPC   D2A68680  39.227  26.083   6.764
 5413POPC   C3A68681  39.275  26.083   7.064
 5413POPC   C4A68682  39.201  26.073   7.364
 5413POPC   C1B68683  39.355  26.295   6.464
 5413POPC   C2B68684  39.316  26.286   6.764
 5413POPC   C3B68685  39.409  26.264   7.064
 5413POPC   C4B68686  39.342  26.221   7.364
 5414POPC   NC368687  23.714  39.276   5.564
 5414POPC   PO468688  23.764  39.262   5.864
 5414POPC   GL168689  23.671  39.278   6.164
 5414POPC   GL268690  23.630  39.225   6.164
 5414POPC   C1A68691  23.673  39.236   6.464
 5414POPC   D2A68692  23.693  39.197   6.764
 5414POPC   C3A68693  23.761  39.236   7.064
 5414POPC   C4A68694  23.682  39.188   7.364
 5414POPC   C1B68695  23.485  39.187   6.464
 5414POPC   C2B68696  23.417  39.263   6.764
 5414POPC   C3B68697  23.456  39.260   7.064
 5414POPC   C4B68698  23.431  39.240   7.364
 5415POPC   NC368699  10.514  12.038   5.564
 5415POPC   PO468700  10.485  12.039   5.864
 5415POPC   GL168701  10.508  12.042   6.164
 5415POPC   GL268702  10.628  11.965   6.164
 5415POPC   C1A68703  10.521  12.087   6.464
 5415POPC   D2A68704  10.548  12.040   6.764
 5415POPC   C3A68705  10.545  12.075   7.064
 5415POPC   C4A68706  10.531  12.085   7.364
 5415POPC   C1B68707  10.664  11.870   6.464
 5415POPC   C2B68708  10.688  11.899   6.764
 5415POPC   C3B68709  10.671  11.931   7.064
 5415POPC   C4B68710  10.748  11.852   7.364
 5416POPC   NC368711  39.958  14.380   5.564
 5416POPC   PO468712  40.050  14.404   5.864
 5416POPC   GL168713  40.034  14.390   6.164
 5416POPC   GL268714  39.889  14.366   6.164
 5416POPC   C1A68715  40.055  14.429   6.464
 5416POPC   D2A68716  40.044  14.425   6.764
 5416POPC   C3A68717  40.021  14.356   7.064
 5416POPC   C4A68718  39.991  14.390   7.364
 5416POPC   C1B68719  39.750  14.265   6.464
 5416POPC   C2B68720  39.817  14.311   6.764
 5416POPC   C3B68721  39.785  14.284   7.064
 5416POPC   C4B68722  39.821  14.324   7.364
 5417POPC   NC368723  30.678  21.366   5.564
 5417POPC   PO468724  30.736  21.427   5.864
 5417POPC   GL168725  30.649  21.367   6.164
 5417POPC   GL268726  30.683  21.260   6.164
 5417POPC   C1A68727  30.665  21.367   6.464
 5417POPC   D2A68728  30.714  21.343   6.764
 5417POPC   C3A68729  30.689  21.350   7.064
 5417POPC   C4A68730  30.739  21.371   7.364
 5417POPC   C1B68731  30.699  21.134   6.464
 5417POPC   C2B68732  30.697  21.101   6.764
 5417POPC   C3B68733  30.669  21.163   7.064
 5417POPC   C4B68734  30.689  21.181   7.364
 5418POPC   NC368735  19.030  12.077   5.564
 5418POPC   PO468736  19.057  12.069   5.864
 5418POPC   GL168737  19.049  12.082   6.164
 5418POPC   GL268738  18.951  12.016   6.164
 5418POPC   C1A68739  19.102  12.104   6.464
 5418POPC   D2A68740  19.050  12.036   6.764
 5418POPC   C3A68741  19.011  12.121   7.064
 5418POPC   C4A68742  19.043  12.046   7.364
 5418POPC   C1B68743  18.798  12.005   6.464
 5418POPC   C2B68744  18.808  12.004   6.764
 5418POPC   C3B68745  18.788  12.043   7.064
 5418POPC   C4B68746  18.800  12.067   7.364
 5419POPC   NC368747  12.900   9.780   5.564
 5419POPC   PO468748  12.807   9.731   5.864
 5419POPC   GL168749  12.889   9.723   6.164
 5419POPC   GL268750  12.777   9.685   6.164
 5419POPC   C1A68751  12.901   9.781   6.464
 5419POPC   D2A68752  12.819   9.709   6.764
 5419POPC   C3A68753  12.842   9.710   7.064
 5419POPC   C4A68754  12.879   9.736   7.364
 5419POPC   C1B68755  12.625   9.591   6.464
 5419POPC   C2B68756  12.681   9.613   6.764
 5419POPC   C3B68757  12.662   9.558   7.064
 5419POPC   C4B68758  12.641   9.551   7.364
 5420POPC   NC368759   7.468  33.044   5.564
 5420POPC   PO468760   7.438  33.025   5.864
 5420POPC   GL168761   7.382  33.069   6.164
 5420POPC   GL268762   7.341  33.130   6.164
 5420POPC   C1A68763   7.430  33.008   6.464
 5420POPC   D2A68764   7.449  32.982   6.764
 5420POPC   C3A68765   7.401  32.990   7.064
 5420POPC   C4A68766   7.435  32.978   7.364
 5420POPC   C1B68767   7.230  33.219   6.464
 5420POPC   C2B68768   7.313  33.252   6.764
 5420POPC   C3B68769   7.260  33.226   7.064
 5420POPC   C4B68770   7.326  33.269   7.364
 5421POPC   NC368771   8.993  31.463   5.564
 5421POPC   PO468772   8.980  31.448   5.864
 5421POPC   GL168773   9.019  31.483   6.164
 5421POPC   GL268774   8.943  31.339   6.164
 5421POPC   C1A68775   8.950  31.455   6.464
 5421POPC   D2A68776   9.013  31.520   6.764
 5421POPC   C3A68777   9.018  31.464   7.064
 5421POPC   C4A68778   8.988  31.446   7.364
 5421POPC   C1B68779   8.889  31.267   6.464
 5421POPC   C2B68780   8.841  31.272   6.764
 5421POPC   C3B68781   8.936  31.203   7.064
 5421POPC   C4B68782   8.889  31.229   7.364
 5422POPC   NC368783  15.963  27.613   5.564
 5422POPC   PO468784  15.951  27.551   5.864
 5422POPC   GL168785  15.990  27.606   6.164
 5422POPC   GL268786  16.044  27.514   6.164
 5422POPC   C1A68787  15.920  27.574   6.464
 5422POPC   D2A68788  15.944  27.631   6.764
 5422POPC   C3A68789  15.981  27.614   7.064
 5422POPC   C4A68790  15.949  27.580   7.364
 5422POPC   C1B68791  16.223  27.516   6.464
 5422POPC   C2B68792  16.205  27.554   6.764
 5422POPC   C3B68793  16.239  27.529   7.064
 5422POPC   C4B68794  16.232  27.559   7.364
 5423POPC   NC368795   7.442  19.837   5.564
 5423POPC   PO468796   7.456  19.877   5.864
 5423POPC   GL168797   7.387  19.809   6.164
 5423POPC   GL268798   7.531  19.805   6.164
 5423POPC   C1A68799   7.382  19.866   6.464
 5423POPC   D2A68800   7.461  19.840   6.764
 5423POPC   C3A68801   7.398  19.797   7.064
 5423POPC   C4A68802   7.384  19.864   7.364
 5423POPC   C1B68803   7.653  19.841   6.464
 5423POPC   C2B68804   7.665  19.802   6.764
 5423POPC   C3B68805   7.698  19.856   7.064
 5423POPC   C4B68806   7.704  19.794   7.364
 5424POPC   NC368807   9.017  42.302   5.564
 5424POPC   PO468808   8.960  42.366   5.864
 5424POPC   GL168809   8.955  42.331   6.164
 5424POPC   GL268810   8.943  42.247   6.164
 5424POPC   C1A68811   8.989  42.372   6.464
 5424POPC   D2A68812   8.966  42.314   6.764
 5424POPC   C3A68813   8.997  42.287   7.064
 5424POPC   C4A68814   8.954  42.372   7.364
 5424POPC   C1B68815   8.986  42.093   6.464
 5424POPC   C2B68816   8.998  42.086   6.764
 5424POPC   C3B68817   8.941  42.079   7.064
 5424POPC   C4B68818   9.001  42.045   7.364
 5425POPC   NC368819   1.963  16.689   5.564
 5425POPC   PO468820   1.959  16.751   5.864
 5425POPC   GL168821   2.013  16.693   6.164
 5425POPC   GL268822   2.101  16.775   6.164
 5425POPC   C1A68823   1.995  16.746   6.464
 5425POPC   D2A68824   1.970  16.751   6.764
 5425POPC   C3A68825   1.989  16.780   7.064
 5425POPC   C4A68826   2.026  16.712   7.364
 5425POPC   C1B68827   2.191  16.872   6.464
 5425POPC   C2B68828   2.198  16.846   6.764
 5425POPC   C3B68829   2.150  16.910   7.064
 5425POPC   C4B68830   2.178  16.844   7.364
 5426POPC   NC368831  39.225   4.301   5.564
 5426POPC   PO468832  39.224   4.342   5.864
 5426POPC   GL168833  39.220   4.351   6.164
 5426POPC   GL268834  39.291   4.368   6.164
 5426POPC   C1A68835  39.271   4.290   6.464
 5426POPC   D2A68836  39.189   4.279   6.764
 5426POPC   C3A68837  39.220   4.340   7.064
 5426POPC   C4A68838  39.265   4.340   7.364
 5426POPC   C1B68839  39.425   4.486   6.464
 5426POPC   C2B68840  39.409   4.523   6.764
 5426POPC   C3B68841  39.341   4.463   7.064
 5426POPC   C4B68842  39.399   4.476   7.364
 5427POPC   NC368843  32.256   1.947   5.564
 5427POPC   PO468844  32.296   2.010   5.864
 5427POPC   GL168845  32.284   2.024   6.164
 5427POPC   GL268846  32.243   1.840   6.164
 5427POPC   C1A68847  32.292   2.016   6.464
 5427POPC   D2A68848  32.256   2.028   6.764
 5427POPC   C3A68849  32.204   1.963   7.064
 5427POPC   C4A68850  32.275   2.006   7.364
 5427POPC   C1B68851  32.230   1.744   6.464
 5427POPC   C2B68852  32.212   1.781   6.764
 5427POPC   C3B68853  32.184   1.788   7.064
 5427POPC   C4B68854  32.199   1.732   7.364
 5428POPC   NC368855  27.599   6.630   5.564
 5428POPC   PO468856  27.592   6.603   5.864
 5428POPC   GL168857  27.620   6.658   6.164
 5428POPC   GL268858  27.498   6.592   6.164
 5428POPC   C1A68859  27.603   6.693   6.464
 5428POPC   D2A68860  27.593   6.688   6.764
 5428POPC   C3A68861  27.575   6.643   7.064
 5428POPC   C4A68862  27.614   6.625   7.364
 5428POPC   C1B68863  27.376   6.547   6.464
 5428POPC   C2B68864  27.343   6.560   6.764
 5428POPC   C3B68865  27.334   6.601   7.064
 5428POPC   C4B68866  27.325   6.597   7.364
 5429POPC   NC368867   5.081  18.275   5.564
 5429POPC   PO468868   5.062  18.282   5.864
 5429POPC   GL168869   5.130  18.297   6.164
 5429POPC   GL268870   5.068  18.360   6.164
 5429POPC   C1A68871   5.136  18.309   6.464
 5429POPC   D2A68872   5.124  18.297   6.764
 5429POPC   C3A68873   5.134  18.286   7.064
 5429POPC   C4A68874   5.137  18.326   7.364
 5429POPC   C1B68875   5.086  18.581   6.464
 5429POPC   C2B68876   5.077  18.575   6.764
 5429POPC   C3B68877   5.067  18.525   7.064
 5429POPC   C4B68878   5.051  18.512   7.364
 5430POPC   NC368879  33.031  15.939   5.564
 5430POPC   PO468880  33.032  15.931   5.864
 5430POPC   GL168881  33.055  15.910   6.164
 5430POPC   GL268882  33.021  15.853   6.164
 5430POPC   C1A68883  33.044  15.907   6.464
 5430POPC   D2A68884  33.050  15.998   6.764
 5430POPC   C3A68885  33.051  15.993   7.064
 5430POPC   C4A68886  33.052  16.003   7.364
 5430POPC   C1B68887  32.959  15.728   6.464
 5430POPC   C2B68888  32.911  15.686   6.764
 5430POPC   C3B68889  32.884  15.726   7.064
 5430POPC   C4B68890  32.894  15.711   7.364
 5431POPC   NC368891  35.309  15.216   5.564
 5431POPC   PO468892  35.345  15.211   5.864
 5431POPC   GL168893  35.391  15.147   6.164
 5431POPC   GL268894  35.487  15.063   6.164
 5431POPC   C1A68895  35.335  15.158   6.464
 5431POPC   D2A68896  35.333  15.164   6.764
 5431POPC   C3A68897  35.362  15.129   7.064
 5431POPC   C4A68898  35.302  15.157   7.364
 5431POPC   C1B68899  35.517  15.033   6.464
 5431POPC   C2B68900  35.565  14.966   6.764
 5431POPC   C3B68901  35.564  15.019   7.064
 5431POPC   C4B68902  35.541  15.003   7.364
 5432POPC   NC368903  26.802  39.995   5.564
 5432POPC   PO468904  26.810  39.987   5.864
 5432POPC   GL168905  26.853  40.047   6.164
 5432POPC   GL268906  26.708  39.894   6.164
 5432POPC   C1A68907  26.847  39.965   6.464
 5432POPC   D2A68908  26.769  39.964   6.764
 5432POPC   C3A68909  26.843  39.972   7.064
 5432POPC   C4A68910  26.783  40.005   7.364
 5432POPC   C1B68911  26.586  39.910   6.464
 5432POPC   C2B68912  26.634  39.848   6.764
 5432POPC   C3B68913  26.619  39.832   7.064
 5432POPC   C4B68914  26.601  39.834   7.364
 5433POPC   NC368915  19.833  34.558   5.564
 5433POPC   PO468916  19.813  34.569   5.864
 5433POPC   GL168917  19.875  34.563   6.164
 5433POPC   GL268918  19.704  34.500   6.164
 5433POPC   C1A68919  19.860  34.531   6.464
 5433POPC   D2A68920  19.841  34.610   6.764
 5433POPC   C3A68921  19.811  34.566   7.064
 5433POPC   C4A68922  19.877  34.563   7.364
 5433POPC   C1B68923  19.616  34.367   6.464
 5433POPC   C2B68924  19.604  34.393   6.764
 5433POPC   C3B68925  19.681  34.420   7.064
 5433POPC   C4B68926  19.621  34.391   7.364
 5434POPC   NC368927  44.660  16.684   5.564
 5434POPC   PO468928  44.710  16.689   5.864
 5434POPC   GL168929  44.624  16.733   6.164
 5434POPC   GL268930  44.598  16.629   6.164
 5434POPC   C1A68931  44.631  16.764   6.464
 5434POPC   D2A68932  44.648  16.757   6.764
 5434POPC   C3A68933  44.704  16.721   7.064
 5434POPC   C4A68934  44.662  16.734   7.364
 5434POPC   C1B68935  44.438  16.596   6.464
 5434POPC   C2B68936  44.465  16.589   6.764
 5434POPC   C3B68937  44.431  16.579   7.064
 5434POPC   C4B68938  44.481  16.617   7.364
 5435POPC   NC368939  35.386   1.998   5.564
 5435POPC   PO468940  35.363   1.985   5.864
 5435POPC   GL168941  35.307   1.948   6.164
 5435POPC   GL268942  35.460   1.985   6.164
 5435POPC   C1A68943  35.356   1.950   6.464
 5435POPC   D2A68944  35.389   1.979   6.764
 5435POPC   C3A68945  35.401   1.959   7.064
 5435POPC   C4A68946  35.318   1.978   7.364
 5435POPC   C1B68947  35.577   1.930   6.464
 5435POPC   C2B68948  35.627   1.925   6.764
 5435POPC   C3B68949  35.573   1.894   7.064
 5435POPC   C4B68950  35.549   1.921   7.364
 5436POPC   NC368951  24.463  18.263   5.564
 5436POPC   PO468952  24.537  18.320   5.864
 5436POPC   GL168953  24.476  18.266   6.164
 5436POPC   GL268954  24.364  18.193   6.164
 5436POPC   C1A68955  24.502  18.271   6.464
 5436POPC   D2A68956  24.537  18.305   6.764
 5436POPC   C3A68957  24.448  18.304   7.064
 5436POPC   C4A68958  24.480  18.321   7.364
 5436POPC   C1B68959  24.278  18.129   6.464
 5436POPC   C2B68960  24.306  18.171   6.764
 5436POPC   C3B68961  24.300  18.130   7.064
 5436POPC   C4B68962  24.303  18.152   7.364
 5437POPC   NC368963  36.895  43.903   5.564
 5437POPC   PO468964  36.866  43.867   5.864
 5437POPC   GL168965  36.871  43.874   6.164
 5437POPC   GL268966  36.897  44.012   6.164
 5437POPC   C1A68967  36.926  43.902   6.464
 5437POPC   D2A68968  36.886  43.838   6.764
 5437POPC   C3A68969  36.880  43.857   7.064
 5437POPC   C4A68970  36.922  43.896   7.364
 5437POPC   C1B68971  36.768  44.091   6.464
 5437POPC   C2B68972  36.790  44.112   6.764
 5437POPC   C3B68973  36.805  44.130   7.064
 5437POPC   C4B68974  36.777  44.138   7.364
 5438POPC   NC368975   9.775  43.143   5.564
 5438POPC   PO468976   9.792  43.087   5.864
 5438POPC   GL168977   9.711  43.070   6.164
 5438POPC   GL268978   9.786  42.956   6.164
 5438POPC   C1A68979   9.715  43.152   6.464
 5438POPC   D2A68980   9.775  43.120   6.764
 5438POPC   C3A68981   9.740  43.128   7.064
 5438POPC   C4A68982   9.754  43.095   7.364
 5438POPC   C1B68983   9.797  42.869   6.464
 5438POPC   C2B68984   9.857  42.903   6.764
 5438POPC   C3B68985   9.794  42.861   7.064
 5438POPC   C4B68986   9.840  42.841   7.364
 5439POPC   NC368987  24.515  21.436   5.564
 5439POPC   PO468988  24.505  21.355   5.864
 5439POPC   GL168989  24.517  21.423   6.164
 5439POPC   GL268990  24.521  21.273   6.164
 5439POPC   C1A68991  24.450  21.399   6.464
 5439POPC   D2A68992  24.457  21.393   6.764
 5439POPC   C3A68993  24.507  21.414   7.064
 5439POPC   C4A68994  24.491  21.344   7.364
 5439POPC   C1B68995  24.508  21.126   6.464
 5439POPC   C2B68996  24.423  21.154   6.764
 5439POPC   C3B68997  24.509  21.141   7.064
 5439POPC   C4B68998  24.467  21.119   7.364
 5440POPC   NC368999   5.098  14.431   5.564
 5440POPC   PO469000   5.047  14.443   5.864
 5440POPC   GL169001   5.048  14.361   6.164
 5440POPC   GL269002   5.189  14.320   6.164
 5440POPC   C1A69003   5.072  14.395   6.464
 5440POPC   D2A69004   5.097  14.412   6.764
 5440POPC   C3A69005   5.121  14.369   7.064
 5440POPC   C4A69006   5.084  14.412   7.364
 5440POPC   C1B69007   5.322  14.335   6.464
 5440POPC   C2B69008   5.320  14.307   6.764
 5440POPC   C3B69009   5.299  14.240   7.064
 5440POPC   C4B69010   5.291  14.256   7.364
 5441POPC   NC369011   7.392  43.906   5.564
 5441POPC   PO469012   7.455  43.879   5.864
 5441POPC   GL169013   7.412  43.891   6.164
 5441POPC   GL269014   7.546  44.018   6.164
 5441POPC   C1A69015   7.382  43.862   6.464
 5441POPC   D2A69016   7.416  43.935   6.764
 5441POPC   C3A69017   7.457  43.846   7.064
 5441POPC   C4A69018   7.453  43.852   7.364
 5441POPC   C1B69019   7.591  44.114   6.464
 5441POPC   C2B69020   7.580  44.068   6.764
 5441POPC   C3B69021   7.535  44.092   7.064
 5441POPC   C4B69022   7.542  44.045   7.364
 5442POPC   NC369023  43.848  42.313   5.564
 5442POPC   PO469024  43.884  42.353   5.864
 5442POPC   GL169025  43.850  42.331   6.164
 5442POPC   GL269026  43.979  42.436   6.164
 5442POPC   C1A69027  43.847  42.307   6.464
 5442POPC   D2A69028  43.935  42.314   6.764
 5442POPC   C3A69029  43.923  42.316   7.064
 5442POPC   C4A69030  43.900  42.354   7.364
 5442POPC   C1B69031  44.030  42.540   6.464
 5442POPC   C2B69032  44.095  42.532   6.764
 5442POPC   C3B69033  44.094  42.516   7.064
 5442POPC   C4B69034  44.028  42.547   7.364
 5443POPC   NC369035  29.905  29.178   5.564
 5443POPC   PO469036  29.937  29.157   5.864
 5443POPC   GL169037  29.943  29.111   6.164
 5443POPC   GL269038  29.814  29.254   6.164
 5443POPC   C1A69039  29.942  29.104   6.464
 5443POPC   D2A69040  29.887  29.108   6.764
 5443POPC   C3A69041  29.884  29.107   7.064
 5443POPC   C4A69042  29.893  29.099   7.364
 5443POPC   C1B69043  29.689  29.328   6.464
 5443POPC   C2B69044  29.682  29.345   6.764
 5443POPC   C3B69045  29.689  29.259   7.064
 5443POPC   C4B69046  29.682  29.267   7.364
 5444POPC   NC369047   9.765  16.771   5.564
 5444POPC   PO469048   9.781  16.751   5.864
 5444POPC   GL169049   9.700  16.774   6.164
 5444POPC   GL269050   9.616  16.759   6.164
 5444POPC   C1A69051   9.702  16.707   6.464
 5444POPC   D2A69052   9.720  16.778   6.764
 5444POPC   C3A69053   9.755  16.729   7.064
 5444POPC   C4A69054   9.773  16.681   7.364
 5444POPC   C1B69055   9.476  16.701   6.464
 5444POPC   C2B69056   9.462  16.727   6.764
 5444POPC   C3B69057   9.487  16.741   7.064
 5444POPC   C4B69058   9.515  16.751   7.364
 5445POPC   NC369059  43.868   2.720   5.564
 5445POPC   PO469060  43.863   2.730   5.864
 5445POPC   GL169061  43.892   2.796   6.164
 5445POPC   GL269062  43.960   2.832   6.164
 5445POPC   C1A69063  43.922   2.809   6.464
 5445POPC   D2A69064  43.882   2.781   6.764
 5445POPC   C3A69065  43.919   2.779   7.064
 5445POPC   C4A69066  43.931   2.780   7.364
 5445POPC   C1B69067  44.005   2.968   6.464
 5445POPC   C2B69068  43.985   3.027   6.764
 5445POPC   C3B69069  44.038   2.958   7.064
 5445POPC   C4B69070  43.984   2.979   7.364
 5446POPC   NC369071  15.921   7.462   5.564
 5446POPC   PO469072  15.935   7.435   5.864
 5446POPC   GL169073  15.947   7.445   6.164
 5446POPC   GL269074  15.857   7.482   6.164
 5446POPC   C1A69075  15.921   7.454   6.464
 5446POPC   D2A69076  15.997   7.375   6.764
 5446POPC   C3A69077  15.907   7.427   7.064
 5446POPC   C4A69078  15.915   7.385   7.364
 5446POPC   C1B69079  15.707   7.612   6.464
 5446POPC   C2B69080  15.715   7.527   6.764
 5446POPC   C3B69081  15.758   7.598   7.064
 5446POPC   C4B69082  15.719   7.599   7.364
 5447POPC   NC369083  44.662  36.912   5.564
 5447POPC   PO469084  44.680  36.893   5.864
 5447POPC   GL169085  44.647  36.923   6.164
 5447POPC   GL269086  44.709  36.835   6.164
 5447POPC   C1A69087  44.692  36.943   6.464
 5447POPC   D2A69088  44.669  36.877   6.764
 5447POPC   C3A69089  44.693  36.917   7.064
 5447POPC   C4A69090  44.677  36.937   7.364
 5447POPC   C1B69091  44.748  36.664   6.464
 5447POPC   C2B69092  44.741  36.634   6.764
 5447POPC   C3B69093  44.752  36.688   7.064
 5447POPC   C4B69094  44.810  36.701   7.364
 5448POPC   NC369095  37.717  10.526   5.564
 5448POPC   PO469096  37.630  10.568   5.864
 5448POPC   GL169097  37.651  10.530   6.164
 5448POPC   GL269098  37.752  10.625   6.164
 5448POPC   C1A69099  37.727  10.544   6.464
 5448POPC   D2A69100  37.687  10.541   6.764
 5448POPC   C3A69101  37.636  10.479   7.064
 5448POPC   C4A69102  37.649  10.542   7.364
 5448POPC   C1B69103  37.841  10.652   6.464
 5448POPC   C2B69104  37.908  10.648   6.764
 5448POPC   C3B69105  37.871  10.677   7.064
 5448POPC   C4B69106  37.873  10.631   7.364
 5449POPC   NC369107  43.871   5.133   5.564
 5449POPC   PO469108  43.880   5.060   5.864
 5449POPC   GL169109  43.907   5.092   6.164
 5449POPC   GL269110  43.716   5.125   6.164
 5449POPC   C1A69111  43.932   5.124   6.464
 5449POPC   D2A69112  43.849   5.103   6.764
 5449POPC   C3A69113  43.854   5.051   7.064
 5449POPC   C4A69114  43.932   5.055   7.364
 5449POPC   C1B69115  43.683   5.105   6.464
 5449POPC   C2B69116  43.652   5.119   6.764
 5449POPC   C3B69117  43.674   5.067   7.064
 5449POPC   C4B69118  43.639   5.042   7.364
 5450POPC   NC369119  13.671   1.193   5.564
 5450POPC   PO469120  13.599   1.205   5.864
 5450POPC   GL169121  13.596   1.232   6.164
 5450POPC   GL269122  13.751   1.239   6.164
 5450POPC   C1A69123  13.647   1.209   6.464
 5450POPC   D2A69124  13.588   1.190   6.764
 5450POPC   C3A69125  13.666   1.174   7.064
 5450POPC   C4A69126  13.598   1.188   7.364
 5450POPC   C1B69127  13.863   1.176   6.464
 5450POPC   C2B69128  13.833   1.172   6.764
 5450POPC   C3B69129  13.877   1.205   7.064
 5450POPC   C4B69130  13.891   1.144   7.364
 5451POPC   NC369131  16.717  18.264   5.564
 5451POPC   PO469132  16.696  18.247   5.864
 5451POPC   GL169133  16.688  18.284   6.164
 5451POPC   GL269134  16.609  18.271   6.164
 5451POPC   C1A69135  16.774  18.284   6.464
 5451POPC   D2A69136  16.685  18.281   6.764
 5451POPC   C3A69137  16.712  18.321   7.064
 5451POPC   C4A69138  16.717  18.299   7.364
 5451POPC   C1B69139  16.531  18.375   6.464
 5451POPC   C2B69140  16.520  18.378   6.764
 5451POPC   C3B69141  16.493  18.328   7.064
 5451POPC   C4B69142  16.467  18.284   7.364
 5452POPC   NC369143  11.298  19.016   5.564
 5452POPC   PO469144  11.250  19.091   5.864
 5452POPC   GL169145  11.347  19.093   6.164
 5452POPC   GL269146  11.300  19.151   6.164
 5452POPC   C1A69147  11.334  19.098   6.464
 5452POPC   D2A69148  11.315  19.050   6.764
 5452POPC   C3A69149  11.262  19.032   7.064
 5452POPC   C4A69150  11.324  19.063   7.364
 5452POPC   C1B69151  11.269  19.306   6.464
 5452POPC   C2B69152  11.254  19.318   6.764
 5452POPC   C3B69153  11.304  19.324   7.064
 5452POPC   C4B69154  11.278  19.338   7.364
 5453POPC   NC369155  34.575   1.258   5.564
 5453POPC   PO469156  34.587   1.258   5.864
 5453POPC   GL169157  34.596   1.210   6.164
 5453POPC   GL269158  34.683   1.207   6.164
 5453POPC   C1A69159  34.621   1.255   6.464
 5453POPC   D2A69160  34.616   1.224   6.764
 5453POPC   C3A69161  34.606   1.261   7.064
 5453POPC   C4A69162  34.526   1.197   7.364
 5453POPC   C1B69163  34.834   1.192   6.464
 5453POPC   C2B69164  34.776   1.183   6.764
 5453POPC   C3B69165  34.862   1.225   7.064
 5453POPC   C4B69166  34.829   1.227   7.364
 5454POPC   NC369167   4.333  19.030   5.564
 5454POPC   PO469168   4.282  19.045   5.864
 5454POPC   GL169169   4.273  19.088   6.164
 5454POPC   GL269170   4.385  19.216   6.164
 5454POPC   C1A69171   4.289  19.049   6.464
 5454POPC   D2A69172   4.298  19.060   6.764
 5454POPC   C3A69173   4.345  19.099   7.064
 5454POPC   C4A69174   4.268  19.064   7.364
 5454POPC   C1B69175   4.313  19.269   6.464
 5454POPC   C2B69176   4.319  19.345   6.764
 5454POPC   C3B69177   4.374  19.340   7.064
 5454POPC   C4B69178   4.309  19.277   7.364
 5455POPC   NC369179  32.254  13.582   5.564
 5455POPC   PO469180  32.212  13.584   5.864
 5455POPC   GL169181  32.204  13.648   6.164
 5455POPC   GL269182  32.089  13.635   6.164
 5455POPC   C1A69183  32.274  13.584   6.464
 5455POPC   D2A69184  32.235  13.586   6.764
 5455POPC   C3A69185  32.250  13.633   7.064
 5455POPC   C4A69186  32.273  13.673   7.364
 5455POPC   C1B69187  32.028  13.736   6.464
 5455POPC   C2B69188  32.005  13.680   6.764
 5455POPC   C3B69189  32.012  13.670   7.064
 5455POPC   C4B69190  32.026  13.754   7.364
 5456POPC   NC369191  32.996  30.649   5.564
 5456POPC   PO469192  32.987  30.733   5.864
 5456POPC   GL169193  33.038  30.735   6.164
 5456POPC   GL269194  33.162  30.789   6.164
 5456POPC   C1A69195  32.998  30.680   6.464
 5456POPC   D2A69196  33.030  30.670   6.764
 5456POPC   C3A69197  32.989  30.694   7.064
 5456POPC   C4A69198  33.038  30.702   7.364
 5456POPC   C1B69199  33.162  30.835   6.464
 5456POPC   C2B69200  33.190  30.847   6.764
 5456POPC   C3B69201  33.191  30.858   7.064
 5456POPC   C4B69202  33.200  30.904   7.364
 5457POPC   NC369203  19.014  19.067   5.564
 5457POPC   PO469204  19.039  19.030   5.864
 5457POPC   GL169205  19.022  19.036   6.164
 5457POPC   GL269206  19.146  18.930   6.164
 5457POPC   C1A69207  19.079  19.061   6.464
 5457POPC   D2A69208  19.020  19.017   6.764
 5457POPC   C3A69209  19.023  19.104   7.064
 5457POPC   C4A69210  19.031  19.061   7.364
 5457POPC   C1B69211  19.176  18.865   6.464
 5457POPC   C2B69212  19.151  18.800   6.764
 5457POPC   C3B69213  19.175  18.841   7.064
 5457POPC   C4B69214  19.161  18.843   7.364
 5458POPC   NC369215  13.667   4.341   5.564
 5458POPC   PO469216  13.624   4.285   5.864
 5458POPC   GL169217  13.642   4.331   6.164
 5458POPC   GL269218  13.506   4.302   6.164
 5458POPC   C1A69219  13.591   4.343   6.464
 5458POPC   D2A69220  13.608   4.361   6.764
 5458POPC   C3A69221  13.677   4.366   7.064
 5458POPC   C4A69222  13.605   4.313   7.364
 5458POPC   C1B69223  13.363   4.312   6.464
 5458POPC   C2B69224  13.350   4.271   6.764
 5458POPC   C3B69225  13.338   4.300   7.064
 5458POPC   C4B69226  13.404   4.351   7.364
 5459POPC   NC369227   5.072  25.257   5.564
 5459POPC   PO469228   5.129  25.284   5.864
 5459POPC   GL169229   5.049  25.248   6.164
 5459POPC   GL269230   5.145  25.385   6.164
 5459POPC   C1A69231   5.121  25.297   6.464
 5459POPC   D2A69232   5.049  25.306   6.764
 5459POPC   C3A69233   5.075  25.264   7.064
 5459POPC   C4A69234   5.138  25.233   7.364
 5459POPC   C1B69235   5.264  25.435   6.464
 5459POPC   C2B69236   5.264  25.447   6.764
 5459POPC   C3B69237   5.223  25.485   7.064
 5459POPC   C4B69238   5.288  25.411   7.364
 5460POPC   NC369239   5.109  43.087   5.564
 5460POPC   PO469240   5.045  43.065   5.864
 5460POPC   GL169241   5.105  43.073   6.164
 5460POPC   GL269242   5.234  43.207   6.164
 5460POPC   C1A69243   5.099  43.071   6.464
 5460POPC   D2A69244   5.140  43.148   6.764
 5460POPC   C3A69245   5.073  43.078   7.064
 5460POPC   C4A69246   5.046  43.128   7.364
 5460POPC   C1B69247   5.257  43.289   6.464
 5460POPC   C2B69248   5.266  43.265   6.764
 5460POPC   C3B69249   5.314  43.230   7.064
 5460POPC   C4B69250   5.320  43.206   7.364
 5461POPC   NC369251  36.085  39.276   5.564
 5461POPC   PO469252  36.144  39.232   5.864
 5461POPC   GL169253  36.079  39.223   6.164
 5461POPC   GL269254  36.294  39.235   6.164
 5461POPC   C1A69255  36.137  39.214   6.464
 5461POPC   D2A69256  36.168  39.194   6.764
 5461POPC   C3A69257  36.080  39.248   7.064
 5461POPC   C4A69258  36.094  39.197   7.364
 5461POPC   C1B69259  36.359  39.326   6.464
 5461POPC   C2B69260  36.380  39.278   6.764
 5461POPC   C3B69261  36.365  39.254   7.064
 5461POPC   C4B69262  36.328  39.281   7.364
 5462POPC   NC369263  29.146  38.495   5.564
 5462POPC   PO469264  29.171  38.465   5.864
 5462POPC   GL169265  29.109  38.439   6.164
 5462POPC   GL269266  29.107  38.592   6.164
 5462POPC   C1A69267  29.144  38.438   6.464
 5462POPC   D2A69268  29.171  38.420   6.764
 5462POPC   C3A69269  29.156  38.491   7.064
 5462POPC   C4A69270  29.174  38.474   7.364
 5462POPC   C1B69271  29.150  38.682   6.464
 5462POPC   C2B69272  29.210  38.687   6.764
 5462POPC   C3B69273  29.160  38.691   7.064
 5462POPC   C4B69274  29.151  38.663   7.364
 5463POPC   NC369275  23.739  26.037   5.564
 5463POPC   PO469276  23.741  26.012   5.864
 5463POPC   GL169277  23.703  26.075   6.164
 5463POPC   GL269278  23.573  26.009   6.164
 5463POPC   C1A69279  23.701  26.085   6.464
 5463POPC   D2A69280  23.711  26.025   6.764
 5463POPC   C3A69281  23.730  25.995   7.064
 5463POPC   C4A69282  23.664  26.014   7.364
 5463POPC   C1B69283  23.571  25.877   6.464
 5463POPC   C2B69284  23.474  25.922   6.764
 5463POPC   C3B69285  23.556  25.878   7.064
 5463POPC   C4B69286  23.528  25.833   7.364
 5464POPC   NC369287  24.476   8.153   5.564
 5464POPC   PO469288  24.453   8.209   5.864
 5464POPC   GL169289  24.505   8.204   6.164
 5464POPC   GL269290  24.560   8.145   6.164
 5464POPC   C1A69291  24.499   8.206   6.464
 5464POPC   D2A69292  24.496   8.182   6.764
 5464POPC   C3A69293  24.526   8.171   7.064
 5464POPC   C4A69294  24.468   8.157   7.364
 5464POPC   C1B69295  24.667   8.017   6.464
 5464POPC   C2B69296  24.625   7.983   6.764
 5464POPC   C3B69297  24.680   8.027   7.064
 5464POPC   C4B69298  24.678   8.041   7.364
 5465POPC   NC369299  19.076  25.287   5.564
 5465POPC   PO469300  19.094  25.303   5.864
 5465POPC   GL169301  19.099  25.293   6.164
 5465POPC   GL269302  18.961  25.130   6.164
 5465POPC   C1A69303  19.027  25.237   6.464
 5465POPC   D2A69304  19.049  25.273   6.764
 5465POPC   C3A69305  19.046  25.227   7.064
 5465POPC   C4A69306  19.086  25.283   7.364
 5465POPC   C1B69307  18.912  25.070   6.464
 5465POPC   C2B69308  18.984  25.054   6.764
 5465POPC   C3B69309  18.957  25.094   7.064
 5465POPC   C4B69310  18.911  25.085   7.364
 5466POPC   NC369311  15.135  26.081   5.564
 5466POPC   PO469312  15.172  26.005   5.864
 5466POPC   GL169313  15.164  26.085   6.164
 5466POPC   GL269314  15.065  25.912   6.164
 5466POPC   C1A69315  15.181  26.006   6.464
 5466POPC   D2A69316  15.170  26.049   6.764
 5466POPC   C3A69317  15.205  26.017   7.064
 5466POPC   C4A69318  15.151  25.998   7.364
 5466POPC   C1B69319  15.020  25.898   6.464
 5466POPC   C2B69320  14.970  25.885   6.764
 5466POPC   C3B69321  14.983  25.894   7.064
 5466POPC   C4B69322  15.004  25.820   7.364
 5467POPC   NC369323  43.108   9.715   5.564
 5467POPC   PO469324  43.084   9.781   5.864
 5467POPC   GL169325  43.128   9.760   6.164
 5467POPC   GL269326  43.005   9.616   6.164
 5467POPC   C1A69327  43.141   9.782   6.464
 5467POPC   D2A69328  43.138   9.794   6.764
 5467POPC   C3A69329  43.076   9.764   7.064
 5467POPC   C4A69330  43.083   9.774   7.364
 5467POPC   C1B69331  42.917   9.536   6.464
 5467POPC   C2B69332  42.958   9.612   6.764
 5467POPC   C3B69333  42.930   9.571   7.064
 5467POPC   C4B69334  42.921   9.555   7.364
 5468POPC   NC369335   7.411   3.521   5.564
 5468POPC   PO469336   7.373   3.562   5.864
 5468POPC   GL169337   7.402   3.571   6.164
 5468POPC   GL269338   7.546   3.632   6.164
 5468POPC   C1A69339   7.454   3.528   6.464
 5468POPC   D2A69340   7.468   3.535   6.764
 5468POPC   C3A69341   7.405   3.565   7.064
 5468POPC   C4A69342   7.381   3.574   7.364
 5468POPC   C1B69343   7.583   3.707   6.464
 5468POPC   C2B69344   7.544   3.699   6.764
 5468POPC   C3B69345   7.562   3.700   7.064
 5468POPC   C4B69346   7.613   3.707   7.364
 5469POPC   NC369347  43.914  43.067   5.564
 5469POPC   PO469348  43.906  43.070   5.864
 5469POPC   GL169349  43.888  43.072   6.164
 5469POPC   GL269350  43.971  43.185   6.164
 5469POPC   C1A69351  43.883  43.089   6.464
 5469POPC   D2A69352  43.898  43.136   6.764
 5469POPC   C3A69353  43.912  43.062   7.064
 5469POPC   C4A69354  43.872  43.157   7.364
 5469POPC   C1B69355  44.099  43.210   6.464
 5469POPC   C2B69356  44.095  43.205   6.764
 5469POPC   C3B69357  44.114  43.229   7.064
 5469POPC   C4B69358  44.138  43.175   7.364
 5470POPC   NC369359   2.726  22.965   5.564
 5470POPC   PO469360   2.810  22.936   5.864
 5470POPC   GL169361   2.791  22.935   6.164
 5470POPC   GL269362   2.758  23.100   6.164
 5470POPC   C1A69363   2.785  22.943   6.464
 5470POPC   D2A69364   2.775  22.928   6.764
 5470POPC   C3A69365   2.722  22.948   7.064
 5470POPC   C4A69366   2.738  22.924   7.364
 5470POPC   C1B69367   2.717  23.124   6.464
 5470POPC   C2B69368   2.689  23.191   6.764
 5470POPC   C3B69369   2.711  23.131   7.064
 5470POPC   C4B69370   2.646  23.212   7.364
 5471POPC   NC369371  43.920  14.384   5.564
 5471POPC   PO469372  43.848  14.390   5.864
 5471POPC   GL169373  43.924  14.452   6.164
 5471POPC   GL269374  44.009  14.445   6.164
 5471POPC   C1A69375  43.923  14.381   6.464
 5471POPC   D2A69376  43.933  14.380   6.764
 5471POPC   C3A69377  43.879  14.395   7.064
 5471POPC   C4A69378  43.922  14.414   7.364
 5471POPC   C1B69379  44.172  14.401   6.464
 5471POPC   C2B69380  44.127  14.350   6.764
 5471POPC   C3B69381  44.088  14.401   7.064
 5471POPC   C4B69382  44.125  14.390   7.364
 5472POPC   NC369383   6.688  39.957   5.564
 5472POPC   PO469384   6.682  40.025   5.864
 5472POPC   GL169385   6.683  39.960   6.164
 5472POPC   GL269386   6.804  40.002   6.164
 5472POPC   C1A69387   6.607  40.049   6.464
 5472POPC   D2A69388   6.597  40.046   6.764
 5472POPC   C3A69389   6.685  40.043   7.064
 5472POPC   C4A69390   6.652  40.043   7.364
 5472POPC   C1B69391   6.870  40.082   6.464
 5472POPC   C2B69392   6.898  40.021   6.764
 5472POPC   C3B69393   6.860  40.047   7.064
 5472POPC   C4B69394   6.886  40.007   7.364
 5473POPC   NC369395  29.915   5.901   5.564
 5473POPC   PO469396  29.934   5.873   5.864
 5473POPC   GL169397  29.931   5.905   6.164
 5473POPC   GL269398  29.888   5.948   6.164
 5473POPC   C1A69399  29.925   5.829   6.464
 5473POPC   D2A69400  29.923   5.832   6.764
 5473POPC   C3A69401  29.948   5.883   7.064
 5473POPC   C4A69402  29.882   5.884   7.364
 5473POPC   C1B69403  29.933   6.132   6.464
 5473POPC   C2B69404  29.899   6.116   6.764
 5473POPC   C3B69405  29.923   6.114   7.064
 5473POPC   C4B69406  29.898   6.161   7.364
 5474POPC   NC369407  24.462  28.376   5.564
 5474POPC   PO469408  24.453  28.396   5.864
 5474POPC   GL169409  24.449  28.343   6.164
 5474POPC   GL269410  24.483  28.510   6.164
 5474POPC   C1A69411  24.521  28.393   6.464
 5474POPC   D2A69412  24.511  28.320   6.764
 5474POPC   C3A69413  24.514  28.348   7.064
 5474POPC   C4A69414  24.490  28.399   7.364
 5474POPC   C1B69415  24.554  28.624   6.464
 5474POPC   C2B69416  24.588  28.586   6.764
 5474POPC   C3B69417  24.606  28.556   7.064
 5474POPC   C4B69418  24.587  28.654   7.364
 5475POPC   NC369419  17.511  43.916   5.564
 5475POPC   PO469420  17.477  43.929   5.864
 5475POPC   GL169421  17.466  43.873   6.164
 5475POPC   GL269422  17.503  44.017   6.164
 5475POPC   C1A69423  17.541  43.878   6.464
 5475POPC   D2A69424  17.544  43.848   6.764
 5475POPC   C3A69425  17.495  43.911   7.064
 5475POPC   C4A69426  17.551  43.868   7.364
 5475POPC   C1B69427  17.426  44.109   6.464
 5475POPC   C2B69428  17.368  44.100   6.764
 5475POPC   C3B69429  17.418  44.134   7.064
 5475POPC   C4B69430  17.387  44.139   7.364
 5476POPC   NC369431  22.173  35.349   5.564
 5476POPC   PO469432  22.196  35.335   5.864
 5476POPC   GL169433  22.186  35.373   6.164
 5476POPC   GL269434  22.283  35.262   6.164
 5476POPC   C1A69435  22.189  35.359   6.464
 5476POPC   D2A69436  22.195  35.317   6.764
 5476POPC   C3A69437  22.135  35.345   7.064
 5476POPC   C4A69438  22.178  35.345   7.364
 5476POPC   C1B69439  22.381  35.283   6.464
 5476POPC   C2B69440  22.381  35.306   6.764
 5476POPC   C3B69441  22.429  35.218   7.064
 5476POPC   C4B69442  22.412  35.218   7.364
 5477POPC   NC369443   4.280  12.836   5.564
 5477POPC   PO469444   4.275  12.871   5.864
 5477POPC   GL169445   4.274  12.852   6.164
 5477POPC   GL269446   4.172  12.828   6.164
 5477POPC   C1A69447   4.331  12.819   6.464
 5477POPC   D2A69448   4.325  12.811   6.764
 5477POPC   C3A69449   4.298  12.861   7.064
 5477POPC   C4A69450   4.354  12.823   7.364
 5477POPC   C1B69451   4.081  12.741   6.464
 5477POPC   C2B69452   4.156  12.715   6.764
 5477POPC   C3B69453   4.107  12.694   7.064
 5477POPC   C4B69454   4.115  12.658   7.364
 5478POPC   NC369455  26.052  28.363   5.564
 5478POPC   PO469456  26.019  28.319   5.864
 5478POPC   GL169457  26.002  28.405   6.164
 5478POPC   GL269458  25.969  28.259   6.164
 5478POPC   C1A69459  26.080  28.378   6.464
 5478POPC   D2A69460  26.024  28.331   6.764
 5478POPC   C3A69461  26.006  28.380   7.064
 5478POPC   C4A69462  26.052  28.406   7.364
 5478POPC   C1B69463  25.848  28.205   6.464
 5478POPC   C2B69464  25.898  28.158   6.764
 5478POPC   C3B69465  25.916  28.162   7.064
 5478POPC   C4B69466  25.890  28.216   7.364
 5479POPC   NC369467   1.222   7.460   5.564
 5479POPC   PO469468   1.215   7.431   5.864
 5479POPC   GL169469   1.179   7.387   6.164
 5479POPC   GL269470   1.300   7.462   6.164
 5479POPC   C1A69471   1.188   7.426   6.464
 5479POPC   D2A69472   1.211   7.449   6.764
 5479POPC   C3A69473   1.247   7.467   7.064
 5479POPC   C4A69474   1.263   7.457   7.364
 5479POPC   C1B69475   1.439   7.434   6.464
 5479POPC   C2B69476   1.452   7.390   6.764
 5479POPC   C3B69477   1.450   7.387   7.064
 5479POPC   C4B69478   1.480   7.385   7.364
 5480POPC   NC369479  40.006  38.493   5.564
 5480POPC   PO469480  40.051  38.475   5.864
 5480POPC   GL169481  39.999  38.465   6.164
 5480POPC   GL269482  39.982  38.562   6.164
 5480POPC   C1A69483  40.013  38.456   6.464
 5480POPC   D2A69484  40.042  38.469   6.764
 5480POPC   C3A69485  40.056  38.481   7.064
 5480POPC   C4A69486  40.027  38.494   7.364
 5480POPC   C1B69487  39.971  38.705   6.464
 5480POPC   C2B69488  39.962  38.691   6.764
 5480POPC   C3B69489  39.942  38.716   7.064
 5480POPC   C4B69490  40.004  38.716   7.364
 5481POPC   NC369491  22.964  30.697   5.564
 5481POPC   PO469492  22.960  30.712   5.864
 5481POPC   GL169493  22.932  30.709   6.164
 5481POPC   GL269494  22.824  30.754   6.164
 5481POPC   C1A69495  22.907  30.709   6.464
 5481POPC   D2A69496  22.914  30.746   6.764
 5481POPC   C3A69497  22.905  30.650   7.064
 5481POPC   C4A69498  22.968  30.647   7.364
 5481POPC   C1B69499  22.702  30.820   6.464
 5481POPC   C2B69500  22.744  30.751   6.764
 5481POPC   C3B69501  22.755  30.776   7.064
 5481POPC   C4B69502  22.710  30.765   7.364
 5482POPC   NC369503  29.882  27.544   5.564
 5482POPC   PO469504  29.884  27.557   5.864
 5482POPC   GL169505  29.899  27.622   6.164
 5482POPC   GL269506  29.909  27.497   6.164
 5482POPC   C1A69507  29.917  27.609   6.464
 5482POPC   D2A69508  29.888  27.573   6.764
 5482POPC   C3A69509  29.935  27.565   7.064
 5482POPC   C4A69510  29.895  27.568   7.364
 5482POPC   C1B69511  29.987  27.357   6.464
 5482POPC   C2B69512  29.948  27.389   6.764
 5482POPC   C3B69513  30.024  27.391   7.064
 5482POPC   C4B69514  29.942  27.313   7.364
 5483POPC   NC369515   9.715  19.103   5.564
 5483POPC   PO469516   9.780  19.026   5.864
 5483POPC   GL169517   9.711  19.015   6.164
 5483POPC   GL269518   9.860  19.070   6.164
 5483POPC   C1A69519   9.724  19.016   6.464
 5483POPC   D2A69520   9.715  19.071   6.764
 5483POPC   C3A69521   9.776  19.058   7.064
 5483POPC   C4A69522   9.731  19.023   7.364
 5483POPC   C1B69523  10.035  19.062   6.464
 5483POPC   C2B69524   9.961  19.094   6.764
 5483POPC   C3B69525   9.994  19.051   7.064
 5483POPC   C4B69526  10.011  19.106   7.364
 5484POPC   NC369527  27.594   5.903   5.564
 5484POPC   PO469528  27.574   5.870   5.864
 5484POPC   GL169529  27.555   5.845   6.164
 5484POPC   GL269530  27.641   5.714   6.164
 5484POPC   C1A69531  27.601   5.850   6.464
 5484POPC   D2A69532  27.571   5.896   6.764
 5484POPC   C3A69533  27.556   5.887   7.064
 5484POPC   C4A69534  27.576   5.899   7.364
 5484POPC   C1B69535  27.677   5.636   6.464
 5484POPC   C2B69536  27.624   5.636   6.764
 5484POPC   C3B69537  27.613   5.602   7.064
 5484POPC   C4B69538  27.614   5.617   7.364
 5485POPC   NC369539  21.383  24.536   5.564
 5485POPC   PO469540  21.356  24.474   5.864
 5485POPC   GL169541  21.373  24.477   6.164
 5485POPC   GL269542  21.453  24.402   6.164
 5485POPC   C1A69543  21.403  24.457   6.464
 5485POPC   D2A69544  21.425  24.528   6.764
 5485POPC   C3A69545  21.393  24.500   7.064
 5485POPC   C4A69546  21.429  24.515   7.364
 5485POPC   C1B69547  21.542  24.340   6.464
 5485POPC   C2B69548  21.561  24.284   6.764
 5485POPC   C3B69549  21.541  24.304   7.064
 5485POPC   C4B69550  21.500  24.285   7.364
 5486POPC   NC369551  36.170  19.786   5.564
 5486POPC   PO469552  36.139  19.859   5.864
 5486POPC   GL169553  36.175  19.839   6.164
 5486POPC   GL269554  36.103  19.692   6.164
 5486POPC   C1A69555  36.084  19.823   6.464
 5486POPC   D2A69556  36.128  19.876   6.764
 5486POPC   C3A69557  36.159  19.880   7.064
 5486POPC   C4A69558  36.165  19.836   7.364
 5486POPC   C1B69559  36.095  19.549   6.464
 5486POPC   C2B69560  36.114  19.576   6.764
 5486POPC   C3B69561  36.099  19.542   7.064
 5486POPC   C4B69562  36.117  19.623   7.364
 5487POPC   NC369563  20.627  33.069   5.564
 5487POPC   PO469564  20.608  32.987   5.864
 5487POPC   GL169565  20.643  33.072   6.164
 5487POPC   GL269566  20.668  32.927   6.164
 5487POPC   C1A69567  20.573  32.989   6.464
 5487POPC   D2A69568  20.637  33.009   6.764
 5487POPC   C3A69569  20.608  33.043   7.064
 5487POPC   C4A69570  20.631  33.042   7.364
 5487POPC   C1B69571  20.800  32.858   6.464
 5487POPC   C2B69572  20.815  32.881   6.764
 5487POPC   C3B69573  20.799  32.863   7.064
 5487POPC   C4B69574  20.737  32.868   7.364
 5488POPC   NC369575  24.499  22.922   5.564
 5488POPC   PO469576  24.466  22.960   5.864
 5488POPC   GL169577  24.440  22.905   6.164
 5488POPC   GL269578  24.580  22.827   6.164
 5488POPC   C1A69579  24.460  22.985   6.464
 5488POPC   D2A69580  24.494  22.973   6.764
 5488POPC   C3A69581  24.486  22.914   7.064
 5488POPC   C4A69582  24.485  22.923   7.364
 5488POPC   C1B69583  24.687  22.770   6.464
 5488POPC   C2B69584  24.698  22.755   6.764
 5488POPC   C3B69585  24.695  22.847   7.064
 5488POPC   C4B69586  24.688  22.792   7.364
 5489POPC   NC369587  43.909  21.371   5.564
 5489POPC   PO469588  43.879  21.425   5.864
 5489POPC   GL169589  43.879  21.398   6.164
 5489POPC   GL269590  43.919  21.479   6.164
 5489POPC   C1A69591  43.850  21.413   6.464
 5489POPC   D2A69592  43.894  21.427   6.764
 5489POPC   C3A69593  43.871  21.379   7.064
 5489POPC   C4A69594  43.890  21.362   7.364
 5489POPC   C1B69595  43.950  21.669   6.464
 5489POPC   C2B69596  43.858  21.677   6.764
 5489POPC   C3B69597  43.930  21.587   7.064
 5489POPC   C4B69598  43.896  21.651   7.364
 5490POPC   NC369599  35.347  28.384   5.564
 5490POPC   PO469600  35.344  28.408   5.864
 5490POPC   GL169601  35.341  28.402   6.164
 5490POPC   GL269602  35.477  28.319   6.164
 5490POPC   C1A69603  35.376  28.409   6.464
 5490POPC   D2A69604  35.336  28.407   6.764
 5490POPC   C3A69605  35.363  28.385   7.064
 5490POPC   C4A69606  35.379  28.408   7.364
 5490POPC   C1B69607  35.607  28.247   6.464
 5490POPC   C2B69608  35.581  28.303   6.764
 5490POPC   C3B69609  35.541  28.236   7.064
 5490POPC   C4B69610  35.566  28.278   7.364
 5491POPC   NC369611  35.327  11.323   5.564
 5491POPC   PO469612  35.310  11.326   5.864
 5491POPC   GL169613  35.385  11.253   6.164
 5491POPC   GL269614  35.320  11.223   6.164
 5491POPC   C1A69615  35.353  11.280   6.464
 5491POPC   D2A69616  35.309  11.302   6.764
 5491POPC   C3A69617  35.378  11.302   7.064
 5491POPC   C4A69618  35.346  11.295   7.364
 5491POPC   C1B69619  35.224  11.091   6.464
 5491POPC   C2B69620  35.216  11.095   6.764
 5491POPC   C3B69621  35.151  11.089   7.064
 5491POPC   C4B69622  35.152  11.151   7.364
 5492POPC   NC369623   3.506  22.976   5.564
 5492POPC   PO469624   3.559  22.950   5.864
 5492POPC   GL169625   3.550  22.913   6.164
 5492POPC   GL269626   3.441  23.056   6.164
 5492POPC   C1A69627   3.495  22.916   6.464
 5492POPC   D2A69628   3.517  22.944   6.764
 5492POPC   C3A69629   3.576  22.929   7.064
 5492POPC   C4A69630   3.572  22.942   7.364
 5492POPC   C1B69631   3.432  23.202   6.464
 5492POPC   C2B69632   3.450  23.111   6.764
 5492POPC   C3B69633   3.399  23.196   7.064
 5492POPC   C4B69634   3.464  23.161   7.364
 5493POPC   NC369635  34.586   6.682   5.564
 5493POPC   PO469636  34.602   6.614   5.864
 5493POPC   GL169637  34.563   6.661   6.164
 5493POPC   GL269638  34.509   6.511   6.164
 5493POPC   C1A69639  34.615   6.605   6.464
 5493POPC   D2A69640  34.598   6.676   6.764
 5493POPC   C3A69641  34.550   6.681   7.064
 5493POPC   C4A69642  34.564   6.690   7.364
 5493POPC   C1B69643  34.428   6.410   6.464
 5493POPC   C2B69644  34.453   6.410   6.764
 5493POPC   C3B69645  34.450   6.453   7.064
 5493POPC   C4B69646  34.483   6.446   7.364
 5494POPC   NC369647  13.674  35.347   5.564
 5494POPC   PO469648  13.666  35.332   5.864
 5494POPC   GL169649  13.582  35.341   6.164
 5494POPC   GL269650  13.576  35.511   6.164
 5494POPC   C1A69651  13.667  35.327   6.464
 5494POPC   D2A69652  13.669  35.328   6.764
 5494POPC   C3A69653  13.662  35.330   7.064
 5494POPC   C4A69654  13.675  35.348   7.364
 5494POPC   C1B69655  13.628  35.557   6.464
 5494POPC   C2B69656  13.602  35.618   6.764
 5494POPC   C3B69657  13.636  35.559   7.064
 5494POPC   C4B69658  13.593  35.587   7.364
 5495POPC   NC369659  19.831   5.045   5.564
 5495POPC   PO469660  19.860   5.092   5.864
 5495POPC   GL169661  19.824   5.076   6.164
 5495POPC   GL269662  19.829   5.190   6.164
 5495POPC   C1A69663  19.872   5.059   6.464
 5495POPC   D2A69664  19.846   5.065   6.764
 5495POPC   C3A69665  19.824   5.086   7.064
 5495POPC   C4A69666  19.869   5.136   7.364
 5495POPC   C1B69667  19.913   5.339   6.464
 5495POPC   C2B69668  19.969   5.294   6.764
 5495POPC   C3B69669  19.971   5.300   7.064
 5495POPC   C4B69670  19.951   5.287   7.364
 5496POPC   NC369671   0.428  39.998   5.564
 5496POPC   PO469672   0.420  39.961   5.864
 5496POPC   GL169673   0.475  39.979   6.164
 5496POPC   GL269674   0.363  39.896   6.164
 5496POPC   C1A69675   0.484  39.990   6.464
 5496POPC   D2A69676   0.461  39.960   6.764
 5496POPC   C3A69677   0.398  39.957   7.064
 5496POPC   C4A69678   0.469  39.982   7.364
 5496POPC   C1B69679   0.355  39.784   6.464
 5496POPC   C2B69680   0.289  39.743   6.764
 5496POPC   C3B69681   0.295  39.801   7.064
 5496POPC   C4B69682   0.315  39.785   7.364
 5497POPC   NC369683  15.947  26.807   5.564
 5497POPC   PO469684  15.983  26.781   5.864
 5497POPC   GL169685  15.991  26.783   6.164
 5497POPC   GL269686  16.014  26.708   6.164
 5497POPC   C1A69687  15.927  26.785   6.464
 5497POPC   D2A69688  15.986  26.798   6.764
 5497POPC   C3A69689  15.962  26.834   7.064
 5497POPC   C4A69690  15.994  26.777   7.364
 5497POPC   C1B69691  16.074  26.561   6.464
 5497POPC   C2B69692  16.026  26.543   6.764
 5497POPC   C3B69693  15.997  26.576   7.064
 5497POPC   C4B69694  16.023  26.586   7.364
 5498POPC   NC369695  22.954  12.098   5.564
 5498POPC   PO469696  22.969  12.072   5.864
 5498POPC   GL169697  22.986  12.082   6.164
 5498POPC   GL269698  22.916  12.193   6.164
 5498POPC   C1A69699  22.942  12.046   6.464
 5498POPC   D2A69700  22.895  12.108   6.764
 5498POPC   C3A69701  22.981  12.092   7.064
 5498POPC   C4A69702  22.968  12.110   7.364
 5498POPC   C1B69703  22.809  12.281   6.464
 5498POPC   C2B69704  22.879  12.358   6.764
 5498POPC   C3B69705  22.879  12.362   7.064
 5498POPC   C4B69706  22.852  12.308   7.364
 5499POPC   NC369707  31.492   7.394   5.564
 5499POPC   PO469708  31.443   7.377   5.864
 5499POPC   GL169709  31.453   7.372   6.164
 5499POPC   GL269710  31.594   7.379   6.164
 5499POPC   C1A69711  31.439   7.430   6.464
 5499POPC   D2A69712  31.453   7.466   6.764
 5499POPC   C3A69713  31.474   7.422   7.064
 5499POPC   C4A69714  31.495   7.384   7.364
 5499POPC   C1B69715  31.726   7.456   6.464
 5499POPC   C2B69716  31.704   7.368   6.764
 5499POPC   C3B69717  31.690   7.381   7.064
 5499POPC   C4B69718  31.768   7.459   7.364
 5500POPC   NC369719  37.647   4.348   5.564
 5500POPC   PO469720  37.639   4.332   5.864
 5500POPC   GL169721  37.659   4.314   6.164
 5500POPC   GL269722  37.684   4.197   6.164
 5500POPC   C1A69723  37.634   4.289   6.464
 5500POPC   D2A69724  37.654   4.325   6.764
 5500POPC   C3A69725  37.635   4.350   7.064
 5500POPC   C4A69726  37.728   4.338   7.364
 5500POPC   C1B69727  37.742   4.110   6.464
 5500POPC   C2B69728  37.789   4.059   6.764
 5500POPC   C3B69729  37.778   4.117   7.064
 5500POPC   C4B69730  37.771   4.063   7.364
 5501POPC   NC369731  35.371  19.014   5.564
 5501POPC   PO469732  35.340  19.084   5.864
 5501POPC   GL169733  35.389  19.095   6.164
 5501POPC   GL269734  35.364  18.889   6.164
 5501POPC   C1A69735  35.335  19.031   6.464
 5501POPC   D2A69736  35.353  19.099   6.764
 5501POPC   C3A69737  35.363  19.044   7.064
 5501POPC   C4A69738  35.305  19.039   7.364
 5501POPC   C1B69739  35.294  18.819   6.464
 5501POPC   C2B69740  35.288  18.820   6.764
 5501POPC   C3B69741  35.246  18.843   7.064
 5501POPC   C4B69742  35.242  18.834   7.364
 5502POPC   NC369743  15.981  43.897   5.564
 5502POPC   PO469744  15.929  43.841   5.864
 5502POPC   GL169745  15.959  43.847   6.164
 5502POPC   GL269746  15.835  43.883   6.164
 5502POPC   C1A69747  15.951  43.862   6.464
 5502POPC   D2A69748  15.947  43.860   6.764
 5502POPC   C3A69749  15.967  43.838   7.064
 5502POPC   C4A69750  15.973  43.840   7.364
 5502POPC   C1B69751  15.707  43.838   6.464
 5502POPC   C2B69752  15.739  43.863   6.764
 5502POPC   C3B69753  15.727  43.823   7.064
 5502POPC   C4B69754  15.666  43.873   7.364
 5503POPC   NC369755  44.626  15.919   5.564
 5503POPC   PO469756  44.654  16.003   5.864
 5503POPC   GL169757  44.615  15.956   6.164
 5503POPC   GL269758  44.718  15.824   6.164
 5503POPC   C1A69759  44.704  15.971   6.464
 5503POPC   D2A69760  44.648  15.945   6.764
 5503POPC   C3A69761  44.681  15.983   7.064
 5503POPC   C4A69762  44.671  15.920   7.364
 5503POPC   C1B69763  44.751  15.704   6.464
 5503POPC   C2B69764  44.714  15.745   6.764
 5503POPC   C3B69765  44.742  15.758   7.064
 5503POPC   C4B69766  44.699  15.701   7.364
 5504POPC   NC369767  37.711  35.360   5.564
 5504POPC   PO469768  37.660  35.318   5.864
 5504POPC   GL169769  37.689  35.322   6.164
 5504POPC   GL269770  37.778  35.269   6.164
 5504POPC   C1A69771  37.700  35.340   6.464
 5504POPC   D2A69772  37.713  35.342   6.764
 5504POPC   C3A69773  37.695  35.384   7.064
 5504POPC   C4A69774  37.701  35.306   7.364
 5504POPC   C1B69775  37.867  35.233   6.464
 5504POPC   C2B69776  37.923  35.218   6.764
 5504POPC   C3B69777  37.914  35.233   7.064
 5504POPC   C4B69778  37.885  35.242   7.364
 5505POPC   NC369779  15.995   5.048   5.564
 5505POPC   PO469780  15.909   5.073   5.864
 5505POPC   GL169781  15.988   5.101   6.164
 5505POPC   GL269782  15.841   5.208   6.164
 5505POPC   C1A69783  15.980   5.068   6.464
 5505POPC   D2A69784  16.002   5.052   6.764
 5505POPC   C3A69785  15.984   5.078   7.064
 5505POPC   C4A69786  15.970   5.131   7.364
 5505POPC   C1B69787  15.815   5.291   6.464
 5505POPC   C2B69788  15.835   5.302   6.764
 5505POPC   C3B69789  15.781   5.343   7.064
 5505POPC   C4B69790  15.873   5.277   7.364
 5506POPC   NC369791  28.418   7.453   5.564
 5506POPC   PO469792  28.397   7.468   5.864
 5506POPC   GL169793  28.397   7.450   6.164
 5506POPC   GL269794  28.274   7.533   6.164
 5506POPC   C1A69795  28.408   7.388   6.464
 5506POPC   D2A69796  28.340   7.466   6.764
 5506POPC   C3A69797  28.352   7.450   7.064
 5506POPC   C4A69798  28.406   7.445   7.364
 5506POPC   C1B69799  28.125   7.541   6.464
 5506POPC   C2B69800  28.203   7.572   6.764
 5506POPC   C3B69801  28.199   7.593   7.064
 5506POPC   C4B69802  28.119   7.508   7.364
 5507POPC   NC369803   5.130  36.118   5.564
 5507POPC   PO469804   5.061  36.123   5.864
 5507POPC   GL169805   5.054  36.111   6.164
 5507POPC   GL269806   5.199  36.257   6.164
 5507POPC   C1A69807   5.093  36.148   6.464
 5507POPC   D2A69808   5.137  36.100   6.764
 5507POPC   C3A69809   5.133  36.136   7.064
 5507POPC   C4A69810   5.071  36.156   7.364
 5507POPC   C1B69811   5.319  36.309   6.464
 5507POPC   C2B69812   5.259  36.291   6.764
 5507POPC   C3B69813   5.297  36.291   7.064
 5507POPC   C4B69814   5.241  36.282   7.364
 5508POPC   NC369815  42.322  40.768   5.564
 5508POPC   PO469816  42.286  40.780   5.864
 5508POPC   GL169817  42.328  40.760   6.164
 5508POPC   GL269818  42.295  40.884   6.164
 5508POPC   C1A69819  42.359  40.828   6.464
 5508POPC   D2A69820  42.287  40.745   6.764
 5508POPC   C3A69821  42.308  40.774   7.064
 5508POPC   C4A69822  42.296  40.808   7.364
 5508POPC   C1B69823  42.142  41.026   6.464
 5508POPC   C2B69824  42.195  40.934   6.764
 5508POPC   C3B69825  42.208  40.943   7.064
 5508POPC   C4B69826  42.177  40.953   7.364
 5509POPC   NC369827  30.692  25.309   5.564
 5509POPC   PO469828  30.652  25.241   5.864
 5509POPC   GL169829  30.733  25.292   6.164
 5509POPC   GL269830  30.682  25.427   6.164
 5509POPC   C1A69831  30.683  25.250   6.464
 5509POPC   D2A69832  30.740  25.314   6.764
 5509POPC   C3A69833  30.702  25.271   7.064
 5509POPC   C4A69834  30.726  25.247   7.364
 5509POPC   C1B69835  30.750  25.518   6.464
 5509POPC   C2B69836  30.750  25.498   6.764
 5509POPC   C3B69837  30.768  25.546   7.064
 5509POPC   C4B69838  30.727  25.547   7.364
 5510POPC   NC369839  36.859   5.117   5.564
 5510POPC   PO469840  36.916   5.050   5.864
 5510POPC   GL169841  36.869   5.103   6.164
 5510POPC   GL269842  36.986   5.122   6.164
 5510POPC   C1A69843  36.856   5.048   6.464
 5510POPC   D2A69844  36.924   5.081   6.764
 5510POPC   C3A69845  36.861   5.097   7.064
 5510POPC   C4A69846  36.897   5.131   7.364
 5510POPC   C1B69847  37.175   5.097   6.464
 5510POPC   C2B69848  37.112   5.111   6.764
 5510POPC   C3B69849  37.115   5.087   7.064
 5510POPC   C4B69850  37.193   5.047   7.364
 5511POPC   NC369851  43.925  32.243   5.564
 5511POPC   PO469852  43.872  32.259   5.864
 5511POPC   GL169853  43.927  32.252   6.164
 5511POPC   GL269854  43.895  32.081   6.164
 5511POPC   C1A69855  43.846  32.277   6.464
 5511POPC   D2A69856  43.893  32.273   6.764
 5511POPC   C3A69857  43.845  32.285   7.064
 5511POPC   C4A69858  43.837  32.291   7.364
 5511POPC   C1B69859  43.919  32.037   6.464
 5511POPC   C2B69860  43.913  31.960   6.764
 5511POPC   C3B69861  43.932  31.979   7.064
 5511POPC   C4B69862  43.957  31.975   7.364
 5512POPC   NC369863  24.461  30.738   5.564
 5512POPC   PO469864  24.478  30.661   5.864
 5512POPC   GL169865  24.443  30.680   6.164
 5512POPC   GL269866  24.360  30.718   6.164
 5512POPC   C1A69867  24.454  30.738   6.464
 5512POPC   D2A69868  24.469  30.713   6.764
 5512POPC   C3A69869  24.470  30.724   7.064
 5512POPC   C4A69870  24.509  30.665   7.364
 5512POPC   C1B69871  24.248  30.785   6.464
 5512POPC   C2B69872  24.255  30.772   6.764
 5512POPC   C3B69873  24.304  30.793   7.064
 5512POPC   C4B69874  24.306  30.815   7.364
 5513POPC   NC369875  24.498  31.497   5.564
 5513POPC   PO469876  24.486  31.497   5.864
 5513POPC   GL169877  24.440  31.521   6.164
 5513POPC   GL269878  24.364  31.477   6.164
 5513POPC   C1A69879  24.472  31.430   6.464
 5513POPC   D2A69880  24.461  31.433   6.764
 5513POPC   C3A69881  24.485  31.497   7.064
 5513POPC   C4A69882  24.455  31.482   7.364
 5513POPC   C1B69883  24.202  31.507   6.464
 5513POPC   C2B69884  24.206  31.473   6.764
 5513POPC   C3B69885  24.266  31.560   7.064
 5513POPC   C4B69886  24.265  31.551   7.364
 5514POPC   NC369887   7.394  14.441   5.564
 5514POPC   PO469888   7.416  14.390   5.864
 5514POPC   GL169889   7.426  14.374   6.164
 5514POPC   GL269890   7.546  14.414   6.164
 5514POPC   C1A69891   7.416  14.391   6.464
 5514POPC   D2A69892   7.435  14.427   6.764
 5514POPC   C3A69893   7.459  14.432   7.064
 5514POPC   C4A69894   7.380  14.424   7.364
 5514POPC   C1B69895   7.629  14.527   6.464
 5514POPC   C2B69896   7.662  14.488   6.764
 5514POPC   C3B69897   7.659  14.445   7.064
 5514POPC   C4B69898   7.661  14.496   7.364
 5515POPC   NC369899  27.570  12.823   5.564
 5515POPC   PO469900  27.643  12.815   5.864
 5515POPC   GL169901  27.548  12.815   6.164
 5515POPC   GL269902  27.580  12.698   6.164
 5515POPC   C1A69903  27.585  12.837   6.464
 5515POPC   D2A69904  27.618  12.874   6.764
 5515POPC   C3A69905  27.565  12.813   7.064
 5515POPC   C4A69906  27.619  12.848   7.364
 5515POPC   C1B69907  27.622  12.584   6.464
 5515POPC   C2B69908  27.600  12.568   6.764
 5515POPC   C3B69909  27.582  12.588   7.064
 5515POPC   C4B69910  27.586  12.596   7.364
 5516POPC   NC369911  36.107   9.746   5.564
 5516POPC   PO469912  36.146   9.766   5.864
 5516POPC   GL169913  36.083   9.738   6.164
 5516POPC   GL269914  36.210   9.603   6.164
 5516POPC   C1A69915  36.098   9.735   6.464
 5516POPC   D2A69916  36.133   9.700   6.764
 5516POPC   C3A69917  36.110   9.798   7.064
 5516POPC   C4A69918  36.110   9.724   7.364
 5516POPC   C1B69919  36.251   9.580   6.464
 5516POPC   C2B69920  36.278   9.494   6.764
 5516POPC   C3B69921  36.259   9.575   7.064
 5516POPC   C4B69922  36.286   9.541   7.364
 5517POPC   NC369923  34.541  18.327   5.564
 5517POPC   PO469924  34.548  18.313   5.864
 5517POPC   GL169925  34.614  18.269   6.164
 5517POPC   GL269926  34.678  18.339   6.164
 5517POPC   C1A69927  34.619  18.294   6.464
 5517POPC   D2A69928  34.623  18.304   6.764
 5517POPC   C3A69929  34.610  18.241   7.064
 5517POPC   C4A69930  34.559  18.333   7.364
 5517POPC   C1B69931  34.806  18.341   6.464
 5517POPC   C2B69932  34.865  18.285   6.764
 5517POPC   C3B69933  34.868  18.324   7.064
 5517POPC   C4B69934  34.815  18.263   7.364
 5518POPC   NC369935  43.922   8.978   5.564
 5518POPC   PO469936  43.861   8.989   5.864
 5518POPC   GL169937  43.907   8.957   6.164
 5518POPC   GL269938  43.889   9.055   6.164
 5518POPC   C1A69939  43.857   9.017   6.464
 5518POPC   D2A69940  43.918   8.924   6.764
 5518POPC   C3A69941  43.874   9.022   7.064
 5518POPC   C4A69942  43.893   8.983   7.364
 5518POPC   C1B69943  43.950   9.247   6.464
 5518POPC   C2B69944  43.922   9.208   6.764
 5518POPC   C3B69945  43.902   9.177   7.064
 5518POPC   C4B69946  43.954   9.173   7.364
 5519POPC   NC369947  20.572  37.652   5.564
 5519POPC   PO469948  20.631  37.659   5.864
 5519POPC   GL169949  20.639  37.716   6.164
 5519POPC   GL269950  20.613  37.751   6.164
 5519POPC   C1A69951  20.616  37.709   6.464
 5519POPC   D2A69952  20.587  37.675   6.764
 5519POPC   C3A69953  20.582  37.711   7.064
 5519POPC   C4A69954  20.626  37.711   7.364
 5519POPC   C1B69955  20.718  37.944   6.464
 5519POPC   C2B69956  20.691  37.932   6.764
 5519POPC   C3B69957  20.676  37.964   7.064
 5519POPC   C4B69958  20.652  37.936   7.364
 5520POPC   NC369959  38.497  32.203   5.564
 5520POPC   PO469960  38.466  32.227   5.864
 5520POPC   GL169961  38.419  32.277   6.164
 5520POPC   GL269962  38.419  32.353   6.164
 5520POPC   C1A69963  38.437  32.234   6.464
 5520POPC   D2A69964  38.425  32.279   6.764
 5520POPC   C3A69965  38.424  32.279   7.064
 5520POPC   C4A69966  38.503  32.292   7.364
 5520POPC   C1B69967  38.280  32.422   6.464
 5520POPC   C2B69968  38.357  32.463   6.764
 5520POPC   C3B69969  38.292  32.443   7.064
 5520POPC   C4B69970  38.366  32.465   7.364
 5521POPC   NC369971  33.047  43.854   5.564
 5521POPC   PO469972  33.055  43.845   5.864
 5521POPC   GL169973  33.064  43.930   6.164
 5521POPC   GL269974  33.141  43.807   6.164
 5521POPC   C1A69975  33.042  43.867   6.464
 5521POPC   D2A69976  33.012  43.926   6.764
 5521POPC   C3A69977  33.031  43.876   7.064
 5521POPC   C4A69978  32.993  43.883   7.364
 5521POPC   C1B69979  33.227  43.801   6.464
 5521POPC   C2B69980  33.282  43.852   6.764
 5521POPC   C3B69981  33.231  43.793   7.064
 5521POPC   C4B69982  33.297  43.844   7.364
 5522POPC   NC369983   7.441   1.983   5.564
 5522POPC   PO469984   7.429   1.970   5.864
 5522POPC   GL169985   7.421   2.020   6.164
 5522POPC   GL269986   7.347   2.071   6.164
 5522POPC   C1A69987   7.469   1.981   6.464
 5522POPC   D2A69988   7.391   1.961   6.764
 5522POPC   C3A69989   7.372   2.000   7.064
 5522POPC   C4A69990   7.458   2.021   7.364
 5522POPC   C1B69991   7.314   2.182   6.464
 5522POPC   C2B69992   7.358   2.255   6.764
 5522POPC   C3B69993   7.286   2.191   7.064
 5522POPC   C4B69994   7.290   2.215   7.364
 5523POPC   NC369995   5.071  13.617   5.564
 5523POPC   PO469996   5.101  13.597   5.864
 5523POPC   GL169997   5.134  13.668   6.164
 5523POPC   GL269998   5.025  13.523   6.164
 5523POPC   C1A69999   5.071  13.585   6.464
 5523POPC   D2A70000   5.136  13.628   6.764
 5523POPC   C3A70001   5.129  13.606   7.064
 5523POPC   C4A70002   5.056  13.639   7.364
 5523POPC   C1B70003   4.927  13.465   6.464
 5523POPC   C2B70004   4.939  13.430   6.764
 5523POPC   C3B70005   4.968  13.447   7.064
 5523POPC   C4B70006   4.976  13.459   7.364
 5524POPC   NC370007  15.945  38.503   5.564
 5524POPC   PO470008  15.995  38.438   5.864
 5524POPC   GL170009  15.980  38.477   6.164
 5524POPC   GL270010  16.069  38.471   6.164
 5524POPC   C1A70011  15.972  38.460   6.464
 5524POPC   D2A70012  15.928  38.454   6.764
 5524POPC   C3A70013  15.906  38.425   7.064
 5524POPC   C4A70014  15.964  38.439   7.364
 5524POPC   C1B70015  16.136  38.554   6.464
 5524POPC   C2B70016  16.168  38.602   6.764
 5524POPC   C3B70017  16.174  38.580   7.064
 5524POPC   C4B70018  16.160  38.511   7.364
 5525POPC   NC370019   3.580  43.905   5.564
 5525POPC   PO470020   3.543  43.864   5.864
 5525POPC   GL170021   3.531  43.906   6.164
 5525POPC   GL270022   3.534  44.009   6.164
 5525POPC   C1A70023   3.576  43.905   6.464
 5525POPC   D2A70024   3.575  43.861   6.764
 5525POPC   C3A70025   3.549  43.928   7.064
 5525POPC   C4A70026   3.565  43.876   7.364
 5525POPC   C1B70027   3.484  44.090   6.464
 5525POPC   C2B70028   3.435  44.132   6.764
 5525POPC   C3B70029   3.432  44.099   7.064
 5525POPC   C4B70030   3.432  44.161   7.364
 5526POPC   NC370031   0.409   7.381   5.564
 5526POPC   PO470032   0.393   7.433   5.864
 5526POPC   GL170033   0.427   7.419   6.164
 5526POPC   GL270034   0.430   7.557   6.164
 5526POPC   C1A70035   0.395   7.400   6.464
 5526POPC   D2A70036   0.433   7.402   6.764
 5526POPC   C3A70037   0.427   7.466   7.064
 5526POPC   C4A70038   0.468   7.391   7.364
 5526POPC   C1B70039   0.324   7.686   6.464
 5526POPC   C2B70040   0.343   7.666   6.764
 5526POPC   C3B70041   0.377   7.652   7.064
 5526POPC   C4B70042   0.311   7.623   7.364
 5527POPC   NC370043  43.849  23.676   5.564
 5527POPC   PO470044  43.919  23.700   5.864
 5527POPC   GL170045  43.872  23.728   6.164
 5527POPC   GL270046  43.958  23.785   6.164
 5527POPC   C1A70047  43.862  23.681   6.464
 5527POPC   D2A70048  43.881  23.731   6.764
 5527POPC   C3A70049  43.889  23.697   7.064
 5527POPC   C4A70050  43.922  23.711   7.364
 5527POPC   C1B70051  44.110  23.834   6.464
 5527POPC   C2B70052  44.086  23.870   6.764
 5527POPC   C3B70053  44.112  23.913   7.064
 5527POPC   C4B70054  44.108  23.882   7.364
 5528POPC   NC370055  13.585   0.405   5.564
 5528POPC   PO470056  13.602   0.411   5.864
 5528POPC   GL170057  13.586   0.414   6.164
 5528POPC   GL270058  13.648   0.304   6.164
 5528POPC   C1A70059  13.603   0.468   6.464
 5528POPC   D2A70060  13.592   0.427   6.764
 5528POPC   C3A70061  13.663   0.402   7.064
 5528POPC   C4A70062  13.596   0.407   7.364
 5528POPC   C1B70063  13.751   0.227   6.464
 5528POPC   C2B70064  13.732   0.197   6.764
 5528POPC   C3B70065  13.744   0.201   7.064
 5528POPC   C4B70066  13.735   0.183   7.364
 5529POPC   NC370067  11.306  40.022   5.564
 5529POPC   PO470068  11.300  40.012   5.864
 5529POPC   GL170069  11.274  40.000   6.164
 5529POPC   GL270070  11.230  40.142   6.164
 5529POPC   C1A70071  11.328  40.031   6.464
 5529POPC   D2A70072  11.282  40.011   6.764
 5529POPC   C3A70073  11.316  39.987   7.064
 5529POPC   C4A70074  11.346  40.001   7.364
 5529POPC   C1B70075  11.122  40.234   6.464
 5529POPC   C2B70076  11.132  40.176   6.764
 5529POPC   C3B70077  11.136  40.173   7.064
 5529POPC   C4B70078  11.202  40.239   7.364
 5530POPC   NC370079  43.861   5.911   5.564
 5530POPC   PO470080  43.891   5.832   5.864
 5530POPC   GL170081  43.895   5.892   6.164
 5530POPC   GL270082  43.913   5.973   6.164
 5530POPC   C1A70083  43.864   5.860   6.464
 5530POPC   D2A70084  43.897   5.908   6.764
 5530POPC   C3A70085  43.860   5.856   7.064
 5530POPC   C4A70086  43.872   5.822   7.364
 5530POPC   C1B70087  43.927   6.144   6.464
 5530POPC   C2B70088  43.874   6.149   6.764
 5530POPC   C3B70089  43.950   6.116   7.064
 5530POPC   C4B70090  43.855   6.091   7.364
 5531POPC   NC370091  15.945  12.111   5.564
 5531POPC   PO470092  15.994  12.079   5.864
 5531POPC   GL170093  15.956  12.080   6.164
 5531POPC   GL270094  16.087  12.169   6.164
 5531POPC   C1A70095  15.955  12.036   6.464
 5531POPC   D2A70096  15.935  12.098   6.764
 5531POPC   C3A70097  15.979  12.040   7.064
 5531POPC   C4A70098  15.921  12.073   7.364
 5531POPC   C1B70099  16.115  12.200   6.464
 5531POPC   C2B70100  16.106  12.244   6.764
 5531POPC   C3B70101  16.127  12.228   7.064
 5531POPC   C4B70102  16.153  12.225   7.364
 5532POPC   NC370103  43.104   7.377   5.564
 5532POPC   PO470104  43.126   7.404   5.864
 5532POPC   GL170105  43.112   7.409   6.164
 5532POPC   GL270106  43.077   7.294   6.164
 5532POPC   C1A70107  43.098   7.415   6.464
 5532POPC   D2A70108  43.149   7.403   6.764
 5532POPC   C3A70109  43.086   7.470   7.064
 5532POPC   C4A70110  43.136   7.417   7.364
 5532POPC   C1B70111  43.000   7.202   6.464
 5532POPC   C2B70112  42.987   7.188   6.764
 5532POPC   C3B70113  42.911   7.245   7.064
 5532POPC   C4B70114  42.921   7.179   7.364
 5533POPC   NC370115  43.099  23.667   5.564
 5533POPC   PO470116  43.093  23.675   5.864
 5533POPC   GL170117  43.066  23.705   6.164
 5533POPC   GL270118  42.961  23.686   6.164
 5533POPC   C1A70119  43.116  23.692   6.464
 5533POPC   D2A70120  43.158  23.755   6.764
 5533POPC   C3A70121  43.085  23.711   7.064
 5533POPC   C4A70122  43.064  23.713   7.364
 5533POPC   C1B70123  42.923  23.590   6.464
 5533POPC   C2B70124  42.923  23.570   6.764
 5533POPC   C3B70125  42.891  23.658   7.064
 5533POPC   C4B70126  42.894  23.569   7.364
 5534POPC   NC370127  25.293  20.623   5.564
 5534POPC   PO470128  25.314  20.605   5.864
 5534POPC   GL170129  25.289  20.617   6.164
 5534POPC   GL270130  25.158  20.638   6.164
 5534POPC   C1A70131  25.217  20.566   6.464
 5534POPC   D2A70132  25.228  20.583   6.764
 5534POPC   C3A70133  25.270  20.581   7.064
 5534POPC   C4A70134  25.246  20.588   7.364
 5534POPC   C1B70135  25.044  20.640   6.464
 5534POPC   C2B70136  24.997  20.601   6.764
 5534POPC   C3B70137  25.008  20.641   7.064
 5534POPC   C4B70138  25.021  20.683   7.364
 5535POPC   NC370139  32.223   3.557   5.564
 5535POPC   PO470140  32.201   3.496   5.864
 5535POPC   GL170141  32.252   3.494   6.164
 5535POPC   GL270142  32.308   3.643   6.164
 5535POPC   C1A70143  32.244   3.551   6.464
 5535POPC   D2A70144  32.250   3.544   6.764
 5535POPC   C3A70145  32.292   3.519   7.064
 5535POPC   C4A70146  32.211   3.565   7.364
 5535POPC   C1B70147  32.451   3.667   6.464
 5535POPC   C2B70148  32.502   3.700   6.764
 5535POPC   C3B70149  32.497   3.673   7.064
 5535POPC   C4B70150  32.417   3.684   7.364
 5536POPC   NC370151   2.004   7.422   5.564
 5536POPC   PO470152   1.974   7.436   5.864
 5536POPC   GL170153   1.988   7.371   6.164
 5536POPC   GL270154   1.886   7.354   6.164
 5536POPC   C1A70155   2.003   7.382   6.464
 5536POPC   D2A70156   2.001   7.417   6.764
 5536POPC   C3A70157   1.941   7.392   7.064
 5536POPC   C4A70158   1.949   7.443   7.364
 5536POPC   C1B70159   1.840   7.204   6.464
 5536POPC   C2B70160   1.898   7.242   6.764
 5536POPC   C3B70161   1.908   7.240   7.064
 5536POPC   C4B70162   1.842   7.201   7.364
 5537POPC   NC370163  25.218  30.659   5.564
 5537POPC   PO470164  25.216  30.675   5.864
 5537POPC   GL170165  25.276  30.671   6.164
 5537POPC   GL270166  25.191  30.749   6.164
 5537POPC   C1A70167  25.301  30.655   6.464
 5537POPC   D2A70168  25.238  30.738   6.764
 5537POPC   C3A70169  25.265  30.674   7.064
 5537POPC   C4A70170  25.262  30.719   7.364
 5537POPC   C1B70171  25.134  30.876   6.464
 5537POPC   C2B70172  25.160  30.919   6.764
 5537POPC   C3B70173  25.142  30.912   7.064
 5537POPC   C4B70174  25.161  30.857   7.364
 5538POPC   NC370175   6.658   9.743   5.564
 5538POPC   PO470176   6.654   9.739   5.864
 5538POPC   GL170177   6.664   9.789   6.164
 5538POPC   GL270178   6.525   9.724   6.164
 5538POPC   C1A70179   6.657   9.742   6.464
 5538POPC   D2A70180   6.598   9.736   6.764
 5538POPC   C3A70181   6.634   9.727   7.064
 5538POPC   C4A70182   6.677   9.766   7.364
 5538POPC   C1B70183   6.381   9.727   6.464
 5538POPC   C2B70184   6.372   9.695   6.764
 5538POPC   C3B70185   6.358   9.710   7.064
 5538POPC   C4B70186   6.400   9.754   7.364
 5539POPC   NC370187  19.800   7.425   5.564
 5539POPC   PO470188  19.830   7.424   5.864
 5539POPC   GL170189  19.822   7.381   6.164
 5539POPC   GL270190  19.698   7.519   6.164
 5539POPC   C1A70191  19.823   7.382   6.464
 5539POPC   D2A70192  19.807   7.439   6.764
 5539POPC   C3A70193  19.792   7.416   7.064
 5539POPC   C4A70194  19.844   7.386   7.364
 5539POPC   C1B70195  19.585   7.552   6.464
 5539POPC   C2B70196  19.649   7.494   6.764
 5539POPC   C3B70197  19.650   7.553   7.064
 5539POPC   C4B70198  19.623   7.488   7.364
 5540POPC   NC370199  19.800  15.958   5.564
 5540POPC   PO470200  19.787  15.931   5.864
 5540POPC   GL170201  19.844  15.929   6.164
 5540POPC   GL270202  19.805  15.802   6.164
 5540POPC   C1A70203  19.873  15.935   6.464
 5540POPC   D2A70204  19.872  15.943   6.764
 5540POPC   C3A70205  19.816  15.938   7.064
 5540POPC   C4A70206  19.884  15.924   7.364
 5540POPC   C1B70207  19.733  15.686   6.464
 5540POPC   C2B70208  19.721  15.738   6.764
 5540POPC   C3B70209  19.721  15.669   7.064
 5540POPC   C4B70210  19.718  15.676   7.364
 5541POPC   NC370211  16.693  15.212   5.564
 5541POPC   PO470212  16.703  15.178   5.864
 5541POPC   GL170213  16.751  15.141   6.164
 5541POPC   GL270214  16.606  15.046   6.164
 5541POPC   C1A70215  16.683  15.195   6.464
 5541POPC   D2A70216  16.693  15.187   6.764
 5541POPC   C3A70217  16.747  15.137   7.064
 5541POPC   C4A70218  16.720  15.160   7.364
 5541POPC   C1B70219  16.517  14.951   6.464
 5541POPC   C2B70220  16.517  14.958   6.764
 5541POPC   C3B70221  16.519  14.983   7.064
 5541POPC   C4B70222  16.527  15.001   7.364
 5542POPC   NC370223  30.654  29.944   5.564
 5542POPC   PO470224  30.681  29.874   5.864
 5542POPC   GL170225  30.721  29.877   6.164
 5542POPC   GL270226  30.840  30.024   6.164
 5542POPC   C1A70227  30.723  29.949   6.464
 5542POPC   D2A70228  30.649  29.879   6.764
 5542POPC   C3A70229  30.707  29.881   7.064
 5542POPC   C4A70230  30.725  29.899   7.364
 5542POPC   C1B70231  30.847  30.109   6.464
 5542POPC   C2B70232  30.909  30.120   6.764
 5542POPC   C3B70233  30.847  30.094   7.064
 5542POPC   C4B70234  30.928  30.060   7.364
 5543POPC   NC370235  31.522  33.784   5.564
 5543POPC   PO470236  31.514  33.834   5.864
 5543POPC   GL170237  31.501  33.843   6.164
 5543POPC   GL270238  31.437  33.899   6.164
 5543POPC   C1A70239  31.508  33.801   6.464
 5543POPC   D2A70240  31.466  33.752   6.764
 5543POPC   C3A70241  31.470  33.758   7.064
 5543POPC   C4A70242  31.446  33.791   7.364
 5543POPC   C1B70243  31.280  33.971   6.464
 5543POPC   C2B70244  31.303  33.952   6.764
 5543POPC   C3B70245  31.325  33.968   7.064
 5543POPC   C4B70246  31.283  34.014   7.364
 5544POPC   NC370247  29.183   6.671   5.564
 5544POPC   PO470248  29.145   6.621   5.864
 5544POPC   GL170249  29.113   6.687   6.164
 5544POPC   GL270250  29.033   6.715   6.164
 5544POPC   C1A70251  29.151   6.631   6.464
 5544POPC   D2A70252  29.132   6.651   6.764
 5544POPC   C3A70253  29.144   6.687   7.064
 5544POPC   C4A70254  29.111   6.671   7.364
 5544POPC   C1B70255  29.007   6.825   6.464
 5544POPC   C2B70256  28.978   6.836   6.764
 5544POPC   C3B70257  28.962   6.812   7.064
 5544POPC   C4B70258  28.933   6.827   7.364
 5545POPC   NC370259  26.029  19.816   5.564
 5545POPC   PO470260  26.024  19.867   5.864
 5545POPC   GL170261  26.056  19.877   6.164
 5545POPC   GL270262  26.126  19.870   6.164
 5545POPC   C1A70263  26.059  19.849   6.464
 5545POPC   D2A70264  26.063  19.835   6.764
 5545POPC   C3A70265  26.056  19.812   7.064
 5545POPC   C4A70266  25.994  19.822   7.364
 5545POPC   C1B70267  26.325  19.858   6.464
 5545POPC   C2B70268  26.288  19.799   6.764
 5545POPC   C3B70269  26.278  19.829   7.064
 5545POPC   C4B70270  26.289  19.890   7.364
 5546POPC   NC370271  44.707  38.479   5.564
 5546POPC   PO470272  44.680  38.444   5.864
 5546POPC   GL170273  44.665  38.461   6.164
 5546POPC   GL270274  44.828  38.537   6.164
 5546POPC   C1A70275  44.612  38.422   6.464
 5546POPC   D2A70276  44.652  38.443   6.764
 5546POPC   C3A70277  44.621  38.443   7.064
 5546POPC   C4A70278  44.707  38.482   7.364
 5546POPC   C1B70279  44.931  38.506   6.464
 5546POPC   C2B70280  44.920  38.542   6.764
 5546POPC   C3B70281  44.924  38.546   7.064
 5546POPC   C4B70282  44.896  38.499   7.364
 5547POPC   NC370283   1.946  36.144   5.564
 5547POPC   PO470284   1.947  36.174   5.864
 5547POPC   GL170285   1.955  36.110   6.164
 5547POPC   GL270286   1.841  36.066   6.164
 5547POPC   C1A70287   1.956  36.129   6.464
 5547POPC   D2A70288   2.015  36.167   6.764
 5547POPC   C3A70289   1.986  36.134   7.064
 5547POPC   C4A70290   1.966  36.141   7.364
 5547POPC   C1B70291   1.695  36.075   6.464
 5547POPC   C2B70292   1.708  36.060   6.764
 5547POPC   C3B70293   1.714  36.065   7.064
 5547POPC   C4B70294   1.727  36.067   7.364
 5548POPC   NC370295  11.327  36.937   5.564
 5548POPC   PO470296  11.293  36.898   5.864
 5548POPC   GL170297  11.282  36.944   6.164
 5548POPC   GL270298  11.256  36.838   6.164
 5548POPC   C1A70299  11.314  36.913   6.464
 5548POPC   D2A70300  11.313  36.876   6.764
 5548POPC   C3A70301  11.322  36.928   7.064
 5548POPC   C4A70302  11.270  36.904   7.364
 5548POPC   C1B70303  11.152  36.698   6.464
 5548POPC   C2B70304  11.159  36.691   6.764
 5548POPC   C3B70305  11.123  36.734   7.064
 5548POPC   C4B70306  11.163  36.681   7.364
 5549POPC   NC370307  43.118   0.449   5.564
 5549POPC   PO470308  43.121   0.470   5.864
 5549POPC   GL170309  43.128   0.432   6.164
 5549POPC   GL270310  43.189   0.344   6.164
 5549POPC   C1A70311  43.101   0.403   6.464
 5549POPC   D2A70312  43.116   0.411   6.764
 5549POPC   C3A70313  43.114   0.437   7.064
 5549POPC   C4A70314  43.132   0.472   7.364
 5549POPC   C1B70315  43.318   0.309   6.464
 5549POPC   C2B70316  43.331   0.238   6.764
 5549POPC   C3B70317  43.263   0.267   7.064
 5549POPC   C4B70318  43.271   0.265   7.364
 5550POPC   NC370319  14.449  19.865   5.564
 5550POPC   PO470320  14.399  19.820   5.864
 5550POPC   GL170321  14.405  19.793   6.164
 5550POPC   GL270322  14.366  19.718   6.164
 5550POPC   C1A70323  14.359  19.789   6.464
 5550POPC   D2A70324  14.445  19.837   6.764
 5550POPC   C3A70325  14.442  19.865   7.064
 5550POPC   C4A70326  14.436  19.831   7.364
 5550POPC   C1B70327  14.361  19.634   6.464
 5550POPC   C2B70328  14.413  19.622   6.764
 5550POPC   C3B70329  14.411  19.633   7.064
 5550POPC   C4B70330  14.439  19.538   7.364
 5551POPC   NC370331   4.302  29.892   5.564
 5551POPC   PO470332   4.303  29.911   5.864
 5551POPC   GL170333   4.276  29.963   6.164
 5551POPC   GL270334   4.476  29.944   6.164
 5551POPC   C1A70335   4.321  29.874   6.464
 5551POPC   D2A70336   4.356  29.912   6.764
 5551POPC   C3A70337   4.305  29.964   7.064
 5551POPC   C4A70338   4.273  29.956   7.364
 5551POPC   C1B70339   4.514  29.967   6.464
 5551POPC   C2B70340   4.559  29.950   6.764
 5551POPC   C3B70341   4.574  30.022   7.064
 5551POPC   C4B70342   4.531  29.976   7.364
 5552POPC   NC370343   4.365   6.600   5.564
 5552POPC   PO470344   4.323   6.608   5.864
 5552POPC   GL170345   4.312   6.682   6.164
 5552POPC   GL270346   4.391   6.514   6.164
 5552POPC   C1A70347   4.298   6.674   6.464
 5552POPC   D2A70348   4.288   6.636   6.764
 5552POPC   C3A70349   4.330   6.672   7.064
 5552POPC   C4A70350   4.287   6.622   7.364
 5552POPC   C1B70351   4.479   6.404   6.464
 5552POPC   C2B70352   4.439   6.414   6.764
 5552POPC   C3B70353   4.475   6.423   7.064
 5552POPC   C4B70354   4.440   6.419   7.364
 5553POPC   NC370355   3.569  40.821   5.564
 5553POPC   PO470356   3.499  40.812   5.864
 5553POPC   GL170357   3.556  40.828   6.164
 5553POPC   GL270358   3.458  40.806   6.164
 5553POPC   C1A70359   3.579  40.772   6.464
 5553POPC   D2A70360   3.589  40.792   6.764
 5553POPC   C3A70361   3.509  40.813   7.064
 5553POPC   C4A70362   3.521  40.813   7.364
 5553POPC   C1B70363   3.310  40.949   6.464
 5553POPC   C2B70364   3.277  40.872   6.764
 5553POPC   C3B70365   3.351  40.914   7.064
 5553POPC   C4B70366   3.353  40.932   7.364
 5554POPC   NC370367  20.569  13.666   5.564
 5554POPC   PO470368  20.584  13.583   5.864
 5554POPC   GL170369  20.581  13.591   6.164
 5554POPC   GL270370  20.466  13.669   6.164
 5554POPC   C1A70371  20.594  13.599   6.464
 5554POPC   D2A70372  20.619  13.592   6.764
 5554POPC   C3A70373  20.636  13.610   7.064
 5554POPC   C4A70374  20.598  13.627   7.364
 5554POPC   C1B70375  20.382  13.717   6.464
 5554POPC   C2B70376  20.373  13.697   6.764
 5554POPC   C3B70377  20.338  13.764   7.064
 5554POPC   C4B70378  20.416  13.733   7.364
 5555POPC   NC370379  19.053   2.790   5.564
 5555POPC   PO470380  19.083   2.792   5.864
 5555POPC   GL170381  19.064   2.792   6.164
 5555POPC   GL270382  19.075   2.634   6.164
 5555POPC   C1A70383  19.041   2.770   6.464
 5555POPC   D2A70384  19.019   2.726   6.764
 5555POPC   C3A70385  19.085   2.795   7.064
 5555POPC   C4A70386  19.043   2.729   7.364
 5555POPC   C1B70387  19.064   2.470   6.464
 5555POPC   C2B70388  19.013   2.531   6.764
 5555POPC   C3B70389  19.036   2.546   7.064
 5555POPC   C4B70390  18.992   2.484   7.364
 5556POPC   NC370391  23.721  26.842   5.564
 5556POPC   PO470392  23.707  26.844   5.864
 5556POPC   GL170393  23.669  26.813   6.164
 5556POPC   GL270394  23.698  26.679   6.164
 5556POPC   C1A70395  23.693  26.825   6.464
 5556POPC   D2A70396  23.676  26.851   6.764
 5556POPC   C3A70397  23.712  26.805   7.064
 5556POPC   C4A70398  23.670  26.850   7.364
 5556POPC   C1B70399  23.738  26.588   6.464
 5556POPC   C2B70400  23.673  26.562   6.764
 5556POPC   C3B70401  23.715  26.568   7.064
 5556POPC   C4B70402  23.706  26.599   7.364
 5557POPC   NC370403   3.591  25.251   5.564
 5557POPC   PO470404   3.532  25.306   5.864
 5557POPC   GL170405   3.566  25.224   6.164
 5557POPC   GL270406   3.482  25.173   6.164
 5557POPC   C1A70407   3.588  25.308   6.464
 5557POPC   D2A70408   3.526  25.237   6.764
 5557POPC   C3A70409   3.529  25.275   7.064
 5557POPC   C4A70410   3.591  25.282   7.364
 5557POPC   C1B70411   3.510  25.054   6.464
 5557POPC   C2B70412   3.445  24.986   6.764
 5557POPC   C3B70413   3.413  25.044   7.064
 5557POPC   C4B70414   3.461  25.041   7.364
 5558POPC   NC370415  26.000  22.166   5.564
 5558POPC   PO470416  26.011  22.204   5.864
 5558POPC   GL170417  26.072  22.163   6.164
 5558POPC   GL270418  26.151  22.108   6.164
 5558POPC   C1A70419  26.056  22.136   6.464
 5558POPC   D2A70420  25.996  22.123   6.764
 5558POPC   C3A70421  26.033  22.195   7.064
 5558POPC   C4A70422  26.007  22.149   7.364
 5558POPC   C1B70423  26.245  22.077   6.464
 5558POPC   C2B70424  26.294  22.052   6.764
 5558POPC   C3B70425  26.263  21.997   7.064
 5558POPC   C4B70426  26.237  22.031   7.364
 5559POPC   NC370427  17.522  21.425   5.564
 5559POPC   PO470428  17.532  21.392   5.864
 5559POPC   GL170429  17.539  21.386   6.164
 5559POPC   GL270430  17.561  21.327   6.164
 5559POPC   C1A70431  17.498  21.395   6.464
 5559POPC   D2A70432  17.544  21.428   6.764
 5559POPC   C3A70433  17.501  21.392   7.064
 5559POPC   C4A70434  17.544  21.390   7.364
 5559POPC   C1B70435  17.714  21.265   6.464
 5559POPC   C2B70436  17.734  21.201   6.764
 5559POPC   C3B70437  17.655  21.259   7.064
 5559POPC   C4B70438  17.697  21.268   7.364
 5560POPC   NC370439   7.372  17.467   5.564
 5560POPC   PO470440   7.458  17.471   5.864
 5560POPC   GL170441   7.458  17.524   6.164
 5560POPC   GL270442   7.520  17.386   6.164
 5560POPC   C1A70443   7.387  17.495   6.464
 5560POPC   D2A70444   7.423  17.461   6.764
 5560POPC   C3A70445   7.423  17.526   7.064
 5560POPC   C4A70446   7.416  17.539   7.364
 5560POPC   C1B70447   7.531  17.276   6.464
 5560POPC   C2B70448   7.585  17.334   6.764
 5560POPC   C3B70449   7.535  17.306   7.064
 5560POPC   C4B70450   7.556  17.337   7.364
 5561POPC   NC370451  19.020  13.629   5.564
 5561POPC   PO470452  19.032  13.649   5.864
 5561POPC   GL170453  19.096  13.584   6.164
 5561POPC   GL270454  18.914  13.669   6.164
 5561POPC   C1A70455  19.056  13.631   6.464
 5561POPC   D2A70456  19.010  13.627   6.764
 5561POPC   C3A70457  19.035  13.663   7.064
 5561POPC   C4A70458  19.024  13.599   7.364
 5561POPC   C1B70459  18.777  13.730   6.464
 5561POPC   C2B70460  18.794  13.657   6.764
 5561POPC   C3B70461  18.840  13.725   7.064
 5561POPC   C4B70462  18.806  13.654   7.364
 5562POPC   NC370463  30.673   1.243   5.564
 5562POPC   PO470464  30.741   1.176   5.864
 5562POPC   GL170465  30.647   1.262   6.164
 5562POPC   GL270466  30.835   1.155   6.164
 5562POPC   C1A70467  30.664   1.262   6.464
 5562POPC   D2A70468  30.647   1.226   6.764
 5562POPC   C3A70469  30.669   1.174   7.064
 5562POPC   C4A70470  30.684   1.186   7.364
 5562POPC   C1B70471  30.981   1.213   6.464
 5562POPC   C2B70472  30.929   1.235   6.764
 5562POPC   C3B70473  30.936   1.144   7.064
 5562POPC   C4B70474  30.964   1.230   7.364
 5563POPC   NC370475   8.936   1.261   5.564
 5563POPC   PO470476   8.990   1.196   5.864
 5563POPC   GL170477   9.000   1.264   6.164
 5563POPC   GL270478   8.880   1.346   6.164
 5563POPC   C1A70479   8.990   1.202   6.464
 5563POPC   D2A70480   8.977   1.176   6.764
 5563POPC   C3A70481   8.958   1.235   7.064
 5563POPC   C4A70482   8.965   1.216   7.364
 5563POPC   C1B70483   8.834   1.410   6.464
 5563POPC   C2B70484   8.818   1.413   6.764
 5563POPC   C3B70485   8.778   1.371   7.064
 5563POPC   C4B70486   8.792   1.352   7.364
 5564POPC   NC370487  22.925  21.386   5.564
 5564POPC   PO470488  22.900  21.430   5.864
 5564POPC   GL170489  22.899  21.378   6.164
 5564POPC   GL270490  22.863  21.287   6.164
 5564POPC   C1A70491  22.956  21.362   6.464
 5564POPC   D2A70492  22.970  21.431   6.764
 5564POPC   C3A70493  22.957  21.398   7.064
 5564POPC   C4A70494  22.913  21.364   7.364
 5564POPC   C1B70495  22.933  21.151   6.464
 5564POPC   C2B70496  22.900  21.186   6.764
 5564POPC   C3B70497  22.914  21.140   7.064
 5564POPC   C4B70498  22.836  21.170   7.364
 5565POPC   NC370499  44.660  43.924   5.564
 5565POPC   PO470500  44.621  43.896   5.864
 5565POPC   GL170501  44.617  43.914   6.164
 5565POPC   GL270502  44.775  43.900   6.164
 5565POPC   C1A70503  44.705  43.848   6.464
 5565POPC   D2A70504  44.686  43.887   6.764
 5565POPC   C3A70505  44.645  43.902   7.064
 5565POPC   C4A70506  44.712  43.888   7.364
 5565POPC   C1B70507  44.857  43.932   6.464
 5565POPC   C2B70508  44.874  43.980   6.764
 5565POPC   C3B70509  44.927  43.917   7.064
 5565POPC   C4B70510  44.917  43.952   7.364
 5566POPC   NC370511  36.168  26.774   5.564
 5566POPC   PO470512  36.122  26.820   5.864
 5566POPC   GL170513  36.176  26.832   6.164
 5566POPC   GL270514  36.291  26.808   6.164
 5566POPC   C1A70515  36.130  26.821   6.464
 5566POPC   D2A70516  36.125  26.793   6.764
 5566POPC   C3A70517  36.100  26.821   7.064
 5566POPC   C4A70518  36.080  26.850   7.364
 5566POPC   C1B70519  36.380  26.869   6.464
 5566POPC   C2B70520  36.395  26.856   6.764
 5566POPC   C3B70521  36.375  26.872   7.064
 5566POPC   C4B70522  36.369  26.857   7.364
 5567POPC   NC370523  16.754  36.861   5.564
 5567POPC   PO470524  16.750  36.894   5.864
 5567POPC   GL170525  16.694  36.894   6.164
 5567POPC   GL270526  16.614  36.981   6.164
 5567POPC   C1A70527  16.709  36.894   6.464
 5567POPC   D2A70528  16.703  36.932   6.764
 5567POPC   C3A70529  16.744  36.948   7.064
 5567POPC   C4A70530  16.775  36.877   7.364
 5567POPC   C1B70531  16.543  37.026   6.464
 5567POPC   C2B70532  16.582  37.024   6.764
 5567POPC   C3B70533  16.554  37.112   7.064
 5567POPC   C4B70534  16.567  37.019   7.364
 5568POPC   NC370535   3.576  37.714   5.564
 5568POPC   PO470536   3.564  37.640   5.864
 5568POPC   GL170537   3.523  37.723   6.164
 5568POPC   GL270538   3.549  37.754   6.164
 5568POPC   C1A70539   3.514  37.633   6.464
 5568POPC   D2A70540   3.521  37.652   6.764
 5568POPC   C3A70541   3.563  37.701   7.064
 5568POPC   C4A70542   3.522  37.699   7.364
 5568POPC   C1B70543   3.531  37.901   6.464
 5568POPC   C2B70544   3.554  37.963   6.764
 5568POPC   C3B70545   3.567  37.957   7.064
 5568POPC   C4B70546   3.593  37.950   7.364
 5569POPC   NC370547  40.742  30.717   5.564
 5569POPC   PO470548  40.829  30.724   5.864
 5569POPC   GL170549  40.755  30.725   6.164
 5569POPC   GL270550  40.713  30.782   6.164
 5569POPC   C1A70551  40.772  30.729   6.464
 5569POPC   D2A70552  40.793  30.657   6.764
 5569POPC   C3A70553  40.805  30.660   7.064
 5569POPC   C4A70554  40.805  30.733   7.364
 5569POPC   C1B70555  40.653  30.925   6.464
 5569POPC   C2B70556  40.696  30.944   6.764
 5569POPC   C3B70557  40.647  30.910   7.064
 5569POPC   C4B70558  40.674  30.908   7.364
 5570POPC   NC370559  27.562  11.319   5.564
 5570POPC   PO470560  27.599  11.261   5.864
 5570POPC   GL170561  27.553  11.309   6.164
 5570POPC   GL270562  27.468  11.225   6.164
 5570POPC   C1A70563  27.561  11.299   6.464
 5570POPC   D2A70564  27.585  11.336   6.764
 5570POPC   C3A70565  27.583  11.262   7.064
 5570POPC   C4A70566  27.601  11.275   7.364
 5570POPC   C1B70567  27.375  11.200   6.464
 5570POPC   C2B70568  27.383  11.182   6.764
 5570POPC   C3B70569  27.380  11.214   7.064
 5570POPC   C4B70570  27.393  11.191   7.364
 5571POPC   NC370571  17.501   8.227   5.564
 5571POPC   PO470572  17.532   8.209   5.864
 5571POPC   GL170573  17.469   8.179   6.164
 5571POPC   GL270574  17.592   8.091   6.164
 5571POPC   C1A70575  17.489   8.168   6.464
 5571POPC   D2A70576  17.524   8.223   6.764
 5571POPC   C3A70577  17.477   8.150   7.064
 5571POPC   C4A70578  17.491   8.234   7.364
 5571POPC   C1B70579  17.543   7.947   6.464
 5571POPC   C2B70580  17.595   7.943   6.764
 5571POPC   C3B70581  17.574   7.948   7.064
 5571POPC   C4B70582  17.587   7.909   7.364
 5572POPC   NC370583  43.921  36.906   5.564
 5572POPC   PO470584  43.855  36.923   5.864
 5572POPC   GL170585  43.916  36.943   6.164
 5572POPC   GL270586  43.946  36.982   6.164
 5572POPC   C1A70587  43.838  36.952   6.464
 5572POPC   D2A70588  43.927  36.901   6.764
 5572POPC   C3A70589  43.846  36.939   7.064
 5572POPC   C4A70590  43.904  36.854   7.364
 5572POPC   C1B70591  44.014  37.096   6.464
 5572POPC   C2B70592  44.057  37.051   6.764
 5572POPC   C3B70593  44.033  37.042   7.064
 5572POPC   C4B70594  44.040  37.093   7.364
 5573POPC   NC370595  39.237   1.196   5.564
 5573POPC   PO470596  39.210   1.248   5.864
 5573POPC   GL170597  39.184   1.207   6.164
 5573POPC   GL270598  39.193   1.317   6.164
 5573POPC   C1A70599  39.259   1.191   6.464
 5573POPC   D2A70600  39.279   1.230   6.764
 5573POPC   C3A70601  39.268   1.204   7.064
 5573POPC   C4A70602  39.205   1.208   7.364
 5573POPC   C1B70603  39.225   1.442   6.464
 5573POPC   C2B70604  39.197   1.508   6.764
 5573POPC   C3B70605  39.180   1.512   7.064
 5573POPC   C4B70606  39.167   1.469   7.364
 5574POPC   NC370607   5.916   6.664   5.564
 5574POPC   PO470608   5.867   6.640   5.864
 5574POPC   GL170609   5.864   6.656   6.164
 5574POPC   GL270610   6.013   6.671   6.164
 5574POPC   C1A70611   5.826   6.642   6.464
 5574POPC   D2A70612   5.891   6.692   6.764
 5574POPC   C3A70613   5.876   6.655   7.064
 5574POPC   C4A70614   5.897   6.638   7.364
 5574POPC   C1B70615   6.102   6.588   6.464
 5574POPC   C2B70616   6.120   6.636   6.764
 5574POPC   C3B70617   6.102   6.671   7.064
 5574POPC   C4B70618   6.081   6.642   7.364
 5575POPC   NC370619  17.496  14.420   5.564
 5575POPC   PO470620  17.463  14.401   5.864
 5575POPC   GL170621  17.477  14.379   6.164
 5575POPC   GL270622  17.587  14.407   6.164
 5575POPC   C1A70623  17.543  14.356   6.464
 5575POPC   D2A70624  17.555  14.389   6.764
 5575POPC   C3A70625  17.526  14.434   7.064
 5575POPC   C4A70626  17.476  14.360   7.364
 5575POPC   C1B70627  17.733  14.406   6.464
 5575POPC   C2B70628  17.722  14.411   6.764
 5575POPC   C3B70629  17.800  14.403   7.064
 5575POPC   C4B70630  17.782  14.360   7.364
 5576POPC   NC370631  22.198   0.435   5.564
 5576POPC   PO470632  22.113   0.389   5.864
 5576POPC   GL170633  22.116   0.405   6.164
 5576POPC   GL270634  22.117   0.532   6.164
 5576POPC   C1A70635  22.197   0.462   6.464
 5576POPC   D2A70636  22.162   0.455   6.764
 5576POPC   C3A70637  22.154   0.474   7.064
 5576POPC   C4A70638  22.202   0.451   7.364
 5576POPC   C1B70639  22.088   0.683   6.464
 5576POPC   C2B70640  22.163   0.706   6.764
 5576POPC   C3B70641  22.169   0.715   7.064
 5576POPC   C4B70642  22.139   0.658   7.364
 5577POPC   NC370643  17.503   5.129   5.564
 5577POPC   PO470644  17.528   5.130   5.864
 5577POPC   GL170645  17.533   5.135   6.164
 5577POPC   GL270646  17.606   5.021   6.164
 5577POPC   C1A70647  17.522   5.091   6.464
 5577POPC   D2A70648  17.543   5.076   6.764
 5577POPC   C3A70649  17.551   5.080   7.064
 5577POPC   C4A70650  17.472   5.104   7.364
 5577POPC   C1B70651  17.730   5.050   6.464
 5577POPC   C2B70652  17.716   5.028   6.764
 5577POPC   C3B70653  17.731   5.042   7.064
 5577POPC   C4B70654  17.787   5.058   7.364
 5578POPC   NC370655  35.378   8.982   5.564
 5578POPC   PO470656  35.318   8.980   5.864
 5578POPC   GL170657  35.304   9.007   6.164
 5578POPC   GL270658  35.327   8.803   6.164
 5578POPC   C1A70659  35.304   8.996   6.464
 5578POPC   D2A70660  35.333   9.008   6.764
 5578POPC   C3A70661  35.324   9.015   7.064
 5578POPC   C4A70662  35.392   9.000   7.364
 5578POPC   C1B70663  35.357   8.757   6.464
 5578POPC   C2B70664  35.342   8.766   6.764
 5578POPC   C3B70665  35.321   8.725   7.064
 5578POPC   C4B70666  35.326   8.697   7.364
 5579POPC   NC370667  11.258  12.126   5.564
 5579POPC   PO470668  11.266  12.031   5.864
 5579POPC   GL170669  11.269  12.052   6.164
 5579POPC   GL270670  11.170  12.078   6.164
 5579POPC   C1A70671  11.334  12.082   6.464
 5579POPC   D2A70672  11.271  12.092   6.764
 5579POPC   C3A70673  11.280  12.054   7.064
 5579POPC   C4A70674  11.258  12.035   7.364
 5579POPC   C1B70675  11.022  12.207   6.464
 5579POPC   C2B70676  11.075  12.160   6.764
 5579POPC   C3B70677  11.074  12.140   7.064
 5579POPC   C4B70678  11.078  12.201   7.364
 5580POPC   NC370679  40.757   8.986   5.564
 5580POPC   PO470680  40.774   8.954   5.864
 5580POPC   GL170681  40.756   8.975   6.164
 5580POPC   GL270682  40.817   8.808   6.164
 5580POPC   C1A70683  40.797   8.955   6.464
 5580POPC   D2A70684  40.754   8.976   6.764
 5580POPC   C3A70685  40.796   8.984   7.064
 5580POPC   C4A70686  40.786   8.932   7.364
 5580POPC   C1B70687  40.805   8.753   6.464
 5580POPC   C2B70688  40.793   8.731   6.764
 5580POPC   C3B70689  40.828   8.748   7.064
 5580POPC   C4B70690  40.808   8.738   7.364
 5581POPC   NC370691  39.965  16.000   5.564
 5581POPC   PO470692  39.980  15.959   5.864
 5581POPC   GL170693  39.965  15.920   6.164
 5581POPC   GL270694  40.054  16.114   6.164
 5581POPC   C1A70695  39.989  15.928   6.464
 5581POPC   D2A70696  39.965  15.998   6.764
 5581POPC   C3A70697  39.993  15.953   7.064
 5581POPC   C4A70698  40.045  15.973   7.364
 5581POPC   C1B70699  39.962  16.233   6.464
 5581POPC   C2B70700  40.002  16.218   6.764
 5581POPC   C3B70701  40.041  16.208   7.064
 5581POPC   C4B70702  40.005  16.216   7.364
 5582POPC   NC370703  37.686   8.953   5.564
 5582POPC   PO470704  37.701   8.961   5.864
 5582POPC   GL170705  37.717   8.959   6.164
 5582POPC   GL270706  37.702   8.854   6.164
 5582POPC   C1A70707  37.722   8.991   6.464
 5582POPC   D2A70708  37.633   9.001   6.764
 5582POPC   C3A70709  37.643   8.945   7.064
 5582POPC   C4A70710  37.680   8.957   7.364
 5582POPC   C1B70711  37.686   8.726   6.464
 5582POPC   C2B70712  37.709   8.741   6.764
 5582POPC   C3B70713  37.746   8.737   7.064
 5582POPC   C4B70714  37.692   8.693   7.364
 5583POPC   NC370715  40.014  29.098   5.564
 5583POPC   PO470716  39.974  29.117   5.864
 5583POPC   GL170717  40.048  29.118   6.164
 5583POPC   GL270718  39.911  29.079   6.164
 5583POPC   C1A70719  39.972  29.138   6.464
 5583POPC   D2A70720  40.019  29.112   6.764
 5583POPC   C3A70721  39.994  29.180   7.064
 5583POPC   C4A70722  40.053  29.173   7.364
 5583POPC   C1B70723  39.804  29.006   6.464
 5583POPC   C2B70724  39.793  28.974   6.764
 5583POPC   C3B70725  39.840  28.974   7.064
 5583POPC   C4B70726  39.800  28.972   7.364
 5584POPC   NC370727  30.677  20.640   5.564
 5584POPC   PO470728  30.654  20.582   5.864
 5584POPC   GL170729  30.687  20.567   6.164
 5584POPC   GL270730  30.710  20.473   6.164
 5584POPC   C1A70731  30.708  20.638   6.464
 5584POPC   D2A70732  30.663  20.640   6.764
 5584POPC   C3A70733  30.689  20.619   7.064
 5584POPC   C4A70734  30.670  20.615   7.364
 5584POPC   C1B70735  30.842  20.397   6.464
 5584POPC   C2B70736  30.858  20.416   6.764
 5584POPC   C3B70737  30.814  20.372   7.064
 5584POPC   C4B70738  30.844  20.415   7.364
 5585POPC   NC370739  22.153  33.033   5.564
 5585POPC   PO470740  22.203  33.021   5.864
 5585POPC   GL170741  22.141  32.986   6.164
 5585POPC   GL270742  22.311  32.936   6.164
 5585POPC   C1A70743  22.201  33.024   6.464
 5585POPC   D2A70744  22.166  33.036   6.764
 5585POPC   C3A70745  22.148  33.074   7.064
 5585POPC   C4A70746  22.155  33.042   7.364
 5585POPC   C1B70747  22.347  32.939   6.464
 5585POPC   C2B70748  22.408  32.884   6.764
 5585POPC   C3B70749  22.352  32.957   7.064
 5585POPC   C4B70750  22.444  32.903   7.364
 5586POPC   NC370751  30.721  14.367   5.564
 5586POPC   PO470752  30.682  14.403   5.864
 5586POPC   GL170753  30.727  14.375   6.164
 5586POPC   GL270754  30.580  14.459   6.164
 5586POPC   C1A70755  30.674  14.431   6.464
 5586POPC   D2A70756  30.655  14.443   6.764
 5586POPC   C3A70757  30.737  14.375   7.064
 5586POPC   C4A70758  30.695  14.417   7.364
 5586POPC   C1B70759  30.513  14.558   6.464
 5586POPC   C2B70760  30.502  14.580   6.764
 5586POPC   C3B70761  30.558  14.598   7.064
 5586POPC   C4B70762  30.549  14.558   7.364
 5587POPC   NC370763  32.978  34.614   5.564
 5587POPC   PO470764  33.074  34.614   5.864
 5587POPC   GL170765  33.036  34.566   6.164
 5587POPC   GL270766  32.986  34.424   6.164
 5587POPC   C1A70767  32.982  34.608   6.464
 5587POPC   D2A70768  32.999  34.580   6.764
 5587POPC   C3A70769  33.063  34.588   7.064
 5587POPC   C4A70770  33.041  34.555   7.364
 5587POPC   C1B70771  32.908  34.377   6.464
 5587POPC   C2B70772  32.962  34.329   6.764
 5587POPC   C3B70773  32.946  34.326   7.064
 5587POPC   C4B70774  32.935  34.344   7.364
 5588POPC   NC370775   8.951  36.149   5.564
 5588POPC   PO470776   8.943  36.080   5.864
 5588POPC   GL170777   8.945  36.097   6.164
 5588POPC   GL270778   9.051  36.046   6.164
 5588POPC   C1A70779   8.929  36.138   6.464
 5588POPC   D2A70780   8.976  36.145   6.764
 5588POPC   C3A70781   8.991  36.081   7.064
 5588POPC   C4A70782   9.004  36.141   7.364
 5588POPC   C1B70783   9.132  36.008   6.464
 5588POPC   C2B70784   9.205  35.979   6.764
 5588POPC   C3B70785   9.185  36.023   7.064
 5588POPC   C4B70786   9.189  35.959   7.364
 5589POPC   NC370787  29.950  26.841   5.564
 5589POPC   PO470788  29.942  26.781   5.864
 5589POPC   GL170789  29.959  26.817   6.164
 5589POPC   GL270790  29.845  26.948   6.164
 5589POPC   C1A70791  29.956  26.816   6.464
 5589POPC   D2A70792  29.934  26.830   6.764
 5589POPC   C3A70793  29.941  26.823   7.064
 5589POPC   C4A70794  29.925  26.790   7.364
 5589POPC   C1B70795  29.777  27.004   6.464
 5589POPC   C2B70796  29.767  27.052   6.764
 5589POPC   C3B70797  29.750  26.963   7.064
 5589POPC   C4B70798  29.726  27.052   7.364
 5590POPC   NC370799  16.774  37.659   5.564
 5590POPC   PO470800  16.762  37.709   5.864
 5590POPC   GL170801  16.773  37.705   6.164
 5590POPC   GL270802  16.724  37.520   6.164
 5590POPC   C1A70803  16.753  37.643   6.464
 5590POPC   D2A70804  16.759  37.648   6.764
 5590POPC   C3A70805  16.728  37.726   7.064
 5590POPC   C4A70806  16.737  37.649   7.364
 5590POPC   C1B70807  16.780  37.405   6.464
 5590POPC   C2B70808  16.783  37.471   6.764
 5590POPC   C3B70809  16.795  37.392   7.064
 5590POPC   C4B70810  16.738  37.435   7.364
 5591POPC   NC370811   1.940  35.335   5.564
 5591POPC   PO470812   1.978  35.304   5.864
 5591POPC   GL170813   2.014  35.330   6.164
 5591POPC   GL270814   2.135  35.372   6.164
 5591POPC   C1A70815   1.993  35.373   6.464
 5591POPC   D2A70816   1.977  35.319   6.764
 5591POPC   C3A70817   1.964  35.387   7.064
 5591POPC   C4A70818   2.004  35.373   7.364
 5591POPC   C1B70819   2.233  35.448   6.464
 5591POPC   C2B70820   2.193  35.394   6.764
 5591POPC   C3B70821   2.278  35.386   7.064
 5591POPC   C4B70822   2.229  35.378   7.364
 5592POPC   NC370823  36.150  40.051   5.564
 5592POPC   PO470824  36.135  39.977   5.864
 5592POPC   GL170825  36.147  39.962   6.164
 5592POPC   GL270826  35.961  39.987   6.164
 5592POPC   C1A70827  36.098  40.000   6.464
 5592POPC   D2A70828  36.095  39.999   6.764
 5592POPC   C3A70829  36.106  40.044   7.064
 5592POPC   C4A70830  36.175  40.023   7.364
 5592POPC   C1B70831  35.844  39.902   6.464
 5592POPC   C2B70832  35.900  39.964   6.764
 5592POPC   C3B70833  35.870  39.967   7.064
 5592POPC   C4B70834  35.877  39.912   7.364
 5593POPC   NC370835  15.152  35.330   5.564
 5593POPC   PO470836  15.139  35.398   5.864
 5593POPC   GL170837  15.200  35.304   6.164
 5593POPC   GL270838  15.329  35.286   6.164
 5593POPC   C1A70839  15.159  35.333   6.464
 5593POPC   D2A70840  15.171  35.321   6.764
 5593POPC   C3A70841  15.226  35.336   7.064
 5593POPC   C4A70842  15.228  35.346   7.364
 5593POPC   C1B70843  15.383  35.204   6.464
 5593POPC   C2B70844  15.414  35.238   6.764
 5593POPC   C3B70845  15.425  35.262   7.064
 5593POPC   C4B70846  15.437  35.270   7.364
 5594POPC   NC370847  27.556   5.117   5.564
 5594POPC   PO470848  27.581   5.046   5.864
 5594POPC   GL170849  27.610   5.083   6.164
 5594POPC   GL270850  27.475   5.133   6.164
 5594POPC   C1A70851  27.598   5.077   6.464
 5594POPC   D2A70852  27.562   5.134   6.764
 5594POPC   C3A70853  27.599   5.104   7.064
 5594POPC   C4A70854  27.622   5.121   7.364
 5594POPC   C1B70855  27.329   5.097   6.464
 5594POPC   C2B70856  27.303   5.100   6.764
 5594POPC   C3B70857  27.300   5.158   7.064
 5594POPC   C4B70858  27.382   5.179   7.364
 5595POPC   NC370859   8.999  39.207   5.564
 5595POPC   PO470860   9.001  39.199   5.864
 5595POPC   GL170861   9.001  39.229   6.164
 5595POPC   GL270862   9.001  39.131   6.164
 5595POPC   C1A70863   9.012  39.251   6.464
 5595POPC   D2A70864   8.964  39.210   6.764
 5595POPC   C3A70865   9.016  39.244   7.064
 5595POPC   C4A70866   8.944  39.251   7.364
 5595POPC   C1B70867   9.082  38.978   6.464
 5595POPC   C2B70868   9.106  39.023   6.764
 5595POPC   C3B70869   9.103  38.979   7.064
 5595POPC   C4B70870   9.075  38.996   7.364
 5596POPC   NC370871  33.840   4.365   5.564
 5596POPC   PO470872  33.750   4.294   5.864
 5596POPC   GL170873  33.835   4.332   6.164
 5596POPC   GL270874  33.765   4.476   6.164
 5596POPC   C1A70875  33.826   4.291   6.464
 5596POPC   D2A70876  33.814   4.293   6.764
 5596POPC   C3A70877  33.769   4.269   7.064
 5596POPC   C4A70878  33.816   4.316   7.364
 5596POPC   C1B70879  33.752   4.530   6.464
 5596POPC   C2B70880  33.686   4.556   6.764
 5596POPC   C3B70881  33.733   4.544   7.064
 5596POPC   C4B70882  33.778   4.598   7.364
 5597POPC   NC370883  22.193  37.655   5.564
 5597POPC   PO470884  22.187  37.642   5.864
 5597POPC   GL170885  22.197  37.665   6.164
 5597POPC   GL270886  22.084  37.601   6.164
 5597POPC   C1A70887  22.155  37.712   6.464
 5597POPC   D2A70888  22.207  37.658   6.764
 5597POPC   C3A70889  22.162  37.639   7.064
 5597POPC   C4A70890  22.188  37.675   7.364
 5597POPC   C1B70891  22.023  37.427   6.464
 5597POPC   C2B70892  22.105  37.439   6.764
 5597POPC   C3B70893  22.037  37.496   7.064
 5597POPC   C4B70894  22.040  37.482   7.364
 5598POPC   NC370895   3.556  12.823   5.564
 5598POPC   PO470896   3.518  12.841   5.864
 5598POPC   GL170897   3.496  12.813   6.164
 5598POPC   GL270898   3.468  12.957   6.164
 5598POPC   C1A70899   3.502  12.870   6.464
 5598POPC   D2A70900   3.550  12.819   6.764
 5598POPC   C3A70901   3.560  12.846   7.064
 5598POPC   C4A70902   3.561  12.887   7.364
 5598POPC   C1B70903   3.421  13.116   6.464
 5598POPC   C2B70904   3.423  13.105   6.764
 5598POPC   C3B70905   3.427  13.087   7.064
 5598POPC   C4B70906   3.432  13.128   7.364
 5599POPC   NC370907  32.298  24.460   5.564
 5599POPC   PO470908  32.219  24.505   5.864
 5599POPC   GL170909  32.298  24.526   6.164
 5599POPC   GL270910  32.212  24.546   6.164
 5599POPC   C1A70911  32.200  24.532   6.464
 5599POPC   D2A70912  32.217  24.499   6.764
 5599POPC   C3A70913  32.265  24.512   7.064
 5599POPC   C4A70914  32.268  24.462   7.364
 5599POPC   C1B70915  32.083  24.665   6.464
 5599POPC   C2B70916  32.074  24.658   6.764
 5599POPC   C3B70917  32.088  24.672   7.064
 5599POPC   C4B70918  32.082  24.682   7.364
 5600POPC   NC370919  22.114  36.936   5.564
 5600POPC   PO470920  22.152  36.946   5.864
 5600POPC   GL170921  22.120  36.869   6.164
 5600POPC   GL270922  22.190  36.843   6.164
 5600POPC   C1A70923  22.143  36.933   6.464
 5600POPC   D2A70924  22.170  36.943   6.764
 5600POPC   C3A70925  22.174  36.915   7.064
 5600POPC   C4A70926  22.212  36.950   7.364
 5600POPC   C1B70927  22.297  36.654   6.464
 5600POPC   C2B70928  22.291  36.665   6.764
 5600POPC   C3B70929  22.305  36.741   7.064
 5600POPC   C4B70930  22.338  36.736   7.364
 5601POPC   NC370931  29.099  40.804   5.564
 5601POPC   PO470932  29.118  40.734   5.864
 5601POPC   GL170933  29.149  40.815   6.164
 5601POPC   GL270934  28.973  40.803   6.164
 5601POPC   C1A70935  29.114  40.783   6.464
 5601POPC   D2A70936  29.128  40.812   6.764
 5601POPC   C3A70937  29.177  40.752   7.064
 5601POPC   C4A70938  29.158  40.831   7.364
 5601POPC   C1B70939  28.916  40.876   6.464
 5601POPC   C2B70940  28.883  40.795   6.764
 5601POPC   C3B70941  28.850  40.817   7.064
 5601POPC   C4B70942  28.851  40.780   7.364
 5602POPC   NC370943  24.452   7.388   5.564
 5602POPC   PO470944  24.498   7.429   5.864
 5602POPC   GL170945  24.483   7.418   6.164
 5602POPC   GL270946  24.612   7.446   6.164
 5602POPC   C1A70947  24.451   7.421   6.464
 5602POPC   D2A70948  24.440   7.464   6.764
 5602POPC   C3A70949  24.470   7.396   7.064
 5602POPC   C4A70950  24.449   7.372   7.364
 5602POPC   C1B70951  24.732   7.594   6.464
 5602POPC   C2B70952  24.658   7.573   6.764
 5602POPC   C3B70953  24.700   7.560   7.064
 5602POPC   C4B70954  24.696   7.593   7.364
 5603POPC   NC370955  13.628  36.944   5.564
 5603POPC   PO470956  13.624  36.917   5.864
 5603POPC   GL170957  13.663  36.951   6.164
 5603POPC   GL270958  13.488  36.864   6.164
 5603POPC   C1A70959  13.662  36.944   6.464
 5603POPC   D2A70960  13.603  36.901   6.764
 5603POPC   C3A70961  13.659  36.868   7.064
 5603POPC   C4A70962  13.583  36.927   7.364
 5603POPC   C1B70963  13.451  36.816   6.464
 5603POPC   C2B70964  13.362  36.805   6.764
 5603POPC   C3B70965  13.399  36.840   7.064
 5603POPC   C4B70966  13.388  36.769   7.364
 5604POPC   NC370967  29.096  21.400   5.564
 5604POPC   PO470968  29.183  21.338   5.864
 5604POPC   GL170969  29.163  21.412   6.164
 5604POPC   GL270970  29.167  21.517   6.164
 5604POPC   C1A70971  29.132  21.368   6.464
 5604POPC   D2A70972  29.102  21.336   6.764
 5604POPC   C3A70973  29.149  21.381   7.064
 5604POPC   C4A70974  29.105  21.354   7.364
 5604POPC   C1B70975  29.291  21.596   6.464
 5604POPC   C2B70976  29.237  21.579   6.764
 5604POPC   C3B70977  29.234  21.636   7.064
 5604POPC   C4B70978  29.226  21.637   7.364
 5605POPC   NC370979  43.881   7.460   5.564
 5605POPC   PO470980  43.909   7.430   5.864
 5605POPC   GL170981  43.903   7.466   6.164
 5605POPC   GL270982  43.964   7.418   6.164
 5605POPC   C1A70983  43.904   7.454   6.464
 5605POPC   D2A70984  43.851   7.470   6.764
 5605POPC   C3A70985  43.935   7.388   7.064
 5605POPC   C4A70986  43.906   7.432   7.364
 5605POPC   C1B70987  44.124   7.440   6.464
 5605POPC   C2B70988  44.173   7.384   6.764
 5605POPC   C3B70989  44.096   7.359   7.064
 5605POPC   C4B70990  44.169   7.426   7.364
 5606POPC   NC370991  26.862  36.907   5.564
 5606POPC   PO470992  26.838  36.865   5.864
 5606POPC   GL170993  26.829  36.869   6.164
 5606POPC   GL270994  26.729  36.868   6.164
 5606POPC   C1A70995  26.786  36.885   6.464
 5606POPC   D2A70996  26.782  36.895   6.764
 5606POPC   C3A70997  26.830  36.952   7.064
 5606POPC   C4A70998  26.836  36.947   7.364
 5606POPC   C1B70999  26.521  36.876   6.464
 5606POPC   C2B71000  26.531  36.883   6.764
 5606POPC   C3B71001  26.581  36.884   7.064
 5606POPC   C4B71002  26.548  36.890   7.364
 5607POPC   NC371003  19.805   9.745   5.564
 5607POPC   PO471004  19.838   9.757   5.864
 5607POPC   GL171005  19.840   9.711   6.164
 5607POPC   GL271006  19.969   9.785   6.164
 5607POPC   C1A71007  19.868   9.774   6.464
 5607POPC   D2A71008  19.790   9.737   6.764
 5607POPC   C3A71009  19.815   9.755   7.064
 5607POPC   C4A71010  19.850   9.778   7.364
 5607POPC   C1B71011  20.077   9.746   6.464
 5607POPC   C2B71012  20.067   9.773   6.764
 5607POPC   C3B71013  20.071   9.755   7.064
 5607POPC   C4B71014  20.119   9.818   7.364
 5608POPC   NC371015  42.355  33.815   5.564
 5608POPC   PO471016  42.366  33.827   5.864
 5608POPC   GL171017  42.293  33.800   6.164
 5608POPC   GL271018  42.478  33.793   6.164
 5608POPC   C1A71019  42.307  33.829   6.464
 5608POPC   D2A71020  42.286  33.764   6.764
 5608POPC   C3A71021  42.354  33.759   7.064
 5608POPC   C4A71022  42.288  33.814   7.364
 5608POPC   C1B71023  42.582  33.768   6.464
 5608POPC   C2B71024  42.574  33.781   6.764
 5608POPC   C3B71025  42.559  33.741   7.064
 5608POPC   C4B71026  42.570  33.822   7.364
 5609POPC   NC371027   8.189  25.243   5.564
 5609POPC   PO471028   8.196  25.304   5.864
 5609POPC   GL171029   8.189  25.229   6.164
 5609POPC   GL271030   8.301  25.266   6.164
 5609POPC   C1A71031   8.223  25.284   6.464
 5609POPC   D2A71032   8.221  25.233   6.764
 5609POPC   C3A71033   8.210  25.251   7.064
 5609POPC   C4A71034   8.174  25.224   7.364
 5609POPC   C1B71035   8.461  25.290   6.464
 5609POPC   C2B71036   8.413  25.286   6.764
 5609POPC   C3B71037   8.458  25.262   7.064
 5609POPC   C4B71038   8.480  25.242   7.364
 5610POPC   NC371039  18.245  26.800   5.564
 5610POPC   PO471040  18.316  26.856   5.864
 5610POPC   GL171041  18.303  26.783   6.164
 5610POPC   GL271042  18.196  26.776   6.164
 5610POPC   C1A71043  18.249  26.839   6.464
 5610POPC   D2A71044  18.294  26.850   6.764
 5610POPC   C3A71045  18.311  26.833   7.064
 5610POPC   C4A71046  18.322  26.781   7.364
 5610POPC   C1B71047  18.008  26.732   6.464
 5610POPC   C2B71048  18.071  26.725   6.764
 5610POPC   C3B71049  18.027  26.755   7.064
 5610POPC   C4B71050  17.990  26.730   7.364
 5611POPC   NC371051  27.548  38.452   5.564
 5611POPC   PO471052  27.635  38.437   5.864
 5611POPC   GL171053  27.622  38.440   6.164
 5611POPC   GL271054  27.627  38.574   6.164
 5611POPC   C1A71055  27.577  38.484   6.464
 5611POPC   D2A71056  27.607  38.491   6.764
 5611POPC   C3A71057  27.609  38.480   7.064
 5611POPC   C4A71058  27.548  38.443   7.364
 5611POPC   C1B71059  27.777  38.631   6.464
 5611POPC   C2B71060  27.710  38.634   6.764
 5611POPC   C3B71061  27.759  38.637   7.064
 5611POPC   C4B71062  27.768  38.648   7.364
 5612POPC   NC371063  28.352  22.176   5.564
 5612POPC   PO471064  28.372  22.179   5.864
 5612POPC   GL171065  28.365  22.168   6.164
 5612POPC   GL271066  28.343  22.087   6.164
 5612POPC   C1A71067  28.365  22.133   6.464
 5612POPC   D2A71068  28.359  22.211   6.764
 5612POPC   C3A71069  28.326  22.132   7.064
 5612POPC   C4A71070  28.348  22.149   7.364
 5612POPC   C1B71071  28.213  21.932   6.464
 5612POPC   C2B71072  28.244  21.923   6.764
 5612POPC   C3B71073  28.280  21.965   7.064
 5612POPC   C4B71074  28.226  21.961   7.364
 5613POPC   NC371075  32.996  14.355   5.564
 5613POPC   PO471076  33.037  14.399   5.864
 5613POPC   GL171077  32.979  14.420   6.164
 5613POPC   GL271078  32.990  14.488   6.164
 5613POPC   C1A71079  33.057  14.375   6.464
 5613POPC   D2A71080  33.016  14.409   6.764
 5613POPC   C3A71081  33.042  14.445   7.064
 5613POPC   C4A71082  33.039  14.394   7.364
 5613POPC   C1B71083  32.953  14.644   6.464
 5613POPC   C2B71084  32.966  14.680   6.764
 5613POPC   C3B71085  33.030  14.629   7.064
 5613POPC   C4B71086  32.956  14.647   7.364
 5614POPC   NC371087  22.971  32.203   5.564
 5614POPC   PO471088  22.929  32.232   5.864
 5614POPC   GL171089  22.925  32.212   6.164
 5614POPC   GL271090  23.028  32.271   6.164
 5614POPC   C1A71091  22.913  32.208   6.464
 5614POPC   D2A71092  22.903  32.230   6.764
 5614POPC   C3A71093  22.894  32.222   7.064
 5614POPC   C4A71094  22.921  32.292   7.364
 5614POPC   C1B71095  23.130  32.321   6.464
 5614POPC   C2B71096  23.205  32.400   6.764
 5614POPC   C3B71097  23.184  32.335   7.064
 5614POPC   C4B71098  23.208  32.362   7.364
 5615POPC   NC371099  33.072   7.457   5.564
 5615POPC   PO471100  33.009   7.450   5.864
 5615POPC   GL171101  33.051   7.430   6.164
 5615POPC   GL271102  32.912   7.418   6.164
 5615POPC   C1A71103  32.993   7.464   6.464
 5615POPC   D2A71104  32.997   7.432   6.764
 5615POPC   C3A71105  32.998   7.397   7.064
 5615POPC   C4A71106  33.002   7.427   7.364
 5615POPC   C1B71107  32.811   7.390   6.464
 5615POPC   C2B71108  32.788   7.329   6.764
 5615POPC   C3B71109  32.827   7.371   7.064
 5615POPC   C4B71110  32.823   7.385   7.364
 5616POPC   NC371111  44.661  24.516   5.564
 5616POPC   PO471112  44.623  24.511   5.864
 5616POPC   GL171113  44.702  24.482   6.164
 5616POPC   GL271114  44.502  24.469   6.164
 5616POPC   C1A71115  44.703  24.497   6.464
 5616POPC   D2A71116  44.676  24.538   6.764
 5616POPC   C3A71117  44.651  24.519   7.064
 5616POPC   C4A71118  44.657  24.514   7.364
 5616POPC   C1B71119  44.430  24.433   6.464
 5616POPC   C2B71120  44.468  24.419   6.764
 5616POPC   C3B71121  44.448  24.473   7.064
 5616POPC   C4B71122  44.379  24.407   7.364
 5617POPC   NC371123   2.746  13.597   5.564
 5617POPC   PO471124   2.796  13.583   5.864
 5617POPC   GL171125   2.771  13.613   6.164
 5617POPC   GL271126   2.816  13.777   6.164
 5617POPC   C1A71127   2.727  13.637   6.464
 5617POPC   D2A71128   2.716  13.605   6.764
 5617POPC   C3A71129   2.757  13.641   7.064
 5617POPC   C4A71130   2.797  13.616   7.364
 5617POPC   C1B71131   2.766  13.896   6.464
 5617POPC   C2B71132   2.808  13.845   6.764
 5617POPC   C3B71133   2.794  13.916   7.064
 5617POPC   C4B71134   2.828  13.849   7.364
 5618POPC   NC371135  31.428  43.119   5.564
 5618POPC   PO471136  31.447  43.116   5.864
 5618POPC   GL171137  31.458  43.123   6.164
 5618POPC   GL271138  31.609  43.093   6.164
 5618POPC   C1A71139  31.501  43.073   6.464
 5618POPC   D2A71140  31.470  43.076   6.764
 5618POPC   C3A71141  31.455  43.134   7.064
 5618POPC   C4A71142  31.428  43.122   7.364
 5618POPC   C1B71143  31.746  43.105   6.464
 5618POPC   C2B71144  31.696  43.131   6.764
 5618POPC   C3B71145  31.732  43.142   7.064
 5618POPC   C4B71146  31.751  43.122   7.364
 5619POPC   NC371147  29.129  19.051   5.564
 5619POPC   PO471148  29.149  19.088   5.864
 5619POPC   GL171149  29.107  19.016   6.164
 5619POPC   GL271150  29.016  19.057   6.164
 5619POPC   C1A71151  29.174  19.080   6.464
 5619POPC   D2A71152  29.148  19.011   6.764
 5619POPC   C3A71153  29.097  19.089   7.064
 5619POPC   C4A71154  29.138  19.053   7.364
 5619POPC   C1B71155  28.955  18.954   6.464
 5619POPC   C2B71156  28.893  18.960   6.764
 5619POPC   C3B71157  28.899  18.935   7.064
 5619POPC   C4B71158  28.938  18.972   7.364
 5620POPC   NC371159  26.082  33.775   5.564
 5620POPC   PO471160  26.023  33.794   5.864
 5620POPC   GL171161  26.075  33.803   6.164
 5620POPC   GL271162  25.921  33.815   6.164
 5620POPC   C1A71163  26.064  33.769   6.464
 5620POPC   D2A71164  26.087  33.798   6.764
 5620POPC   C3A71165  26.042  33.847   7.064
 5620POPC   C4A71166  26.089  33.811   7.364
 5620POPC   C1B71167  25.832  33.884   6.464
 5620POPC   C2B71168  25.772  33.859   6.764
 5620POPC   C3B71169  25.783  33.909   7.064
 5620POPC   C4B71170  25.806  33.915   7.364
 5621POPC   NC371171   0.415  15.166   5.564
 5621POPC   PO471172   0.410  15.222   5.864
 5621POPC   GL171173   0.411  15.198   6.164
 5621POPC   GL271174   0.589  15.084   6.164
 5621POPC   C1A71175   0.461  15.173   6.464
 5621POPC   D2A71176   0.418  15.142   6.764
 5621POPC   C3A71177   0.428  15.174   7.064
 5621POPC   C4A71178   0.466  15.134   7.364
 5621POPC   C1B71179   0.674  15.043   6.464
 5621POPC   C2B71180   0.675  15.071   6.764
 5621POPC   C3B71181   0.678  15.052   7.064
 5621POPC   C4B71182   0.659  15.096   7.364
 5622POPC   NC371183  11.308  29.951   5.564
 5622POPC   PO471184  11.273  29.922   5.864
 5622POPC   GL171185  11.252  29.968   6.164
 5622POPC   GL271186  11.199  29.922   6.164
 5622POPC   C1A71187  11.268  29.959   6.464
 5622POPC   D2A71188  11.293  29.957   6.764
 5622POPC   C3A71189  11.251  29.939   7.064
 5622POPC   C4A71190  11.315  29.917   7.364
 5622POPC   C1B71191  11.027  29.865   6.464
 5622POPC   C2B71192  11.024  29.907   6.764
 5622POPC   C3B71193  11.014  29.931   7.064
 5622POPC   C4B71194  11.083  29.848   7.364
 5623POPC   NC371195  12.118  42.304   5.564
 5623POPC   PO471196  12.032  42.340   5.864
 5623POPC   GL171197  12.116  42.349   6.164
 5623POPC   GL271198  12.167  42.433   6.164
 5623POPC   C1A71199  12.053  42.368   6.464
 5623POPC   D2A71200  12.098  42.288   6.764
 5623POPC   C3A71201  12.114  42.331   7.064
 5623POPC   C4A71202  12.088  42.366   7.364
 5623POPC   C1B71203  12.193  42.503   6.464
 5623POPC   C2B71204  12.235  42.516   6.764
 5623POPC   C3B71205  12.252  42.502   7.064
 5623POPC   C4B71206  12.230  42.503   7.364
 5624POPC   NC371207   6.612  40.763   5.564
 5624POPC   PO471208   6.625  40.793   5.864
 5624POPC   GL171209   6.671  40.793   6.164
 5624POPC   GL271210   6.758  40.773   6.164
 5624POPC   C1A71211   6.616  40.832   6.464
 5624POPC   D2A71212   6.637  40.767   6.764
 5624POPC   C3A71213   6.651  40.739   7.064
 5624POPC   C4A71214   6.644  40.823   7.364
 5624POPC   C1B71215   6.881  40.855   6.464
 5624POPC   C2B71216   6.900  40.809   6.764
 5624POPC   C3B71217   6.865  40.787   7.064
 5624POPC   C4B71218   6.872  40.861   7.364
 5625POPC   NC371219  39.977  22.127   5.564
 5625POPC   PO471220  40.054  22.202   5.864
 5625POPC   GL171221  40.029  22.114   6.164
 5625POPC   GL271222  39.919  22.040   6.164
 5625POPC   C1A71223  39.962  22.203   6.464
 5625POPC   D2A71224  40.056  22.137   6.764
 5625POPC   C3A71225  39.983  22.150   7.064
 5625POPC   C4A71226  40.002  22.200   7.364
 5625POPC   C1B71227  39.809  21.940   6.464
 5625POPC   C2B71228  39.803  21.996   6.764
 5625POPC   C3B71229  39.860  21.996   7.064
 5625POPC   C4B71230  39.883  22.004   7.364
 5626POPC   NC371231  21.424  30.714   5.564
 5626POPC   PO471232  21.432  30.668   5.864
 5626POPC   GL171233  21.385  30.702   6.164
 5626POPC   GL271234  21.523  30.766   6.164
 5626POPC   C1A71235  21.363  30.703   6.464
 5626POPC   D2A71236  21.375  30.735   6.764
 5626POPC   C3A71237  21.419  30.665   7.064
 5626POPC   C4A71238  21.376  30.720   7.364
 5626POPC   C1B71239  21.594  30.745   6.464
 5626POPC   C2B71240  21.649  30.741   6.764
 5626POPC   C3B71241  21.574  30.814   7.064
 5626POPC   C4B71242  21.620  30.817   7.364
 5627POPC   NC371243  33.049  31.506   5.564
 5627POPC   PO471244  33.001  31.443   5.864
 5627POPC   GL171245  33.043  31.447   6.164
 5627POPC   GL271246  32.905  31.493   6.164
 5627POPC   C1A71247  32.982  31.463   6.464
 5627POPC   D2A71248  33.037  31.424   6.764
 5627POPC   C3A71249  33.049  31.521   7.064
 5627POPC   C4A71250  32.979  31.456   7.364
 5627POPC   C1B71251  32.816  31.557   6.464
 5627POPC   C2B71252  32.734  31.550   6.764
 5627POPC   C3B71253  32.769  31.494   7.064
 5627POPC   C4B71254  32.796  31.532   7.364
 5628POPC   NC371255  22.925  25.255   5.564
 5628POPC   PO471256  22.951  25.251   5.864
 5628POPC   GL171257  22.980  25.287   6.164
 5628POPC   GL271258  23.031  25.257   6.164
 5628POPC   C1A71259  22.923  25.288   6.464
 5628POPC   D2A71260  22.936  25.285   6.764
 5628POPC   C3A71261  22.954  25.221   7.064
 5628POPC   C4A71262  22.943  25.314   7.364
 5628POPC   C1B71263  23.224  25.216   6.464
 5628POPC   C2B71264  23.180  25.203   6.764
 5628POPC   C3B71265  23.233  25.228   7.064
 5628POPC   C4B71266  23.219  25.196   7.364
 5629POPC   NC371267  43.923  33.034   5.564
 5629POPC   PO471268  43.903  32.993   5.864
 5629POPC   GL171269  43.935  33.019   6.164
 5629POPC   GL271270  43.779  33.012   6.164
 5629POPC   C1A71271  43.926  33.012   6.464
 5629POPC   D2A71272  43.865  33.046   6.764
 5629POPC   C3A71273  43.935  32.991   7.064
 5629POPC   C4A71274  43.907  33.047   7.364
 5629POPC   C1B71275  43.654  32.967   6.464
 5629POPC   C2B71276  43.612  32.903   6.764
 5629POPC   C3B71277  43.621  32.899   7.064
 5629POPC   C4B71278  43.665  32.939   7.364
 5630POPC   NC371279  12.869  44.653   5.564
 5630POPC   PO471280  12.808  44.628   5.864
 5630POPC   GL171281  12.865  44.691   6.164
 5630POPC   GL271282  12.856  44.496   6.164
 5630POPC   C1A71283  12.876  44.630   6.464
 5630POPC   D2A71284  12.849  44.677   6.764
 5630POPC   C3A71285  12.845  44.670   7.064
 5630POPC   C4A71286  12.825  44.621   7.364
 5630POPC   C1B71287  12.899  44.471   6.464
 5630POPC   C2B71288  12.886  44.467   6.764
 5630POPC   C3B71289  12.948  44.463   7.064
 5630POPC   C4B71290  12.925  44.383   7.364
 5631POPC   NC371291  42.292  20.588   5.564
 5631POPC   PO471292  42.330  20.637   5.864
 5631POPC   GL171293  42.366  20.570   6.164
 5631POPC   GL271294  42.427  20.522   6.164
 5631POPC   C1A71295  42.335  20.619   6.464
 5631POPC   D2A71296  42.341  20.577   6.764
 5631POPC   C3A71297  42.367  20.599   7.064
 5631POPC   C4A71298  42.314  20.593   7.364
 5631POPC   C1B71299  42.523  20.412   6.464
 5631POPC   C2B71300  42.503  20.434   6.764
 5631POPC   C3B71301  42.569  20.471   7.064
 5631POPC   C4B71302  42.521  20.474   7.364
 5632POPC   NC371303  19.095  40.021   5.564
 5632POPC   PO471304  19.030  39.987   5.864
 5632POPC   GL171305  19.040  40.030   6.164
 5632POPC   GL271306  18.989  40.016   6.164
 5632POPC   C1A71307  19.083  39.998   6.464
 5632POPC   D2A71308  19.060  40.011   6.764
 5632POPC   C3A71309  19.080  40.039   7.064
 5632POPC   C4A71310  19.038  39.981   7.364
 5632POPC   C1B71311  18.784  40.046   6.464
 5632POPC   C2B71312  18.807  40.091   6.764
 5632POPC   C3B71313  18.805  40.045   7.064
 5632POPC   C4B71314  18.856  40.076   7.364
 5633POPC   NC371315  29.142   5.140   5.564
 5633POPC   PO471316  29.110   5.078   5.864
 5633POPC   GL171317  29.188   5.083   6.164
 5633POPC   GL271318  29.162   4.943   6.164
 5633POPC   C1A71319  29.165   5.081   6.464
 5633POPC   D2A71320  29.119   5.072   6.764
 5633POPC   C3A71321  29.168   5.124   7.064
 5633POPC   C4A71322  29.139   5.060   7.364
 5633POPC   C1B71323  29.244   4.826   6.464
 5633POPC   C2B71324  29.262   4.819   6.764
 5633POPC   C3B71325  29.241   4.842   7.064
 5633POPC   C4B71326  29.258   4.854   7.364
 5634POPC   NC371327  12.045  34.574   5.564
 5634POPC   PO471328  12.068  34.582   5.864
 5634POPC   GL171329  12.040  34.566   6.164
 5634POPC   GL271330  12.055  34.494   6.164
 5634POPC   C1A71331  12.074  34.586   6.464
 5634POPC   D2A71332  12.078  34.560   6.764
 5634POPC   C3A71333  12.029  34.615   7.064
 5634POPC   C4A71334  12.027  34.575   7.364
 5634POPC   C1B71335  12.049  34.360   6.464
 5634POPC   C2B71336  12.108  34.358   6.764
 5634POPC   C3B71337  12.107  34.347   7.064
 5634POPC   C4B71338  12.069  34.318   7.364
 5635POPC   NC371339   9.713  22.183   5.564
 5635POPC   PO471340   9.790  22.211   5.864
 5635POPC   GL171341   9.728  22.201   6.164
 5635POPC   GL271342   9.901  22.228   6.164
 5635POPC   C1A71343   9.755  22.166   6.464
 5635POPC   D2A71344   9.707  22.129   6.764
 5635POPC   C3A71345   9.713  22.161   7.064
 5635POPC   C4A71346   9.703  22.135   7.364
 5635POPC   C1B71347   9.962  22.328   6.464
 5635POPC   C2B71348   9.912  22.345   6.764
 5635POPC   C3B71349   9.989  22.320   7.064
 5635POPC   C4B71350   9.931  22.296   7.364
 5636POPC   NC371351  44.662   5.077   5.564
 5636POPC   PO471352  44.621   5.071   5.864
 5636POPC   GL171353  44.644   5.113   6.164
 5636POPC   GL271354  44.543   5.133   6.164
 5636POPC   C1A71355  44.657   5.071   6.464
 5636POPC   D2A71356  44.675   5.058   6.764
 5636POPC   C3A71357  44.703   5.131   7.064
 5636POPC   C4A71358  44.662   5.067   7.364
 5636POPC   C1B71359  44.515   5.201   6.464
 5636POPC   C2B71360  44.493   5.289   6.764
 5636POPC   C3B71361  44.470   5.213   7.064
 5636POPC   C4B71362  44.428   5.296   7.364
 5637POPC   NC371363  13.595  12.032   5.564
 5637POPC   PO471364  13.597  12.083   5.864
 5637POPC   GL171365  13.634  12.042   6.164
 5637POPC   GL271366  13.625  12.177   6.164
 5637POPC   C1A71367  13.666  12.065   6.464
 5637POPC   D2A71368  13.640  12.111   6.764
 5637POPC   C3A71369  13.634  12.075   7.064
 5637POPC   C4A71370  13.611  12.034   7.364
 5637POPC   C1B71371  13.605  12.291   6.464
 5637POPC   C2B71372  13.605  12.365   6.764
 5637POPC   C3B71373  13.605  12.333   7.064
 5637POPC   C4B71374  13.540  12.360   7.364
 5638POPC   NC371375  17.467   9.781   5.564
 5638POPC   PO471376  17.498   9.764   5.864
 5638POPC   GL171377  17.517   9.700   6.164
 5638POPC   GL271378  17.530   9.905   6.164
 5638POPC   C1A71379  17.519   9.729   6.464
 5638POPC   D2A71380  17.528   9.763   6.764
 5638POPC   C3A71381  17.554   9.723   7.064
 5638POPC   C4A71382  17.549   9.750   7.364
 5638POPC   C1B71383  17.618   9.980   6.464
 5638POPC   C2B71384  17.638   9.983   6.764
 5638POPC   C3B71385  17.621   9.966   7.064
 5638POPC   C4B71386  17.545  10.010   7.364
 5639POPC   NC371387  14.383   5.094   5.564
 5639POPC   PO471388  14.404   5.129   5.864
 5639POPC   GL171389  14.375   5.090   6.164
 5639POPC   GL271390  14.533   5.152   6.164
 5639POPC   C1A71391  14.366   5.065   6.464
 5639POPC   D2A71392  14.410   5.105   6.764
 5639POPC   C3A71393  14.434   5.084   7.064
 5639POPC   C4A71394  14.400   5.056   7.364
 5639POPC   C1B71395  14.621   5.227   6.464
 5639POPC   C2B71396  14.615   5.157   6.764
 5639POPC   C3B71397  14.654   5.233   7.064
 5639POPC   C4B71398  14.595   5.170   7.364
 5640POPC   NC371399  11.327  38.493   5.564
 5640POPC   PO471400  11.321  38.493   5.864
 5640POPC   GL171401  11.312  38.442   6.164
 5640POPC   GL271402  11.215  38.419   6.164
 5640POPC   C1A71403  11.293  38.471   6.464
 5640POPC   D2A71404  11.276  38.470   6.764
 5640POPC   C3A71405  11.329  38.429   7.064
 5640POPC   C4A71406  11.286  38.466   7.364
 5640POPC   C1B71407  11.043  38.369   6.464
 5640POPC   C2B71408  11.094  38.458   6.764
 5640POPC   C3B71409  11.011  38.453   7.064
 5640POPC   C4B71410  11.103  38.453   7.364
 5641POPC   NC371411  38.414  15.927   5.564
 5641POPC   PO471412  38.448  15.910   5.864
 5641POPC   GL171413  38.454  15.993   6.164
 5641POPC   GL271414  38.584  15.997   6.164
 5641POPC   C1A71415  38.415  15.954   6.464
 5641POPC   D2A71416  38.493  15.978   6.764
 5641POPC   C3A71417  38.459  15.951   7.064
 5641POPC   C4A71418  38.406  15.975   7.364
 5641POPC   C1B71419  38.677  16.069   6.464
 5641POPC   C2B71420  38.696  16.049   6.764
 5641POPC   C3B71421  38.633  16.057   7.064
 5641POPC   C4B71422  38.689  16.123   7.364
 5642POPC   NC371423  22.207  22.177   5.564
 5642POPC   PO471424  22.141  22.119   5.864
 5642POPC   GL171425  22.193  22.168   6.164
 5642POPC   GL271426  22.115  22.103   6.164
 5642POPC   C1A71427  22.124  22.158   6.464
 5642POPC   D2A71428  22.178  22.173   6.764
 5642POPC   C3A71429  22.167  22.196   7.064
 5642POPC   C4A71430  22.208  22.122   7.364
 5642POPC   C1B71431  21.935  22.004   6.464
 5642POPC   C2B71432  21.991  21.966   6.764
 5642POPC   C3B71433  21.947  21.961   7.064
 5642POPC   C4B71434  22.006  21.970   7.364
 5643POPC   NC371435  25.222  29.956   5.564
 5643POPC   PO471436  25.264  29.922   5.864
 5643POPC   GL171437  25.309  29.968   6.164
 5643POPC   GL271438  25.354  29.841   6.164
 5643POPC   C1A71439  25.292  29.932   6.464
 5643POPC   D2A71440  25.273  29.957   6.764
 5643POPC   C3A71441  25.308  29.921   7.064
 5643POPC   C4A71442  25.296  29.872   7.364
 5643POPC   C1B71443  25.507  29.779   6.464
 5643POPC   C2B71444  25.432  29.759   6.764
 5643POPC   C3B71445  25.461  29.771   7.064
 5643POPC   C4B71446  25.528  29.834   7.364
 5644POPC   NC371447  33.790  15.979   5.564
 5644POPC   PO471448  33.847  15.932   5.864
 5644POPC   GL171449  33.771  16.003   6.164
 5644POPC   GL271450  33.799  16.129   6.164
 5644POPC   C1A71451  33.752  15.975   6.464
 5644POPC   D2A71452  33.777  15.941   6.764
 5644POPC   C3A71453  33.791  15.989   7.064
 5644POPC   C4A71454  33.841  15.978   7.364
 5644POPC   C1B71455  33.841  16.201   6.464
 5644POPC   C2B71456  33.829  16.179   6.764
 5644POPC   C3B71457  33.837  16.218   7.064
 5644POPC   C4B71458  33.831  16.160   7.364
 5645POPC   NC371459  43.141  24.515   5.564
 5645POPC   PO471460  43.122  24.464   5.864
 5645POPC   GL171461  43.135  24.459   6.164
 5645POPC   GL271462  43.052  24.386   6.164
 5645POPC   C1A71463  43.100  24.462   6.464
 5645POPC   D2A71464  43.084  24.532   6.764
 5645POPC   C3A71465  43.142  24.462   7.064
 5645POPC   C4A71466  43.138  24.452   7.364
 5645POPC   C1B71467  42.986  24.326   6.464
 5645POPC   C2B71468  42.911  24.291   6.764
 5645POPC   C3B71469  42.953  24.252   7.064
 5645POPC   C4B71470  42.938  24.271   7.364
 5646POPC   NC371471  22.952   4.330   5.564
 5646POPC   PO471472  22.899   4.325   5.864
 5646POPC   GL171473  22.967   4.299   6.164
 5646POPC   GL271474  23.037   4.217   6.164
 5646POPC   C1A71475  22.925   4.293   6.464
 5646POPC   D2A71476  22.894   4.324   6.764
 5646POPC   C3A71477  22.922   4.289   7.064
 5646POPC   C4A71478  22.928   4.289   7.364
 5646POPC   C1B71479  23.112   4.167   6.464
 5646POPC   C2B71480  23.164   4.201   6.764
 5646POPC   C3B71481  23.119   4.156   7.064
 5646POPC   C4B71482  23.145   4.164   7.364
 5647POPC   NC371483  15.970  40.056   5.564
 5647POPC   PO471484  15.988  40.047   5.864
 5647POPC   GL171485  15.920  39.988   6.164
 5647POPC   GL271486  15.908  39.837   6.164
 5647POPC   C1A71487  15.983  39.958   6.464
 5647POPC   D2A71488  15.953  39.988   6.764
 5647POPC   C3A71489  15.954  39.971   7.064
 5647POPC   C4A71490  15.950  39.979   7.364
 5647POPC   C1B71491  15.940  39.765   6.464
 5647POPC   C2B71492  15.927  39.796   6.764
 5647POPC   C3B71493  15.902  39.740   7.064
 5647POPC   C4B71494  15.903  39.736   7.364
 5648POPC   NC371495  29.102  43.894   5.564
 5648POPC   PO471496  29.131  43.854   5.864
 5648POPC   GL171497  29.145  43.871   6.164
 5648POPC   GL271498  29.189  44.041   6.164
 5648POPC   C1A71499  29.160  43.881   6.464
 5648POPC   D2A71500  29.134  43.917   6.764
 5648POPC   C3A71501  29.142  43.882   7.064
 5648POPC   C4A71502  29.108  43.905   7.364
 5648POPC   C1B71503  29.202  44.093   6.464
 5648POPC   C2B71504  29.235  44.104   6.764
 5648POPC   C3B71505  29.154  44.093   7.064
 5648POPC   C4B71506  29.187  44.157   7.364
 5649POPC   NC371507  31.457  36.917   5.564
 5649POPC   PO471508  31.443  36.932   5.864
 5649POPC   GL171509  31.481  36.922   6.164
 5649POPC   GL271510  31.396  36.811   6.164
 5649POPC   C1A71511  31.499  36.945   6.464
 5649POPC   D2A71512  31.457  36.901   6.764
 5649POPC   C3A71513  31.459  36.903   7.064
 5649POPC   C4A71514  31.429  36.883   7.364
 5649POPC   C1B71515  31.300  36.754   6.464
 5649POPC   C2B71516  31.334  36.665   6.764
 5649POPC   C3B71517  31.303  36.716   7.064
 5649POPC   C4B71518  31.281  36.703   7.364
 5650POPC   NC371519  18.331  25.262   5.564
 5650POPC   PO471520  18.273  25.306   5.864
 5650POPC   GL171521  18.256  25.222   6.164
 5650POPC   GL271522  18.284  25.192   6.164
 5650POPC   C1A71523  18.314  25.219   6.464
 5650POPC   D2A71524  18.245  25.229   6.764
 5650POPC   C3A71525  18.273  25.313   7.064
 5650POPC   C4A71526  18.310  25.260   7.364
 5650POPC   C1B71527  18.244  25.071   6.464
 5650POPC   C2B71528  18.200  25.017   6.764
 5650POPC   C3B71529  18.256  24.995   7.064
 5650POPC   C4B71530  18.258  25.039   7.364
 5651POPC   NC371531  15.995  17.492   5.564
 5651POPC   PO471532  15.978  17.532   5.864
 5651POPC   GL171533  15.971  17.510   6.164
 5651POPC   GL271534  16.063  17.540   6.164
 5651POPC   C1A71535  15.987  17.549   6.464
 5651POPC   D2A71536  15.997  17.538   6.764
 5651POPC   C3A71537  15.909  17.525   7.064
 5651POPC   C4A71538  15.927  17.478   7.364
 5651POPC   C1B71539  16.171  17.697   6.464
 5651POPC   C2B71540  16.123  17.689   6.764
 5651POPC   C3B71541  16.109  17.658   7.064
 5651POPC   C4B71542  16.143  17.649   7.364
 5652POPC   NC371543   4.328  13.640   5.564
 5652POPC   PO471544   4.314  13.590   5.864
 5652POPC   GL171545   4.341  13.646   6.164
 5652POPC   GL271546   4.271  13.509   6.164
 5652POPC   C1A71547   4.316  13.596   6.464
 5652POPC   D2A71548   4.284  13.656   6.764
 5652POPC   C3A71549   4.353  13.623   7.064
 5652POPC   C4A71550   4.269  13.621   7.364
 5652POPC   C1B71551   4.220  13.455   6.464
 5652POPC   C2B71552   4.237  13.439   6.764
 5652POPC   C3B71553   4.235  13.427   7.064
 5652POPC   C4B71554   4.193  13.398   7.364
 5653POPC   NC371555  26.845  44.677   5.564
 5653POPC   PO471556  26.845  44.622   5.864
 5653POPC   GL171557  26.786  44.680   6.164
 5653POPC   GL271558  26.857  44.756   6.164
 5653POPC   C1A71559  26.826  44.686   6.464
 5653POPC   D2A71560  26.842  44.703   6.764
 5653POPC   C3A71561  26.854  44.706   7.064
 5653POPC   C4A71562  26.816  44.623   7.364
 5653POPC   C1B71563  26.854  44.888   6.464
 5653POPC   C2B71564  26.785  44.892   6.764
 5653POPC   C3B71565  26.804  44.881   7.064
 5653POPC   C4B71566  26.821  44.873   7.364
 5654POPC   NC371567  35.396   4.306   5.564
 5654POPC   PO471568  35.355   4.353   5.864
 5654POPC   GL171569  35.364   4.358   6.164
 5654POPC   GL271570  35.480   4.371   6.164
 5654POPC   C1A71571  35.343   4.355   6.464
 5654POPC   D2A71572  35.362   4.322   6.764
 5654POPC   C3A71573  35.361   4.277   7.064
 5654POPC   C4A71574  35.341   4.268   7.364
 5654POPC   C1B71575  35.553   4.468   6.464
 5654POPC   C2B71576  35.594   4.463   6.764
 5654POPC   C3B71577  35.541   4.411   7.064
 5654POPC   C4B71578  35.558   4.463   7.364
 5655POPC   NC371579  39.237  14.361   5.564
 5655POPC   PO471580  39.215  14.384   5.864
 5655POPC   GL171581  39.258  14.382   6.164
 5655POPC   GL271582  39.391  14.424   6.164
 5655POPC   C1A71583  39.232  14.445   6.464
 5655POPC   D2A71584  39.246  14.445   6.764
 5655POPC   C3A71585  39.185  14.396   7.064
 5655POPC   C4A71586  39.186  14.388   7.364
 5655POPC   C1B71587  39.485  14.500   6.464
 5655POPC   C2B71588  39.496  14.452   6.764
 5655POPC   C3B71589  39.432  14.490   7.064
 5655POPC   C4B71590  39.467  14.451   7.364
 5656POPC   NC371591  22.166  42.294   5.564
 5656POPC   PO471592  22.133  42.306   5.864
 5656POPC   GL171593  22.151  42.287   6.164
 5656POPC   GL271594  22.291  42.281   6.164
 5656POPC   C1A71595  22.119  42.355   6.464
 5656POPC   D2A71596  22.185  42.379   6.764
 5656POPC   C3A71597  22.124  42.290   7.064
 5656POPC   C4A71598  22.197  42.329   7.364
 5656POPC   C1B71599  22.329  42.212   6.464
 5656POPC   C2B71600  22.401  42.216   6.764
 5656POPC   C3B71601  22.369  42.214   7.064
 5656POPC   C4B71602  22.365  42.217   7.364
 5657POPC   NC371603  13.602  14.398   5.564
 5657POPC   PO471604  13.602  14.443   5.864
 5657POPC   GL171605  13.671  14.420   6.164
 5657POPC   GL271606  13.528  14.364   6.164
 5657POPC   C1A71607  13.586  14.356   6.464
 5657POPC   D2A71608  13.641  14.422   6.764
 5657POPC   C3A71609  13.647  14.400   7.064
 5657POPC   C4A71610  13.642  14.380   7.364
 5657POPC   C1B71611  13.419  14.369   6.464
 5657POPC   C2B71612  13.402  14.439   6.764
 5657POPC   C3B71613  13.368  14.393   7.064
 5657POPC   C4B71614  13.339  14.457   7.364
 5658POPC   NC371615  42.369  13.614   5.564
 5658POPC   PO471616  42.361  13.611   5.864
 5658POPC   GL171617  42.289  13.613   6.164
 5658POPC   GL271618  42.225  13.590   6.164
 5658POPC   C1A71619  42.369  13.650   6.464
 5658POPC   D2A71620  42.324  13.674   6.764
 5658POPC   C3A71621  42.355  13.618   7.064
 5658POPC   C4A71622  42.350  13.630   7.364
 5658POPC   C1B71623  42.073  13.572   6.464
 5658POPC   C2B71624  42.087  13.649   6.764
 5658POPC   C3B71625  42.039  13.577   7.064
 5658POPC   C4B71626  42.131  13.650   7.364
 5659POPC   NC371627  26.059  36.911   5.564
 5659POPC   PO471628  26.077  36.925   5.864
 5659POPC   GL171629  26.044  36.869   6.164
 5659POPC   GL271630  26.034  36.825   6.164
 5659POPC   C1A71631  26.063  36.919   6.464
 5659POPC   D2A71632  26.089  36.869   6.764
 5659POPC   C3A71633  26.036  36.861   7.064
 5659POPC   C4A71634  25.991  36.892   7.364
 5659POPC   C1B71635  25.893  36.653   6.464
 5659POPC   C2B71636  25.942  36.674   6.764
 5659POPC   C3B71637  25.911  36.642   7.064
 5659POPC   C4B71638  25.905  36.657   7.364
 5660POPC   NC371639  19.047  43.157   5.564
 5660POPC   PO471640  19.073  43.125   5.864
 5660POPC   GL171641  19.028  43.106   6.164
 5660POPC   GL271642  18.978  43.073   6.164
 5660POPC   C1A71643  19.025  43.084   6.464
 5660POPC   D2A71644  19.080  43.071   6.764
 5660POPC   C3A71645  19.103  43.142   7.064
 5660POPC   C4A71646  19.079  43.103   7.364
 5660POPC   C1B71647  18.885  42.902   6.464
 5660POPC   C2B71648  18.864  42.942   6.764
 5660POPC   C3B71649  18.897  42.926   7.064
 5660POPC   C4B71650  18.869  42.922   7.364
 5661POPC   NC371651   5.116   5.122   5.564
 5661POPC   PO471652   5.104   5.108   5.864
 5661POPC   GL171653   5.066   5.090   6.164
 5661POPC   GL271654   5.174   5.056   6.164
 5661POPC   C1A71655   5.092   5.103   6.464
 5661POPC   D2A71656   5.099   5.051   6.764
 5661POPC   C3A71657   5.065   5.090   7.064
 5661POPC   C4A71658   5.086   5.066   7.364
 5661POPC   C1B71659   5.392   5.121   6.464
 5661POPC   C2B71660   5.384   5.072   6.764
 5661POPC   C3B71661   5.356   5.080   7.064
 5661POPC   C4B71662   5.384   5.061   7.364
 5662POPC   NC371663  25.245  35.379   5.564
 5662POPC   PO471664  25.255  35.374   5.864
 5662POPC   GL171665  25.304  35.341   6.164
 5662POPC   GL271666  25.337  35.442   6.164
 5662POPC   C1A71667  25.244  35.388   6.464
 5662POPC   D2A71668  25.282  35.352   6.764
 5662POPC   C3A71669  25.276  35.331   7.064
 5662POPC   C4A71670  25.251  35.387   7.364
 5662POPC   C1B71671  25.511  35.537   6.464
 5662POPC   C2B71672  25.439  35.499   6.764
 5662POPC   C3B71673  25.483  35.460   7.064
 5662POPC   C4B71674  25.519  35.449   7.364
 5663POPC   NC371675  21.433  41.540   5.564
 5663POPC   PO471676  21.419  41.569   5.864
 5663POPC   GL171677  21.384  41.512   6.164
 5663POPC   GL271678  21.290  41.633   6.164
 5663POPC   C1A71679  21.342  41.544   6.464
 5663POPC   D2A71680  21.383  41.570   6.764
 5663POPC   C3A71681  21.426  41.595   7.064
 5663POPC   C4A71682  21.359  41.510   7.364
 5663POPC   C1B71683  21.236  41.759   6.464
 5663POPC   C2B71684  21.226  41.753   6.764
 5663POPC   C3B71685  21.283  41.774   7.064
 5663POPC   C4B71686  21.277  41.770   7.364
 5664POPC   NC371687  25.269   9.751   5.564
 5664POPC   PO471688  25.312   9.711   5.864
 5664POPC   GL171689  25.313   9.732   6.164
 5664POPC   GL271690  25.230   9.831   6.164
 5664POPC   C1A71691  25.273   9.745   6.464
 5664POPC   D2A71692  25.292   9.737   6.764
 5664POPC   C3A71693  25.285   9.747   7.064
 5664POPC   C4A71694  25.249   9.791   7.364
 5664POPC   C1B71695  25.244   9.968   6.464
 5664POPC   C2B71696  25.243   9.992   6.764
 5664POPC   C3B71697  25.293   9.986   7.064
 5664POPC   C4B71698  25.217   9.977   7.364
 5665POPC   NC371699  43.092  20.608   5.564
 5665POPC   PO471700  43.154  20.591   5.864
 5665POPC   GL171701  43.066  20.585   6.164
 5665POPC   GL271702  43.265  20.547   6.164
 5665POPC   C1A71703  43.113  20.577   6.464
 5665POPC   D2A71704  43.079  20.565   6.764
 5665POPC   C3A71705  43.090  20.579   7.064
 5665POPC   C4A71706  43.101  20.640   7.364
 5665POPC   C1B71707  43.342  20.527   6.464
 5665POPC   C2B71708  43.317  20.460   6.764
 5665POPC   C3B71709  43.374  20.511   7.064
 5665POPC   C4B71710  43.328  20.507   7.364
 5666POPC   NC371711  30.678  29.122   5.564
 5666POPC   PO471712  30.709  29.171   5.864
 5666POPC   GL171713  30.745  29.124   6.164
 5666POPC   GL271714  30.615  29.046   6.164
 5666POPC   C1A71715  30.702  29.194   6.464
 5666POPC   D2A71716  30.670  29.158   6.764
 5666POPC   C3A71717  30.728  29.115   7.064
 5666POPC   C4A71718  30.718  29.140   7.364
 5666POPC   C1B71719  30.429  29.073   6.464
 5666POPC   C2B71720  30.444  29.052   6.764
 5666POPC   C3B71721  30.499  29.036   7.064
 5666POPC   C4B71722  30.478  29.025   7.364
 5667POPC   NC371723  12.820   4.312   5.564
 5667POPC   PO471724  12.829   4.304   5.864
 5667POPC   GL171725  12.886   4.288   6.164
 5667POPC   GL271726  12.908   4.433   6.164
 5667POPC   C1A71727  12.856   4.275   6.464
 5667POPC   D2A71728  12.898   4.290   6.764
 5667POPC   C3A71729  12.894   4.289   7.064
 5667POPC   C4A71730  12.893   4.354   7.364
 5667POPC   C1B71731  12.980   4.552   6.464
 5667POPC   C2B71732  12.950   4.555   6.764
 5667POPC   C3B71733  12.972   4.561   7.064
 5667POPC   C4B71734  12.938   4.569   7.364
 5668POPC   NC371735  35.372  32.249   5.564
 5668POPC   PO471736  35.378  32.270   5.864
 5668POPC   GL171737  35.312  32.218   6.164
 5668POPC   GL271738  35.467  32.189   6.164
 5668POPC   C1A71739  35.322  32.297   6.464
 5668POPC   D2A71740  35.386  32.270   6.764
 5668POPC   C3A71741  35.318  32.270   7.064
 5668POPC   C4A71742  35.400  32.252   7.364
 5668POPC   C1B71743  35.606  32.180   6.464
 5668POPC   C2B71744  35.624  32.162   6.764
 5668POPC   C3B71745  35.552  32.104   7.064
 5668POPC   C4B71746  35.589  32.160   7.364
 5669POPC   NC371747  17.461  29.128   5.564
 5669POPC   PO471748  17.539  29.164   5.864
 5669POPC   GL171749  17.482  29.115   6.164
 5669POPC   GL271750  17.450  29.060   6.164
 5669POPC   C1A71751  17.483  29.102   6.464
 5669POPC   D2A71752  17.543  29.175   6.764
 5669POPC   C3A71753  17.530  29.160   7.064
 5669POPC   C4A71754  17.466  29.134   7.364
 5669POPC   C1B71755  17.258  29.035   6.464
 5669POPC   C2B71756  17.317  28.977   6.764
 5669POPC   C3B71757  17.265  29.003   7.064
 5669POPC   C4B71758  17.299  29.013   7.364
 5670POPC   NC371759  31.426  34.529   5.564
 5670POPC   PO471760  31.450  34.589   5.864
 5670POPC   GL171761  31.513  34.527   6.164
 5670POPC   GL271762  31.544  34.672   6.164
 5670POPC   C1A71763  31.456  34.568   6.464
 5670POPC   D2A71764  31.473  34.580   6.764
 5670POPC   C3A71765  31.452  34.527   7.064
 5670POPC   C4A71766  31.432  34.546   7.364
 5670POPC   C1B71767  31.667  34.674   6.464
 5670POPC   C2B71768  31.703  34.673   6.764
 5670POPC   C3B71769  31.659  34.704   7.064
 5670POPC   C4B71770  31.678  34.708   7.364
 5671POPC   NC371771  29.120   3.509   5.564
 5671POPC   PO471772  29.111   3.553   5.864
 5671POPC   GL171773  29.143   3.506   6.164
 5671POPC   GL271774  29.281   3.500   6.164
 5671POPC   C1A71775  29.155   3.590   6.464
 5671POPC   D2A71776  29.126   3.584   6.764
 5671POPC   C3A71777  29.139   3.570   7.064
 5671POPC   C4A71778  29.159   3.541   7.364
 5671POPC   C1B71779  29.362   3.429   6.464
 5671POPC   C2B71780  29.324   3.457   6.764
 5671POPC   C3B71781  29.317   3.399   7.064
 5671POPC   C4B71782  29.399   3.376   7.364
 5672POPC   NC371783  21.382  28.374   5.564
 5672POPC   PO471784  21.361  28.379   5.864
 5672POPC   GL171785  21.354  28.328   6.164
 5672POPC   GL271786  21.363  28.240   6.164
 5672POPC   C1A71787  21.396  28.344   6.464
 5672POPC   D2A71788  21.436  28.326   6.764
 5672POPC   C3A71789  21.373  28.357   7.064
 5672POPC   C4A71790  21.394  28.331   7.364
 5672POPC   C1B71791  21.278  28.189   6.464
 5672POPC   C2B71792  21.327  28.112   6.764
 5672POPC   C3B71793  21.310  28.184   7.064
 5672POPC   C4B71794  21.251  28.148   7.364
 5673POPC   NC371795  32.276  27.591   5.564
 5673POPC   PO471796  32.281  27.607   5.864
 5673POPC   GL171797  32.259  27.590   6.164
 5673POPC   GL271798  32.321  27.694   6.164
 5673POPC   C1A71799  32.289  27.580   6.464
 5673POPC   D2A71800  32.286  27.555   6.764
 5673POPC   C3A71801  32.251  27.586   7.064
 5673POPC   C4A71802  32.249  27.557   7.364
 5673POPC   C1B71803  32.338  27.856   6.464
 5673POPC   C2B71804  32.313  27.821   6.764
 5673POPC   C3B71805  32.281  27.847   7.064
 5673POPC   C4B71806  32.326  27.807   7.364
 5674POPC   NC371807   2.801  20.601   5.564
 5674POPC   PO471808   2.726  20.600   5.864
 5674POPC   GL171809   2.725  20.634   6.164
 5674POPC   GL271810   2.617  20.618   6.164
 5674POPC   C1A71811   2.806  20.571   6.464
 5674POPC   D2A71812   2.755  20.621   6.764
 5674POPC   C3A71813   2.752  20.601   7.064
 5674POPC   C4A71814   2.807  20.592   7.364
 5674POPC   C1B71815   2.544  20.629   6.464
 5674POPC   C2B71816   2.468  20.598   6.764
 5674POPC   C3B71817   2.479  20.621   7.064
 5674POPC   C4B71818   2.531  20.592   7.364
 5675POPC   NC371819  43.077  10.559   5.564
 5675POPC   PO471820  43.077  10.485   5.864
 5675POPC   GL171821  43.143  10.515   6.164
 5675POPC   GL271822  43.055  10.380   6.164
 5675POPC   C1A71823  43.081  10.479   6.464
 5675POPC   D2A71824  43.142  10.494   6.764
 5675POPC   C3A71825  43.142  10.558   7.064
 5675POPC   C4A71826  43.127  10.477   7.364
 5675POPC   C1B71827  42.951  10.259   6.464
 5675POPC   C2B71828  42.998  10.288   6.764
 5675POPC   C3B71829  42.991  10.272   7.064
 5675POPC   C4B71830  43.003  10.270   7.364
 5676POPC   NC371831  13.601  20.644   5.564
 5676POPC   PO471832  13.625  20.606   5.864
 5676POPC   GL171833  13.623  20.593   6.164
 5676POPC   GL271834  13.702  20.751   6.164
 5676POPC   C1A71835  13.611  20.642   6.464
 5676POPC   D2A71836  13.602  20.599   6.764
 5676POPC   C3A71837  13.607  20.634   7.064
 5676POPC   C4A71838  13.634  20.645   7.364
 5676POPC   C1B71839  13.771  20.884   6.464
 5676POPC   C2B71840  13.723  20.853   6.764
 5676POPC   C3B71841  13.743  20.883   7.064
 5676POPC   C4B71842  13.711  20.849   7.364
 5677POPC   NC371843  27.575  19.818   5.564
 5677POPC   PO471844  27.570  19.871   5.864
 5677POPC   GL171845  27.613  19.850   6.164
 5677POPC   GL271846  27.631  19.679   6.164
 5677POPC   C1A71847  27.630  19.793   6.464
 5677POPC   D2A71848  27.545  19.882   6.764
 5677POPC   C3A71849  27.587  19.855   7.064
 5677POPC   C4A71850  27.572  19.865   7.364
 5677POPC   C1B71851  27.729  19.664   6.464
 5677POPC   C2B71852  27.744  19.650   6.764
 5677POPC   C3B71853  27.672  19.636   7.064
 5677POPC   C4B71854  27.734  19.608   7.364
 5678POPC   NC371855  11.265   1.206   5.564
 5678POPC   PO471856  11.253   1.215   5.864
 5678POPC   GL171857  11.316   1.165   6.164
 5678POPC   GL271858  11.387   1.270   6.164
 5678POPC   C1A71859  11.341   1.206   6.464
 5678POPC   D2A71860  11.318   1.215   6.764
 5678POPC   C3A71861  11.294   1.235   7.064
 5678POPC   C4A71862  11.331   1.194   7.364
 5678POPC   C1B71863  11.530   1.318   6.464
 5678POPC   C2B71864  11.484   1.414   6.764
 5678POPC   C3B71865  11.489   1.324   7.064
 5678POPC   C4B71866  11.520   1.402   7.364
 5679POPC   NC371867  36.168  16.773   5.564
 5679POPC   PO471868  36.136  16.703   5.864
 5679POPC   GL171869  36.132  16.716   6.164
 5679POPC   GL271870  36.016  16.819   6.164
 5679POPC   C1A71871  36.130  16.694   6.464
 5679POPC   D2A71872  36.109  16.754   6.764
 5679POPC   C3A71873  36.155  16.693   7.064
 5679POPC   C4A71874  36.171  16.718   7.364
 5679POPC   C1B71875  35.930  16.879   6.464
 5679POPC   C2B71876  35.907  16.938   6.764
 5679POPC   C3B71877  35.946  16.934   7.064
 5679POPC   C4B71878  35.953  16.873   7.364
 5680POPC   NC371879   3.500  41.580   5.564
 5680POPC   PO471880   3.563  41.522   5.864
 5680POPC   GL171881   3.540  41.523   6.164
 5680POPC   GL271882   3.404  41.525   6.164
 5680POPC   C1A71883   3.569  41.583   6.464
 5680POPC   D2A71884   3.571  41.606   6.764
 5680POPC   C3A71885   3.527  41.528   7.064
 5680POPC   C4A71886   3.575  41.585   7.364
 5680POPC   C1B71887   3.295  41.449   6.464
 5680POPC   C2B71888   3.330  41.391   6.764
 5680POPC   C3B71889   3.357  41.410   7.064
 5680POPC   C4B71890   3.337  41.379   7.364
 5681POPC   NC371891  11.285   0.392   5.564
 5681POPC   PO471892  11.265   0.410   5.864
 5681POPC   GL171893  11.290   0.406   6.164
 5681POPC   GL271894  11.228   0.481   6.164
 5681POPC   C1A71895  11.325   0.457   6.464
 5681POPC   D2A71896  11.327   0.428   6.764
 5681POPC   C3A71897  11.257   0.437   7.064
 5681POPC   C4A71898  11.334   0.476   7.364
 5681POPC   C1B71899  11.115   0.543   6.464
 5681POPC   C2B71900  11.085   0.579   6.764
 5681POPC   C3B71901  11.062   0.522   7.064
 5681POPC   C4B71902  11.060   0.568   7.364
 5682POPC   NC371903  40.759  35.327   5.564
 5682POPC   PO471904  40.816  35.372   5.864
 5682POPC   GL171905  40.797  35.341   6.164
 5682POPC   GL271906  40.627  35.420   6.164
 5682POPC   C1A71907  40.776  35.345   6.464
 5682POPC   D2A71908  40.750  35.338   6.764
 5682POPC   C3A71909  40.767  35.351   7.064
 5682POPC   C4A71910  40.813  35.306   7.364
 5682POPC   C1B71911  40.548  35.424   6.464
 5682POPC   C2B71912  40.499  35.398   6.764
 5682POPC   C3B71913  40.489  35.342   7.064
 5682POPC   C4B71914  40.537  35.350   7.364
 5683POPC   NC371915   0.467  39.200   5.564
 5683POPC   PO471916   0.471  39.243   5.864
 5683POPC   GL171917   0.400  39.251   6.164
 5683POPC   GL271918   0.569  39.158   6.164
 5683POPC   C1A71919   0.426  39.241   6.464
 5683POPC   D2A71920   0.420  39.200   6.764
 5683POPC   C3A71921   0.418  39.191   7.064
 5683POPC   C4A71922   0.412  39.225   7.364
 5683POPC   C1B71923   0.696  39.114   6.464
 5683POPC   C2B71924   0.699  39.087   6.764
 5683POPC   C3B71925   0.611  39.122   7.064
 5683POPC   C4B71926   0.672  39.101   7.364
 5684POPC   NC371927  18.319  39.964   5.564
 5684POPC   PO471928  18.299  39.992   5.864
 5684POPC   GL171929  18.284  39.987   6.164
 5684POPC   GL271930  18.256  40.070   6.164
 5684POPC   C1A71931  18.278  39.957   6.464
 5684POPC   D2A71932  18.291  40.007   6.764
 5684POPC   C3A71933  18.272  40.033   7.064
 5684POPC   C4A71934  18.331  40.051   7.364
 5684POPC   C1B71935  18.158  40.268   6.464
 5684POPC   C2B71936  18.196  40.227   6.764
 5684POPC   C3B71937  18.159  40.243   7.064
 5684POPC   C4B71938  18.154  40.181   7.364
 5685POPC   NC371939  33.842  12.826   5.564
 5685POPC   PO471940  33.839  12.852   5.864
 5685POPC   GL171941  33.801  12.857   6.164
 5685POPC   GL271942  33.687  12.825   6.164
 5685POPC   C1A71943  33.760  12.829   6.464
 5685POPC   D2A71944  33.813  12.807   6.764
 5685POPC   C3A71945  33.765  12.831   7.064
 5685POPC   C4A71946  33.837  12.829   7.364
 5685POPC   C1B71947  33.559  12.829   6.464
 5685POPC   C2B71948  33.573  12.792   6.764
 5685POPC   C3B71949  33.552  12.780   7.064
 5685POPC   C4B71950  33.510  12.813   7.364
 5686POPC   NC371951  17.502  38.416   5.564
 5686POPC   PO471952  17.480  38.407   5.864
 5686POPC   GL171953  17.557  38.425   6.164
 5686POPC   GL271954  17.639  38.435   6.164
 5686POPC   C1A71955  17.487  38.426   6.464
 5686POPC   D2A71956  17.495  38.418   6.764
 5686POPC   C3A71957  17.458  38.499   7.064
 5686POPC   C4A71958  17.545  38.477   7.364
 5686POPC   C1B71959  17.725  38.475   6.464
 5686POPC   C2B71960  17.786  38.420   6.764
 5686POPC   C3B71961  17.754  38.482   7.064
 5686POPC   C4B71962  17.787  38.452   7.364
 5687POPC   NC371963  15.943  39.260   5.564
 5687POPC   PO471964  15.906  39.233   5.864
 5687POPC   GL171965  15.957  39.233   6.164
 5687POPC   GL271966  15.860  39.150   6.164
 5687POPC   C1A71967  15.960  39.218   6.464
 5687POPC   D2A71968  15.953  39.228   6.764
 5687POPC   C3A71969  15.961  39.182   7.064
 5687POPC   C4A71970  15.981  39.181   7.364
 5687POPC   C1B71971  15.702  39.142   6.464
 5687POPC   C2B71972  15.709  39.126   6.764
 5687POPC   C3B71973  15.774  39.133   7.064
 5687POPC   C4B71974  15.711  39.121   7.364
 5688POPC   NC371975  26.838  29.961   5.564
 5688POPC   PO471976  26.847  29.942   5.864
 5688POPC   GL171977  26.841  29.918   6.164
 5688POPC   GL271978  26.688  29.916   6.164
 5688POPC   C1A71979  26.846  29.971   6.464
 5688POPC   D2A71980  26.805  29.884   6.764
 5688POPC   C3A71981  26.812  29.970   7.064
 5688POPC   C4A71982  26.836  29.916   7.364
 5688POPC   C1B71983  26.522  29.845   6.464
 5688POPC   C2B71984  26.607  29.846   6.764
 5688POPC   C3B71985  26.617  29.915   7.064
 5688POPC   C4B71986  26.597  29.900   7.364
 5689POPC   NC371987  21.393  15.916   5.564
 5689POPC   PO471988  21.341  15.975   5.864
 5689POPC   GL171989  21.414  15.978   6.164
 5689POPC   GL271990  21.369  15.868   6.164
 5689POPC   C1A71991  21.396  15.943   6.464
 5689POPC   D2A71992  21.388  15.918   6.764
 5689POPC   C3A71993  21.348  15.936   7.064
 5689POPC   C4A71994  21.419  15.955   7.364
 5689POPC   C1B71995  21.324  15.665   6.464
 5689POPC   C2B71996  21.348  15.735   6.764
 5689POPC   C3B71997  21.313  15.691   7.064
 5689POPC   C4B71998  21.368  15.666   7.364
 5690POPC   NC371999  43.061  43.160   5.564
 5690POPC   PO472000  43.090  43.094   5.864
 5690POPC   GL172001  43.082  43.080   6.164
 5690POPC   GL272002  43.194  43.232   6.164
 5690POPC   C1A72003  43.080  43.100   6.464
 5690POPC   D2A72004  43.094  43.109   6.764
 5690POPC   C3A72005  43.088  43.139   7.064
 5690POPC   C4A72006  43.103  43.119   7.364
 5690POPC   C1B72007  43.157  43.373   6.464
 5690POPC   C2B72008  43.216  43.362   6.764
 5690POPC   C3B72009  43.180  43.342   7.064
 5690POPC   C4B72010  43.153  43.358   7.364
 5691POPC   NC372011  12.896  13.662   5.564
 5691POPC   PO472012  12.893  13.595   5.864
 5691POPC   GL172013  12.845  13.661   6.164
 5691POPC   GL272014  12.696  13.624   6.164
 5691POPC   C1A72015  12.886  13.673   6.464
 5691POPC   D2A72016  12.841  13.603   6.764
 5691POPC   C3A72017  12.892  13.623   7.064
 5691POPC   C4A72018  12.889  13.673   7.364
 5691POPC   C1B72019  12.580  13.530   6.464
 5691POPC   C2B72020  12.648  13.558   6.764
 5691POPC   C3B72021  12.567  13.616   7.064
 5691POPC   C4B72022  12.612  13.531   7.364
 5692POPC   NC372023  21.359  43.124   5.564
 5692POPC   PO472024  21.361  43.097   5.864
 5692POPC   GL172025  21.432  43.152   6.164
 5692POPC   GL272026  21.230  43.095   6.164
 5692POPC   C1A72027  21.426  43.113   6.464
 5692POPC   D2A72028  21.418  43.126   6.764
 5692POPC   C3A72029  21.336  43.115   7.064
 5692POPC   C4A72030  21.350  43.102   7.364
 5692POPC   C1B72031  21.192  43.217   6.464
 5692POPC   C2B72032  21.095  43.156   6.764
 5692POPC   C3B72033  21.153  43.188   7.064
 5692POPC   C4B72034  21.149  43.151   7.364
 5693POPC   NC372035  33.817  24.490   5.564
 5693POPC   PO472036  33.768  24.472   5.864
 5693POPC   GL172037  33.779  24.465   6.164
 5693POPC   GL272038  33.879  24.560   6.164
 5693POPC   C1A72039  33.769  24.492   6.464
 5693POPC   D2A72040  33.820  24.494   6.764
 5693POPC   C3A72041  33.770  24.465   7.064
 5693POPC   C4A72042  33.821  24.492   7.364
 5693POPC   C1B72043  33.855  24.721   6.464
 5693POPC   C2B72044  33.916  24.724   6.764
 5693POPC   C3B72045  33.903  24.691   7.064
 5693POPC   C4B72046  33.873  24.739   7.364
 5694POPC   NC372047  11.337  30.725   5.564
 5694POPC   PO472048  11.293  30.657   5.864
 5694POPC   GL172049  11.307  30.727   6.164
 5694POPC   GL272050  11.438  30.748   6.164
 5694POPC   C1A72051  11.273  30.742   6.464
 5694POPC   D2A72052  11.332  30.655   6.764
 5694POPC   C3A72053  11.278  30.667   7.064
 5694POPC   C4A72054  11.299  30.703   7.364
 5694POPC   C1B72055  11.527  30.767   6.464
 5694POPC   C2B72056  11.580  30.799   6.764
 5694POPC   C3B72057  11.483  30.829   7.064
 5694POPC   C4B72058  11.561  30.792   7.364
 5695POPC   NC372059   5.889  19.792   5.564
 5695POPC   PO472060   5.850  19.790   5.864
 5695POPC   GL172061   5.888  19.870   6.164
 5695POPC   GL272062   5.898  19.948   6.164
 5695POPC   C1A72063   5.901  19.836   6.464
 5695POPC   D2A72064   5.841  19.831   6.764
 5695POPC   C3A72065   5.886  19.808   7.064
 5695POPC   C4A72066   5.853  19.822   7.364
 5695POPC   C1B72067   6.022  20.066   6.464
 5695POPC   C2B72068   5.952  20.069   6.764
 5695POPC   C3B72069   5.973  20.006   7.064
 5695POPC   C4B72070   5.973  20.054   7.364
 5696POPC   NC372071   5.071  23.685   5.564
 5696POPC   PO472072   5.080  23.749   5.864
 5696POPC   GL172073   5.141  23.691   6.164
 5696POPC   GL272074   4.955  23.791   6.164
 5696POPC   C1A72075   5.139  23.730   6.464
 5696POPC   D2A72076   5.071  23.756   6.764
 5696POPC   C3A72077   5.120  23.732   7.064
 5696POPC   C4A72078   5.087  23.763   7.364
 5696POPC   C1B72079   4.841  23.791   6.464
 5696POPC   C2B72080   4.860  23.874   6.764
 5696POPC   C3B72081   4.912  23.815   7.064
 5696POPC   C4B72082   4.871  23.830   7.364
 5697POPC   NC372083  24.455   6.601   5.564
 5697POPC   PO472084  24.519   6.654   5.864
 5697POPC   GL172085  24.473   6.681   6.164
 5697POPC   GL272086  24.643   6.600   6.164
 5697POPC   C1A72087  24.476   6.659   6.464
 5697POPC   D2A72088  24.532   6.656   6.764
 5697POPC   C3A72089  24.469   6.609   7.064
 5697POPC   C4A72090  24.474   6.613   7.364
 5697POPC   C1B72091  24.704   6.477   6.464
 5697POPC   C2B72092  24.693   6.540   6.764
 5697POPC   C3B72093  24.691   6.549   7.064
 5697POPC   C4B72094  24.740   6.570   7.364
 5698POPC   NC372095  11.318  33.056   5.564
 5698POPC   PO472096  11.327  33.032   5.864
 5698POPC   GL172097  11.325  33.028   6.164
 5698POPC   GL272098  11.189  33.132   6.164
 5698POPC   C1A72099  11.291  33.034   6.464
 5698POPC   D2A72100  11.260  33.053   6.764
 5698POPC   C3A72101  11.329  32.988   7.064
 5698POPC   C4A72102  11.259  32.976   7.364
 5698POPC   C1B72103  11.081  33.173   6.464
 5698POPC   C2B72104  11.062  33.203   6.764
 5698POPC   C3B72105  11.074  33.111   7.064
 5698POPC   C4B72106  11.070  33.145   7.364
 5699POPC   NC372107   9.750  44.636   5.564
 5699POPC   PO472108   9.740  44.614   5.864
 5699POPC   GL172109   9.712  44.663   6.164
 5699POPC   GL272110   9.644  44.692   6.164
 5699POPC   C1A72111   9.713  44.677   6.464
 5699POPC   D2A72112   9.712  44.679   6.764
 5699POPC   C3A72113   9.774  44.633   7.064
 5699POPC   C4A72114   9.705  44.622   7.364
 5699POPC   C1B72115   9.451  44.620   6.464
 5699POPC   C2B72116   9.539  44.618   6.764
 5699POPC   C3B72117   9.479  44.665   7.064
 5699POPC   C4B72118   9.448  44.705   7.364
 5700POPC   NC372119   1.199  31.442   5.564
 5700POPC   PO472120   1.176  31.475   5.864
 5700POPC   GL172121   1.261  31.440   6.164
 5700POPC   GL272122   1.108  31.452   6.164
 5700POPC   C1A72123   1.234  31.425   6.464
 5700POPC   D2A72124   1.197  31.467   6.764
 5700POPC   C3A72125   1.179  31.446   7.064
 5700POPC   C4A72126   1.173  31.432   7.364
 5700POPC   C1B72127   0.966  31.373   6.464
 5700POPC   C2B72128   0.976  31.301   6.764
 5700POPC   C3B72129   1.013  31.342   7.064
 5700POPC   C4B72130   1.050  31.332   7.364
 5701POPC   NC372131  27.616   1.958   5.564
 5701POPC   PO472132  27.570   1.969   5.864
 5701POPC   GL172133  27.570   1.993   6.164
 5701POPC   GL272134  27.696   1.966   6.164
 5701POPC   C1A72135  27.618   1.972   6.464
 5701POPC   D2A72136  27.563   1.965   6.764
 5701POPC   C3A72137  27.614   2.009   7.064
 5701POPC   C4A72138  27.608   2.017   7.364
 5701POPC   C1B72139  27.854   1.914   6.464
 5701POPC   C2B72140  27.864   1.953   6.764
 5701POPC   C3B72141  27.849   1.947   7.064
 5701POPC   C4B72142  27.804   1.967   7.364
 5702POPC   NC372143  29.925  33.028   5.564
 5702POPC   PO472144  29.940  33.015   5.864
 5702POPC   GL172145  29.938  33.024   6.164
 5702POPC   GL272146  29.815  33.020   6.164
 5702POPC   C1A72147  29.917  32.988   6.464
 5702POPC   D2A72148  29.938  33.054   6.764
 5702POPC   C3A72149  29.885  32.988   7.064
 5702POPC   C4A72150  29.918  32.995   7.364
 5702POPC   C1B72151  29.662  32.937   6.464
 5702POPC   C2B72152  29.738  32.927   6.764
 5702POPC   C3B72153  29.690  32.893   7.064
 5702POPC   C4B72154  29.734  32.975   7.364
 5703POPC   NC372155   8.985   2.772   5.564
 5703POPC   PO472156   8.971   2.773   5.864
 5703POPC   GL172157   8.936   2.727   6.164
 5703POPC   GL272158   8.861   2.795   6.164
 5703POPC   C1A72159   8.988   2.741   6.464
 5703POPC   D2A72160   9.008   2.780   6.764
 5703POPC   C3A72161   8.941   2.721   7.064
 5703POPC   C4A72162   9.003   2.764   7.364
 5703POPC   C1B72163   8.707   2.728   6.464
 5703POPC   C2B72164   8.767   2.771   6.764
 5703POPC   C3B72165   8.754   2.803   7.064
 5703POPC   C4B72166   8.769   2.717   7.364
 5704POPC   NC372167  22.914  43.126   5.564
 5704POPC   PO472168  22.955  43.149   5.864
 5704POPC   GL172169  22.978  43.108   6.164
 5704POPC   GL272170  23.003  42.969   6.164
 5704POPC   C1A72171  22.983  43.142   6.464
 5704POPC   D2A72172  22.928  43.130   6.764
 5704POPC   C3A72173  22.948  43.077   7.064
 5704POPC   C4A72174  22.944  43.137   7.364
 5704POPC   C1B72175  23.086  42.922   6.464
 5704POPC   C2B72176  23.115  42.919   6.764
 5704POPC   C3B72177  23.030  42.862   7.064
 5704POPC   C4B72178  23.046  42.915   7.364
 5705POPC   NC372179  12.863  17.496   5.564
 5705POPC   PO472180  12.874  17.487   5.864
 5705POPC   GL172181  12.848  17.512   6.164
 5705POPC   GL272182  12.765  17.567   6.164
 5705POPC   C1A72183  12.821  17.477   6.464
 5705POPC   D2A72184  12.862  17.527   6.764
 5705POPC   C3A72185  12.887  17.506   7.064
 5705POPC   C4A72186  12.832  17.543   7.364
 5705POPC   C1B72187  12.705  17.743   6.464
 5705POPC   C2B72188  12.677  17.736   6.764
 5705POPC   C3B72189  12.715  17.683   7.064
 5705POPC   C4B72190  12.649  17.669   7.364
 5706POPC   NC372191  34.618  32.221   5.564
 5706POPC   PO472192  34.610  32.298   5.864
 5706POPC   GL172193  34.546  32.211   6.164
 5706POPC   GL272194  34.571  32.418   6.164
 5706POPC   C1A72195  34.567  32.217   6.464
 5706POPC   D2A72196  34.544  32.251   6.764
 5706POPC   C3A72197  34.615  32.217   7.064
 5706POPC   C4A72198  34.534  32.242   7.364
 5706POPC   C1B72199  34.572  32.495   6.464
 5706POPC   C2B72200  34.576  32.503   6.764
 5706POPC   C3B72201  34.592  32.452   7.064
 5706POPC   C4B72202  34.603  32.484   7.364
 5707POPC   NC372203  39.208  31.489   5.564
 5707POPC   PO472204  39.262  31.467   5.864
 5707POPC   GL172205  39.233  31.443   6.164
 5707POPC   GL272206  39.341  31.501   6.164
 5707POPC   C1A72207  39.265  31.479   6.464
 5707POPC   D2A72208  39.224  31.435   6.764
 5707POPC   C3A72209  39.250  31.472   7.064
 5707POPC   C4A72210  39.190  31.496   7.364
 5707POPC   C1B72211  39.445  31.523   6.464
 5707POPC   C2B72212  39.448  31.570   6.764
 5707POPC   C3B72213  39.518  31.583   7.064
 5707POPC   C4B72214  39.430  31.525   7.364
 5708POPC   NC372215  29.928   2.747   5.564
 5708POPC   PO472216  29.941   2.805   5.864
 5708POPC   GL172217  29.917   2.717   6.164
 5708POPC   GL272218  30.006   2.677   6.164
 5708POPC   C1A72219  29.936   2.749   6.464
 5708POPC   D2A72220  29.949   2.797   6.764
 5708POPC   C3A72221  29.881   2.813   7.064
 5708POPC   C4A72222  29.961   2.740   7.364
 5708POPC   C1B72223  30.054   2.524   6.464
 5708POPC   C2B72224  30.040   2.550   6.764
 5708POPC   C3B72225  30.019   2.560   7.064
 5708POPC   C4B72226  30.002   2.529   7.364
 5709POPC   NC372227  39.259  36.874   5.564
 5709POPC   PO472228  39.280  36.922   5.864
 5709POPC   GL172229  39.229  36.864   6.164
 5709POPC   GL272230  39.101  36.969   6.164
 5709POPC   C1A72231  39.265  36.895   6.464
 5709POPC   D2A72232  39.250  36.896   6.764
 5709POPC   C3A72233  39.192  36.857   7.064
 5709POPC   C4A72234  39.257  36.859   7.364
 5709POPC   C1B72235  38.989  37.023   6.464
 5709POPC   C2B72236  39.032  37.021   6.764
 5709POPC   C3B72237  39.008  37.036   7.064
 5709POPC   C4B72238  38.972  37.066   7.364
 5710POPC   NC372239  22.132  31.451   5.564
 5710POPC   PO472240  22.151  31.424   5.864
 5710POPC   GL172241  22.168  31.441   6.164
 5710POPC   GL272242  22.233  31.383   6.164
 5710POPC   C1A72243  22.203  31.452   6.464
 5710POPC   D2A72244  22.187  31.467   6.764
 5710POPC   C3A72245  22.176  31.465   7.064
 5710POPC   C4A72246  22.154  31.432   7.364
 5710POPC   C1B72247  22.245  31.272   6.464
 5710POPC   C2B72248  22.210  31.191   6.764
 5710POPC   C3B72249  22.251  31.203   7.064
 5710POPC   C4B72250  22.212  31.204   7.364
 5711POPC   NC372251  33.069  36.925   5.564
 5711POPC   PO472252  33.042  36.899   5.864
 5711POPC   GL172253  33.040  36.872   6.164
 5711POPC   GL272254  32.907  36.857   6.164
 5711POPC   C1A72255  33.049  36.866   6.464
 5711POPC   D2A72256  33.039  36.867   6.764
 5711POPC   C3A72257  33.008  36.859   7.064
 5711POPC   C4A72258  33.008  36.856   7.364
 5711POPC   C1B72259  32.800  36.800   6.464
 5711POPC   C2B72260  32.789  36.803   6.764
 5711POPC   C3B72261  32.814  36.808   7.064
 5711POPC   C4B72262  32.773  36.860   7.364
 5712POPC   NC372263  29.158  19.839   5.564
 5712POPC   PO472264  29.162  19.843   5.864
 5712POPC   GL172265  29.155  19.828   6.164
 5712POPC   GL272266  29.247  19.721   6.164
 5712POPC   C1A72267  29.149  19.842   6.464
 5712POPC   D2A72268  29.124  19.826   6.764
 5712POPC   C3A72269  29.190  19.812   7.064
 5712POPC   C4A72270  29.175  19.825   7.364
 5712POPC   C1B72271  29.380  19.719   6.464
 5712POPC   C2B72272  29.292  19.727   6.764
 5712POPC   C3B72273  29.358  19.714   7.064
 5712POPC   C4B72274  29.346  19.657   7.364
 5713POPC   NC372275  44.703  22.184   5.564
 5713POPC   PO472276  44.681  22.142   5.864
 5713POPC   GL172277  44.620  22.120   6.164
 5713POPC   GL272278  44.656  22.011   6.164
 5713POPC   C1A72279  44.687  22.121   6.464
 5713POPC   D2A72280  44.692  22.134   6.764
 5713POPC   C3A72281  44.710  22.124   7.064
 5713POPC   C4A72282  44.699  22.170   7.364
 5713POPC   C1B72283  44.683  21.919   6.464
 5713POPC   C2B72284  44.666  21.877   6.764
 5713POPC   C3B72285  44.661  21.871   7.064
 5713POPC   C4B72286  44.682  21.865   7.364
 5714POPC   NC372287  36.165  41.555   5.564
 5714POPC   PO472288  36.163  41.588   5.864
 5714POPC   GL172289  36.108  41.551   6.164
 5714POPC   GL272290  36.275  41.582   6.164
 5714POPC   C1A72291  36.082  41.608   6.464
 5714POPC   D2A72292  36.089  41.600   6.764
 5714POPC   C3A72293  36.101  41.542   7.064
 5714POPC   C4A72294  36.159  41.514   7.364
 5714POPC   C1B72295  36.402  41.533   6.464
 5714POPC   C2B72296  36.398  41.570   6.764
 5714POPC   C3B72297  36.343  41.593   7.064
 5714POPC   C4B72298  36.372  41.590   7.364
 5715POPC   NC372299  37.639  32.211   5.564
 5715POPC   PO472300  37.719  32.291   5.864
 5715POPC   GL172301  37.652  32.296   6.164
 5715POPC   GL272302  37.623  32.140   6.164
 5715POPC   C1A72303  37.689  32.215   6.464
 5715POPC   D2A72304  37.702  32.260   6.764
 5715POPC   C3A72305  37.728  32.268   7.064
 5715POPC   C4A72306  37.689  32.292   7.364
 5715POPC   C1B72307  37.637  31.962   6.464
 5715POPC   C2B72308  37.574  32.030   6.764
 5715POPC   C3B72309  37.582  31.996   7.064
 5715POPC   C4B72310  37.561  32.041   7.364
 5716POPC   NC372311  10.573  26.838   5.564
 5716POPC   PO472312  10.506  26.807   5.864
 5716POPC   GL172313  10.571  26.852   6.164
 5716POPC   GL272314  10.526  26.678   6.164
 5716POPC   C1A72315  10.522  26.835   6.464
 5716POPC   D2A72316  10.483  26.771   6.764
 5716POPC   C3A72317  10.569  26.767   7.064
 5716POPC   C4A72318  10.539  26.795   7.364
 5716POPC   C1B72319  10.410  26.590   6.464
 5716POPC   C2B72320  10.422  26.598   6.764
 5716POPC   C3B72321  10.440  26.607   7.064
 5716POPC   C4B72322  10.459  26.629   7.364
 5717POPC   NC372323   8.213  22.896   5.564
 5717POPC   PO472324   8.171  22.924   5.864
 5717POPC   GL172325   8.180  22.898   6.164
 5717POPC   GL272326   8.310  23.040   6.164
 5717POPC   C1A72327   8.157  22.958   6.464
 5717POPC   D2A72328   8.242  22.901   6.764
 5717POPC   C3A72329   8.215  22.968   7.064
 5717POPC   C4A72330   8.222  22.925   7.364
 5717POPC   C1B72331   8.422  23.086   6.464
 5717POPC   C2B72332   8.408  23.059   6.764
 5717POPC   C3B72333   8.367  23.009   7.064
 5717POPC   C4B72334   8.418  23.069   7.364
 5718POPC   NC372335  34.553  38.415   5.564
 5718POPC   PO472336  34.585  38.409   5.864
 5718POPC   GL172337  34.547  38.500   6.164
 5718POPC   GL272338  34.671  38.539   6.164
 5718POPC   C1A72339  34.597  38.476   6.464
 5718POPC   D2A72340  34.547  38.491   6.764
 5718POPC   C3A72341  34.545  38.467   7.064
 5718POPC   C4A72342  34.571  38.459   7.364
 5718POPC   C1B72343  34.822  38.546   6.464
 5718POPC   C2B72344  34.769  38.510   6.764
 5718POPC   C3B72345  34.812  38.525   7.064
 5718POPC   C4B72346  34.819  38.527   7.364
 5719POPC   NC372347  26.017   5.084   5.564
 5719POPC   PO472348  26.016   5.055   5.864
 5719POPC   GL172349  26.029   5.135   6.164
 5719POPC   GL272350  25.877   5.054   6.164
 5719POPC   C1A72351  26.077   5.057   6.464
 5719POPC   D2A72352  26.059   5.060   6.764
 5719POPC   C3A72353  26.019   5.079   7.064
 5719POPC   C4A72354  26.041   5.071   7.364
 5719POPC   C1B72355  25.786   5.060   6.464
 5719POPC   C2B72356  25.801   5.078   6.764
 5719POPC   C3B72357  25.746   5.033   7.064
 5719POPC   C4B72358  25.830   5.050   7.364
 5720POPC   NC372359  26.803  19.022   5.564
 5720POPC   PO472360  26.806  19.011   5.864
 5720POPC   GL172361  26.796  19.097   6.164
 5720POPC   GL272362  26.766  19.139   6.164
 5720POPC   C1A72363  26.820  19.080   6.464
 5720POPC   D2A72364  26.803  19.023   6.764
 5720POPC   C3A72365  26.768  19.017   7.064
 5720POPC   C4A72366  26.802  19.056   7.364
 5720POPC   C1B72367  26.797  19.342   6.464
 5720POPC   C2B72368  26.805  19.260   6.764
 5720POPC   C3B72369  26.738  19.261   7.064
 5720POPC   C4B72370  26.788  19.296   7.364
 5721POPC   NC372371   4.312  37.727   5.564
 5721POPC   PO472372   4.289  37.705   5.864
 5721POPC   GL172373   4.293  37.664   6.164
 5721POPC   GL272374   4.234  37.672   6.164
 5721POPC   C1A72375   4.307  37.656   6.464
 5721POPC   D2A72376   4.304  37.645   6.764
 5721POPC   C3A72377   4.341  37.676   7.064
 5721POPC   C4A72378   4.343  37.719   7.364
 5721POPC   C1B72379   4.024  37.746   6.464
 5721POPC   C2B72380   4.114  37.711   6.764
 5721POPC   C3B72381   4.050  37.705   7.064
 5721POPC   C4B72382   4.077  37.694   7.364
 5722POPC   NC372383  13.578  13.647   5.564
 5722POPC   PO472384  13.585  13.635   5.864
 5722POPC   GL172385  13.669  13.578   6.164
 5722POPC   GL272386  13.713  13.466   6.164
 5722POPC   C1A72387  13.665  13.632   6.464
 5722POPC   D2A72388  13.673  13.620   6.764
 5722POPC   C3A72389  13.607  13.643   7.064
 5722POPC   C4A72390  13.651  13.620   7.364
 5722POPC   C1B72391  13.736  13.387   6.464
 5722POPC   C2B72392  13.692  13.382   6.764
 5722POPC   C3B72393  13.664  13.438   7.064
 5722POPC   C4B72394  13.720  13.361   7.364
 5723POPC   NC372395  41.558   6.676   5.564
 5723POPC   PO472396  41.539   6.607   5.864
 5723POPC   GL172397  41.527   6.663   6.164
 5723POPC   GL272398  41.423   6.559   6.164
 5723POPC   C1A72399  41.544   6.599   6.464
 5723POPC   D2A72400  41.598   6.621   6.764
 5723POPC   C3A72401  41.516   6.596   7.064
 5723POPC   C4A72402  41.523   6.663   7.364
 5723POPC   C1B72403  41.345   6.494   6.464
 5723POPC   C2B72404  41.315   6.504   6.764
 5723POPC   C3B72405  41.358   6.499   7.064
 5723POPC   C4B72406  41.308   6.523   7.364
 5724POPC   NC372407  43.129   1.972   5.564
 5724POPC   PO472408  43.106   2.033   5.864
 5724POPC   GL172409  43.077   2.033   6.164
 5724POPC   GL272410  43.159   2.138   6.164
 5724POPC   C1A72411  43.136   1.984   6.464
 5724POPC   D2A72412  43.082   1.984   6.764
 5724POPC   C3A72413  43.118   1.966   7.064
 5724POPC   C4A72414  43.089   1.969   7.364
 5724POPC   C1B72415  43.218   2.208   6.464
 5724POPC   C2B72416  43.202   2.209   6.764
 5724POPC   C3B72417  43.215   2.191   7.064
 5724POPC   C4B72418  43.184   2.258   7.364
 5725POPC   NC372419  42.343  12.809   5.564
 5725POPC   PO472420  42.307  12.838   5.864
 5725POPC   GL172421  42.373  12.864   6.164
 5725POPC   GL272422  42.462  12.877   6.164
 5725POPC   C1A72423  42.344  12.824   6.464
 5725POPC   D2A72424  42.301  12.824   6.764
 5725POPC   C3A72425  42.359  12.809   7.064
 5725POPC   C4A72426  42.334  12.808   7.364
 5725POPC   C1B72427  42.521  12.953   6.464
 5725POPC   C2B72428  42.579  12.974   6.764
 5725POPC   C3B72429  42.561  12.954   7.064
 5725POPC   C4B72430  42.568  12.970   7.364
 5726POPC   NC372431  20.576  19.864   5.564
 5726POPC   PO472432  20.599  19.847   5.864
 5726POPC   GL172433  20.603  19.861   6.164
 5726POPC   GL272434  20.648  19.778   6.164
 5726POPC   C1A72435  20.598  19.848   6.464
 5726POPC   D2A72436  20.610  19.866   6.764
 5726POPC   C3A72437  20.582  19.865   7.064
 5726POPC   C4A72438  20.620  19.865   7.364
 5726POPC   C1B72439  20.801  19.644   6.464
 5726POPC   C2B72440  20.767  19.594   6.764
 5726POPC   C3B72441  20.794  19.677   7.064
 5726POPC   C4B72442  20.732  19.646   7.364
 5727POPC   NC372443   6.668  32.267   5.564
 5727POPC   PO472444   6.673  32.286   5.864
 5727POPC   GL172445   6.640  32.284   6.164
 5727POPC   GL272446   6.645  32.381   6.164
 5727POPC   C1A72447   6.686  32.226   6.464
 5727POPC   D2A72448   6.634  32.262   6.764
 5727POPC   C3A72449   6.661  32.279   7.064
 5727POPC   C4A72450   6.636  32.219   7.364
 5727POPC   C1B72451   6.571  32.485   6.464
 5727POPC   C2B72452   6.565  32.497   6.764
 5727POPC   C3B72453   6.528  32.464   7.064
 5727POPC   C4B72454   6.505  32.492   7.364
 5728POPC   NC372455  35.384  43.852   5.564
 5728POPC   PO472456  35.320  43.840   5.864
 5728POPC   GL172457  35.322  43.870   6.164
 5728POPC   GL272458  35.328  43.722   6.164
 5728POPC   C1A72459  35.344  43.837   6.464
 5728POPC   D2A72460  35.345  43.885   6.764
 5728POPC   C3A72461  35.357  43.864   7.064
 5728POPC   C4A72462  35.354  43.913   7.364
 5728POPC   C1B72463  35.290  43.664   6.464
 5728POPC   C2B72464  35.242  43.639   6.764
 5728POPC   C3B72465  35.266  43.631   7.064
 5728POPC   C4B72466  35.309  43.633   7.364
 5729POPC   NC372467   3.500  26.089   5.564
 5729POPC   PO472468   3.503  25.992   5.864
 5729POPC   GL172469   3.528  26.000   6.164
 5729POPC   GL272470   3.514  25.892   6.164
 5729POPC   C1A72471   3.558  26.025   6.464
 5729POPC   D2A72472   3.555  26.018   6.764
 5729POPC   C3A72473   3.556  26.037   7.064
 5729POPC   C4A72474   3.551  26.025   7.364
 5729POPC   C1B72475   3.351  25.873   6.464
 5729POPC   C2B72476   3.365  25.858   6.764
 5729POPC   C3B72477   3.425  25.820   7.064
 5729POPC   C4B72478   3.386  25.822   7.364
 5730POPC   NC372479  35.330  37.678   5.564
 5730POPC   PO472480  35.328  37.668   5.864
 5730POPC   GL172481  35.381  37.718   6.164
 5730POPC   GL272482  35.273  37.562   6.164
 5730POPC   C1A72483  35.391  37.646   6.464
 5730POPC   D2A72484  35.307  37.720   6.764
 5730POPC   C3A72485  35.313  37.687   7.064
 5730POPC   C4A72486  35.313  37.671   7.364
 5730POPC   C1B72487  35.145  37.566   6.464
 5730POPC   C2B72488  35.127  37.477   6.764
 5730POPC   C3B72489  35.175  37.526   7.064
 5730POPC   C4B72490  35.205  37.524   7.364
 5731POPC   NC372491  42.377  14.389   5.564
 5731POPC   PO472492  42.363  14.429   5.864
 5731POPC   GL172493  42.365  14.376   6.164
 5731POPC   GL272494  42.393  14.331   6.164
 5731POPC   C1A72495  42.303  14.437   6.464
 5731POPC   D2A72496  42.370  14.372   6.764
 5731POPC   C3A72497  42.325  14.424   7.064
 5731POPC   C4A72498  42.320  14.396   7.364
 5731POPC   C1B72499  42.558  14.187   6.464
 5731POPC   C2B72500  42.508  14.187   6.764
 5731POPC   C3B72501  42.488  14.185   7.064
 5731POPC   C4B72502  42.516  14.191   7.364
 5732POPC   NC372503  36.932  36.114   5.564
 5732POPC   PO472504  36.855  36.161   5.864
 5732POPC   GL172505  36.886  36.137   6.164
 5732POPC   GL272506  36.988  36.135   6.164
 5732POPC   C1A72507  36.874  36.078   6.464
 5732POPC   D2A72508  36.914  36.105   6.764
 5732POPC   C3A72509  36.878  36.082   7.064
 5732POPC   C4A72510  36.893  36.167   7.364
 5732POPC   C1B72511  37.104  36.042   6.464
 5732POPC   C2B72512  37.129  36.081   6.764
 5732POPC   C3B72513  37.188  36.072   7.064
 5732POPC   C4B72514  37.148  36.012   7.364
 5733POPC   NC372515  33.845  33.062   5.564
 5733POPC   PO472516  33.850  33.014   5.864
 5733POPC   GL172517  33.845  32.989   6.164
 5733POPC   GL272518  33.803  33.187   6.164
 5733POPC   C1A72519  33.792  33.060   6.464
 5733POPC   D2A72520  33.757  33.018   6.764
 5733POPC   C3A72521  33.768  33.061   7.064
 5733POPC   C4A72522  33.839  32.986   7.364
 5733POPC   C1B72523  33.846  33.223   6.464
 5733POPC   C2B72524  33.842  33.264   6.764
 5733POPC   C3B72525  33.837  33.239   7.064
 5733POPC   C4B72526  33.918  33.285   7.364
 5734POPC   NC372527  29.163   9.700   5.564
 5734POPC   PO472528  29.169   9.719   5.864
 5734POPC   GL172529  29.173   9.778   6.164
 5734POPC   GL272530  29.007   9.669   6.164
 5734POPC   C1A72531  29.158   9.746   6.464
 5734POPC   D2A72532  29.134   9.738   6.764
 5734POPC   C3A72533  29.194   9.789   7.064
 5734POPC   C4A72534  29.134   9.711   7.364
 5734POPC   C1B72535  28.947   9.674   6.464
 5734POPC   C2B72536  28.955   9.658   6.764
 5734POPC   C3B72537  28.961   9.648   7.064
 5734POPC   C4B72538  28.948   9.682   7.364
 5735POPC   NC372539  28.392  41.583   5.564
 5735POPC   PO472540  28.346  41.568   5.864
 5735POPC   GL172541  28.394  41.596   6.164
 5735POPC   GL272542  28.476  41.530   6.164
 5735POPC   C1A72543  28.342  41.556   6.464
 5735POPC   D2A72544  28.366  41.530   6.764
 5735POPC   C3A72545  28.328  41.587   7.064
 5735POPC   C4A72546  28.392  41.518   7.364
 5735POPC   C1B72547  28.641  41.493   6.464
 5735POPC   C2B72548  28.609  41.454   6.764
 5735POPC   C3B72549  28.639  41.536   7.064
 5735POPC   C4B72550  28.633  41.529   7.364
 5736POPC   NC372551   6.637  25.993   5.564
 5736POPC   PO472552   6.694  26.074   5.864
 5736POPC   GL172553   6.625  26.000   6.164
 5736POPC   GL272554   6.601  25.905   6.164
 5736POPC   C1A72555   6.632  26.038   6.464
 5736POPC   D2A72556   6.654  26.057   6.764
 5736POPC   C3A72557   6.617  26.090   7.064
 5736POPC   C4A72558   6.606  26.084   7.364
 5736POPC   C1B72559   6.537  25.792   6.464
 5736POPC   C2B72560   6.585  25.843   6.764
 5736POPC   C3B72561   6.539  25.844   7.064
 5736POPC   C4B72562   6.540  25.804   7.364
 5737POPC   NC372563   4.319  26.028   5.564
 5737POPC   PO472564   4.363  26.091   5.864
 5737POPC   GL172565   4.302  26.023   6.164
 5737POPC   GL272566   4.379  25.964   6.164
 5737POPC   C1A72567   4.307  26.041   6.464
 5737POPC   D2A72568   4.285  25.993   6.764
 5737POPC   C3A72569   4.363  26.049   7.064
 5737POPC   C4A72570   4.353  26.005   7.364
 5737POPC   C1B72571   4.393  25.755   6.464
 5737POPC   C2B72572   4.379  25.765   6.764
 5737POPC   C3B72573   4.363  25.750   7.064
 5737POPC   C4B72574   4.358  25.775   7.364
 5738POPC   NC372575  28.416   3.523   5.564
 5738POPC   PO472576  28.398   3.524   5.864
 5738POPC   GL172577  28.415   3.567   6.164
 5738POPC   GL272578  28.440   3.412   6.164
 5738POPC   C1A72579  28.412   3.535   6.464
 5738POPC   D2A72580  28.365   3.544   6.764
 5738POPC   C3A72581  28.401   3.503   7.064
 5738POPC   C4A72582  28.337   3.571   7.364
 5738POPC   C1B72583  28.564   3.308   6.464
 5738POPC   C2B72584  28.516   3.348   6.764
 5738POPC   C3B72585  28.536   3.324   7.064
 5738POPC   C4B72586  28.507   3.372   7.364
 5739POPC   NC372587  36.863  11.300   5.564
 5739POPC   PO472588  36.921  11.303   5.864
 5739POPC   GL172589  36.865  11.329   6.164
 5739POPC   GL272590  36.984  11.304   6.164
 5739POPC   C1A72591  36.858  11.334   6.464
 5739POPC   D2A72592  36.901  11.256   6.764
 5739POPC   C3A72593  36.901  11.251   7.064
 5739POPC   C4A72594  36.901  11.339   7.364
 5739POPC   C1B72595  37.137  11.278   6.464
 5739POPC   C2B72596  37.130  11.338   6.764
 5739POPC   C3B72597  37.197  11.323   7.064
 5739POPC   C4B72598  37.141  11.274   7.364
 5740POPC   NC372599  26.775  43.930   5.564
 5740POPC   PO472600  26.819  43.861   5.864
 5740POPC   GL172601  26.827  43.868   6.164
 5740POPC   GL272602  26.884  43.816   6.164
 5740POPC   C1A72603  26.818  43.929   6.464
 5740POPC   D2A72604  26.819  43.914   6.764
 5740POPC   C3A72605  26.833  43.911   7.064
 5740POPC   C4A72606  26.865  43.885   7.364
 5740POPC   C1B72607  26.974  43.667   6.464
 5740POPC   C2B72608  26.986  43.624   6.764
 5740POPC   C3B72609  26.989  43.709   7.064
 5740POPC   C4B72610  26.915  43.629   7.364
 5741POPC   NC372611  13.640   7.375   5.564
 5741POPC   PO472612  13.624   7.423   5.864
 5741POPC   GL172613  13.677   7.389   6.164
 5741POPC   GL272614  13.488   7.352   6.164
 5741POPC   C1A72615  13.596   7.456   6.464
 5741POPC   D2A72616  13.656   7.403   6.764
 5741POPC   C3A72617  13.635   7.412   7.064
 5741POPC   C4A72618  13.660   7.373   7.364
 5741POPC   C1B72619  13.364   7.303   6.464
 5741POPC   C2B72620  13.458   7.300   6.764
 5741POPC   C3B72621  13.381   7.297   7.064
 5741POPC   C4B72622  13.403   7.327   7.364
 5742POPC   NC372623   9.736  24.488   5.564
 5742POPC   PO472624   9.776  24.526   5.864
 5742POPC   GL172625   9.753  24.485   6.164
 5742POPC   GL272626   9.698  24.599   6.164
 5742POPC   C1A72627   9.785  24.449   6.464
 5742POPC   D2A72628   9.759  24.449   6.764
 5742POPC   C3A72629   9.769  24.496   7.064
 5742POPC   C4A72630   9.733  24.532   7.364
 5742POPC   C1B72631   9.554  24.673   6.464
 5742POPC   C2B72632   9.553  24.661   6.764
 5742POPC   C3B72633   9.595  24.671   7.064
 5742POPC   C4B72634   9.631  24.689   7.364
 5743POPC   NC372635  21.398  33.012   5.564
 5743POPC   PO472636  21.346  33.009   5.864
 5743POPC   GL172637  21.367  33.007   6.164
 5743POPC   GL272638  21.442  33.134   6.164
 5743POPC   C1A72639  21.354  33.023   6.464
 5743POPC   D2A72640  21.349  33.069   6.764
 5743POPC   C3A72641  21.379  33.051   7.064
 5743POPC   C4A72642  21.416  33.065   7.364
 5743POPC   C1B72643  21.575  33.214   6.464
 5743POPC   C2B72644  21.542  33.264   6.764
 5743POPC   C3B72645  21.493  33.196   7.064
 5743POPC   C4B72646  21.585  33.187   7.364
 5744POPC   NC372647  31.433  41.517   5.564
 5744POPC   PO472648  31.465  41.535   5.864
 5744POPC   GL172649  31.451  41.569   6.164
 5744POPC   GL272650  31.401  41.410   6.164
 5744POPC   C1A72651  31.482  41.574   6.464
 5744POPC   D2A72652  31.509  41.604   6.764
 5744POPC   C3A72653  31.433  41.539   7.064
 5744POPC   C4A72654  31.423  41.521   7.364
 5744POPC   C1B72655  31.335  41.338   6.464
 5744POPC   C2B72656  31.412  41.309   6.764
 5744POPC   C3B72657  31.337  41.327   7.064
 5744POPC   C4B72658  31.422  41.324   7.364
 5745POPC   NC372659  36.874   9.795   5.564
 5745POPC   PO472660  36.902   9.718   5.864
 5745POPC   GL172661  36.874   9.768   6.164
 5745POPC   GL272662  37.046   9.786   6.164
 5745POPC   C1A72663  36.914   9.785   6.464
 5745POPC   D2A72664  36.867   9.745   6.764
 5745POPC   C3A72665  36.862   9.731   7.064
 5745POPC   C4A72666  36.881   9.775   7.364
 5745POPC   C1B72667  37.108   9.791   6.464
 5745POPC   C2B72668  37.174   9.791   6.764
 5745POPC   C3B72669  37.103   9.725   7.064
 5745POPC   C4B72670  37.105   9.772   7.364
 5746POPC   NC372671   0.457  11.255   5.564
 5746POPC   PO472672   0.438  11.344   5.864
 5746POPC   GL172673   0.411  11.313   6.164
 5746POPC   GL272674   0.542  11.317   6.164
 5746POPC   C1A72675   0.478  11.347   6.464
 5746POPC   D2A72676   0.437  11.336   6.764
 5746POPC   C3A72677   0.412  11.269   7.064
 5746POPC   C4A72678   0.483  11.321   7.364
 5746POPC   C1B72679   0.701  11.322   6.464
 5746POPC   C2B72680   0.638  11.340   6.764
 5746POPC   C3B72681   0.643  11.312   7.064
 5746POPC   C4B72682   0.717  11.333   7.364
 5747POPC   NC372683  29.879  41.540   5.564
 5747POPC   PO472684  29.939  41.530   5.864
 5747POPC   GL172685  29.910  41.520   6.164
 5747POPC   GL272686  30.022  41.597   6.164
 5747POPC   C1A72687  29.963  41.510   6.464
 5747POPC   D2A72688  29.963  41.583   6.764
 5747POPC   C3A72689  29.929  41.602   7.064
 5747POPC   C4A72690  29.908  41.585   7.364
 5747POPC   C1B72691  30.201  41.602   6.464
 5747POPC   C2B72692  30.126  41.586   6.764
 5747POPC   C3B72693  30.211  41.524   7.064
 5747POPC   C4B72694  30.140  41.523   7.364
 5748POPC   NC372695  30.685  35.357   5.564
 5748POPC   PO472696  30.686  35.328   5.864
 5748POPC   GL172697  30.683  35.311   6.164
 5748POPC   GL272698  30.632  35.271   6.164
 5748POPC   C1A72699  30.689  35.334   6.464
 5748POPC   D2A72700  30.673  35.350   6.764
 5748POPC   C3A72701  30.724  35.354   7.064
 5748POPC   C4A72702  30.701  35.368   7.364
 5748POPC   C1B72703  30.647  35.116   6.464
 5748POPC   C2B72704  30.641  35.130   6.764
 5748POPC   C3B72705  30.682  35.085   7.064
 5748POPC   C4B72706  30.653  35.083   7.364
 5749POPC   NC372707  26.797  15.969   5.564
 5749POPC   PO472708  26.830  15.998   5.864
 5749POPC   GL172709  26.773  15.976   6.164
 5749POPC   GL272710  26.893  15.826   6.164
 5749POPC   C1A72711  26.866  15.931   6.464
 5749POPC   D2A72712  26.787  15.960   6.764
 5749POPC   C3A72713  26.847  15.987   7.064
 5749POPC   C4A72714  26.830  15.945   7.364
 5749POPC   C1B72715  26.978  15.743   6.464
 5749POPC   C2B72716  26.996  15.804   6.764
 5749POPC   C3B72717  26.943  15.792   7.064
 5749POPC   C4B72718  26.988  15.757   7.364
 5750POPC   NC372719  26.063  44.708   5.564
 5750POPC   PO472720  26.042  44.669   5.864
 5750POPC   GL172721  26.039  44.658   6.164
 5750POPC   GL272722  26.001  44.815   6.164
 5750POPC   C1A72723  26.088  44.646   6.464
 5750POPC   D2A72724  26.000  44.707   6.764
 5750POPC   C3A72725  25.997  44.650   7.064
 5750POPC   C4A72726  26.055  44.682   7.364
 5750POPC   C1B72727  26.035  44.898   6.464
 5750POPC   C2B72728  26.059  44.907   6.764
 5750POPC   C3B72729  26.027  44.958   7.064
 5750POPC   C4B72730  26.035  44.869   7.364
 5751POPC   NC372731  31.507  20.571   5.564
 5751POPC   PO472732  31.459  20.580   5.864
 5751POPC   GL172733  31.479  20.570   6.164
 5751POPC   GL272734  31.482  20.485   6.164
 5751POPC   C1A72735  31.423  20.658   6.464
 5751POPC   D2A72736  31.511  20.605   6.764
 5751POPC   C3A72737  31.425  20.605   7.064
 5751POPC   C4A72738  31.467  20.565   7.364
 5751POPC   C1B72739  31.476  20.346   6.464
 5751POPC   C2B72740  31.449  20.377   6.764
 5751POPC   C3B72741  31.400  20.348   7.064
 5751POPC   C4B72742  31.491  20.370   7.364
 5752POPC   NC372743  33.760  29.097   5.564
 5752POPC   PO472744  33.812  29.149   5.864
 5752POPC   GL172745  33.752  29.102   6.164
 5752POPC   GL272746  33.631  29.148   6.164
 5752POPC   C1A72747  33.849  29.125   6.464
 5752POPC   D2A72748  33.844  29.149   6.764
 5752POPC   C3A72749  33.787  29.148   7.064
 5752POPC   C4A72750  33.840  29.127   7.364
 5752POPC   C1B72751  33.569  29.151   6.464
 5752POPC   C2B72752  33.572  29.147   6.764
 5752POPC   C3B72753  33.566  29.154   7.064
 5752POPC   C4B72754  33.531  29.172   7.364
 5753POPC   NC372755  14.387  12.081   5.564
 5753POPC   PO472756  14.437  12.063   5.864
 5753POPC   GL172757  14.444  12.091   6.164
 5753POPC   GL272758  14.264  12.074   6.164
 5753POPC   C1A72759  14.439  12.029   6.464
 5753POPC   D2A72760  14.412  12.070   6.764
 5753POPC   C3A72761  14.410  12.083   7.064
 5753POPC   C4A72762  14.357  12.079   7.364
 5753POPC   C1B72763  14.177  12.050   6.464
 5753POPC   C2B72764  14.148  12.111   6.764
 5753POPC   C3B72765  14.197  12.097   7.064
 5753POPC   C4B72766  14.202  12.088   7.364
 5754POPC   NC372767  19.080  36.141   5.564
 5754POPC   PO472768  19.039  36.094   5.864
 5754POPC   GL172769  19.074  36.170   6.164
 5754POPC   GL272770  18.917  36.077   6.164
 5754POPC   C1A72771  19.061  36.167   6.464
 5754POPC   D2A72772  19.063  36.080   6.764
 5754POPC   C3A72773  19.097  36.155   7.064
 5754POPC   C4A72774  19.091  36.171   7.364
 5754POPC   C1B72775  18.832  35.934   6.464
 5754POPC   C2B72776  18.828  35.994   6.764
 5754POPC   C3B72777  18.909  35.944   7.064
 5754POPC   C4B72778  18.868  35.921   7.364
 5755POPC   NC372779   9.713  25.225   5.564
 5755POPC   PO472780   9.711  25.247   5.864
 5755POPC   GL172781   9.742  25.236   6.164
 5755POPC   GL272782   9.826  25.132   6.164
 5755POPC   C1A72783   9.747  25.261   6.464
 5755POPC   D2A72784   9.712  25.220   6.764
 5755POPC   C3A72785   9.768  25.242   7.064
 5755POPC   C4A72786   9.733  25.283   7.364
 5755POPC   C1B72787   9.883  25.106   6.464
 5755POPC   C2B72788   9.966  25.064   6.764
 5755POPC   C3B72789   9.959  25.045   7.064
 5755POPC   C4B72790   9.883  25.063   7.364
 5756POPC   NC372791  15.916  36.089   5.564
 5756POPC   PO472792  15.909  36.126   5.864
 5756POPC   GL172793  15.949  36.150   6.164
 5756POPC   GL272794  16.038  36.073   6.164
 5756POPC   C1A72795  15.946  36.125   6.464
 5756POPC   D2A72796  15.947  36.172   6.764
 5756POPC   C3A72797  15.938  36.153   7.064
 5756POPC   C4A72798  15.985  36.131   7.364
 5756POPC   C1B72799  16.179  36.059   6.464
 5756POPC   C2B72800  16.206  36.069   6.764
 5756POPC   C3B72801  16.204  36.040   7.064
 5756POPC   C4B72802  16.196  36.086   7.364
 5757POPC   NC372803   2.775   1.974   5.564
 5757POPC   PO472804   2.716   2.020   5.864
 5757POPC   GL172805   2.772   2.035   6.164
 5757POPC   GL272806   2.741   2.069   6.164
 5757POPC   C1A72807   2.775   2.018   6.464
 5757POPC   D2A72808   2.745   2.012   6.764
 5757POPC   C3A72809   2.814   1.982   7.064
 5757POPC   C4A72810   2.800   1.984   7.364
 5757POPC   C1B72811   2.766   2.232   6.464
 5757POPC   C2B72812   2.772   2.238   6.764
 5757POPC   C3B72813   2.774   2.224   7.064
 5757POPC   C4B72814   2.807   2.235   7.364
 5758POPC   NC372815  10.483  18.260   5.564
 5758POPC   PO472816  10.481  18.289   5.864
 5758POPC   GL172817  10.535  18.284   6.164
 5758POPC   GL272818  10.406  18.192   6.164
 5758POPC   C1A72819  10.509  18.265   6.464
 5758POPC   D2A72820  10.567  18.243   6.764
 5758POPC   C3A72821  10.562  18.266   7.064
 5758POPC   C4A72822  10.498  18.299   7.364
 5758POPC   C1B72823  10.337  18.070   6.464
 5758POPC   C2B72824  10.302  18.125   6.764
 5758POPC   C3B72825  10.355  18.119   7.064
 5758POPC   C4B72826  10.356  18.069   7.364
 5759POPC   NC372827  23.745  29.121   5.564
 5759POPC   PO472828  23.752  29.147   5.864
 5759POPC   GL172829  23.696  29.101   6.164
 5759POPC   GL272830  23.742  29.304   6.164
 5759POPC   C1A72831  23.709  29.145   6.464
 5759POPC   D2A72832  23.668  29.119   6.764
 5759POPC   C3A72833  23.713  29.147   7.064
 5759POPC   C4A72834  23.746  29.124   7.364
 5759POPC   C1B72835  23.729  29.407   6.464
 5759POPC   C2B72836  23.785  29.404   6.764
 5759POPC   C3B72837  23.796  29.376   7.064
 5759POPC   C4B72838  23.793  29.350   7.364
 5760POPC   NC372839  35.342  18.238   5.564
 5760POPC   PO472840  35.363  18.276   5.864
 5760POPC   GL172841  35.335  18.326   6.164
 5760POPC   GL272842  35.437  18.201   6.164
 5760POPC   C1A72843  35.342  18.250   6.464
 5760POPC   D2A72844  35.379  18.288   6.764
 5760POPC   C3A72845  35.333  18.254   7.064
 5760POPC   C4A72846  35.339  18.238   7.364
 5760POPC   C1B72847  35.559  18.102   6.464
 5760POPC   C2B72848  35.556  18.155   6.764
 5760POPC   C3B72849  35.499  18.171   7.064
 5760POPC   C4B72850  35.553  18.131   7.364
 5761POPC   NC372851  44.619   2.023   5.564
 5761POPC   PO472852  44.688   1.987   5.864
 5761POPC   GL172853  44.631   2.005   6.164
 5761POPC   GL272854  44.750   2.066   6.164
 5761POPC   C1A72855  44.675   1.999   6.464
 5761POPC   D2A72856  44.638   1.963   6.764
 5761POPC   C3A72857  44.675   1.984   7.064
 5761POPC   C4A72858  44.699   1.985   7.364
 5761POPC   C1B72859  44.929   2.031   6.464
 5761POPC   C2B72860  44.899   2.082   6.764
 5761POPC   C3B72861  44.903   2.028   7.064
 5761POPC   C4B72862  44.859   2.030   7.364
 5762POPC   NC372863  42.378  19.013   5.564
 5762POPC   PO472864  42.339  19.079   5.864
 5762POPC   GL172865  42.305  19.018   6.164
 5762POPC   GL272866  42.482  19.048   6.164
 5762POPC   C1A72867  42.372  19.089   6.464
 5762POPC   D2A72868  42.351  19.039   6.764
 5762POPC   C3A72869  42.368  19.034   7.064
 5762POPC   C4A72870  42.312  19.043   7.364
 5762POPC   C1B72871  42.570  19.080   6.464
 5762POPC   C2B72872  42.633  19.053   6.764
 5762POPC   C3B72873  42.579  19.069   7.064
 5762POPC   C4B72874  42.567  19.067   7.364
 5763POPC   NC372875  19.835  24.463   5.564
 5763POPC   PO472876  19.852  24.448   5.864
 5763POPC   GL172877  19.804  24.502   6.164
 5763POPC   GL272878  19.964  24.440   6.164
 5763POPC   C1A72879  19.819  24.480   6.464
 5763POPC   D2A72880  19.785  24.516   6.764
 5763POPC   C3A72881  19.869  24.488   7.064
 5763POPC   C4A72882  19.787  24.486   7.364
 5763POPC   C1B72883  20.098  24.372   6.464
 5763POPC   C2B72884  20.068  24.408   6.764
 5763POPC   C3B72885  20.090  24.390   7.064
 5763POPC   C4B72886  20.038  24.378   7.364
 5764POPC   NC372887  12.115  19.790   5.564
 5764POPC   PO472888  12.037  19.807   5.864
 5764POPC   GL172889  12.061  19.848   6.164
 5764POPC   GL272890  12.091  19.669   6.164
 5764POPC   C1A72891  12.046  19.792   6.464
 5764POPC   D2A72892  12.120  19.868   6.764
 5764POPC   C3A72893  12.072  19.832   7.064
 5764POPC   C4A72894  12.100  19.857   7.364
 5764POPC   C1B72895  12.057  19.574   6.464
 5764POPC   C2B72896  12.099  19.566   6.764
 5764POPC   C3B72897  12.116  19.620   7.064
 5764POPC   C4B72898  12.100  19.619   7.364
 5765POPC   NC372899   9.703  29.879   5.564
 5765POPC   PO472900   9.706  29.904   5.864
 5765POPC   GL172901   9.791  29.913   6.164
 5765POPC   GL272902   9.827  30.053   6.164
 5765POPC   C1A72903   9.777  29.914   6.464
 5765POPC   D2A72904   9.735  29.924   6.764
 5765POPC   C3A72905   9.739  29.890   7.064
 5765POPC   C4A72906   9.708  29.924   7.364
 5765POPC   C1B72907   9.871  30.133   6.464
 5765POPC   C2B72908   9.903  30.123   6.764
 5765POPC   C3B72909   9.930  30.067   7.064
 5765POPC   C4B72910   9.962  30.144   7.364
 5766POPC   NC372911   8.197  41.517   5.564
 5766POPC   PO472912   8.148  41.585   5.864
 5766POPC   GL172913   8.161  41.519   6.164
 5766POPC   GL272914   8.324  41.509   6.164
 5766POPC   C1A72915   8.175  41.539   6.464
 5766POPC   D2A72916   8.164  41.571   6.764
 5766POPC   C3A72917   8.156  41.581   7.064
 5766POPC   C4A72918   8.189  41.556   7.364
 5766POPC   C1B72919   8.398  41.360   6.464
 5766POPC   C2B72920   8.365  41.422   6.764
 5766POPC   C3B72921   8.369  41.348   7.064
 5766POPC   C4B72922   8.391  41.363   7.364
 5767POPC   NC372923   5.122  20.569   5.564
 5767POPC   PO472924   5.062  20.615   5.864
 5767POPC   GL172925   5.114  20.648   6.164
 5767POPC   GL272926   5.188  20.617   6.164
 5767POPC   C1A72927   5.082  20.660   6.464
 5767POPC   D2A72928   5.121  20.576   6.764
 5767POPC   C3A72929   5.120  20.636   7.064
 5767POPC   C4A72930   5.053  20.561   7.364
 5767POPC   C1B72931   5.323  20.687   6.464
 5767POPC   C2B72932   5.361  20.620   6.764
 5767POPC   C3B72933   5.339  20.647   7.064
 5767POPC   C4B72934   5.368  20.669   7.364
 5768POPC   NC372935  31.519  26.809   5.564
 5768POPC   PO472936  31.444  26.779   5.864
 5768POPC   GL172937  31.478  26.838   6.164
 5768POPC   GL272938  31.400  26.706   6.164
 5768POPC   C1A72939  31.477  26.844   6.464
 5768POPC   D2A72940  31.457  26.800   6.764
 5768POPC   C3A72941  31.494  26.811   7.064
 5768POPC   C4A72942  31.483  26.853   7.364
 5768POPC   C1B72943  31.353  26.570   6.464
 5768POPC   C2B72944  31.412  26.605   6.764
 5768POPC   C3B72945  31.369  26.572   7.064
 5768POPC   C4B72946  31.437  26.603   7.364
 5769POPC   NC372947  21.340  44.706   5.564
 5769POPC   PO472948  21.373  44.705   5.864
 5769POPC   GL172949  21.428  44.688   6.164
 5769POPC   GL272950  21.336  44.524   6.164
 5769POPC   C1A72951  21.361  44.679   6.464
 5769POPC   D2A72952  21.345  44.658   6.764
 5769POPC   C3A72953  21.379  44.653   7.064
 5769POPC   C4A72954  21.387  44.627   7.364
 5769POPC   C1B72955  21.241  44.423   6.464
 5769POPC   C2B72956  21.233  44.433   6.764
 5769POPC   C3B72957  21.264  44.453   7.064
 5769POPC   C4B72958  21.297  44.485   7.364
 5770POPC   NC372959  24.531  36.128   5.564
 5770POPC   PO472960  24.533  36.151   5.864
 5770POPC   GL172961  24.468  36.130   6.164
 5770POPC   GL272962  24.429  35.989   6.164
 5770POPC   C1A72963  24.537  36.105   6.464
 5770POPC   D2A72964  24.487  36.081   6.764
 5770POPC   C3A72965  24.497  36.171   7.064
 5770POPC   C4A72966  24.516  36.092   7.364
 5770POPC   C1B72967  24.421  35.946   6.464
 5770POPC   C2B72968  24.388  35.897   6.764
 5770POPC   C3B72969  24.406  35.876   7.064
 5770POPC   C4B72970  24.403  35.941   7.364
 5771POPC   NC372971   3.552  36.096   5.564
 5771POPC   PO472972   3.525  36.141   5.864
 5771POPC   GL172973   3.546  36.161   6.164
 5771POPC   GL272974   3.543  36.045   6.164
 5771POPC   C1A72975   3.532  36.113   6.464
 5771POPC   D2A72976   3.551  36.125   6.764
 5771POPC   C3A72977   3.519  36.081   7.064
 5771POPC   C4A72978   3.522  36.168   7.364
 5771POPC   C1B72979   3.634  35.914   6.464
 5771POPC   C2B72980   3.576  35.915   6.764
 5771POPC   C3B72981   3.631  35.931   7.064
 5771POPC   C4B72982   3.621  35.864   7.364
 5772POPC   NC372983  31.433  29.879   5.564
 5772POPC   PO472984  31.516  29.920   5.864
 5772POPC   GL172985  31.460  29.931   6.164
 5772POPC   GL272986  31.593  29.964   6.164
 5772POPC   C1A72987  31.493  29.906   6.464
 5772POPC   D2A72988  31.424  29.937   6.764
 5772POPC   C3A72989  31.431  29.955   7.064
 5772POPC   C4A72990  31.476  29.965   7.364
 5772POPC   C1B72991  31.699  30.121   6.464
 5772POPC   C2B72992  31.626  30.070   6.764
 5772POPC   C3B72993  31.658  30.107   7.064
 5772POPC   C4B72994  31.642  30.069   7.364
 5773POPC   NC372995   8.233  23.708   5.564
 5773POPC   PO472996   8.164  23.727   5.864
 5773POPC   GL172997   8.229  23.741   6.164
 5773POPC   GL272998   8.156  23.803   6.164
 5773POPC   C1A72999   8.194  23.685   6.464
 5773POPC   D2A73000   8.195  23.681   6.764
 5773POPC   C3A73001   8.218  23.739   7.064
 5773POPC   C4A73002   8.219  23.665   7.364
 5773POPC   C1B73003   8.031  23.877   6.464
 5773POPC   C2B73004   7.988  23.860   6.764
 5773POPC   C3B73005   8.045  23.940   7.064
 5773POPC   C4B73006   7.990  23.860   7.364
 5774POPC   NC373007   8.949  22.945   5.564
 5774POPC   PO473008   8.998  22.984   5.864
 5774POPC   GL173009   8.968  22.926   6.164
 5774POPC   GL273010   8.891  22.993   6.164
 5774POPC   C1A73011   8.933  22.959   6.464
 5774POPC   D2A73012   8.959  22.986   6.764
 5774POPC   C3A73013   8.993  22.889   7.064
 5774POPC   C4A73014   8.976  22.973   7.364
 5774POPC   C1B73015   8.764  23.049   6.464
 5774POPC   C2B73016   8.804  23.115   6.764
 5774POPC   C3B73017   8.791  23.088   7.064
 5774POPC   C4B73018   8.779  23.099   7.364
 5775POPC   NC373019  11.274  35.316   5.564
 5775POPC   PO473020  11.288  35.316   5.864
 5775POPC   GL173021  11.313  35.338   6.164
 5775POPC   GL273022  11.348  35.295   6.164
 5775POPC   C1A73023  11.323  35.378   6.464
 5775POPC   D2A73024  11.258  35.377   6.764
 5775POPC   C3A73025  11.294  35.379   7.064
 5775POPC   C4A73026  11.350  35.355   7.364
 5775POPC   C1B73027  11.414  35.174   6.464
 5775POPC   C2B73028  11.460  35.194   6.764
 5775POPC   C3B73029  11.498  35.138   7.064
 5775POPC   C4B73030  11.484  35.128   7.364
 5776POPC   NC373031  35.330  16.762   5.564
 5776POPC   PO473032  35.386  16.716   5.864
 5776POPC   GL173033  35.357  16.697   6.164
 5776POPC   GL273034  35.334  16.572   6.164
 5776POPC   C1A73035  35.362  16.763   6.464
 5776POPC   D2A73036  35.400  16.719   6.764
 5776POPC   C3A73037  35.397  16.777   7.064
 5776POPC   C4A73038  35.398  16.694   7.364
 5776POPC   C1B73039  35.417  16.490   6.464
 5776POPC   C2B73040  35.420  16.495   6.764
 5776POPC   C3B73041  35.403  16.518   7.064
 5776POPC   C4B73042  35.360  16.521   7.364
 5777POPC   NC373043  33.824  36.932   5.564
 5777POPC   PO473044  33.795  36.903   5.864
 5777POPC   GL173045  33.776  36.930   6.164
 5777POPC   GL273046  33.876  36.917   6.164
 5777POPC   C1A73047  33.845  36.860   6.464
 5777POPC   D2A73048  33.830  36.942   6.764
 5777POPC   C3A73049  33.800  36.945   7.064
 5777POPC   C4A73050  33.844  36.903   7.364
 5777POPC   C1B73051  34.054  36.924   6.464
 5777POPC   C2B73052  34.096  36.859   6.764
 5777POPC   C3B73053  34.084  36.920   7.064
 5777POPC   C4B73054  34.019  36.930   7.364
 5778POPC   NC373055  19.101  37.646   5.564
 5778POPC   PO473056  19.074  37.658   5.864
 5778POPC   GL173057  19.030  37.662   6.164
 5778POPC   GL273058  18.925  37.639   6.164
 5778POPC   C1A73059  19.034  37.687   6.464
 5778POPC   D2A73060  19.019  37.653   6.764
 5778POPC   C3A73061  19.050  37.647   7.064
 5778POPC   C4A73062  19.082  37.674   7.364
 5778POPC   C1B73063  18.911  37.489   6.464
 5778POPC   C2B73064  18.899  37.538   6.764
 5778POPC   C3B73065  18.837  37.494   7.064
 5778POPC   C4B73066  18.861  37.561   7.364
 5779POPC   NC373067  43.070   4.269   5.564
 5779POPC   PO473068  43.140   4.363   5.864
 5779POPC   GL173069  43.146   4.294   6.164
 5779POPC   GL273070  43.117   4.391   6.164
 5779POPC   C1A73071  43.135   4.282   6.464
 5779POPC   D2A73072  43.111   4.322   6.764
 5779POPC   C3A73073  43.117   4.350   7.064
 5779POPC   C4A73074  43.151   4.317   7.364
 5779POPC   C1B73075  43.270   4.496   6.464
 5779POPC   C2B73076  43.226   4.564   6.764
 5779POPC   C3B73077  43.200   4.520   7.064
 5779POPC   C4B73078  43.231   4.522   7.364
 5780POPC   NC373079  43.854  13.621   5.564
 5780POPC   PO473080  43.889  13.636   5.864
 5780POPC   GL173081  43.923  13.664   6.164
 5780POPC   GL273082  43.905  13.773   6.164
 5780POPC   C1A73083  43.873  13.625   6.464
 5780POPC   D2A73084  43.910  13.658   6.764
 5780POPC   C3A73085  43.886  13.629   7.064
 5780POPC   C4A73086  43.902  13.596   7.364
 5780POPC   C1B73087  43.946  13.861   6.464
 5780POPC   C2B73088  43.954  13.897   6.764
 5780POPC   C3B73089  43.898  13.896   7.064
 5780POPC   C4B73090  43.886  13.844   7.364
 5781POPC   NC373091  21.414  12.836   5.564
 5781POPC   PO473092  21.368  12.841   5.864
 5781POPC   GL173093  21.376  12.845   6.164
 5781POPC   GL273094  21.325  13.003   6.164
 5781POPC   C1A73095  21.384  12.868   6.464
 5781POPC   D2A73096  21.428  12.872   6.764
 5781POPC   C3A73097  21.423  12.828   7.064
 5781POPC   C4A73098  21.346  12.848   7.364
 5781POPC   C1B73099  21.328  13.091   6.464
 5781POPC   C2B73100  21.340  13.059   6.764
 5781POPC   C3B73101  21.354  13.143   7.064
 5781POPC   C4B73102  21.372  13.135   7.364
 5782POPC   NC373103  22.953   0.470   5.564
 5782POPC   PO473104  22.927   0.480   5.864
 5782POPC   GL173105  22.912   0.447   6.164
 5782POPC   GL273106  23.068   0.350   6.164
 5782POPC   C1A73107  22.979   0.454   6.464
 5782POPC   D2A73108  22.980   0.475   6.764
 5782POPC   C3A73109  22.928   0.403   7.064
 5782POPC   C4A73110  22.980   0.457   7.364
 5782POPC   C1B73111  23.163   0.285   6.464
 5782POPC   C2B73112  23.107   0.275   6.764
 5782POPC   C3B73113  23.111   0.320   7.064
 5782POPC   C4B73114  23.092   0.243   7.364
 5783POPC   NC373115  14.436  32.223   5.564
 5783POPC   PO473116  14.378  32.283   5.864
 5783POPC   GL173117  14.428  32.293   6.164
 5783POPC   GL273118  14.344  32.105   6.164
 5783POPC   C1A73119  14.392  32.245   6.464
 5783POPC   D2A73120  14.420  32.268   6.764
 5783POPC   C3A73121  14.398  32.280   7.064
 5783POPC   C4A73122  14.354  32.234   7.364
 5783POPC   C1B73123  14.352  32.030   6.464
 5783POPC   C2B73124  14.306  31.996   6.764
 5783POPC   C3B73125  14.299  31.965   7.064
 5783POPC   C4B73126  14.296  32.023   7.364
 5784POPC   NC373127  10.565  40.032   5.564
 5784POPC   PO473128  10.565  39.977   5.864
 5784POPC   GL173129  10.561  40.026   6.164
 5784POPC   GL273130  10.606  39.896   6.164
 5784POPC   C1A73131  10.571  40.012   6.464
 5784POPC   D2A73132  10.534  40.046   6.764
 5784POPC   C3A73133  10.548  40.048   7.064
 5784POPC   C4A73134  10.509  39.971   7.364
 5784POPC   C1B73135  10.570  39.813   6.464
 5784POPC   C2B73136  10.603  39.803   6.764
 5784POPC   C3B73137  10.607  39.758   7.064
 5784POPC   C4B73138  10.584  39.801   7.364
 5785POPC   NC373139  19.861  33.058   5.564
 5785POPC   PO473140  19.853  32.983   5.864
 5785POPC   GL173141  19.832  33.008   6.164
 5785POPC   GL273142  19.817  32.875   6.164
 5785POPC   C1A73143  19.828  33.004   6.464
 5785POPC   D2A73144  19.851  32.976   6.764
 5785POPC   C3A73145  19.880  33.067   7.064
 5785POPC   C4A73146  19.806  33.051   7.364
 5785POPC   C1B73147  19.845  32.790   6.464
 5785POPC   C2B73148  19.835  32.793   6.764
 5785POPC   C3B73149  19.847  32.769   7.064
 5785POPC   C4B73150  19.897  32.773   7.364
 5786POPC   NC373151  26.085   4.320   5.564
 5786POPC   PO473152  26.048   4.351   5.864
 5786POPC   GL173153  25.995   4.288   6.164
 5786POPC   GL273154  25.994   4.449   6.164
 5786POPC   C1A73155  26.060   4.319   6.464
 5786POPC   D2A73156  26.074   4.280   6.764
 5786POPC   C3A73157  26.063   4.348   7.064
 5786POPC   C4A73158  26.082   4.285   7.364
 5786POPC   C1B73159  25.811   4.442   6.464
 5786POPC   C2B73160  25.900   4.450   6.764
 5786POPC   C3B73161  25.869   4.509   7.064
 5786POPC   C4B73162  25.899   4.480   7.364
 5787POPC   NC373163   1.205  37.660   5.564
 5787POPC   PO473164   1.257  37.633   5.864
 5787POPC   GL173165   1.205  37.690   6.164
 5787POPC   GL273166   1.102  37.798   6.164
 5787POPC   C1A73167   1.243  37.705   6.464
 5787POPC   D2A73168   1.166  37.643   6.764
 5787POPC   C3A73169   1.218  37.656   7.064
 5787POPC   C4A73170   1.206  37.705   7.364
 5787POPC   C1B73171   1.029  37.805   6.464
 5787POPC   C2B73172   1.041  37.847   6.764
 5787POPC   C3B73173   1.055  37.850   7.064
 5787POPC   C4B73174   1.060  37.829   7.364
 5788POPC   NC373175  35.336  17.505   5.564
 5788POPC   PO473176  35.371  17.458   5.864
 5788POPC   GL173177  35.383  17.533   6.164
 5788POPC   GL273178  35.485  17.511   6.164
 5788POPC   C1A73179  35.384  17.542   6.464
 5788POPC   D2A73180  35.335  17.533   6.764
 5788POPC   C3A73181  35.338  17.506   7.064
 5788POPC   C4A73182  35.354  17.515   7.364
 5788POPC   C1B73183  35.613  17.509   6.464
 5788POPC   C2B73184  35.587  17.521   6.764
 5788POPC   C3B73185  35.582  17.558   7.064
 5788POPC   C4B73186  35.603  17.543   7.364
 5789POPC   NC373187  22.200   6.619   5.564
 5789POPC   PO473188  22.139   6.656   5.864
 5789POPC   GL173189  22.156   6.666   6.164
 5789POPC   GL273190  22.156   6.721   6.164
 5789POPC   C1A73191  22.125   6.649   6.464
 5789POPC   D2A73192  22.194   6.674   6.764
 5789POPC   C3A73193  22.187   6.689   7.064
 5789POPC   C4A73194  22.184   6.645   7.364
 5789POPC   C1B73195  22.144   6.928   6.464
 5789POPC   C2B73196  22.130   6.927   6.764
 5789POPC   C3B73197  22.086   6.925   7.064
 5789POPC   C4B73198  22.106   6.900   7.364
 5790POPC   NC373199  22.927  23.699   5.564
 5790POPC   PO473200  22.923  23.682   5.864
 5790POPC   GL173201  22.962  23.711   6.164
 5790POPC   GL273202  23.084  23.765   6.164
 5790POPC   C1A73203  22.910  23.755   6.464
 5790POPC   D2A73204  22.917  23.716   6.764
 5790POPC   C3A73205  22.893  23.757   7.064
 5790POPC   C4A73206  22.909  23.725   7.364
 5790POPC   C1B73207  23.232  23.789   6.464
 5790POPC   C2B73208  23.217  23.789   6.764
 5790POPC   C3B73209  23.226  23.755   7.064
 5790POPC   C4B73210  23.161  23.799   7.364
 5791POPC   NC373211  38.471   6.665   5.564
 5791POPC   PO473212  38.414   6.642   5.864
 5791POPC   GL173213  38.486   6.647   6.164
 5791POPC   GL273214  38.379   6.791   6.164
 5791POPC   C1A73215  38.465   6.644   6.464
 5791POPC   D2A73216  38.502   6.639   6.764
 5791POPC   C3A73217  38.487   6.664   7.064
 5791POPC   C4A73218  38.423   6.674   7.364
 5791POPC   C1B73219  38.340   6.848   6.464
 5791POPC   C2B73220  38.315   6.869   6.764
 5791POPC   C3B73221  38.336   6.804   7.064
 5791POPC   C4B73222  38.290   6.865   7.364
 5792POPC   NC373223  10.532  15.929   5.564
 5792POPC   PO473224  10.506  15.910   5.864
 5792POPC   GL173225  10.526  16.000   6.164
 5792POPC   GL273226  10.590  15.849   6.164
 5792POPC   C1A73227  10.516  15.959   6.464
 5792POPC   D2A73228  10.536  15.993   6.764
 5792POPC   C3A73229  10.543  15.994   7.064
 5792POPC   C4A73230  10.534  15.962   7.364
 5792POPC   C1B73231  10.636  15.699   6.464
 5792POPC   C2B73232  10.646  15.706   6.764
 5792POPC   C3B73233  10.583  15.687   7.064
 5792POPC   C4B73234  10.606  15.671   7.364
 5793POPC   NC373235  18.283  12.830   5.564
 5793POPC   PO473236  18.287  12.859   5.864
 5793POPC   GL173237  18.284  12.811   6.164
 5793POPC   GL273238  18.184  12.953   6.164
 5793POPC   C1A73239  18.288  12.836   6.464
 5793POPC   D2A73240  18.241  12.832   6.764
 5793POPC   C3A73241  18.265  12.861   7.064
 5793POPC   C4A73242  18.253  12.868   7.364
 5793POPC   C1B73243  18.166  13.100   6.464
 5793POPC   C2B73244  18.175  13.031   6.764
 5793POPC   C3B73245  18.186  13.039   7.064
 5793POPC   C4B73246  18.167  13.082   7.364
 5794POPC   NC373247  29.908  20.589   5.564
 5794POPC   PO473248  29.947  20.629   5.864
 5794POPC   GL173249  29.954  20.632   6.164
 5794POPC   GL273250  29.873  20.750   6.164
 5794POPC   C1A73251  29.887  20.573   6.464
 5794POPC   D2A73252  29.933  20.639   6.764
 5794POPC   C3A73253  29.882  20.644   7.064
 5794POPC   C4A73254  29.951  20.574   7.364
 5794POPC   C1B73255  29.756  20.811   6.464
 5794POPC   C2B73256  29.757  20.825   6.764
 5794POPC   C3B73257  29.769  20.761   7.064
 5794POPC   C4B73258  29.741  20.849   7.364
 5795POPC   NC373259  20.579  28.364   5.564
 5795POPC   PO473260  20.614  28.363   5.864
 5795POPC   GL173261  20.575  28.380   6.164
 5795POPC   GL273262  20.704  28.266   6.164
 5795POPC   C1A73263  20.598  28.419   6.464
 5795POPC   D2A73264  20.578  28.363   6.764
 5795POPC   C3A73265  20.624  28.353   7.064
 5795POPC   C4A73266  20.605  28.358   7.364
 5795POPC   C1B73267  20.801  28.226   6.464
 5795POPC   C2B73268  20.832  28.285   6.764
 5795POPC   C3B73269  20.812  28.285   7.064
 5795POPC   C4B73270  20.823  28.232   7.364
 5796POPC   NC373271  19.785  29.173   5.564
 5796POPC   PO473272  19.790  29.139   5.864
 5796POPC   GL173273  19.876  29.169   6.164
 5796POPC   GL273274  19.751  29.066   6.164
 5796POPC   C1A73275  19.850  29.099   6.464
 5796POPC   D2A73276  19.833  29.184   6.764
 5796POPC   C3A73277  19.795  29.101   7.064
 5796POPC   C4A73278  19.799  29.111   7.364
 5796POPC   C1B73279  19.716  28.944   6.464
 5796POPC   C2B73280  19.669  28.906   6.764
 5796POPC   C3B73281  19.745  28.906   7.064
 5796POPC   C4B73282  19.722  28.900   7.364
 5797POPC   NC373283  34.568  28.358   5.564
 5797POPC   PO473284  34.535  28.373   5.864
 5797POPC   GL173285  34.528  28.331   6.164
 5797POPC   GL273286  34.501  28.205   6.164
 5797POPC   C1A73287  34.626  28.417   6.464
 5797POPC   D2A73288  34.561  28.359   6.764
 5797POPC   C3A73289  34.560  28.331   7.064
 5797POPC   C4A73290  34.529  28.400   7.364
 5797POPC   C1B73291  34.475  28.191   6.464
 5797POPC   C2B73292  34.490  28.157   6.764
 5797POPC   C3B73293  34.511  28.176   7.064
 5797POPC   C4B73294  34.472  28.132   7.364
 5798POPC   NC373295  39.226  22.909   5.564
 5798POPC   PO473296  39.281  22.907   5.864
 5798POPC   GL173297  39.225  22.941   6.164
 5798POPC   GL273298  39.344  22.990   6.164
 5798POPC   C1A73299  39.206  22.961   6.464
 5798POPC   D2A73300  39.236  22.944   6.764
 5798POPC   C3A73301  39.238  22.981   7.064
 5798POPC   C4A73302  39.199  22.934   7.364
 5798POPC   C1B73303  39.450  23.143   6.464
 5798POPC   C2B73304  39.424  23.058   6.764
 5798POPC   C3B73305  39.455  23.125   7.064
 5798POPC   C4B73306  39.396  23.129   7.364
 5799POPC   NC373307  43.074  44.626   5.564
 5799POPC   PO473308  43.063  44.627   5.864
 5799POPC   GL173309  43.159  44.640   6.164
 5799POPC   GL273310  42.975  44.541   6.164
 5799POPC   C1A73311  43.065  44.702   6.464
 5799POPC   D2A73312  43.080  44.681   6.764
 5799POPC   C3A73313  43.068  44.660   7.064
 5799POPC   C4A73314  43.078  44.699   7.364
 5799POPC   C1B73315  42.933  44.447   6.464
 5799POPC   C2B73316  42.926  44.434   6.764
 5799POPC   C3B73317  42.888  44.457   7.064
 5799POPC   C4B73318  42.923  44.442   7.364
 5800POPC   NC373319  13.670  39.203   5.564
 5800POPC   PO473320  13.669  39.225   5.864
 5800POPC   GL173321  13.673  39.242   6.164
 5800POPC   GL273322  13.577  39.337   6.164
 5800POPC   C1A73323  13.651  39.213   6.464
 5800POPC   D2A73324  13.642  39.236   6.764
 5800POPC   C3A73325  13.583  39.210   7.064
 5800POPC   C4A73326  13.671  39.266   7.364
 5800POPC   C1B73327  13.619  39.491   6.464
 5800POPC   C2B73328  13.650  39.504   6.764
 5800POPC   C3B73329  13.615  39.487   7.064
 5800POPC   C4B73330  13.636  39.523   7.364
 5801POPC   NC373331   5.072   8.953   5.564
 5801POPC   PO473332   5.075   8.947   5.864
 5801POPC   GL173333   5.089   8.998   6.164
 5801POPC   GL273334   5.116   8.803   6.164
 5801POPC   C1A73335   5.134   8.947   6.464
 5801POPC   D2A73336   5.072   9.018   6.764
 5801POPC   C3A73337   5.092   8.972   7.064
 5801POPC   C4A73338   5.083   8.960   7.364
 5801POPC   C1B73339   5.193   8.759   6.464
 5801POPC   C2B73340   5.178   8.773   6.764
 5801POPC   C3B73341   5.198   8.710   7.064
 5801POPC   C4B73342   5.109   8.708   7.364
 5802POPC   NC373343   8.246  40.046   5.564
 5802POPC   PO473344   8.217  40.027   5.864
 5802POPC   GL173345   8.245  40.026   6.164
 5802POPC   GL273346   8.284  39.892   6.164
 5802POPC   C1A73347   8.174  40.054   6.464
 5802POPC   D2A73348   8.222  40.045   6.764
 5802POPC   C3A73349   8.223  40.025   7.064
 5802POPC   C4A73350   8.173  40.016   7.364
 5802POPC   C1B73351   8.348  39.832   6.464
 5802POPC   C2B73352   8.365  39.798   6.764
 5802POPC   C3B73353   8.356  39.821   7.064
 5802POPC   C4B73354   8.373  39.856   7.364
 5803POPC   NC373355  26.861  22.125   5.564
 5803POPC   PO473356  26.811  22.200   5.864
 5803POPC   GL173357  26.857  22.121   6.164
 5803POPC   GL273358  26.660  22.174   6.164
 5803POPC   C1A73359  26.823  22.207   6.464
 5803POPC   D2A73360  26.812  22.159   6.764
 5803POPC   C3A73361  26.859  22.134   7.064
 5803POPC   C4A73362  26.798  22.191   7.364
 5803POPC   C1B73363  26.550  22.104   6.464
 5803POPC   C2B73364  26.562  22.139   6.764
 5803POPC   C3B73365  26.621  22.108   7.064
 5803POPC   C4B73366  26.621  22.119   7.364
 5804POPC   NC373367   0.454  41.608   5.564
 5804POPC   PO473368   0.434  41.576   5.864
 5804POPC   GL173369   0.399  41.576   6.164
 5804POPC   GL273370   0.596  41.544   6.164
 5804POPC   C1A73371   0.422  41.540   6.464
 5804POPC   D2A73372   0.449  41.593   6.764
 5804POPC   C3A73373   0.402  41.589   7.064
 5804POPC   C4A73374   0.459  41.564   7.364
 5804POPC   C1B73375   0.698  41.540   6.464
 5804POPC   C2B73376   0.727  41.489   6.764
 5804POPC   C3B73377   0.672  41.541   7.064
 5804POPC   C4B73378   0.728  41.565   7.364
 5805POPC   NC373379  11.303  33.811   5.564
 5805POPC   PO473380  11.342  33.823   5.864
 5805POPC   GL173381  11.284  33.812   6.164
 5805POPC   GL273382  11.291  33.875   6.164
 5805POPC   C1A73383  11.337  33.783   6.464
 5805POPC   D2A73384  11.312  33.826   6.764
 5805POPC   C3A73385  11.253  33.804   7.064
 5805POPC   C4A73386  11.334  33.777   7.364
 5805POPC   C1B73387  11.280  34.038   6.464
 5805POPC   C2B73388  11.299  34.008   6.764
 5805POPC   C3B73389  11.271  34.073   7.064
 5805POPC   C4B73390  11.273  34.075   7.364
 5806POPC   NC373391  12.846  33.837   5.564
 5806POPC   PO473392  12.806  33.763   5.864
 5806POPC   GL173393  12.815  33.845   6.164
 5806POPC   GL273394  12.808  33.643   6.164
 5806POPC   C1A73395  12.813  33.842   6.464
 5806POPC   D2A73396  12.839  33.833   6.764
 5806POPC   C3A73397  12.832  33.788   7.064
 5806POPC   C4A73398  12.809  33.802   7.364
 5806POPC   C1B73399  12.791  33.608   6.464
 5806POPC   C2B73400  12.811  33.565   6.764
 5806POPC   C3B73401  12.778  33.544   7.064
 5806POPC   C4B73402  12.810  33.575   7.364
 5807POPC   NC373403  36.122   1.973   5.564
 5807POPC   PO473404  36.093   1.970   5.864
 5807POPC   GL173405  36.147   1.988   6.164
 5807POPC   GL273406  36.252   1.962   6.164
 5807POPC   C1A73407  36.167   1.986   6.464
 5807POPC   D2A73408  36.175   1.962   6.764
 5807POPC   C3A73409  36.089   1.959   7.064
 5807POPC   C4A73410  36.085   1.995   7.364
 5807POPC   C1B73411  36.377   1.906   6.464
 5807POPC   C2B73412  36.384   1.950   6.764
 5807POPC   C3B73413  36.350   1.955   7.064
 5807POPC   C4B73414  36.415   1.959   7.364
 5808POPC   NC373415  22.134  17.542   5.564
 5808POPC   PO473416  22.190  17.469   5.864
 5808POPC   GL173417  22.187  17.538   6.164
 5808POPC   GL273418  22.213  17.613   6.164
 5808POPC   C1A73419  22.157  17.515   6.464
 5808POPC   D2A73420  22.165  17.482   6.764
 5808POPC   C3A73421  22.186  17.517   7.064
 5808POPC   C4A73422  22.122  17.459   7.364
 5808POPC   C1B73423  22.292  17.732   6.464
 5808POPC   C2B73424  22.338  17.707   6.764
 5808POPC   C3B73425  22.302  17.696   7.064
 5808POPC   C4B73426  22.306  17.751   7.364
 5809POPC   NC373427  34.585  36.912   5.564
 5809POPC   PO473428  34.531  36.912   5.864
 5809POPC   GL173429  34.558  36.870   6.164
 5809POPC   GL273430  34.743  36.893   6.164
 5809POPC   C1A73431  34.597  36.896   6.464
 5809POPC   D2A73432  34.608  36.936   6.764
 5809POPC   C3A73433  34.600  36.857   7.064
 5809POPC   C4A73434  34.554  36.896   7.364
 5809POPC   C1B73435  34.872  36.895   6.464
 5809POPC   C2B73436  34.804  36.916   6.764
 5809POPC   C3B73437  34.823  36.855   7.064
 5809POPC   C4B73438  34.845  36.853   7.364
 5810POPC   NC373439  32.289  29.161   5.564
 5810POPC   PO473440  32.278  29.125   5.864
 5810POPC   GL173441  32.235  29.192   6.164
 5810POPC   GL273442  32.092  29.217   6.164
 5810POPC   C1A73443  32.216  29.173   6.464
 5810POPC   D2A73444  32.257  29.146   6.764
 5810POPC   C3A73445  32.269  29.170   7.064
 5810POPC   C4A73446  32.296  29.133   7.364
 5810POPC   C1B73447  32.041  29.299   6.464
 5810POPC   C2B73448  31.983  29.238   6.764
 5810POPC   C3B73449  32.010  29.228   7.064
 5810POPC   C4B73450  32.054  29.213   7.364
 5811POPC   NC373451  27.584  12.121   5.564
 5811POPC   PO473452  27.577  12.035   5.864
 5811POPC   GL173453  27.636  12.104   6.164
 5811POPC   GL273454  27.504  12.048   6.164
 5811POPC   C1A73455  27.548  12.054   6.464
 5811POPC   D2A73456  27.556  12.037   6.764
 5811POPC   C3A73457  27.617  12.060   7.064
 5811POPC   C4A73458  27.585  12.050   7.364
 5811POPC   C1B73459  27.394  12.158   6.464
 5811POPC   C2B73460  27.300  12.148   6.764
 5811POPC   C3B73461  27.361  12.119   7.064
 5811POPC   C4B73462  27.303  12.097   7.364
 5812POPC   NC373463  19.102   3.557   5.564
 5812POPC   PO473464  19.087   3.583   5.864
 5812POPC   GL173465  19.009   3.555   6.164
 5812POPC   GL273466  19.048   3.434   6.164
 5812POPC   C1A73467  19.066   3.575   6.464
 5812POPC   D2A73468  19.064   3.494   6.764
 5812POPC   C3A73469  19.082   3.576   7.064
 5812POPC   C4A73470  19.032   3.526   7.364
 5812POPC   C1B73471  19.008   3.328   6.464
 5812POPC   C2B73472  18.981   3.314   6.764
 5812POPC   C3B73473  18.988   3.246   7.064
 5812POPC   C4B73474  18.990   3.331   7.364
 5813POPC   NC373475   1.169  21.424   5.564
 5813POPC   PO473476   1.217  21.365   5.864
 5813POPC   GL173477   1.196  21.336   6.164
 5813POPC   GL273478   1.082  21.309   6.164
 5813POPC   C1A73479   1.263  21.364   6.464
 5813POPC   D2A73480   1.240  21.386   6.764
 5813POPC   C3A73481   1.186  21.359   7.064
 5813POPC   C4A73482   1.193  21.345   7.364
 5813POPC   C1B73483   0.981  21.204   6.464
 5813POPC   C2B73484   0.975  21.238   6.764
 5813POPC   C3B73485   0.978  21.215   7.064
 5813POPC   C4B73486   0.994  21.280   7.364
 5814POPC   NC373487  37.728  29.162   5.564
 5814POPC   PO473488  37.656  29.147   5.864
 5814POPC   GL173489  37.654  29.148   6.164
 5814POPC   GL273490  37.638  29.271   6.164
 5814POPC   C1A73491  37.632  29.111   6.464
 5814POPC   D2A73492  37.703  29.156   6.764
 5814POPC   C3A73493  37.645  29.188   7.064
 5814POPC   C4A73494  37.702  29.105   7.364
 5814POPC   C1B73495  37.550  29.359   6.464
 5814POPC   C2B73496  37.544  29.332   6.764
 5814POPC   C3B73497  37.556  29.329   7.064
 5814POPC   C4B73498  37.583  29.339   7.364
 5815POPC   NC373499  29.129   8.163   5.564
 5815POPC   PO473500  29.107   8.179   5.864
 5815POPC   GL173501  29.121   8.200   6.164
 5815POPC   GL273502  29.235   8.119   6.164
 5815POPC   C1A73503  29.154   8.216   6.464
 5815POPC   D2A73504  29.110   8.188   6.764
 5815POPC   C3A73505  29.148   8.185   7.064
 5815POPC   C4A73506  29.139   8.230   7.364
 5815POPC   C1B73507  29.251   7.967   6.464
 5815POPC   C2B73508  29.263   7.962   6.764
 5815POPC   C3B73509  29.266   7.982   7.064
 5815POPC   C4B73510  29.331   7.969   7.364
 5816POPC   NC373511  38.443   0.395   5.564
 5816POPC   PO473512  38.497   0.398   5.864
 5816POPC   GL173513  38.478   0.419   6.164
 5816POPC   GL273514  38.365   0.527   6.164
 5816POPC   C1A73515  38.454   0.431   6.464
 5816POPC   D2A73516  38.448   0.416   6.764
 5816POPC   C3A73517  38.446   0.432   7.064
 5816POPC   C4A73518  38.482   0.485   7.364
 5816POPC   C1B73519  38.356   0.676   6.464
 5816POPC   C2B73520  38.350   0.643   6.764
 5816POPC   C3B73521  38.345   0.649   7.064
 5816POPC   C4B73522  38.355   0.643   7.364
 5817POPC   NC373523  29.097  15.146   5.564
 5817POPC   PO473524  29.117  15.192   5.864
 5817POPC   GL173525  29.106  15.141   6.164
 5817POPC   GL273526  29.230  15.153   6.164
 5817POPC   C1A73527  29.194  15.225   6.464
 5817POPC   D2A73528  29.130  15.141   6.764
 5817POPC   C3A73529  29.119  15.165   7.064
 5817POPC   C4A73530  29.113  15.198   7.364
 5817POPC   C1B73531  29.363  15.162   6.464
 5817POPC   C2B73532  29.387  15.213   6.764
 5817POPC   C3B73533  29.346  15.189   7.064
 5817POPC   C4B73534  29.378  15.120   7.364
 5818POPC   NC373535   6.691  33.064   5.564
 5818POPC   PO473536   6.681  32.984   5.864
 5818POPC   GL173537   6.654  33.049   6.164
 5818POPC   GL273538   6.724  33.129   6.164
 5818POPC   C1A73539   6.610  33.031   6.464
 5818POPC   D2A73540   6.692  33.026   6.764
 5818POPC   C3A73541   6.633  33.001   7.064
 5818POPC   C4A73542   6.598  33.008   7.364
 5818POPC   C1B73543   6.823  33.231   6.464
 5818POPC   C2B73544   6.812  33.206   6.764
 5818POPC   C3B73545   6.787  33.205   7.064
 5818POPC   C4B73546   6.815  33.215   7.364
 5819POPC   NC373547   8.997  26.011   5.564
 5819POPC   PO473548   9.006  26.079   5.864
 5819POPC   GL173549   8.937  26.089   6.164
 5819POPC   GL273550   9.053  26.175   6.164
 5819POPC   C1A73551   9.007  26.060   6.464
 5819POPC   D2A73552   8.961  26.015   6.764
 5819POPC   C3A73553   8.949  25.997   7.064
 5819POPC   C4A73554   9.019  26.018   7.364
 5819POPC   C1B73555   9.064  26.312   6.464
 5819POPC   C2B73556   9.027  26.244   6.764
 5819POPC   C3B73557   9.053  26.276   7.064
 5819POPC   C4B73558   9.072  26.290   7.364
 5820POPC   NC373559  17.504  34.569   5.564
 5820POPC   PO473560  17.552  34.543   5.864
 5820POPC   GL173561  17.539  34.536   6.164
 5820POPC   GL273562  17.643  34.607   6.164
 5820POPC   C1A73563  17.543  34.585   6.464
 5820POPC   D2A73564  17.535  34.597   6.764
 5820POPC   C3A73565  17.471  34.616   7.064
 5820POPC   C4A73566  17.527  34.557   7.364
 5820POPC   C1B73567  17.727  34.706   6.464
 5820POPC   C2B73568  17.735  34.710   6.764
 5820POPC   C3B73569  17.730  34.773   7.064
 5820POPC   C4B73570  17.652  34.704   7.364
 5821POPC   NC373571  44.632  10.535   5.564
 5821POPC   PO473572  44.664  10.546   5.864
 5821POPC   GL173573  44.629  10.564   6.164
 5821POPC   GL273574  44.824  10.553   6.164
 5821POPC   C1A73575  44.638  10.525   6.464
 5821POPC   D2A73576  44.638  10.522   6.764
 5821POPC   C3A73577  44.689  10.503   7.064
 5821POPC   C4A73578  44.613  10.524   7.364
 5821POPC   C1B73579  44.911  10.553   6.464
 5821POPC   C2B73580  44.903  10.554   6.764
 5821POPC   C3B73581  44.887  10.488   7.064
 5821POPC   C4B73582  44.919  10.467   7.364
 5822POPC   NC373583  14.416  43.873   5.564
 5822POPC   PO473584  14.435  43.872   5.864
 5822POPC   GL173585  14.427  43.909   6.164
 5822POPC   GL273586  14.276  43.828   6.164
 5822POPC   C1A73587  14.397  43.904   6.464
 5822POPC   D2A73588  14.357  43.871   6.764
 5822POPC   C3A73589  14.399  43.921   7.064
 5822POPC   C4A73590  14.409  43.912   7.364
 5822POPC   C1B73591  14.222  43.766   6.464
 5822POPC   C2B73592  14.145  43.772   6.764
 5822POPC   C3B73593  14.172  43.733   7.064
 5822POPC   C4B73594  14.228  43.712   7.364
 5823POPC   NC373595  38.422   8.203   5.564
 5823POPC   PO473596  38.504   8.149   5.864
 5823POPC   GL173597  38.451   8.231   6.164
 5823POPC   GL273598  38.529   8.237   6.164
 5823POPC   C1A73599  38.479   8.195   6.464
 5823POPC   D2A73600  38.420   8.153   6.764
 5823POPC   C3A73601  38.425   8.204   7.064
 5823POPC   C4A73602  38.416   8.174   7.364
 5823POPC   C1B73603  38.598   8.326   6.464
 5823POPC   C2B73604  38.636   8.340   6.764
 5823POPC   C3B73605  38.665   8.377   7.064
 5823POPC   C4B73606  38.688   8.336   7.364
 5824POPC   NC373607   8.160  13.623   5.564
 5824POPC   PO473608   8.216  13.636   5.864
 5824POPC   GL173609   8.223  13.640   6.164
 5824POPC   GL273610   8.128  13.544   6.164
 5824POPC   C1A73611   8.216  13.618   6.464
 5824POPC   D2A73612   8.171  13.604   6.764
 5824POPC   C3A73613   8.152  13.642   7.064
 5824POPC   C4A73614   8.159  13.626   7.364
 5824POPC   C1B73615   8.012  13.470   6.464
 5824POPC   C2B73616   7.967  13.431   6.764
 5824POPC   C3B73617   7.967  13.468   7.064
 5824POPC   C4B73618   7.968  13.513   7.364
 5825POPC   NC373619  17.495  24.506   5.564
 5825POPC   PO473620  17.488  24.517   5.864
 5825POPC   GL173621  17.512  24.470   6.164
 5825POPC   GL273622  17.535  24.372   6.164
 5825POPC   C1A73623  17.548  24.492   6.464
 5825POPC   D2A73624  17.462  24.486   6.764
 5825POPC   C3A73625  17.466  24.494   7.064
 5825POPC   C4A73626  17.495  24.512   7.364
 5825POPC   C1B73627  17.517  24.217   6.464
 5825POPC   C2B73628  17.590  24.199   6.764
 5825POPC   C3B73629  17.525  24.234   7.064
 5825POPC   C4B73630  17.533  24.270   7.364
 5826POPC   NC373631  43.154  18.309   5.564
 5826POPC   PO473632  43.098  18.279   5.864
 5826POPC   GL173633  43.098  18.251   6.164
 5826POPC   GL273634  43.067  18.356   6.164
 5826POPC   C1A73635  43.155  18.310   6.464
 5826POPC   D2A73636  43.118  18.329   6.764
 5826POPC   C3A73637  43.093  18.313   7.064
 5826POPC   C4A73638  43.078  18.328   7.364
 5826POPC   C1B73639  42.956  18.453   6.464
 5826POPC   C2B73640  42.981  18.529   6.764
 5826POPC   C3B73641  42.925  18.465   7.064
 5826POPC   C4B73642  43.000  18.506   7.364
 5827POPC   NC373643  30.731  43.137   5.564
 5827POPC   PO473644  30.741  43.102   5.864
 5827POPC   GL173645  30.653  43.096   6.164
 5827POPC   GL273646  30.800  43.088   6.164
 5827POPC   C1A73647  30.650  43.129   6.464
 5827POPC   D2A73648  30.727  43.087   6.764
 5827POPC   C3A73649  30.717  43.153   7.064
 5827POPC   C4A73650  30.732  43.071   7.364
 5827POPC   C1B73651  30.903  43.100   6.464
 5827POPC   C2B73652  30.989  43.058   6.764
 5827POPC   C3B73653  30.908  43.098   7.064
 5827POPC   C4B73654  30.904  43.072   7.364
 5828POPC   NC373655  14.381  15.221   5.564
 5828POPC   PO473656  14.451  15.141   5.864
 5828POPC   GL173657  14.357  15.174   6.164
 5828POPC   GL273658  14.320  15.067   6.164
 5828POPC   C1A73659  14.409  15.165   6.464
 5828POPC   D2A73660  14.449  15.228   6.764
 5828POPC   C3A73661  14.379  15.133   7.064
 5828POPC   C4A73662  14.439  15.179   7.364
 5828POPC   C1B73663  14.277  14.936   6.464
 5828POPC   C2B73664  14.295  14.989   6.764
 5828POPC   C3B73665  14.270  15.001   7.064
 5828POPC   C4B73666  14.266  15.004   7.364
 5829POPC   NC373667  36.163   0.400   5.564
 5829POPC   PO473668  36.167   0.478   5.864
 5829POPC   GL173669  36.120   0.414   6.164
 5829POPC   GL273670  36.222   0.524   6.164
 5829POPC   C1A73671  36.141   0.464   6.464
 5829POPC   D2A73672  36.170   0.408   6.764
 5829POPC   C3A73673  36.173   0.446   7.064
 5829POPC   C4A73674  36.145   0.438   7.364
 5829POPC   C1B73675  36.342   0.603   6.464
 5829POPC   C2B73676  36.306   0.585   6.764
 5829POPC   C3B73677  36.368   0.584   7.064
 5829POPC   C4B73678  36.380   0.562   7.364
 5830POPC   NC373679   7.470  27.636   5.564
 5830POPC   PO473680   7.434  27.544   5.864
 5830POPC   GL173681   7.440  27.549   6.164
 5830POPC   GL273682   7.257  27.623   6.164
 5830POPC   C1A73683   7.430  27.623   6.464
 5830POPC   D2A73684   7.405  27.559   6.764
 5830POPC   C3A73685   7.459  27.569   7.064
 5830POPC   C4A73686   7.371  27.634   7.364
 5830POPC   C1B73687   7.207  27.590   6.464
 5830POPC   C2B73688   7.206  27.556   6.764
 5830POPC   C3B73689   7.145  27.573   7.064
 5830POPC   C4B73690   7.136  27.622   7.364
 5831POPC   NC373691   2.809  42.307   5.564
 5831POPC   PO473692   2.724  42.301   5.864
 5831POPC   GL173693   2.721  42.309   6.164
 5831POPC   GL273694   2.627  42.277   6.164
 5831POPC   C1A73695   2.718  42.349   6.464
 5831POPC   D2A73696   2.724  42.380   6.764
 5831POPC   C3A73697   2.753  42.290   7.064
 5831POPC   C4A73698   2.720  42.318   7.364
 5831POPC   C1B73699   2.602  42.216   6.464
 5831POPC   C2B73700   2.598  42.151   6.764
 5831POPC   C3B73701   2.538  42.181   7.064
 5831POPC   C4B73702   2.548  42.157   7.364
 5832POPC   NC373703  35.320  15.932   5.564
 5832POPC   PO473704  35.376  15.910   5.864
 5832POPC   GL173705  35.366  15.967   6.164
 5832POPC   GL273706  35.385  16.125   6.164
 5832POPC   C1A73707  35.351  15.973   6.464
 5832POPC   D2A73708  35.374  15.907   6.764
 5832POPC   C3A73709  35.336  15.976   7.064
 5832POPC   C4A73710  35.382  15.967   7.364
 5832POPC   C1B73711  35.303  16.226   6.464
 5832POPC   C2B73712  35.294  16.232   6.764
 5832POPC   C3B73713  35.358  16.231   7.064
 5832POPC   C4B73714  35.353  16.176   7.364
 5833POPC   NC373715  24.476  23.667   5.564
 5833POPC   PO473716  24.477  23.695   5.864
 5833POPC   GL173717  24.481  23.711   6.164
 5833POPC   GL273718  24.395  23.711   6.164
 5833POPC   C1A73719  24.455  23.735   6.464
 5833POPC   D2A73720  24.454  23.698   6.764
 5833POPC   C3A73721  24.521  23.679   7.064
 5833POPC   C4A73722  24.535  23.751   7.364
 5833POPC   C1B73723  24.265  23.764   6.464
 5833POPC   C2B73724  24.243  23.716   6.764
 5833POPC   C3B73725  24.283  23.764   7.064
 5833POPC   C4B73726  24.211  23.702   7.364
 5834POPC   NC373727   9.018   5.136   5.564
 5834POPC   PO473728   8.952   5.055   5.864
 5834POPC   GL173729   8.933   5.072   6.164
 5834POPC   GL273730   8.898   5.221   6.164
 5834POPC   C1A73731   9.000   5.140   6.464
 5834POPC   D2A73732   9.012   5.133   6.764
 5834POPC   C3A73733   8.946   5.123   7.064
 5834POPC   C4A73734   8.987   5.109   7.364
 5834POPC   C1B73735   8.876   5.337   6.464
 5834POPC   C2B73736   8.899   5.361   6.764
 5834POPC   C3B73737   8.900   5.339   7.064
 5834POPC   C4B73738   8.868   5.306   7.364
 5835POPC   NC373739  17.507  23.715   5.564
 5835POPC   PO473740  17.489  23.758   5.864
 5835POPC   GL173741  17.514  23.708   6.164
 5835POPC   GL273742  17.439  23.633   6.164
 5835POPC   C1A73743  17.495  23.669   6.464
 5835POPC   D2A73744  17.533  23.667   6.764
 5835POPC   C3A73745  17.483  23.667   7.064
 5835POPC   C4A73746  17.556  23.666   7.364
 5835POPC   C1B73747  17.434  23.454   6.464
 5835POPC   C2B73748  17.457  23.443   6.764
 5835POPC   C3B73749  17.386  23.495   7.064
 5835POPC   C4B73750  17.400  23.481   7.364
 5836POPC   NC373751  31.433   1.171   5.564
 5836POPC   PO473752  31.450   1.167   5.864
 5836POPC   GL173753  31.474   1.195   6.164
 5836POPC   GL273754  31.570   1.074   6.164
 5836POPC   C1A73755  31.510   1.198   6.464
 5836POPC   D2A73756  31.511   1.170   6.764
 5836POPC   C3A73757  31.456   1.263   7.064
 5836POPC   C4A73758  31.510   1.244   7.364
 5836POPC   C1B73759  31.596   1.023   6.464
 5836POPC   C2B73760  31.620   0.991   6.764
 5836POPC   C3B73761  31.611   1.000   7.064
 5836POPC   C4B73762  31.625   1.000   7.364
 5837POPC   NC373763   8.202  17.526   5.564
 5837POPC   PO473764   8.156  17.547   5.864
 5837POPC   GL173765   8.204  17.540   6.164
 5837POPC   GL273766   8.160  17.614   6.164
 5837POPC   C1A73767   8.191  17.528   6.464
 5837POPC   D2A73768   8.237  17.537   6.764
 5837POPC   C3A73769   8.180  17.503   7.064
 5837POPC   C4A73770   8.187  17.494   7.364
 5837POPC   C1B73771   8.171  17.769   6.464
 5837POPC   C2B73772   8.135  17.732   6.764
 5837POPC   C3B73773   8.118  17.749   7.064
 5837POPC   C4B73774   8.159  17.774   7.364
 5838POPC   NC373775  17.459   5.869   5.564
 5838POPC   PO473776  17.481   5.865   5.864
 5838POPC   GL173777  17.519   5.903   6.164
 5838POPC   GL273778  17.347   5.894   6.164
 5838POPC   C1A73779  17.542   5.859   6.464
 5838POPC   D2A73780  17.515   5.876   6.764
 5838POPC   C3A73781  17.526   5.897   7.064
 5838POPC   C4A73782  17.526   5.854   7.364
 5838POPC   C1B73783  17.248   5.980   6.464
 5838POPC   C2B73784  17.232   5.954   6.764
 5838POPC   C3B73785  17.325   6.016   7.064
 5838POPC   C4B73786  17.237   5.981   7.364
 5839POPC   NC373787  22.980  13.589   5.564
 5839POPC   PO473788  22.912  13.642   5.864
 5839POPC   GL173789  22.972  13.618   6.164
 5839POPC   GL273790  22.957  13.481   6.164
 5839POPC   C1A73791  22.971  13.639   6.464
 5839POPC   D2A73792  22.939  13.580   6.764
 5839POPC   C3A73793  22.898  13.619   7.064
 5839POPC   C4A73794  22.977  13.651   7.364
 5839POPC   C1B73795  23.095  13.433   6.464
 5839POPC   C2B73796  23.059  13.392   6.764
 5839POPC   C3B73797  23.026  13.367   7.064
 5839POPC   C4B73798  23.101  13.399   7.364
 5840POPC   NC373799  42.307   7.374   5.564
 5840POPC   PO473800  42.350   7.389   5.864
 5840POPC   GL173801  42.357   7.388   6.164
 5840POPC   GL273802  42.456   7.339   6.164
 5840POPC   C1A73803  42.346   7.448   6.464
 5840POPC   D2A73804  42.285   7.435   6.764
 5840POPC   C3A73805  42.381   7.468   7.064
 5840POPC   C4A73806  42.372   7.448   7.364
 5840POPC   C1B73807  42.557   7.316   6.464
 5840POPC   C2B73808  42.540   7.347   6.764
 5840POPC   C3B73809  42.561   7.341   7.064
 5840POPC   C4B73810  42.556   7.337   7.364
 5841POPC   NC373811  40.757  26.080   5.564
 5841POPC   PO473812  40.812  26.004   5.864
 5841POPC   GL173813  40.746  26.040   6.164
 5841POPC   GL273814  40.667  26.143   6.164
 5841POPC   C1A73815  40.736  26.023   6.464
 5841POPC   D2A73816  40.752  26.085   6.764
 5841POPC   C3A73817  40.809  26.030   7.064
 5841POPC   C4A73818  40.739  26.012   7.364
 5841POPC   C1B73819  40.548  26.189   6.464
 5841POPC   C2B73820  40.517  26.130   6.764
 5841POPC   C3B73821  40.571  26.131   7.064
 5841POPC   C4B73822  40.519  26.109   7.364
 5842POPC   NC373823  26.079  39.257   5.564
 5842POPC   PO473824  26.043  39.195   5.864
 5842POPC   GL173825  26.005  39.210   6.164
 5842POPC   GL273826  25.959  39.119   6.164
 5842POPC   C1A73827  26.042  39.261   6.464
 5842POPC   D2A73828  26.037  39.278   6.764
 5842POPC   C3A73829  26.075  39.217   7.064
 5842POPC   C4A73830  26.038  39.274   7.364
 5842POPC   C1B73831  25.800  39.086   6.464
 5842POPC   C2B73832  25.805  39.137   6.764
 5842POPC   C3B73833  25.781  39.082   7.064
 5842POPC   C4B73834  25.789  39.105   7.364
 5843POPC   NC373835  35.379  29.128   5.564
 5843POPC   PO473836  35.369  29.104   5.864
 5843POPC   GL173837  35.351  29.172   6.164
 5843POPC   GL273838  35.393  29.260   6.164
 5843POPC   C1A73839  35.364  29.191   6.464
 5843POPC   D2A73840  35.374  29.102   6.764
 5843POPC   C3A73841  35.349  29.134   7.064
 5843POPC   C4A73842  35.381  29.143   7.364
 5843POPC   C1B73843  35.503  29.339   6.464
 5843POPC   C2B73844  35.527  29.343   6.764
 5843POPC   C3B73845  35.557  29.374   7.064
 5843POPC   C4B73846  35.484  29.371   7.364
 5844POPC   NC373847  16.689  38.424   5.564
 5844POPC   PO473848  16.732  38.434   5.864
 5844POPC   GL173849  16.738  38.409   6.164
 5844POPC   GL273850  16.605  38.417   6.164
 5844POPC   C1A73851  16.723  38.444   6.464
 5844POPC   D2A73852  16.690  38.474   6.764
 5844POPC   C3A73853  16.751  38.439   7.064
 5844POPC   C4A73854  16.693  38.497   7.364
 5844POPC   C1B73855  16.562  38.314   6.464
 5844POPC   C2B73856  16.562  38.280   6.764
 5844POPC   C3B73857  16.571  38.257   7.064
 5844POPC   C4B73858  16.551  38.331   7.364
 5845POPC   NC373859  39.246  27.552   5.564
 5845POPC   PO473860  39.205  27.545   5.864
 5845POPC   GL173861  39.219  27.597   6.164
 5845POPC   GL273862  39.111  27.708   6.164
 5845POPC   C1A73863  39.279  27.583   6.464
 5845POPC   D2A73864  39.206  27.604   6.764
 5845POPC   C3A73865  39.254  27.628   7.064
 5845POPC   C4A73866  39.218  27.570   7.364
 5845POPC   C1B73867  39.042  27.756   6.464
 5845POPC   C2B73868  39.066  27.782   6.764
 5845POPC   C3B73869  39.047  27.689   7.064
 5845POPC   C4B73870  38.995  27.685   7.364
 5846POPC   NC373871  13.601  40.792   5.564
 5846POPC   PO473872  13.615  40.763   5.864
 5846POPC   GL173873  13.661  40.798   6.164
 5846POPC   GL273874  13.625  40.918   6.164
 5846POPC   C1A73875  13.602  40.773   6.464
 5846POPC   D2A73876  13.621  40.774   6.764
 5846POPC   C3A73877  13.605  40.748   7.064
 5846POPC   C4A73878  13.623  40.763   7.364
 5846POPC   C1B73879  13.565  41.020   6.464
 5846POPC   C2B73880  13.567  40.996   6.764
 5846POPC   C3B73881  13.581  41.027   7.064
 5846POPC   C4B73882  13.584  41.003   7.364
 5847POPC   NC373883  29.155  44.699   5.564
 5847POPC   PO473884  29.149  44.696   5.864
 5847POPC   GL173885  29.152  44.673   6.164
 5847POPC   GL273886  29.111  44.802   6.164
 5847POPC   C1A73887  29.119  44.696   6.464
 5847POPC   D2A73888  29.095  44.621   6.764
 5847POPC   C3A73889  29.188  44.708   7.064
 5847POPC   C4A73890  29.169  44.628   7.364
 5847POPC   C1B73891  29.116  44.879   6.464
 5847POPC   C2B73892  29.171  44.904   6.764
 5847POPC   C3B73893  29.120  44.952   7.064
 5847POPC   C4B73894  29.156  44.941   7.364
 5848POPC   NC373895  42.360   5.062   5.564
 5848POPC   PO473896  42.355   5.044   5.864
 5848POPC   GL173897  42.295   5.058   6.164
 5848POPC   GL273898  42.218   5.036   6.164
 5848POPC   C1A73899  42.357   5.100   6.464
 5848POPC   D2A73900  42.343   5.089   6.764
 5848POPC   C3A73901  42.376   5.061   7.064
 5848POPC   C4A73902  42.379   5.079   7.364
 5848POPC   C1B73903  42.135   4.975   6.464
 5848POPC   C2B73904  42.142   4.974   6.764
 5848POPC   C3B73905  42.138   4.910   7.064
 5848POPC   C4B73906  42.163   4.932   7.364
 5849POPC   NC373907   2.812  37.632   5.564
 5849POPC   PO473908   2.778  37.641   5.864
 5849POPC   GL173909   2.801  37.670   6.164
 5849POPC   GL273910   2.739  37.532   6.164
 5849POPC   C1A73911   2.799  37.710   6.464
 5849POPC   D2A73912   2.788  37.726   6.764
 5849POPC   C3A73913   2.775  37.642   7.064
 5849POPC   C4A73914   2.804  37.728   7.364
 5849POPC   C1B73915   2.785  37.391   6.464
 5849POPC   C2B73916   2.697  37.381   6.764
 5849POPC   C3B73917   2.751  37.389   7.064
 5849POPC   C4B73918   2.776  37.406   7.364
 5850POPC   NC373919  12.849  12.084   5.564
 5850POPC   PO473920  12.825  12.085   5.864
 5850POPC   GL173921  12.833  12.046   6.164
 5850POPC   GL273922  12.723  12.038   6.164
 5850POPC   C1A73923  12.863  12.063   6.464
 5850POPC   D2A73924  12.855  12.084   6.764
 5850POPC   C3A73925  12.892  12.087   7.064
 5850POPC   C4A73926  12.900  12.101   7.364
 5850POPC   C1B73927  12.669  11.921   6.464
 5850POPC   C2B73928  12.588  11.940   6.764
 5850POPC   C3B73929  12.647  11.967   7.064
 5850POPC   C4B73930  12.653  11.972   7.364
 5851POPC   NC373931   5.894  43.126   5.564
 5851POPC   PO473932   5.821  43.138   5.864
 5851POPC   GL173933   5.909  43.153   6.164
 5851POPC   GL273934   5.855  43.014   6.164
 5851POPC   C1A73935   5.872  43.066   6.464
 5851POPC   D2A73936   5.905  43.151   6.764
 5851POPC   C3A73937   5.831  43.126   7.064
 5851POPC   C4A73938   5.864  43.125   7.364
 5851POPC   C1B73939   5.896  42.862   6.464
 5851POPC   C2B73940   5.827  42.873   6.764
 5851POPC   C3B73941   5.889  42.834   7.064
 5851POPC   C4B73942   5.830  42.903   7.364
 5852POPC   NC373943  28.411  43.114   5.564
 5852POPC   PO473944  28.332  43.157   5.864
 5852POPC   GL173945  28.397  43.115   6.164
 5852POPC   GL273946  28.448  43.147   6.164
 5852POPC   C1A73947  28.395  43.140   6.464
 5852POPC   D2A73948  28.415  43.144   6.764
 5852POPC   C3A73949  28.361  43.126   7.064
 5852POPC   C4A73950  28.352  43.103   7.364
 5852POPC   C1B73951  28.620  43.286   6.464
 5852POPC   C2B73952  28.598  43.256   6.764
 5852POPC   C3B73953  28.558  43.237   7.064
 5852POPC   C4B73954  28.588  43.266   7.364
 5853POPC   NC373955  15.918  19.079   5.564
 5853POPC   PO473956  15.933  19.090   5.864
 5853POPC   GL173957  15.921  19.102   6.164
 5853POPC   GL273958  15.942  18.891   6.164
 5853POPC   C1A73959  15.995  19.051   6.464
 5853POPC   D2A73960  15.923  19.064   6.764
 5853POPC   C3A73961  15.993  19.031   7.064
 5853POPC   C4A73962  15.974  19.036   7.364
 5853POPC   C1B73963  16.048  18.813   6.464
 5853POPC   C2B73964  16.011  18.865   6.764
 5853POPC   C3B73965  15.971  18.817   7.064
 5853POPC   C4B73966  16.050  18.847   7.364
 5854POPC   NC373967  38.476  22.953   5.564
 5854POPC   PO473968  38.416  22.976   5.864
 5854POPC   GL173969  38.446  22.921   6.164
 5854POPC   GL273970  38.328  23.055   6.164
 5854POPC   C1A73971  38.503  22.930   6.464
 5854POPC   D2A73972  38.486  22.935   6.764
 5854POPC   C3A73973  38.452  22.922   7.064
 5854POPC   C4A73974  38.492  22.888   7.364
 5854POPC   C1B73975  38.281  23.148   6.464
 5854POPC   C2B73976  38.277  23.150   6.764
 5854POPC   C3B73977  38.298  23.113   7.064
 5854POPC   C4B73978  38.257  23.075   7.364
 5855POPC   NC373979  33.816   5.908   5.564
 5855POPC   PO473980  33.798   5.874   5.864
 5855POPC   GL173981  33.811   5.906   6.164
 5855POPC   GL273982  33.716   5.787   6.164
 5855POPC   C1A73983  33.790   5.896   6.464
 5855POPC   D2A73984  33.793   5.835   6.764
 5855POPC   C3A73985  33.794   5.849   7.064
 5855POPC   C4A73986  33.819   5.903   7.364
 5855POPC   C1B73987  33.680   5.640   6.464
 5855POPC   C2B73988  33.610   5.648   6.764
 5855POPC   C3B73989  33.684   5.648   7.064
 5855POPC   C4B73990  33.636   5.668   7.364
 5856POPC   NC373991  20.586   4.315   5.564
 5856POPC   PO473992  20.611   4.285   5.864
 5856POPC   GL173993  20.589   4.338   6.164
 5856POPC   GL273994  20.626   4.473   6.164
 5856POPC   C1A73995  20.647   4.333   6.464
 5856POPC   D2A73996  20.635   4.291   6.764
 5856POPC   C3A73997  20.610   4.365   7.064
 5856POPC   C4A73998  20.644   4.273   7.364
 5856POPC   C1B73999  20.618   4.567   6.464
 5856POPC   C2B74000  20.657   4.548   6.764
 5856POPC   C3B74001  20.587   4.589   7.064
 5856POPC   C4B74002  20.604   4.587   7.364
 5857POPC   NC374003  22.208  15.982   5.564
 5857POPC   PO474004  22.146  15.937   5.864
 5857POPC   GL174005  22.129  15.957   6.164
 5857POPC   GL274006  22.090  15.885   6.164
 5857POPC   C1A74007  22.182  15.979   6.464
 5857POPC   D2A74008  22.165  15.995   6.764
 5857POPC   C3A74009  22.184  16.000   7.064
 5857POPC   C4A74010  22.208  15.920   7.364
 5857POPC   C1B74011  22.093  15.740   6.464
 5857POPC   C2B74012  22.054  15.691   6.764
 5857POPC   C3B74013  22.137  15.713   7.064
 5857POPC   C4B74014  22.061  15.735   7.364
 5858POPC   NC374015  10.542  20.647   5.564
 5858POPC   PO474016  10.510  20.565   5.864
 5858POPC   GL174017  10.475  20.618   6.164
 5858POPC   GL274018  10.397  20.640   6.164
 5858POPC   C1A74019  10.491  20.578   6.464
 5858POPC   D2A74020  10.525  20.656   6.764
 5858POPC   C3A74021  10.503  20.621   7.064
 5858POPC   C4A74022  10.510  20.566   7.364
 5858POPC   C1B74023  10.308  20.737   6.464
 5858POPC   C2B74024  10.290  20.695   6.764
 5858POPC   C3B74025  10.349  20.745   7.064
 5858POPC   C4B74026  10.282  20.719   7.364
 5859POPC   NC374027  36.922  33.828   5.564
 5859POPC   PO474028  36.938  33.810   5.864
 5859POPC   GL174029  36.932  33.833   6.164
 5859POPC   GL274030  36.836  33.673   6.164
 5859POPC   C1A74031  36.932  33.825   6.464
 5859POPC   D2A74032  36.888  33.845   6.764
 5859POPC   C3A74033  36.916  33.804   7.064
 5859POPC   C4A74034  36.932  33.758   7.364
 5859POPC   C1B74035  36.744  33.543   6.464
 5859POPC   C2B74036  36.737  33.553   6.764
 5859POPC   C3B74037  36.806  33.626   7.064
 5859POPC   C4B74038  36.796  33.562   7.364
 5860POPC   NC374039   6.657  13.631   5.564
 5860POPC   PO474040   6.605  13.665   5.864
 5860POPC   GL174041   6.663  13.627   6.164
 5860POPC   GL274042   6.757  13.655   6.164
 5860POPC   C1A74043   6.691  13.644   6.464
 5860POPC   D2A74044   6.669  13.592   6.764
 5860POPC   C3A74045   6.632  13.661   7.064
 5860POPC   C4A74046   6.635  13.613   7.364
 5860POPC   C1B74047   6.921  13.748   6.464
 5860POPC   C2B74048   6.880  13.723   6.764
 5860POPC   C3B74049   6.918  13.724   7.064
 5860POPC   C4B74050   6.851  13.737   7.364
 5861POPC   NC374051  28.370  21.404   5.564
 5861POPC   PO474052  28.348  21.426   5.864
 5861POPC   GL174053  28.378  21.392   6.164
 5861POPC   GL274054  28.311  21.243   6.164
 5861POPC   C1A74055  28.413  21.372   6.464
 5861POPC   D2A74056  28.381  21.351   6.764
 5861POPC   C3A74057  28.332  21.407   7.064
 5861POPC   C4A74058  28.339  21.398   7.364
 5861POPC   C1B74059  28.285  21.121   6.464
 5861POPC   C2B74060  28.328  21.144   6.764
 5861POPC   C3B74061  28.290  21.116   7.064
 5861POPC   C4B74062  28.268  21.167   7.364
 5862POPC   NC374063  44.657  26.790   5.564
 5862POPC   PO474064  44.697  26.828   5.864
 5862POPC   GL174065  44.651  26.774   6.164
 5862POPC   GL274066  44.541  26.858   6.164
 5862POPC   C1A74067  44.705  26.800   6.464
 5862POPC   D2A74068  44.692  26.791   6.764
 5862POPC   C3A74069  44.688  26.814   7.064
 5862POPC   C4A74070  44.634  26.802   7.364
 5862POPC   C1B74071  44.389  26.812   6.464
 5862POPC   C2B74072  44.444  26.796   6.764
 5862POPC   C3B74073  44.373  26.859   7.064
 5862POPC   C4B74074  44.448  26.815   7.364
 5863POPC   NC374075  28.407  22.933   5.564
 5863POPC   PO474076  28.370  22.946   5.864
 5863POPC   GL174077  28.378  22.920   6.164
 5863POPC   GL274078  28.436  23.061   6.164
 5863POPC   C1A74079  28.359  22.958   6.464
 5863POPC   D2A74080  28.372  22.895   6.764
 5863POPC   C3A74081  28.359  22.907   7.064
 5863POPC   C4A74082  28.377  22.891   7.364
 5863POPC   C1B74083  28.416  23.229   6.464
 5863POPC   C2B74084  28.466  23.156   6.764
 5863POPC   C3B74085  28.427  23.186   7.064
 5863POPC   C4B74086  28.408  23.158   7.364
 5864POPC   NC374087  25.314  24.486   5.564
 5864POPC   PO474088  25.268  24.503   5.864
 5864POPC   GL174089  25.285  24.517   6.164
 5864POPC   GL274090  25.352  24.535   6.164
 5864POPC   C1A74091  25.242  24.477   6.464
 5864POPC   D2A74092  25.246  24.515   6.764
 5864POPC   C3A74093  25.234  24.445   7.064
 5864POPC   C4A74094  25.264  24.531   7.364
 5864POPC   C1B74095  25.506  24.500   6.464
 5864POPC   C2B74096  25.562  24.533   6.764
 5864POPC   C3B74097  25.478  24.567   7.064
 5864POPC   C4B74098  25.515  24.546   7.364
 5865POPC   NC374099  40.050   7.410   5.564
 5865POPC   PO474100  40.049   7.417   5.864
 5865POPC   GL174101  40.037   7.380   6.164
 5865POPC   GL274102  39.883   7.513   6.164
 5865POPC   C1A74103  40.030   7.401   6.464
 5865POPC   D2A74104  40.004   7.433   6.764
 5865POPC   C3A74105  40.027   7.451   7.064
 5865POPC   C4A74106  39.959   7.440   7.364
 5865POPC   C1B74107  39.886   7.583   6.464
 5865POPC   C2B74108  39.849   7.586   6.764
 5865POPC   C3B74109  39.836   7.647   7.064
 5865POPC   C4B74110  39.792   7.620   7.364
 5866POPC   NC374111  10.496  38.495   5.564
 5866POPC   PO474112  10.568  38.415   5.864
 5866POPC   GL174113  10.539  38.503   6.164
 5866POPC   GL274114  10.675  38.414   6.164
 5866POPC   C1A74115  10.549  38.419   6.464
 5866POPC   D2A74116  10.510  38.435   6.764
 5866POPC   C3A74117  10.502  38.443   7.064
 5866POPC   C4A74118  10.556  38.486   7.364
 5866POPC   C1B74119  10.777  38.492   6.464
 5866POPC   C2B74120  10.766  38.401   6.764
 5866POPC   C3B74121  10.737  38.468   7.064
 5866POPC   C4B74122  10.792  38.415   7.364
 5867POPC   NC374123  39.978  18.279   5.564
 5867POPC   PO474124  40.020  18.258   5.864
 5867POPC   GL174125  40.004  18.307   6.164
 5867POPC   GL274126  39.928  18.384   6.164
 5867POPC   C1A74127  40.047  18.294   6.464
 5867POPC   D2A74128  40.028  18.309   6.764
 5867POPC   C3A74129  40.005  18.238   7.064
 5867POPC   C4A74130  39.991  18.301   7.364
 5867POPC   C1B74131  39.929  18.527   6.464
 5867POPC   C2B74132  39.972  18.516   6.764
 5867POPC   C3B74133  39.925  18.549   7.064
 5867POPC   C4B74134  39.948  18.550   7.364
 5868POPC   NC374135   0.435   8.219   5.564
 5868POPC   PO474136   0.400   8.235   5.864
 5868POPC   GL174137   0.473   8.225   6.164
 5868POPC   GL274138   0.382   8.089   6.164
 5868POPC   C1A74139   0.411   8.150   6.464
 5868POPC   D2A74140   0.475   8.173   6.764
 5868POPC   C3A74141   0.449   8.147   7.064
 5868POPC   C4A74142   0.410   8.217   7.364
 5868POPC   C1B74143   0.229   8.023   6.464
 5868POPC   C2B74144   0.185   8.005   6.764
 5868POPC   C3B74145   0.235   8.101   7.064
 5868POPC   C4B74146   0.182   8.010   7.364
 5869POPC   NC374147  42.364  42.302   5.564
 5869POPC   PO474148  42.313  42.376   5.864
 5869POPC   GL174149  42.320  42.298   6.164
 5869POPC   GL274150  42.358  42.225   6.164
 5869POPC   C1A74151  42.303  42.299   6.464
 5869POPC   D2A74152  42.343  42.343   6.764
 5869POPC   C3A74153  42.330  42.318   7.064
 5869POPC   C4A74154  42.324  42.322   7.364
 5869POPC   C1B74155  42.419  42.098   6.464
 5869POPC   C2B74156  42.387  42.139   6.764
 5869POPC   C3B74157  42.426  42.097   7.064
 5869POPC   C4B74158  42.461  42.055   7.364
 5870POPC   NC374159  40.004  28.376   5.564
 5870POPC   PO474160  39.994  28.375   5.864
 5870POPC   GL174161  40.053  28.418   6.164
 5870POPC   GL274162  40.019  28.229   6.164
 5870POPC   C1A74163  40.008  28.327   6.464
 5870POPC   D2A74164  39.980  28.360   6.764
 5870POPC   C3A74165  40.015  28.393   7.064
 5870POPC   C4A74166  40.019  28.378   7.364
 5870POPC   C1B74167  40.038  28.081   6.464
 5870POPC   C2B74168  40.064  28.151   6.764
 5870POPC   C3B74169  40.060  28.085   7.064
 5870POPC   C4B74170  40.087  28.107   7.364
 5871POPC   NC374171  12.865  15.910   5.564
 5871POPC   PO474172  12.888  15.932   5.864
 5871POPC   GL174173  12.811  15.953   6.164
 5871POPC   GL274174  12.766  15.794   6.164
 5871POPC   C1A74175  12.870  15.997   6.464
 5871POPC   D2A74176  12.892  15.962   6.764
 5871POPC   C3A74177  12.829  15.967   7.064
 5871POPC   C4A74178  12.812  15.989   7.364
 5871POPC   C1B74179  12.716  15.686   6.464
 5871POPC   C2B74180  12.734  15.740   6.764
 5871POPC   C3B74181  12.712  15.770   7.064
 5871POPC   C4B74182  12.777  15.741   7.364
 5872POPC   NC374183  41.561   2.787   5.564
 5872POPC   PO474184  41.589   2.799   5.864
 5872POPC   GL174185  41.555   2.741   6.164
 5872POPC   GL274186  41.550   2.836   6.164
 5872POPC   C1A74187  41.547   2.792   6.464
 5872POPC   D2A74188  41.583   2.745   6.764
 5872POPC   C3A74189  41.606   2.729   7.064
 5872POPC   C4A74190  41.584   2.747   7.364
 5872POPC   C1B74191  41.617   2.967   6.464
 5872POPC   C2B74192  41.624   3.057   6.764
 5872POPC   C3B74193  41.599   3.047   7.064
 5872POPC   C4B74194  41.583   3.012   7.364
 5873POPC   NC374195  32.259  33.069   5.564
 5873POPC   PO474196  32.228  33.010   5.864
 5873POPC   GL174197  32.227  33.021   6.164
 5873POPC   GL274198  32.178  32.964   6.164
 5873POPC   C1A74199  32.246  33.001   6.464
 5873POPC   D2A74200  32.261  32.982   6.764
 5873POPC   C3A74201  32.222  33.015   7.064
 5873POPC   C4A74202  32.208  32.991   7.364
 5873POPC   C1B74203  32.092  32.787   6.464
 5873POPC   C2B74204  32.084  32.830   6.764
 5873POPC   C3B74205  32.086  32.759   7.064
 5873POPC   C4B74206  32.117  32.852   7.364
 5874POPC   NC374207  22.137  15.167   5.564
 5874POPC   PO474208  22.155  15.130   5.864
 5874POPC   GL174209  22.138  15.179   6.164
 5874POPC   GL274210  22.035  15.090   6.164
 5874POPC   C1A74211  22.190  15.224   6.464
 5874POPC   D2A74212  22.192  15.201   6.764
 5874POPC   C3A74213  22.119  15.186   7.064
 5874POPC   C4A74214  22.134  15.211   7.364
 5874POPC   C1B74215  21.924  15.040   6.464
 5874POPC   C2B74216  21.901  15.020   6.764
 5874POPC   C3B74217  21.976  15.048   7.064
 5874POPC   C4B74218  21.945  15.042   7.364
 5875POPC   NC374219  25.276  38.436   5.564
 5875POPC   PO474220  25.288  38.421   5.864
 5875POPC   GL174221  25.236  38.442   6.164
 5875POPC   GL274222  25.322  38.538   6.164
 5875POPC   C1A74223  25.251  38.444   6.464
 5875POPC   D2A74224  25.314  38.488   6.764
 5875POPC   C3A74225  25.286  38.408   7.064
 5875POPC   C4A74226  25.306  38.495   7.364
 5875POPC   C1B74227  25.473  38.592   6.464
 5875POPC   C2B74228  25.475  38.600   6.764
 5875POPC   C3B74229  25.448  38.659   7.064
 5875POPC   C4B74230  25.412  38.585   7.364
 5876POPC   NC374231  39.243   9.754   5.564
 5876POPC   PO474232  39.232   9.718   5.864
 5876POPC   GL174233  39.257   9.737   6.164
 5876POPC   GL274234  39.167   9.832   6.164
 5876POPC   C1A74235  39.206   9.746   6.464
 5876POPC   D2A74236  39.198   9.749   6.764
 5876POPC   C3A74237  39.252   9.781   7.064
 5876POPC   C4A74238  39.207   9.732   7.364
 5876POPC   C1B74239  39.175   9.968   6.464
 5876POPC   C2B74240  39.126   9.965   6.764
 5876POPC   C3B74241  39.150   9.979   7.064
 5876POPC   C4B74242  39.178   9.993   7.364
 5877POPC   NC374243  43.852   1.171   5.564
 5877POPC   PO474244  43.882   1.168   5.864
 5877POPC   GL174245  43.902   1.164   6.164
 5877POPC   GL274246  43.853   1.306   6.164
 5877POPC   C1A74247  43.902   1.237   6.464
 5877POPC   D2A74248  43.837   1.179   6.764
 5877POPC   C3A74249  43.912   1.240   7.064
 5877POPC   C4A74250  43.888   1.198   7.364
 5877POPC   C1B74251  43.885   1.442   6.464
 5877POPC   C2B74252  43.823   1.461   6.764
 5877POPC   C3B74253  43.860   1.492   7.064
 5877POPC   C4B74254  43.815   1.503   7.364
 5878POPC   NC374255  15.165   6.688   5.564
 5878POPC   PO474256  15.223   6.637   5.864
 5878POPC   GL174257  15.200   6.622   6.164
 5878POPC   GL274258  15.314   6.581   6.164
 5878POPC   C1A74259  15.143   6.670   6.464
 5878POPC   D2A74260  15.177   6.619   6.764
 5878POPC   C3A74261  15.181   6.601   7.064
 5878POPC   C4A74262  15.214   6.692   7.364
 5878POPC   C1B74263  15.456   6.631   6.464
 5878POPC   C2B74264  15.450   6.653   6.764
 5878POPC   C3B74265  15.455   6.642   7.064
 5878POPC   C4B74266  15.446   6.597   7.364
 5879POPC   NC374267  29.149   8.939   5.564
 5879POPC   PO474268  29.173   9.021   5.864
 5879POPC   GL174269  29.181   8.995   6.164
 5879POPC   GL274270  29.010   9.020   6.164
 5879POPC   C1A74271  29.114   8.994   6.464
 5879POPC   D2A74272  29.109   8.979   6.764
 5879POPC   C3A74273  29.127   8.968   7.064
 5879POPC   C4A74274  29.149   8.974   7.364
 5879POPC   C1B74275  28.937   9.046   6.464
 5879POPC   C2B74276  28.919   9.040   6.764
 5879POPC   C3B74277  28.945   8.994   7.064
 5879POPC   C4B74278  28.851   9.032   7.364
 5880POPC   NC374279   6.651  21.414   5.564
 5880POPC   PO474280   6.646  21.348   5.864
 5880POPC   GL174281   6.660  21.374   6.164
 5880POPC   GL274282   6.531  21.399   6.164
 5880POPC   C1A74283   6.663  21.343   6.464
 5880POPC   D2A74284   6.680  21.350   6.764
 5880POPC   C3A74285   6.675  21.369   7.064
 5880POPC   C4A74286   6.621  21.391   7.364
 5880POPC   C1B74287   6.444  21.386   6.464
 5880POPC   C2B74288   6.348  21.359   6.764
 5880POPC   C3B74289   6.417  21.430   7.064
 5880POPC   C4B74290   6.444  21.372   7.364
 5881POPC   NC374291   1.950  34.544   5.564
 5881POPC   PO474292   1.996  34.551   5.864
 5881POPC   GL174293   2.016  34.610   6.164
 5881POPC   GL274294   2.101  34.602   6.164
 5881POPC   C1A74295   1.948  34.540   6.464
 5881POPC   D2A74296   2.011  34.616   6.764
 5881POPC   C3A74297   1.944  34.539   7.064
 5881POPC   C4A74298   2.033  34.588   7.364
 5881POPC   C1B74299   2.278  34.568   6.464
 5881POPC   C2B74300   2.246  34.574   6.764
 5881POPC   C3B74301   2.272  34.574   7.064
 5881POPC   C4B74302   2.193  34.545   7.364
 5882POPC   NC374303  42.341  18.331   5.564
 5882POPC   PO474304  42.361  18.278   5.864
 5882POPC   GL174305  42.360  18.234   6.164
 5882POPC   GL274306  42.430  18.413   6.164
 5882POPC   C1A74307  42.308  18.312   6.464
 5882POPC   D2A74308  42.294  18.238   6.764
 5882POPC   C3A74309  42.311  18.311   7.064
 5882POPC   C4A74310  42.384  18.289   7.364
 5882POPC   C1B74311  42.472  18.490   6.464
 5882POPC   C2B74312  42.521  18.480   6.764
 5882POPC   C3B74313  42.493  18.483   7.064
 5882POPC   C4B74314  42.511  18.507   7.364
 5883POPC   NC374315  18.259  17.461   5.564
 5883POPC   PO474316  18.244  17.463   5.864
 5883POPC   GL174317  18.300  17.466   6.164
 5883POPC   GL274318  18.323  17.439   6.164
 5883POPC   C1A74319  18.306  17.506   6.464
 5883POPC   D2A74320  18.274  17.479   6.764
 5883POPC   C3A74321  18.315  17.537   7.064
 5883POPC   C4A74322  18.313  17.535   7.364
 5883POPC   C1B74323  18.419  17.316   6.464
 5883POPC   C2B74324  18.406  17.225   6.764
 5883POPC   C3B74325  18.414  17.225   7.064
 5883POPC   C4B74326  18.406  17.263   7.364
 5884POPC   NC374327  12.889   3.584   5.564
 5884POPC   PO474328  12.839   3.549   5.864
 5884POPC   GL174329  12.877   3.543   6.164
 5884POPC   GL274330  12.938   3.700   6.164
 5884POPC   C1A74331  12.852   3.520   6.464
 5884POPC   D2A74332  12.822   3.503   6.764
 5884POPC   C3A74333  12.876   3.540   7.064
 5884POPC   C4A74334  12.833   3.553   7.364
 5884POPC   C1B74335  12.928   3.755   6.464
 5884POPC   C2B74336  12.993   3.744   6.764
 5884POPC   C3B74337  13.000   3.805   7.064
 5884POPC   C4B74338  12.967   3.741   7.364
 5885POPC   NC374339  20.610  40.735   5.564
 5885POPC   PO474340  20.614  40.741   5.864
 5885POPC   GL174341  20.578  40.736   6.164
 5885POPC   GL274342  20.627  40.655   6.164
 5885POPC   C1A74343  20.648  40.741   6.464
 5885POPC   D2A74344  20.586  40.788   6.764
 5885POPC   C3A74345  20.636  40.819   7.064
 5885POPC   C4A74346  20.637  40.832   7.364
 5885POPC   C1B74347  20.686  40.497   6.464
 5885POPC   C2B74348  20.671  40.548   6.764
 5885POPC   C3B74349  20.624  40.540   7.064
 5885POPC   C4B74350  20.689  40.541   7.364
 5886POPC   NC374351   7.459  11.298   5.564
 5886POPC   PO474352   7.459  11.267   5.864
 5886POPC   GL174353   7.453  11.271   6.164
 5886POPC   GL274354   7.382  11.402   6.164
 5886POPC   C1A74355   7.468  11.330   6.464
 5886POPC   D2A74356   7.428  11.314   6.764
 5886POPC   C3A74357   7.387  11.310   7.064
 5886POPC   C4A74358   7.466  11.324   7.364
 5886POPC   C1B74359   7.403  11.558   6.464
 5886POPC   C2B74360   7.365  11.527   6.764
 5886POPC   C3B74361   7.405  11.535   7.064
 5886POPC   C4B74362   7.378  11.519   7.364
 5887POPC   NC374363   6.693  19.816   5.564
 5887POPC   PO474364   6.661  19.793   5.864
 5887POPC   GL174365   6.618  19.854   6.164
 5887POPC   GL274366   6.653  19.937   6.164
 5887POPC   C1A74367   6.637  19.863   6.464
 5887POPC   D2A74368   6.624  19.821   6.764
 5887POPC   C3A74369   6.655  19.809   7.064
 5887POPC   C4A74370   6.599  19.814   7.364
 5887POPC   C1B74371   6.566  20.039   6.464
 5887POPC   C2B74372   6.610  20.054   6.764
 5887POPC   C3B74373   6.545  20.109   7.064
 5887POPC   C4B74374   6.537  20.114   7.364
 5888POPC   NC374375   9.793  13.587   5.564
 5888POPC   PO474376   9.706  13.606   5.864
 5888POPC   GL174377   9.750  13.580   6.164
 5888POPC   GL274378   9.782  13.726   6.164
 5888POPC   C1A74379   9.743  13.651   6.464
 5888POPC   D2A74380   9.796  13.590   6.764
 5888POPC   C3A74381   9.748  13.616   7.064
 5888POPC   C4A74382   9.774  13.655   7.364
 5888POPC   C1B74383   9.848  13.815   6.464
 5888POPC   C2B74384   9.902  13.856   6.764
 5888POPC   C3B74385   9.844  13.811   7.064
 5888POPC   C4B74386   9.847  13.892   7.364
 5889POPC   NC374387  19.016   6.664   5.564
 5889POPC   PO474388  19.026   6.689   5.864
 5889POPC   GL174389  19.033   6.610   6.164
 5889POPC   GL274390  19.167   6.574   6.164
 5889POPC   C1A74391  19.098   6.612   6.464
 5889POPC   D2A74392  19.042   6.638   6.764
 5889POPC   C3A74393  19.027   6.657   7.064
 5889POPC   C4A74394  19.094   6.626   7.364
 5889POPC   C1B74395  19.323   6.496   6.464
 5889POPC   C2B74396  19.267   6.509   6.764
 5889POPC   C3B74397  19.330   6.531   7.064
 5889POPC   C4B74398  19.265   6.562   7.364
 5890POPC   NC374399   9.010  10.555   5.564
 5890POPC   PO474400   8.930  10.476   5.864
 5890POPC   GL174401   8.936  10.553   6.164
 5890POPC   GL274402   8.927  10.420   6.164
 5890POPC   C1A74403   8.983  10.523   6.464
 5890POPC   D2A74404   9.015  10.479   6.764
 5890POPC   C3A74405   8.941  10.501   7.064
 5890POPC   C4A74406   9.018  10.537   7.364
 5890POPC   C1B74407   8.846  10.278   6.464
 5890POPC   C2B74408   8.833  10.358   6.764
 5890POPC   C3B74409   8.873  10.328   7.064
 5890POPC   C4B74410   8.845  10.342   7.364
 5891POPC   NC374411  38.460  12.867   5.564
 5891POPC   PO474412  38.465  12.899   5.864
 5891POPC   GL174413  38.491  12.874   6.164
 5891POPC   GL274414  38.505  12.991   6.164
 5891POPC   C1A74415  38.494  12.868   6.464
 5891POPC   D2A74416  38.487  12.824   6.764
 5891POPC   C3A74417  38.411  12.816   7.064
 5891POPC   C4A74418  38.429  12.878   7.364
 5891POPC   C1B74419  38.607  13.022   6.464
 5891POPC   C2B74420  38.630  13.080   6.764
 5891POPC   C3B74421  38.573  13.063   7.064
 5891POPC   C4B74422  38.586  13.018   7.364
 5892POPC   NC374423  26.787  26.061   5.564
 5892POPC   PO474424  26.861  25.997   5.864
 5892POPC   GL174425  26.836  26.023   6.164
 5892POPC   GL274426  26.925  26.078   6.164
 5892POPC   C1A74427  26.813  26.052   6.464
 5892POPC   D2A74428  26.795  25.995   6.764
 5892POPC   C3A74429  26.853  26.057   7.064
 5892POPC   C4A74430  26.785  26.057   7.364
 5892POPC   C1B74431  27.026  26.037   6.464
 5892POPC   C2B74432  27.022  26.030   6.764
 5892POPC   C3B74433  27.077  26.044   7.064
 5892POPC   C4B74434  27.099  26.053   7.364
 5893POPC   NC374435   9.764  11.255   5.564
 5893POPC   PO474436   9.771  11.329   5.864
 5893POPC   GL174437   9.703  11.320   6.164
 5893POPC   GL274438   9.845  11.287   6.164
 5893POPC   C1A74439   9.772  11.325   6.464
 5893POPC   D2A74440   9.753  11.319   6.764
 5893POPC   C3A74441   9.700  11.329   7.064
 5893POPC   C4A74442   9.770  11.304   7.364
 5893POPC   C1B74443  10.025  11.326   6.464
 5893POPC   C2B74444  10.008  11.352   6.764
 5893POPC   C3B74445  10.046  11.300   7.064
 5893POPC   C4B74446   9.959  11.337   7.364
 5894POPC   NC374447   1.989  29.102   5.564
 5894POPC   PO474448   1.965  29.160   5.864
 5894POPC   GL174449   2.030  29.099   6.164
 5894POPC   GL274450   2.091  29.158   6.164
 5894POPC   C1A74451   1.987  29.124   6.464
 5894POPC   D2A74452   1.990  29.096   6.764
 5894POPC   C3A74453   1.966  29.104   7.064
 5894POPC   C4A74454   2.011  29.189   7.364
 5894POPC   C1B74455   2.192  29.281   6.464
 5894POPC   C2B74456   2.170  29.282   6.764
 5894POPC   C3B74457   2.239  29.239   7.064
 5894POPC   C4B74458   2.246  29.241   7.364
 5895POPC   NC374459  11.255  19.871   5.564
 5895POPC   PO474460  11.255  19.879   5.864
 5895POPC   GL174461  11.313  19.837   6.164
 5895POPC   GL274462  11.241  19.792   6.164
 5895POPC   C1A74463  11.345  19.829   6.464
 5895POPC   D2A74464  11.303  19.882   6.764
 5895POPC   C3A74465  11.285  19.836   7.064
 5895POPC   C4A74466  11.275  19.789   7.364
 5895POPC   C1B74467  11.083  19.745   6.464
 5895POPC   C2B74468  11.035  19.669   6.764
 5895POPC   C3B74469  11.122  19.753   7.064
 5895POPC   C4B74470  11.096  19.699   7.364
 5896POPC   NC374471   6.691  10.572   5.564
 5896POPC   PO474472   6.678  10.556   5.864
 5896POPC   GL174473   6.621  10.529   6.164
 5896POPC   GL274474   6.511  10.610   6.164
 5896POPC   C1A74475   6.665  10.490   6.464
 5896POPC   D2A74476   6.694  10.561   6.764
 5896POPC   C3A74477   6.612  10.501   7.064
 5896POPC   C4A74478   6.636  10.497   7.364
 5896POPC   C1B74479   6.499  10.666   6.464
 5896POPC   C2B74480   6.500  10.738   6.764
 5896POPC   C3B74481   6.460  10.672   7.064
 5896POPC   C4B74482   6.437  10.663   7.364
 5897POPC   NC374483  16.736  44.709   5.564
 5897POPC   PO474484  16.697  44.628   5.864
 5897POPC   GL174485  16.694  44.705   6.164
 5897POPC   GL274486  16.622  44.720   6.164
 5897POPC   C1A74487  16.719  44.634   6.464
 5897POPC   D2A74488  16.737  44.701   6.764
 5897POPC   C3A74489  16.696  44.651   7.064
 5897POPC   C4A74490  16.715  44.673   7.364
 5897POPC   C1B74491  16.543  44.859   6.464
 5897POPC   C2B74492  16.571  44.875   6.764
 5897POPC   C3B74493  16.546  44.867   7.064
 5897POPC   C4B74494  16.613  44.868   7.364
 5898POPC   NC374495   9.721   2.738   5.564
 5898POPC   PO474496   9.793   2.753   5.864
 5898POPC   GL174497   9.710   2.804   6.164
 5898POPC   GL274498   9.682   2.916   6.164
 5898POPC   C1A74499   9.773   2.773   6.464
 5898POPC   D2A74500   9.797   2.790   6.764
 5898POPC   C3A74501   9.699   2.750   7.064
 5898POPC   C4A74502   9.747   2.788   7.364
 5898POPC   C1B74503   9.655   3.026   6.464
 5898POPC   C2B74504   9.667   3.011   6.764
 5898POPC   C3B74505   9.703   3.005   7.064
 5898POPC   C4B74506   9.661   3.012   7.364
 5899POPC   NC374507  43.844  34.543   5.564
 5899POPC   PO474508  43.837  34.560   5.864
 5899POPC   GL174509  43.933  34.577   6.164
 5899POPC   GL274510  43.812  34.546   6.164
 5899POPC   C1A74511  43.892  34.538   6.464
 5899POPC   D2A74512  43.895  34.583   6.764
 5899POPC   C3A74513  43.917  34.624   7.064
 5899POPC   C4A74514  43.868  34.621   7.364
 5899POPC   C1B74515  43.612  34.473   6.464
 5899POPC   C2B74516  43.666  34.465   6.764
 5899POPC   C3B74517  43.617  34.548   7.064
 5899POPC   C4B74518  43.623  34.482   7.364
 5900POPC   NC374519  29.959   1.950   5.564
 5900POPC   PO474520  29.962   2.015   5.864
 5900POPC   GL174521  29.890   1.971   6.164
 5900POPC   GL274522  29.924   2.089   6.164
 5900POPC   C1A74523  29.879   1.963   6.464
 5900POPC   D2A74524  29.923   1.991   6.764
 5900POPC   C3A74525  29.956   1.947   7.064
 5900POPC   C4A74526  29.910   1.957   7.364
 5900POPC   C1B74527  29.944   2.219   6.464
 5900POPC   C2B74528  29.931   2.219   6.764
 5900POPC   C3B74529  29.921   2.190   7.064
 5900POPC   C4B74530  29.956   2.277   7.364
 5901POPC   NC374531   7.404  15.954   5.564
 5901POPC   PO474532   7.467  15.984   5.864
 5901POPC   GL174533   7.435  15.913   6.164
 5901POPC   GL274534   7.339  15.849   6.164
 5901POPC   C1A74535   7.399  15.987   6.464
 5901POPC   D2A74536   7.443  15.964   6.764
 5901POPC   C3A74537   7.389  15.961   7.064
 5901POPC   C4A74538   7.430  15.980   7.364
 5901POPC   C1B74539   7.320  15.761   6.464
 5901POPC   C2B74540   7.254  15.773   6.764
 5901POPC   C3B74541   7.254  15.794   7.064
 5901POPC   C4B74542   7.264  15.779   7.364
 5902POPC   NC374543  42.300  34.554   5.564
 5902POPC   PO474544  42.304  34.543   5.864
 5902POPC   GL174545  42.292  34.564   6.164
 5902POPC   GL274546  42.410  34.545   6.164
 5902POPC   C1A74547  42.317  34.601   6.464
 5902POPC   D2A74548  42.344  34.588   6.764
 5902POPC   C3A74549  42.379  34.550   7.064
 5902POPC   C4A74550  42.383  34.549   7.364
 5902POPC   C1B74551  42.524  34.434   6.464
 5902POPC   C2B74552  42.523  34.478   6.764
 5902POPC   C3B74553  42.572  34.463   7.064
 5902POPC   C4B74554  42.580  34.426   7.364
 5903POPC   NC374555  32.252  20.614   5.564
 5903POPC   PO474556  32.212  20.565   5.864
 5903POPC   GL174557  32.289  20.619   6.164
 5903POPC   GL274558  32.160  20.545   6.164
 5903POPC   C1A74559  32.269  20.569   6.464
 5903POPC   D2A74560  32.227  20.577   6.764
 5903POPC   C3A74561  32.296  20.602   7.064
 5903POPC   C4A74562  32.274  20.646   7.364
 5903POPC   C1B74563  32.148  20.417   6.464
 5903POPC   C2B74564  32.149  20.391   6.764
 5903POPC   C3B74565  32.154  20.356   7.064
 5903POPC   C4B74566  32.113  20.336   7.364
 5904POPC   NC374567  31.461  32.977   5.564
 5904POPC   PO474568  31.460  33.061   5.864
 5904POPC   GL174569  31.464  33.053   6.164
 5904POPC   GL274570  31.429  32.877   6.164
 5904POPC   C1A74571  31.479  33.002   6.464
 5904POPC   D2A74572  31.478  33.047   6.764
 5904POPC   C3A74573  31.459  33.064   7.064
 5904POPC   C4A74574  31.480  33.013   7.364
 5904POPC   C1B74575  31.307  32.802   6.464
 5904POPC   C2B74576  31.351  32.788   6.764
 5904POPC   C3B74577  31.321  32.845   7.064
 5904POPC   C4B74578  31.381  32.829   7.364
 5905POPC   NC374579  15.938  29.127   5.564
 5905POPC   PO474580  15.987  29.113   5.864
 5905POPC   GL174581  15.921  29.119   6.164
 5905POPC   GL274582  16.007  29.049   6.164
 5905POPC   C1A74583  15.959  29.123   6.464
 5905POPC   D2A74584  15.947  29.114   6.764
 5905POPC   C3A74585  15.986  29.179   7.064
 5905POPC   C4A74586  16.005  29.189   7.364
 5905POPC   C1B74587  16.103  28.982   6.464
 5905POPC   C2B74588  16.057  28.940   6.764
 5905POPC   C3B74589  16.090  28.927   7.064
 5905POPC   C4B74590  16.075  28.913   7.364
 5906POPC   NC374591  40.016   6.623   5.564
 5906POPC   PO474592  40.027   6.627   5.864
 5906POPC   GL174593  40.048   6.614   6.164
 5906POPC   GL274594  40.074   6.727   6.164
 5906POPC   C1A74595  40.025   6.667   6.464
 5906POPC   D2A74596  39.963   6.674   6.764
 5906POPC   C3A74597  39.987   6.636   7.064
 5906POPC   C4A74598  40.033   6.688   7.364
 5906POPC   C1B74599  40.099   6.816   6.464
 5906POPC   C2B74600  40.137   6.878   6.764
 5906POPC   C3B74601  40.129   6.825   7.064
 5906POPC   C4B74602  40.093   6.898   7.364
 5907POPC   NC374603  15.161   1.947   5.564
 5907POPC   PO474604  15.226   2.006   5.864
 5907POPC   GL174605  15.189   1.940   6.164
 5907POPC   GL274606  15.044   1.932   6.164
 5907POPC   C1A74607  15.218   2.018   6.464
 5907POPC   D2A74608  15.151   1.984   6.764
 5907POPC   C3A74609  15.225   2.011   7.064
 5907POPC   C4A74610  15.211   2.033   7.364
 5907POPC   C1B74611  14.935   1.971   6.464
 5907POPC   C2B74612  14.943   1.906   6.764
 5907POPC   C3B74613  14.981   1.936   7.064
 5907POPC   C4B74614  14.942   1.904   7.364
 5908POPC   NC374615  43.906   0.437   5.564
 5908POPC   PO474616  43.897   0.406   5.864
 5908POPC   GL174617  43.856   0.452   6.164
 5908POPC   GL274618  43.833   0.598   6.164
 5908POPC   C1A74619  43.916   0.474   6.464
 5908POPC   D2A74620  43.837   0.479   6.764
 5908POPC   C3A74621  43.902   0.416   7.064
 5908POPC   C4A74622  43.876   0.440   7.364
 5908POPC   C1B74623  43.874   0.671   6.464
 5908POPC   C2B74624  43.785   0.707   6.764
 5908POPC   C3B74625  43.789   0.722   7.064
 5908POPC   C4B74626  43.832   0.725   7.364
 5909POPC   NC374627  28.387  35.379   5.564
 5909POPC   PO474628  28.366  35.333   5.864
 5909POPC   GL174629  28.325  35.392   6.164
 5909POPC   GL274630  28.409  35.290   6.164
 5909POPC   C1A74631  28.376  35.309   6.464
 5909POPC   D2A74632  28.324  35.344   6.764
 5909POPC   C3A74633  28.393  35.343   7.064
 5909POPC   C4A74634  28.416  35.317   7.364
 5909POPC   C1B74635  28.554  35.191   6.464
 5909POPC   C2B74636  28.570  35.190   6.764
 5909POPC   C3B74637  28.540  35.119   7.064
 5909POPC   C4B74638  28.560  35.132   7.364
 5910POPC   NC374639  26.037  34.613   5.564
 5910POPC   PO474640  26.084  34.612   5.864
 5910POPC   GL174641  26.079  34.619   6.164
 5910POPC   GL274642  25.956  34.590   6.164
 5910POPC   C1A74643  26.039  34.565   6.464
 5910POPC   D2A74644  26.081  34.624   6.764
 5910POPC   C3A74645  26.033  34.585   7.064
 5910POPC   C4A74646  26.017  34.618   7.364
 5910POPC   C1B74647  25.783  34.600   6.464
 5910POPC   C2B74648  25.785  34.585   6.764
 5910POPC   C3B74649  25.809  34.587   7.064
 5910POPC   C4B74650  25.810  34.638   7.364
 5911POPC   NC374651  25.310  26.017   5.564
 5911POPC   PO474652  25.250  26.021   5.864
 5911POPC   GL174653  25.235  25.996   6.164
 5911POPC   GL274654  25.141  26.058   6.164
 5911POPC   C1A74655  25.306  26.073   6.464
 5911POPC   D2A74656  25.226  26.072   6.764
 5911POPC   C3A74657  25.248  26.009   7.064
 5911POPC   C4A74658  25.239  26.068   7.364
 5911POPC   C1B74659  25.008  26.071   6.464
 5911POPC   C2B74660  24.988  26.020   6.764
 5911POPC   C3B74661  25.051  26.052   7.064
 5911POPC   C4B74662  24.974  26.115   7.364
 5912POPC   NC374663   7.376  25.235   5.564
 5912POPC   PO474664   7.382  25.260   5.864
 5912POPC   GL174665   7.454  25.287   6.164
 5912POPC   GL274666   7.319  25.190   6.164
 5912POPC   C1A74667   7.457  25.293   6.464
 5912POPC   D2A74668   7.403  25.267   6.764
 5912POPC   C3A74669   7.402  25.251   7.064
 5912POPC   C4A74670   7.396  25.241   7.364
 5912POPC   C1B74671   7.232  25.089   6.464
 5912POPC   C2B74672   7.236  25.092   6.764
 5912POPC   C3B74673   7.236  25.106   7.064
 5912POPC   C4B74674   7.178  25.115   7.364
 5913POPC   NC374675  40.745  33.845   5.564
 5913POPC   PO474676  40.781  33.829   5.864
 5913POPC   GL174677  40.763  33.839   6.164
 5913POPC   GL274678  40.947  33.850   6.164
 5913POPC   C1A74679  40.821  33.832   6.464
 5913POPC   D2A74680  40.782  33.841   6.764
 5913POPC   C3A74681  40.778  33.848   7.064
 5913POPC   C4A74682  40.746  33.774   7.364
 5913POPC   C1B74683  41.005  33.886   6.464
 5913POPC   C2B74684  40.994  33.858   6.764
 5913POPC   C3B74685  40.988  33.840   7.064
 5913POPC   C4B74686  41.066  33.841   7.364
 5914POPC   NC374687  28.367  24.461   5.564
 5914POPC   PO474688  28.380  24.440   5.864
 5914POPC   GL174689  28.417  24.499   6.164
 5914POPC   GL274690  28.420  24.633   6.164
 5914POPC   C1A74691  28.329  24.527   6.464
 5914POPC   D2A74692  28.361  24.506   6.764
 5914POPC   C3A74693  28.406  24.514   7.064
 5914POPC   C4A74694  28.412  24.482   7.364
 5914POPC   C1B74695  28.528  24.686   6.464
 5914POPC   C2B74696  28.473  24.738   6.764
 5914POPC   C3B74697  28.454  24.691   7.064
 5914POPC   C4B74698  28.512  24.714   7.364
 5915POPC   NC374699  28.416  17.514   5.564
 5915POPC   PO474700  28.403  17.527   5.864
 5915POPC   GL174701  28.345  17.553   6.164
 5915POPC   GL274702  28.490  17.468   6.164
 5915POPC   C1A74703  28.418  17.517   6.464
 5915POPC   D2A74704  28.387  17.496   6.764
 5915POPC   C3A74705  28.355  17.462   7.064
 5915POPC   C4A74706  28.389  17.524   7.364
 5915POPC   C1B74707  28.624  17.525   6.464
 5915POPC   C2B74708  28.653  17.471   6.764
 5915POPC   C3B74709  28.669  17.484   7.064
 5915POPC   C4B74710  28.630  17.478   7.364
 5916POPC   NC374711  37.639  27.587   5.564
 5916POPC   PO474712  37.655  27.636   5.864
 5916POPC   GL174713  37.639  27.634   6.164
 5916POPC   GL274714  37.648  27.700   6.164
 5916POPC   C1A74715  37.719  27.629   6.464
 5916POPC   D2A74716  37.669  27.599   6.764
 5916POPC   C3A74717  37.639  27.550   7.064
 5916POPC   C4A74718  37.710  27.573   7.364
 5916POPC   C1B74719  37.687  27.797   6.464
 5916POPC   C2B74720  37.662  27.795   6.764
 5916POPC   C3B74721  37.652  27.841   7.064
 5916POPC   C4B74722  37.731  27.865   7.364
 5917POPC   NC374723  31.500  32.219   5.564
 5917POPC   PO474724  31.474  32.273   5.864
 5917POPC   GL174725  31.474  32.230   6.164
 5917POPC   GL274726  31.419  32.155   6.164
 5917POPC   C1A74727  31.454  32.218   6.464
 5917POPC   D2A74728  31.447  32.239   6.764
 5917POPC   C3A74729  31.474  32.266   7.064
 5917POPC   C4A74730  31.429  32.236   7.364
 5917POPC   C1B74731  31.273  32.082   6.464
 5917POPC   C2B74732  31.325  32.070   6.764
 5917POPC   C3B74733  31.347  32.114   7.064
 5917POPC   C4B74734  31.323  32.058   7.364
 5918POPC   NC374735  41.603  19.049   5.564
 5918POPC   PO474736  41.511  19.034   5.864
 5918POPC   GL174737  41.555  19.053   6.164
 5918POPC   GL274738  41.577  19.188   6.164
 5918POPC   C1A74739  41.605  19.028   6.464
 5918POPC   D2A74740  41.594  19.027   6.764
 5918POPC   C3A74741  41.562  19.022   7.064
 5918POPC   C4A74742  41.514  19.045   7.364
 5918POPC   C1B74743  41.727  19.292   6.464
 5918POPC   C2B74744  41.664  19.309   6.764
 5918POPC   C3B74745  41.708  19.262   7.064
 5918POPC   C4B74746  41.640  19.316   7.364
 5919POPC   NC374747  21.416  32.206   5.564
 5919POPC   PO474748  21.366  32.200   5.864
 5919POPC   GL174749  21.383  32.234   6.164
 5919POPC   GL274750  21.434  32.339   6.164
 5919POPC   C1A74751  21.347  32.206   6.464
 5919POPC   D2A74752  21.358  32.247   6.764
 5919POPC   C3A74753  21.343  32.268   7.064
 5919POPC   C4A74754  21.425  32.285   7.364
 5919POPC   C1B74755  21.405  32.482   6.464
 5919POPC   C2B74756  21.458  32.467   6.764
 5919POPC   C3B74757  21.483  32.543   7.064
 5919POPC   C4B74758  21.416  32.455   7.364
 5920POPC   NC374759  42.308  44.627   5.564
 5920POPC   PO474760  42.346  44.710   5.864
 5920POPC   GL174761  42.289  44.632   6.164
 5920POPC   GL274762  42.424  44.685   6.164
 5920POPC   C1A74763  42.313  44.706   6.464
 5920POPC   D2A74764  42.359  44.643   6.764
 5920POPC   C3A74765  42.319  44.660   7.064
 5920POPC   C4A74766  42.370  44.623   7.364
 5920POPC   C1B74767  42.629  44.741   6.464
 5920POPC   C2B74768  42.621  44.684   6.764
 5920POPC   C3B74769  42.632  44.650   7.064
 5920POPC   C4B74770  42.590  44.725   7.364
 5921POPC   NC374771  23.730  22.133   5.564
 5921POPC   PO474772  23.740  22.165   5.864
 5921POPC   GL174773  23.710  22.151   6.164
 5921POPC   GL274774  23.706  22.319   6.164
 5921POPC   C1A74775  23.715  22.212   6.464
 5921POPC   D2A74776  23.705  22.211   6.764
 5921POPC   C3A74777  23.667  22.121   7.064
 5921POPC   C4A74778  23.692  22.164   7.364
 5921POPC   C1B74779  23.701  22.452   6.464
 5921POPC   C2B74780  23.662  22.402   6.764
 5921POPC   C3B74781  23.754  22.382   7.064
 5921POPC   C4B74782  23.731  22.372   7.364
 5922POPC   NC374783  19.870  12.120   5.564
 5922POPC   PO474784  19.831  12.122   5.864
 5922POPC   GL174785  19.817  12.090   6.164
 5922POPC   GL274786  19.937  12.066   6.164
 5922POPC   C1A74787  19.870  12.054   6.464
 5922POPC   D2A74788  19.879  12.050   6.764
 5922POPC   C3A74789  19.831  12.052   7.064
 5922POPC   C4A74790  19.852  12.108   7.364
 5922POPC   C1B74791  20.109  12.094   6.464
 5922POPC   C2B74792  20.054  12.096   6.764
 5922POPC   C3B74793  20.103  12.130   7.064
 5922POPC   C4B74794  20.063  12.099   7.364
 5923POPC   NC374795  34.577   8.231   5.564
 5923POPC   PO474796  34.553   8.160   5.864
 5923POPC   GL174797  34.583   8.196   6.164
 5923POPC   GL274798  34.459   8.107   6.164
 5923POPC   C1A74799  34.601   8.228   6.464
 5923POPC   D2A74800  34.559   8.217   6.764
 5923POPC   C3A74801  34.623   8.194   7.064
 5923POPC   C4A74802  34.623   8.157   7.364
 5923POPC   C1B74803  34.324   8.020   6.464
 5923POPC   C2B74804  34.324   8.099   6.764
 5923POPC   C3B74805  34.393   8.094   7.064
 5923POPC   C4B74806  34.337   8.062   7.364
 5924POPC   NC374807   1.177  35.307   5.564
 5924POPC   PO474808   1.164  35.339   5.864
 5924POPC   GL174809   1.181  35.347   6.164
 5924POPC   GL274810   1.127  35.450   6.164
 5924POPC   C1A74811   1.199  35.395   6.464
 5924POPC   D2A74812   1.207  35.390   6.764
 5924POPC   C3A74813   1.186  35.370   7.064
 5924POPC   C4A74814   1.172  35.384   7.364
 5924POPC   C1B74815   1.021  35.552   6.464
 5924POPC   C2B74816   0.994  35.505   6.764
 5924POPC   C3B74817   1.040  35.466   7.064
 5924POPC   C4B74818   1.022  35.497   7.364
 5925POPC   NC374819  23.713   5.866   5.564
 5925POPC   PO474820  23.684   5.879   5.864
 5925POPC   GL174821  23.686   5.835   6.164
 5925POPC   GL274822  23.622   5.758   6.164
 5925POPC   C1A74823  23.727   5.894   6.464
 5925POPC   D2A74824  23.720   5.843   6.764
 5925POPC   C3A74825  23.711   5.840   7.064
 5925POPC   C4A74826  23.699   5.917   7.364
 5925POPC   C1B74827  23.538   5.771   6.464
 5925POPC   C2B74828  23.497   5.753   6.764
 5925POPC   C3B74829  23.510   5.749   7.064
 5925POPC   C4B74830  23.549   5.686   7.364
 5926POPC   NC374831  29.131  33.799   5.564
 5926POPC   PO474832  29.117  33.799   5.864
 5926POPC   GL174833  29.099  33.797   6.164
 5926POPC   GL274834  29.005  33.756   6.164
 5926POPC   C1A74835  29.135  33.766   6.464
 5926POPC   D2A74836  29.146  33.840   6.764
 5926POPC   C3A74837  29.119  33.829   7.064
 5926POPC   C4A74838  29.173  33.800   7.364
 5926POPC   C1B74839  28.906  33.645   6.464
 5926POPC   C2B74840  28.941  33.650   6.764
 5926POPC   C3B74841  28.942  33.699   7.064
 5926POPC   C4B74842  28.928  33.683   7.364
 5927POPC   NC374843  11.263  21.419   5.564
 5927POPC   PO474844  11.269  21.392   5.864
 5927POPC   GL174845  11.349  21.407   6.164
 5927POPC   GL274846  11.386  21.346   6.164
 5927POPC   C1A74847  11.308  21.360   6.464
 5927POPC   D2A74848  11.271  21.379   6.764
 5927POPC   C3A74849  11.275  21.364   7.064
 5927POPC   C4A74850  11.350  21.349   7.364
 5927POPC   C1B74851  11.580  21.359   6.464
 5927POPC   C2B74852  11.573  21.352   6.764
 5927POPC   C3B74853  11.520  21.342   7.064
 5927POPC   C4B74854  11.519  21.339   7.364
 5928POPC   NC374855  44.707  36.099   5.564
 5928POPC   PO474856  44.635  36.105   5.864
 5928POPC   GL174857  44.639  36.161   6.164
 5928POPC   GL274858  44.658  36.212   6.164
 5928POPC   C1A74859  44.653  36.143   6.464
 5928POPC   D2A74860  44.641  36.118   6.764
 5928POPC   C3A74861  44.705  36.078   7.064
 5928POPC   C4A74862  44.614  36.094   7.364
 5928POPC   C1B74863  44.686  36.401   6.464
 5928POPC   C2B74864  44.750  36.376   6.764
 5928POPC   C3B74865  44.716  36.338   7.064
 5928POPC   C4B74866  44.683  36.405   7.364
 5929POPC   NC374867  13.617   5.842   5.564
 5929POPC   PO474868  13.620   5.893   5.864
 5929POPC   GL174869  13.602   5.884   6.164
 5929POPC   GL274870  13.738   5.948   6.164
 5929POPC   C1A74871  13.624   5.911   6.464
 5929POPC   D2A74872  13.618   5.877   6.764
 5929POPC   C3A74873  13.603   5.860   7.064
 5929POPC   C4A74874  13.611   5.912   7.364
 5929POPC   C1B74875  13.889   5.950   6.464
 5929POPC   C2B74876  13.800   5.985   6.764
 5929POPC   C3B74877  13.861   6.037   7.064
 5929POPC   C4B74878  13.860   5.959   7.364
 5930POPC   NC374879  20.581  15.989   5.564
 5930POPC   PO474880  20.636  15.906   5.864
 5930POPC   GL174881  20.597  15.997   6.164
 5930POPC   GL274882  20.504  16.108   6.164
 5930POPC   C1A74883  20.567  15.964   6.464
 5930POPC   D2A74884  20.566  15.923   6.764
 5930POPC   C3A74885  20.639  15.923   7.064
 5930POPC   C4A74886  20.568  15.993   7.364
 5930POPC   C1B74887  20.496  16.134   6.464
 5930POPC   C2B74888  20.512  16.147   6.764
 5930POPC   C3B74889  20.449  16.173   7.064
 5930POPC   C4B74890  20.454  16.150   7.364
 5931POPC   NC374891   5.118   0.463   5.564
 5931POPC   PO474892   5.103   0.416   5.864
 5931POPC   GL174893   5.072   0.464   6.164
 5931POPC   GL274894   5.184   0.490   6.164
 5931POPC   C1A74895   5.128   0.406   6.464
 5931POPC   D2A74896   5.098   0.447   6.764
 5931POPC   C3A74897   5.048   0.462   7.064
 5931POPC   C4A74898   5.095   0.427   7.364
 5931POPC   C1B74899   5.235   0.593   6.464
 5931POPC   C2B74900   5.273   0.589   6.764
 5931POPC   C3B74901   5.235   0.624   7.064
 5931POPC   C4B74902   5.204   0.637   7.364
 5932POPC   NC374903  22.967  34.531   5.564
 5932POPC   PO474904  22.944  34.607   5.864
 5932POPC   GL174905  22.938  34.546   6.164
 5932POPC   GL274906  22.906  34.498   6.164
 5932POPC   C1A74907  22.930  34.575   6.464
 5932POPC   D2A74908  22.957  34.568   6.764
 5932POPC   C3A74909  22.972  34.530   7.064
 5932POPC   C4A74910  22.918  34.545   7.364
 5932POPC   C1B74911  22.782  34.340   6.464
 5932POPC   C2B74912  22.811  34.384   6.764
 5932POPC   C3B74913  22.827  34.338   7.064
 5932POPC   C4B74914  22.800  34.326   7.364
 5933POPC   NC374915  40.763  26.784   5.564
 5933POPC   PO474916  40.734  26.861   5.864
 5933POPC   GL174917  40.738  26.841   6.164
 5933POPC   GL274918  40.699  26.909   6.164
 5933POPC   C1A74919  40.748  26.833   6.464
 5933POPC   D2A74920  40.793  26.773   6.764
 5933POPC   C3A74921  40.808  26.797   7.064
 5933POPC   C4A74922  40.774  26.809   7.364
 5933POPC   C1B74923  40.617  26.975   6.464
 5933POPC   C2B74924  40.569  27.015   6.764
 5933POPC   C3B74925  40.553  26.974   7.064
 5933POPC   C4B74926  40.551  26.980   7.364
 5934POPC   NC374927  21.399  21.383   5.564
 5934POPC   PO474928  21.386  21.422   5.864
 5934POPC   GL174929  21.385  21.408   6.164
 5934POPC   GL274930  21.462  21.272   6.164
 5934POPC   C1A74931  21.373  21.376   6.464
 5934POPC   D2A74932  21.413  21.382   6.764
 5934POPC   C3A74933  21.407  21.381   7.064
 5934POPC   C4A74934  21.420  21.422   7.364
 5934POPC   C1B74935  21.546  21.194   6.464
 5934POPC   C2B74936  21.535  21.195   6.764
 5934POPC   C3B74937  21.604  21.207   7.064
 5934POPC   C4B74938  21.548  21.167   7.364
 5935POPC   NC374939   8.152  29.912   5.564
 5935POPC   PO474940   8.173  29.965   5.864
 5935POPC   GL174941   8.214  29.878   6.164
 5935POPC   GL274942   8.287  30.017   6.164
 5935POPC   C1A74943   8.164  29.941   6.464
 5935POPC   D2A74944   8.177  29.951   6.764
 5935POPC   C3A74945   8.168  29.901   7.064
 5935POPC   C4A74946   8.219  29.895   7.364
 5935POPC   C1B74947   8.379  30.016   6.464
 5935POPC   C2B74948   8.372  30.048   6.764
 5935POPC   C3B74949   8.458  30.078   7.064
 5935POPC   C4B74950   8.450  30.046   7.364
 5936POPC   NC374951   5.098  19.105   5.564
 5936POPC   PO474952   5.085  19.090   5.864
 5936POPC   GL174953   5.117  19.065   6.164
 5936POPC   GL274954   5.247  19.027   6.164
 5936POPC   C1A74955   5.141  19.086   6.464
 5936POPC   D2A74956   5.128  19.051   6.764
 5936POPC   C3A74957   5.113  19.048   7.064
 5936POPC   C4A74958   5.069  19.024   7.364
 5936POPC   C1B74959   5.295  19.066   6.464
 5936POPC   C2B74960   5.369  19.005   6.764
 5936POPC   C3B74961   5.299  18.985   7.064
 5936POPC   C4B74962   5.360  19.058   7.364
 5937POPC   NC374963  13.591  28.348   5.564
 5937POPC   PO474964  13.590  28.396   5.864
 5937POPC   GL174965  13.649  28.410   6.164
 5937POPC   GL274966  13.712  28.477   6.164
 5937POPC   C1A74967  13.600  28.348   6.464
 5937POPC   D2A74968  13.599  28.378   6.764
 5937POPC   C3A74969  13.642  28.371   7.064
 5937POPC   C4A74970  13.579  28.376   7.364
 5937POPC   C1B74971  13.748  28.553   6.464
 5937POPC   C2B74972  13.840  28.545   6.764
 5937POPC   C3B74973  13.759  28.601   7.064
 5937POPC   C4B74974  13.777  28.565   7.364
 5938POPC   NC374975  13.590  17.509   5.564
 5938POPC   PO474976  13.639  17.528   5.864
 5938POPC   GL174977  13.671  17.528   6.164
 5938POPC   GL274978  13.709  17.455   6.164
 5938POPC   C1A74979  13.634  17.513   6.464
 5938POPC   D2A74980  13.653  17.549   6.764
 5938POPC   C3A74981  13.625  17.489   7.064
 5938POPC   C4A74982  13.639  17.457   7.364
 5938POPC   C1B74983  13.901  17.510   6.464
 5938POPC   C2B74984  13.871  17.472   6.764
 5938POPC   C3B74985  13.918  17.471   7.064
 5938POPC   C4B74986  13.828  17.490   7.364
 5939POPC   NC374987   0.413  26.781   5.564
 5939POPC   PO474988   0.409  26.836   5.864
 5939POPC   GL174989   0.443  26.782   6.164
 5939POPC   GL274990   0.520  26.721   6.164
 5939POPC   C1A74991   0.419  26.830   6.464
 5939POPC   D2A74992   0.440  26.854   6.764
 5939POPC   C3A74993   0.462  26.774   7.064
 5939POPC   C4A74994   0.430  26.837   7.364
 5939POPC   C1B74995   0.621  26.730   6.464
 5939POPC   C2B74996   0.610  26.729   6.764
 5939POPC   C3B74997   0.694  26.662   7.064
 5939POPC   C4B74998   0.664  26.711   7.364
 5940POPC   NC374999   0.418  33.760   5.564
 5940POPC   PO475000   0.436  33.766   5.864
 5940POPC   GL175001   0.464  33.810   6.164
 5940POPC   GL275002   0.438  33.954   6.164
 5940POPC   C1A75003   0.421  33.771   6.464
 5940POPC   D2A75004   0.411  33.836   6.764
 5940POPC   C3A75005   0.459  33.798   7.064
 5940POPC   C4A75006   0.415  33.764   7.364
 5940POPC   C1B75007   0.429  34.028   6.464
 5940POPC   C2B75008   0.457  34.079   6.764
 5940POPC   C3B75009   0.507  34.093   7.064
 5940POPC   C4B75010   0.492  34.018   7.364
 5941POPC   NC375011  10.496   5.045   5.564
 5941POPC   PO475012  10.490   5.093   5.864
 5941POPC   GL175013  10.522   5.093   6.164
 5941POPC   GL275014  10.364   5.120   6.164
 5941POPC   C1A75015  10.558   5.133   6.464
 5941POPC   D2A75016  10.485   5.070   6.764
 5941POPC   C3A75017  10.486   5.138   7.064
 5941POPC   C4A75018  10.537   5.099   7.364
 5941POPC   C1B75019  10.275   5.115   6.464
 5941POPC   C2B75020  10.318   5.107   6.764
 5941POPC   C3B75021  10.245   5.144   7.064
 5941POPC   C4B75022  10.264   5.094   7.364
 5942POPC   NC375023  10.535  26.061   5.564
 5942POPC   PO475024  10.561  26.007   5.864
 5942POPC   GL175025  10.501  25.997   6.164
 5942POPC   GL275026  10.382  26.091   6.164
 5942POPC   C1A75027  10.505  26.068   6.464
 5942POPC   D2A75028  10.504  26.002   6.764
 5942POPC   C3A75029  10.526  26.073   7.064
 5942POPC   C4A75030  10.538  25.992   7.364
 5942POPC   C1B75031  10.235  26.097   6.464
 5942POPC   C2B75032  10.293  26.067   6.764
 5942POPC   C3B75033  10.325  26.083   7.064
 5942POPC   C4B75034  10.278  26.111   7.364
 5943POPC   NC375035  40.830  13.606   5.564
 5943POPC   PO475036  40.766  13.597   5.864
 5943POPC   GL175037  40.811  13.660   6.164
 5943POPC   GL275038  40.859  13.790   6.164
 5943POPC   C1A75039  40.829  13.661   6.464
 5943POPC   D2A75040  40.741  13.600   6.764
 5943POPC   C3A75041  40.829  13.580   7.064
 5943POPC   C4A75042  40.797  13.672   7.364
 5943POPC   C1B75043  40.851  13.872   6.464
 5943POPC   C2B75044  40.892  13.866   6.764
 5943POPC   C3B75045  40.842  13.818   7.064
 5943POPC   C4B75046  40.853  13.887   7.364
 5944POPC   NC375047  15.931  14.442   5.564
 5944POPC   PO475048  15.995  14.451   5.864
 5944POPC   GL175049  15.944  14.443   6.164
 5944POPC   GL275050  15.818  14.318   6.164
 5944POPC   C1A75051  15.956  14.366   6.464
 5944POPC   D2A75052  15.937  14.421   6.764
 5944POPC   C3A75053  15.942  14.440   7.064
 5944POPC   C4A75054  15.928  14.412   7.364
 5944POPC   C1B75055  15.775  14.269   6.464
 5944POPC   C2B75056  15.744  14.309   6.764
 5944POPC   C3B75057  15.690  14.293   7.064
 5944POPC   C4B75058  15.766  14.344   7.364
 5945POPC   NC375059  22.203   3.586   5.564
 5945POPC   PO475060  22.198   3.553   5.864
 5945POPC   GL175061  22.135   3.520   6.164
 5945POPC   GL275062  22.106   3.457   6.164
 5945POPC   C1A75063  22.210   3.538   6.464
 5945POPC   D2A75064  22.125   3.514   6.764
 5945POPC   C3A75065  22.130   3.555   7.064
 5945POPC   C4A75066  22.212   3.585   7.364
 5945POPC   C1B75067  22.064   3.353   6.464
 5945POPC   C2B75068  22.050   3.274   6.764
 5945POPC   C3B75069  22.133   3.256   7.064
 5945POPC   C4B75070  22.051   3.326   7.364
 5946POPC   NC375071  30.698  43.901   5.564
 5946POPC   PO475072  30.739  43.840   5.864
 5946POPC   GL175073  30.726  43.844   6.164
 5946POPC   GL275074  30.830  43.865   6.164
 5946POPC   C1A75075  30.682  43.902   6.464
 5946POPC   D2A75076  30.705  43.883   6.764
 5946POPC   C3A75077  30.668  43.936   7.064
 5946POPC   C4A75078  30.649  43.886   7.364
 5946POPC   C1B75079  30.977  43.820   6.464
 5946POPC   C2B75080  30.901  43.858   6.764
 5946POPC   C3B75081  30.969  43.803   7.064
 5946POPC   C4B75082  30.972  43.809   7.364
 5947POPC   NC375083  26.778  42.303   5.564
 5947POPC   PO475084  26.813  42.313   5.864
 5947POPC   GL175085  26.838  42.296   6.164
 5947POPC   GL275086  26.649  42.285   6.164
 5947POPC   C1A75087  26.843  42.347   6.464
 5947POPC   D2A75088  26.785  42.294   6.764
 5947POPC   C3A75089  26.768  42.319   7.064
 5947POPC   C4A75090  26.801  42.343   7.364
 5947POPC   C1B75091  26.569  42.287   6.464
 5947POPC   C2B75092  26.621  42.235   6.764
 5947POPC   C3B75093  26.621  42.270   7.064
 5947POPC   C4B75094  26.582  42.258   7.364
 5948POPC   NC375095  25.303  15.928   5.564
 5948POPC   PO475096  25.289  15.942   5.864
 5948POPC   GL175097  25.291  15.913   6.164
 5948POPC   GL275098  25.329  16.006   6.164
 5948POPC   C1A75099  25.268  15.967   6.464
 5948POPC   D2A75100  25.244  15.994   6.764
 5948POPC   C3A75101  25.273  15.981   7.064
 5948POPC   C4A75102  25.298  15.908   7.364
 5948POPC   C1B75103  25.513  16.032   6.464
 5948POPC   C2B75104  25.514  16.085   6.764
 5948POPC   C3B75105  25.464  16.111   7.064
 5948POPC   C4B75106  25.485  16.104   7.364
 5949POPC   NC375107   1.242   6.676   5.564
 5949POPC   PO475108   1.256   6.612   5.864
 5949POPC   GL175109   1.179   6.677   6.164
 5949POPC   GL275110   1.089   6.622   6.164
 5949POPC   C1A75111   1.194   6.679   6.464
 5949POPC   D2A75112   1.235   6.600   6.764
 5949POPC   C3A75113   1.226   6.668   7.064
 5949POPC   C4A75114   1.193   6.659   7.364
 5949POPC   C1B75115   0.963   6.555   6.464
 5949POPC   C2B75116   0.958   6.566   6.764
 5949POPC   C3B75117   0.959   6.564   7.064
 5949POPC   C4B75118   1.028   6.569   7.364
 5950POPC   NC375119   8.963  44.675   5.564
 5950POPC   PO475120   8.982  44.680   5.864
 5950POPC   GL175121   9.019  44.646   6.164
 5950POPC   GL275122   8.819  44.594   6.164
 5950POPC   C1A75123   9.019  44.635   6.464
 5950POPC   D2A75124   8.965  44.680   6.764
 5950POPC   C3A75125   8.973  44.690   7.064
 5950POPC   C4A75126   8.964  44.685   7.364
 5950POPC   C1B75127   8.700  44.637   6.464
 5950POPC   C2B75128   8.773  44.597   6.764
 5950POPC   C3B75129   8.720  44.650   7.064
 5950POPC   C4B75130   8.692  44.638   7.364
 5951POPC   NC375131   5.882   2.734   5.564
 5951POPC   PO475132   5.888   2.729   5.864
 5951POPC   GL175133   5.820   2.738   6.164
 5951POPC   GL275134   5.931   2.887   6.164
 5951POPC   C1A75135   5.912   2.787   6.464
 5951POPC   D2A75136   5.895   2.785   6.764
 5951POPC   C3A75137   5.902   2.805   7.064
 5951POPC   C4A75138   5.908   2.750   7.364
 5951POPC   C1B75139   6.079   2.959   6.464
 5951POPC   C2B75140   6.074   2.965   6.764
 5951POPC   C3B75141   6.072   2.913   7.064
 5951POPC   C4B75142   6.008   2.986   7.364
 5952POPC   NC375143  40.741   4.284   5.564
 5952POPC   PO475144  40.760   4.320   5.864
 5952POPC   GL175145  40.736   4.277   6.164
 5952POPC   GL275146  40.910   4.344   6.164
 5952POPC   C1A75147  40.749   4.330   6.464
 5952POPC   D2A75148  40.816   4.358   6.764
 5952POPC   C3A75149  40.815   4.348   7.064
 5952POPC   C4A75150  40.763   4.286   7.364
 5952POPC   C1B75151  41.026   4.433   6.464
 5952POPC   C2B75152  40.976   4.361   6.764
 5952POPC   C3B75153  41.028   4.428   7.064
 5952POPC   C4B75154  40.994   4.421   7.364
 5953POPC   NC375155   7.450  31.436   5.564
 5953POPC   PO475156   7.445  31.473   5.864
 5953POPC   GL175157   7.400  31.521   6.164
 5953POPC   GL275158   7.520  31.497   6.164
 5953POPC   C1A75159   7.412  31.504   6.464
 5953POPC   D2A75160   7.432  31.437   6.764
 5953POPC   C3A75161   7.438  31.522   7.064
 5953POPC   C4A75162   7.383  31.448   7.364
 5953POPC   C1B75163   7.657  31.495   6.464
 5953POPC   C2B75164   7.672  31.539   6.764
 5953POPC   C3B75165   7.625  31.518   7.064
 5953POPC   C4B75166   7.654  31.485   7.364
 5954POPC   NC375167  33.029  12.855   5.564
 5954POPC   PO475168  33.012  12.828   5.864
 5954POPC   GL175169  33.051  12.825   6.164
 5954POPC   GL275170  32.904  12.879   6.164
 5954POPC   C1A75171  33.069  12.828   6.464
 5954POPC   D2A75172  33.014  12.820   6.764
 5954POPC   C3A75173  33.033  12.855   7.064
 5954POPC   C4A75174  33.058  12.874   7.364
 5954POPC   C1B75175  32.779  12.891   6.464
 5954POPC   C2B75176  32.817  12.895   6.764
 5954POPC   C3B75177  32.774  12.837   7.064
 5954POPC   C4B75178  32.816  12.820   7.364
 5955POPC   NC375179  23.696   2.767   5.564
 5955POPC   PO475180  23.763   2.813   5.864
 5955POPC   GL175181  23.674   2.720   6.164
 5955POPC   GL275182  23.626   2.823   6.164
 5955POPC   C1A75183  23.752   2.739   6.464
 5955POPC   D2A75184  23.696   2.765   6.764
 5955POPC   C3A75185  23.754   2.719   7.064
 5955POPC   C4A75186  23.727   2.799   7.364
 5955POPC   C1B75187  23.478   2.881   6.464
 5955POPC   C2B75188  23.491   2.882   6.764
 5955POPC   C3B75189  23.445   2.864   7.064
 5955POPC   C4B75190  23.431   2.852   7.364
 5956POPC   NC375191  33.055   1.960   5.564
 5956POPC   PO475192  32.999   1.945   5.864
 5956POPC   GL175193  33.003   1.946   6.164
 5956POPC   GL275194  33.144   2.020   6.164
 5956POPC   C1A75195  33.014   1.951   6.464
 5956POPC   D2A75196  33.013   1.988   6.764
 5956POPC   C3A75197  33.030   2.025   7.064
 5956POPC   C4A75198  32.976   1.955   7.364
 5956POPC   C1B75199  33.228   2.035   6.464
 5956POPC   C2B75200  33.312   2.011   6.764
 5956POPC   C3B75201  33.293   2.066   7.064
 5956POPC   C4B75202  33.287   1.992   7.364
 5957POPC   NC375203  43.152   5.078   5.564
 5957POPC   PO475204  43.138   5.091   5.864
 5957POPC   GL175205  43.159   5.118   6.164
 5957POPC   GL275206  43.048   5.190   6.164
 5957POPC   C1A75207  43.072   5.092   6.464
 5957POPC   D2A75208  43.086   5.054   6.764
 5957POPC   C3A75209  43.132   5.076   7.064
 5957POPC   C4A75210  43.128   5.123   7.364
 5957POPC   C1B75211  43.057   5.330   6.464
 5957POPC   C2B75212  43.110   5.329   6.764
 5957POPC   C3B75213  43.022   5.298   7.064
 5957POPC   C4B75214  43.118   5.355   7.364
 5958POPC   NC375215  25.287  26.842   5.564
 5958POPC   PO475216  25.260  26.851   5.864
 5958POPC   GL175217  25.297  26.800   6.164
 5958POPC   GL275218  25.196  26.726   6.164
 5958POPC   C1A75219  25.234  26.812   6.464
 5958POPC   D2A75220  25.295  26.811   6.764
 5958POPC   C3A75221  25.283  26.863   7.064
 5958POPC   C4A75222  25.298  26.768   7.364
 5958POPC   C1B75223  25.144  26.625   6.464
 5958POPC   C2B75224  25.173  26.642   6.764
 5958POPC   C3B75225  25.138  26.647   7.064
 5958POPC   C4B75226  25.172  26.638   7.364
 5959POPC   NC375227  42.335  38.452   5.564
 5959POPC   PO475228  42.378  38.464   5.864
 5959POPC   GL175229  42.321  38.412   6.164
 5959POPC   GL275230  42.336  38.337   6.164
 5959POPC   C1A75231  42.350  38.497   6.464
 5959POPC   D2A75232  42.376  38.476   6.764
 5959POPC   C3A75233  42.330  38.500   7.064
 5959POPC   C4A75234  42.379  38.472   7.364
 5959POPC   C1B75235  42.414  38.194   6.464
 5959POPC   C2B75236  42.405  38.250   6.764
 5959POPC   C3B75237  42.387  38.248   7.064
 5959POPC   C4B75238  42.372  38.222   7.364
 5960POPC   NC375239  43.898  31.508   5.564
 5960POPC   PO475240  43.886  31.424   5.864
 5960POPC   GL175241  43.855  31.458   6.164
 5960POPC   GL275242  44.051  31.530   6.164
 5960POPC   C1A75243  43.839  31.453   6.464
 5960POPC   D2A75244  43.898  31.502   6.764
 5960POPC   C3A75245  43.886  31.481   7.064
 5960POPC   C4A75246  43.911  31.490   7.364
 5960POPC   C1B75247  44.125  31.565   6.464
 5960POPC   C2B75248  44.153  31.508   6.764
 5960POPC   C3B75249  44.127  31.519   7.064
 5960POPC   C4B75250  44.124  31.508   7.364
 5961POPC   NC375251  36.159  14.389   5.564
 5961POPC   PO475252  36.160  14.406   5.864
 5961POPC   GL175253  36.128  14.392   6.164
 5961POPC   GL275254  36.029  14.429   6.164
 5961POPC   C1A75255  36.167  14.370   6.464
 5961POPC   D2A75256  36.167  14.428   6.764
 5961POPC   C3A75257  36.082  14.429   7.064
 5961POPC   C4A75258  36.134  14.423   7.364
 5961POPC   C1B75259  35.890  14.369   6.464
 5961POPC   C2B75260  35.871  14.344   6.764
 5961POPC   C3B75261  35.880  14.378   7.064
 5961POPC   C4B75262  35.878  14.389   7.364
 5962POPC   NC375263  18.272  41.574   5.564
 5962POPC   PO475264  18.234  41.544   5.864
 5962POPC   GL175265  18.271  41.542   6.164
 5962POPC   GL275266  18.411  41.585   6.164
 5962POPC   C1A75267  18.312  41.538   6.464
 5962POPC   D2A75268  18.254  41.522   6.764
 5962POPC   C3A75269  18.315  41.542   7.064
 5962POPC   C4A75270  18.304  41.525   7.364
 5962POPC   C1B75271  18.520  41.568   6.464
 5962POPC   C2B75272  18.517  41.551   6.764
 5962POPC   C3B75273  18.521  41.593   7.064
 5962POPC   C4B75274  18.554  41.631   7.364
 5963POPC   NC375275  10.517  25.314   5.564
 5963POPC   PO475276  10.516  25.227   5.864
 5963POPC   GL175277  10.556  25.268   6.164
 5963POPC   GL275278  10.529  25.356   6.164
 5963POPC   C1A75279  10.562  25.289   6.464
 5963POPC   D2A75280  10.568  25.285   6.764
 5963POPC   C3A75281  10.551  25.250   7.064
 5963POPC   C4A75282  10.477  25.277   7.364
 5963POPC   C1B75283  10.601  25.521   6.464
 5963POPC   C2B75284  10.652  25.459   6.764
 5963POPC   C3B75285  10.621  25.455   7.064
 5963POPC   C4B75286  10.666  25.524   7.364
 5964POPC   NC375287  30.663  37.652   5.564
 5964POPC   PO475288  30.682  37.672   5.864
 5964POPC   GL175289  30.695  37.637   6.164
 5964POPC   GL275290  30.645  37.774   6.164
 5964POPC   C1A75291  30.708  37.660   6.464
 5964POPC   D2A75292  30.726  37.630   6.764
 5964POPC   C3A75293  30.730  37.717   7.064
 5964POPC   C4A75294  30.657  37.698   7.364
 5964POPC   C1B75295  30.503  37.828   6.464
 5964POPC   C2B75296  30.526  37.804   6.764
 5964POPC   C3B75297  30.511  37.797   7.064
 5964POPC   C4B75298  30.523  37.784   7.364
 5965POPC   NC375299  15.139  17.536   5.564
 5965POPC   PO475300  15.137  17.546   5.864
 5965POPC   GL175301  15.212  17.463   6.164
 5965POPC   GL275302  15.050  17.575   6.164
 5965POPC   C1A75303  15.190  17.527   6.464
 5965POPC   D2A75304  15.229  17.522   6.764
 5965POPC   C3A75305  15.163  17.513   7.064
 5965POPC   C4A75306  15.150  17.536   7.364
 5965POPC   C1B75307  14.964  17.584   6.464
 5965POPC   C2B75308  14.972  17.578   6.764
 5965POPC   C3B75309  14.920  17.597   7.064
 5965POPC   C4B75310  14.923  17.555   7.364
 5966POPC   NC375311  36.871  41.510   5.564
 5966POPC   PO475312  36.871  41.547   5.864
 5966POPC   GL175313  36.878  41.511   6.164
 5966POPC   GL275314  36.958  41.457   6.164
 5966POPC   C1A75315  36.936  41.601   6.464
 5966POPC   D2A75316  36.869  41.559   6.764
 5966POPC   C3A75317  36.878  41.541   7.064
 5966POPC   C4A75318  36.871  41.558   7.364
 5966POPC   C1B75319  37.065  41.394   6.464
 5966POPC   C2B75320  37.044  41.355   6.764
 5966POPC   C3B75321  37.065  41.360   7.064
 5966POPC   C4B75322  37.011  41.329   7.364
 5967POPC   NC375323   8.160   3.559   5.564
 5967POPC   PO475324   8.234   3.576   5.864
 5967POPC   GL175325   8.219   3.524   6.164
 5967POPC   GL275326   8.357   3.536   6.164
 5967POPC   C1A75327   8.166   3.494   6.464
 5967POPC   D2A75328   8.243   3.590   6.764
 5967POPC   C3A75329   8.182   3.579   7.064
 5967POPC   C4A75330   8.218   3.553   7.364
 5967POPC   C1B75331   8.419   3.501   6.464
 5967POPC   C2B75332   8.417   3.465   6.764
 5967POPC   C3B75333   8.441   3.536   7.064
 5967POPC   C4B75334   8.480   3.542   7.364
 5968POPC   NC375335  37.666  36.872   5.564
 5968POPC   PO475336  37.685  36.951   5.864
 5968POPC   GL175337  37.697  36.938   6.164
 5968POPC   GL275338  37.761  36.992   6.164
 5968POPC   C1A75339  37.680  36.854   6.464
 5968POPC   D2A75340  37.688  36.898   6.764
 5968POPC   C3A75341  37.670  36.899   7.064
 5968POPC   C4A75342  37.725  36.865   7.364
 5968POPC   C1B75343  37.864  37.096   6.464
 5968POPC   C2B75344  37.802  37.092   6.764
 5968POPC   C3B75345  37.816  37.091   7.064
 5968POPC   C4B75346  37.843  37.100   7.364
 5969POPC   NC375347  31.471  22.193   5.564
 5969POPC   PO475348  31.505  22.173   5.864
 5969POPC   GL175349  31.515  22.129   6.164
 5969POPC   GL275350  31.374  22.228   6.164
 5969POPC   C1A75351  31.477  22.200   6.464
 5969POPC   D2A75352  31.461  22.170   6.764
 5969POPC   C3A75353  31.461  22.194   7.064
 5969POPC   C4A75354  31.427  22.189   7.364
 5969POPC   C1B75355  31.247  22.302   6.464
 5969POPC   C2B75356  31.297  22.275   6.764
 5969POPC   C3B75357  31.316  22.338   7.064
 5969POPC   C4B75358  31.318  22.292   7.364
 5970POPC   NC375359  18.245  38.448   5.564
 5970POPC   PO475360  18.271  38.479   5.864
 5970POPC   GL175361  18.252  38.444   6.164
 5970POPC   GL275362  18.172  38.551   6.164
 5970POPC   C1A75363  18.294  38.437   6.464
 5970POPC   D2A75364  18.282  38.427   6.764
 5970POPC   C3A75365  18.331  38.488   7.064
 5970POPC   C4A75366  18.268  38.468   7.364
 5970POPC   C1B75367  18.166  38.653   6.464
 5970POPC   C2B75368  18.100  38.606   6.764
 5970POPC   C3B75369  18.122  38.657   7.064
 5970POPC   C4B75370  18.140  38.620   7.364
 5971POPC   NC375371  40.767  39.275   5.564
 5971POPC   PO475372  40.782  39.246   5.864
 5971POPC   GL175373  40.740  39.244   6.164
 5971POPC   GL275374  40.924  39.292   6.164
 5971POPC   C1A75375  40.734  39.182   6.464
 5971POPC   D2A75376  40.773  39.258   6.764
 5971POPC   C3A75377  40.742  39.252   7.064
 5971POPC   C4A75378  40.814  39.258   7.364
 5971POPC   C1B75379  41.032  39.308   6.464
 5971POPC   C2B75380  41.041  39.330   6.764
 5971POPC   C3B75381  40.988  39.315   7.064
 5971POPC   C4B75382  40.985  39.345   7.364
 5972POPC   NC375383   5.840   8.933   5.564
 5972POPC   PO475384   5.856   9.003   5.864
 5972POPC   GL175385   5.867   8.992   6.164
 5972POPC   GL275386   5.777   8.873   6.164
 5972POPC   C1A75387   5.867   8.953   6.464
 5972POPC   D2A75388   5.897   8.956   6.764
 5972POPC   C3A75389   5.869   8.955   7.064
 5972POPC   C4A75390   5.843   8.990   7.364
 5972POPC   C1B75391   5.690   8.830   6.464
 5972POPC   C2B75392   5.662   8.838   6.764
 5972POPC   C3B75393   5.726   8.832   7.064
 5972POPC   C4B75394   5.719   8.806   7.364
 5973POPC   NC375395  24.524  26.845   5.564
 5973POPC   PO475396  24.507  26.842   5.864
 5973POPC   GL175397  24.505  26.775   6.164
 5973POPC   GL275398  24.531  26.674   6.164
 5973POPC   C1A75399  24.462  26.773   6.464
 5973POPC   D2A75400  24.443  26.837   6.764
 5973POPC   C3A75401  24.473  26.816   7.064
 5973POPC   C4A75402  24.538  26.778   7.364
 5973POPC   C1B75403  24.544  26.592   6.464
 5973POPC   C2B75404  24.587  26.569   6.764
 5973POPC   C3B75405  24.626  26.616   7.064
 5973POPC   C4B75406  24.537  26.581   7.364
 5974POPC   NC375407  25.993  18.330   5.564
 5974POPC   PO475408  26.010  18.300   5.864
 5974POPC   GL175409  25.995  18.286   6.164
 5974POPC   GL275410  26.155  18.249   6.164
 5974POPC   C1A75411  26.088  18.273   6.464
 5974POPC   D2A75412  26.015  18.285   6.764
 5974POPC   C3A75413  26.033  18.291   7.064
 5974POPC   C4A75414  26.075  18.245   7.364
 5974POPC   C1B75415  26.309  18.212   6.464
 5974POPC   C2B75416  26.318  18.169   6.764
 5974POPC   C3B75417  26.232  18.230   7.064
 5974POPC   C4B75418  26.266  18.246   7.364
 5975POPC   NC375419  38.411   3.531   5.564
 5975POPC   PO475420  38.502   3.522   5.864
 5975POPC   GL175421  38.435   3.542   6.164
 5975POPC   GL275422  38.535   3.539   6.164
 5975POPC   C1A75423  38.485   3.515   6.464
 5975POPC   D2A75424  38.489   3.537   6.764
 5975POPC   C3A75425  38.458   3.584   7.064
 5975POPC   C4A75426  38.470   3.559   7.364
 5975POPC   C1B75427  38.696   3.558   6.464
 5975POPC   C2B75428  38.739   3.513   6.764
 5975POPC   C3B75429  38.664   3.555   7.064
 5975POPC   C4B75430  38.675   3.586   7.364
 5976POPC   NC375431  44.616   6.652   5.564
 5976POPC   PO475432  44.699   6.647   5.864
 5976POPC   GL175433  44.613   6.634   6.164
 5976POPC   GL275434  44.728   6.580   6.164
 5976POPC   C1A75435  44.676   6.674   6.464
 5976POPC   D2A75436  44.654   6.660   6.764
 5976POPC   C3A75437  44.692   6.659   7.064
 5976POPC   C4A75438  44.661   6.661   7.364
 5976POPC   C1B75439  44.854   6.446   6.464
 5976POPC   C2B75440  44.792   6.465   6.764
 5976POPC   C3B75441  44.781   6.447   7.064
 5976POPC   C4B75442  44.766   6.454   7.364
 5977POPC   NC375443  25.313  18.263   5.564
 5977POPC   PO475444  25.241  18.273   5.864
 5977POPC   GL175445  25.266  18.236   6.164
 5977POPC   GL275446  25.185  18.271   6.164
 5977POPC   C1A75447  25.230  18.301   6.464
 5977POPC   D2A75448  25.235  18.256   6.764
 5977POPC   C3A75449  25.299  18.293   7.064
 5977POPC   C4A75450  25.303  18.323   7.364
 5977POPC   C1B75451  25.023  18.187   6.464
 5977POPC   C2B75452  24.997  18.202   6.764
 5977POPC   C3B75453  25.034  18.229   7.064
 5977POPC   C4B75454  25.061  18.181   7.364
 5978POPC   NC375455  38.439  33.762   5.564
 5978POPC   PO475456  38.469  33.848   5.864
 5978POPC   GL175457  38.493  33.845   6.164
 5978POPC   GL275458  38.454  33.698   6.164
 5978POPC   C1A75459  38.469  33.839   6.464
 5978POPC   D2A75460  38.419  33.797   6.764
 5978POPC   C3A75461  38.429  33.810   7.064
 5978POPC   C4A75462  38.486  33.793   7.364
 5978POPC   C1B75463  38.510  33.593   6.464
 5978POPC   C2B75464  38.553  33.611   6.764
 5978POPC   C3B75465  38.561  33.527   7.064
 5978POPC   C4B75466  38.562  33.524   7.364
 5979POPC   NC375467  24.498  27.544   5.564
 5979POPC   PO475468  24.455  27.601   5.864
 5979POPC   GL175469  24.467  27.592   6.164
 5979POPC   GL275470  24.431  27.703   6.164
 5979POPC   C1A75471  24.454  27.638   6.464
 5979POPC   D2A75472  24.535  27.620   6.764
 5979POPC   C3A75473  24.509  27.613   7.064
 5979POPC   C4A75474  24.476  27.614   7.364
 5979POPC   C1B75475  24.441  27.790   6.464
 5979POPC   C2B75476  24.417  27.874   6.764
 5979POPC   C3B75477  24.478  27.820   7.064
 5979POPC   C4B75478  24.446  27.810   7.364
 5980POPC   NC375479  43.909  33.817   5.564
 5980POPC   PO475480  43.853  33.805   5.864
 5980POPC   GL175481  43.851  33.826   6.164
 5980POPC   GL275482  43.739  33.780   6.164
 5980POPC   C1A75483  43.877  33.778   6.464
 5980POPC   D2A75484  43.900  33.811   6.764
 5980POPC   C3A75485  43.877  33.772   7.064
 5980POPC   C4A75486  43.900  33.824   7.364
 5980POPC   C1B75487  43.629  33.684   6.464
 5980POPC   C2B75488  43.707  33.631   6.764
 5980POPC   C3B75489  43.714  33.642   7.064
 5980POPC   C4B75490  43.701  33.699   7.364
 5981POPC   NC375491   8.942   0.468   5.564
 5981POPC   PO475492   8.968   0.476   5.864
 5981POPC   GL175493   9.018   0.400   6.164
 5981POPC   GL275494   8.939   0.582   6.164
 5981POPC   C1A75495   8.926   0.474   6.464
 5981POPC   D2A75496   9.019   0.452   6.764
 5981POPC   C3A75497   8.952   0.481   7.064
 5981POPC   C4A75498   8.955   0.401   7.364
 5981POPC   C1B75499   8.884   0.724   6.464
 5981POPC   C2B75500   8.849   0.669   6.764
 5981POPC   C3B75501   8.872   0.630   7.064
 5981POPC   C4B75502   8.935   0.706   7.364
 5982POPC   NC375503  13.583   6.610   5.564
 5982POPC   PO475504  13.637   6.600   5.864
 5982POPC   GL175505  13.624   6.674   6.164
 5982POPC   GL275506  13.721   6.767   6.164
 5982POPC   C1A75507  13.659   6.617   6.464
 5982POPC   D2A75508  13.582   6.610   6.764
 5982POPC   C3A75509  13.604   6.682   7.064
 5982POPC   C4A75510  13.617   6.627   7.364
 5982POPC   C1B75511  13.783   6.891   6.464
 5982POPC   C2B75512  13.743   6.813   6.764
 5982POPC   C3B75513  13.807   6.808   7.064
 5982POPC   C4B75514  13.728   6.856   7.364
 5983POPC   NC375515  29.143  22.168   5.564
 5983POPC   PO475516  29.180  22.148   5.864
 5983POPC   GL175517  29.161  22.187   6.164
 5983POPC   GL275518  29.298  22.182   6.164
 5983POPC   C1A75519  29.114  22.160   6.464
 5983POPC   D2A75520  29.187  22.193   6.764
 5983POPC   C3A75521  29.155  22.168   7.064
 5983POPC   C4A75522  29.163  22.181   7.364
 5983POPC   C1B75523  29.360  22.255   6.464
 5983POPC   C2B75524  29.409  22.225   6.764
 5983POPC   C3B75525  29.386  22.273   7.064
 5983POPC   C4B75526  29.341  22.221   7.364
 5984POPC   NC375527  22.920  43.930   5.564
 5984POPC   PO475528  22.930  43.908   5.864
 5984POPC   GL175529  22.963  43.877   6.164
 5984POPC   GL275530  23.044  43.899   6.164
 5984POPC   C1A75531  22.895  43.845   6.464
 5984POPC   D2A75532  22.965  43.839   6.764
 5984POPC   C3A75533  22.924  43.871   7.064
 5984POPC   C4A75534  22.938  43.900   7.364
 5984POPC   C1B75535  23.217  43.873   6.464
 5984POPC   C2B75536  23.169  43.865   6.764
 5984POPC   C3B75537  23.167  43.904   7.064
 5984POPC   C4B75538  23.191  43.849   7.364
 5985POPC   NC375539  11.266  27.576   5.564
 5985POPC   PO475540  11.317  27.602   5.864
 5985POPC   GL175541  11.301  27.601   6.164
 5985POPC   GL275542  11.206  27.618   6.164
 5985POPC   C1A75543  11.273  27.552   6.464
 5985POPC   D2A75544  11.286  27.619   6.764
 5985POPC   C3A75545  11.312  27.639   7.064
 5985POPC   C4A75546  11.337  27.620   7.364
 5985POPC   C1B75547  11.029  27.724   6.464
 5985POPC   C2B75548  11.076  27.645   6.764
 5985POPC   C3B75549  11.071  27.662   7.064
 5985POPC   C4B75550  11.093  27.636   7.364
 5986POPC   NC375551   2.723  40.762   5.564
 5986POPC   PO475552   2.727  40.794   5.864
 5986POPC   GL175553   2.789  40.792   6.164
 5986POPC   GL275554   2.842  40.710   6.164
 5986POPC   C1A75555   2.760  40.772   6.464
 5986POPC   D2A75556   2.756  40.758   6.764
 5986POPC   C3A75557   2.775  40.818   7.064
 5986POPC   C4A75558   2.750  40.833   7.364
 5986POPC   C1B75559   2.975  40.618   6.464
 5986POPC   C2B75560   2.968  40.561   6.764
 5986POPC   C3B75561   2.941  40.630   7.064
 5986POPC   C4B75562   2.896  40.577   7.364
 5987POPC   NC375563   7.453  15.208   5.564
 5987POPC   PO475564   7.406  15.143   5.864
 5987POPC   GL175565   7.397  15.176   6.164
 5987POPC   GL275566   7.319  15.291   6.164
 5987POPC   C1A75567   7.458  15.160   6.464
 5987POPC   D2A75568   7.380  15.193   6.764
 5987POPC   C3A75569   7.379  15.184   7.064
 5987POPC   C4A75570   7.426  15.160   7.364
 5987POPC   C1B75571   7.332  15.404   6.464
 5987POPC   C2B75572   7.352  15.447   6.764
 5987POPC   C3B75573   7.327  15.380   7.064
 5987POPC   C4B75574   7.345  15.426   7.364
 5988POPC   NC375575   5.057   9.778   5.564
 5988POPC   PO475576   5.066   9.721   5.864
 5988POPC   GL175577   5.128   9.786   6.164
 5988POPC   GL275578   5.117   9.833   6.164
 5988POPC   C1A75579   5.066   9.763   6.464
 5988POPC   D2A75580   5.082   9.726   6.764
 5988POPC   C3A75581   5.083   9.760   7.064
 5988POPC   C4A75582   5.051   9.796   7.364
 5988POPC   C1B75583   5.227   9.998   6.464
 5988POPC   C2B75584   5.212  10.020   6.764
 5988POPC   C3B75585   5.237   9.936   7.064
 5988POPC   C4B75586   5.238   9.927   7.364
 5989POPC   NC375587  19.804  14.450   5.564
 5989POPC   PO475588  19.859  14.412   5.864
 5989POPC   GL175589  19.812  14.356   6.164
 5989POPC   GL275590  19.754  14.480   6.164
 5989POPC   C1A75591  19.816  14.383   6.464
 5989POPC   D2A75592  19.793  14.370   6.764
 5989POPC   C3A75593  19.874  14.450   7.064
 5989POPC   C4A75594  19.846  14.410   7.364
 5989POPC   C1B75595  19.640  14.504   6.464
 5989POPC   C2B75596  19.578  14.539   6.764
 5989POPC   C3B75597  19.648  14.523   7.064
 5989POPC   C4B75598  19.655  14.556   7.364
 5990POPC   NC375599   1.940  26.840   5.564
 5990POPC   PO475600   2.011  26.829   5.864
 5990POPC   GL175601   1.960  26.860   6.164
 5990POPC   GL275602   2.019  26.975   6.164
 5990POPC   C1A75603   1.984  26.836   6.464
 5990POPC   D2A75604   2.015  26.855   6.764
 5990POPC   C3A75605   2.016  26.794   7.064
 5990POPC   C4A75606   2.037  26.839   7.364
 5990POPC   C1B75607   2.052  27.021   6.464
 5990POPC   C2B75608   2.015  27.071   6.764
 5990POPC   C3B75609   2.019  27.078   7.064
 5990POPC   C4B75610   2.034  27.073   7.364
 5991POPC   NC375611  33.040  25.276   5.564
 5991POPC   PO475612  33.021  25.301   5.864
 5991POPC   GL175613  33.013  25.282   6.164
 5991POPC   GL275614  33.006  25.098   6.164
 5991POPC   C1A75615  32.979  25.218   6.464
 5991POPC   D2A75616  33.064  25.219   6.764
 5991POPC   C3A75617  33.055  25.266   7.064
 5991POPC   C4A75618  32.995  25.296   7.364
 5991POPC   C1B75619  33.023  24.993   6.464
 5991POPC   C2B75620  33.045  25.064   6.764
 5991POPC   C3B75621  32.976  24.988   7.064
 5991POPC   C4B75622  33.032  25.009   7.364
 5992POPC   NC375623   5.141  17.529   5.564
 5992POPC   PO475624   5.114  17.497   5.864
 5992POPC   GL175625   5.047  17.489   6.164
 5992POPC   GL275626   5.207  17.537   6.164
 5992POPC   C1A75627   5.076  17.477   6.464
 5992POPC   D2A75628   5.073  17.476   6.764
 5992POPC   C3A75629   5.085  17.469   7.064
 5992POPC   C4A75630   5.132  17.552   7.364
 5992POPC   C1B75631   5.243  17.677   6.464
 5992POPC   C2B75632   5.325  17.659   6.764
 5992POPC   C3B75633   5.322  17.627   7.064
 5992POPC   C4B75634   5.322  17.693   7.364
 5993POPC   NC375635  34.554  25.253   5.564
 5993POPC   PO475636  34.574  25.220   5.864
 5993POPC   GL175637  34.586  25.254   6.164
 5993POPC   GL275638  34.706  25.267   6.164
 5993POPC   C1A75639  34.592  25.250   6.464
 5993POPC   D2A75640  34.576  25.312   6.764
 5993POPC   C3A75641  34.613  25.256   7.064
 5993POPC   C4A75642  34.599  25.302   7.364
 5993POPC   C1B75643  34.862  25.193   6.464
 5993POPC   C2B75644  34.848  25.158   6.764
 5993POPC   C3B75645  34.849  25.174   7.064
 5993POPC   C4B75646  34.821  25.174   7.364
 5994POPC   NC375647  19.824  40.829   5.564
 5994POPC   PO475648  19.831  40.819   5.864
 5994POPC   GL175649  19.864  40.734   6.164
 5994POPC   GL275650  19.743  40.873   6.164
 5994POPC   C1A75651  19.789  40.739   6.464
 5994POPC   D2A75652  19.812  40.744   6.764
 5994POPC   C3A75653  19.808  40.748   7.064
 5994POPC   C4A75654  19.785  40.761   7.364
 5994POPC   C1B75655  19.624  41.002   6.464
 5994POPC   C2B75656  19.676  40.935   6.764
 5994POPC   C3B75657  19.669  40.991   7.064
 5994POPC   C4B75658  19.642  40.912   7.364
 5995POPC   NC375659  27.611   3.515   5.564
 5995POPC   PO475660  27.568   3.583   5.864
 5995POPC   GL175661  27.611   3.549   6.164
 5995POPC   GL275662  27.522   3.495   6.164
 5995POPC   C1A75663  27.577   3.506   6.464
 5995POPC   D2A75664  27.622   3.563   6.764
 5995POPC   C3A75665  27.573   3.575   7.064
 5995POPC   C4A75666  27.544   3.579   7.364
 5995POPC   C1B75667  27.449   3.415   6.464
 5995POPC   C2B75668  27.419   3.365   6.764
 5995POPC   C3B75669  27.425   3.412   7.064
 5995POPC   C4B75670  27.426   3.338   7.364
 5996POPC   NC375671   8.200  29.187   5.564
 5996POPC   PO475672   8.224  29.156   5.864
 5996POPC   GL175673   8.161  29.128   6.164
 5996POPC   GL275674   8.156  29.035   6.164
 5996POPC   C1A75675   8.226  29.181   6.464
 5996POPC   D2A75676   8.199  29.095   6.764
 5996POPC   C3A75677   8.230  29.154   7.064
 5996POPC   C4A75678   8.246  29.183   7.364
 5996POPC   C1B75679   8.143  28.891   6.464
 5996POPC   C2B75680   8.133  28.900   6.764
 5996POPC   C3B75681   8.103  28.934   7.064
 5996POPC   C4B75682   8.146  28.884   7.364
 5997POPC   NC375683   2.030  36.878   5.564
 5997POPC   PO475684   1.995  36.892   5.864
 5997POPC   GL175685   2.013  36.907   6.164
 5997POPC   GL275686   2.100  36.863   6.164
 5997POPC   C1A75687   2.025  36.930   6.464
 5997POPC   D2A75688   2.039  36.921   6.764
 5997POPC   C3A75689   2.015  36.885   7.064
 5997POPC   C4A75690   2.000  36.952   7.364
 5997POPC   C1B75691   2.217  36.799   6.464
 5997POPC   C2B75692   2.174  36.816   6.764
 5997POPC   C3B75693   2.184  36.782   7.064
 5997POPC   C4B75694   2.238  36.776   7.364
 5998POPC   NC375695  22.982  22.144   5.564
 5998POPC   PO475696  22.953  22.166   5.864
 5998POPC   GL175697  22.924  22.155   6.164
 5998POPC   GL275698  22.826  22.024   6.164
 5998POPC   C1A75699  22.977  22.171   6.464
 5998POPC   D2A75700  22.968  22.195   6.764
 5998POPC   C3A75701  22.988  22.144   7.064
 5998POPC   C4A75702  22.900  22.194   7.364
 5998POPC   C1B75703  22.770  21.939   6.464
 5998POPC   C2B75704  22.754  21.976   6.764
 5998POPC   C3B75705  22.780  21.950   7.064
 5998POPC   C4B75706  22.735  21.958   7.364
 5999POPC   NC375707  39.279  11.339   5.564
 5999POPC   PO475708  39.238  11.300   5.864
 5999POPC   GL175709  39.203  11.334   6.164
 5999POPC   GL275710  39.228  11.463   6.164
 5999POPC   C1A75711  39.247  11.345   6.464
 5999POPC   D2A75712  39.230  11.346   6.764
 5999POPC   C3A75713  39.205  11.305   7.064
 5999POPC   C4A75714  39.191  11.296   7.364
 5999POPC   C1B75715  39.216  11.591   6.464
 5999POPC   C2B75716  39.179  11.526   6.764
 5999POPC   C3B75717  39.151  11.550   7.064
 5999POPC   C4B75718  39.202  11.547   7.364
 6000POPC   NC375719   0.477  44.632   5.564
 6000POPC   PO475720   0.442  44.636   5.864
 6000POPC   GL175721   0.461  44.616   6.164
 6000POPC   GL275722   0.394  44.506   6.164
 6000POPC   C1A75723   0.453  44.635   6.464
 6000POPC   D2A75724   0.479  44.638   6.764
 6000POPC   C3A75725   0.445  44.706   7.064
 6000POPC   C4A75726   0.433  44.691   7.364
 6000POPC   C1B75727   0.370  44.462   6.464
 6000POPC   C2B75728   0.356  44.371   6.764
 6000POPC   C3B75729   0.434  44.410   7.064
 6000POPC   C4B75730   0.358  44.372   7.364
 6001POPC   NC375731   5.128  12.105   5.564
 6001POPC   PO475732   5.107  12.038   5.864
 6001POPC   GL175733   5.126  12.050   6.164
 6001POPC   GL275734   5.147  11.986   6.164
 6001POPC   C1A75735   5.133  12.047   6.464
 6001POPC   D2A75736   5.129  12.028   6.764
 6001POPC   C3A75737   5.127  12.106   7.064
 6001POPC   C4A75738   5.097  12.076   7.364
 6001POPC   C1B75739   5.318  11.922   6.464
 6001POPC   C2B75740   5.318  11.948   6.764
 6001POPC   C3B75741   5.291  11.920   7.064
 6001POPC   C4B75742   5.235  11.869   7.364
 6002POPC   NC375743  22.980  39.188   5.564
 6002POPC   PO475744  22.937  39.226   5.864
 6002POPC   GL175745  22.927  39.200   6.164
 6002POPC   GL275746  22.969  39.332   6.164
 6002POPC   C1A75747  22.981  39.270   6.464
 6002POPC   D2A75748  22.960  39.220   6.764
 6002POPC   C3A75749  22.935  39.194   7.064
 6002POPC   C4A75750  22.944  39.240   7.364
 6002POPC   C1B75751  23.083  39.417   6.464
 6002POPC   C2B75752  23.067  39.432   6.764
 6002POPC   C3B75753  23.091  39.402   7.064
 6002POPC   C4B75754  23.096  39.398   7.364
 6003POPC   NC375755  31.513   5.916   5.564
 6003POPC   PO475756  31.454   5.890   5.864
 6003POPC   GL175757  31.469   5.885   6.164
 6003POPC   GL275758  31.440   5.724   6.164
 6003POPC   C1A75759  31.488   5.865   6.464
 6003POPC   D2A75760  31.477   5.858   6.764
 6003POPC   C3A75761  31.431   5.881   7.064
 6003POPC   C4A75762  31.486   5.882   7.364
 6003POPC   C1B75763  31.369   5.635   6.464
 6003POPC   C2B75764  31.446   5.645   6.764
 6003POPC   C3B75765  31.417   5.613   7.064
 6003POPC   C4B75766  31.378   5.636   7.364
 6004POPC   NC375767  12.082  26.861   5.564
 6004POPC   PO475768  12.073  26.849   5.864
 6004POPC   GL175769  12.048  26.825   6.164
 6004POPC   GL275770  11.962  26.826   6.164
 6004POPC   C1A75771  12.086  26.787   6.464
 6004POPC   D2A75772  12.070  26.800   6.764
 6004POPC   C3A75773  12.052  26.784   7.064
 6004POPC   C4A75774  12.087  26.799   7.364
 6004POPC   C1B75775  11.874  26.797   6.464
 6004POPC   C2B75776  11.833  26.833   6.764
 6004POPC   C3B75777  11.848  26.782   7.064
 6004POPC   C4B75778  11.795  26.768   7.364
 6005POPC   NC375779  42.327  31.476   5.564
 6005POPC   PO475780  42.383  31.497   5.864
 6005POPC   GL175781  42.289  31.447   6.164
 6005POPC   GL275782  42.323  31.346   6.164
 6005POPC   C1A75783  42.289  31.457   6.464
 6005POPC   D2A75784  42.373  31.455   6.764
 6005POPC   C3A75785  42.316  31.455   7.064
 6005POPC   C4A75786  42.366  31.474   7.364
 6005POPC   C1B75787  42.287  31.226   6.464
 6005POPC   C2B75788  42.257  31.243   6.764
 6005POPC   C3B75789  42.256  31.193   7.064
 6005POPC   C4B75790  42.308  31.200   7.364
 6006POPC   NC375791  14.438  36.166   5.564
 6006POPC   PO475792  14.357  36.105   5.864
 6006POPC   GL175793  14.423  36.133   6.164
 6006POPC   GL275794  14.283  36.143   6.164
 6006POPC   C1A75795  14.406  36.164   6.464
 6006POPC   D2A75796  14.379  36.118   6.764
 6006POPC   C3A75797  14.451  36.154   7.064
 6006POPC   C4A75798  14.365  36.112   7.364
 6006POPC   C1B75799  14.201  36.145   6.464
 6006POPC   C2B75800  14.142  36.211   6.764
 6006POPC   C3B75801  14.106  36.169   7.064
 6006POPC   C4B75802  14.170  36.163   7.364
 6007POPC   NC375803  41.576  10.531   5.564
 6007POPC   PO475804  41.526  10.538   5.864
 6007POPC   GL175805  41.603  10.477   6.164
 6007POPC   GL275806  41.485  10.611   6.164
 6007POPC   C1A75807  41.582  10.501   6.464
 6007POPC   D2A75808  41.602  10.558   6.764
 6007POPC   C3A75809  41.604  10.478   7.064
 6007POPC   C4A75810  41.605  10.506   7.364
 6007POPC   C1B75811  41.339  10.753   6.464
 6007POPC   C2B75812  41.386  10.716   6.764
 6007POPC   C3B75813  41.340  10.729   7.064
 6007POPC   C4B75814  41.397  10.716   7.364
 6008POPC   NC375815  22.118  25.256   5.564
 6008POPC   PO475816  22.187  25.237   5.864
 6008POPC   GL175817  22.116  25.263   6.164
 6008POPC   GL275818  22.151  25.426   6.164
 6008POPC   C1A75819  22.148  25.222   6.464
 6008POPC   D2A75820  22.185  25.261   6.764
 6008POPC   C3A75821  22.122  25.264   7.064
 6008POPC   C4A75822  22.143  25.261   7.364
 6008POPC   C1B75823  22.162  25.541   6.464
 6008POPC   C2B75824  22.136  25.553   6.764
 6008POPC   C3B75825  22.097  25.480   7.064
 6008POPC   C4B75826  22.090  25.516   7.364
 6009POPC   NC375827  39.213  15.221   5.564
 6009POPC   PO475828  39.263  15.183   5.864
 6009POPC   GL175829  39.252  15.158   6.164
 6009POPC   GL275830  39.125  15.151   6.164
 6009POPC   C1A75831  39.201  15.192   6.464
 6009POPC   D2A75832  39.277  15.149   6.764
 6009POPC   C3A75833  39.227  15.204   7.064
 6009POPC   C4A75834  39.281  15.195   7.364
 6009POPC   C1B75835  39.006  15.016   6.464
 6009POPC   C2B75836  39.051  15.075   6.764
 6009POPC   C3B75837  39.076  14.999   7.064
 6009POPC   C4B75838  39.048  15.083   7.364
 6010POPC   NC375839   7.466  24.453   5.564
 6010POPC   PO475840   7.394  24.506   5.864
 6010POPC   GL175841   7.432  24.456   6.164
 6010POPC   GL275842   7.410  24.652   6.164
 6010POPC   C1A75843   7.380  24.519   6.464
 6010POPC   D2A75844   7.445  24.472   6.764
 6010POPC   C3A75845   7.390  24.502   7.064
 6010POPC   C4A75846   7.442  24.496   7.364
 6010POPC   C1B75847   7.382  24.681   6.464
 6010POPC   C2B75848   7.381  24.728   6.764
 6010POPC   C3B75849   7.336  24.724   7.064
 6010POPC   C4B75850   7.388  24.713   7.364
 6011POPC   NC375851  25.996  15.168   5.564
 6011POPC   PO475852  26.047  15.182   5.864
 6011POPC   GL175853  26.049  15.141   6.164
 6011POPC   GL275854  25.954  15.320   6.164
 6011POPC   C1A75855  25.993  15.184   6.464
 6011POPC   D2A75856  26.051  15.142   6.764
 6011POPC   C3A75857  26.070  15.195   7.064
 6011POPC   C4A75858  26.063  15.150   7.364
 6011POPC   C1B75859  25.906  15.347   6.464
 6011POPC   C2B75860  25.904  15.347   6.764
 6011POPC   C3B75861  25.916  15.359   7.064
 6011POPC   C4B75862  25.911  15.322   7.364
 6012POPC   NC375863   1.253  32.240   5.564
 6012POPC   PO475864   1.247  32.282   5.864
 6012POPC   GL175865   1.201  32.285   6.164
 6012POPC   GL275866   1.376  32.218   6.164
 6012POPC   C1A75867   1.234  32.216   6.464
 6012POPC   D2A75868   1.250  32.200   6.764
 6012POPC   C3A75869   1.215  32.272   7.064
 6012POPC   C4A75870   1.217  32.291   7.364
 6012POPC   C1B75871   1.435  32.226   6.464
 6012POPC   C2B75872   1.416  32.153   6.764
 6012POPC   C3B75873   1.437  32.157   7.064
 6012POPC   C4B75874   1.483  32.211   7.364
 6013POPC   NC375875  27.632  14.417   5.564
 6013POPC   PO475876  27.562  14.425   5.864
 6013POPC   GL175877  27.595  14.390   6.164
 6013POPC   GL275878  27.430  14.354   6.164
 6013POPC   C1A75879  27.636  14.426   6.464
 6013POPC   D2A75880  27.621  14.410   6.764
 6013POPC   C3A75881  27.580  14.363   7.064
 6013POPC   C4A75882  27.615  14.438   7.364
 6013POPC   C1B75883  27.301  14.413   6.464
 6013POPC   C2B75884  27.356  14.445   6.764
 6013POPC   C3B75885  27.307  14.438   7.064
 6013POPC   C4B75886  27.367  14.439   7.364
 6014POPC   NC375887  37.697  14.419   5.564
 6014POPC   PO475888  37.642  14.358   5.864
 6014POPC   GL175889  37.649  14.356   6.164
 6014POPC   GL275890  37.627  14.550   6.164
 6014POPC   C1A75891  37.678  14.366   6.464
 6014POPC   D2A75892  37.650  14.449   6.764
 6014POPC   C3A75893  37.709  14.361   7.064
 6014POPC   C4A75894  37.680  14.404   7.364
 6014POPC   C1B75895  37.626  14.639   6.464
 6014POPC   C2B75896  37.568  14.644   6.764
 6014POPC   C3B75897  37.549  14.681   7.064
 6014POPC   C4B75898  37.578  14.654   7.364
 6015POPC   NC375899  25.299  11.320   5.564
 6015POPC   PO475900  25.307  11.301   5.864
 6015POPC   GL175901  25.281  11.350   6.164
 6015POPC   GL275902  25.193  11.350   6.164
 6015POPC   C1A75903  25.285  11.334   6.464
 6015POPC   D2A75904  25.219  11.333   6.764
 6015POPC   C3A75905  25.304  11.267   7.064
 6015POPC   C4A75906  25.310  11.253   7.364
 6015POPC   C1B75907  25.125  11.517   6.464
 6015POPC   C2B75908  25.156  11.492   6.764
 6015POPC   C3B75909  25.127  11.512   7.064
 6015POPC   C4B75910  25.122  11.539   7.364
 6016POPC   NC375911  30.655  11.278   5.564
 6016POPC   PO475912  30.712  11.336   5.864
 6016POPC   GL175913  30.671  11.271   6.164
 6016POPC   GL275914  30.715  11.169   6.164
 6016POPC   C1A75915  30.685  11.277   6.464
 6016POPC   D2A75916  30.721  11.328   6.764
 6016POPC   C3A75917  30.726  11.310   7.064
 6016POPC   C4A75918  30.677  11.330   7.364
 6016POPC   C1B75919  30.784  11.034   6.464
 6016POPC   C2B75920  30.743  11.019   6.764
 6016POPC   C3B75921  30.737  11.059   7.064
 6016POPC   C4B75922  30.789  11.077   7.364
 6017POPC   NC375923   1.202  22.973   5.564
 6017POPC   PO475924   1.244  22.976   5.864
 6017POPC   GL175925   1.199  22.945   6.164
 6017POPC   GL275926   1.154  22.859   6.164
 6017POPC   C1A75927   1.241  22.979   6.464
 6017POPC   D2A75928   1.200  22.933   6.764
 6017POPC   C3A75929   1.180  22.895   7.064
 6017POPC   C4A75930   1.220  22.893   7.364
 6017POPC   C1B75931   1.075  22.729   6.464
 6017POPC   C2B75932   1.109  22.697   6.764
 6017POPC   C3B75933   1.088  22.696   7.064
 6017POPC   C4B75934   1.103  22.730   7.364
 6018POPC   NC375935  37.639  13.584   5.564
 6018POPC   PO475936  37.683  13.610   5.864
 6018POPC   GL175937  37.684  13.675   6.164
 6018POPC   GL275938  37.762  13.669   6.164
 6018POPC   C1A75939  37.721  13.630   6.464
 6018POPC   D2A75940  37.673  13.640   6.764
 6018POPC   C3A75941  37.684  13.650   7.064
 6018POPC   C4A75942  37.707  13.584   7.364
 6018POPC   C1B75943  37.886  13.725   6.464
 6018POPC   C2B75944  37.935  13.725   6.764
 6018POPC   C3B75945  37.924  13.644   7.064
 6018POPC   C4B75946  37.918  13.652   7.364
 6019POPC   NC375947  15.131  32.231   5.564
 6019POPC   PO475948  15.225  32.293   5.864
 6019POPC   GL175949  15.134  32.202   6.164
 6019POPC   GL275950  15.159  32.182   6.164
 6019POPC   C1A75951  15.139  32.247   6.464
 6019POPC   D2A75952  15.182  32.199   6.764
 6019POPC   C3A75953  15.204  32.215   7.064
 6019POPC   C4A75954  15.201  32.246   7.364
 6019POPC   C1B75955  15.068  32.014   6.464
 6019POPC   C2B75956  15.081  32.057   6.764
 6019POPC   C3B75957  15.019  32.044   7.064
 6019POPC   C4B75958  15.043  32.008   7.364
 6020POPC   NC375959  10.491  28.365   5.564
 6020POPC   PO475960  10.562  28.385   5.864
 6020POPC   GL175961  10.524  28.403   6.164
 6020POPC   GL275962  10.466  28.450   6.164
 6020POPC   C1A75963  10.568  28.344   6.464
 6020POPC   D2A75964  10.570  28.364   6.764
 6020POPC   C3A75965  10.511  28.417   7.064
 6020POPC   C4A75966  10.546  28.343   7.364
 6020POPC   C1B75967  10.335  28.505   6.464
 6020POPC   C2B75968  10.368  28.577   6.764
 6020POPC   C3B75969  10.361  28.593   7.064
 6020POPC   C4B75970  10.368  28.521   7.364
 6021POPC   NC375971  16.003  22.937   5.564
 6021POPC   PO475972  15.925  22.972   5.864
 6021POPC   GL175973  15.934  22.906   6.164
 6021POPC   GL275974  15.878  23.032   6.164
 6021POPC   C1A75975  15.977  22.949   6.464
 6021POPC   D2A75976  15.946  22.967   6.764
 6021POPC   C3A75977  15.972  22.985   7.064
 6021POPC   C4A75978  15.928  22.977   7.364
 6021POPC   C1B75979  15.851  23.172   6.464
 6021POPC   C2B75980  15.843  23.126   6.764
 6021POPC   C3B75981  15.862  23.144   7.064
 6021POPC   C4B75982  15.839  23.126   7.364
 6022POPC   NC375983   2.016  27.579   5.564
 6022POPC   PO475984   1.976  27.557   5.864
 6022POPC   GL175985   1.952  27.605   6.164
 6022POPC   GL275986   1.928  27.702   6.164
 6022POPC   C1A75987   1.996  27.596   6.464
 6022POPC   D2A75988   2.033  27.594   6.764
 6022POPC   C3A75989   1.978  27.590   7.064
 6022POPC   C4A75990   2.036  27.553   7.364
 6022POPC   C1B75991   1.837  27.783   6.464
 6022POPC   C2B75992   1.819  27.783   6.764
 6022POPC   C3B75993   1.803  27.817   7.064
 6022POPC   C4B75994   1.806  27.746   7.364
 6023POPC   NC375995  36.928  40.792   5.564
 6023POPC   PO475996  36.854  40.802   5.864
 6023POPC   GL175997  36.892  40.781   6.164
 6023POPC   GL275998  36.868  40.903   6.164
 6023POPC   C1A75999  36.936  40.767   6.464
 6023POPC   D2A76000  36.914  40.772   6.764
 6023POPC   C3A76001  36.876  40.794   7.064
 6023POPC   C4A76002  36.908  40.768   7.364
 6023POPC   C1B76003  36.773  40.970   6.464
 6023POPC   C2B76004  36.773  40.994   6.764
 6023POPC   C3B76005  36.753  40.988   7.064
 6023POPC   C4B76006  36.755  40.935   7.364
 6024POPC   NC376007   3.513  30.739   5.564
 6024POPC   PO476008   3.536  30.723   5.864
 6024POPC   GL176009   3.512  30.724   6.164
 6024POPC   GL276010   3.462  30.610   6.164
 6024POPC   C1A76011   3.543  30.652   6.464
 6024POPC   D2A76012   3.501  30.647   6.764
 6024POPC   C3A76013   3.504  30.675   7.064
 6024POPC   C4A76014   3.528  30.652   7.364
 6024POPC   C1B76015   3.337  30.489   6.464
 6024POPC   C2B76016   3.349  30.528   6.764
 6024POPC   C3B76017   3.375  30.487   7.064
 6024POPC   C4B76018   3.397  30.542   7.364
 6025POPC   NC376019  43.156  12.102   5.564
 6025POPC   PO476020  43.137  12.079   5.864
 6025POPC   GL176021  43.132  12.094   6.164
 6025POPC   GL276022  42.961  12.062   6.164
 6025POPC   C1A76023  43.097  12.038   6.464
 6025POPC   D2A76024  43.138  12.122   6.764
 6025POPC   C3A76025  43.061  12.098   7.064
 6025POPC   C4A76026  43.144  12.032   7.364
 6025POPC   C1B76027  42.835  12.056   6.464
 6025POPC   C2B76028  42.875  12.107   6.764
 6025POPC   C3B76029  42.856  12.111   7.064
 6025POPC   C4B76030  42.895  12.039   7.364
 6026POPC   NC376031  31.521   5.134   5.564
 6026POPC   PO476032  31.443   5.064   5.864
 6026POPC   GL176033  31.465   5.075   6.164
 6026POPC   GL276034  31.384   5.076   6.164
 6026POPC   C1A76035  31.478   5.089   6.464
 6026POPC   D2A76036  31.496   5.131   6.764
 6026POPC   C3A76037  31.438   5.044   7.064
 6026POPC   C4A76038  31.519   5.098   7.364
 6026POPC   C1B76039  31.274   5.038   6.464
 6026POPC   C2B76040  31.266   4.962   6.764
 6026POPC   C3B76041  31.269   4.989   7.064
 6026POPC   C4B76042  31.217   4.985   7.364
 6027POPC   NC376043   3.552  12.080   5.564
 6027POPC   PO476044   3.561  12.125   5.864
 6027POPC   GL176045   3.585  12.059   6.164
 6027POPC   GL276046   3.494  11.926   6.164
 6027POPC   C1A76047   3.557  12.100   6.464
 6027POPC   D2A76048   3.581  12.088   6.764
 6027POPC   C3A76049   3.535  12.082   7.064
 6027POPC   C4A76050   3.551  12.036   7.364
 6027POPC   C1B76051   3.392  11.853   6.464
 6027POPC   C2B76052   3.430  11.808   6.764
 6027POPC   C3B76053   3.422  11.859   7.064
 6027POPC   C4B76054   3.465  11.872   7.364
 6028POPC   NC376055  13.597   3.531   5.564
 6028POPC   PO476056  13.674   3.586   5.864
 6028POPC   GL176057  13.589   3.561   6.164
 6028POPC   GL276058  13.564   3.421   6.164
 6028POPC   C1A76059  13.578   3.535   6.464
 6028POPC   D2A76060  13.649   3.536   6.764
 6028POPC   C3A76061  13.600   3.511   7.064
 6028POPC   C4A76062  13.621   3.586   7.364
 6028POPC   C1B76063  13.600   3.318   6.464
 6028POPC   C2B76064  13.557   3.340   6.764
 6028POPC   C3B76065  13.558   3.338   7.064
 6028POPC   C4B76066  13.547   3.273   7.364
 6029POPC   NC376067  25.279  39.226   5.564
 6029POPC   PO476068  25.306  39.229   5.864
 6029POPC   GL176069  25.301  39.208   6.164
 6029POPC   GL276070  25.317  39.127   6.164
 6029POPC   C1A76071  25.305  39.206   6.464
 6029POPC   D2A76072  25.272  39.211   6.764
 6029POPC   C3A76073  25.224  39.267   7.064
 6029POPC   C4A76074  25.307  39.201   7.364
 6029POPC   C1B76075  25.444  39.085   6.464
 6029POPC   C2B76076  25.434  39.055   6.764
 6029POPC   C3B76077  25.435  39.057   7.064
 6029POPC   C4B76078  25.463  39.034   7.364
 6030POPC   NC376079  29.880  31.467   5.564
 6030POPC   PO476080  29.873  31.464   5.864
 6030POPC   GL176081  29.968  31.437   6.164
 6030POPC   GL276082  29.808  31.541   6.164
 6030POPC   C1A76083  29.935  31.503   6.464
 6030POPC   D2A76084  29.930  31.502   6.764
 6030POPC   C3A76085  29.924  31.491   7.064
 6030POPC   C4A76086  29.931  31.495   7.364
 6030POPC   C1B76087  29.667  31.561   6.464
 6030POPC   C2B76088  29.660  31.593   6.764
 6030POPC   C3B76089  29.692  31.625   7.064
 6030POPC   C4B76090  29.670  31.652   7.364
 6031POPC   NC376091  29.116  26.000   5.564
 6031POPC   PO476092  29.149  26.060   5.864
 6031POPC   GL176093  29.163  26.022   6.164
 6031POPC   GL276094  29.184  26.211   6.164
 6031POPC   C1A76095  29.116  26.011   6.464
 6031POPC   D2A76096  29.175  26.089   6.764
 6031POPC   C3A76097  29.184  25.998   7.064
 6031POPC   C4A76098  29.143  26.088   7.364
 6031POPC   C1B76099  29.110  26.288   6.464
 6031POPC   C2B76100  29.174  26.262   6.764
 6031POPC   C3B76101  29.163  26.308   7.064
 6031POPC   C4B76102  29.163  26.273   7.364
 6032POPC   NC376103   5.069   4.353   5.564
 6032POPC   PO476104   5.131   4.309   5.864
 6032POPC   GL176105   5.074   4.312   6.164
 6032POPC   GL276106   5.161   4.426   6.164
 6032POPC   C1A76107   5.068   4.311   6.464
 6032POPC   D2A76108   5.094   4.365   6.764
 6032POPC   C3A76109   5.062   4.319   7.064
 6032POPC   C4A76110   5.143   4.301   7.364
 6032POPC   C1B76111   5.220   4.578   6.464
 6032POPC   C2B76112   5.227   4.528   6.764
 6032POPC   C3B76113   5.164   4.503   7.064
 6032POPC   C4B76114   5.179   4.499   7.364
 6033POPC   NC376115   4.281  25.235   5.564
 6033POPC   PO476116   4.325  25.250   5.864
 6033POPC   GL176117   4.323  25.258   6.164
 6033POPC   GL276118   4.264  25.426   6.164
 6033POPC   C1A76119   4.360  25.266   6.464
 6033POPC   D2A76120   4.269  25.244   6.764
 6033POPC   C3A76121   4.289  25.267   7.064
 6033POPC   C4A76122   4.348  25.221   7.364
 6033POPC   C1B76123   4.220  25.482   6.464
 6033POPC   C2B76124   4.287  25.461   6.764
 6033POPC   C3B76125   4.208  25.527   7.064
 6033POPC   C4B76126   4.265  25.526   7.364
 6034POPC   NC376127  25.258  39.966   5.564
 6034POPC   PO476128  25.312  39.971   5.864
 6034POPC   GL176129  25.239  39.989   6.164
 6034POPC   GL276130  25.147  40.125   6.164
 6034POPC   C1A76131  25.309  39.959   6.464
 6034POPC   D2A76132  25.222  40.021   6.764
 6034POPC   C3A76133  25.224  39.992   7.064
 6034POPC   C4A76134  25.283  40.025   7.364
 6034POPC   C1B76135  25.100  40.145   6.464
 6034POPC   C2B76136  25.021  40.112   6.764
 6034POPC   C3B76137  25.064  40.187   7.064
 6034POPC   C4B76138  25.095  40.116   7.364
 6035POPC   NC376139  34.550  19.806   5.564
 6035POPC   PO476140  34.583  19.875   5.864
 6035POPC   GL176141  34.575  19.867   6.164
 6035POPC   GL276142  34.524  19.726   6.164
 6035POPC   C1A76143  34.544  19.849   6.464
 6035POPC   D2A76144  34.592  19.879   6.764
 6035POPC   C3A76145  34.577  19.854   7.064
 6035POPC   C4A76146  34.579  19.847   7.364
 6035POPC   C1B76147  34.484  19.566   6.464
 6035POPC   C2B76148  34.519  19.576   6.764
 6035POPC   C3B76149  34.483  19.555   7.064
 6035POPC   C4B76150  34.485  19.551   7.364
 6036POPC   NC376151  26.783   5.137   5.564
 6036POPC   PO476152  26.859   5.055   5.864
 6036POPC   GL176153  26.820   5.049   6.164
 6036POPC   GL276154  26.890   5.098   6.164
 6036POPC   C1A76155  26.805   5.118   6.464
 6036POPC   D2A76156  26.854   5.140   6.764
 6036POPC   C3A76157  26.850   5.078   7.064
 6036POPC   C4A76158  26.830   5.071   7.364
 6036POPC   C1B76159  27.025   5.006   6.464
 6036POPC   C2B76160  27.092   5.000   6.764
 6036POPC   C3B76161  27.026   5.022   7.064
 6036POPC   C4B76162  27.013   5.043   7.364
 6037POPC   NC376163   8.149   1.220   5.564
 6037POPC   PO476164   8.206   1.240   5.864
 6037POPC   GL176165   8.149   1.187   6.164
 6037POPC   GL276166   8.295   1.183   6.164
 6037POPC   C1A76167   8.191   1.228   6.464
 6037POPC   D2A76168   8.200   1.210   6.764
 6037POPC   C3A76169   8.159   1.195   7.064
 6037POPC   C4A76170   8.178   1.257   7.364
 6037POPC   C1B76171   8.450   1.158   6.464
 6037POPC   C2B76172   8.465   1.165   6.764
 6037POPC   C3B76173   8.426   1.092   7.064
 6037POPC   C4B76174   8.426   1.067   7.364
 6038POPC   NC376175  14.358   7.404   5.564
 6038POPC   PO476176  14.437   7.469   5.864
 6038POPC   GL176177  14.373   7.389   6.164
 6038POPC   GL276178  14.355   7.362   6.164
 6038POPC   C1A76179  14.369   7.460   6.464
 6038POPC   D2A76180  14.390   7.419   6.764
 6038POPC   C3A76181  14.387   7.388   7.064
 6038POPC   C4A76182  14.434   7.443   7.364
 6038POPC   C1B76183  14.262   7.192   6.464
 6038POPC   C2B76184  14.220   7.174   6.764
 6038POPC   C3B76185  14.292   7.172   7.064
 6038POPC   C4B76186  14.297   7.180   7.364
 6039POPC   NC376187  41.588  16.766   5.564
 6039POPC   PO476188  41.604  16.720   5.864
 6039POPC   GL176189  41.606  16.774   6.164
 6039POPC   GL276190  41.460  16.755   6.164
 6039POPC   C1A76191  41.534  16.711   6.464
 6039POPC   D2A76192  41.588  16.761   6.764
 6039POPC   C3A76193  41.584  16.703   7.064
 6039POPC   C4A76194  41.563  16.745   7.364
 6039POPC   C1B76195  41.322  16.877   6.464
 6039POPC   C2B76196  41.316  16.873   6.764
 6039POPC   C3B76197  41.355  16.821   7.064
 6039POPC   C4B76198  41.324  16.854   7.364
 6040POPC   NC376199  24.530  38.451   5.564
 6040POPC   PO476200  24.534  38.418   5.864
 6040POPC   GL176201  24.489  38.469   6.164
 6040POPC   GL276202  24.582  38.497   6.164
 6040POPC   C1A76203  24.463  38.447   6.464
 6040POPC   D2A76204  24.513  38.489   6.764
 6040POPC   C3A76205  24.443  38.410   7.064
 6040POPC   C4A76206  24.448  38.406   7.364
 6040POPC   C1B76207  24.768  38.462   6.464
 6040POPC   C2B76208  24.741  38.446   6.764
 6040POPC   C3B76209  24.735  38.456   7.064
 6040POPC   C4B76210  24.711  38.450   7.364
 6041POPC   NC376211  44.678  25.235   5.564
 6041POPC   PO476212  44.695  25.293   5.864
 6041POPC   GL176213  44.648  25.233   6.164
 6041POPC   GL276214  44.643  25.165   6.164
 6041POPC   C1A76215  44.671  25.280   6.464
 6041POPC   D2A76216  44.697  25.245   6.764
 6041POPC   C3A76217  44.650  25.275   7.064
 6041POPC   C4A76218  44.678  25.274   7.364
 6041POPC   C1B76219  44.704  25.000   6.464
 6041POPC   C2B76220  44.704  25.037   6.764
 6041POPC   C3B76221  44.733  25.052   7.064
 6041POPC   C4B76222  44.670  25.035   7.364
 6042POPC   NC376223  39.196   1.969   5.564
 6042POPC   PO476224  39.230   2.005   5.864
 6042POPC   GL176225  39.253   1.943   6.164
 6042POPC   GL276226  39.298   2.080   6.164
 6042POPC   C1A76227  39.240   2.002   6.464
 6042POPC   D2A76228  39.198   1.971   6.764
 6042POPC   C3A76229  39.255   2.028   7.064
 6042POPC   C4A76230  39.217   1.942   7.364
 6042POPC   C1B76231  39.367   2.265   6.464
 6042POPC   C2B76232  39.354   2.258   6.764
 6042POPC   C3B76233  39.274   2.249   7.064
 6042POPC   C4B76234  39.273   2.238   7.364
 6043POPC   NC376235   8.194  20.583   5.564
 6043POPC   PO476236   8.228  20.588   5.864
 6043POPC   GL176237   8.241  20.609   6.164
 6043POPC   GL276238   8.139  20.510   6.164
 6043POPC   C1A76239   8.235  20.599   6.464
 6043POPC   D2A76240   8.212  20.602   6.764
 6043POPC   C3A76241   8.167  20.567   7.064
 6043POPC   C4A76242   8.224  20.645   7.364
 6043POPC   C1B76243   8.107  20.401   6.464
 6043POPC   C2B76244   8.173  20.409   6.764
 6043POPC   C3B76245   8.085  20.420   7.064
 6043POPC   C4B76246   8.158  20.414   7.364
 6044POPC   NC376247  12.894  30.649   5.564
 6044POPC   PO476248  12.884  30.746   5.864
 6044POPC   GL176249  12.822  30.679   6.164
 6044POPC   GL276250  12.974  30.751   6.164
 6044POPC   C1A76251  12.819  30.715   6.464
 6044POPC   D2A76252  12.815  30.713   6.764
 6044POPC   C3A76253  12.901  30.712   7.064
 6044POPC   C4A76254  12.852  30.690   7.364
 6044POPC   C1B76255  13.050  30.853   6.464
 6044POPC   C2B76256  13.014  30.810   6.764
 6044POPC   C3B76257  13.069  30.814   7.064
 6044POPC   C4B76258  13.074  30.871   7.364
 6045POPC   NC376259  32.212  42.381   5.564
 6045POPC   PO476260  32.213  42.368   5.864
 6045POPC   GL176261  32.202  42.358   6.164
 6045POPC   GL276262  32.209  42.412   6.164
 6045POPC   C1A76263  32.263  42.359   6.464
 6045POPC   D2A76264  32.275  42.355   6.764
 6045POPC   C3A76265  32.284  42.317   7.064
 6045POPC   C4A76266  32.203  42.295   7.364
 6045POPC   C1B76267  32.184  42.597   6.464
 6045POPC   C2B76268  32.237  42.583   6.764
 6045POPC   C3B76269  32.258  42.594   7.064
 6045POPC   C4B76270  32.222  42.610   7.364
 6046POPC   NC376271  22.973   6.635   5.564
 6046POPC   PO476272  22.902   6.665   5.864
 6046POPC   GL176273  22.982   6.624   6.164
 6046POPC   GL276274  22.966   6.553   6.164
 6046POPC   C1A76275  22.900   6.626   6.464
 6046POPC   D2A76276  22.929   6.657   6.764
 6046POPC   C3A76277  22.952   6.692   7.064
 6046POPC   C4A76278  22.976   6.670   7.364
 6046POPC   C1B76279  22.901   6.419   6.464
 6046POPC   C2B76280  22.949   6.388   6.764
 6046POPC   C3B76281  22.908   6.412   7.064
 6046POPC   C4B76282  22.962   6.430   7.364
 6047POPC   NC376283  42.352  22.953   5.564
 6047POPC   PO476284  42.350  22.957   5.864
 6047POPC   GL176285  42.345  22.898   6.164
 6047POPC   GL276286  42.416  22.871   6.164
 6047POPC   C1A76287  42.329  22.943   6.464
 6047POPC   D2A76288  42.297  22.895   6.764
 6047POPC   C3A76289  42.289  22.945   7.064
 6047POPC   C4A76290  42.380  22.941   7.364
 6047POPC   C1B76291  42.539  22.804   6.464
 6047POPC   C2B76292  42.478  22.729   6.764
 6047POPC   C3B76293  42.513  22.755   7.064
 6047POPC   C4B76294  42.519  22.812   7.364
 6048POPC   NC376295  41.561  39.276   5.564
 6048POPC   PO476296  41.591  39.189   5.864
 6048POPC   GL176297  41.509  39.270   6.164
 6048POPC   GL276298  41.641  39.119   6.164
 6048POPC   C1A76299  41.591  39.220   6.464
 6048POPC   D2A76300  41.549  39.191   6.764
 6048POPC   C3A76301  41.562  39.257   7.064
 6048POPC   C4A76302  41.533  39.224   7.364
 6048POPC   C1B76303  41.743  39.063   6.464
 6048POPC   C2B76304  41.725  39.097   6.764
 6048POPC   C3B76305  41.815  39.075   7.064
 6048POPC   C4B76306  41.735  39.113   7.364
 6049POPC   NC376307   0.398   2.726   5.564
 6049POPC   PO476308   0.424   2.812   5.864
 6049POPC   GL176309   0.424   2.775   6.164
 6049POPC   GL276310   0.348   2.696   6.164
 6049POPC   C1A76311   0.456   2.734   6.464
 6049POPC   D2A76312   0.427   2.806   6.764
 6049POPC   C3A76313   0.397   2.735   7.064
 6049POPC   C4A76314   0.453   2.810   7.364
 6049POPC   C1B76315   0.336   2.487   6.464
 6049POPC   C2B76316   0.372   2.558   6.764
 6049POPC   C3B76317   0.338   2.533   7.064
 6049POPC   C4B76318   0.354   2.561   7.364
 6050POPC   NC376319  21.386  36.171   5.564
 6050POPC   PO476320  21.343  36.135   5.864
 6050POPC   GL176321  21.424  36.154   6.164
 6050POPC   GL276322  21.259  36.088   6.164
 6050POPC   C1A76323  21.391  36.125   6.464
 6050POPC   D2A76324  21.387  36.121   6.764
 6050POPC   C3A76325  21.415  36.155   7.064
 6050POPC   C4A76326  21.387  36.118   7.364
 6050POPC   C1B76327  21.121  36.100   6.464
 6050POPC   C2B76328  21.107  36.069   6.764
 6050POPC   C3B76329  21.113  36.033   7.064
 6050POPC   C4B76330  21.141  36.046   7.364
 6051POPC   NC376331  15.225  41.547   5.564
 6051POPC   PO476332  15.228  41.521   5.864
 6051POPC   GL176333  15.177  41.515   6.164
 6051POPC   GL276334  15.310  41.541   6.164
 6051POPC   C1A76335  15.164  41.587   6.464
 6051POPC   D2A76336  15.207  41.584   6.764
 6051POPC   C3A76337  15.223  41.600   7.064
 6051POPC   C4A76338  15.166  41.526   7.364
 6051POPC   C1B76339  15.398  41.613   6.464
 6051POPC   C2B76340  15.412  41.586   6.764
 6051POPC   C3B76341  15.422  41.617   7.064
 6051POPC   C4B76342  15.464  41.575   7.364
 6052POPC   NC376343   2.793  15.218   5.564
 6052POPC   PO476344   2.790  15.208   5.864
 6052POPC   GL176345   2.742  15.141   6.164
 6052POPC   GL276346   2.860  15.176   6.164
 6052POPC   C1A76347   2.807  15.143   6.464
 6052POPC   D2A76348   2.735  15.214   6.764
 6052POPC   C3A76349   2.780  15.149   7.064
 6052POPC   C4A76350   2.814  15.139   7.364
 6052POPC   C1B76351   2.987  15.096   6.464
 6052POPC   C2B76352   3.024  15.107   6.764
 6052POPC   C3B76353   3.009  15.148   7.064
 6052POPC   C4B76354   2.967  15.068   7.364
 6053POPC   NC376355  28.358  26.064   5.564
 6053POPC   PO476356  28.342  26.077   5.864
 6053POPC   GL176357  28.372  26.028   6.164
 6053POPC   GL276358  28.404  25.930   6.164
 6053POPC   C1A76359  28.379  26.063   6.464
 6053POPC   D2A76360  28.397  26.020   6.764
 6053POPC   C3A76361  28.324  26.043   7.064
 6053POPC   C4A76362  28.319  26.080   7.364
 6053POPC   C1B76363  28.369  25.767   6.464
 6053POPC   C2B76364  28.410  25.763   6.764
 6053POPC   C3B76365  28.394  25.748   7.064
 6053POPC   C4B76366  28.430  25.830   7.364
 6054POPC   NC376367   7.404   0.424   5.564
 6054POPC   PO476368   7.455   0.436   5.864
 6054POPC   GL176369   7.461   0.430   6.164
 6054POPC   GL276370   7.407   0.322   6.164
 6054POPC   C1A76371   7.429   0.454   6.464
 6054POPC   D2A76372   7.408   0.398   6.764
 6054POPC   C3A76373   7.420   0.447   7.064
 6054POPC   C4A76374   7.394   0.459   7.364
 6054POPC   C1B76375   7.329   0.229   6.464
 6054POPC   C2B76376   7.303   0.233   6.764
 6054POPC   C3B76377   7.321   0.195   7.064
 6054POPC   C4B76378   7.348   0.254   7.364
 6055POPC   NC376379   5.835  21.419   5.564
 6055POPC   PO476380   5.837  21.430   5.864
 6055POPC   GL176381   5.862  21.395   6.164
 6055POPC   GL276382   5.900  21.525   6.164
 6055POPC   C1A76383   5.892  21.385   6.464
 6055POPC   D2A76384   5.881  21.337   6.764
 6055POPC   C3A76385   5.844  21.406   7.064
 6055POPC   C4A76386   5.887  21.354   7.364
 6055POPC   C1B76387   5.933  21.662   6.464
 6055POPC   C2B76388   5.935  21.644   6.764
 6055POPC   C3B76389   5.981  21.576   7.064
 6055POPC   C4B76390   5.912  21.663   7.364
 6056POPC   NC376391  36.906   5.871   5.564
 6056POPC   PO476392  36.854   5.827   5.864
 6056POPC   GL176393  36.915   5.911   6.164
 6056POPC   GL276394  36.912   5.782   6.164
 6056POPC   C1A76395  36.879   5.830   6.464
 6056POPC   D2A76396  36.950   5.823   6.764
 6056POPC   C3A76397  36.901   5.850   7.064
 6056POPC   C4A76398  36.924   5.886   7.364
 6056POPC   C1B76399  36.975   5.617   6.464
 6056POPC   C2B76400  36.942   5.570   6.764
 6056POPC   C3B76401  36.965   5.624   7.064
 6056POPC   C4B76402  36.890   5.629   7.364
 6057POPC   NC376403   5.894  40.782   5.564
 6057POPC   PO476404   5.827  40.733   5.864
 6057POPC   GL176405   5.846  40.809   6.164
 6057POPC   GL276406   5.773  40.672   6.164
 6057POPC   C1A76407   5.887  40.757   6.464
 6057POPC   D2A76408   5.845  40.744   6.764
 6057POPC   C3A76409   5.824  40.743   7.064
 6057POPC   C4A76410   5.844  40.789   7.364
 6057POPC   C1B76411   5.661  40.643   6.464
 6057POPC   C2B76412   5.665  40.644   6.764
 6057POPC   C3B76413   5.704  40.648   7.064
 6057POPC   C4B76414   5.669  40.678   7.364
 6058POPC   NC376415   1.252  36.927   5.564
 6058POPC   PO476416   1.175  36.928   5.864
 6058POPC   GL176417   1.166  36.925   6.164
 6058POPC   GL276418   1.203  36.784   6.164
 6058POPC   C1A76419   1.249  36.932   6.464
 6058POPC   D2A76420   1.236  36.939   6.764
 6058POPC   C3A76421   1.202  36.864   7.064
 6058POPC   C4A76422   1.238  36.925   7.364
 6058POPC   C1B76423   1.213  36.682   6.464
 6058POPC   C2B76424   1.226  36.639   6.764
 6058POPC   C3B76425   1.193  36.615   7.064
 6058POPC   C4B76426   1.235  36.665   7.364
 6059POPC   NC376427  40.745  29.186   5.564
 6059POPC   PO476428  40.809  29.152   5.864
 6059POPC   GL176429  40.807  29.166   6.164
 6059POPC   GL276430  40.773  29.219   6.164
 6059POPC   C1A76431  40.734  29.174   6.464
 6059POPC   D2A76432  40.813  29.146   6.764
 6059POPC   C3A76433  40.770  29.137   7.064
 6059POPC   C4A76434  40.766  29.110   7.364
 6059POPC   C1B76435  40.682  29.358   6.464
 6059POPC   C2B76436  40.752  29.393   6.764
 6059POPC   C3B76437  40.700  29.391   7.064
 6059POPC   C4B76438  40.775  29.377   7.364
 6060POPC   NC376439  15.130  43.917   5.564
 6060POPC   PO476440  15.189  43.864   5.864
 6060POPC   GL176441  15.211  43.915   6.164
 6060POPC   GL276442  15.210  44.029   6.164
 6060POPC   C1A76443  15.134  43.856   6.464
 6060POPC   D2A76444  15.220  43.911   6.764
 6060POPC   C3A76445  15.133  43.932   7.064
 6060POPC   C4A76446  15.151  43.922   7.364
 6060POPC   C1B76447  15.313  44.101   6.464
 6060POPC   C2B76448  15.316  44.119   6.764
 6060POPC   C3B76449  15.282  44.048   7.064
 6060POPC   C4B76450  15.365  44.121   7.364
 6061POPC   NC376451  11.333  39.205   5.564
 6061POPC   PO476452  11.349  39.211   5.864
 6061POPC   GL176453  11.273  39.247   6.164
 6061POPC   GL276454  11.252  39.066   6.164
 6061POPC   C1A76455  11.306  39.222   6.464
 6061POPC   D2A76456  11.291  39.199   6.764
 6061POPC   C3A76457  11.350  39.271   7.064
 6061POPC   C4A76458  11.283  39.208   7.364
 6061POPC   C1B76459  11.315  39.027   6.464
 6061POPC   C2B76460  11.271  39.016   6.764
 6061POPC   C3B76461  11.306  39.025   7.064
 6061POPC   C4B76462  11.314  38.937   7.364
 6062POPC   NC376463  15.936  15.151   5.564
 6062POPC   PO476464  15.964  15.211   5.864
 6062POPC   GL176465  15.921  15.208   6.164
 6062POPC   GL276466  15.920  15.240   6.164
 6062POPC   C1A76467  15.990  15.141   6.464
 6062POPC   D2A76468  15.990  15.174   6.764
 6062POPC   C3A76469  15.997  15.180   7.064
 6062POPC   C4A76470  15.917  15.218   7.364
 6062POPC   C1B76471  15.845  15.431   6.464
 6062POPC   C2B76472  15.860  15.395   6.764
 6062POPC   C3B76473  15.868  15.362   7.064
 6062POPC   C4B76474  15.820  15.351   7.364
 6063POPC   NC376475  43.844   8.169   5.564
 6063POPC   PO476476  43.922   8.189   5.864
 6063POPC   GL176477  43.861   8.205   6.164
 6063POPC   GL276478  43.915   8.108   6.164
 6063POPC   C1A76479  43.850   8.176   6.464
 6063POPC   D2A76480  43.912   8.238   6.764
 6063POPC   C3A76481  43.934   8.196   7.064
 6063POPC   C4A76482  43.857   8.187   7.364
 6063POPC   C1B76483  43.964   7.931   6.464
 6063POPC   C2B76484  43.965   7.954   6.764
 6063POPC   C3B76485  43.899   7.940   7.064
 6063POPC   C4B76486  43.893   7.956   7.364
 6064POPC   NC376487  26.810   8.225   5.564
 6064POPC   PO476488  26.834   8.235   5.864
 6064POPC   GL176489  26.805   8.167   6.164
 6064POPC   GL276490  26.670   8.290   6.164
 6064POPC   C1A76491  26.840   8.177   6.464
 6064POPC   D2A76492  26.784   8.214   6.764
 6064POPC   C3A76493  26.861   8.197   7.064
 6064POPC   C4A76494  26.816   8.179   7.364
 6064POPC   C1B76495  26.601   8.319   6.464
 6064POPC   C2B76496  26.620   8.352   6.764
 6064POPC   C3B76497  26.613   8.337   7.064
 6064POPC   C4B76498  26.622   8.310   7.364
 6065POPC   NC376499  25.245   0.445   5.564
 6065POPC   PO476500  25.299   0.409   5.864
 6065POPC   GL176501  25.270   0.430   6.164
 6065POPC   GL276502  25.188   0.503   6.164
 6065POPC   C1A76503  25.272   0.422   6.464
 6065POPC   D2A76504  25.297   0.440   6.764
 6065POPC   C3A76505  25.290   0.456   7.064
 6065POPC   C4A76506  25.264   0.481   7.364
 6065POPC   C1B76507  25.054   0.498   6.464
 6065POPC   C2B76508  24.997   0.524   6.764
 6065POPC   C3B76509  24.997   0.520   7.064
 6065POPC   C4B76510  25.035   0.551   7.364
 6066POPC   NC376511  21.417  12.118   5.564
 6066POPC   PO476512  21.349  12.112   5.864
 6066POPC   GL176513  21.375  12.094   6.164
 6066POPC   GL276514  21.303  12.021   6.164
 6066POPC   C1A76515  21.423  12.102   6.464
 6066POPC   D2A76516  21.375  12.068   6.764
 6066POPC   C3A76517  21.385  12.035   7.064
 6066POPC   C4A76518  21.369  12.044   7.364
 6066POPC   C1B76519  21.148  12.035   6.464
 6066POPC   C2B76520  21.122  11.995   6.764
 6066POPC   C3B76521  21.159  12.048   7.064
 6066POPC   C4B76522  21.177  12.027   7.364
 6067POPC   NC376523   7.448  22.918   5.564
 6067POPC   PO476524   7.459  22.954   5.864
 6067POPC   GL176525   7.399  22.958   6.164
 6067POPC   GL276526   7.329  22.821   6.164
 6067POPC   C1A76527   7.452  22.911   6.464
 6067POPC   D2A76528   7.392  22.940   6.764
 6067POPC   C3A76529   7.410  22.987   7.064
 6067POPC   C4A76530   7.403  22.904   7.364
 6067POPC   C1B76531   7.217  22.728   6.464
 6067POPC   C2B76532   7.275  22.774   6.764
 6067POPC   C3B76533   7.209  22.799   7.064
 6067POPC   C4B76534   7.288  22.777   7.364
 6068POPC   NC376535  16.683  36.106   5.564
 6068POPC   PO476536  16.737  36.142   5.864
 6068POPC   GL176537  16.684  36.083   6.164
 6068POPC   GL276538  16.593  36.139   6.164
 6068POPC   C1A76539  16.751  36.169   6.464
 6068POPC   D2A76540  16.734  36.090   6.764
 6068POPC   C3A76541  16.691  36.136   7.064
 6068POPC   C4A76542  16.741  36.106   7.364
 6068POPC   C1B76543  16.464  36.189   6.464
 6068POPC   C2B76544  16.482  36.165   6.764
 6068POPC   C3B76545  16.470  36.125   7.064
 6068POPC   C4B76546  16.502  36.132   7.364
 6069POPC   NC376547   9.699  15.906   5.564
 6069POPC   PO476548   9.708  15.989   5.864
 6069POPC   GL176549   9.783  15.970   6.164
 6069POPC   GL276550   9.725  15.866   6.164
 6069POPC   C1A76551   9.744  15.945   6.464
 6069POPC   D2A76552   9.753  15.988   6.764
 6069POPC   C3A76553   9.722  15.965   7.064
 6069POPC   C4A76554   9.751  15.975   7.364
 6069POPC   C1B76555   9.785  15.758   6.464
 6069POPC   C2B76556   9.837  15.714   6.764
 6069POPC   C3B76557   9.802  15.669   7.064
 6069POPC   C4B76558   9.756  15.682   7.364
 6070POPC   NC376559   1.950   3.526   5.564
 6070POPC   PO476560   1.981   3.571   5.864
 6070POPC   GL176561   1.940   3.584   6.164
 6070POPC   GL276562   1.967   3.696   6.164
 6070POPC   C1A76563   2.011   3.526   6.464
 6070POPC   D2A76564   1.963   3.515   6.764
 6070POPC   C3A76565   1.984   3.568   7.064
 6070POPC   C4A76566   1.952   3.542   7.364
 6070POPC   C1B76567   1.990   3.760   6.464
 6070POPC   C2B76568   1.955   3.797   6.764
 6070POPC   C3B76569   1.955   3.784   7.064
 6070POPC   C4B76570   1.943   3.812   7.364
 6071POPC   NC376571  21.370  39.221   5.564
 6071POPC   PO476572  21.366  39.197   5.864
 6071POPC   GL176573  21.384  39.264   6.164
 6071POPC   GL276574  21.334  39.161   6.164
 6071POPC   C1A76575  21.434  39.225   6.464
 6071POPC   D2A76576  21.381  39.259   6.764
 6071POPC   C3A76577  21.421  39.187   7.064
 6071POPC   C4A76578  21.374  39.193   7.364
 6071POPC   C1B76579  21.211  39.009   6.464
 6071POPC   C2B76580  21.218  39.019   6.764
 6071POPC   C3B76581  21.235  39.024   7.064
 6071POPC   C4B76582  21.182  39.054   7.364
 6072POPC   NC376583   7.466  32.243   5.564
 6072POPC   PO476584   7.443  32.215   5.864
 6072POPC   GL176585   7.436  32.281   6.164
 6072POPC   GL276586   7.507  32.351   6.164
 6072POPC   C1A76587   7.470  32.289   6.464
 6072POPC   D2A76588   7.445  32.288   6.764
 6072POPC   C3A76589   7.386  32.286   7.064
 6072POPC   C4A76590   7.468  32.283   7.364
 6072POPC   C1B76591   7.602  32.388   6.464
 6072POPC   C2B76592   7.598  32.420   6.764
 6072POPC   C3B76593   7.549  32.430   7.064
 6072POPC   C4B76594   7.570  32.411   7.364
 6073POPC   NC376595  15.976  37.662   5.564
 6073POPC   PO476596  15.960  37.720   5.864
 6073POPC   GL176597  15.992  37.683   6.164
 6073POPC   GL276598  16.085  37.676   6.164
 6073POPC   C1A76599  15.969  37.724   6.464
 6073POPC   D2A76600  15.960  37.676   6.764
 6073POPC   C3A76601  15.994  37.694   7.064
 6073POPC   C4A76602  15.910  37.725   7.364
 6073POPC   C1B76603  16.166  37.658   6.464
 6073POPC   C2B76604  16.209  37.697   6.764
 6073POPC   C3B76605  16.189  37.726   7.064
 6073POPC   C4B76606  16.227  37.635   7.364
 6074POPC   NC376607  30.676   1.954   5.564
 6074POPC   PO476608  30.688   2.010   5.864
 6074POPC   GL176609  30.661   2.005   6.164
 6074POPC   GL276610  30.778   2.040   6.164
 6074POPC   C1A76611  30.721   1.989   6.464
 6074POPC   D2A76612  30.691   1.959   6.764
 6074POPC   C3A76613  30.706   1.983   7.064
 6074POPC   C4A76614  30.661   2.011   7.364
 6074POPC   C1B76615  30.917   2.177   6.464
 6074POPC   C2B76616  30.921   2.118   6.764
 6074POPC   C3B76617  30.835   2.196   7.064
 6074POPC   C4B76618  30.887   2.121   7.364
 6075POPC   NC376619  12.045  10.507   5.564
 6075POPC   PO476620  12.052  10.525   5.864
 6075POPC   GL176621  12.062  10.493   6.164
 6075POPC   GL276622  11.949  10.569   6.164
 6075POPC   C1A76623  12.108  10.509   6.464
 6075POPC   D2A76624  12.099  10.557   6.764
 6075POPC   C3A76625  12.125  10.556   7.064
 6075POPC   C4A76626  12.044  10.482   7.364
 6075POPC   C1B76627  11.882  10.662   6.464
 6075POPC   C2B76628  11.901  10.642   6.764
 6075POPC   C3B76629  11.904  10.694   7.064
 6075POPC   C4B76630  11.823  10.670   7.364
 6076POPC   NC376631  29.914   4.276   5.564
 6076POPC   PO476632  29.899   4.313   5.864
 6076POPC   GL176633  29.910   4.315   6.164
 6076POPC   GL276634  29.805   4.424   6.164
 6076POPC   C1A76635  29.915   4.295   6.464
 6076POPC   D2A76636  29.962   4.358   6.764
 6076POPC   C3A76637  29.898   4.347   7.064
 6076POPC   C4A76638  29.911   4.304   7.364
 6076POPC   C1B76639  29.778   4.445   6.464
 6076POPC   C2B76640  29.754   4.525   6.764
 6076POPC   C3B76641  29.705   4.460   7.064
 6076POPC   C4B76642  29.744   4.462   7.364
 6077POPC   NC376643   3.574  15.190   5.564
 6077POPC   PO476644   3.589  15.153   5.864
 6077POPC   GL176645   3.512  15.138   6.164
 6077POPC   GL276646   3.644  15.317   6.164
 6077POPC   C1A76647   3.506  15.198   6.464
 6077POPC   D2A76648   3.505  15.216   6.764
 6077POPC   C3A76649   3.501  15.161   7.064
 6077POPC   C4A76650   3.582  15.148   7.364
 6077POPC   C1B76651   3.720  15.405   6.464
 6077POPC   C2B76652   3.690  15.353   6.764
 6077POPC   C3B76653   3.708  15.386   7.064
 6077POPC   C4B76654   3.681  15.343   7.364
 6078POPC   NC376655  32.262  32.260   5.564
 6078POPC   PO476656  32.294  32.245   5.864
 6078POPC   GL176657  32.234  32.214   6.164
 6078POPC   GL276658  32.352  32.105   6.164
 6078POPC   C1A76659  32.291  32.280   6.464
 6078POPC   D2A76660  32.274  32.216   6.764
 6078POPC   C3A76661  32.260  32.244   7.064
 6078POPC   C4A76662  32.287  32.244   7.364
 6078POPC   C1B76663  32.335  32.048   6.464
 6078POPC   C2B76664  32.404  32.061   6.764
 6078POPC   C3B76665  32.383  32.049   7.064
 6078POPC   C4B76666  32.324  32.015   7.364
 6079POPC   NC376667   7.414  42.343   5.564
 6079POPC   PO476668   7.468  42.382   5.864
 6079POPC   GL176669   7.390  42.329   6.164
 6079POPC   GL276670   7.370  42.466   6.164
 6079POPC   C1A76671   7.383  42.317   6.464
 6079POPC   D2A76672   7.428  42.346   6.764
 6079POPC   C3A76673   7.435  42.375   7.064
 6079POPC   C4A76674   7.455  42.359   7.364
 6079POPC   C1B76675   7.319  42.558   6.464
 6079POPC   C2B76676   7.296  42.591   6.764
 6079POPC   C3B76677   7.367  42.570   7.064
 6079POPC   C4B76678   7.292  42.600   7.364
 6080POPC   NC376679  24.467  12.836   5.564
 6080POPC   PO476680  24.534  12.846   5.864
 6080POPC   GL176681  24.475  12.833   6.164
 6080POPC   GL276682  24.533  12.986   6.164
 6080POPC   C1A76683  24.443  12.825   6.464
 6080POPC   D2A76684  24.459  12.812   6.764
 6080POPC   C3A76685  24.462  12.843   7.064
 6080POPC   C4A76686  24.491  12.821   7.364
 6080POPC   C1B76687  24.585  13.054   6.464
 6080POPC   C2B76688  24.574  13.030   6.764
 6080POPC   C3B76689  24.636  13.072   7.064
 6080POPC   C4B76690  24.571  13.039   7.364
 6081POPC   NC376691  41.563  38.496   5.564
 6081POPC   PO476692  41.585  38.466   5.864
 6081POPC   GL176693  41.594  38.415   6.164
 6081POPC   GL276694  41.454  38.446   6.164
 6081POPC   C1A76695  41.551  38.464   6.464
 6081POPC   D2A76696  41.594  38.485   6.764
 6081POPC   C3A76697  41.593  38.495   7.064
 6081POPC   C4A76698  41.517  38.494   7.364
 6081POPC   C1B76699  41.286  38.447   6.464
 6081POPC   C2B76700  41.348  38.455   6.764
 6081POPC   C3B76701  41.282  38.441   7.064
 6081POPC   C4B76702  41.303  38.507   7.364
 6082POPC   NC376703   6.627  20.659   5.564
 6082POPC   PO476704   6.615  20.585   5.864
 6082POPC   GL176705   6.604  20.569   6.164
 6082POPC   GL276706   6.512  20.570   6.164
 6082POPC   C1A76707   6.603  20.567   6.464
 6082POPC   D2A76708   6.618  20.578   6.764
 6082POPC   C3A76709   6.597  20.637   7.064
 6082POPC   C4A76710   6.618  20.643   7.364
 6082POPC   C1B76711   6.426  20.614   6.464
 6082POPC   C2B76712   6.376  20.586   6.764
 6082POPC   C3B76713   6.360  20.604   7.064
 6082POPC   C4B76714   6.385  20.629   7.364
 6083POPC   NC376715  15.924  31.491   5.564
 6083POPC   PO476716  15.923  31.473   5.864
 6083POPC   GL176717  15.954  31.485   6.164
 6083POPC   GL276718  16.109  31.520   6.164
 6083POPC   C1A76719  15.908  31.426   6.464
 6083POPC   D2A76720  15.938  31.519   6.764
 6083POPC   C3A76721  15.920  31.507   7.064
 6083POPC   C4A76722  15.932  31.477   7.364
 6083POPC   C1B76723  16.193  31.532   6.464
 6083POPC   C2B76724  16.239  31.518   6.764
 6083POPC   C3B76725  16.165  31.577   7.064
 6083POPC   C4B76726  16.143  31.518   7.364
 6084POPC   NC376727  42.302   4.320   5.564
 6084POPC   PO476728  42.341   4.279   5.864
 6084POPC   GL176729  42.375   4.299   6.164
 6084POPC   GL276730  42.430   4.287   6.164
 6084POPC   C1A76731  42.321   4.301   6.464
 6084POPC   D2A76732  42.292   4.360   6.764
 6084POPC   C3A76733  42.373   4.328   7.064
 6084POPC   C4A76734  42.381   4.320   7.364
 6084POPC   C1B76735  42.543   4.366   6.464
 6084POPC   C2B76736  42.587   4.338   6.764
 6084POPC   C3B76737  42.582   4.313   7.064
 6084POPC   C4B76738  42.629   4.315   7.364
 6085POPC   NC376739  21.378   5.057   5.564
 6085POPC   PO476740  21.359   5.141   5.864
 6085POPC   GL176741  21.368   5.044   6.164
 6085POPC   GL276742  21.430   5.169   6.164
 6085POPC   C1A76743  21.397   5.053   6.464
 6085POPC   D2A76744  21.424   5.044   6.764
 6085POPC   C3A76745  21.341   5.046   7.064
 6085POPC   C4A76746  21.400   5.070   7.364
 6085POPC   C1B76747  21.541   5.269   6.464
 6085POPC   C2B76748  21.507   5.246   6.764
 6085POPC   C3B76749  21.594   5.249   7.064
 6085POPC   C4B76750  21.542   5.271   7.364
 6086POPC   NC376751  24.448  43.139   5.564
 6086POPC   PO476752  24.489  43.075   5.864
 6086POPC   GL176753  24.467  43.160   6.164
 6086POPC   GL276754  24.427  43.168   6.164
 6086POPC   C1A76755  24.468  43.095   6.464
 6086POPC   D2A76756  24.471  43.109   6.764
 6086POPC   C3A76757  24.522  43.068   7.064
 6086POPC   C4A76758  24.486  43.086   7.364
 6086POPC   C1B76759  24.277  43.217   6.464
 6086POPC   C2B76760  24.243  43.251   6.764
 6086POPC   C3B76761  24.302  43.210   7.064
 6086POPC   C4B76762  24.217  43.223   7.364
 6087POPC   NC376763  42.369   8.938   5.564
 6087POPC   PO476764  42.303   9.001   5.864
 6087POPC   GL176765  42.337   8.981   6.164
 6087POPC   GL276766  42.311   9.082   6.164
 6087POPC   C1A76767  42.306   8.930   6.464
 6087POPC   D2A76768  42.369   8.928   6.764
 6087POPC   C3A76769  42.289   8.954   7.064
 6087POPC   C4A76770  42.299   8.929   7.364
 6087POPC   C1B76771  42.329   9.174   6.464
 6087POPC   C2B76772  42.330   9.195   6.764
 6087POPC   C3B76773  42.285   9.215   7.064
 6087POPC   C4B76774  42.331   9.219   7.364
 6088POPC   NC376775  32.214  12.887   5.564
 6088POPC   PO476776  32.225  12.889   5.864
 6088POPC   GL176777  32.264  12.813   6.164
 6088POPC   GL276778  32.183  12.943   6.164
 6088POPC   C1A76779  32.233  12.867   6.464
 6088POPC   D2A76780  32.247  12.900   6.764
 6088POPC   C3A76781  32.281  12.823   7.064
 6088POPC   C4A76782  32.267  12.893   7.364
 6088POPC   C1B76783  32.161  13.062   6.464
 6088POPC   C2B76784  32.183  13.052   6.764
 6088POPC   C3B76785  32.167  13.041   7.064
 6088POPC   C4B76786  32.157  13.034   7.364
 6089POPC   NC376787  29.970  26.050   5.564
 6089POPC   PO476788  29.946  26.065   5.864
 6089POPC   GL176789  29.892  26.017   6.164
 6089POPC   GL276790  29.870  26.168   6.164
 6089POPC   C1A76791  29.925  26.082   6.464
 6089POPC   D2A76792  29.902  26.013   6.764
 6089POPC   C3A76793  29.898  26.067   7.064
 6089POPC   C4A76794  29.872  26.046   7.364
 6089POPC   C1B76795  29.807  26.270   6.464
 6089POPC   C2B76796  29.806  26.242   6.764
 6089POPC   C3B76797  29.786  26.256   7.064
 6089POPC   C4B76798  29.798  26.302   7.364
 6090POPC   NC376799  33.820  22.954   5.564
 6090POPC   PO476800  33.760  22.919   5.864
 6090POPC   GL176801  33.751  22.926   6.164
 6090POPC   GL276802  33.699  22.922   6.164
 6090POPC   C1A76803  33.777  22.966   6.464
 6090POPC   D2A76804  33.843  22.935   6.764
 6090POPC   C3A76805  33.811  22.897   7.064
 6090POPC   C4A76806  33.760  22.893   7.364
 6090POPC   C1B76807  33.522  23.027   6.464
 6090POPC   C2B76808  33.535  23.000   6.764
 6090POPC   C3B76809  33.527  22.989   7.064
 6090POPC   C4B76810  33.532  23.028   7.364
 6091POPC   NC376811  23.698  12.120   5.564
 6091POPC   PO476812  23.698  12.043   5.864
 6091POPC   GL176813  23.694  12.091   6.164
 6091POPC   GL276814  23.646  11.924   6.164
 6091POPC   C1A76815  23.753  12.033   6.464
 6091POPC   D2A76816  23.742  12.033   6.764
 6091POPC   C3A76817  23.738  12.090   7.064
 6091POPC   C4A76818  23.675  12.089   7.364
 6091POPC   C1B76819  23.617  11.874   6.464
 6091POPC   C2B76820  23.614  11.849   6.764
 6091POPC   C3B76821  23.627  11.893   7.064
 6091POPC   C4B76822  23.598  11.851   7.364
 6092POPC   NC376823  17.486  15.201   5.564
 6092POPC   PO476824  17.475  15.208   5.864
 6092POPC   GL176825  17.487  15.224   6.164
 6092POPC   GL276826  17.568  15.298   6.164
 6092POPC   C1A76827  17.516  15.214   6.464
 6092POPC   D2A76828  17.486  15.139   6.764
 6092POPC   C3A76829  17.469  15.169   7.064
 6092POPC   C4A76830  17.523  15.149   7.364
 6092POPC   C1B76831  17.623  15.436   6.464
 6092POPC   C2B76832  17.620  15.376   6.764
 6092POPC   C3B76833  17.592  15.432   7.064
 6092POPC   C4B76834  17.636  15.379   7.364
 6093POPC   NC376835   1.942  41.595   5.564
 6093POPC   PO476836   2.000  41.511   5.864
 6093POPC   GL176837   1.969  41.527   6.164
 6093POPC   GL276838   2.006  41.427   6.164
 6093POPC   C1A76839   1.969  41.581   6.464
 6093POPC   D2A76840   2.008  41.548   6.764
 6093POPC   C3A76841   1.968  41.604   7.064
 6093POPC   C4A76842   2.010  41.554   7.364
 6093POPC   C1B76843   1.989  41.337   6.464
 6093POPC   C2B76844   2.033  41.263   6.764
 6093POPC   C3B76845   2.002  41.275   7.064
 6093POPC   C4B76846   1.952  41.272   7.364
 6094POPC   NC376847   7.425   8.931   5.564
 6094POPC   PO476848   7.440   8.997   5.864
 6094POPC   GL176849   7.397   9.012   6.164
 6094POPC   GL276850   7.286   9.047   6.164
 6094POPC   C1A76851   7.422   8.978   6.464
 6094POPC   D2A76852   7.425   9.013   6.764
 6094POPC   C3A76853   7.452   8.986   7.064
 6094POPC   C4A76854   7.425   8.990   7.364
 6094POPC   C1B76855   7.182   9.176   6.464
 6094POPC   C2B76856   7.240   9.138   6.764
 6094POPC   C3B76857   7.223   9.147   7.064
 6094POPC   C4B76858   7.201   9.160   7.364
 6095POPC   NC376859  14.453  28.379   5.564
 6095POPC   PO476860  14.371  28.370   5.864
 6095POPC   GL176861  14.430  28.372   6.164
 6095POPC   GL276862  14.409  28.471   6.164
 6095POPC   C1A76863  14.366  28.412   6.464
 6095POPC   D2A76864  14.410  28.323   6.764
 6095POPC   C3A76865  14.413  28.352   7.064
 6095POPC   C4A76866  14.378  28.407   7.364
 6095POPC   C1B76867  14.400  28.649   6.464
 6095POPC   C2B76868  14.399  28.648   6.764
 6095POPC   C3B76869  14.452  28.598   7.064
 6095POPC   C4B76870  14.476  28.647   7.364
 6096POPC   NC376871   9.712  30.654   5.564
 6096POPC   PO476872   9.770  30.708   5.864
 6096POPC   GL176873   9.712  30.670   6.164
 6096POPC   GL276874   9.691  30.613   6.164
 6096POPC   C1A76875   9.717  30.729   6.464
 6096POPC   D2A76876   9.777  30.736   6.764
 6096POPC   C3A76877   9.735  30.743   7.064
 6096POPC   C4A76878   9.706  30.694   7.364
 6096POPC   C1B76879   9.589  30.569   6.464
 6096POPC   C2B76880   9.579  30.536   6.764
 6096POPC   C3B76881   9.562  30.574   7.064
 6096POPC   C4B76882   9.591  30.499   7.364
 6097POPC   NC376883  39.260  28.391   5.564
 6097POPC   PO476884  39.258  28.405   5.864
 6097POPC   GL176885  39.254  28.329   6.164
 6097POPC   GL276886  39.144  28.405   6.164
 6097POPC   C1A76887  39.261  28.324   6.464
 6097POPC   D2A76888  39.195  28.379   6.764
 6097POPC   C3A76889  39.273  28.334   7.064
 6097POPC   C4A76890  39.259  28.361   7.364
 6097POPC   C1B76891  39.027  28.496   6.464
 6097POPC   C2B76892  39.001  28.527   6.764
 6097POPC   C3B76893  39.079  28.572   7.064
 6097POPC   C4B76894  39.084  28.560   7.364
 6098POPC   NC376895  29.163  24.497   5.564
 6098POPC   PO476896  29.132  24.442   5.864
 6098POPC   GL176897  29.104  24.473   6.164
 6098POPC   GL276898  29.122  24.392   6.164
 6098POPC   C1A76899  29.109  24.447   6.464
 6098POPC   D2A76900  29.175  24.484   6.764
 6098POPC   C3A76901  29.132  24.446   7.064
 6098POPC   C4A76902  29.125  24.515   7.364
 6098POPC   C1B76903  29.042  24.254   6.464
 6098POPC   C2B76904  29.016  24.269   6.764
 6098POPC   C3B76905  29.056  24.234   7.064
 6098POPC   C4B76906  29.076  24.302   7.364
 6099POPC   NC376907  35.365   3.581   5.564
 6099POPC   PO476908  35.391   3.547   5.864
 6099POPC   GL176909  35.335   3.536   6.164
 6099POPC   GL276910  35.506   3.553   6.164
 6099POPC   C1A76911  35.401   3.503   6.464
 6099POPC   D2A76912  35.359   3.518   6.764
 6099POPC   C3A76913  35.317   3.538   7.064
 6099POPC   C4A76914  35.337   3.522   7.364
 6099POPC   C1B76915  35.635   3.473   6.464
 6099POPC   C2B76916  35.559   3.477   6.764
 6099POPC   C3B76917  35.572   3.538   7.064
 6099POPC   C4B76918  35.610   3.456   7.364
 6100POPC   NC376919  25.237  44.711   5.564
 6100POPC   PO476920  25.244  44.674   5.864
 6100POPC   GL176921  25.268  44.669   6.164
 6100POPC   GL276922  25.400  44.760   6.164
 6100POPC   C1A76923  25.257  44.680   6.464
 6100POPC   D2A76924  25.232  44.631   6.764
 6100POPC   C3A76925  25.274  44.642   7.064
 6100POPC   C4A76926  25.300  44.651   7.364
 6100POPC   C1B76927  25.445  44.764   6.464
 6100POPC   C2B76928  25.485  44.784   6.764
 6100POPC   C3B76929  25.443  44.777   7.064
 6100POPC   C4B76930  25.464  44.794   7.364
 6101POPC   NC376931   0.431  25.284   5.564
 6101POPC   PO476932   0.433  25.217   5.864
 6101POPC   GL176933   0.472  25.241   6.164
 6101POPC   GL276934   0.321  25.185   6.164
 6101POPC   C1A76935   0.435  25.302   6.464
 6101POPC   D2A76936   0.390  25.294   6.764
 6101POPC   C3A76937   0.446  25.243   7.064
 6101POPC   C4A76938   0.441  25.249   7.364
 6101POPC   C1B76939   0.237  25.104   6.464
 6101POPC   C2B76940   0.280  25.047   6.764
 6101POPC   C3B76941   0.243  25.109   7.064
 6101POPC   C4B76942   0.285  25.058   7.364
 6102POPC   NC376943  37.694  21.347   5.564
 6102POPC   PO476944  37.666  21.347   5.864
 6102POPC   GL176945  37.705  21.369   6.164
 6102POPC   GL276946  37.821  21.360   6.164
 6102POPC   C1A76947  37.729  21.386   6.464
 6102POPC   D2A76948  37.710  21.372   6.764
 6102POPC   C3A76949  37.666  21.382   7.064
 6102POPC   C4A76950  37.705  21.425   7.364
 6102POPC   C1B76951  37.960  21.273   6.464
 6102POPC   C2B76952  37.950  21.333   6.764
 6102POPC   C3B76953  37.887  21.261   7.064
 6102POPC   C4B76954  37.956  21.325   7.364
 6103POPC   NC376955  33.050   2.780   5.564
 6103POPC   PO476956  33.003   2.771   5.864
 6103POPC   GL176957  33.057   2.803   6.164
 6103POPC   GL276958  32.952   2.844   6.164
 6103POPC   C1A76959  33.030   2.785   6.464
 6103POPC   D2A76960  33.017   2.762   6.764
 6103POPC   C3A76961  33.015   2.735   7.064
 6103POPC   C4A76962  33.036   2.733   7.364
 6103POPC   C1B76963  32.769   2.875   6.464
 6103POPC   C2B76964  32.830   2.863   6.764
 6103POPC   C3B76965  32.749   2.905   7.064
 6103POPC   C4B76966  32.748   2.826   7.364
 6104POPC   NC376967  26.021   0.475   5.564
 6104POPC   PO476968  26.026   0.473   5.864
 6104POPC   GL176969  26.075   0.460   6.164
 6104POPC   GL276970  26.062   0.281   6.164
 6104POPC   C1A76971  26.022   0.439   6.464
 6104POPC   D2A76972  26.072   0.483   6.764
 6104POPC   C3A76973  26.089   0.440   7.064
 6104POPC   C4A76974  26.011   0.457   7.364
 6104POPC   C1B76975  26.097   0.152   6.464
 6104POPC   C2B76976  26.081   0.203   6.764
 6104POPC   C3B76977  26.035   0.190   7.064
 6104POPC   C4B76978  26.093   0.232   7.364
 6105POPC   NC376979   5.126  34.529   5.564
 6105POPC   PO476980   5.139  34.612   5.864
 6105POPC   GL176981   5.063  34.572   6.164
 6105POPC   GL276982   5.055  34.714   6.164
 6105POPC   C1A76983   5.071  34.590   6.464
 6105POPC   D2A76984   5.103  34.582   6.764
 6105POPC   C3A76985   5.091  34.620   7.064
 6105POPC   C4A76986   5.072  34.554   7.364
 6105POPC   C1B76987   4.898  34.739   6.464
 6105POPC   C2B76988   4.936  34.764   6.764
 6105POPC   C3B76989   4.940  34.767   7.064
 6105POPC   C4B76990   4.934  34.721   7.364
 6106POPC   NC376991  37.699  41.531   5.564
 6106POPC   PO476992  37.712  41.535   5.864
 6106POPC   GL176993  37.646  41.567   6.164
 6106POPC   GL276994  37.597  41.674   6.164
 6106POPC   C1A76995  37.643  41.550   6.464
 6106POPC   D2A76996  37.661  41.595   6.764
 6106POPC   C3A76997  37.709  41.533   7.064
 6106POPC   C4A76998  37.673  41.522   7.364
 6106POPC   C1B76999  37.589  41.803   6.464
 6106POPC   C2B77000  37.561  41.845   6.764
 6106POPC   C3B77001  37.561  41.824   7.064
 6106POPC   C4B77002  37.552  41.827   7.364
 6107POPC   NC377003   0.416  36.858   5.564
 6107POPC   PO477004   0.443  36.900   5.864
 6107POPC   GL177005   0.449  36.886   6.164
 6107POPC   GL277006   0.358  36.915   6.164
 6107POPC   C1A77007   0.401  36.880   6.464
 6107POPC   D2A77008   0.394  36.891   6.764
 6107POPC   C3A77009   0.474  36.913   7.064
 6107POPC   C4A77010   0.408  36.865   7.364
 6107POPC   C1B77011   0.235  37.069   6.464
 6107POPC   C2B77012   0.191  36.974   6.764
 6107POPC   C3B77013   0.188  37.051   7.064
 6107POPC   C4B77014   0.257  37.043   7.364
 6108POPC   NC377015  18.242  36.154   5.564
 6108POPC   PO477016  18.275  36.170   5.864
 6108POPC   GL177017  18.306  36.164   6.164
 6108POPC   GL277018  18.134  36.168   6.164
 6108POPC   C1A77019  18.310  36.092   6.464
 6108POPC   D2A77020  18.317  36.136   6.764
 6108POPC   C3A77021  18.318  36.130   7.064
 6108POPC   C4A77022  18.248  36.085   7.364
 6108POPC   C1B77023  18.082  36.269   6.464
 6108POPC   C2B77024  18.031  36.263   6.764
 6108POPC   C3B77025  18.101  36.253   7.064
 6108POPC   C4B77026  18.003  36.186   7.364
 6109POPC   NC377027  34.623   0.399   5.564
 6109POPC   PO477028  34.571   0.400   5.864
 6109POPC   GL177029  34.527   0.401   6.164
 6109POPC   GL277030  34.525   0.361   6.164
 6109POPC   C1A77031  34.574   0.396   6.464
 6109POPC   D2A77032  34.534   0.452   6.764
 6109POPC   C3A77033  34.571   0.391   7.064
 6109POPC   C4A77034  34.542   0.470   7.364
 6109POPC   C1B77035  34.498   0.182   6.464
 6109POPC   C2B77036  34.469   0.231   6.764
 6109POPC   C3B77037  34.450   0.250   7.064
 6109POPC   C4B77038  34.515   0.213   7.364
 6110POPC   NC377039  13.617   9.021   5.564
 6110POPC   PO477040  13.674   8.967   5.864
 6110POPC   GL177041  13.606   8.990   6.164
 6110POPC   GL277042  13.603   8.884   6.164
 6110POPC   C1A77043  13.645   8.926   6.464
 6110POPC   D2A77044  13.602   8.942   6.764
 6110POPC   C3A77045  13.593   9.018   7.064
 6110POPC   C4A77046  13.663   9.006   7.364
 6110POPC   C1B77047  13.651   8.680   6.464
 6110POPC   C2B77048  13.603   8.742   6.764
 6110POPC   C3B77049  13.624   8.721   7.064
 6110POPC   C4B77050  13.685   8.741   7.364
 6111POPC   NC377051  24.502   5.847   5.564
 6111POPC   PO477052  24.498   5.819   5.864
 6111POPC   GL177053  24.463   5.888   6.164
 6111POPC   GL277054  24.496   6.017   6.164
 6111POPC   C1A77055  24.479   5.890   6.464
 6111POPC   D2A77056  24.483   5.894   6.764
 6111POPC   C3A77057  24.505   5.819   7.064
 6111POPC   C4A77058  24.517   5.829   7.364
 6111POPC   C1B77059  24.541   6.060   6.464
 6111POPC   C2B77060  24.611   6.135   6.764
 6111POPC   C3B77061  24.597   6.060   7.064
 6111POPC   C4B77062  24.547   6.117   7.364
 6112POPC   NC377063  39.230  36.088   5.564
 6112POPC   PO477064  39.262  36.170   5.864
 6112POPC   GL177065  39.201  36.173   6.164
 6112POPC   GL277066  39.151  35.960   6.164
 6112POPC   C1A77067  39.270  36.148   6.464
 6112POPC   D2A77068  39.183  36.136   6.764
 6112POPC   C3A77069  39.234  36.129   7.064
 6112POPC   C4A77070  39.192  36.082   7.364
 6112POPC   C1B77071  39.167  35.933   6.464
 6112POPC   C2B77072  39.200  35.874   6.764
 6112POPC   C3B77073  39.197  35.859   7.064
 6112POPC   C4B77074  39.166  35.912   7.364
 6113POPC   NC377075   2.018  30.658   5.564
 6113POPC   PO477076   2.008  30.728   5.864
 6113POPC   GL177077   2.035  30.686   6.164
 6113POPC   GL277078   2.018  30.816   6.164
 6113POPC   C1A77079   2.003  30.704   6.464
 6113POPC   D2A77080   1.948  30.738   6.764
 6113POPC   C3A77081   2.036  30.703   7.064
 6113POPC   C4A77082   2.006  30.735   7.364
 6113POPC   C1B77083   2.010  30.931   6.464
 6113POPC   C2B77084   1.974  30.980   6.764
 6113POPC   C3B77085   1.975  30.901   7.064
 6113POPC   C4B77086   2.040  30.939   7.364
 6114POPC   NC377087  44.687  42.356   5.564
 6114POPC   PO477088  44.693  42.320   5.864
 6114POPC   GL177089  44.654  42.296   6.164
 6114POPC   GL277090  44.578  42.404   6.164
 6114POPC   C1A77091  44.662  42.339   6.464
 6114POPC   D2A77092  44.615  42.381   6.764
 6114POPC   C3A77093  44.647  42.349   7.064
 6114POPC   C4A77094  44.711  42.380   7.364
 6114POPC   C1B77095  44.600  42.584   6.464
 6114POPC   C2B77096  44.581  42.574   6.764
 6114POPC   C3B77097  44.570  42.531   7.064
 6114POPC   C4B77098  44.606  42.607   7.364
 6115POPC   NC377099   2.022   6.692   5.564
 6115POPC   PO477100   2.029   6.609   5.864
 6115POPC   GL177101   2.005   6.601   6.164
 6115POPC   GL277102   2.035   6.746   6.164
 6115POPC   C1A77103   2.031   6.617   6.464
 6115POPC   D2A77104   1.983   6.669   6.764
 6115POPC   C3A77105   2.023   6.621   7.064
 6115POPC   C4A77106   2.023   6.653   7.364
 6115POPC   C1B77107   2.107   6.924   6.464
 6115POPC   C2B77108   2.092   6.923   6.764
 6115POPC   C3B77109   2.069   6.893   7.064
 6115POPC   C4B77110   2.070   6.854   7.364
 6116POPC   NC377111   8.959  40.030   5.564
 6116POPC   PO477112   9.005  40.010   5.864
 6116POPC   GL177113   9.021  40.034   6.164
 6116POPC   GL277114   8.989  39.925   6.164
 6116POPC   C1A77115   8.940  40.017   6.464
 6116POPC   D2A77116   8.929  40.040   6.764
 6116POPC   C3A77117   8.940  39.989   7.064
 6116POPC   C4A77118   9.009  39.984   7.364
 6116POPC   C1B77119   9.017  39.785   6.464
 6116POPC   C2B77120   9.089  39.769   6.764
 6116POPC   C3B77121   9.010  39.784   7.064
 6116POPC   C4B77122   9.057  39.782   7.364
 6117POPC   NC377123  22.902  12.825   5.564
 6117POPC   PO477124  22.919  12.820   5.864
 6117POPC   GL177125  22.948  12.883   6.164
 6117POPC   GL277126  23.045  12.871   6.164
 6117POPC   C1A77127  22.988  12.876   6.464
 6117POPC   D2A77128  22.984  12.871   6.764
 6117POPC   C3A77129  22.890  12.809   7.064
 6117POPC   C4A77130  22.944  12.885   7.364
 6117POPC   C1B77131  23.140  13.000   6.464
 6117POPC   C2B77132  23.155  12.976   6.764
 6117POPC   C3B77133  23.152  13.025   7.064
 6117POPC   C4B77134  23.134  12.992   7.364
 6118POPC   NC377135   6.653   1.218   5.564
 6118POPC   PO477136   6.606   1.177   5.864
 6118POPC   GL177137   6.629   1.225   6.164
 6118POPC   GL277138   6.544   1.296   6.164
 6118POPC   C1A77139   6.630   1.247   6.464
 6118POPC   D2A77140   6.665   1.178   6.764
 6118POPC   C3A77141   6.625   1.172   7.064
 6118POPC   C4A77142   6.680   1.221   7.364
 6118POPC   C1B77143   6.488   1.412   6.464
 6118POPC   C2B77144   6.454   1.375   6.764
 6118POPC   C3B77145   6.442   1.356   7.064
 6118POPC   C4B77146   6.495   1.365   7.364
 6119POPC   NC377147  34.582  43.878   5.564
 6119POPC   PO477148  34.619  43.884   5.864
 6119POPC   GL177149  34.539  43.894   6.164
 6119POPC   GL277150  34.573  43.959   6.164
 6119POPC   C1A77151  34.561  43.895   6.464
 6119POPC   D2A77152  34.564  43.873   6.764
 6119POPC   C3A77153  34.561  43.896   7.064
 6119POPC   C4A77154  34.557  43.851   7.364
 6119POPC   C1B77155  34.476  44.140   6.464
 6119POPC   C2B77156  34.519  44.163   6.764
 6119POPC   C3B77157  34.449  44.137   7.064
 6119POPC   C4B77158  34.491  44.091   7.364
 6120POPC   NC377159  19.032   8.204   5.564
 6120POPC   PO477160  19.095   8.151   5.864
 6120POPC   GL177161  19.108   8.211   6.164
 6120POPC   GL277162  19.068   8.325   6.164
 6120POPC   C1A77163  19.034   8.184   6.464
 6120POPC   D2A77164  19.052   8.187   6.764
 6120POPC   C3A77165  19.086   8.246   7.064
 6120POPC   C4A77166  19.106   8.228   7.364
 6120POPC   C1B77167  19.178   8.389   6.464
 6120POPC   C2B77168  19.154   8.465   6.764
 6120POPC   C3B77169  19.132   8.426   7.064
 6120POPC   C4B77170  19.163   8.414   7.364
 6121POPC   NC377171  12.104   5.891   5.564
 6121POPC   PO477172  12.079   5.837   5.864
 6121POPC   GL177173  12.073   5.834   6.164
 6121POPC   GL277174  12.017   5.969   6.164
 6121POPC   C1A77175  12.052   5.868   6.464
 6121POPC   D2A77176  12.112   5.837   6.764
 6121POPC   C3A77177  12.026   5.910   7.064
 6121POPC   C4A77178  12.117   5.868   7.364
 6121POPC   C1B77179  11.856   6.011   6.464
 6121POPC   C2B77180  11.856   6.037   6.764
 6121POPC   C3B77181  11.891   5.986   7.064
 6121POPC   C4B77182  11.855   6.038   7.364
 6122POPC   NC377183  15.920  26.052   5.564
 6122POPC   PO477184  15.938  26.017   5.864
 6122POPC   GL177185  15.983  26.022   6.164
 6122POPC   GL277186  15.991  26.170   6.164
 6122POPC   C1A77187  15.911  26.052   6.464
 6122POPC   D2A77188  15.979  26.085   6.764
 6122POPC   C3A77189  15.949  25.994   7.064
 6122POPC   C4A77190  15.968  26.053   7.364
 6122POPC   C1B77191  15.970  26.334   6.464
 6122POPC   C2B77192  15.978  26.255   6.764
 6122POPC   C3B77193  16.014  26.325   7.064
 6122POPC   C4B77194  16.007  26.323   7.364
 6123POPC   NC377195  17.496   4.326   5.564
 6123POPC   PO477196  17.553   4.276   5.864
 6123POPC   GL177197  17.527   4.281   6.164
 6123POPC   GL277198  17.618   4.422   6.164
 6123POPC   C1A77199  17.534   4.342   6.464
 6123POPC   D2A77200  17.464   4.284   6.764
 6123POPC   C3A77201  17.491   4.279   7.064
 6123POPC   C4A77202  17.538   4.343   7.364
 6123POPC   C1B77203  17.678   4.435   6.464
 6123POPC   C2B77204  17.678   4.516   6.764
 6123POPC   C3B77205  17.702   4.446   7.064
 6123POPC   C4B77206  17.721   4.499   7.364
 6124POPC   NC377207  12.073  21.369   5.564
 6124POPC   PO477208  12.054  21.345   5.864
 6124POPC   GL177209  12.097  21.415   6.164
 6124POPC   GL277210  12.027  21.458   6.164
 6124POPC   C1A77211  12.079  21.342   6.464
 6124POPC   D2A77212  12.091  21.368   6.764
 6124POPC   C3A77213  12.038  21.411   7.064
 6124POPC   C4A77214  12.041  21.356   7.364
 6124POPC   C1B77215  11.935  21.594   6.464
 6124POPC   C2B77216  11.944  21.634   6.764
 6124POPC   C3B77217  11.940  21.580   7.064
 6124POPC   C4B77218  11.928  21.635   7.364
 6125POPC   NC377219   3.514   5.079   5.564
 6125POPC   PO477220   3.525   5.117   5.864
 6125POPC   GL177221   3.581   5.132   6.164
 6125POPC   GL277222   3.608   5.186   6.164
 6125POPC   C1A77223   3.546   5.069   6.464
 6125POPC   D2A77224   3.528   5.068   6.764
 6125POPC   C3A77225   3.551   5.131   7.064
 6125POPC   C4A77226   3.556   5.086   7.364
 6125POPC   C1B77227   3.707   5.299   6.464
 6125POPC   C2B77228   3.692   5.287   6.764
 6125POPC   C3B77229   3.696   5.327   7.064
 6125POPC   C4B77230   3.732   5.245   7.364
 6126POPC   NC377231  32.244  44.619   5.564
 6126POPC   PO477232  32.248  44.702   5.864
 6126POPC   GL177233  32.240  44.690   6.164
 6126POPC   GL277234  32.227  44.799   6.164
 6126POPC   C1A77235  32.207  44.642   6.464
 6126POPC   D2A77236  32.268  44.696   6.764
 6126POPC   C3A77237  32.286  44.634   7.064
 6126POPC   C4A77238  32.289  44.701   7.364
 6126POPC   C1B77239  32.275  44.879   6.464
 6126POPC   C2B77240  32.225  44.912   6.764
 6126POPC   C3B77241  32.198  44.944   7.064
 6126POPC   C4B77242  32.199  44.947   7.364
 6127POPC   NC377243   4.311  27.590   5.564
 6127POPC   PO477244   4.268  27.577   5.864
 6127POPC   GL177245   4.357  27.610   6.164
 6127POPC   GL277246   4.174  27.571   6.164
 6127POPC   C1A77247   4.356  27.623   6.464
 6127POPC   D2A77248   4.317  27.593   6.764
 6127POPC   C3A77249   4.347  27.625   7.064
 6127POPC   C4A77250   4.367  27.633   7.364
 6127POPC   C1B77251   4.103  27.545   6.464
 6127POPC   C2B77252   4.049  27.543   6.764
 6127POPC   C3B77253   4.053  27.563   7.064
 6127POPC   C4B77254   4.107  27.521   7.364
 6128POPC   NC377255  31.465  19.789   5.564
 6128POPC   PO477256  31.428  19.841   5.864
 6128POPC   GL177257  31.438  19.823   6.164
 6128POPC   GL277258  31.426  19.737   6.164
 6128POPC   C1A77259  31.448  19.841   6.464
 6128POPC   D2A77260  31.466  19.820   6.764
 6128POPC   C3A77261  31.432  19.852   7.064
 6128POPC   C4A77262  31.487  19.883   7.364
 6128POPC   C1B77263  31.422  19.588   6.464
 6128POPC   C2B77264  31.369  19.617   6.764
 6128POPC   C3B77265  31.343  19.575   7.064
 6128POPC   C4B77266  31.345  19.580   7.364
 6129POPC   NC377267  43.885  38.415   5.564
 6129POPC   PO477268  43.881  38.475   5.864
 6129POPC   GL177269  43.913  38.498   6.164
 6129POPC   GL277270  43.905  38.348   6.164
 6129POPC   C1A77271  43.873  38.475   6.464
 6129POPC   D2A77272  43.873  38.439   6.764
 6129POPC   C3A77273  43.868  38.429   7.064
 6129POPC   C4A77274  43.901  38.490   7.364
 6129POPC   C1B77275  43.813  38.191   6.464
 6129POPC   C2B77276  43.891  38.254   6.764
 6129POPC   C3B77277  43.835  38.213   7.064
 6129POPC   C4B77278  43.838  38.250   7.364
 6130POPC   NC377279  39.266   7.453   5.564
 6130POPC   PO477280  39.210   7.432   5.864
 6130POPC   GL177281  39.270   7.420   6.164
 6130POPC   GL277282  39.108   7.537   6.164
 6130POPC   C1A77283  39.214   7.465   6.464
 6130POPC   D2A77284  39.210   7.395   6.764
 6130POPC   C3A77285  39.228   7.426   7.064
 6130POPC   C4A77286  39.196   7.431   7.364
 6130POPC   C1B77287  39.042   7.591   6.464
 6130POPC   C2B77288  39.010   7.613   6.764
 6130POPC   C3B77289  38.998   7.581   7.064
 6130POPC   C4B77290  38.988   7.582   7.364
 6131POPC   NC377291  12.855  21.346   5.564
 6131POPC   PO477292  12.817  21.431   5.864
 6131POPC   GL177293  12.844  21.361   6.164
 6131POPC   GL277294  12.893  21.469   6.164
 6131POPC   C1A77295  12.888  21.364   6.464
 6131POPC   D2A77296  12.841  21.363   6.764
 6131POPC   C3A77297  12.823  21.391   7.064
 6131POPC   C4A77298  12.823  21.419   7.364
 6131POPC   C1B77299  13.019  21.558   6.464
 6131POPC   C2B77300  13.013  21.643   6.764
 6131POPC   C3B77301  12.952  21.578   7.064
 6131POPC   C4B77302  12.938  21.587   7.364
 6132POPC   NC377303   2.742  29.888   5.564
 6132POPC   PO477304   2.803  29.890   5.864
 6132POPC   GL177305   2.751  29.909   6.164
 6132POPC   GL277306   2.910  29.936   6.164
 6132POPC   C1A77307   2.721  29.893   6.464
 6132POPC   D2A77308   2.724  29.872   6.764
 6132POPC   C3A77309   2.734  29.894   7.064
 6132POPC   C4A77310   2.723  29.905   7.364
 6132POPC   C1B77311   3.011  29.894   6.464
 6132POPC   C2B77312   3.006  29.933   6.764
 6132POPC   C3B77313   3.057  29.969   7.064
 6132POPC   C4B77314   3.014  29.974   7.364
 6133POPC   NC377315  17.461  39.233   5.564
 6133POPC   PO477316  17.507  39.199   5.864
 6133POPC   GL177317  17.470  39.239   6.164
 6133POPC   GL277318  17.417  39.232   6.164
 6133POPC   C1A77319  17.541  39.226   6.464
 6133POPC   D2A77320  17.532  39.202   6.764
 6133POPC   C3A77321  17.464  39.236   7.064
 6133POPC   C4A77322  17.503  39.222   7.364
 6133POPC   C1B77323  17.239  39.289   6.464
 6133POPC   C2B77324  17.244  39.240   6.764
 6133POPC   C3B77325  17.232  39.286   7.064
 6133POPC   C4B77326  17.277  39.232   7.364
 6134POPC   NC377327   5.136  35.346   5.564
 6134POPC   PO477328   5.049  35.382   5.864
 6134POPC   GL177329   5.081  35.321   6.164
 6134POPC   GL277330   5.129  35.521   6.164
 6134POPC   C1A77331   5.082  35.318   6.464
 6134POPC   D2A77332   5.053  35.326   6.764
 6134POPC   C3A77333   5.055  35.358   7.064
 6134POPC   C4A77334   5.107  35.355   7.364
 6134POPC   C1B77335   5.167  35.636   6.464
 6134POPC   C2B77336   5.074  35.588   6.764
 6134POPC   C3B77337   5.165  35.589   7.064
 6134POPC   C4B77338   5.148  35.643   7.364
 6135POPC   NC377339   0.418  42.305   5.564
 6135POPC   PO477340   0.406  42.317   5.864
 6135POPC   GL177341   0.474  42.309   6.164
 6135POPC   GL277342   0.526  42.338   6.164
 6135POPC   C1A77343   0.475  42.343   6.464
 6135POPC   D2A77344   0.473  42.362   6.764
 6135POPC   C3A77345   0.425  42.368   7.064
 6135POPC   C4A77346   0.416  42.350   7.364
 6135POPC   C1B77347   0.682  42.408   6.464
 6135POPC   C2B77348   0.646  42.365   6.764
 6135POPC   C3B77349   0.659  42.430   7.064
 6135POPC   C4B77350   0.663  42.423   7.364
 6136POPC   NC377351  32.271   4.359   5.564
 6136POPC   PO477352  32.215   4.294   5.864
 6136POPC   GL177353  32.215   4.325   6.164
 6136POPC   GL277354  32.215   4.222   6.164
 6136POPC   C1A77355  32.215   4.301   6.464
 6136POPC   D2A77356  32.256   4.295   6.764
 6136POPC   C3A77357  32.248   4.324   7.064
 6136POPC   C4A77358  32.277   4.341   7.364
 6136POPC   C1B77359  32.095   4.112   6.464
 6136POPC   C2B77360  32.085   4.065   6.764
 6136POPC   C3B77361  32.103   4.127   7.064
 6136POPC   C4B77362  32.118   4.070   7.364
 6137POPC   NC377363  12.821  29.100   5.564
 6137POPC   PO477364  12.809  29.181   5.864
 6137POPC   GL177365  12.899  29.125   6.164
 6137POPC   GL277366  12.812  29.006   6.164
 6137POPC   C1A77367  12.819  29.134   6.464
 6137POPC   D2A77368  12.863  29.168   6.764
 6137POPC   C3A77369  12.867  29.172   7.064
 6137POPC   C4A77370  12.814  29.181   7.364
 6137POPC   C1B77371  12.673  28.947   6.464
 6137POPC   C2B77372  12.733  28.887   6.764
 6137POPC   C3B77373  12.683  28.923   7.064
 6137POPC   C4B77374  12.753  28.935   7.364
 6138POPC   NC377375   5.846   9.736   5.564
 6138POPC   PO477376   5.901   9.751   5.864
 6138POPC   GL177377   5.849   9.707   6.164
 6138POPC   GL277378   5.920   9.595   6.164
 6138POPC   C1A77379   5.877   9.752   6.464
 6138POPC   D2A77380   5.879   9.720   6.764
 6138POPC   C3A77381   5.919   9.763   7.064
 6138POPC   C4A77382   5.822   9.752   7.364
 6138POPC   C1B77383   5.940   9.531   6.464
 6138POPC   C2B77384   5.931   9.550   6.764
 6138POPC   C3B77385   6.021   9.547   7.064
 6138POPC   C4B77386   5.931   9.490   7.364
 6139POPC   NC377387  12.049  37.698   5.564
 6139POPC   PO477388  12.058  37.727   5.864
 6139POPC   GL177389  12.122  37.703   6.164
 6139POPC   GL277390  11.977  37.760   6.164
 6139POPC   C1A77391  12.050  37.723   6.464
 6139POPC   D2A77392  12.085  37.729   6.764
 6139POPC   C3A77393  12.111  37.639   7.064
 6139POPC   C4A77394  12.034  37.666   7.364
 6139POPC   C1B77395  11.880  37.874   6.464
 6139POPC   C2B77396  11.879  37.873   6.764
 6139POPC   C3B77397  11.939  37.883   7.064
 6139POPC   C4B77398  11.935  37.804   7.364
 6140POPC   NC377399  29.133  41.509   5.564
 6140POPC   PO477400  29.104  41.544   5.864
 6140POPC   GL177401  29.173  41.544   6.164
 6140POPC   GL277402  29.049  41.712   6.164
 6140POPC   C1A77403  29.161  41.567   6.464
 6140POPC   D2A77404  29.190  41.563   6.764
 6140POPC   C3A77405  29.108  41.595   7.064
 6140POPC   C4A77406  29.100  41.533   7.364
 6140POPC   C1B77407  29.038  41.776   6.464
 6140POPC   C2B77408  29.027  41.801   6.764
 6140POPC   C3B77409  29.047  41.716   7.064
 6140POPC   C4B77410  29.026  41.804   7.364
 6141POPC   NC377411  38.460   9.715   5.564
 6141POPC   PO477412  38.473   9.719   5.864
 6141POPC   GL177413  38.491   9.782   6.164
 6141POPC   GL277414  38.458   9.623   6.164
 6141POPC   C1A77415  38.426   9.732   6.464
 6141POPC   D2A77416  38.459   9.759   6.764
 6141POPC   C3A77417  38.454   9.791   7.064
 6141POPC   C4A77418  38.419   9.777   7.364
 6141POPC   C1B77419  38.400   9.547   6.464
 6141POPC   C2B77420  38.463   9.496   6.764
 6141POPC   C3B77421  38.415   9.532   7.064
 6141POPC   C4B77422  38.467   9.494   7.364
 6142POPC   NC377423  38.428  12.093   5.564
 6142POPC   PO477424  38.486  12.116   5.864
 6142POPC   GL177425  38.468  12.068   6.164
 6142POPC   GL277426  38.550  12.020   6.164
 6142POPC   C1A77427  38.504  12.097   6.464
 6142POPC   D2A77428  38.477  12.114   6.764
 6142POPC   C3A77429  38.425  12.078   7.064
 6142POPC   C4A77430  38.465  12.065   7.364
 6142POPC   C1B77431  38.667  12.055   6.464
 6142POPC   C2B77432  38.661  12.064   6.764
 6142POPC   C3B77433  38.712  12.039   7.064
 6142POPC   C4B77434  38.704  12.102   7.364
 6143POPC   NC377435  44.691  26.002   5.564
 6143POPC   PO477436  44.696  26.003   5.864
 6143POPC   GL177437  44.684  26.017   6.164
 6143POPC   GL277438  44.683  25.887   6.164
 6143POPC   C1A77439  44.701  26.073   6.464
 6143POPC   D2A77440  44.695  26.009   6.764
 6143POPC   C3A77441  44.624  26.081   7.064
 6143POPC   C4A77442  44.688  26.007   7.364
 6143POPC   C1B77443  44.758  25.784   6.464
 6143POPC   C2B77444  44.699  25.799   6.764
 6143POPC   C3B77445  44.695  25.849   7.064
 6143POPC   C4B77446  44.731  25.761   7.364
 6144POPC   NC377447  36.914  39.970   5.564
 6144POPC   PO477448  36.941  40.043   5.864
 6144POPC   GL177449  36.884  40.032   6.164
 6144POPC   GL277450  37.070  39.987   6.164
 6144POPC   C1A77451  36.864  40.028   6.464
 6144POPC   D2A77452  36.880  39.992   6.764
 6144POPC   C3A77453  36.921  40.024   7.064
 6144POPC   C4A77454  36.909  39.990   7.364
 6144POPC   C1B77455  37.116  40.062   6.464
 6144POPC   C2B77456  37.115  40.032   6.764
 6144POPC   C3B77457  37.116  40.057   7.064
 6144POPC   C4B77458  37.191  40.074   7.364
 6145POPC   NC377459  29.168   7.411   5.564
 6145POPC   PO477460  29.118   7.441   5.864
 6145POPC   GL177461  29.180   7.398   6.164
 6145POPC   GL277462  29.056   7.576   6.164
 6145POPC   C1A77463  29.188   7.374   6.464
 6145POPC   D2A77464  29.195   7.429   6.764
 6145POPC   C3A77465  29.163   7.461   7.064
 6145POPC   C4A77466  29.173   7.423   7.364
 6145POPC   C1B77467  29.077   7.617   6.464
 6145POPC   C2B77468  28.998   7.660   6.764
 6145POPC   C3B77469  29.083   7.643   7.064
 6145POPC   C4B77470  29.009   7.647   7.364
 6146POPC   NC377471  32.230  36.952   5.564
 6146POPC   PO477472  32.277  36.920   5.864
 6146POPC   GL177473  32.273  36.857   6.164
 6146POPC   GL277474  32.274  37.005   6.164
 6146POPC   C1A77475  32.199  36.884   6.464
 6146POPC   D2A77476  32.225  36.917   6.764
 6146POPC   C3A77477  32.223  36.910   7.064
 6146POPC   C4A77478  32.207  36.946   7.364
 6146POPC   C1B77479  32.255  37.194   6.464
 6146POPC   C2B77480  32.225  37.133   6.764
 6146POPC   C3B77481  32.240  37.139   7.064
 6146POPC   C4B77482  32.266  37.190   7.364
 6147POPC   NC377483   2.810   8.230   5.564
 6147POPC   PO477484   2.777   8.179   5.864
 6147POPC   GL177485   2.732   8.230   6.164
 6147POPC   GL277486   2.795   8.335   6.164
 6147POPC   C1A77487   2.757   8.164   6.464
 6147POPC   D2A77488   2.729   8.231   6.764
 6147POPC   C3A77489   2.773   8.166   7.064
 6147POPC   C4A77490   2.809   8.164   7.364
 6147POPC   C1B77491   2.888   8.418   6.464
 6147POPC   C2B77492   2.836   8.475   6.764
 6147POPC   C3B77493   2.840   8.467   7.064
 6147POPC   C4B77494   2.799   8.401   7.364
 6148POPC   NC377495  35.337  26.838   5.564
 6148POPC   PO477496  35.318  26.792   5.864
 6148POPC   GL177497  35.312  26.780   6.164
 6148POPC   GL277498  35.502  26.816   6.164
 6148POPC   C1A77499  35.345  26.816   6.464
 6148POPC   D2A77500  35.320  26.857   6.764
 6148POPC   C3A77501  35.362  26.818   7.064
 6148POPC   C4A77502  35.390  26.863   7.364
 6148POPC   C1B77503  35.602  26.907   6.464
 6148POPC   C2B77504  35.555  26.919   6.764
 6148POPC   C3B77505  35.588  26.834   7.064
 6148POPC   C4B77506  35.642  26.848   7.364
 6149POPC   NC377507  33.835  42.315   5.564
 6149POPC   PO477508  33.803  42.375   5.864
 6149POPC   GL177509  33.824  42.368   6.164
 6149POPC   GL277510  33.717  42.435   6.164
 6149POPC   C1A77511  33.770  42.352   6.464
 6149POPC   D2A77512  33.793  42.290   6.764
 6149POPC   C3A77513  33.766  42.301   7.064
 6149POPC   C4A77514  33.750  42.324   7.364
 6149POPC   C1B77515  33.571  42.525   6.464
 6149POPC   C2B77516  33.618  42.542   6.764
 6149POPC   C3B77517  33.581  42.490   7.064
 6149POPC   C4B77518  33.637  42.511   7.364
 6150POPC   NC377519  42.292  29.936   5.564
 6150POPC   PO477520  42.364  29.932   5.864
 6150POPC   GL177521  42.365  29.970   6.164
 6150POPC   GL277522  42.214  29.860   6.164
 6150POPC   C1A77523  42.288  29.918   6.464
 6150POPC   D2A77524  42.295  29.873   6.764
 6150POPC   C3A77525  42.338  29.946   7.064
 6150POPC   C4A77526  42.303  29.898   7.364
 6150POPC   C1B77527  42.101  29.816   6.464
 6150POPC   C2B77528  42.062  29.838   6.764
 6150POPC   C3B77529  42.107  29.781   7.064
 6150POPC   C4B77530  42.120  29.843   7.364
 6151POPC   NC377531  12.853  43.856   5.564
 6151POPC   PO477532  12.803  43.873   5.864
 6151POPC   GL177533  12.890  43.923   6.164
 6151POPC   GL277534  12.721  43.759   6.164
 6151POPC   C1A77535  12.829  43.924   6.464
 6151POPC   D2A77536  12.895  43.886   6.764
 6151POPC   C3A77537  12.839  43.896   7.064
 6151POPC   C4A77538  12.813  43.910   7.364
 6151POPC   C1B77539  12.671  43.728   6.464
 6151POPC   C2B77540  12.703  43.740   6.764
 6151POPC   C3B77541  12.660  43.673   7.064
 6151POPC   C4B77542  12.636  43.697   7.364
 6152POPC   NC377543  13.621  12.863   5.564
 6152POPC   PO477544  13.616  12.856   5.864
 6152POPC   GL177545  13.617  12.848   6.164
 6152POPC   GL277546  13.746  12.923   6.164
 6152POPC   C1A77547  13.612  12.837   6.464
 6152POPC   D2A77548  13.600  12.885   6.764
 6152POPC   C3A77549  13.594  12.838   7.064
 6152POPC   C4A77550  13.579  12.821   7.364
 6152POPC   C1B77551  13.732  13.051   6.464
 6152POPC   C2B77552  13.785  13.039   6.764
 6152POPC   C3B77553  13.772  13.025   7.064
 6152POPC   C4B77554  13.774  13.037   7.364
 6153POPC   NC377555  22.177  23.733   5.564
 6153POPC   PO477556  22.125  23.680   5.864
 6153POPC   GL177557  22.192  23.763   6.164
 6153POPC   GL277558  22.081  23.789   6.164
 6153POPC   C1A77559  22.203  23.680   6.464
 6153POPC   D2A77560  22.206  23.674   6.764
 6153POPC   C3A77561  22.122  23.742   7.064
 6153POPC   C4A77562  22.185  23.747   7.364
 6153POPC   C1B77563  22.033  23.973   6.464
 6153POPC   C2B77564  22.035  23.948   6.764
 6153POPC   C3B77565  22.069  23.920   7.064
 6153POPC   C4B77566  22.117  23.935   7.364
 6154POPC   NC377567   0.408  17.464   5.564
 6154POPC   PO477568   0.390  17.462   5.864
 6154POPC   GL177569   0.451  17.493   6.164
 6154POPC   GL277570   0.429  17.355   6.164
 6154POPC   C1A77571   0.433  17.554   6.464
 6154POPC   D2A77572   0.456  17.534   6.764
 6154POPC   C3A77573   0.432  17.512   7.064
 6154POPC   C4A77574   0.461  17.524   7.364
 6154POPC   C1B77575   0.374  17.315   6.464
 6154POPC   C2B77576   0.326  17.297   6.764
 6154POPC   C3B77577   0.353  17.271   7.064
 6154POPC   C4B77578   0.363  17.313   7.364
 6155POPC   NC377579  20.646  35.363   5.564
 6155POPC   PO477580  20.630  35.348   5.864
 6155POPC   GL177581  20.589  35.303   6.164
 6155POPC   GL277582  20.555  35.419   6.164
 6155POPC   C1A77583  20.634  35.375   6.464
 6155POPC   D2A77584  20.613  35.304   6.764
 6155POPC   C3A77585  20.571  35.400   7.064
 6155POPC   C4A77586  20.610  35.365   7.364
 6155POPC   C1B77587  20.402  35.584   6.464
 6155POPC   C2B77588  20.416  35.578   6.764
 6155POPC   C3B77589  20.446  35.541   7.064
 6155POPC   C4B77590  20.488  35.499   7.364
 6156POPC   NC377591   3.590   9.757   5.564
 6156POPC   PO477592   3.539   9.788   5.864
 6156POPC   GL177593   3.551   9.715   6.164
 6156POPC   GL277594   3.451   9.718   6.164
 6156POPC   C1A77595   3.564   9.752   6.464
 6156POPC   D2A77596   3.495   9.731   6.764
 6156POPC   C3A77597   3.588   9.716   7.064
 6156POPC   C4A77598   3.546   9.752   7.364
 6156POPC   C1B77599   3.319   9.734   6.464
 6156POPC   C2B77600   3.332   9.708   6.764
 6156POPC   C3B77601   3.297   9.743   7.064
 6156POPC   C4B77602   3.264   9.749   7.364
 6157POPC   NC377603  11.277  31.482   5.564
 6157POPC   PO477604  11.278  31.422   5.864
 6157POPC   GL177605  11.330  31.422   6.164
 6157POPC   GL277606  11.299  31.595   6.164
 6157POPC   C1A77607  11.318  31.509   6.464
 6157POPC   D2A77608  11.299  31.520   6.764
 6157POPC   C3A77609  11.326  31.436   7.064
 6157POPC   C4A77610  11.343  31.428   7.364
 6157POPC   C1B77611  11.277  31.761   6.464
 6157POPC   C2B77612  11.223  31.724   6.764
 6157POPC   C3B77613  11.213  31.706   7.064
 6157POPC   C4B77614  11.249  31.707   7.364
 6158POPC   NC377615  29.113  35.353   5.564
 6158POPC   PO477616  29.108  35.312   5.864
 6158POPC   GL177617  29.154  35.371   6.164
 6158POPC   GL277618  29.257  35.397   6.164
 6158POPC   C1A77619  29.102  35.386   6.464
 6158POPC   D2A77620  29.189  35.320   6.764
 6158POPC   C3A77621  29.107  35.353   7.064
 6158POPC   C4A77622  29.166  35.349   7.364
 6158POPC   C1B77623  29.385  35.427   6.464
 6158POPC   C2B77624  29.359  35.447   6.764
 6158POPC   C3B77625  29.356  35.376   7.064
 6158POPC   C4B77626  29.398  35.457   7.364
 6159POPC   NC377627   4.349  39.235   5.564
 6159POPC   PO477628   4.291  39.223   5.864
 6159POPC   GL177629   4.331  39.217   6.164
 6159POPC   GL277630   4.167  39.166   6.164
 6159POPC   C1A77631   4.336  39.234   6.464
 6159POPC   D2A77632   4.283  39.191   6.764
 6159POPC   C3A77633   4.358  39.186   7.064
 6159POPC   C4A77634   4.302  39.247   7.364
 6159POPC   C1B77635   4.082  39.126   6.464
 6159POPC   C2B77636   4.074  39.084   6.764
 6159POPC   C3B77637   4.129  39.162   7.064
 6159POPC   C4B77638   4.137  39.099   7.364
 6160POPC   NC377639  23.683  25.271   5.564
 6160POPC   PO477640  23.716  25.242   5.864
 6160POPC   GL177641  23.758  25.237   6.164
 6160POPC   GL277642  23.724  25.123   6.164
 6160POPC   C1A77643  23.760  25.278   6.464
 6160POPC   D2A77644  23.704  25.303   6.764
 6160POPC   C3A77645  23.748  25.226   7.064
 6160POPC   C4A77646  23.730  25.245   7.364
 6160POPC   C1B77647  23.697  25.019   6.464
 6160POPC   C2B77648  23.741  24.985   6.764
 6160POPC   C3B77649  23.653  25.046   7.064
 6160POPC   C4B77650  23.718  25.038   7.364
 6161POPC   NC377651  23.763   6.638   5.564
 6161POPC   PO477652  23.737   6.665   5.864
 6161POPC   GL177653  23.735   6.690   6.164
 6161POPC   GL277654  23.790   6.674   6.164
 6161POPC   C1A77655  23.708   6.637   6.464
 6161POPC   D2A77656  23.674   6.655   6.764
 6161POPC   C3A77657  23.694   6.670   7.064
 6161POPC   C4A77658  23.746   6.622   7.364
 6161POPC   C1B77659  23.932   6.735   6.464
 6161POPC   C2B77660  23.962   6.639   6.764
 6161POPC   C3B77661  23.981   6.678   7.064
 6161POPC   C4B77662  23.990   6.728   7.364
 6162POPC   NC377663  15.939  32.981   5.564
 6162POPC   PO477664  15.994  33.062   5.864
 6162POPC   GL177665  15.936  32.986   6.164
 6162POPC   GL277666  16.029  32.935   6.164
 6162POPC   C1A77667  15.967  33.027   6.464
 6162POPC   D2A77668  15.952  33.020   6.764
 6162POPC   C3A77669  15.965  33.071   7.064
 6162POPC   C4A77670  15.965  33.074   7.364
 6162POPC   C1B77671  16.218  32.970   6.464
 6162POPC   C2B77672  16.190  32.925   6.764
 6162POPC   C3B77673  16.160  32.895   7.064
 6162POPC   C4B77674  16.173  32.938   7.364
 6163POPC   NC377675  14.381  40.811   5.564
 6163POPC   PO477676  14.366  40.760   5.864
 6163POPC   GL177677  14.415  40.791   6.164
 6163POPC   GL277678  14.351  40.912   6.164
 6163POPC   C1A77679  14.438  40.783   6.464
 6163POPC   D2A77680  14.425  40.796   6.764
 6163POPC   C3A77681  14.379  40.826   7.064
 6163POPC   C4A77682  14.374  40.760   7.364
 6163POPC   C1B77683  14.255  40.962   6.464
 6163POPC   C2B77684  14.310  41.042   6.764
 6163POPC   C3B77685  14.255  41.037   7.064
 6163POPC   C4B77686  14.294  41.030   7.364
 6164POPC   NC377687  43.920  11.322   5.564
 6164POPC   PO477688  43.933  11.269   5.864
 6164POPC   GL177689  43.914  11.298   6.164
 6164POPC   GL277690  43.934  11.400   6.164
 6164POPC   C1A77691  43.929  11.275   6.464
 6164POPC   D2A77692  43.909  11.265   6.764
 6164POPC   C3A77693  43.933  11.336   7.064
 6164POPC   C4A77694  43.912  11.280   7.364
 6164POPC   C1B77695  44.042  11.490   6.464
 6164POPC   C2B77696  44.053  11.491   6.764
 6164POPC   C3B77697  44.071  11.533   7.064
 6164POPC   C4B77698  44.042  11.479   7.364
 6165POPC   NC377699  22.983  41.562   5.564
 6165POPC   PO477700  22.936  41.540   5.864
 6165POPC   GL177701  22.960  41.547   6.164
 6165POPC   GL277702  22.932  41.691   6.164
 6165POPC   C1A77703  22.929  41.556   6.464
 6165POPC   D2A77704  22.916  41.521   6.764
 6165POPC   C3A77705  22.928  41.581   7.064
 6165POPC   C4A77706  22.969  41.521   7.364
 6165POPC   C1B77707  22.942  41.855   6.464
 6165POPC   C2B77708  23.014  41.760   6.764
 6165POPC   C3B77709  23.003  41.844   7.064
 6165POPC   C4B77710  22.979  41.817   7.364
 6166POPC   NC377711  14.432  35.367   5.564
 6166POPC   PO477712  14.385  35.356   5.864
 6166POPC   GL177713  14.421  35.324   6.164
 6166POPC   GL277714  14.282  35.270   6.164
 6166POPC   C1A77715  14.360  35.374   6.464
 6166POPC   D2A77716  14.394  35.345   6.764
 6166POPC   C3A77717  14.441  35.325   7.064
 6166POPC   C4A77718  14.383  35.358   7.364
 6166POPC   C1B77719  14.257  35.203   6.464
 6166POPC   C2B77720  14.244  35.196   6.764
 6166POPC   C3B77721  14.198  35.218   7.064
 6166POPC   C4B77722  14.196  35.166   7.364
 6167POPC   NC377723  18.303   5.112   5.564
 6167POPC   PO477724  18.309   5.095   5.864
 6167POPC   GL177725  18.330   5.086   6.164
 6167POPC   GL277726  18.366   5.075   6.164
 6167POPC   C1A77727  18.286   5.133   6.464
 6167POPC   D2A77728  18.279   5.118   6.764
 6167POPC   C3A77729  18.252   5.123   7.064
 6167POPC   C4A77730  18.327   5.141   7.364
 6167POPC   C1B77731  18.495   5.127   6.464
 6167POPC   C2B77732  18.552   5.135   6.764
 6167POPC   C3B77733  18.565   5.093   7.064
 6167POPC   C4B77734  18.549   5.134   7.364
 6168POPC   NC377735   2.802  31.454   5.564
 6168POPC   PO477736   2.747  31.508   5.864
 6168POPC   GL177737   2.792  31.441   6.164
 6168POPC   GL277738   2.661  31.527   6.164
 6168POPC   C1A77739   2.749  31.446   6.464
 6168POPC   D2A77740   2.788  31.500   6.764
 6168POPC   C3A77741   2.771  31.473   7.064
 6168POPC   C4A77742   2.805  31.469   7.364
 6168POPC   C1B77743   2.527  31.587   6.464
 6168POPC   C2B77744   2.521  31.596   6.764
 6168POPC   C3B77745   2.533  31.582   7.064
 6168POPC   C4B77746   2.513  31.530   7.364
 6169POPC   NC377747  26.782  27.591   5.564
 6169POPC   PO477748  26.780  27.637   5.864
 6169POPC   GL177749  26.768  27.626   6.164
 6169POPC   GL277750  26.821  27.499   6.164
 6169POPC   C1A77751  26.776  27.629   6.464
 6169POPC   D2A77752  26.805  27.558   6.764
 6169POPC   C3A77753  26.805  27.590   7.064
 6169POPC   C4A77754  26.818  27.583   7.364
 6169POPC   C1B77755  26.697  27.313   6.464
 6169POPC   C2B77756  26.754  27.333   6.764
 6169POPC   C3B77757  26.678  27.398   7.064
 6169POPC   C4B77758  26.750  27.326   7.364
 6170POPC   NC377759  13.624  26.856   5.564
 6170POPC   PO477760  13.586  26.831   5.864
 6170POPC   GL177761  13.591  26.837   6.164
 6170POPC   GL277762  13.574  26.682   6.164
 6170POPC   C1A77763  13.664  26.798   6.464
 6170POPC   D2A77764  13.583  26.859   6.764
 6170POPC   C3A77765  13.595  26.809   7.064
 6170POPC   C4A77766  13.665  26.776   7.364
 6170POPC   C1B77767  13.629  26.551   6.464
 6170POPC   C2B77768  13.557  26.524   6.764
 6170POPC   C3B77769  13.561  26.564   7.064
 6170POPC   C4B77770  13.637  26.605   7.364
 6171POPC   NC377771  12.855  36.878   5.564
 6171POPC   PO477772  12.857  36.916   5.864
 6171POPC   GL177773  12.803  36.884   6.164
 6171POPC   GL277774  12.918  36.768   6.164
 6171POPC   C1A77775  12.808  36.912   6.464
 6171POPC   D2A77776  12.877  36.877   6.764
 6171POPC   C3A77777  12.821  36.887   7.064
 6171POPC   C4A77778  12.879  36.938   7.364
 6171POPC   C1B77779  12.973  36.722   6.464
 6171POPC   C2B77780  12.923  36.640   6.764
 6171POPC   C3B77781  12.911  36.664   7.064
 6171POPC   C4B77782  13.004  36.722   7.364
 6172POPC   NC377783  25.218  28.330   5.564
 6172POPC   PO477784  25.248  28.382   5.864
 6172POPC   GL177785  25.307  28.389   6.164
 6172POPC   GL277786  25.206  28.413   6.164
 6172POPC   C1A77787  25.242  28.391   6.464
 6172POPC   D2A77788  25.283  28.399   6.764
 6172POPC   C3A77789  25.277  28.395   7.064
 6172POPC   C4A77790  25.285  28.393   7.364
 6172POPC   C1B77791  25.120  28.497   6.464
 6172POPC   C2B77792  25.042  28.511   6.764
 6172POPC   C3B77793  25.090  28.581   7.064
 6172POPC   C4B77794  25.102  28.529   7.364
 6173POPC   NC377795  17.515  12.834   5.564
 6173POPC   PO477796  17.555  12.806   5.864
 6173POPC   GL177797  17.517  12.882   6.164
 6173POPC   GL277798  17.514  12.936   6.164
 6173POPC   C1A77799  17.536  12.887   6.464
 6173POPC   D2A77800  17.486  12.835   6.764
 6173POPC   C3A77801  17.481  12.825   7.064
 6173POPC   C4A77802  17.487  12.890   7.364
 6173POPC   C1B77803  17.440  13.106   6.464
 6173POPC   C2B77804  17.469  13.134   6.764
 6173POPC   C3B77805  17.440  13.096   7.064
 6173POPC   C4B77806  17.495  13.096   7.364
 6174POPC   NC377807  16.002  12.880   5.564
 6174POPC   PO477808  15.966  12.891   5.864
 6174POPC   GL177809  15.998  12.849   6.164
 6174POPC   GL277810  15.907  12.763   6.164
 6174POPC   C1A77811  16.005  12.836   6.464
 6174POPC   D2A77812  15.927  12.856   6.764
 6174POPC   C3A77813  15.952  12.819   7.064
 6174POPC   C4A77814  15.910  12.891   7.364
 6174POPC   C1B77815  15.881  12.613   6.464
 6174POPC   C2B77816  15.954  12.565   6.764
 6174POPC   C3B77817  15.894  12.630   7.064
 6174POPC   C4B77818  15.925  12.601   7.364
 6175POPC   NC377819   5.045  29.108   5.564
 6175POPC   PO477820   5.126  29.193   5.864
 6175POPC   GL177821   5.107  29.165   6.164
 6175POPC   GL277822   4.981  29.096   6.164
 6175POPC   C1A77823   5.129  29.132   6.464
 6175POPC   D2A77824   5.049  29.096   6.764
 6175POPC   C3A77825   5.084  29.175   7.064
 6175POPC   C4A77826   5.113  29.100   7.364
 6175POPC   C1B77827   4.844  29.092   6.464
 6175POPC   C2B77828   4.843  29.070   6.764
 6175POPC   C3B77829   4.811  29.053   7.064
 6175POPC   C4B77830   4.814  29.089   7.364
 6176POPC   NC377831  12.074  13.640   5.564
 6176POPC   PO477832  12.032  13.662   5.864
 6176POPC   GL177833  12.035  13.622   6.164
 6176POPC   GL277834  12.134  13.504   6.164
 6176POPC   C1A77835  12.078  13.651   6.464
 6176POPC   D2A77836  12.058  13.631   6.764
 6176POPC   C3A77837  12.050  13.651   7.064
 6176POPC   C4A77838  12.115  13.676   7.364
 6176POPC   C1B77839  12.174  13.412   6.464
 6176POPC   C2B77840  12.178  13.404   6.764
 6176POPC   C3B77841  12.195  13.378   7.064
 6176POPC   C4B77842  12.216  13.450   7.364
 6177POPC   NC377843   1.204  22.140   5.564
 6177POPC   PO477844   1.185  22.210   5.864
 6177POPC   GL177845   1.261  22.121   6.164
 6177POPC   GL277846   1.119  22.233   6.164
 6177POPC   C1A77847   1.232  22.149   6.464
 6177POPC   D2A77848   1.183  22.142   6.764
 6177POPC   C3A77849   1.165  22.146   7.064
 6177POPC   C4A77850   1.177  22.192   7.364
 6177POPC   C1B77851   1.088  22.433   6.464
 6177POPC   C2B77852   1.136  22.350   6.764
 6177POPC   C3B77853   1.069  22.429   7.064
 6177POPC   C4B77854   1.122  22.402   7.364
 6178POPC   NC377855   2.814   3.570   5.564
 6178POPC   PO477856   2.738   3.492   5.864
 6178POPC   GL177857   2.757   3.588   6.164
 6178POPC   GL277858   2.815   3.405   6.164
 6178POPC   C1A77859   2.753   3.584   6.464
 6178POPC   D2A77860   2.723   3.584   6.764
 6178POPC   C3A77861   2.790   3.497   7.064
 6178POPC   C4A77862   2.747   3.589   7.364
 6178POPC   C1B77863   2.857   3.253   6.464
 6178POPC   C2B77864   2.794   3.343   6.764
 6178POPC   C3B77865   2.804   3.295   7.064
 6178POPC   C4B77866   2.803   3.329   7.364
 6179POPC   NC377867  32.245  39.262   5.564
 6179POPC   PO477868  32.198  39.228   5.864
 6179POPC   GL177869  32.284  39.233   6.164
 6179POPC   GL277870  32.201  39.101   6.164
 6179POPC   C1A77871  32.247  39.253   6.464
 6179POPC   D2A77872  32.210  39.211   6.764
 6179POPC   C3A77873  32.198  39.235   7.064
 6179POPC   C4A77874  32.263  39.192   7.364
 6179POPC   C1B77875  32.239  38.947   6.464
 6179POPC   C2B77876  32.182  38.961   6.764
 6179POPC   C3B77877  32.262  38.987   7.064
 6179POPC   C4B77878  32.181  39.029   7.364
 6180POPC   NC377879  44.629  28.396   5.564
 6180POPC   PO477880  44.643  28.343   5.864
 6180POPC   GL177881  44.649  28.379   6.164
 6180POPC   GL277882  44.535  28.271   6.164
 6180POPC   C1A77883  44.641  28.392   6.464
 6180POPC   D2A77884  44.671  28.323   6.764
 6180POPC   C3A77885  44.633  28.364   7.064
 6180POPC   C4A77886  44.630  28.349   7.364
 6180POPC   C1B77887  44.420  28.218   6.464
 6180POPC   C2B77888  44.497  28.233   6.764
 6180POPC   C3B77889  44.506  28.250   7.064
 6180POPC   C4B77890  44.444  28.194   7.364
 6181POPC   NC377891  22.195  29.172   5.564
 6181POPC   PO477892  22.205  29.171   5.864
 6181POPC   GL177893  22.177  29.166   6.164
 6181POPC   GL277894  22.058  29.088   6.164
 6181POPC   C1A77895  22.191  29.169   6.464
 6181POPC   D2A77896  22.116  29.133   6.764
 6181POPC   C3A77897  22.131  29.143   7.064
 6181POPC   C4A77898  22.135  29.101   7.364
 6181POPC   C1B77899  21.964  28.990   6.464
 6181POPC   C2B77900  21.931  29.043   6.764
 6181POPC   C3B77901  21.930  28.963   7.064
 6181POPC   C4B77902  21.957  28.984   7.364
 6182POPC   NC377903  19.867  27.569   5.564
 6182POPC   PO477904  19.873  27.576   5.864
 6182POPC   GL177905  19.795  27.596   6.164
 6182POPC   GL277906  19.869  27.530   6.164
 6182POPC   C1A77907  19.828  27.609   6.464
 6182POPC   D2A77908  19.824  27.555   6.764
 6182POPC   C3A77909  19.823  27.638   7.064
 6182POPC   C4A77910  19.807  27.582   7.364
 6182POPC   C1B77911  19.968  27.398   6.464
 6182POPC   C2B77912  19.992  27.337   6.764
 6182POPC   C3B77913  19.936  27.380   7.064
 6182POPC   C4B77914  19.978  27.385   7.364
 6183POPC   NC377915   0.406   5.819   5.564
 6183POPC   PO477916   0.423   5.825   5.864
 6183POPC   GL177917   0.460   5.885   6.164
 6183POPC   GL277918   0.542   5.836   6.164
 6183POPC   C1A77919   0.458   5.846   6.464
 6183POPC   D2A77920   0.478   5.889   6.764
 6183POPC   C3A77921   0.424   5.824   7.064
 6183POPC   C4A77922   0.456   5.851   7.364
 6183POPC   C1B77923   0.601   5.728   6.464
 6183POPC   C2B77924   0.684   5.715   6.764
 6183POPC   C3B77925   0.600   5.759   7.064
 6183POPC   C4B77926   0.672   5.715   7.364
 6184POPC   NC377927  18.245   8.225   5.564
 6184POPC   PO477928  18.265   8.232   5.864
 6184POPC   GL177929  18.286   8.206   6.164
 6184POPC   GL277930  18.331   8.076   6.164
 6184POPC   C1A77931  18.235   8.191   6.464
 6184POPC   D2A77932  18.304   8.189   6.764
 6184POPC   C3A77933  18.329   8.158   7.064
 6184POPC   C4A77934  18.321   8.186   7.364
 6184POPC   C1B77935  18.407   7.921   6.464
 6184POPC   C2B77936  18.373   7.932   6.764
 6184POPC   C3B77937  18.418   7.917   7.064
 6184POPC   C4B77938  18.370   7.965   7.364
 6185POPC   NC377939  17.457  22.179   5.564
 6185POPC   PO477940  17.543  22.180   5.864
 6185POPC   GL177941  17.465  22.165   6.164
 6185POPC   GL277942  17.455  22.000   6.164
 6185POPC   C1A77943  17.467  22.173   6.464
 6185POPC   D2A77944  17.547  22.129   6.764
 6185POPC   C3A77945  17.492  22.172   7.064
 6185POPC   C4A77946  17.548  22.161   7.364
 6185POPC   C1B77947  17.497  21.902   6.464
 6185POPC   C2B77948  17.466  21.903   6.764
 6185POPC   C3B77949  17.499  21.919   7.064
 6185POPC   C4B77950  17.480  21.955   7.364
 6186POPC   NC377951  19.793  37.689   5.564
 6186POPC   PO477952  19.804  37.692   5.864
 6186POPC   GL177953  19.810  37.672   6.164
 6186POPC   GL277954  19.761  37.648   6.164
 6186POPC   C1A77955  19.882  37.709   6.464
 6186POPC   D2A77956  19.814  37.658   6.764
 6186POPC   C3A77957  19.815  37.641   7.064
 6186POPC   C4A77958  19.816  37.636   7.364
 6186POPC   C1B77959  19.576  37.574   6.464
 6186POPC   C2B77960  19.627  37.528   6.764
 6186POPC   C3B77961  19.594  37.528   7.064
 6186POPC   C4B77962  19.642  37.578   7.364
 6187POPC   NC377963  42.329  10.501   5.564
 6187POPC   PO477964  42.296  10.548   5.864
 6187POPC   GL177965  42.290  10.561   6.164
 6187POPC   GL277966  42.430  10.491   6.164
 6187POPC   C1A77967  42.320  10.491   6.464
 6187POPC   D2A77968  42.335  10.528   6.764
 6187POPC   C3A77969  42.370  10.562   7.064
 6187POPC   C4A77970  42.313  10.511   7.364
 6187POPC   C1B77971  42.554  10.379   6.464
 6187POPC   C2B77972  42.545  10.386   6.764
 6187POPC   C3B77973  42.544  10.404   7.064
 6187POPC   C4B77974  42.581  10.429   7.364
 6188POPC   NC377975  15.198  36.934   5.564
 6188POPC   PO477976  15.214  36.867   5.864
 6188POPC   GL177977  15.168  36.865   6.164
 6188POPC   GL277978  15.259  36.875   6.164
 6188POPC   C1A77979  15.216  36.907   6.464
 6188POPC   D2A77980  15.201  36.905   6.764
 6188POPC   C3A77981  15.174  36.916   7.064
 6188POPC   C4A77982  15.226  36.903   7.364
 6188POPC   C1B77983  15.384  36.914   6.464
 6188POPC   C2B77984  15.424  36.964   6.764
 6188POPC   C3B77985  15.420  36.885   7.064
 6188POPC   C4B77986  15.400  36.934   7.364
 6189POPC   NC377987  19.853  13.632   5.564
 6189POPC   PO477988  19.790  13.616   5.864
 6189POPC   GL177989  19.830  13.645   6.164
 6189POPC   GL277990  19.905  13.649   6.164
 6189POPC   C1A77991  19.808  13.642   6.464
 6189POPC   D2A77992  19.833  13.602   6.764
 6189POPC   C3A77993  19.866  13.598   7.064
 6189POPC   C4A77994  19.881  13.668   7.364
 6189POPC   C1B77995  20.016  13.795   6.464
 6189POPC   C2B77996  20.071  13.727   6.764
 6189POPC   C3B77997  20.083  13.745   7.064
 6189POPC   C4B77998  20.068  13.777   7.364
 6190POPC   NC377999  12.077   9.707   5.564
 6190POPC   PO478000  12.056   9.794   5.864
 6190POPC   GL178001  12.092   9.746   6.164
 6190POPC   GL278002  12.086   9.661   6.164
 6190POPC   C1A78003  12.080   9.798   6.464
 6190POPC   D2A78004  12.088   9.794   6.764
 6190POPC   C3A78005  12.044   9.766   7.064
 6190POPC   C4A78006  12.078   9.742   7.364
 6190POPC   C1B78007  12.120   9.532   6.464
 6190POPC   C2B78008  12.096   9.517   6.764
 6190POPC   C3B78009  12.149   9.462   7.064
 6190POPC   C4B78010  12.176   9.476   7.364
 6191POPC   NC378011  34.554  31.426   5.564
 6191POPC   PO478012  34.570  31.521   5.864
 6191POPC   GL178013  34.570  31.498   6.164
 6191POPC   GL278014  34.734  31.506   6.164
 6191POPC   C1A78015  34.608  31.484   6.464
 6191POPC   D2A78016  34.589  31.458   6.764
 6191POPC   C3A78017  34.559  31.481   7.064
 6191POPC   C4A78018  34.566  31.507   7.364
 6191POPC   C1B78019  34.873  31.485   6.464
 6191POPC   C2B78020  34.785  31.452   6.764
 6191POPC   C3B78021  34.845  31.490   7.064
 6191POPC   C4B78022  34.842  31.460   7.364
 6192POPC   NC378023  29.110  14.425   5.564
 6192POPC   PO478024  29.155  14.385   5.864
 6192POPC   GL178025  29.099  14.382   6.164
 6192POPC   GL278026  29.042  14.446   6.164
 6192POPC   C1A78027  29.134  14.426   6.464
 6192POPC   D2A78028  29.124  14.441   6.764
 6192POPC   C3A78029  29.168  14.413   7.064
 6192POPC   C4A78030  29.180  14.409   7.364
 6192POPC   C1B78031  28.923  14.448   6.464
 6192POPC   C2B78032  28.870  14.410   6.764
 6192POPC   C3B78033  28.902  14.434   7.064
 6192POPC   C4B78034  28.937  14.459   7.364
 6193POPC   NC378035  29.111  16.776   5.564
 6193POPC   PO478036  29.103  16.730   5.864
 6193POPC   GL178037  29.133  16.750   6.164
 6193POPC   GL278038  29.038  16.764   6.164
 6193POPC   C1A78039  29.165  16.747   6.464
 6193POPC   D2A78040  29.148  16.726   6.764
 6193POPC   C3A78041  29.151  16.719   7.064
 6193POPC   C4A78042  29.137  16.730   7.364
 6193POPC   C1B78043  28.859  16.741   6.464
 6193POPC   C2B78044  28.927  16.762   6.764
 6193POPC   C3B78045  28.902  16.831   7.064
 6193POPC   C4B78046  28.886  16.800   7.364
 6194POPC   NC378047  29.931  14.372   5.564
 6194POPC   PO478048  29.917  14.383   5.864
 6194POPC   GL178049  29.962  14.375   6.164
 6194POPC   GL278050  30.025  14.393   6.164
 6194POPC   C1A78051  29.937  14.373   6.464
 6194POPC   D2A78052  29.914  14.433   6.764
 6194POPC   C3A78053  29.890  14.422   7.064
 6194POPC   C4A78054  29.904  14.371   7.364
 6194POPC   C1B78055  30.169  14.424   6.464
 6194POPC   C2B78056  30.207  14.472   6.764
 6194POPC   C3B78057  30.120  14.415   7.064
 6194POPC   C4B78058  30.162  14.480   7.364
 6195POPC   NC378059  21.368  22.926   5.564
 6195POPC   PO478060  21.374  22.970   5.864
 6195POPC   GL178061  21.425  22.941   6.164
 6195POPC   GL278062  21.407  23.099   6.164
 6195POPC   C1A78063  21.380  22.965   6.464
 6195POPC   D2A78064  21.401  22.964   6.764
 6195POPC   C3A78065  21.345  22.955   7.064
 6195POPC   C4A78066  21.388  22.894   7.364
 6195POPC   C1B78067  21.384  23.206   6.464
 6195POPC   C2B78068  21.398  23.206   6.764
 6195POPC   C3B78069  21.442  23.192   7.064
 6195POPC   C4B78070  21.420  23.153   7.364
 6196POPC   NC378071  44.648   9.003   5.564
 6196POPC   PO478072  44.624   9.018   5.864
 6196POPC   GL178073  44.621   8.969   6.164
 6196POPC   GL278074  44.729   8.885   6.164
 6196POPC   C1A78075  44.617   8.928   6.464
 6196POPC   D2A78076  44.692   8.950   6.764
 6196POPC   C3A78077  44.702   8.969   7.064
 6196POPC   C4A78078  44.623   8.958   7.364
 6196POPC   C1B78079  44.880   8.913   6.464
 6196POPC   C2B78080  44.880   8.921   6.764
 6196POPC   C3B78081  44.872   8.865   7.064
 6196POPC   C4B78082  44.871   8.894   7.364
 6197POPC   NC378083   5.108  41.522   5.564
 6197POPC   PO478084   5.127  41.509   5.864
 6197POPC   GL178085   5.136  41.524   6.164
 6197POPC   GL278086   5.053  41.668   6.164
 6197POPC   C1A78087   5.128  41.567   6.464
 6197POPC   D2A78088   5.052  41.527   6.764
 6197POPC   C3A78089   5.129  41.555   7.064
 6197POPC   C4A78090   5.063  41.526   7.364
 6197POPC   C1B78091   5.096  41.802   6.464
 6197POPC   C2B78092   5.111  41.795   6.764
 6197POPC   C3B78093   5.106  41.845   7.064
 6197POPC   C4B78094   5.124  41.799   7.364
 6198POPC   NC378095  12.122  43.910   5.564
 6198POPC   PO478096  12.063  43.920   5.864
 6198POPC   GL178097  12.095  43.900   6.164
 6198POPC   GL278098  12.062  43.970   6.164
 6198POPC   C1A78099  12.045  43.865   6.464
 6198POPC   D2A78100  12.089  43.871   6.764
 6198POPC   C3A78101  12.050  43.891   7.064
 6198POPC   C4A78102  12.058  43.891   7.364
 6198POPC   C1B78103  12.114  44.119   6.464
 6198POPC   C2B78104  12.100  44.179   6.764
 6198POPC   C3B78105  12.054  44.133   7.064
 6198POPC   C4B78106  12.054  44.088   7.364
 6199POPC   NC378107  44.705   2.717   5.564
 6199POPC   PO478108  44.704   2.741   5.864
 6199POPC   GL178109  44.615   2.753   6.164
 6199POPC   GL278110  44.694   2.678   6.164
 6199POPC   C1A78111  44.651   2.767   6.464
 6199POPC   D2A78112  44.710   2.779   6.764
 6199POPC   C3A78113  44.637   2.736   7.064
 6199POPC   C4A78114  44.688   2.764   7.364
 6199POPC   C1B78115  44.660   2.504   6.464
 6199POPC   C2B78116  44.675   2.509   6.764
 6199POPC   C3B78117  44.667   2.508   7.064
 6199POPC   C4B78118  44.704   2.485   7.364
 6200POPC   NC378119   9.777   9.787   5.564
 6200POPC   PO478120   9.793   9.708   5.864
 6200POPC   GL178121   9.791   9.753   6.164
 6200POPC   GL278122   9.660   9.640   6.164
 6200POPC   C1A78123   9.744   9.789   6.464
 6200POPC   D2A78124   9.745   9.770   6.764
 6200POPC   C3A78125   9.769   9.762   7.064
 6200POPC   C4A78126   9.761   9.785   7.364
 6200POPC   C1B78127   9.558   9.605   6.464
 6200POPC   C2B78128   9.555   9.582   6.764
 6200POPC   C3B78129   9.547   9.591   7.064
 6200POPC   C4B78130   9.598   9.616   7.364
 6201POPC   NC378131  37.640  34.611   5.564
 6201POPC   PO478132  37.706  34.589   5.864
 6201POPC   GL178133  37.671  34.551   6.164
 6201POPC   GL278134  37.644  34.500   6.164
 6201POPC   C1A78135  37.639  34.607   6.464
 6201POPC   D2A78136  37.638  34.528   6.764
 6201POPC   C3A78137  37.647  34.564   7.064
 6201POPC   C4A78138  37.720  34.585   7.364
 6201POPC   C1B78139  37.607  34.370   6.464
 6201POPC   C2B78140  37.605  34.354   6.764
 6201POPC   C3B78141  37.610  34.372   7.064
 6201POPC   C4B78142  37.542  34.327   7.364
 6202POPC   NC378143   4.327  31.423   5.564
 6202POPC   PO478144   4.327  31.464   5.864
 6202POPC   GL178145   4.303  31.517   6.164
 6202POPC   GL278146   4.441  31.571   6.164
 6202POPC   C1A78147   4.270  31.476   6.464
 6202POPC   D2A78148   4.350  31.508   6.764
 6202POPC   C3A78149   4.343  31.431   7.064
 6202POPC   C4A78150   4.277  31.501   7.364
 6202POPC   C1B78151   4.447  31.618   6.464
 6202POPC   C2B78152   4.478  31.641   6.764
 6202POPC   C3B78153   4.433  31.632   7.064
 6202POPC   C4B78154   4.510  31.698   7.364
 6203POPC   NC378155  19.866  26.802   5.564
 6203POPC   PO478156  19.883  26.770   5.864
 6203POPC   GL178157  19.796  26.815   6.164
 6203POPC   GL278158  19.943  26.839   6.164
 6203POPC   C1A78159  19.847  26.831   6.464
 6203POPC   D2A78160  19.838  26.802   6.764
 6203POPC   C3A78161  19.833  26.836   7.064
 6203POPC   C4A78162  19.856  26.829   7.364
 6203POPC   C1B78163  20.067  26.865   6.464
 6203POPC   C2B78164  20.047  26.823   6.764
 6203POPC   C3B78165  20.035  26.835   7.064
 6203POPC   C4B78166  20.069  26.834   7.364
 6204POPC   NC378167  23.720  33.840   5.564
 6204POPC   PO478168  23.729  33.817   5.864
 6204POPC   GL178169  23.705  33.774   6.164
 6204POPC   GL278170  23.763  33.699   6.164
 6204POPC   C1A78171  23.697  33.792   6.464
 6204POPC   D2A78172  23.670  33.755   6.764
 6204POPC   C3A78173  23.698  33.792   7.064
 6204POPC   C4A78174  23.682  33.832   7.364
 6204POPC   C1B78175  23.929  33.594   6.464
 6204POPC   C2B78176  23.902  33.602   6.764
 6204POPC   C3B78177  23.939  33.593   7.064
 6204POPC   C4B78178  23.903  33.670   7.364
 6205POPC   NC378179  31.519  42.361   5.564
 6205POPC   PO478180  31.514  42.296   5.864
 6205POPC   GL178181  31.449  42.378   6.164
 6205POPC   GL278182  31.378  42.367   6.164
 6205POPC   C1A78183  31.455  42.368   6.464
 6205POPC   D2A78184  31.426  42.308   6.764
 6205POPC   C3A78185  31.514  42.377   7.064
 6205POPC   C4A78186  31.490  42.342   7.364
 6205POPC   C1B78187  31.200  42.311   6.464
 6205POPC   C2B78188  31.212  42.320   6.764
 6205POPC   C3B78189  31.256  42.341   7.064
 6205POPC   C4B78190  31.231  42.362   7.364
 6206POPC   NC378191   6.654   5.057   5.564
 6206POPC   PO478192   6.667   5.072   5.864
 6206POPC   GL178193   6.648   5.110   6.164
 6206POPC   GL278194   6.725   4.954   6.164
 6206POPC   C1A78195   6.639   5.088   6.464
 6206POPC   D2A78196   6.595   5.076   6.764
 6206POPC   C3A78197   6.644   5.118   7.064
 6206POPC   C4A78198   6.679   5.133   7.364
 6206POPC   C1B78199   6.712   4.840   6.464
 6206POPC   C2B78200   6.745   4.894   6.764
 6206POPC   C3B78201   6.716   4.818   7.064
 6206POPC   C4B78202   6.705   4.875   7.364
 6207POPC   NC378203  17.491  40.817   5.564
 6207POPC   PO478204  17.465  40.774   5.864
 6207POPC   GL178205  17.555  40.786   6.164
 6207POPC   GL278206  17.495  40.632   6.164
 6207POPC   C1A78207  17.547  40.806   6.464
 6207POPC   D2A78208  17.494  40.802   6.764
 6207POPC   C3A78209  17.540  40.776   7.064
 6207POPC   C4A78210  17.470  40.811   7.364
 6207POPC   C1B78211  17.532  40.515   6.464
 6207POPC   C2B78212  17.492  40.533   6.764
 6207POPC   C3B78213  17.494  40.531   7.064
 6207POPC   C4B78214  17.536  40.568   7.364
 6208POPC   NC378215   8.188  38.435   5.564
 6208POPC   PO478216   8.199  38.426   5.864
 6208POPC   GL178217   8.181  38.407   6.164
 6208POPC   GL278218   8.277  38.405   6.164
 6208POPC   C1A78219   8.200  38.456   6.464
 6208POPC   D2A78220   8.222  38.423   6.764
 6208POPC   C3A78221   8.150  38.464   7.064
 6208POPC   C4A78222   8.187  38.468   7.364
 6208POPC   C1B78223   8.363  38.270   6.464
 6208POPC   C2B78224   8.405  38.297   6.764
 6208POPC   C3B78225   8.372  38.312   7.064
 6208POPC   C4B78226   8.388  38.229   7.364
 6209POPC   NC378227  39.229   5.869   5.564
 6209POPC   PO478228  39.275   5.905   5.864
 6209POPC   GL178229  39.262   5.884   6.164
 6209POPC   GL278230  39.330   5.891   6.164
 6209POPC   C1A78231  39.199   5.907   6.464
 6209POPC   D2A78232  39.258   5.890   6.764
 6209POPC   C3A78233  39.183   5.871   7.064
 6209POPC   C4A78234  39.202   5.820   7.364
 6209POPC   C1B78235  39.472   5.839   6.464
 6209POPC   C2B78236  39.499   5.856   6.764
 6209POPC   C3B78237  39.522   5.904   7.064
 6209POPC   C4B78238  39.494   5.880   7.364
 6210POPC   NC378239  28.321  26.799   5.564
 6210POPC   PO478240  28.350  26.860   5.864
 6210POPC   GL178241  28.332  26.847   6.164
 6210POPC   GL278242  28.244  26.790   6.164
 6210POPC   C1A78243  28.417  26.807   6.464
 6210POPC   D2A78244  28.331  26.803   6.764
 6210POPC   C3A78245  28.355  26.795   7.064
 6210POPC   C4A78246  28.366  26.769   7.364
 6210POPC   C1B78247  28.112  26.823   6.464
 6210POPC   C2B78248  28.128  26.870   6.764
 6210POPC   C3B78249  28.071  26.793   7.064
 6210POPC   C4B78250  28.077  26.793   7.364
 6211POPC   NC378251   4.339  16.753   5.564
 6211POPC   PO478252   4.341  16.715   5.864
 6211POPC   GL178253   4.290  16.740   6.164
 6211POPC   GL278254   4.372  16.804   6.164
 6211POPC   C1A78255   4.338  16.730   6.464
 6211POPC   D2A78256   4.283  16.739   6.764
 6211POPC   C3A78257   4.312  16.779   7.064
 6211POPC   C4A78258   4.276  16.745   7.364
 6211POPC   C1B78259   4.480  16.967   6.464
 6211POPC   C2B78260   4.497  16.957   6.764
 6211POPC   C3B78261   4.446  16.951   7.064
 6211POPC   C4B78262   4.473  16.934   7.364
 6212POPC   NC378263  22.179  27.624   5.564
 6212POPC   PO478264  22.116  27.627   5.864
 6212POPC   GL178265  22.144  27.547   6.164
 6212POPC   GL278266  22.170  27.476   6.164
 6212POPC   C1A78267  22.158  27.562   6.464
 6212POPC   D2A78268  22.211  27.583   6.764
 6212POPC   C3A78269  22.129  27.582   7.064
 6212POPC   C4A78270  22.140  27.621   7.364
 6212POPC   C1B78271  22.227  27.341   6.464
 6212POPC   C2B78272  22.172  27.355   6.764
 6212POPC   C3B78273  22.238  27.345   7.064
 6212POPC   C4B78274  22.192  27.299   7.364
 6213POPC   NC378275  42.345  39.252   5.564
 6213POPC   PO478276  42.351  39.203   5.864
 6213POPC   GL178277  42.381  39.228   6.164
 6213POPC   GL278278  42.274  39.135   6.164
 6213POPC   C1A78279  42.306  39.213   6.464
 6213POPC   D2A78280  42.335  39.200   6.764
 6213POPC   C3A78281  42.316  39.235   7.064
 6213POPC   C4A78282  42.350  39.227   7.364
 6213POPC   C1B78283  42.166  39.093   6.464
 6213POPC   C2B78284  42.178  39.115   6.764
 6213POPC   C3B78285  42.171  39.057   7.064
 6213POPC   C4B78286  42.134  39.036   7.364
 6214POPC   NC378287   7.424  33.777   5.564
 6214POPC   PO478288   7.410  33.787   5.864
 6214POPC   GL178289   7.436  33.781   6.164
 6214POPC   GL278290   7.269  33.823   6.164
 6214POPC   C1A78291   7.393  33.796   6.464
 6214POPC   D2A78292   7.453  33.769   6.764
 6214POPC   C3A78293   7.399  33.801   7.064
 6214POPC   C4A78294   7.384  33.778   7.364
 6214POPC   C1B78295   7.165  33.915   6.464
 6214POPC   C2B78296   7.236  33.883   6.764
 6214POPC   C3B78297   7.160  33.887   7.064
 6214POPC   C4B78298   7.154  33.887   7.364
 6215POPC   NC378299  40.002  30.719   5.564
 6215POPC   PO478300  40.022  30.710   5.864
 6215POPC   GL178301  39.990  30.702   6.164
 6215POPC   GL278302  40.020  30.792   6.164
 6215POPC   C1A78303  40.052  30.677   6.464
 6215POPC   D2A78304  39.964  30.680   6.764
 6215POPC   C3A78305  39.959  30.666   7.064
 6215POPC   C4A78306  40.015  30.727   7.364
 6215POPC   C1B78307  40.124  30.897   6.464
 6215POPC   C2B78308  40.181  30.906   6.764
 6215POPC   C3B78309  40.096  30.897   7.064
 6215POPC   C4B78310  40.129  30.884   7.364
 6216POPC   NC378311  40.789  32.208   5.564
 6216POPC   PO478312  40.815  32.291   5.864
 6216POPC   GL178313  40.803  32.292   6.164
 6216POPC   GL278314  40.909  32.294   6.164
 6216POPC   C1A78315  40.772  32.260   6.464
 6216POPC   D2A78316  40.810  32.245   6.764
 6216POPC   C3A78317  40.758  32.294   7.064
 6216POPC   C4A78318  40.757  32.232   7.364
 6216POPC   C1B78319  41.012  32.278   6.464
 6216POPC   C2B78320  41.080  32.230   6.764
 6216POPC   C3B78321  40.995  32.228   7.064
 6216POPC   C4B78322  41.077  32.218   7.364
 6217POPC   NC378323  18.270   3.549   5.564
 6217POPC   PO478324  18.297   3.522   5.864
 6217POPC   GL178325  18.281   3.555   6.164
 6217POPC   GL278326  18.146   3.584   6.164
 6217POPC   C1A78327  18.265   3.567   6.464
 6217POPC   D2A78328  18.235   3.591   6.764
 6217POPC   C3A78329  18.304   3.565   7.064
 6217POPC   C4A78330  18.312   3.509   7.364
 6217POPC   C1B78331  18.032   3.632   6.464
 6217POPC   C2B78332  18.003   3.570   6.764
 6217POPC   C3B78333  18.029   3.605   7.064
 6217POPC   C4B78334  18.050   3.604   7.364
 6218POPC   NC378335   3.494  43.117   5.564
 6218POPC   PO478336   3.513  43.061   5.864
 6218POPC   GL178337   3.539  43.135   6.164
 6218POPC   GL278338   3.623  43.161   6.164
 6218POPC   C1A78339   3.512  43.154   6.464
 6218POPC   D2A78340   3.516  43.086   6.764
 6218POPC   C3A78341   3.526  43.100   7.064
 6218POPC   C4A78342   3.542  43.113   7.364
 6218POPC   C1B78343   3.808  43.235   6.464
 6218POPC   C2B78344   3.777  43.266   6.764
 6218POPC   C3B78345   3.729  43.259   7.064
 6218POPC   C4B78346   3.791  43.235   7.364
 6219POPC   NC378347   5.845  41.516   5.564
 6219POPC   PO478348   5.897  41.544   5.864
 6219POPC   GL178349   5.898  41.563   6.164
 6219POPC   GL278350   5.936  41.425   6.164
 6219POPC   C1A78351   5.846  41.516   6.464
 6219POPC   D2A78352   5.854  41.601   6.764
 6219POPC   C3A78353   5.861  41.571   7.064
 6219POPC   C4A78354   5.883  41.555   7.364
 6219POPC   C1B78355   6.013  41.309   6.464
 6219POPC   C2B78356   6.001  41.322   6.764
 6219POPC   C3B78357   5.991  41.303   7.064
 6219POPC   C4B78358   5.991  41.334   7.364
 6220POPC   NC378359  34.566  39.224   5.564
 6220POPC   PO478360  34.564  39.238   5.864
 6220POPC   GL178361  34.582  39.209   6.164
 6220POPC   GL278362  34.728  39.324   6.164
 6220POPC   C1A78363  34.561  39.226   6.464
 6220POPC   D2A78364  34.565  39.246   6.764
 6220POPC   C3A78365  34.588  39.220   7.064
 6220POPC   C4A78366  34.583  39.201   7.364
 6220POPC   C1B78367  34.779  39.315   6.464
 6220POPC   C2B78368  34.850  39.343   6.764
 6220POPC   C3B78369  34.774  39.307   7.064
 6220POPC   C4B78370  34.766  39.345   7.364
 6221POPC   NC378371  43.881  19.842   5.564
 6221POPC   PO478372  43.914  19.793   5.864
 6221POPC   GL178373  43.899  19.879   6.164
 6221POPC   GL278374  43.870  19.990   6.164
 6221POPC   C1A78375  43.852  19.872   6.464
 6221POPC   D2A78376  43.867  19.794   6.764
 6221POPC   C3A78377  43.861  19.833   7.064
 6221POPC   C4A78378  43.858  19.847   7.364
 6221POPC   C1B78379  43.750  20.041   6.464
 6221POPC   C2B78380  43.780  20.020   6.764
 6221POPC   C3B78381  43.804  20.061   7.064
 6221POPC   C4B78382  43.810  20.074   7.364
 6222POPC   NC378383   1.971  38.453   5.564
 6222POPC   PO478384   1.946  38.428   5.864
 6222POPC   GL178385   2.016  38.492   6.164
 6222POPC   GL278386   1.933  38.557   6.164
 6222POPC   C1A78387   2.030  38.486   6.464
 6222POPC   D2A78388   1.961  38.494   6.764
 6222POPC   C3A78389   2.025  38.469   7.064
 6222POPC   C4A78390   2.001  38.472   7.364
 6222POPC   C1B78391   1.779  38.570   6.464
 6222POPC   C2B78392   1.832  38.590   6.764
 6222POPC   C3B78393   1.831  38.592   7.064
 6222POPC   C4B78394   1.778  38.576   7.364
 6223POPC   NC378395  27.624   7.377   5.564
 6223POPC   PO478396  27.613   7.385   5.864
 6223POPC   GL178397  27.627   7.459   6.164
 6223POPC   GL278398  27.570   7.513   6.164
 6223POPC   C1A78399  27.598   7.427   6.464
 6223POPC   D2A78400  27.570   7.453   6.764
 6223POPC   C3A78401  27.561   7.413   7.064
 6223POPC   C4A78402  27.562   7.376   7.364
 6223POPC   C1B78403  27.468   7.602   6.464
 6223POPC   C2B78404  27.428   7.607   6.764
 6223POPC   C3B78405  27.467   7.642   7.064
 6223POPC   C4B78406  27.442   7.618   7.364
 6224POPC   NC378407   0.477   4.327   5.564
 6224POPC   PO478408   0.448   4.272   5.864
 6224POPC   GL178409   0.411   4.339   6.164
 6224POPC   GL278410   0.541   4.376   6.164
 6224POPC   C1A78411   0.409   4.339   6.464
 6224POPC   D2A78412   0.464   4.344   6.764
 6224POPC   C3A78413   0.473   4.277   7.064
 6224POPC   C4A78414   0.485   4.286   7.364
 6224POPC   C1B78415   0.670   4.336   6.464
 6224POPC   C2B78416   0.713   4.367   6.764
 6224POPC   C3B78417   0.713   4.351   7.064
 6224POPC   C4B78418   0.644   4.331   7.364
 6225POPC   NC378419  28.343  15.132   5.564
 6225POPC   PO478420  28.407  15.172   5.864
 6225POPC   GL178421  28.345  15.169   6.164
 6225POPC   GL278422  28.287  15.098   6.164
 6225POPC   C1A78423  28.358  15.203   6.464
 6225POPC   D2A78424  28.410  15.229   6.764
 6225POPC   C3A78425  28.323  15.206   7.064
 6225POPC   C4A78426  28.344  15.178   7.364
 6225POPC   C1B78427  28.154  15.053   6.464
 6225POPC   C2B78428  28.123  15.027   6.764
 6225POPC   C3B78429  28.097  15.098   7.064
 6225POPC   C4B78430  28.144  15.089   7.364
 6226POPC   NC378431  29.943  13.635   5.564
 6226POPC   PO478432  29.932  13.644   5.864
 6226POPC   GL178433  29.875  13.633   6.164
 6226POPC   GL278434  29.807  13.754   6.164
 6226POPC   C1A78435  29.904  13.663   6.464
 6226POPC   D2A78436  29.872  13.586   6.764
 6226POPC   C3A78437  29.917  13.638   7.064
 6226POPC   C4A78438  29.948  13.632   7.364
 6226POPC   C1B78439  29.709  13.791   6.464
 6226POPC   C2B78440  29.773  13.822   6.764
 6226POPC   C3B78441  29.764  13.794   7.064
 6226POPC   C4B78442  29.752  13.821   7.364
 6227POPC   NC378443  37.680  26.009   5.564
 6227POPC   PO478444  37.666  26.070   5.864
 6227POPC   GL178445  37.701  26.041   6.164
 6227POPC   GL278446  37.699  26.185   6.164
 6227POPC   C1A78447  37.630  26.050   6.464
 6227POPC   D2A78448  37.630  25.997   6.764
 6227POPC   C3A78449  37.665  26.083   7.064
 6227POPC   C4A78450  37.715  26.081   7.364
 6227POPC   C1B78451  37.612  26.317   6.464
 6227POPC   C2B78452  37.692  26.276   6.764
 6227POPC   C3B78453  37.613  26.333   7.064
 6227POPC   C4B78454  37.633  26.243   7.364
 6228POPC   NC378455  12.032  33.068   5.564
 6228POPC   PO478456  12.117  33.056   5.864
 6228POPC   GL178457  12.045  33.065   6.164
 6228POPC   GL278458  12.099  32.943   6.164
 6228POPC   C1A78459  12.079  33.041   6.464
 6228POPC   D2A78460  12.114  33.044   6.764
 6228POPC   C3A78461  12.059  32.977   7.064
 6228POPC   C4A78462  12.080  33.036   7.364
 6228POPC   C1B78463  12.226  32.847   6.464
 6228POPC   C2B78464  12.153  32.776   6.764
 6228POPC   C3B78465  12.177  32.790   7.064
 6228POPC   C4B78466  12.148  32.827   7.364
 6229POPC   NC378467  38.440   7.415   5.564
 6229POPC   PO478468  38.491   7.394   5.864
 6229POPC   GL178469  38.474   7.381   6.164
 6229POPC   GL278470  38.470   7.583   6.164
 6229POPC   C1A78471  38.441   7.379   6.464
 6229POPC   D2A78472  38.472   7.418   6.764
 6229POPC   C3A78473  38.471   7.382   7.064
 6229POPC   C4A78474  38.498   7.377   7.364
 6229POPC   C1B78475  38.505   7.646   6.464
 6229POPC   C2B78476  38.535   7.649   6.764
 6229POPC   C3B78477  38.504   7.649   7.064
 6229POPC   C4B78478  38.472   7.687   7.364
 6230POPC   NC378479  33.771  36.084   5.564
 6230POPC   PO478480  33.780  36.107   5.864
 6230POPC   GL178481  33.793  36.123   6.164
 6230POPC   GL278482  33.712  36.154   6.164
 6230POPC   C1A78483  33.816  36.146   6.464
 6230POPC   D2A78484  33.847  36.140   6.764
 6230POPC   C3A78485  33.839  36.167   7.064
 6230POPC   C4A78486  33.790  36.121   7.364
 6230POPC   C1B78487  33.595  36.177   6.464
 6230POPC   C2B78488  33.537  36.186   6.764
 6230POPC   C3B78489  33.578  36.244   7.064
 6230POPC   C4B78490  33.598  36.242   7.364
 6231POPC   NC378491   0.423  28.359   5.564
 6231POPC   PO478492   0.445  28.391   5.864
 6231POPC   GL178493   0.467  28.328   6.164
 6231POPC   GL278494   0.516  28.454   6.164
 6231POPC   C1A78495   0.415  28.332   6.464
 6231POPC   D2A78496   0.408  28.418   6.764
 6231POPC   C3A78497   0.411  28.404   7.064
 6231POPC   C4A78498   0.404  28.387   7.364
 6231POPC   C1B78499   0.613  28.560   6.464
 6231POPC   C2B78500   0.536  28.596   6.764
 6231POPC   C3B78501   0.560  28.563   7.064
 6231POPC   C4B78502   0.528  28.555   7.364
 6232POPC   NC378503  24.485  19.085   5.564
 6232POPC   PO478504  24.538  19.045   5.864
 6232POPC   GL178505  24.493  19.013   6.164
 6232POPC   GL278506  24.446  18.941   6.164
 6232POPC   C1A78507  24.533  19.035   6.464
 6232POPC   D2A78508  24.457  19.022   6.764
 6232POPC   C3A78509  24.533  19.063   7.064
 6232POPC   C4A78510  24.494  19.027   7.364
 6232POPC   C1B78511  24.338  18.922   6.464
 6232POPC   C2B78512  24.269  18.922   6.764
 6232POPC   C3B78513  24.337  18.841   7.064
 6232POPC   C4B78514  24.274  18.854   7.364
 6233POPC   NC378515  19.829  38.494   5.564
 6233POPC   PO478516  19.857  38.475   5.864
 6233POPC   GL178517  19.817  38.454   6.164
 6233POPC   GL278518  19.703  38.477   6.164
 6233POPC   C1A78519  19.878  38.498   6.464
 6233POPC   D2A78520  19.821  38.419   6.764
 6233POPC   C3A78521  19.793  38.410   7.064
 6233POPC   C4A78522  19.834  38.474   7.364
 6233POPC   C1B78523  19.591  38.525   6.464
 6233POPC   C2B78524  19.595  38.529   6.764
 6233POPC   C3B78525  19.564  38.551   7.064
 6233POPC   C4B78526  19.564  38.537   7.364
 6234POPC   NC378527  10.482  43.916   5.564
 6234POPC   PO478528  10.535  43.898   5.864
 6234POPC   GL178529  10.487  43.880   6.164
 6234POPC   GL278530  10.359  43.857   6.164
 6234POPC   C1A78531  10.563  43.846   6.464
 6234POPC   D2A78532  10.499  43.899   6.764
 6234POPC   C3A78533  10.525  43.843   7.064
 6234POPC   C4A78534  10.493  43.843   7.364
 6234POPC   C1B78535  10.260  43.907   6.464
 6234POPC   C2B78536  10.297  43.854   6.764
 6234POPC   C3B78537  10.293  43.852   7.064
 6234POPC   C4B78538  10.260  43.854   7.364
 6235POPC   NC378539   4.299   5.901   5.564
 6235POPC   PO478540   4.355   5.900   5.864
 6235POPC   GL178541   4.269   5.833   6.164
 6235POPC   GL278542   4.238   5.905   6.164
 6235POPC   C1A78543   4.319   5.914   6.464
 6235POPC   D2A78544   4.318   5.913   6.764
 6235POPC   C3A78545   4.342   5.859   7.064
 6235POPC   C4A78546   4.284   5.869   7.364
 6235POPC   C1B78547   4.026   5.831   6.464
 6235POPC   C2B78548   4.060   5.834   6.764
 6235POPC   C3B78549   4.026   5.885   7.064
 6235POPC   C4B78550   4.117   5.840   7.364
 6236POPC   NC378551  16.737  24.519   5.564
 6236POPC   PO478552  16.761  24.451   5.864
 6236POPC   GL178553  16.707  24.493   6.164
 6236POPC   GL278554  16.834  24.488   6.164
 6236POPC   C1A78555  16.752  24.476   6.464
 6236POPC   D2A78556  16.778  24.504   6.764
 6236POPC   C3A78557  16.700  24.494   7.064
 6236POPC   C4A78558  16.721  24.521   7.364
 6236POPC   C1B78559  16.987  24.419   6.464
 6236POPC   C2B78560  16.951  24.348   6.764
 6236POPC   C3B78561  16.997  24.364   7.064
 6236POPC   C4B78562  16.945  24.361   7.364
 6237POPC   NC378563  36.950  30.738   5.564
 6237POPC   PO478564  36.910  30.745   5.864
 6237POPC   GL178565  36.874  30.670   6.164
 6237POPC   GL278566  36.780  30.612   6.164
 6237POPC   C1A78567  36.939  30.691   6.464
 6237POPC   D2A78568  36.946  30.716   6.764
 6237POPC   C3A78569  36.952  30.690   7.064
 6237POPC   C4A78570  36.907  30.664   7.364
 6237POPC   C1B78571  36.684  30.644   6.464
 6237POPC   C2B78572  36.659  30.643   6.764
 6237POPC   C3B78573  36.716  30.564   7.064
 6237POPC   C4B78574  36.681  30.629   7.364
 6238POPC   NC378575  22.149  40.794   5.564
 6238POPC   PO478576  22.152  40.740   5.864
 6238POPC   GL178577  22.196  40.778   6.164
 6238POPC   GL278578  22.225  40.705   6.164
 6238POPC   C1A78579  22.205  40.774   6.464
 6238POPC   D2A78580  22.194  40.786   6.764
 6238POPC   C3A78581  22.129  40.816   7.064
 6238POPC   C4A78582  22.146  40.808   7.364
 6238POPC   C1B78583  22.383  40.622   6.464
 6238POPC   C2B78584  22.350  40.626   6.764
 6238POPC   C3B78585  22.340  40.653   7.064
 6238POPC   C4B78586  22.317  40.621   7.364
 6239POPC   NC378587  14.415  18.328   5.564
 6239POPC   PO478588  14.383  18.315   5.864
 6239POPC   GL178589  14.447  18.300   6.164
 6239POPC   GL278590  14.550  18.372   6.164
 6239POPC   C1A78591  14.356  18.248   6.464
 6239POPC   D2A78592  14.438  18.284   6.764
 6239POPC   C3A78593  14.418  18.300   7.064
 6239POPC   C4A78594  14.430  18.244   7.364
 6239POPC   C1B78595  14.624  18.338   6.464
 6239POPC   C2B78596  14.589  18.360   6.764
 6239POPC   C3B78597  14.643  18.395   7.064
 6239POPC   C4B78598  14.667  18.343   7.364
 6240POPC   NC378599  35.322  30.701   5.564
 6240POPC   PO478600  35.377  30.745   5.864
 6240POPC   GL178601  35.400  30.734   6.164
 6240POPC   GL278602  35.496  30.710   6.164
 6240POPC   C1A78603  35.341  30.703   6.464
 6240POPC   D2A78604  35.318  30.725   6.764
 6240POPC   C3A78605  35.380  30.707   7.064
 6240POPC   C4A78606  35.371  30.714   7.364
 6240POPC   C1B78607  35.562  30.797   6.464
 6240POPC   C2B78608  35.625  30.728   6.764
 6240POPC   C3B78609  35.585  30.778   7.064
 6240POPC   C4B78610  35.567  30.734   7.364
 6241POPC   NC378611   2.787   8.971   5.564
 6241POPC   PO478612   2.745   8.982   5.864
 6241POPC   GL178613   2.798   8.982   6.164
 6241POPC   GL278614   2.682   9.123   6.164
 6241POPC   C1A78615   2.775   8.976   6.464
 6241POPC   D2A78616   2.724   8.960   6.764
 6241POPC   C3A78617   2.799   8.929   7.064
 6241POPC   C4A78618   2.718   8.935   7.364
 6241POPC   C1B78619   2.657   9.208   6.464
 6241POPC   C2B78620   2.683   9.193   6.764
 6241POPC   C3B78621   2.623   9.170   7.064
 6241POPC   C4B78622   2.600   9.182   7.364
 6242POPC   NC378623   5.122  10.495   5.564
 6242POPC   PO478624   5.112  10.493   5.864
 6242POPC   GL178625   5.087  10.520   6.164
 6242POPC   GL278626   5.107  10.681   6.164
 6242POPC   C1A78627   5.143  10.523   6.464
 6242POPC   D2A78628   5.095  10.500   6.764
 6242POPC   C3A78629   5.082  10.505   7.064
 6242POPC   C4A78630   5.053  10.494   7.364
 6242POPC   C1B78631   5.154  10.793   6.464
 6242POPC   C2B78632   5.170  10.730   6.764
 6242POPC   C3B78633   5.104  10.788   7.064
 6242POPC   C4B78634   5.112  10.770   7.364
 6243POPC   NC378635   2.031   1.168   5.564
 6243POPC   PO478636   2.027   1.211   5.864
 6243POPC   GL178637   2.026   1.194   6.164
 6243POPC   GL278638   2.096   1.182   6.164
 6243POPC   C1A78639   1.961   1.254   6.464
 6243POPC   D2A78640   2.005   1.246   6.764
 6243POPC   C3A78641   1.988   1.225   7.064
 6243POPC   C4A78642   1.996   1.239   7.364
 6243POPC   C1B78643   2.207   1.093   6.464
 6243POPC   C2B78644   2.196   1.069   6.764
 6243POPC   C3B78645   2.193   1.098   7.064
 6243POPC   C4B78646   2.196   1.127   7.364
 6244POPC   NC378647  37.646   5.138   5.564
 6244POPC   PO478648  37.701   5.098   5.864
 6244POPC   GL178649  37.690   5.125   6.164
 6244POPC   GL278650  37.543   5.115   6.164
 6244POPC   C1A78651  37.724   5.087   6.464
 6244POPC   D2A78652  37.704   5.093   6.764
 6244POPC   C3A78653  37.667   5.124   7.064
 6244POPC   C4A78654  37.724   5.059   7.364
 6244POPC   C1B78655  37.453   5.095   6.464
 6244POPC   C2B78656  37.444   5.063   6.764
 6244POPC   C3B78657  37.447   5.020   7.064
 6244POPC   C4B78658  37.406   5.092   7.364
 6245POPC   NC378659  15.941  24.450   5.564
 6245POPC   PO478660  15.942  24.443   5.864
 6245POPC   GL178661  15.942  24.457   6.164
 6245POPC   GL278662  15.854  24.378   6.164
 6245POPC   C1A78663  15.991  24.450   6.464
 6245POPC   D2A78664  15.975  24.514   6.764
 6245POPC   C3A78665  15.960  24.494   7.064
 6245POPC   C4A78666  15.945  24.507   7.364
 6245POPC   C1B78667  15.777  24.290   6.464
 6245POPC   C2B78668  15.817  24.359   6.764
 6245POPC   C3B78669  15.782  24.326   7.064
 6245POPC   C4B78670  15.782  24.315   7.364
 6246W        W78671   8.235  38.888  10.437
 6247W        W78672   0.297   6.904   3.201
 6248W        W78673  26.077  36.958  11.451
 6249W        W78674  29.153   0.362  13.308
 6250W        W78675  42.982  38.354   3.862
 6251W        W78676  22.093  11.725  13.397
 6252W        W78677  26.482  41.394  11.531
 6253W        W78678   6.341  26.092  12.453
 6254W        W78679  15.263  36.409  14.341
 6255W        W78680  19.210  39.368   0.853
 6256W        W78681  18.730   3.442   2.884
 6257W        W78682  12.806  38.336  13.051
 6258W        W78683  33.485  11.819   4.613
 6259W        W78684   4.764  19.063  13.899
 6260W        W78685   5.439  27.106   1.717
 6261W        W78686  44.359  42.878  10.412
 6262W        W78687   5.750   9.222   1.771
 6263W        W78688   1.439   8.385   4.794
 6264W        W78689  15.234   5.855  10.437
 6265W        W78690   8.670  11.179   2.408
 6266W        W78691  40.052   5.827   0.351
 6267W        W78692  15.710   5.203  14.508
 6268W        W78693   3.437   7.198  11.453
 6269W        W78694  10.271   6.765  13.413
 6270W        W78695  13.155  21.247  14.455
 6271W        W78696  26.064  44.268   0.354
 6272W        W78697   5.771  34.085   2.197
 6273W        W78698  29.124  34.460  13.791
 6274W        W78699  41.964  14.168  12.878
 6275W        W78700  14.810  28.149   0.888
 6276W        W78701  31.410  40.918   0.326
 6277W        W78702  18.700  39.350   4.240
 6278W        W78703  17.557  43.317  13.374
 6279W        W78704   1.819  11.793   4.121
 6280W        W78705  10.748  18.771  14.399
 6281W        W78706   7.180   2.325  11.598
 6282W        W78707  20.163  16.301   3.243
 6283W        W78708  12.360   5.737   2.731
 6284W        W78709   0.982  25.010  13.410
 6285W        W78710  10.318  12.645   3.804
 6286W        W78711  28.952   4.437  14.423
 6287W        W78712  10.340  22.662   3.200
 6288W        W78713   0.362  42.884   5.108
 6289W        W78714  38.888  20.628  12.833
 6290W        W78715  41.479   3.751   4.761
 6291W        W78716  42.310  31.993   2.847
 6292W        W78717  10.179  35.489  12.566
 6293W        W78718  42.354   9.306   3.346
 6294W        W78719   3.365  20.178   3.383
 6295W        W78720  32.470  42.885  12.504
 6296W        W78721  41.329  12.632   3.649
 6297W        W78722   2.837  27.628   3.869
 6298W        W78723  29.537  23.026   4.264
 6299W        W78724  14.642  17.152   1.802
 6300W        W78725  44.755  18.675   1.933
 6301W        W78726  44.290  14.174   4.674
 6302W        W78727  10.674  26.556   0.246
 6303W        W78728  16.698  33.569  14.805
 6304W        W78729   7.770  13.207  13.837
 6305W        W78730  37.874  26.145  11.108
 6306W        W78731  12.128  30.038   3.773
 6307W        W78732  30.585  20.200  13.421
 6308W        W78733  24.651  28.603  12.563
 6309W        W78734   1.782  30.128   3.279
 6310W        W78735  29.019  17.604  12.430
 6311W        W78736  25.083   4.732   4.677
 6312W        W78737  23.724  37.940  14.973
 6313W        W78738  29.642  26.013   1.280
 6314W        W78739  44.881  42.028   1.794
 6315W        W78740  35.565  35.906   1.822
 6316W        W78741   1.335   9.644  10.985
 6317W        W78742  34.484  19.677  10.606
 6318W        W78743  42.849   8.695   5.277
 6319W        W78744  14.786   3.785  14.794
 6320W        W78745  38.513   9.271   3.792
 6321W        W78746  40.316  31.551   0.407
 6322W        W78747  32.952  26.679   1.403
 6323W        W78748   4.796  30.429   3.342
 6324W        W78749   3.863  27.566  13.458
 6325W        W78750   0.916  38.363   0.283
 6326W        W78751  20.620   1.731  12.978
 6327W        W78752  26.177  33.123  13.027
 6328W        W78753  31.440  21.092   1.340
 6329W        W78754  20.198  32.067   2.361
 6330W        W78755  38.870  19.055  11.471
 6331W        W78756  40.433  38.560   4.715
 6332W        W78757   5.774  12.284   3.301
 6333W        W78758   8.825  14.135   2.404
 6334W        W78759   1.852  21.260   0.450
 6335W        W78760   2.780  14.104  14.896
 6336W        W78761  27.003  17.790   3.343
 6337W        W78762  40.504   3.825   0.964
 6338W        W78763  25.174  32.459   4.634
 6339W        W78764  36.893  18.660   2.713
 6340W        W78765  36.926  32.119  11.949
 6341W        W78766  38.386  17.646  14.405
 6342W        W78767  15.298  14.097  14.788
 6343W        W78768  26.022   5.883   0.399
 6344W        W78769  41.959  31.090   0.810
 6345W        W78770  44.377  14.274   2.839
 6346W        W78771  22.102  15.768   2.302
 6347W        W78772  36.492  33.125  10.539
 6348W        W78773  38.521  32.097   2.318
 6349W        W78774   4.839  14.734   1.231
 6350W        W78775  35.381  20.559   3.748
 6351W        W78776   3.323  22.617  11.960
 6352W        W78777  42.927   4.333   1.883
 6353W        W78778  28.670   5.889   1.753
 6354W        W78779  24.708   8.363   2.678
 6355W        W78780   7.182  29.986   1.769
 6356W        W78781  40.994  43.399  14.384
 6357W        W78782   6.717  36.355   0.740
 6358W        W78783  30.977  37.956  14.440
 6359W        W78784  23.568  34.552  10.475
 6360W        W78785   8.391  12.817   3.741
 6361W        W78786  21.162   4.722   3.691
 6362W        W78787  33.083  21.115  12.375
 6363W        W78788   3.417  37.352   4.664
 6364W        W78789  36.847   0.250  13.843
 6365W        W78790  16.793   4.769   2.274
 6366W        W78791  41.445  42.969   3.185
 6367W        W78792  10.181  14.777  14.806
 6368W        W78793  41.390  23.538  11.009
 6369W        W78794  19.134  22.136  12.870
 6370W        W78795   9.270  24.109   1.426
 6371W        W78796   8.896   3.728   3.830
 6372W        W78797  23.656  21.203  13.353
 6373W        W78798  32.122  16.729  11.565
 6374W        W78799  43.890  22.531   0.729
 6375W        W78800   9.715  43.977  12.827
 6376W        W78801  27.524  22.675  13.380
 6377W        W78802   2.359  40.377  14.301
 6378W        W78803  27.942  19.062   0.319
 6379W        W78804   7.814   6.772   3.328
 6380W        W78805   8.853  34.008  11.968
 6381W        W78806  21.109  18.614   4.237
 6382W        W78807   1.859  32.593  10.479
 6383W        W78808  31.947  31.145   3.237
 6384W        W78809  23.231  17.146   3.226
 6385W        W78810  10.728  41.891  12.452
 6386W        W78811  43.922  23.224   2.245
 6387W        W78812   7.853   8.240  10.074
 6388W        W78813  40.035  26.635  14.919
 6389W        W78814  21.236  32.457   5.141
 6390W        W78815  12.334  37.902  14.504
 6391W        W78816   8.717  35.518   5.806
 6392W        W78817  38.537  15.635  11.515
 6393W        W78818  29.050  13.760  13.801
 6394W        W78819  40.325  40.044  11.055
 6395W        W78820   4.892  28.521  13.807
 6396W        W78821  14.752  24.657  10.127
 6397W        W78822  25.117  14.302  13.351
 6398W        W78823  41.532   7.272   4.775
 6399W        W78824  21.024  27.558   2.295
 6400W        W78825  20.111   3.876  13.933
 6401W        W78826  27.594  23.025   1.765
 6402W        W78827  44.289  21.228  14.984
 6403W        W78828  40.935  29.461  14.008
 6404W        W78829  14.658  21.574  11.531
 6405W        W78830  28.526   0.844   0.289
 6406W        W78831  37.385   3.733  12.074
 6407W        W78832  43.921  23.130  13.963
 6408W        W78833   6.684  30.101   4.813
 6409W        W78834  17.303  43.272   1.697
 6410W        W78835  33.464  38.838   4.330
 6411W        W78836   4.333  15.677  11.054
 6412W        W78837   7.389  43.926  11.475
 6413W        W78838  15.145  41.042  12.949
 6414W        W78839  41.536   2.782   0.788
 6415W        W78840  38.867  26.062  13.991
 6416W        W78841  27.094  11.138  13.847
 6417W        W78842  37.936   0.929  14.802
 6418W        W78843  10.365  27.494   0.920
 6419W        W78844  20.137  17.577  11.526
 6420W        W78845   9.644   3.248  10.633
 6421W        W78846  40.396  35.565  14.377
 6422W        W78847   9.702  37.462   2.329
 6423W        W78848  25.685  14.110   4.338
 6424W        W78849   7.268  16.807   0.244
 6425W        W78850  27.053  31.954   4.641
 6426W        W78851   4.728  38.839   1.271
 6427W        W78852  34.886  16.700   2.879
 6428W        W78853  33.590  25.660  11.007
 6429W        W78854  38.440  15.745   1.408
 6430W        W78855  14.813  14.180  14.841
 6431W        W78856  21.256  19.154   3.358
 6432W        W78857  42.984  24.046  11.516
 6433W        W78858  42.013  32.079   1.377
 6434W        W78859  42.990  37.336  14.283
 6435W        W78860   4.219  15.579  10.149
 6436W        W78861  21.161  36.368  13.948
 6437W        W78862  20.683   8.833  12.023
 6438W        W78863  21.145  24.974   1.779
 6439W        W78864  32.413   7.270  11.380
 6440W        W78865  10.780  29.169   1.818
 6441W        W78866  32.905  34.443  13.822
 6442W        W78867  11.741  29.938   0.421
 6443W        W78868   8.894  34.966   1.845
 6444W        W78869  28.078  39.548   5.243
 6445W        W78870  11.335  16.189   4.789
 6446W        W78871  31.634   8.367  12.897
 6447W        W78872  14.151   9.741   0.869
 6448W        W78873  20.108  41.977   1.813
 6449W        W78874  28.074  30.563  12.934
 6450W        W78875   9.783   3.322  11.995
 6451W        W78876  26.991  43.509   1.300
 6452W        W78877   1.284  41.927  12.445
 6453W        W78878  44.276  26.504   5.274
 6454W        W78879   9.645   3.360   1.222
 6455W        W78880   0.473  34.034  13.841
 6456W        W78881  43.849  30.911   3.257
 6457W        W78882   7.317  21.547   3.230
 6458W        W78883  16.681   1.819   1.914
 6459W        W78884  20.111  23.148  14.801
 6460W        W78885   8.839   9.393   0.741
 6461W        W78886  25.653  36.571  14.377
 6462W        W78887  33.461  33.447   2.674
 6463W        W78888  23.002  10.817  13.438
 6464W        W78889  20.680  25.687  14.486
 6465W        W78890  34.881  37.371  10.627
 6466W        W78891  40.535  25.512   3.340
 6467W        W78892   5.193  13.606   2.253
 6468W        W78893  43.278  26.091   4.702
 6469W        W78894  22.721  40.005  12.914
 6470W        W78895   4.772  14.333   2.709
 6471W        W78896  29.103  19.638  12.930
 6472W        W78897  25.594  11.228   2.398
 6473W        W78898  30.070   5.755  11.409
 6474W        W78899  35.957   2.929  13.808
 6475W        W78900  16.670  24.983  14.808
 6476W        W78901  25.470   6.206   1.872
 6477W        W78902   0.272   6.897  14.758
 6478W        W78903  26.578  34.484  13.977
 6479W        W78904  27.167  37.965   4.174
 6480W        W78905  12.688  21.058   3.281
 6481W        W78906  29.165  19.055  11.554
 6482W        W78907  22.997  17.776   3.354
 6483W        W78908   6.339  32.521  14.323
 6484W        W78909  24.584  43.922   4.217
 6485W        W78910  42.372  36.468  13.867
 6486W        W78911  29.149   0.347  11.418
 6487W        W78912  18.587  33.529  12.917
 6488W        W78913  18.723  31.961   9.543
 6489W        W78914  34.470  27.092   0.358
 6490W        W78915   0.783  16.585   0.443
 6491W        W78916  37.363  43.383  13.325
 6492W        W78917  37.456  30.554  14.390
 6493W        W78918  29.948  44.327  12.425
 6494W        W78919  32.971  25.036  14.329
 6495W        W78920  44.376  26.136   2.317
 6496W        W78921   2.772   0.399  12.573
 6497W        W78922  20.104  12.680   9.933
 6498W        W78923  41.471   2.912  14.344
 6499W        W78924   6.878  24.017  12.055
 6500W        W78925  43.500  10.646   3.761
 6501W        W78926  17.589  34.589   2.416
 6502W        W78927  17.725  36.930   2.850
 6503W        W78928  34.578  40.374   1.356
 6504W        W78929  17.651   7.667   3.634
 6505W        W78930  43.832  23.677  11.029
 6506W        W78931  22.176  43.384  11.443
 6507W        W78932  42.833  18.687   1.760
 6508W        W78933  38.961  11.840   2.193
 6509W        W78934  14.094  17.120  11.072
 6510W        W78935  43.342  10.664  12.931
 6511W        W78936   5.722   5.887   1.825
 6512W        W78937  42.370  24.538  10.606
 6513W        W78938  27.563  16.183  13.466
 6514W        W78939   1.952  39.531   3.731
 6515W        W78940  11.340   8.772   4.668
 6516W        W78941  36.892  22.088   0.964
 6517W        W78942  17.147   9.735   4.647
 6518W        W78943  16.220  38.374  11.046
 6519W        W78944  21.098  41.484  10.045
 6520W        W78945  12.752  42.899  13.368
 6521W        W78946  33.965  13.774   3.290
 6522W        W78947   7.831  32.970   1.422
 6523W        W78948  40.417  16.760   1.758
 6524W        W78949  13.319  40.037  13.847
 6525W        W78950   8.698  24.615   2.186
 6526W        W78951  39.979  43.371   3.350
 6527W        W78952  38.018  25.663   0.309
 6528W        W78953   7.359  27.991   4.233
 6529W        W78954  31.095  11.143   2.718
 6530W        W78955  12.727   4.731   2.692
 6531W        W78956  43.396  20.142  14.369
 6532W        W78957  39.386  31.007   0.959
 6533W        W78958  37.949  43.462  14.508
 6534W        W78959  13.829  15.247   3.266
 6535W        W78960  28.045   8.899   4.803
 6536W        W78961  15.741  15.755   4.239
 6537W        W78962  35.415   4.373  13.810
 6538W        W78963   3.899  39.557   2.275
 6539W        W78964  32.949  22.629  13.878
 6540W        W78965  19.568  11.334  11.511
 6541W        W78966  17.562  27.546  10.614
 6542W        W78967  25.705  34.997   0.762
 6543W        W78968   4.390  16.749  13.484
 6544W        W78969  11.275  21.066   3.181
 6545W        W78970   1.319  36.474  13.997
 6546W        W78971  13.625  43.468  10.626
 6547W        W78972   7.861  44.374   0.402
 6548W        W78973  35.934  31.468  14.769
 6549W        W78974  20.662  41.896   2.384
 6550W        W78975  40.826   4.937  14.891
 6551W        W78976  26.160  36.398  13.317
 6552W        W78977  22.547  36.919   4.331
 6553W        W78978   2.315  12.849  11.945
 6554W        W78979  24.628  20.638   0.353
 6555W        W78980  10.861   9.780  12.531
 6556W        W78981   7.179  34.928   4.224
 6557W        W78982   2.772  22.740   2.786
 6558W        W78983  44.464  12.790   1.432
 6559W        W78984  41.862  42.878  14.301
 6560W        W78985  15.590  44.984  11.967
 6561W        W78986  44.960   9.759  12.914
 6562W        W78987   5.749   2.246   4.338
 6563W        W78988  18.239  29.545   3.648
 6564W        W78989  34.553   1.446   4.749
 6565W        W78990  44.414  39.928   1.914
 6566W        W78991   6.793  26.083   0.453
 6567W        W78992  11.668  35.946   4.190
 6568W        W78993   2.947   9.853   2.418
 6569W        W78994   8.249  39.404  10.561
 6570W        W78995   6.216   3.860   2.681
 6571W        W78996   0.476  41.497  14.302
 6572W        W78997  25.605   6.279   2.214
 6573W        W78998   4.913  12.790  10.546
 6574W        W78999   1.759  18.064  11.487
 6575W        W79000  19.661  36.556  12.508
 6576W        W79001   0.812  17.792  14.965
 6577W        W79002  37.377  13.651   3.699
 6578W        W79003  33.903  22.016   4.287
 6579W        W79004  11.309  16.748   0.415
 6580W        W79005  28.118  11.260   2.218
 6581W        W79006  23.702   4.421  10.641
 6582W        W79007  16.097  28.945   3.711
 6583W        W79008  29.597  18.166   5.134
 6584W        W79009  23.134  28.143   3.862
 6585W        W79010   8.255  15.249  11.438
 6586W        W79011  28.488  28.624   0.904
 6587W        W79012   7.396  36.991   2.192
 6588W        W79013  20.617  35.442  12.052
 6589W        W79014  10.299   5.234  13.377
 6590W        W79015  37.413   8.316   0.927
 6591W        W79016  40.521  15.157   4.262
 6592W        W79017  43.437  16.745  14.995
 6593W        W79018  42.814  28.134   0.289
 6594W        W79019   0.406  26.514  12.515
 6595W        W79020  21.731  22.662  12.359
 6596W        W79021  20.242  30.132  11.438
 6597W        W79022  42.937  19.177  10.467
 6598W        W79023  23.082  28.627   2.301
 6599W        W79024   0.371  13.688   1.322
 6600W        W79025  28.995  23.623   4.139
 6601W        W79026  11.215  16.217  11.993
 6602W        W79027  37.422  37.979  14.024
 6603W        W79028  27.965  21.248  12.407
 6604W        W79029   9.352   4.261   1.780
 6605W        W79030  38.944  14.337  13.048
 6606W        W79031  19.276  10.656   0.905
 6607W        W79032  19.146  23.613  14.462
 6608W        W79033   7.185  12.645  13.873
 6609W        W79034  44.378  43.765  13.802
 6610W        W79035  20.557   6.240  12.853
 6611W        W79036  27.546   5.203   2.809
 6612W        W79037  11.717   9.275  14.931
 6613W        W79038  33.014  11.225  11.052
 6614W        W79039  35.978  10.810  13.494
 6615W        W79040  41.515  31.521   4.670
 6616W        W79041  32.113  32.135  12.865
 6617W        W79042  42.465  35.508  12.448
 6618W        W79043  44.936  21.590   2.841
 6619W        W79044  35.000  12.611  12.451
 6620W        W79045  14.798  37.886  12.905
 6621W        W79046  29.977  32.999  11.568
 6622W        W79047   7.749  11.295  11.512
 6623W        W79048   1.827  18.086  11.891
 6624W        W79049  39.002  12.615   4.115
 6625W        W79050  42.287  32.416  12.860
 6626W        W79051   0.343  41.423   2.362
 6627W        W79052  24.057  21.570   4.201
 6628W        W79053   3.417  26.203  10.986
 6629W        W79054   0.342  18.654  14.002
 6630W        W79055   5.899  15.257   0.268
 6631W        W79056  27.130  31.625  13.798
 6632W        W79057  28.997  35.059   1.334
 6633W        W79058  34.932  21.244   1.241
 6634W        W79059  33.485  20.750   0.356
 6635W        W79060   3.400  20.092  11.478
 6636W        W79061  30.997  14.263  13.036
 6637W        W79062  10.682  21.259   4.715
 6638W        W79063   0.967   5.324   4.329
 6639W        W79064  37.375  37.582   4.768
 6640W        W79065   2.798  16.698  14.871
 6641W        W79066  18.753  14.719   1.800
 6642W        W79067   2.845  23.233  14.807
 6643W        W79068  16.253  30.937   3.843
 6644W        W79069   9.764  31.033   1.900
 6645W        W79070  15.680   4.393   3.759
 6646W        W79071  18.204   9.381   4.195
 6647W        W79072  31.640   9.175  13.471
 6648W        W79073  14.238  31.918   4.170
 6649W        W79074  10.352   6.777   0.890
 6650W        W79075  38.971  12.819  11.969
 6651W        W79076  12.638  33.541  13.854
 6652W        W79077  27.613  18.056  14.942
 6653W        W79078   5.404  21.694   1.815
 6654W        W79079  35.076  25.097   0.465
 6655W        W79080  13.614   1.732  11.376
 6656W        W79081  43.417  33.389   4.155
 6657W        W79082   6.209  35.919   1.913
 6658W        W79083  43.328  18.141   2.687
 6659W        W79084  12.724  26.460  10.948
 6660W        W79085  13.152  21.203  11.962
 6661W        W79086   0.803   5.382  14.344
 6662W        W79087  15.615  13.834  12.540
 6663W        W79088  13.288  21.574   3.671
 6664W        W79089  42.853  12.629  14.859
 6665W        W79090  30.148  38.384   0.415
 6666W        W79091  41.839   8.300  13.812
 6667W        W79092  32.977  10.195   3.326
 6668W        W79093  42.374  30.920  11.870
 6669W        W79094   3.456  36.565   0.323
 6670W        W79095  39.336  35.091  12.925
 6671W        W79096  27.605  34.455   1.377
 6672W        W79097   3.906  18.148   5.149
 6673W        W79098   8.283  25.147  14.464
 6674W        W79099  32.482   9.780  11.582
 6675W        W79100   9.244  39.059  12.995
 6676W        W79101  11.862  39.468  12.041
 6677W        W79102  43.371  35.467   1.423
 6678W        W79103   4.419  18.263   2.722
 6679W        W79104   4.712  43.310   3.212
 6680W        W79105  15.147  40.050   3.239
 6681W        W79106  38.865  21.232   4.296
 6682W        W79107  17.613  23.110   1.923
 6683W        W79108  34.080   9.655   0.291
 6684W        W79109  16.085  41.018   1.342
 6685W        W79110  18.567  11.766  10.586
 6686W        W79111  29.107  18.081   4.793
 6687W        W79112   2.962  29.082  10.530
 6688W        W79113  28.659  18.272   0.781
 6689W        W79114  14.121  16.638   4.766
 6690W        W79115  44.008  43.345   2.272
 6691W        W79116   2.787  41.011  14.277
 6692W        W79117  31.049  13.317  13.325
 6693W        W79118  30.127  43.924   4.822
 6694W        W79119  41.895   8.348   4.663
 6695W        W79120  26.680   3.253  10.404
 6696W        W79121  14.162  20.589   4.645
 6697W        W79122  14.777   5.839   4.161
 6698W        W79123  27.524  42.298   1.895
 6699W        W79124  22.034  13.751  12.951
 6700W        W79125   9.665  43.935   4.608
 6701W        W79126  33.569  16.767  12.567
 6702W        W79127  38.343  28.577   0.777
 6703W        W79128   0.802  12.222   0.920
 6704W        W79129  26.182  15.320  10.432
 6705W        W79130  42.888   9.743   0.255
 6706W        W79131  32.611  22.713  10.134
 6707W        W79132  14.820  43.930  11.080
 6708W        W79133   8.357  37.883   0.905
 6709W        W79134   7.828  12.818   1.337
 6710W        W79135  41.521  16.583   4.808
 6711W        W79136   3.282  24.183  11.376
 6712W        W79137  33.617  13.604   5.295
 6713W        W79138  38.058  40.927  14.485
 6714W        W79139   3.779  44.974   0.934
 6715W        W79140  12.731   9.852   2.793
 6716W        W79141  26.082  14.675   3.630
 6717W        W79142  22.136   8.793  13.372
 6718W        W79143  15.644  11.696  14.817
 6719W        W79144  39.342  17.271  14.497
 6720W        W79145  14.226  13.766   3.335
 6721W        W79146   0.308  44.467   3.635
 6722W        W79147  27.510  13.313   1.920
 6723W        W79148  10.278  31.934   3.857
 6724W        W79149   2.432   7.891  13.397
 6725W        W79150  40.345   0.978   1.373
 6726W        W79151  34.513  43.890  14.788
 6727W        W79152  25.610  35.461  12.533
 6728W        W79153  43.829  22.680   1.439
 6729W        W79154  35.399  17.616   4.258
 6730W        W79155  43.851  20.148   1.374
 6731W        W79156  15.162  37.435   4.629
 6732W        W79157  20.050  17.209   5.155
 6733W        W79158   5.724  40.881   4.343
 6734W        W79159  27.137  32.407   2.676
 6735W        W79160  21.709   7.729  14.309
 6736W        W79161  32.941  32.947   0.288
 6737W        W79162  36.431   1.855   4.325
 6738W        W79163  28.103  37.438   0.261
 6739W        W79164  17.152   6.680   1.778
 6740W        W79165  18.218  14.708  11.512
 6741W        W79166  32.615  24.603  13.414
 6742W        W79167  12.260  26.604  12.541
 6743W        W79168  44.431  30.026  13.950
 6744W        W79169   8.251  38.401  12.880
 6745W        W79170  20.074  33.029  14.462
 6746W        W79171  14.620   3.925   3.781
 6747W        W79172  12.158   0.409  13.922
 6748W        W79173  43.972  42.373   0.789
 6749W        W79174  16.166  38.564   4.673
 6750W        W79175  14.801  27.569  10.542
 6751W        W79176  21.620  36.590   2.350
 6752W        W79177  41.317  17.151  14.993
 6753W        W79178   1.278  40.474   0.330
 6754W        W79179  36.369  18.606  10.626
 6755W        W79180  14.792  22.129   3.214
 6756W        W79181  15.232  43.417  14.363
 6757W        W79182   9.323  17.673  14.820
 6758W        W79183   7.837  41.878   1.696
 6759W        W79184  16.117   8.695   3.346
 6760W        W79185  14.254  29.646  13.453
 6761W        W79186  30.501  42.305  11.428
 6762W        W79187   4.231  21.621  12.860
 6763W        W79188  43.321   3.894  10.485
 6764W        W79189  26.601  20.238   2.774
 6765W        W79190   1.348  35.427   1.312
 6766W        W79191  14.669  15.294  11.085
 6767W        W79192  22.557  39.317  12.389
 6768W        W79193  42.001  21.172   4.153
 6769W        W79194  29.665  18.679   0.357
 6770W        W79195  21.581  17.161   0.768
 6771W        W79196   2.356  40.360   1.750
 6772W        W79197  16.255  29.061   1.885
 6773W        W79198  19.580  38.841   3.679
 6774W        W79199  18.162  43.946  14.388
 6775W        W79200   8.863   7.755  14.976
 6776W        W79201  22.627  35.856   3.176
 6777W        W79202  40.018  30.997   1.277
 6778W        W79203  39.928  36.089  14.474
 6779W        W79204  28.599   4.937  11.501
 6780W        W79205  34.401  44.374  13.942
 6781W        W79206  36.864  43.315   3.179
 6782W        W79207  40.012   2.919   1.778
 6783W        W79208   8.691   9.337  14.977
 6784W        W79209  24.007  40.318   1.716
 6785W        W79210   2.954  12.713   0.382
 6786W        W79211  29.115  13.153   3.645
 6787W        W79212  17.697   6.848   0.882
 6788W        W79213  22.073  16.573   4.196
 6789W        W79214   8.319   8.276  10.520
 6790W        W79215  11.359  23.097   0.940
 6791W        W79216  40.940  24.605   0.439
 6792W        W79217  25.593  42.799  12.572
 6793W        W79218   3.391  22.017  10.951
 6794W        W79219  20.075  31.436  10.997
 6795W        W79220  25.527   2.453  13.324
 6796W        W79221   1.303  15.613   1.369
 6797W        W79222   0.876  29.983   4.326
 6798W        W79223  19.601   6.851   3.194
 6799W        W79224  44.399  39.444   1.934
 6800W        W79225   0.769  37.376   4.295
 6801W        W79226  24.696  12.738   2.338
 6802W        W79227  26.557  15.154  12.941
 6803W        W79228   4.450  12.356  14.473
 6804W        W79229  36.987  41.482   1.730
 6805W        W79230  20.146  42.516  10.409
 6806W        W79231  19.173   8.691   3.849
 6807W        W79232  15.637  34.034   0.754
 6808W        W79233  17.794  34.890   0.308
 6809W        W79234   4.912  35.074  12.385
 6810W        W79235  15.274  34.005  12.888
 6811W        W79236   0.809  35.434   2.229
 6812W        W79237  44.294  20.241   1.807
 6813W        W79238  11.334  23.628  13.931
 6814W        W79239  25.687   5.413   4.343
 6815W        W79240  21.248  42.834  10.601
 6816W        W79241  41.791  32.545   2.263
 6817W        W79242  42.971  33.069  12.511
 6818W        W79243  29.568  20.106  12.902
 6819W        W79244  17.594  11.348   1.294
 6820W        W79245  41.408   3.766  14.758
 6821W        W79246   9.210  26.551   4.286
 6822W        W79247  37.431  11.372   2.208
 6823W        W79248  39.346  11.230  11.400
 6824W        W79249  17.652  34.569  14.996
 6825W        W79250  32.547  16.690   2.894
 6826W        W79251   4.930  39.972   1.710
 6827W        W79252  44.928  30.584  14.818
 6828W        W79253  39.050  43.924  12.566
 6829W        W79254  13.614  37.002  13.961
 6830W        W79255  41.312  17.756   1.840
 6831W        W79256  16.573  41.335   4.197
 6832W        W79257   7.219   8.371  14.322
 6833W        W79258  35.557   4.789  13.407
 6834W        W79259   5.843   4.941   1.795
 6835W        W79260  19.739   5.780   1.871
 6836W        W79261  23.074  16.755   1.387
 6837W        W79262  34.994  30.916   3.747
 6838W        W79263  33.385   9.741   3.762
 6839W        W79264  27.125   9.251  11.561
 6840W        W79265   1.777  12.808  14.408
 6841W        W79266  13.283  28.539   1.361
 6842W        W79267   4.438  16.109   4.300
 6843W        W79268   3.262  29.117   1.928
 6844W        W79269  22.517  12.665   2.755
 6845W        W79270   8.348  28.443   4.755
 6846W        W79271  32.446   8.655   5.302
 6847W        W79272  38.830  14.608   2.322
 6848W        W79273  11.225  26.966  14.863
 6849W        W79274  21.208  41.457   5.181
 6850W        W79275  39.431  27.018   3.796
 6851W        W79276   9.329  15.252   3.635
 6852W        W79277  30.484  13.312  12.062
 6853W        W79278  31.916  43.369   3.719
 6854W        W79279  26.144  44.869   1.745
 6855W        W79280  19.147  19.648  13.927
 6856W        W79281   9.172   5.301   4.144
 6857W        W79282  14.672  30.649   4.790
 6858W        W79283  23.507  33.899  11.974
 6859W        W79284  40.445  34.995  14.768
 6860W        W79285  20.735  16.186   4.747
 6861W        W79286  32.899   5.726  13.046
 6862W        W79287  14.182  37.859  13.936
 6863W        W79288  21.182   6.319   4.804
 6864W        W79289  28.505  21.540   0.730
 6865W        W79290   5.854  42.340   2.392
 6866W        W79291  34.923  36.029   2.806
 6867W        W79292  10.811  35.492   1.859
 6868W        W79293  22.622  21.141  14.917
 6869W        W79294  43.424  31.009   1.896
 6870W        W79295  26.978  22.611   2.197
 6871W        W79296  33.127  25.076  10.633
 6872W        W79297   0.952  42.446   2.725
 6873W        W79298  24.560   8.831   0.962
 6874W        W79299  29.453  23.091  12.013
 6875W        W79300  39.960   3.242   0.908
 6876W        W79301  40.866  31.631   4.637
 6877W        W79302  25.673  27.119  13.407
 6878W        W79303   3.411  39.019  11.573
 6879W        W79304  22.237  22.640  12.979
 6880W        W79305  10.849  15.151   3.699
 6881W        W79306   7.336  34.863  11.378
 6882W        W79307  24.551  38.997   1.446
 6883W        W79308   4.944   2.406  10.437
 6884W        W79309  41.382  14.785   2.670
 6885W        W79310   2.316  33.521  11.015
 6886W        W79311  39.043  38.399   9.943
 6887W        W79312   1.291  30.574   4.192
 6888W        W79313  40.927  21.147  13.504
 6889W        W79314  15.121  25.664   2.383
 6890W        W79315  32.584  34.063   0.455
 6891W        W79316  18.691   3.362   2.205
 6892W        W79317  30.159  12.826  13.467
 6893W        W79318  19.065  24.138   1.862
 6894W        W79319  21.223   3.411   5.165
 6895W        W79320   0.455  11.703  11.551
 6896W        W79321  38.915  15.236   3.865
 6897W        W79322  17.670  39.545   2.276
 6898W        W79323   2.907  30.128  14.811
 6899W        W79324  27.094  32.083   4.218
 6900W        W79325  27.562  38.496  14.318
 6901W        W79326  15.291  40.543  13.347
 6902W        W79327  19.604   3.282  10.962
 6903W        W79328   1.242   2.744  13.384
 6904W        W79329  35.001  20.715  11.896
 6905W        W79330  13.303  14.761  14.416
 6906W        W79331  36.423  12.149  12.483
 6907W        W79332  16.191  29.613   3.658
 6908W        W79333  10.856  19.730   4.697
 6909W        W79334  23.640   2.427   4.225
 6910W        W79335  39.847  26.655   3.308
 6911W        W79336   6.303  37.045  10.448
 6912W        W79337  37.463  13.111   1.883
 6913W        W79338  34.119  17.709  14.929
 6914W        W79339  27.125   9.334  13.366
 6915W        W79340  40.498  37.058   3.381
 6916W        W79341  39.413   2.355   4.618
 6917W        W79342   2.458  20.092   1.857
 6918W        W79343  31.425  28.149  14.453
 6919W        W79344   4.238  33.484   4.692
 6920W        W79345  40.505  29.160  11.071
 6921W        W79346   7.215   6.789   4.834
 6922W        W79347   7.812  30.008   3.296
 6923W        W79348  30.928  30.643  14.370
 6924W        W79349  18.650  22.997   3.312
 6925W        W79350   1.380  23.608   4.271
 6926W        W79351  43.432   7.665  13.354
 6927W        W79352  20.039  29.953  11.943
 6928W        W79353  22.081   1.965   3.810
 6929W        W79354  20.562  40.955   0.862
 6930W        W79355  16.714  40.988   2.764
 6931W        W79356  17.767  19.220  13.371
 6932W        W79357  10.710  17.086   3.757
 6933W        W79358  31.078  16.659   0.871
 6934W        W79359   8.265  15.117   1.318
 6935W        W79360  38.873  32.073   3.364
 6936W        W79361   8.794  40.027   0.334
 6937W        W79362  22.237  38.360  14.923
 6938W        W79363  11.648   3.439   3.802
 6939W        W79364   7.865  37.062   3.850
 6940W        W79365   2.809  34.921  11.579
 6941W        W79366   2.741  42.463   0.250
 6942W        W79367  15.329   6.867   1.733
 6943W        W79368   5.764  19.595  11.085
 6944W        W79369  28.610  33.130  10.571
 6945W        W79370  14.747   8.376  10.404
 6946W        W79371  40.880  31.417   0.803
 6947W        W79372  22.249  27.483  13.913
 6948W        W79373  25.025  14.194   1.247
 6949W        W79374   8.783  43.865  10.450
 6950W        W79375  36.053   0.777  10.620
 6951W        W79376  28.108  30.914  10.635
 6952W        W79377  17.714  13.676  11.896
 6953W        W79378  16.721  44.444  10.435
 6954W        W79379  16.076   5.912  10.536
 6955W        W79380  41.877  16.717   0.818
 6956W        W79381  23.630  23.686  10.945
 6957W        W79382  10.642  12.327  10.957
 6958W        W79383  25.710  41.293  10.583
 6959W        W79384  35.908  17.557   3.776
 6960W        W79385  14.159  19.091  14.840
 6961W        W79386  20.249  42.961   4.207
 6962W        W79387  18.598   9.391   4.297
 6963W        W79388  20.038  38.529  12.368
 6964W        W79389  21.088  40.049   4.156
 6965W        W79390   8.379   1.908  11.859
 6966W        W79391  19.741  17.306   1.255
 6967W        W79392  20.654  41.456   1.870
 6968W        W79393  19.184  24.724   2.892
 6969W        W79394  31.150  23.502  11.948
 6970W        W79395  38.955  22.087   0.320
 6971W        W79396   5.311  39.903  10.992
 6972W        W79397  36.027  17.675   2.819
 6973W        W79398  18.649   7.798  13.875
 6974W        W79399  25.007  26.202  12.377
 6975W        W79400  20.157   2.418  13.363
 6976W        W79401  18.663   6.850   2.703
 6977W        W79402   9.368  14.215   1.421
 6978W        W79403  37.851   3.335  13.341
 6979W        W79404   9.663   7.395  14.960
 6980W        W79405  13.188  37.400   1.876
 6981W        W79406  34.055  12.799  14.343
 6982W        W79407   1.454   7.277  13.922
 6983W        W79408   2.793  33.543   2.888
 6984W        W79409  25.512  31.024  13.395
 6985W        W79410  40.029  44.472  11.099
 6986W        W79411  24.682  11.722  12.036
 6987W        W79412  23.679   0.420   2.723
 6988W        W79413  35.959  11.241   3.698
 6989W        W79414  14.678   5.726   2.792
 6990W        W79415   6.894  25.675   4.193
 6991W        W79416  15.659  38.926   0.850
 6992W        W79417  24.142  30.656   1.394
 6993W        W79418  33.990  23.136  13.839
 6994W        W79419   0.400  42.376   3.180
 6995W        W79420  14.208  25.082  14.466
 6996W        W79421   4.211  34.397   3.299
 6997W        W79422  41.964  35.496   2.765
 6998W        W79423  34.577   7.868   3.640
 6999W        W79424   2.292  42.874  14.289
 7000W        W79425  25.652  38.489   2.297
 7001W        W79426  39.376  42.006   3.234
 7002W        W79427   6.682  12.681   3.700
 7003W        W79428  21.661  22.535   2.326
 7004W        W79429  29.123   9.153   0.267
 7005W        W79430  43.769   0.795  14.974
 7006W        W79431  27.055  20.611   4.275
 7007W        W79432   0.910  13.675  12.853
 7008W        W79433   1.735  38.920   1.924
 7009W        W79434  42.995   0.412   1.874
 7010W        W79435  44.960  10.748  13.329
 7011W        W79436  30.521  14.824   5.233
 7012W        W79437  22.589  21.624   0.417
 7013W        W79438  37.997  14.243   3.790
 7014W        W79439  15.274  44.362   2.194
 7015W        W79440  30.068  14.742  11.493
 7016W        W79441  23.590  14.636  11.402
 7017W        W79442   5.758  37.917   2.346
 7018W        W79443  16.244  24.195   0.776
 7019W        W79444  13.126   7.310  14.334
 7020W        W79445  33.400   8.898   4.636
 7021W        W79446  43.446  27.123   1.843
 7022W        W79447  36.371  12.745   4.304
 7023W        W79448  40.444  20.633  12.920
 7024W        W79449  40.340   9.846  12.357
 7025W        W79450  31.058  12.127  11.439
 7026W        W79451  21.660  40.923   2.680
 7027W        W79452  40.983  39.360  12.970
 7028W        W79453  31.505  40.945  14.875
 7029W        W79454  27.612  37.862  14.460
 7030W        W79455  33.382  30.570   0.863
 7031W        W79456  32.984  13.206   3.229
 7032W        W79457  44.369  26.165  14.421
 7033W        W79458  12.650   6.193   3.367
 7034W        W79459   1.748  24.978   5.139
 7035W        W79460  36.589   6.749  13.955
 7036W        W79461  21.204   4.242  10.957
 7037W        W79462   2.812  40.799  12.945
 7038W        W79463  14.194  30.074   3.740
 7039W        W79464  42.779  16.601   1.262
 7040W        W79465  34.441  37.843   4.187
 7041W        W79466  40.902   4.285   0.914
 7042W        W79467   4.276  33.415  14.459
 7043W        W79468   1.280   1.921   2.725
 7044W        W79469   1.373  10.289  13.424
 7045W        W79470  30.061   3.749   4.311
 7046W        W79471  44.393   4.278   1.344
 7047W        W79472  37.831   4.233   2.340
 7048W        W79473  42.802  29.601  12.939
 7049W        W79474   5.277   7.264   0.815
 7050W        W79475  21.096  34.080   3.338
 7051W        W79476  10.382   5.362   1.736
 7052W        W79477  43.005  12.723  12.478
 7053W        W79478  16.797  10.795   4.282
 7054W        W79479  26.552  10.723   3.239
 7055W        W79480  34.951   1.314   3.328
 7056W        W79481  35.943  27.501   3.637
 7057W        W79482  40.800  27.600   1.766
 7058W        W79483  11.170  36.458   2.213
 7059W        W79484   0.980   4.879   2.858
 7060W        W79485  30.027  41.340   4.269
 7061W        W79486  13.656  10.248  11.968
 7062W        W79487   7.894  22.517  11.907
 7063W        W79488  13.169  10.363   2.755
 7064W        W79489   6.835  25.488   3.645
 7065W        W79490  41.978  17.643   3.806
 7066W        W79491  16.647   1.814  13.413
 7067W        W79492  20.745   7.356   1.807
 7068W        W79493   7.373   9.335  13.456
 7069W        W79494   8.258  11.659   1.234
 7070W        W79495  38.841  39.518  14.930
 7071W        W79496   6.196  10.212  13.949
 7072W        W79497  10.182  21.019   1.286
 7073W        W79498  18.551  21.055   0.818
 7074W        W79499   2.830   3.884   4.271
 7075W        W79500  11.293   3.268   0.435
 7076W        W79501   8.189  30.950  13.870
 7077W        W79502   5.302  29.045   3.661
 7078W        W79503  28.668  16.258  14.983
 7079W        W79504   3.374  27.002   2.889
 7080W        W79505   3.268  37.375   0.778
 7081W        W79506  27.583  39.833   4.697
 7082W        W79507   9.306   2.332   3.662
 7083W        W79508  29.100  30.001  13.529
 7084W        W79509   6.249   1.482   2.338
 7085W        W79510  22.018  13.753   4.193
 7086W        W79511  38.412   5.726   4.298
 7087W        W79512  42.488   6.207  12.947
 7088W        W79513  22.630  31.027   0.926
 7089W        W79514  22.524  43.811   3.789
 7090W        W79515  12.666  20.523  10.449
 7091W        W79516  41.446  30.554  11.998
 7092W        W79517  31.030   2.292  12.488
 7093W        W79518   2.806  25.475   2.298
 7094W        W79519  19.716  30.152   3.387
 7095W        W79520  37.547  42.482   1.773
 7096W        W79521   1.482  43.306   2.359
 7097W        W79522  11.343  30.601  13.510
 7098W        W79523  20.136   3.846   2.850
 7099W        W79524  29.033  28.612   3.770
 7100W        W79525  25.971  36.470   0.366
 7101W        W79526  41.331  23.714   1.850
 7102W        W79527  18.767  23.648  10.536
 7103W        W79528  38.840  44.310   5.196
 7104W        W79529  35.462  17.211  13.995
 7105W        W79530  10.224  18.052  10.069
 7106W        W79531  14.271  24.063   0.819
 7107W        W79532  27.583  19.181  13.444
 7108W        W79533  43.412  18.623  10.995
 7109W        W79534  19.168  43.891  12.056
 7110W        W79535  11.814  23.503   0.392
 7111W        W79536  28.186  24.219   0.300
 7112W        W79537   5.925  13.678   4.783
 7113W        W79538  22.015  36.524   0.940
 7114W        W79539  18.681  26.011   3.781
 7115W        W79540  42.335  26.088  13.862
 7116W        W79541  27.090  43.413   4.735
 7117W        W79542  12.693  40.437   0.947
 7118W        W79543  24.592  14.260   3.310
 7119W        W79544   7.412  30.479  12.950
 7120W        W79545  12.159   4.263  10.454
 7121W        W79546  27.480  11.834   1.426
 7122W        W79547  37.503  11.347   4.313
 7123W        W79548  42.890   0.320  11.527
 7124W        W79549  36.557  30.648   2.780
 7125W        W79550  28.978  28.487  12.829
 7126W        W79551   6.715  39.389   1.450
 7127W        W79552  16.317  20.553   3.149
 7128W        W79553  22.218  44.796   2.791
 7129W        W79554  40.902  32.500   1.924
 7130W        W79555  12.733  20.189  11.122
 7131W        W79556  17.161  34.551  13.427
 7132W        W79557   6.422  37.980   0.816
 7133W        W79558   3.833  35.905   0.444
 7134W        W79559  21.029  21.250  13.321
 7135W        W79560  39.829   0.396   3.362
 7136W        W79561  15.112   9.151   2.288
 7137W        W79562  16.673  28.059  12.088
 7138W        W79563   9.763  12.794  12.429
 7139W        W79564  32.616  35.003   3.856
 7140W        W79565  44.267  14.702  11.539
 7141W        W79566  41.436  27.659  11.921
 7142W        W79567  37.511  35.877  10.448
 7143W        W79568  23.120   5.859   0.727
 7144W        W79569  37.835  28.153   1.310
 7145W        W79570  23.509   6.268  11.478
 7146W        W79571  39.939  11.175  13.342
 7147W        W79572  13.269  34.081   0.863
 7148W        W79573   8.251  10.186  11.913
 7149W        W79574   2.832  20.251  10.952
 7150W        W79575  38.342  16.237   3.849
 7151W        W79576  32.444  10.829   1.289
 7152W        W79577  10.277  20.523   3.663
 7153W        W79578  37.397  30.987  10.938
 7154W        W79579  18.210   1.917  10.598
 7155W        W79580  17.299  31.900   5.255
 7156W        W79581  42.935  35.378   4.211
 7157W        W79582   7.302  20.115  11.417
 7158W        W79583  15.674  40.535  13.893
 7159W        W79584   9.671   6.290   5.175
 7160W        W79585  33.022  18.235  12.846
 7161W        W79586  21.130  24.986   0.427
 7162W        W79587  27.636   1.890   2.700
 7163W        W79588  41.838   6.737  10.888
 7164W        W79589  17.223  23.031   3.328
 7165W        W79590  16.595   7.763   4.338
 7166W        W79591  42.833   6.221  10.515
 7167W        W79592  11.710  43.009   2.186
 7168W        W79593  25.652  15.578   3.684
 7169W        W79594  33.129   8.761   3.726
 7170W        W79595  12.272  14.678  12.458
 7171W        W79596   0.329  23.670  12.951
 7172W        W79597  31.071   4.803   4.790
 7173W        W79598  44.400  32.914  11.860
 7174W        W79599   5.836  43.846  10.950
 7175W        W79600  39.974  36.037  12.019
 7176W        W79601   2.966  23.674  13.372
 7177W        W79602   5.871  14.317  12.356
 7178W        W79603  34.481  25.694   4.765
 7179W        W79604  37.537   7.820  10.917
 7180W        W79605  23.654  39.444   3.739
 7181W        W79606   0.767  27.467  13.505
 7182W        W79607  36.954  38.354  11.909
 7183W        W79608   7.885  37.516   3.297
 7184W        W79609  20.221  23.663   3.264
 7185W        W79610  10.307  28.146  14.828
 7186W        W79611  40.471   8.891   4.681
 7187W        W79612  40.515  21.077  14.910
 7188W        W79613  21.146  43.836   0.830
 7189W        W79614  39.414   6.894   1.797
 7190W        W79615  16.249   8.782   0.951
 7191W        W79616  30.943  38.471  12.928
 7192W        W79617   9.849  28.659  11.868
 7193W        W79618  20.596  39.038   3.739
 7194W        W79619  42.962  35.893   1.789
 7195W        W79620  15.602  12.675  12.409
 7196W        W79621  19.222  12.731   4.746
 7197W        W79622  17.672  37.492   0.731
 7198W        W79623  25.158  20.067  10.479
 7199W        W79624  26.551  36.084   2.898
 7200W        W79625  17.108  28.626   3.634
 7201W        W79626  24.197  35.950  11.863
 7202W        W79627  32.458  20.737  12.925
 7203W        W79628  33.093  41.357  14.314
 7204W        W79629  37.934  34.586  11.539
 7205W        W79630  23.102   5.216  14.289
 7206W        W79631   3.868  20.274   0.859
 7207W        W79632  15.812   6.825  13.034
 7208W        W79633  11.629  40.356  11.082
 7209W        W79634  39.456  23.123   4.833
 7210W        W79635  28.080  18.279  12.987
 7211W        W79636  44.476   5.297  10.634
 7212W        W79637  36.964  39.531   0.867
 7213W        W79638  12.611  13.330   0.385
 7214W        W79639  28.055  37.855  13.842
 7215W        W79640  27.054  36.876  13.910
 7216W        W79641  43.888  24.173  13.337
 7217W        W79642   1.814  23.725  10.404
 7218W        W79643  19.085   7.386  11.959
 7219W        W79644  30.566  31.902  14.889
 7220W        W79645  28.033   5.788   4.114
 7221W        W79646  19.662  39.027  13.952
 7222W        W79647  39.472  21.148   4.806
 7223W        W79648  21.558   3.770  11.893
 7224W        W79649  24.709  19.072   4.281
 7225W        W79650  20.210  30.007   0.269
 7226W        W79651  30.437  30.949   2.771
 7227W        W79652  42.944  10.325   3.248
 7228W        W79653  16.246   0.912   2.683
 7229W        W79654  29.606   2.786  14.825
 7230W        W79655  31.974  11.335  14.988
 7231W        W79656   5.386  19.081  13.385
 7232W        W79657   8.173   9.353   3.862
 7233W        W79658  44.390  26.015   1.326
 7234W        W79659  10.658  41.820  11.472
 7235W        W79660   6.416  32.463  14.947
 7236W        W79661   8.664  27.486   4.729
 7237W        W79662  20.685  20.266   0.247
 7238W        W79663   9.729   6.409  11.427
 7239W        W79664  16.721  20.226  12.026
 7240W        W79665   4.298  42.375  10.512
 7241W        W79666   9.311  39.392   0.752
 7242W        W79667  25.659  20.159  10.515
 7243W        W79668   3.246  22.552   4.613
 7244W        W79669   9.800   0.780  11.466
 7245W        W79670  15.133  12.740   3.228
 7246W        W79671  17.651  15.132   1.351
 7247W        W79672  15.719   2.741  11.529
 7248W        W79673   9.797   2.424  12.963
 7249W        W79674  34.940  31.070  13.028
 7250W        W79675  23.605  18.739   2.704
 7251W        W79676  40.448  43.995   4.316
 7252W        W79677  17.571  22.595   4.188
 7253W        W79678  37.946  37.537  13.047
 7254W        W79679  31.039  27.040   2.373
 7255W        W79680  21.546  14.763  12.911
 7256W        W79681  38.369  42.012  14.384
 7257W        W79682  42.461  28.676   4.131
 7258W        W79683  22.600  18.223  14.322
 7259W        W79684  37.029  38.380   2.845
 7260W        W79685  20.168  25.207   1.356
 7261W        W79686   1.844  18.582  10.930
 7262W        W79687  42.809  24.653   4.740
 7263W        W79688  30.925  13.282   4.647
 7264W        W79689  29.119  15.683   0.384
 7265W        W79690  40.373  26.200   3.235
 7266W        W79691  29.649  17.645  11.493
 7267W        W79692  16.207  15.235  11.597
 7268W        W79693   0.476  12.805  11.026
 7269W        W79694   6.816   1.827  14.825
 7270W        W79695   4.307  30.039  11.943
 7271W        W79696   6.209  38.918  11.951
 7272W        W79697   2.819   8.269   3.208
 7273W        W79698  28.184  21.512  12.539
 7274W        W79699  20.635  25.170   1.796
 7275W        W79700   7.349   6.345  12.998
 7276W        W79701  20.195  19.191   2.899
 7277W        W79702  23.087  19.748   5.271
 7278W        W79703  12.779  12.629  12.445
 7279W        W79704  21.685  35.939   4.246
 7280W        W79705  36.457  26.534   4.645
 7281W        W79706   2.965  26.979  12.014
 7282W        W79707  16.728  40.374  11.522
 7283W        W79708  40.944  11.633  13.457
 7284W        W79709  23.662  21.679   1.376
 7285W        W79710   6.266  36.391  10.890
 7286W        W79711  38.918   0.898   4.618
 7287W        W79712  41.986  39.927  13.466
 7288W        W79713  32.083  28.457   4.747
 7289W        W79714  12.181  36.578  12.827
 7290W        W79715  27.623  38.380  13.356
 7291W        W79716   1.940  11.627  10.598
 7292W        W79717  43.841  10.748   0.431
 7293W        W79718  26.144  26.636   3.796
 7294W        W79719   7.305  13.665   1.248
 7295W        W79720   2.317  35.010  11.960
 7296W        W79721  24.184  39.413  13.322
 7297W        W79722   1.368  15.722   1.801
 7298W        W79723  28.933  34.443   4.177
 7299W        W79724   3.863   4.446   1.825
 7300W        W79725  27.597  33.417  11.951
 7301W        W79726  21.082  27.547  11.465
 7302W        W79727  24.579   6.202   0.745
 7303W        W79728  33.039  36.396  10.960
 7304W        W79729  40.322   8.193   2.863
 7305W        W79730  23.156  19.260   0.402
 7306W        W79731  11.812  14.338   0.436
 7307W        W79732  32.525  39.865  11.046
 7308W        W79733  37.054  10.354  11.035
 7309W        W79734  26.500  19.257   3.344
 7310W        W79735   3.742  41.901   2.806
 7311W        W79736  38.826  33.030   3.234
 7312W        W79737  10.756   4.784  11.949
 7313W        W79738  36.393  12.637   3.318
 7314W        W79739   6.210  29.020  11.065
 7315W        W79740  32.924   6.905  12.575
 7316W        W79741  26.981  22.189   0.434
 7317W        W79742   3.282   1.403  14.374
 7318W        W79743   5.212  36.368   3.823
 7319W        W79744  27.527  20.203  12.055
 7320W        W79745  35.961  34.370  12.846
 7321W        W79746  37.370  32.016   4.257
 7322W        W79747  39.855  42.399  10.619
 7323W        W79748  18.289   4.783   3.292
 7324W        W79749  26.465  24.145  12.341
 7325W        W79750  37.925  27.068  11.901
 7326W        W79751  19.044   5.860  10.936
 7327W        W79752  24.978  44.489  11.012
 7328W        W79753  25.562  36.422   1.899
 7329W        W79754  43.306   4.423  13.529
 7330W        W79755  27.970  34.610   1.322
 7331W        W79756  18.662  38.396  10.994
 7332W        W79757   7.819  21.164   5.105
 7333W        W79758  32.008  35.521   3.333
 7334W        W79759  11.783  12.641   2.808
 7335W        W79760  27.161  10.213   4.651
 7336W        W79761  44.433   4.713  10.041
 7337W        W79762  43.021  14.211   3.729
 7338W        W79763  25.987  11.762  10.539
 7339W        W79764  11.637   5.212  14.319
 7340W        W79765   1.752  19.741  12.859
 7341W        W79766  22.652  12.175   0.380
 7342W        W79767   8.870   0.467   3.246
 7343W        W79768  20.769  44.914   1.739
 7344W        W79769  33.484   9.772   3.255
 7345W        W79770  30.503   2.960   1.253
 7346W        W79771  37.428  15.704   5.321
 7347W        W79772  14.230   7.841  13.046
 7348W        W79773   7.175   6.229  10.625
 7349W        W79774  15.300   7.824   2.853
 7350W        W79775   5.813  24.649  13.327
 7351W        W79776  43.875  25.531  13.926
 7352W        W79777   8.779  32.020   0.800
 7353W        W79778   3.713  25.561  12.535
 7354W        W79779  18.787  30.439   3.764
 7355W        W79780   4.299  18.688   2.419
 7356W        W79781   9.678   1.480   1.824
 7357W        W79782  43.857   9.199   4.301
 7358W        W79783  15.111  41.978  13.525
 7359W        W79784  22.043  38.068   0.333
 7360W        W79785  27.087  31.150   2.225
 7361W        W79786  15.152  25.547   1.895
 7362W        W79787  18.626   2.247   4.292
 7363W        W79788  26.964  25.582   2.893
 7364W        W79789  31.141   3.279   3.779
 7365W        W79790   3.903  38.866   4.720
 7366W        W79791  28.103  35.532   4.278
 7367W        W79792  19.075  35.000   1.253
 7368W        W79793  17.620  13.746  11.474
 7369W        W79794  35.485  25.113   2.306
 7370W        W79795  17.638   5.216  12.845
 7371W        W79796  44.785  28.140  12.918
 7372W        W79797  19.546  36.437   2.218
 7373W        W79798  23.556  27.973   1.392
 7374W        W79799   8.671  37.923   9.648
 7375W        W79800  15.701  42.851   4.327
 7376W        W79801  42.486  35.582   4.652
 7377W        W79802  16.300  26.993   3.829
 7378W        W79803  42.969  20.082   4.190
 7379W        W79804  37.467  38.983  12.933
 7380W        W79805   7.376  32.619  14.910
 7381W        W79806  40.947  20.219  13.889
 7382W        W79807   8.872   3.372   3.381
 7383W        W79808   1.959  15.245  14.833
 7384W        W79809  24.011  26.040   1.223
 7385W        W79810  38.543  17.765  12.523
 7386W        W79811  36.048  36.978  10.583
 7387W        W79812  31.075  16.790  13.897
 7388W        W79813   3.282   3.903   1.383
 7389W        W79814  30.044  30.112  14.830
 7390W        W79815  14.788   3.856   1.868
 7391W        W79816  34.428  38.502  11.975
 7392W        W79817   2.755  15.236   3.679
 7393W        W79818  29.960  17.118  14.929
 7394W        W79819  32.132   0.494  11.473
 7395W        W79820  17.071  10.341  14.824
 7396W        W79821  24.043  19.594  10.088
 7397W        W79822  19.667  12.853   4.317
 7398W        W79823  36.476   6.784   2.814
 7399W        W79824  31.138   7.689  11.916
 7400W        W79825  33.114  40.403   4.632
 7401W        W79826  19.651  35.948  10.610
 7402W        W79827   2.356   2.862  12.448
 7403W        W79828  14.241  32.597   0.272
 7404W        W79829  21.173  31.419  14.971
 7405W        W79830  40.967  42.973  13.807
 7406W        W79831  17.076  28.626  14.368
 7407W        W79832   0.388  25.696   1.888
 7408W        W79833  28.656   5.772   4.741
 7409W        W79834  34.007  42.515  14.343
 7410W        W79835  39.336  13.257   1.705
 7411W        W79836  27.504   6.737  12.928
 7412W        W79837  41.406  25.978   4.699
 7413W        W79838  12.818  13.257   4.211
 7414W        W79839   0.906  33.103   2.181
 7415W        W79840  24.515  16.725  13.928
 7416W        W79841  25.572   1.278  10.503
 7417W        W79842  22.076  19.675   3.169
 7418W        W79843   3.384  37.402   3.806
 7419W        W79844  23.240  10.176   5.126
 7420W        W79845  37.982   5.226   4.644
 7421W        W79846   1.260   9.339  13.962
 7422W        W79847   8.882  14.717   2.857
 7423W        W79848  34.428  13.834  12.055
 7424W        W79849  40.348  12.336  10.608
 7425W        W79850  36.859  16.736   1.783
 7426W        W79851   8.208   7.206   5.304
 7427W        W79852   3.293  44.465   4.137
 7428W        W79853   9.770  24.545   1.356
 7429W        W79854  37.575  22.224   2.747
 7430W        W79855  37.048  24.658  14.433
 7431W        W79856  20.583  37.385   1.248
 7432W        W79857  39.892  17.791   3.190
 7433W        W79858   2.894  26.183  10.902
 7434W        W79859   3.343  10.165  11.372
 7435W        W79860  18.656  19.690   5.112
 7436W        W79861  19.190  22.564   2.870
 7437W        W79862  30.996  27.573   1.918
 7438W        W79863   5.316  32.928   4.278
 7439W        W79864  23.720  22.746  12.918
 7440W        W79865   4.884   4.777  11.022
 7441W        W79866  26.535  15.190   0.316
 7442W        W79867  13.196  22.204   2.323
 7443W        W79868  43.878  38.450   3.192
 7444W        W79869  18.257  31.112   3.787
 7445W        W79870   9.321   8.369   5.225
 7446W        W79871  16.253   2.449   3.835
 7447W        W79872  15.115  23.181   0.905
 7448W        W79873  24.045  12.292   1.734
 7449W        W79874  42.961  13.166   0.472
 7450W        W79875  25.571  38.021  13.340
 7451W        W79876   1.308  32.425  10.513
 7452W        W79877  25.687  11.849   2.198
 7453W        W79878  28.161  21.253   3.183
 7454W        W79879  31.003  42.981   1.784
 7455W        W79880   0.278  12.704   3.287
 7456W        W79881  21.512  25.989   0.945
 7457W        W79882   6.903   0.858   4.282
 7458W        W79883  42.282  17.733   3.691
 7459W        W79884  32.496  24.674  10.465
 7460W        W79885  21.643   4.779  13.410
 7461W        W79886  31.057  34.104  11.863
 7462W        W79887  11.204  16.724  12.524
 7463W        W79888  43.850   2.260   1.849
 7464W        W79889  16.655  12.611  13.883
 7465W        W79890  42.292   9.659   3.813
 7466W        W79891  15.257  44.008   4.136
 7467W        W79892  38.049  27.066  10.579
 7468W        W79893  21.055  37.023   1.823
 7469W        W79894  34.925  17.237  13.047
 7470W        W79895  20.697  12.241  11.450
 7471W        W79896  36.968  23.609  14.861
 7472W        W79897   3.913  37.558  12.393
 7473W        W79898  25.197  10.177   1.820
 7474W        W79899  41.816  10.790  10.520
 7475W        W79900   1.968   4.811   0.341
 7476W        W79901  41.852  20.579  10.465
 7477W        W79902  35.440  14.796  10.979
 7478W        W79903  18.552  18.254  11.453
 7479W        W79904  21.096  13.238   4.315
 7480W        W79905  40.839  39.025  11.935
 7481W        W79906  36.028  44.389   4.272
 7482W        W79907  29.966  27.647  12.874
 7483W        W79908   0.258  11.289  14.990
 7484W        W79909  39.367  27.000  12.081
 7485W        W79910  31.628  43.321   2.723
 7486W        W79911  17.626  23.500  12.925
 7487W        W79912  13.121  39.809   1.913
 7488W        W79913  29.168  35.595   3.261
 7489W        W79914  14.804  44.413  10.618
 7490W        W79915   2.306  22.019  11.110
 7491W        W79916  20.578  19.135   2.665
 7492W        W79917   2.807  15.592  14.797
 7493W        W79918  13.202  39.432  11.895
 7494W        W79919  41.337  35.883   1.749
 7495W        W79920  31.549  35.887  10.999
 7496W        W79921  24.548   9.852   4.751
 7497W        W79922   4.749  13.600   0.375
 7498W        W79923  33.592   1.467  13.387
 7499W        W79924  35.559  42.902   2.879
 7500W        W79925  16.682  35.412  13.369
 7501W        W79926   1.325  27.022   3.686
 7502W        W79927  40.484  16.251   1.852
 7503W        W79928  30.628  31.452   2.334
 7504W        W79929  35.913  22.137   2.315
 7505W        W79930  31.046  22.653   2.702
 7506W        W79931  22.538  36.590  13.351
 7507W        W79932  39.062  16.195  13.354
 7508W        W79933  18.689  19.667  10.955
 7509W        W79934  39.329  39.510  11.951
 7510W        W79935  10.799   2.430   2.190
 7511W        W79936  15.257  41.526   3.369
 7512W        W79937   9.651  27.134   0.417
 7513W        W79938  19.109   9.739  11.964
 7514W        W79939  36.462  28.594  11.380
 7515W        W79940  40.349  15.197  14.290
 7516W        W79941  24.050  25.995  14.768
 7517W        W79942  27.031  35.949   2.666
 7518W        W79943   5.823   1.336  13.365
 7519W        W79944  33.991  29.550  14.408
 7520W        W79945  39.947   8.397   1.227
 7521W        W79946  32.616  35.585  10.618
 7522W        W79947  31.968  32.926  14.013
 7523W        W79948  25.022  35.868  10.952
 7524W        W79949  29.539  16.300   4.333
 7525W        W79950   0.845  38.960  14.778
 7526W        W79951  28.167  40.844  13.362
 7527W        W79952  33.125   7.196  14.009
 7528W        W79953  34.925  39.872  11.567
 7529W        W79954  39.329   9.838   4.681
 7530W        W79955   1.769  13.690   0.815
 7531W        W79956  16.225  23.046  10.473
 7532W        W79957  31.585  20.614   0.347
 7533W        W79958  10.220  34.390  14.960
 7534W        W79959  31.446  33.581   4.664
 7535W        W79960  20.158  36.974  14.894
 7536W        W79961  38.491   2.327   3.383
 7537W        W79962  27.129  37.358   1.767
 7538W        W79963  39.019  28.930   4.604
 7539W        W79964   1.437  31.953   1.806
 7540W        W79965  11.829   3.281   4.188
 7541W        W79966   4.787  15.095  13.850
 7542W        W79967  37.911  15.748   2.735
 7543W        W79968  34.418  29.654   2.851
 7544W        W79969  18.273  37.412  14.460
 7545W        W79970  13.824  44.847  11.582
 7546W        W79971  26.965  11.752   4.753
 7547W        W79972  10.144  28.010   2.805
 7548W        W79973  22.079  29.664  11.413
 7549W        W79974  22.613   1.290  14.458
 7550W        W79975  42.803  39.947  12.020
 7551W        W79976  10.750   9.662   3.696
 7552W        W79977  20.610  32.096   1.771
 7553W        W79978  30.051  16.663  13.963
 7554W        W79979   7.713  28.017   3.647
 7555W        W79980   4.760  27.197  12.531
 7556W        W79981   0.302  13.728   0.350
 7557W        W79982   7.177  10.835   2.898
 7558W        W79983  16.126  13.131  11.486
 7559W        W79984  34.910  18.127  11.559
 7560W        W79985  27.449  33.086   9.581
 7561W        W79986   7.366  40.545   4.630
 7562W        W79987  22.630   8.749  12.010
 7563W        W79988  41.394  40.359   4.261
 7564W        W79989   2.914   8.189  12.071
 7565W        W79990  36.447  29.950   0.752
 7566W        W79991  41.433  10.758   0.440
 7567W        W79992  31.983  43.982   2.821
 7568W        W79993  44.332  33.434  14.877
 7569W        W79994  43.995   9.210   2.698
 7570W        W79995  24.098  20.677  14.869
 7571W        W79996   3.937  23.669  11.556
 7572W        W79997  27.091  19.091   1.331
 7573W        W79998   5.757  41.843   0.870
 7574W        W79999  26.027  29.477  13.459
 7575W        W80000  28.935  35.438  13.928
 7576W        W80001   2.372  38.868   5.113
 7577W        W80002  33.944  18.649  10.593
 7578W        W80003  12.695  24.012   0.404
 7579W        W80004   8.874  17.671   0.772
 7580W        W80005   5.852   4.927   4.807
 7581W        W80006  23.722  28.558   2.874
 7582W        W80007  39.425  11.347   0.872
 7583W        W80008  27.495  39.515  11.073
 7584W        W80009  15.240  30.928   2.756
 7585W        W80010  10.652   7.359   4.818
 7586W        W80011  39.920  40.857  14.784
 7587W        W80012   9.649  22.193  12.390
 7588W        W80013  18.559  29.463  12.520
 7589W        W80014  43.892  22.195  13.426
 7590W        W80015  44.468  19.581  12.918
 7591W        W80016  22.100  11.336   2.828
 7592W        W80017  22.079  10.763   4.212
 7593W        W80018  31.626   5.282  14.927
 7594W        W80019   9.310  11.681  13.408
 7595W        W80020  20.224  31.557   5.699
 7596W        W80021   7.209  13.640  13.953
 7597W        W80022  33.907  12.776  11.526
 7598W        W80023  39.373  39.366   1.768
 7599W        W80024  42.929  30.052   0.458
 7600W        W80025  11.196  37.908   4.338
 7601W        W80026  15.260  16.195  12.394
 7602W        W80027  38.846  19.653   1.400
 7603W        W80028  42.817  40.820   0.928
 7604W        W80029  29.669  36.368  13.059
 7605W        W80030  19.060  28.607  14.422
 7606W        W80031   0.284  21.049   4.174
 7607W        W80032  17.205  35.957  12.450
 7608W        W80033  16.645  41.335   0.277
 7609W        W80034  15.611   7.825   4.273
 7610W        W80035  18.240  27.178   4.215
 7611W        W80036  20.604  29.958   4.790
 7612W        W80037  42.344  12.257   0.347
 7613W        W80038  11.694  24.148  14.410
 7614W        W80039  10.284  20.145  10.588
 7615W        W80040  43.356  39.938  13.016
 7616W        W80041   8.684  44.466   1.835
 7617W        W80042  18.623  40.895   4.242
 7618W        W80043  21.047  35.968  10.403
 7619W        W80044  30.469  31.118  14.488
 7620W        W80045  14.748  11.752  13.439
 7621W        W80046  21.746   4.790  10.123
 7622W        W80047  23.729  30.128   3.688
 7623W        W80048  44.944  40.317   2.313
 7624W        W80049  33.459   6.847  11.092
 7625W        W80050  43.409  39.325   4.161
 7626W        W80051  25.589   7.399   4.622
 7627W        W80052  29.918  38.364   1.418
 7628W        W80053  23.606  29.137  14.379
 7629W        W80054  14.698  31.070  12.559
 7630W        W80055  18.580   8.241   3.244
 7631W        W80056  15.168  32.007  10.446
 7632W        W80057  40.925  10.261  13.030
 7633W        W80058  37.943  25.680   4.655
 7634W        W80059  27.535  42.026   0.446
 7635W        W80060   1.460   2.466   1.427
 7636W        W80061  16.072   4.401   1.762
 7637W        W80062  38.044   0.789   4.129
 7638W        W80063  29.929   7.745   4.230
 7639W        W80064   6.424  41.938  12.560
 7640W        W80065  39.474  24.700  14.282
 7641W        W80066  14.184  36.419  10.943
 7642W        W80067  30.517  39.555   3.173
 7643W        W80068  39.970  41.509   1.263
 7644W        W80069  40.857   0.882  10.891
 7645W        W80070  19.697   4.730   2.899
 7646W        W80071  28.061  40.446   2.277
 7647W        W80072  40.493  18.673  14.812
 7648W        W80073  12.216  38.422   1.877
 7649W        W80074   5.744  41.858   3.338
 7650W        W80075  12.164   5.809  12.528
 7651W        W80076  14.680  41.943  13.805
 7652W        W80077  24.169   1.360   1.859
 7653W        W80078  38.875  32.965   2.321
 7654W        W80079  29.444  25.002  12.069
 7655W        W80080  37.499  24.105  14.783
 7656W        W80081   3.437  17.783   4.600
 7657W        W80082  12.792  23.039   2.814
 7658W        W80083  25.555  31.638   1.798
 7659W        W80084   3.278   2.294  11.388
 7660W        W80085  41.968  20.183   3.841
 7661W        W80086  27.603   1.842   1.259
 7662W        W80087  42.007  38.927   0.826
 7663W        W80088  30.995   0.927  11.603
 7664W        W80089  15.795   7.667   3.356
 7665W        W80090  13.190  24.115  11.481
 7666W        W80091   1.869  40.024  11.988
 7667W        W80092  42.960  26.116   2.763
 7668W        W80093  24.006  26.541  14.887
 7669W        W80094  15.734  36.845  13.934
 7670W        W80095  17.227  43.346   1.317
 7671W        W80096   4.767  23.092   2.247
 7672W        W80097   6.677   9.176   2.898
 7673W        W80098  41.525  34.570  14.794
 7674W        W80099  33.963   6.291  12.446
 7675W        W80100  32.092  18.673  14.441
 7676W        W80101  19.157  24.697   1.408
 7677W        W80102  22.024  25.675  11.408
 7678W        W80103  10.753  11.302  12.469
 7679W        W80104  43.875  19.614   4.150
 7680W        W80105   6.307   3.271  12.027
 7681W        W80106  30.650  12.337  10.961
 7682W        W80107  32.967  24.210  10.540
 7683W        W80108   1.844  39.451   0.829
 7684W        W80109   1.763   1.870  13.545
 7685W        W80110  13.290  40.384   2.225
 7686W        W80111  17.116   5.780   1.739
 7687W        W80112  24.506  30.118  12.010
 7688W        W80113  16.295   4.766   3.837
 7689W        W80114  26.617  21.159   0.814
 7690W        W80115  17.720  44.295   4.316
 7691W        W80116  31.914  35.582   1.291
 7692W        W80117   9.394  23.540   3.278
 7693W        W80118   2.926  34.992  11.114
 7694W        W80119  15.690  44.495  12.561
 7695W        W80120  21.540  26.549  10.958
 7696W        W80121  27.675  23.162  14.790
 7697W        W80122  19.701  36.510  13.823
 7698W        W80123  39.032  44.439  12.347
 7699W        W80124  12.793  31.639   4.148
 7700W        W80125  27.459  24.132  10.514
 7701W        W80126  13.135  16.240  12.485
 7702W        W80127   1.957  21.517   3.691
 7703W        W80128  17.636  32.946   3.200
 7704W        W80129  36.588   9.738  13.857
 7705W        W80130   3.460  10.232  14.983
 7706W        W80131  37.877  12.231   1.284
 7707W        W80132  11.358  10.145   4.748
 7708W        W80133  24.132  30.446   4.250
 7709W        W80134  16.629   3.350   5.263
 7710W        W80135  27.517  32.477   4.669
 7711W        W80136  21.712   8.743   2.761
 7712W        W80137  24.639  21.564   2.289
 7713W        W80138  24.037  26.570  13.461
 7714W        W80139  41.997  26.492   3.844
 7715W        W80140  31.917   8.222   2.886
 7716W        W80141   8.370  35.005   1.855
 7717W        W80142  33.955  12.847  14.770
 7718W        W80143  10.344  24.652  14.319
 7719W        W80144  28.481  43.773   3.243
 7720W        W80145  39.976   2.827   0.391
 7721W        W80146   1.352  17.278   2.240
 7722W        W80147  16.242   0.821   0.905
 7723W        W80148  17.235  15.231   3.708
 7724W        W80149  38.983  10.359  11.438
 7725W        W80150   9.778  41.529  12.858
 7726W        W80151  14.716  29.128   1.269
 7727W        W80152   2.467  18.137  13.940
 7728W        W80153  22.046   5.346  10.905
 7729W        W80154   3.279  44.384  10.541
 7730W        W80155  16.266  44.839  13.907
 7731W        W80156   3.730  31.499   3.756
 7732W        W80157  13.309   0.266  14.389
 7733W        W80158   6.872  42.831  12.881
 7734W        W80159  19.603   3.378   4.795
 7735W        W80160  34.375  41.304  11.586
 7736W        W80161   1.398   7.874  11.448
 7737W        W80162  12.311  44.925  12.476
 7738W        W80163   3.317   4.307   2.329
 7739W        W80164  23.118  36.435   1.879
 7740W        W80165  36.496   9.279   4.118
 7741W        W80166  16.198  18.178  11.896
 7742W        W80167   4.762   8.866  12.504
 7743W        W80168  15.796   8.318  12.391
 7744W        W80169   5.916  28.520  13.050
 7745W        W80170  15.652  34.484   4.831
 7746W        W80171  30.988  38.518   2.719
 7747W        W80172  13.190  15.173   2.368
 7748W        W80173  27.101   1.364   0.793
 7749W        W80174  23.040  29.458  11.031
 7750W        W80175  14.195  33.006   2.711
 7751W        W80176   2.872   5.923   3.269
 7752W        W80177  17.218   3.788  10.479
 7753W        W80178  19.610  22.042   1.296
 7754W        W80179  29.058  10.183   3.796
 7755W        W80180  15.158  13.216  11.416
 7756W        W80181   5.353  20.061  13.004
 7757W        W80182  30.148   5.778  11.872
 7758W        W80183  26.099  23.593  14.287
 7759W        W80184  30.417  30.083  12.977
 7760W        W80185  21.233  27.681   3.702
 7761W        W80186  44.312   8.261  12.077
 7762W        W80187  25.648  12.714  12.947
 7763W        W80188   3.874  43.285   0.313
 7764W        W80189  14.196  30.530  13.452
 7765W        W80190   8.874  31.937   0.398
 7766W        W80191   9.283  42.512   4.702
 7767W        W80192  41.465  30.003   4.255
 7768W        W80193  42.292  40.853   4.180
 7769W        W80194  22.546  11.144  10.057
 7770W        W80195  42.874  12.663   3.146
 7771W        W80196  34.961  27.597  11.859
 7772W        W80197  19.049  18.289   4.172
 7773W        W80198   6.817  26.634  14.791
 7774W        W80199   1.411  40.417  12.966
 7775W        W80200  13.794  22.523   1.367
 7776W        W80201   2.388  43.946   3.348
 7777W        W80202  17.663  20.185   0.961
 7778W        W80203   4.371  12.719   1.835
 7779W        W80204  28.658   9.791   3.638
 7780W        W80205  10.191  14.160  11.075
 7781W        W80206  23.228  19.073  11.067
 7782W        W80207  38.932   0.893  14.475
 7783W        W80208  32.606  42.966   4.312
 7784W        W80209  14.271  41.479   1.425
 7785W        W80210  40.947  37.411   4.710
 7786W        W80211  36.916  43.007  11.909
 7787W        W80212   7.724   4.911  14.025
 7788W        W80213   9.827  22.695   3.650
 7789W        W80214  16.098   2.412   2.711
 7790W        W80215  37.974   0.357   2.804
 7791W        W80216   1.888  10.200   0.829
 7792W        W80217  15.729  11.229   2.729
 7793W        W80218  38.438  28.152  13.950
 7794W        W80219  40.430  22.700  14.363
 7795W        W80220  42.899  32.044   4.636
 7796W        W80221  25.991  32.050   0.296
 7797W        W80222   7.193  11.776   0.368
 7798W        W80223   2.376  23.174   3.652
 7799W        W80224  37.845  32.624  11.943
 7800W        W80225  25.145  22.705   0.928
 7801W        W80226  15.326  43.812  12.057
 7802W        W80227   4.282  34.566   0.483
 7803W        W80228   7.694   7.257   3.825
 7804W        W80229  40.966  10.235   1.885
 7805W        W80230  30.945  17.062  10.109
 7806W        W80231  14.715  32.111   4.246
 7807W        W80232   9.189  35.000  11.945
 7808W        W80233  26.125   9.203   3.267
 7809W        W80234  23.235  30.056  12.855
 7810W        W80235  33.999   8.404   1.418
 7811W        W80236  17.300  27.194  11.575
 7812W        W80237  18.785   4.932  12.824
 7813W        W80238  43.900   1.861   0.893
 7814W        W80239   6.779  25.986   2.884
 7815W        W80240  43.804  19.080  12.074
 7816W        W80241  39.991  14.274  11.402
 7817W        W80242  16.199  32.081  14.781
 7818W        W80243  11.716  44.946   1.739
 7819W        W80244  21.131  35.904  12.442
 7820W        W80245  43.822   8.783  14.849
 7821W        W80246  22.147  33.515  14.457
 7822W        W80247  40.506  23.238   3.667
 7823W        W80248  26.653  23.139   2.418
 7824W        W80249  35.961  18.216  11.563
 7825W        W80250  21.099  22.158  14.927
 7826W        W80251   4.444  14.714   3.663
 7827W        W80252   7.273  26.696  12.867
 7828W        W80253  34.464  40.499  12.835
 7829W        W80254  34.608  29.583   4.131
 7830W        W80255  19.665   9.182   3.194
 7831W        W80256   1.742  43.890   2.369
 7832W        W80257  13.181   2.341  14.314
 7833W        W80258  44.871  19.667   4.190
 7834W        W80259  26.595   0.872  12.366
 7835W        W80260  10.150   4.705  14.461
 7836W        W80261  24.512  17.710   3.730
 7837W        W80262  28.461  42.307  11.898
 7838W        W80263  16.216  30.016   0.278
 7839W        W80264  30.593  39.505   3.663
 7840W        W80265   2.894  19.083   2.849
 7841W        W80266  29.006  33.101  11.888
 7842W        W80267  22.021  24.070  10.975
 7843W        W80268  21.054  28.664  14.315
 7844W        W80269   5.853  27.589   2.240
 7845W        W80270  40.036  21.637  14.985
 7846W        W80271  20.571  20.723  11.948
 7847W        W80272   4.277  20.615   4.630
 7848W        W80273  41.858  42.508  13.464
 7849W        W80274  24.707   3.805   0.280
 7850W        W80275   2.884   5.754   0.484
 7851W        W80276  44.907  31.550  12.095
 7852W        W80277  23.611  43.295  10.447
 7853W        W80278   7.695  38.833   1.891
 7854W        W80279   8.312  29.529   4.656
 7855W        W80280  24.687   9.833   5.130
 7856W        W80281   4.857  15.765   9.925
 7857W        W80282  19.120  27.076  12.466
 7858W        W80283  24.497   0.259   0.873
 7859W        W80284  25.022  23.998   4.816
 7860W        W80285  35.970  43.904   1.434
 7861W        W80286  20.127  42.886   2.733
 7862W        W80287   2.271  15.607   3.829
 7863W        W80288  35.490  10.292   9.963
 7864W        W80289  31.408  43.905  12.040
 7865W        W80290  26.092   0.841  12.349
 7866W        W80291   7.722  13.291   1.899
 7867W        W80292  22.696  11.326   0.890
 7868W        W80293  16.706  44.829  11.085
 7869W        W80294  37.433  19.618   3.839
 7870W        W80295  16.150  31.093  13.018
 7871W        W80296  14.181  14.703   4.300
 7872W        W80297  21.714  12.707   3.254
 7873W        W80298  34.069  14.312   1.228
 7874W        W80299  36.048  19.667  12.542
 7875W        W80300  14.113  17.244   4.602
 7876W        W80301  15.210   6.711  11.048
 7877W        W80302  31.944  36.852  11.586
 7878W        W80303  44.421   1.269  14.930
 7879W        W80304   7.904  28.043  11.569
 7880W        W80305  44.296  11.367   3.317
 7881W        W80306   9.270   6.376   0.343
 7882W        W80307  29.110  29.558  14.349
 7883W        W80308  26.161  44.977   3.158
 7884W        W80309  19.254  22.687   1.334
 7885W        W80310   3.379  14.792  14.790
 7886W        W80311  11.796  14.593   3.635
 7887W        W80312  39.920  39.939   0.360
 7888W        W80313  12.757  30.914  12.834
 7889W        W80314  44.992  30.991  11.110
 7890W        W80315   3.886  39.414   0.440
 7891W        W80316   4.803  24.480  14.030
 7892W        W80317   6.823  41.332   4.787
 7893W        W80318  17.143  10.851  10.481
 7894W        W80319   8.356  43.861   0.890
 7895W        W80320   5.266   0.898   2.285
 7896W        W80321  18.165  42.302   3.196
 7897W        W80322  17.134  23.676   3.666
 7898W        W80323  41.829  25.962  11.954
 7899W        W80324  22.103  18.207   0.440
 7900W        W80325  22.107  42.501   1.700
 7901W        W80326  42.861  21.643   1.409
 7902W        W80327  10.168  24.994  10.030
 7903W        W80328  34.479  40.873  11.873
 7904W        W80329  44.785  44.468  10.419
 7905W        W80330  19.630  35.479  14.446
 7906W        W80331  42.791  33.113   2.683
 7907W        W80332   1.860  13.762  13.912
 7908W        W80333  37.058  29.059   2.778
 7909W        W80334  33.989  42.992  13.009
 7910W        W80335  17.745  17.095   3.320
 7911W        W80336  41.325   5.305   2.715
 7912W        W80337   9.282  17.108   0.959
 7913W        W80338  34.497  44.958  10.978
 7914W        W80339  12.688  40.892  14.458
 7915W        W80340  44.760  16.222   2.372
 7916W        W80341  31.002  13.831  11.556
 7917W        W80342  16.727  14.286   1.254
 7918W        W80343  19.085   2.948  12.876
 7919W        W80344  44.290  27.081  13.404
 7920W        W80345  34.584  40.499  11.376
 7921W        W80346  27.186  24.978  11.918
 7922W        W80347  25.544  27.982   4.774
 7923W        W80348  35.934  39.433  11.400
 7924W        W80349  40.335   0.263   5.146
 7925W        W80350  32.564  19.196   5.290
 7926W        W80351   8.899  12.731   2.414
 7927W        W80352  12.658  22.567  13.511
 7928W        W80353   3.725  29.575   4.812
 7929W        W80354  43.338  14.743   1.243
 7930W        W80355  29.478  25.529   4.180
 7931W        W80356  28.592   8.167  10.584
 7932W        W80357   4.238   9.256   1.810
 7933W        W80358  13.658   0.842   0.856
 7934W        W80359  14.231  41.868   3.731
 7935W        W80360  26.663  36.060   3.855
 7936W        W80361  43.995   5.433  11.927
 7937W        W80362  28.030  35.898   3.818
 7938W        W80363  11.172  40.878  14.275
 7939W        W80364  27.982  29.663   4.243
 7940W        W80365   6.245  44.783   3.653
 7941W        W80366   8.268  42.029   4.273
 7942W        W80367  17.581  42.994   4.817
 7943W        W80368  33.085  37.378  14.299
 7944W        W80369   1.303  33.956  10.600
 7945W        W80370  18.578  17.774   1.308
 7946W        W80371  43.805  40.866   1.439
 7947W        W80372  13.664   3.290   4.318
 7948W        W80373  37.986   1.895   1.855
 7949W        W80374  22.746  35.036   4.810
 7950W        W80375  21.149  32.416   4.247
 7951W        W80376   4.339  22.044  13.826
 7952W        W80377   2.372  10.354  10.148
 7953W        W80378  32.944  20.079   2.286
 7954W        W80379  22.191  43.360  14.807
 7955W        W80380  32.498   0.313  11.972
 7956W        W80381  32.966   9.254   1.415
 7957W        W80382  35.447   6.857  12.344
 7958W        W80383  36.592  26.094   2.665
 7959W        W80384  41.916  17.100   0.347
 7960W        W80385  23.683  42.497  11.420
 7961W        W80386  14.788   0.843  10.579
 7962W        W80387  35.974  43.020  12.513
 7963W        W80388  14.224  39.398   3.696
 7964W        W80389  19.040  35.375  12.404
 7965W        W80390  22.099  17.655   2.354
 7966W        W80391  11.153  36.055   2.837
 7967W        W80392  25.167   8.762  13.822
 7968W        W80393  43.372  28.934  12.398
 7969W        W80394  26.116  27.546  13.478
 7970W        W80395  42.442   6.183   2.323
 7971W        W80396   4.269   5.229   3.274
 7972W        W80397  14.649  25.017   3.804
 7973W        W80398  30.589  31.499   1.219
 7974W        W80399  29.095   0.797   0.475
 7975W        W80400  37.913  38.400  13.546
 7976W        W80401  17.667  37.846   4.800
 7977W        W80402  11.640  44.474   3.205
 7978W        W80403   0.967  18.559   2.830
 7979W        W80404  10.654  40.446   3.668
 7980W        W80405  31.050  26.515  12.389
 7981W        W80406   9.327  39.950   3.346
 7982W        W80407  27.447  24.705  13.504
 7983W        W80408   9.260  25.121  14.463
 7984W        W80409  27.111   4.709  12.998
 7985W        W80410  36.568  23.494  11.422
 7986W        W80411  13.302  38.499  10.576
 7987W        W80412   3.347  19.179   0.844
 7988W        W80413  23.114  21.201   1.724
 7989W        W80414   5.327  23.232   0.809
 7990W        W80415  36.841   7.737   4.329
 7991W        W80416  10.656  43.300   2.671
 7992W        W80417  42.452   2.912   2.785
 7993W        W80418  26.970   7.850  14.952
 7994W        W80419  41.511   7.269   4.255
 7995W        W80420  30.162  19.172   1.302
 7996W        W80421  18.109   6.331  12.491
 7997W        W80422  17.681  42.828   2.377
 7998W        W80423  25.708  41.982  12.020
 7999W        W80424  32.597  36.914   4.136
 8000W        W80425   7.844   9.870  13.975
 8001W        W80426   4.875  33.512  11.120
 8002W        W80427  11.371  39.816   4.234
 8003W        W80428   5.275  20.623  12.925
 8004W        W80429   3.862  21.174  12.885
 8005W        W80430  12.764  31.436  11.531
 8006W        W80431  37.921  29.030   2.340
 8007W        W80432  11.834  33.041   1.831
 8008W        W80433  21.260   2.348   3.307
 8009W        W80434  34.898  42.459   3.807
 8010W        W80435   0.788  44.994   2.755
 8011W        W80436  20.126  18.670  14.497
 8012W        W80437   3.901   0.342   3.845
 8013W        W80438   0.269  27.168  12.891
 8014W        W80439   9.888   3.776   3.709
 8015W        W80440  35.020  15.220   0.335
 8016W        W80441   5.790   5.823   0.875
 8017W        W80442  34.563   5.905  12.547
 8018W        W80443  37.502  10.294  12.016
 8019W        W80444  11.339   6.839  13.973
 8020W        W80445  44.843   5.811   3.749
 8021W        W80446  35.476  26.602   0.799
 8022W        W80447   7.729  37.994   2.206
 8023W        W80448  29.065  12.821   1.448
 8024W        W80449   4.294  13.614   1.821
 8025W        W80450   2.266  25.092   1.426
 8026W        W80451  16.738  36.923  12.938
 8027W        W80452  13.294   8.801  13.014
 8028W        W80453  20.140  38.528  10.566
 8029W        W80454   9.206  37.490  10.951
 8030W        W80455  18.689  14.662   4.168
 8031W        W80456  37.001  21.098  13.322
 8032W        W80457   1.764  21.643  14.028
 8033W        W80458  16.586  20.161   3.850
 8034W        W80459  19.739  43.766  12.377
 8035W        W80460  28.130  15.154  11.941
 8036W        W80461  38.857  22.127   4.605
 8037W        W80462  34.431  34.593   3.366
 8038W        W80463  26.970  20.580  10.910
 8039W        W80464  12.260  23.220  12.529
 8040W        W80465  21.684  25.582  11.486
 8041W        W80466  16.776  10.776   3.333
 8042W        W80467  39.902  33.449   1.278
 8043W        W80468  22.731  30.650   2.416
 8044W        W80469  22.648  37.998   1.233
 8045W        W80470   7.330  19.671  13.507
 8046W        W80471  26.063  40.432  13.988
 8047W        W80472  10.340  28.033  13.911
 8048W        W80473  27.028  10.861   3.792
 8049W        W80474  42.957  24.716   3.776
 8050W        W80475  15.624  33.497   4.185
 8051W        W80476  43.477  14.619   2.750
 8052W        W80477   7.747  30.053  13.794
 8053W        W80478  35.464  20.667  12.865
 8054W        W80479   8.853  37.487  13.343
 8055W        W80480  35.954  28.646   3.150
 8056W        W80481  31.111  44.460   9.995
 8057W        W80482   1.851  41.336  10.563
 8058W        W80483  25.200  25.138   3.319
 8059W        W80484  23.240  21.222   4.172
 8060W        W80485  18.591   7.392  11.938
 8061W        W80486  29.019   2.340   2.257
 8062W        W80487  19.127  18.272  11.872
 8063W        W80488  14.623  35.002   1.796
 8064W        W80489   5.729  38.411  10.970
 8065W        W80490   3.340   7.751   4.669
 8066W        W80491  31.038  10.382  11.535
 8067W        W80492  22.095  29.641  12.000
 8068W        W80493  14.729  15.649  12.055
 8069W        W80494  39.000   8.287   1.837
 8070W        W80495  38.048   9.271   0.732
 8071W        W80496  21.190  40.378  14.800
 8072W        W80497   8.687  18.597   2.221
 8073W        W80498  22.153   8.319  13.321
 8074W        W80499   6.355  40.824  10.063
 8075W        W80500  38.358  11.854  12.919
 8076W        W80501  32.613  36.421   1.290
 8077W        W80502  24.007  43.357  12.872
 8078W        W80503   3.867  17.078  13.979
 8079W        W80504  43.939   4.896   4.733
 8080W        W80505  13.638  30.440  14.285
 8081W        W80506  18.724  25.631   2.817
 8082W        W80507  18.722   5.247   4.736
 8083W        W80508  22.174   5.826  12.927
 8084W        W80509   4.720   7.747   1.306
 8085W        W80510  20.720  15.736   1.784
 8086W        W80511  11.185   7.797   2.790
 8087W        W80512  16.278   2.261  13.417
 8088W        W80513   6.292  24.108  11.951
 8089W        W80514  43.832   3.284   1.731
 8090W        W80515  32.906  33.013   1.858
 8091W        W80516  33.509  29.077  14.388
 8092W        W80517  40.018  14.295  13.933
 8093W        W80518   4.224  27.528  10.574
 8094W        W80519   8.659  22.528  14.934
 8095W        W80520  20.122  34.924  10.125
 8096W        W80521   1.760  13.691  11.407
 8097W        W80522  33.420  10.680   2.721
 8098W        W80523  34.544   9.153  10.643
 8099W        W80524  35.491   8.362  10.577
 8100W        W80525   6.224  41.315  10.128
 8101W        W80526  18.096  42.326  12.960
 8102W        W80527   8.696  44.276   0.275
 8103W        W80528  28.130  25.635  14.379
 8104W        W80529  32.505   6.203   0.330
 8105W        W80530  13.730  14.665  13.007
 8106W        W80531   3.245   9.776  12.402
 8107W        W80532  29.157  33.567  10.497
 8108W        W80533  44.280   1.746   0.923
 8109W        W80534  29.655  36.943  12.458
 8110W        W80535  18.108  25.031  10.925
 8111W        W80536  15.204   2.812   2.861
 8112W        W80537   6.757  23.107   3.689
 8113W        W80538  19.085   6.346   1.292
 8114W        W80539   5.836   4.325   4.776
 8115W        W80540   5.201  35.889   4.653
 8116W        W80541  23.099   7.878   4.609
 8117W        W80542  44.280   2.294   3.720
 8118W        W80543   0.345  40.349  14.463
 8119W        W80544   9.679   3.889  14.373
 8120W        W80545  40.043   7.242  11.004
 8121W        W80546   9.242   7.879   4.827
 8122W        W80547  25.549   2.343   1.848
 8123W        W80548   6.922  32.451   4.752
 8124W        W80549   0.319   8.360   4.122
 8125W        W80550  32.997  23.542   2.685
 8126W        W80551  15.219  32.531  11.950
 8127W        W80552   5.345  36.574   2.882
 8128W        W80553  28.001   4.266  14.822
 8129W        W80554  13.154  33.048  13.498
 8130W        W80555   1.435  13.137  12.885
 8131W        W80556  21.649  30.038  11.935
 8132W        W80557  27.647  17.262   0.452
 8133W        W80558   6.820  22.552   4.146
 8134W        W80559   9.775  19.198  14.475
 8135W        W80560  10.219  26.603   3.337
 8136W        W80561  31.554  28.525  11.484
 8137W        W80562  20.215   4.210  13.865
 8138W        W80563  40.921  17.074   2.903
 8139W        W80564  39.030  20.253  13.038
 8140W        W80565   4.771  18.653  10.522
 8141W        W80566  12.838  42.445  12.941
 8142W        W80567   7.304  34.106   3.300
 8143W        W80568  29.967  22.007   2.786
 8144W        W80569  38.500  41.380   0.431
 8145W        W80570  40.304  33.898   2.260
 8146W        W80571  40.882  38.945  14.964
 8147W        W80572  10.808  16.637  11.069
 8148W        W80573  44.504  18.119  10.953
 8149W        W80574  19.691  34.090   2.317
 8150W        W80575   2.858  42.807   2.884
 8151W        W80576  22.633   3.922   1.702
 8152W        W80577  29.936   8.173   1.761
 8153W        W80578   4.871  43.414  10.961
 8154W        W80579  14.250  10.653   2.687
 8155W        W80580  41.466   9.722  12.842
 8156W        W80581  17.194  13.288   2.784
 8157W        W80582  34.532  17.186   3.645
 8158W        W80583  32.494   0.828   2.287
 8159W        W80584  24.025  22.598  11.919
 8160W        W80585  25.044   4.249   2.187
 8161W        W80586  15.778   2.960   4.621
 8162W        W80587  35.973  37.397  13.987
 8163W        W80588   3.887  42.876  14.466
 8164W        W80589  20.648   2.406  11.559
 8165W        W80590  18.643  22.194  11.127
 8166W        W80591  24.646  29.112  11.019
 8167W        W80592   0.342  12.646   0.758
 8168W        W80593  22.715  13.612   3.828
 8169W        W80594  24.569  13.831   4.120
 8170W        W80595  24.722  32.547   4.816
 8171W        W80596  42.861  42.026   1.901
 8172W        W80597  14.592  16.673   2.237
 8173W        W80598  34.986  42.480   4.335
 8174W        W80599  19.159  15.084  14.823
 8175W        W80600   5.703  42.785  14.292
 8176W        W80601  20.662  13.306  12.939
 8177W        W80602   1.814   3.459  12.091
 8178W        W80603  27.529  25.584  10.999
 8179W        W80604  36.034  17.563   4.664
 8180W        W80605  15.175  38.487  13.312
 8181W        W80606   0.421  32.963  12.353
 8182W        W80607  21.715   2.324   0.939
 8183W        W80608  25.541   6.229  11.503
 8184W        W80609  35.072  36.924  11.594
 8185W        W80610   0.797  11.781   3.291
 8186W        W80611   5.266  30.063  12.480
 8187W        W80612  15.316  26.691  13.517
 8188W        W80613  24.056  17.784   2.304
 8189W        W80614   2.935   8.277   4.315
 8190W        W80615  22.045  17.571  10.509
 8191W        W80616  25.186  38.973  12.570
 8192W        W80617  43.294  19.231   0.358
 8193W        W80618  36.470  19.649  12.075
 8194W        W80619  14.247  36.383  11.569
 8195W        W80620  30.155   7.329  11.121
 8196W        W80621  13.205  28.009   4.754
 8197W        W80622  21.715  17.110   4.297
 8198W        W80623  20.523  40.827  10.607
 8199W        W80624  32.610  30.099  14.994
 8200W        W80625   4.360  25.069   2.232
 8201W        W80626  13.639  11.352   3.632
 8202W        W80627  35.918   8.842  11.559
 8203W        W80628  27.128  39.829   2.305
 8204W        W80629  16.801   8.673   3.273
 8205W        W80630  20.243  16.681   1.714
 8206W        W80631  35.047  38.996   0.246
 8207W        W80632  16.081  41.798  11.860
 8208W        W80633  31.546  26.145  11.502
 8209W        W80634  37.414  21.686  14.460
 8210W        W80635   0.861   8.881  11.058
 8211W        W80636  11.731   3.314  13.530
 8212W        W80637  24.595   6.403   2.900
 8213W        W80638  32.934  15.788  14.487
 8214W        W80639  25.483  32.614   1.796
 8215W        W80640  44.474  13.141  13.338
 8216W        W80641  36.036  40.020   3.646
 8217W        W80642   4.345   2.295  11.427
 8218W        W80643  18.764  31.976   2.743
 8219W        W80644  26.532  38.881   5.290
 8220W        W80645  37.939  30.456   3.264
 8221W        W80646  33.987  14.191  14.028
 8222W        W80647  24.572   6.403   1.288
 8223W        W80648  15.297  16.301  11.885
 8224W        W80649  15.653  35.490  13.431
 8225W        W80650  19.095  13.231   3.780
 8226W        W80651  33.380  35.940   0.814
 8227W        W80652  30.938   5.748   4.627
 8228W        W80653  11.336  40.031  11.124
 8229W        W80654  29.442  36.987  13.815
 8230W        W80655  43.399  22.634   1.699
 8231W        W80656   0.757  19.705   0.809
 8232W        W80657  14.319  43.416  14.975
 8233W        W80658   4.945   9.718  10.614
 8234W        W80659  41.376  27.970  13.441
 8235W        W80660  29.082  26.972   2.766
 8236W        W80661   3.261  41.807  12.417
 8237W        W80662  21.063   4.770   4.277
 8238W        W80663  36.467  14.714   2.337
 8239W        W80664  41.884  22.585   0.908
 8240W        W80665  44.271   1.287   0.919
 8241W        W80666  37.976  30.581  12.403
 8242W        W80667  34.591  23.648  14.977
 8243W        W80668  24.084  28.661  12.515
 8244W        W80669  12.162  26.978   0.950
 8245W        W80670  31.089  39.468  14.302
 8246W        W80671  19.703   2.862  11.960
 8247W        W80672  27.016  12.736   2.663
 8248W        W80673   2.247   5.736   4.266
 8249W        W80674  31.491  41.013  14.310
 8250W        W80675  16.274  25.624   3.799
 8251W        W80676  29.141   3.405   0.458
 8252W        W80677  19.632  11.864   4.660
 8253W        W80678   9.390  33.939   1.254
 8254W        W80679   8.759  30.948  11.911
 8255W        W80680  24.634  14.215  13.346
 8256W        W80681   5.409  22.590  11.553
 8257W        W80682   6.895  34.052  13.430
 8258W        W80683  34.422  24.987   3.336
 8259W        W80684  40.900  32.465   0.343
 8260W        W80685  36.569  12.781   2.848
 8261W        W80686   1.427  30.640  13.029
 8262W        W80687   4.304  27.574  12.008
 8263W        W80688  15.229  27.661   0.880
 8264W        W80689  39.051  22.090  11.102
 8265W        W80690   2.292  19.745   0.435
 8266W        W80691  34.425  20.589   3.248
 8267W        W80692   9.362  28.160  13.791
 8268W        W80693  12.718  11.806   3.715
 8269W        W80694  17.736   7.297  11.990
 8270W        W80695   1.418  27.988  10.892
 8271W        W80696  20.722  25.017  12.555
 8272W        W80697  43.858  12.130   2.667
 8273W        W80698   4.326  26.100   4.332
 8274W        W80699  36.026  40.878  11.102
 8275W        W80700  29.143  37.470   0.878
 8276W        W80701  41.326  17.206  13.791
 8277W        W80702  15.606  39.901  14.849
 8278W        W80703  20.599   3.873   1.696
 8279W        W80704  13.761  22.189  10.552
 8280W        W80705  27.447  20.595   0.321
 8281W        W80706  31.114  43.407  10.603
 8282W        W80707  14.105  15.645  13.047
 8283W        W80708   1.917  34.449   0.810
 8284W        W80709  30.637  25.007   1.804
 8285W        W80710  30.648  16.585  10.623
 8286W        W80711  15.208  23.734  11.478
 8287W        W80712  17.646  12.752  12.019
 8288W        W80713  41.011  13.816  14.485
 8289W        W80714  17.247  39.946  13.453
 8290W        W80715   4.416  18.627   0.871
 8291W        W80716  17.136   2.263  13.457
 8292W        W80717  15.819   8.365   2.851
 8293W        W80718  28.668   7.299  12.841
 8294W        W80719  19.192  33.426   3.354
 8295W        W80720  44.350  13.236  12.027
 8296W        W80721  35.392  43.870   2.336
 8297W        W80722  15.661  30.057   1.213
 8298W        W80723  10.248  18.294  10.526
 8299W        W80724  15.782  15.308   4.773
 8300W        W80725  25.553   0.863  12.351
 8301W        W80726  44.432  18.561   4.170
 8302W        W80727  24.507   7.666   2.778
 8303W        W80728  29.119   2.465  13.878
 8304W        W80729  36.566  12.630  10.532
 8305W        W80730  44.361   6.856   3.859
 8306W        W80731   7.416   4.440  12.000
 8307W        W80732  31.417  13.780  10.504
 8308W        W80733  13.347  18.576   2.376
 8309W        W80734  17.281  41.859  12.061
 8310W        W80735  24.656  38.395  14.883
 8311W        W80736  27.961  35.107   4.808
 8312W        W80737  29.529   7.882  12.951
 8313W        W80738   8.228  30.118  12.461
 8314W        W80739  44.785  18.672   2.782
 8315W        W80740   8.167   4.367  13.431
 8316W        W80741  20.706   8.887   5.103
 8317W        W80742  15.663  29.512   5.220
 8318W        W80743   7.775  17.739  14.281
 8319W        W80744  22.552   6.370   2.837
 8320W        W80745   5.822  12.781   4.341
 8321W        W80746  35.930  36.532  10.946
 8322W        W80747   6.864   6.806  14.805
 8323W        W80748  17.292  16.151   3.740
 8324W        W80749  15.116   5.827  14.895
 8325W        W80750  39.356   5.757   1.276
 8326W        W80751  32.069  34.403  11.378
 8327W        W80752   5.316  23.164  12.370
 8328W        W80753  18.121  32.053  13.313
 8329W        W80754  40.388  44.493  11.469
 8330W        W80755  42.776  40.523  12.528
 8331W        W80756   5.804   0.789   3.346
 8332W        W80757  35.995  17.782  13.464
 8333W        W80758  43.472  17.686  10.962
 8334W        W80759  43.814  28.944  14.834
 8335W        W80760  13.112   3.458   9.990
 8336W        W80761  23.730  43.308   1.300
 8337W        W80762  10.138  21.121  11.109
 8338W        W80763  18.702  40.815   0.878
 8339W        W80764  18.659  38.552   2.305
 8340W        W80765  25.158  16.614   4.666
 8341W        W80766   2.730  36.405  10.472
 8342W        W80767  35.493  25.488   1.807
 8343W        W80768  36.441  37.580  10.119
 8344W        W80769  23.629  40.014   4.203
 8345W        W80770  37.343   2.872   3.295
 8346W        W80771   2.855  15.150   2.734
 8347W        W80772  36.025  26.509  11.083
 8348W        W80773  31.454  22.208   1.855
 8349W        W80774  18.569  35.899  12.979
 8350W        W80775  38.458   4.881  11.994
 8351W        W80776  37.367  15.685   2.332
 8352W        W80777  31.129  44.376   4.836
 8353W        W80778   1.967  30.153   2.744
 8354W        W80779  42.443  39.415  11.090
 8355W        W80780  22.557  39.363   4.159
 8356W        W80781  30.956  36.978  13.930
 8357W        W80782  38.536  15.622  12.409
 8358W        W80783  25.468   2.733  14.893
 8359W        W80784  39.850  41.837   1.876
 8360W        W80785   7.213   7.368   4.248
 8361W        W80786  39.393  16.309  11.989
 8362W        W80787  25.644  35.975  12.424
 8363W        W80788   7.715  38.325  13.828
 8364W        W80789  41.396  11.341  12.077
 8365W        W80790   7.243   0.865  10.523
 8366W        W80791  34.054  42.947   1.836
 8367W        W80792  27.122  32.512   1.707
 8368W        W80793   3.398  28.509   1.905
 8369W        W80794  35.375  38.921  13.962
 8370W        W80795  25.674   0.252  11.426
 8371W        W80796  11.735  41.018  14.275
 8372W        W80797  29.050  26.052   2.760
 8373W        W80798  20.632   2.282  12.030
 8374W        W80799  16.294   2.259  12.347
 8375W        W80800   5.785  26.187  14.870
 8376W        W80801  15.093  26.527   1.879
 8377W        W80802  27.121  36.001   2.237
 8378W        W80803   6.806  15.799  10.568
 8379W        W80804  32.930   4.746   4.305
 8380W        W80805  21.042  21.171  14.833
 8381W        W80806   6.360   7.284  10.105
 8382W        W80807  25.484  41.949   4.152
 8383W        W80808   8.374  16.271  10.429
 8384W        W80809  17.605   1.845  11.053
 8385W        W80810  18.773   0.759  14.807
 8386W        W80811  30.509  40.805  10.893
 8387W        W80812   9.334   3.461  13.840
 8388W        W80813  14.099  25.214   0.247
 8389W        W80814   2.332  26.167   2.236
 8390W        W80815  14.117   0.963   4.340
 8391W        W80816   1.275  28.500   0.812
 8392W        W80817  39.918  22.225   2.196
 8393W        W80818  12.703  37.028  12.369
 8394W        W80819   3.950  34.001  13.486
 8395W        W80820  21.197  27.068   1.830
 8396W        W80821  38.488   3.385   3.149
 8397W        W80822  18.564  25.579  11.083
 8398W        W80823   6.372  37.843   1.708
 8399W        W80824  35.107  28.576   4.708
 8400W        W80825  29.153  36.353  10.547
 8401W        W80826  12.219   2.273   0.287
 8402W        W80827  21.528  26.660  12.019
 8403W        W80828  19.562  14.595  10.552
 8404W        W80829  29.152  32.412   4.212
 8405W        W80830   6.257  40.486   3.254
 8406W        W80831  17.650  44.776  11.430
 8407W        W80832   0.950   9.776   3.325
 8408W        W80833  34.087  32.528   4.674
 8409W        W80834  10.365   5.288   3.761
 8410W        W80835   6.325   7.745  12.989
 8411W        W80836  11.200  29.927  12.488
 8412W        W80837  34.560  13.805   0.835
 8413W        W80838  20.665   5.334  13.455
 8414W        W80839  34.012  17.570  11.042
 8415W        W80840  38.893   8.190   2.680
 8416W        W80841  18.111   0.889  14.004
 8417W        W80842  34.524  37.868   1.802
 8418W        W80843  13.737  41.850  12.857
 8419W        W80844  35.404  28.522   4.206
 8420W        W80845  25.621  14.598  11.056
 8421W        W80846  15.581  17.626   3.744
 8422W        W80847  40.924  21.519   1.211
 8423W        W80848   7.836  14.763  13.792
 8424W        W80849  21.096   5.798   4.270
 8425W        W80850  35.902  11.813   0.420
 8426W        W80851  13.301  24.121   4.755
 8427W        W80852  23.102  15.249  14.932
 8428W        W80853   2.403   7.329   4.683
 8429W        W80854  10.754   4.837   1.701
 8430W        W80855  23.614   7.731  14.342
 8431W        W80856  18.719  20.640  12.468
 8432W        W80857  13.635  30.007   3.265
 8433W        W80858   9.866  35.597  13.514
 8434W        W80859  35.434  42.326  10.908
 8435W        W80860  40.405   9.272   0.911
 8436W        W80861  37.345  13.301  10.627
 8437W        W80862  11.206  14.743  11.124
 8438W        W80863  15.163   0.783  14.775
 8439W        W80864  13.256  26.109  13.952
 8440W        W80865  43.774  41.030  12.499
 8441W        W80866   3.931  34.472   4.170
 8442W        W80867  13.135  16.094  11.919
 8443W        W80868  19.231  10.327  13.838
 8444W        W80869  43.014   1.869  14.297
 8445W        W80870  11.210  11.666  12.545
 8446W        W80871  21.236  33.429   3.206
 8447W        W80872  23.041   7.831  11.106
 8448W        W80873   2.773  38.885  13.307
 8449W        W80874  41.501  39.507  14.797
 8450W        W80875   1.276  40.030  13.464
 8451W        W80876  40.530  30.448   5.318
 8452W        W80877  14.192   9.668   4.297
 8453W        W80878  15.145  12.144  11.865
 8454W        W80879  28.601  14.812   1.827
 8455W        W80880  33.616  17.070   3.297
 8456W        W80881  13.243  29.492   1.346
 8457W        W80882  36.869  36.510   4.279
 8458W        W80883  36.955   2.745  14.982
 8459W        W80884   3.763  24.646   3.385
 8460W        W80885  25.045  29.492  11.594
 8461W        W80886   4.348  36.946   3.177
 8462W        W80887  38.487  28.971   4.228
 8463W        W80888  33.107  37.548  12.066
 8464W        W80889  20.212  35.103  14.837
 8465W        W80890   9.161  41.414   3.159
 8466W        W80891  34.428  35.366   3.707
 8467W        W80892  10.634  36.019   1.377
 8468W        W80893   3.787  10.138   2.671
 8469W        W80894  27.096  16.784   0.354
 8470W        W80895   7.351  27.646  11.942
 8471W        W80896  23.090  11.210   9.607
 8472W        W80897  27.125  44.309   2.880
 8473W        W80898   3.434  42.466  13.992
 8474W        W80899   9.304  32.955   0.837
 8475W        W80900  41.422  27.669   2.244
 8476W        W80901  34.532  29.073  11.408
 8477W        W80902  27.506  32.568   9.969
 8478W        W80903   8.689   4.747  13.853
 8479W        W80904  41.896  29.575  12.912
 8480W        W80905  34.521  28.515  13.977
 8481W        W80906  30.105   4.373   1.255
 8482W        W80907  13.670   3.423   2.863
 8483W        W80908  10.761   0.460   3.799
 8484W        W80909  35.360  37.925  10.603
 8485W        W80910  43.414  27.671   4.631
 8486W        W80911  38.891  13.773  11.456
 8487W        W80912  27.112  39.519   4.686
 8488W        W80913   7.239   0.974   3.191
 8489W        W80914  22.693  10.722   4.627
 8490W        W80915  10.830   0.445   2.361
 8491W        W80916  29.483  24.615  12.435
 8492W        W80917  35.042  42.458   0.273
 8493W        W80918  26.026  14.806  13.443
 8494W        W80919  34.517  20.718   3.729
 8495W        W80920  21.127  26.119  10.425
 8496W        W80921   5.296  23.999   1.773
 8497W        W80922  20.768  26.575  13.434
 8498W        W80923  17.190  27.165   3.852
 8499W        W80924  24.116  22.007  14.908
 8500W        W80925  12.276  26.625   3.298
 8501W        W80926   5.382  15.101   3.680
 8502W        W80927  13.149   4.240  13.443
 8503W        W80928  14.174  18.139  12.534
 8504W        W80929  35.082  14.215   4.710
 8505W        W80930  44.359  27.099   0.855
 8506W        W80931  43.380  19.667  12.508
 8507W        W80932  20.529  37.552  14.000
 8508W        W80933  32.967   5.851  14.932
 8509W        W80934  43.453  23.683   0.459
 8510W        W80935   7.230   8.658  12.088
 8511W        W80936  20.581  23.071  13.997
 8512W        W80937   7.176   2.761   2.811
 8513W        W80938  13.321  40.359  12.048
 8514W        W80939  21.209  10.749   5.207
 8515W        W80940  39.332   7.321   0.894
 8516W        W80941   0.366  24.627   1.395
 8517W        W80942  12.324  16.810   4.700
 8518W        W80943  18.165   1.341   2.800
 8519W        W80944  34.483  40.362   4.792
 8520W        W80945  11.358  42.982  11.445
 8521W        W80946  27.026  37.838   0.352
 8522W        W80947  10.714   0.351  11.017
 8523W        W80948  27.627  33.420   0.860
 8524W        W80949  35.045  40.317  11.949
 8525W        W80950  18.748  31.071   3.218
 8526W        W80951   7.194  41.992  14.826
 8527W        W80952  16.177  14.273   4.277
 8528W        W80953  33.586  40.973  14.984
 8529W        W80954  33.073   9.300   1.764
 8530W        W80955  18.083   5.780  14.797
 8531W        W80956   5.206  38.382  11.485
 8532W        W80957  33.393   1.401   3.376
 8533W        W80958  13.157  35.871  14.277
 8534W        W80959   3.326  16.619   3.236
 8535W        W80960  38.450  35.495  13.423
 8536W        W80961   8.877  20.073  13.014
 8537W        W80962  44.480  23.588   3.698
 8538W        W80963  28.665  15.220  11.402
 8539W        W80964  12.737  31.024   1.301
 8540W        W80965  16.169  26.957  10.630
 8541W        W80966  26.047  15.241  11.511
 8542W        W80967   7.301   8.282   0.451
 8543W        W80968  32.067  32.480  11.999
 8544W        W80969  13.761  22.548  13.416
 8545W        W80970  35.028  11.306   3.286
 8546W        W80971  38.549   1.828  12.487
 8547W        W80972  35.482  12.653   1.696
 8548W        W80973  12.275  23.224  12.947
 8549W        W80974  26.952  31.924  10.541
 8550W        W80975  13.344  30.940   3.651
 8551W        W80976  23.053  18.261   0.313
 8552W        W80977  44.407   2.801  11.947
 8553W        W80978  39.333  15.162  12.873
 8554W        W80979  36.889  31.616   3.725
 8555W        W80980  19.690  34.101   0.439
 8556W        W80981   1.291  29.948  14.996
 8557W        W80982  31.000   7.335   2.217
 8558W        W80983  12.663  14.613   2.829
 8559W        W80984  32.420  36.520   1.754
 8560W        W80985   5.416  43.894  13.545
 8561W        W80986  23.674  18.680   4.185
 8562W        W80987   6.420  32.435   1.867
 8563W        W80988  10.785   4.804   0.833
 8564W        W80989  14.605  25.541   0.477
 8565W        W80990  34.106  19.154  14.335
 8566W        W80991   6.304  37.467  10.561
 8567W        W80992  25.672  36.569  14.845
 8568W        W80993  35.505  39.994  12.359
 8569W        W80994  27.048  43.800   1.355
 8570W        W80995  36.385   4.844  10.917
 8571W        W80996  22.188  23.681  12.006
 8572W        W80997  31.950  20.642   2.210
 8573W        W80998   0.931  14.217   4.221
 8574W        W80999  18.645  29.174  10.132
 8575W        W81000  32.407  34.927   4.688
 8576W        W81001  37.868  26.992   0.474
 8577W        W81002  41.834  43.916   4.723
 8578W        W81003  16.792  39.361  10.896
 8579W        W81004   6.324  20.738  11.499
 8580W        W81005  24.993  29.065  11.911
 8581W        W81006  33.586   8.223  12.410
 8582W        W81007  41.835   9.306   4.213
 8583W        W81008  34.585  30.472  11.537
 8584W        W81009  26.039  14.187   2.310
 8585W        W81010  24.103  12.837  10.039
 8586W        W81011   9.668   4.898  12.091
 8587W        W81012  25.188  37.418   0.302
 8588W        W81013   6.368   4.260   0.906
 8589W        W81014  42.347  18.148   0.851
 8590W        W81015  39.415  22.731  10.560
 8591W        W81016  18.142   5.757   3.757
 8592W        W81017  39.026  37.367   2.673
 8593W        W81018   0.267  36.977  13.884
 8594W        W81019  38.392  38.534  14.864
 8595W        W81020  14.651  27.543   3.870
 8596W        W81021   6.304  12.613   0.850
 8597W        W81022  13.295  29.536   3.294
 8598W        W81023  22.006  24.559   0.263
 8599W        W81024   2.922  12.283   1.910
 8600W        W81025   4.886   3.942  10.484
 8601W        W81026   0.776  26.531  10.031
 8602W        W81027   4.812   9.236   0.880
 8603W        W81028  10.856  29.621   4.121
 8604W        W81029  38.438  34.084  11.500
 8605W        W81030  40.349  18.172  12.950
 8606W        W81031  39.388  21.147  13.875
 8607W        W81032  38.972  18.632  11.023
 8608W        W81033  30.499  21.106   2.811
 8609W        W81034   6.772  13.773  14.372
 8610W        W81035  10.352   6.354  11.874
 8611W        W81036   2.286   8.213   1.767
 8612W        W81037  34.494  34.026   2.231
 8613W        W81038  22.109  35.379   1.296
 8614W        W81039  23.123   6.814  11.982
 8615W        W81040  40.902   7.836  12.552
 8616W        W81041  19.085  17.295  11.016
 8617W        W81042  31.057  15.688   4.189
 8618W        W81043  26.487  41.906   1.704
 8619W        W81044   7.897  18.271  12.385
 8620W        W81045  24.140  17.704   4.270
 8621W        W81046  32.981  26.648  12.526
 8622W        W81047   3.360  24.602  12.848
 8623W        W81048   2.733  32.093  14.887
 8624W        W81049  30.993  44.381  13.971
 8625W        W81050  17.791  28.564   4.188
 8626W        W81051   2.954  18.177  11.511
 8627W        W81052  31.901   8.375  14.923
 8628W        W81053   5.376  34.968  10.952
 8629W        W81054   7.313  16.281  12.919
 8630W        W81055  44.819  19.196   1.803
 8631W        W81056   0.892   6.758   2.379
 8632W        W81057   5.780   7.809  10.498
 8633W        W81058  11.843  22.549  14.492
 8634W        W81059  28.671  25.518   4.324
 8635W        W81060   7.374  28.501  14.375
 8636W        W81061  13.214  23.089  12.525
 8637W        W81062   0.478  26.966   1.734
 8638W        W81063  11.333  32.983  14.337
 8639W        W81064  25.643  22.125  12.348
 8640W        W81065  44.469   3.834  13.940
 8641W        W81066  10.177  18.210  12.015
 8642W        W81067   4.762   7.261  11.052
 8643W        W81068   3.804   5.390  13.316
 8644W        W81069  43.014   5.351   2.354
 8645W        W81070  18.665  42.780   1.886
 8646W        W81071  10.667  26.966   3.288
 8647W        W81072   5.237  44.295   3.863
 8648W        W81073  31.933  39.557   2.336
 8649W        W81074  37.979   7.847  12.926
 8650W        W81075  40.003  17.255  11.512
 8651W        W81076   4.282  29.023  11.585
 8652W        W81077   5.245  42.001   4.739
 8653W        W81078   9.377  40.993  13.471
 8654W        W81079  38.868   5.763   3.748
 8655W        W81080  36.547  24.022   0.930
 8656W        W81081  25.474  12.244  11.898
 8657W        W81082  17.779  18.103   0.960
 8658W        W81083  28.668  21.169   3.724
 8659W        W81084   6.793  24.072   3.724
 8660W        W81085   7.200  17.251   1.760
 8661W        W81086  40.810  33.115  12.487
 8662W        W81087   8.810   9.393   4.123
 8663W        W81088  28.635   7.817   3.829
 8664W        W81089   5.808  21.142   2.737
 8665W        W81090   4.269  29.051  12.032
 8666W        W81091   6.401  35.375  14.022
 8667W        W81092  26.667  24.493   3.808
 8668W        W81093  27.561  34.030  13.454
 8669W        W81094  29.576  26.638   0.738
 8670W        W81095  28.941  44.875   0.459
 8671W        W81096   1.743  15.637  14.832
 8672W        W81097  38.373  13.774  14.972
 8673W        W81098  26.097  25.160  12.012
 8674W        W81099  21.684   9.722   3.315
 8675W        W81100   9.815   7.330  11.496
 8676W        W81101  35.493  30.503  10.936
 8677W        W81102  41.372   8.841  13.454
 8678W        W81103  12.271  41.999   2.249
 8679W        W81104  33.548  29.610  11.084
 8680W        W81105  32.097  43.378  12.541
 8681W        W81106  42.930  23.046  14.377
 8682W        W81107  34.607  13.119  12.015
 8683W        W81108   9.733   8.304   4.235
 8684W        W81109  34.481  21.558  12.026
 8685W        W81110  20.042   9.687  13.039
 8686W        W81111  26.664  15.762  12.078
 8687W        W81112  20.101   8.881  10.515
 8688W        W81113  20.601   7.237   4.756
 8689W        W81114  10.142   9.857  13.984
 8690W        W81115  26.002  22.151  10.563
 8691W        W81116   9.812  40.367   2.678
 8692W        W81117  33.403  29.608   1.701
 8693W        W81118   8.862  11.757   0.459
 8694W        W81119  42.501   2.950   3.699
 8695W        W81120  33.582  15.659   4.790
 8696W        W81121  16.701   3.844  12.866
 8697W        W81122  13.811  35.386  14.995
 8698W        W81123  27.586  17.750   4.133
 8699W        W81124  24.585   8.850  11.524
 8700W        W81125  16.627   3.244   0.781
 8701W        W81126  24.501   4.346  11.458
 8702W        W81127  31.154  38.891   4.315
 8703W        W81128  29.079  28.134  14.388
 8704W        W81129  35.970  42.987  11.008
 8705W        W81130  10.876   5.433  10.964
 8706W        W81131  15.156  28.046   2.731
 8707W        W81132   4.762  39.001   2.216
 8708W        W81133  17.671  26.203  14.848
 8709W        W81134  19.174  11.159  10.575
 8710W        W81135  33.604  18.720  13.058
 8711W        W81136  22.018  21.175   3.230
 8712W        W81137  43.322   3.376   5.187
 8713W        W81138  44.436  10.669   4.649
 8714W        W81139  36.545   8.773   2.293
 8715W        W81140   9.807  31.975  11.910
 8716W        W81141  16.093  37.923   2.806
 8717W        W81142  41.843  41.372   4.335
 8718W        W81143  12.315  11.237   2.685
 8719W        W81144  19.545  32.417  12.517
 8720W        W81145  44.761  15.665   0.449
 8721W        W81146  15.329  22.224  10.895
 8722W        W81147  20.745  18.174   1.843
 8723W        W81148  10.665   7.838  11.908
 8724W        W81149  38.568  27.185  14.369
 8725W        W81150  16.682  12.681   4.775
 8726W        W81151  27.961  33.934   0.251
 8727W        W81152  13.230  13.845   0.886
 8728W        W81153  32.101  44.397   4.650
 8729W        W81154   8.258   8.405  12.404
 8730W        W81155  27.683  26.995   4.285
 8731W        W81156  43.419   1.840   1.366
 8732W        W81157  25.578  24.043   4.329
 8733W        W81158  23.063  16.577  14.914
 8734W        W81159  18.614  27.665   4.253
 8735W        W81160  39.890  33.910   2.839
 8736W        W81161  26.609  17.611  12.518
 8737W        W81162  42.793  31.454   0.773
 8738W        W81163  34.510  12.255   3.167
 8739W        W81164   7.871  12.661  11.508
 8740W        W81165  25.697  15.783  11.497
 8741W        W81166  42.020  18.709  12.994
 8742W        W81167  10.285  32.966   2.754
 8743W        W81168   9.390   6.399  11.479
 8744W        W81169   2.360  18.291   0.950
 8745W        W81170  18.160  30.909  13.990
 8746W        W81171  41.432  14.668   4.205
 8747W        W81172   9.342   2.238  13.794
 8748W        W81173  23.593  21.163  11.856
 8749W        W81174  37.953  10.871  14.331
 8750W        W81175   2.256  20.142   4.687
 8751W        W81176  20.558   1.271  11.063
 8752W        W81177  43.514   8.671  14.433
 8753W        W81178  20.575  21.257  11.475
 8754W        W81179   9.707   3.751   3.202
 8755W        W81180   6.795  19.270   4.275
 8756W        W81181   4.777  28.569  14.948
 8757W        W81182  26.961  13.229  14.780
 8758W        W81183  30.011   8.868  14.351
 8759W        W81184   0.410  39.836  13.820
 8760W        W81185  31.582  25.561   4.299
 8761W        W81186  31.126  40.040  13.861
 8762W        W81187  32.018   2.346   5.085
 8763W        W81188  35.956   5.694   2.674
 8764W        W81189  40.325  16.301   2.350
 8765W        W81190   8.237  37.857  14.926
 8766W        W81191  27.502  36.384   4.793
 8767W        W81192  44.855  21.235   1.822
 8768W        W81193   9.237   4.381   3.682
 8769W        W81194  23.010  18.684  14.422
 8770W        W81195  34.940  30.957   4.823
 8771W        W81196  23.510  26.618   2.843
 8772W        W81197  44.988  12.822   0.775
 8773W        W81198   1.237  26.027  12.431
 8774W        W81199  14.263  31.602   4.161
 8775W        W81200   5.812  44.996   4.665
 8776W        W81201  37.488  41.842   1.748
 8777W        W81202  34.880  17.255   2.678
 8778W        W81203  25.649  32.600  12.921
 8779W        W81204  36.388  26.578   0.480
 8780W        W81205   5.924  41.968  10.895
 8781W        W81206   3.889  13.332  10.536
 8782W        W81207  14.819  38.498  12.549
 8783W        W81208  14.783  41.528  13.406
 8784W        W81209  25.596  17.744  14.011
 8785W        W81210  42.354  13.243  14.366
 8786W        W81211  15.707  10.379  13.426
 8787W        W81212  29.046  28.445   1.337
 8788W        W81213  22.130  24.000  14.767
 8789W        W81214   7.741  10.256  14.476
 8790W        W81215  31.492  32.425  10.901
 8791W        W81216   3.729   9.187   1.389
 8792W        W81217  27.075  25.483   3.795
 8793W        W81218  25.187  20.602  10.573
 8794W        W81219  12.134   7.265   1.338
 8795W        W81220  25.176  26.557   5.141
 8796W        W81221  24.195  36.059  14.936
 8797W        W81222   4.844   8.862   0.903
 8798W        W81223  26.127  17.177   1.393
 8799W        W81224  26.536  13.269  13.052
 8800W        W81225  39.947  23.599   2.281
 8801W        W81226  15.292  23.071  13.829
 8802W        W81227   9.717   4.774  10.579
 8803W        W81228  16.298   2.879  11.438
 8804W        W81229  32.058  12.666   0.803
 8805W        W81230  23.610  21.526   0.927
 8806W        W81231   2.845  23.500  12.090
 8807W        W81232  12.184  28.026  12.559
 8808W        W81233  32.632  31.543  10.532
 8809W        W81234  27.660  26.640  10.403
 8810W        W81235  26.600   4.900   2.813
 8811W        W81236  31.498  15.167   1.703
 8812W        W81237   8.326  39.410  14.305
 8813W        W81238  11.279   5.919  14.971
 8814W        W81239  34.865  40.938  12.831
 8815W        W81240  31.034  14.224   0.917
 8816W        W81241  15.264  21.112  10.971
 8817W        W81242   1.258   7.737  11.049
 8818W        W81243   1.819  40.526  13.378
 8819W        W81244  26.058  35.955  13.809
 8820W        W81245   1.768   2.887   3.286
 8821W        W81246  21.734  24.502  10.445
 8822W        W81247  37.936  23.227   5.171
 8823W        W81248  37.023  17.218  12.066
 8824W        W81249  38.566  37.428  10.019
 8825W        W81250  27.953  16.125   2.314
 8826W        W81251  13.843  12.730  11.549
 8827W        W81252   1.849  43.995   1.753
 8828W        W81253  15.329   0.899  10.568
 8829W        W81254  11.774  24.016   3.298
 8830W        W81255   0.748  28.181   9.957
 8831W        W81256   7.210  27.082  14.301
 8832W        W81257  18.585  12.765   2.324
 8833W        W81258   6.319  41.819   3.363
 8834W        W81259   6.724  13.237   0.300
 8835W        W81260  42.777  39.853   3.813
 8836W        W81261  39.475  35.538  13.322
 8837W        W81262   3.280  10.722  12.905
 8838W        W81263   4.916  30.448   0.301
 8839W        W81264  18.594  31.904   9.948
 8840W        W81265  32.999  39.862  11.499
 8841W        W81266  37.867  35.412  11.422
 8842W        W81267  22.568  13.178   4.618
 8843W        W81268  33.111  37.429   0.934
 8844W        W81269  34.056   3.451  14.513
 8845W        W81270  44.965  39.030   1.286
 8846W        W81271  12.200  21.136  13.994
 8847W        W81272  25.565   4.937  10.587
 8848W        W81273  25.145  40.362  14.287
 8849W        W81274  37.016  38.537   0.951
 8850W        W81275  10.855  14.194   3.835
 8851W        W81276  29.611  40.369  14.315
 8852W        W81277  31.442  11.717   1.422
 8853W        W81278  23.006  18.291  11.874
 8854W        W81279  18.752  26.983  10.484
 8855W        W81280  24.717  29.009   3.753
 8856W        W81281  19.268  18.245  14.321
 8857W        W81282   6.186  10.258  13.000
 8858W        W81283   1.424  25.555   1.404
 8859W        W81284   3.248   6.767   2.741
 8860W        W81285  44.766  35.460   4.678
 8861W        W81286  35.575  35.385   3.292
 8862W        W81287  35.102  10.669  11.543
 8863W        W81288  12.647  20.158   2.731
 8864W        W81289  42.318  37.910   4.264
 8865W        W81290  23.056  44.486   1.435
 8866W        W81291  34.060  36.867   4.667
 8867W        W81292  35.995  22.714  13.897
 8868W        W81293   2.764  29.981   4.171
 8869W        W81294   5.900   6.709  10.979
 8870W        W81295  18.129  17.248   2.665
 8871W        W81296  16.666  33.028  10.523
 8872W        W81297  37.061   5.336  11.099
 8873W        W81298  29.110  21.231   1.892
 8874W        W81299   6.836  11.238  13.470
 8875W        W81300  21.075  19.171  13.342
 8876W        W81301  29.549  42.969  10.159
 8877W        W81302  37.966  22.086  10.921
 8878W        W81303  28.032  33.932  11.889
 8879W        W81304  34.069  37.018  11.444
 8880W        W81305   0.844  43.801  14.972
 8881W        W81306  20.757  31.093  10.442
 8882W        W81307  14.814  32.073   1.796
 8883W        W81308   9.237  41.800   1.284
 8884W        W81309  21.137  36.980  13.416
 8885W        W81310  38.872  38.524   5.242
 8886W        W81311  38.434  29.012   4.690
 8887W        W81312  20.616  34.086   1.839
 8888W        W81313  44.866  15.221  13.983
 8889W        W81314  39.935   0.313   9.453
 8890W        W81315  31.901  13.147  12.076
 8891W        W81316  16.710  28.526  11.990
 8892W        W81317  26.495  21.544   3.664
 8893W        W81318  39.525  40.052   2.789
 8894W        W81319  30.109  18.073   2.774
 8895W        W81320  10.686  37.513   0.966
 8896W        W81321  27.690  39.030  13.323
 8897W        W81322   1.879   6.351  14.279
 8898W        W81323  16.184  15.697  12.914
 8899W        W81324  18.131  12.780  14.878
 8900W        W81325  37.541  16.671  13.448
 8901W        W81326  33.044  22.744   3.220
 8902W        W81327   0.425  17.672  14.281
 8903W        W81328  26.668   7.811   3.826
 8904W        W81329   1.732   5.335  13.489
 8905W        W81330  35.542   5.744  11.991
 8906W        W81331  36.444   4.914   0.777
 8907W        W81332  33.586   9.856   0.777
 8908W        W81333   7.249  39.365  11.435
 8909W        W81334  29.017  12.712  10.475
 8910W        W81335  39.486  19.266  11.051
 8911W        W81336  35.942  10.793   3.160
 8912W        W81337  28.077  25.194  14.806
 8913W        W81338  41.479   8.165  13.956
 8914W        W81339  15.745  17.267   0.475
 8915W        W81340   5.730  13.248   4.731
 8916W        W81341   7.878   7.348  14.436
 8917W        W81342  14.219   6.797  13.321
 8918W        W81343  27.588  26.050   3.316
 8919W        W81344   1.472  24.532   4.199
 8920W        W81345  18.720  42.853  13.423
 8921W        W81346  38.925  21.168  11.982
 8922W        W81347  27.141   2.871  12.469
 8923W        W81348  17.088  31.921  13.800
 8924W        W81349   1.890  12.208  11.075
 8925W        W81350  34.887  25.650   1.743
 8926W        W81351  43.794  30.567   3.346
 8927W        W81352  44.403  18.790  10.150
 8928W        W81353   4.290  25.542  10.484
 8929W        W81354  24.973  16.608   3.283
 8930W        W81355  44.439  38.344   1.440
 8931W        W81356  37.458   6.334  12.345
 8932W        W81357  29.940  32.478   5.799
 8933W        W81358  43.005  26.951  14.275
 8934W        W81359  25.515  11.861  14.476
 8935W        W81360  15.822  24.579   3.691
 8936W        W81361  15.150  19.769  10.924
 8937W        W81362  36.962  18.160   0.836
 8938W        W81363  12.340   0.309   4.318
 8939W        W81364  24.141   2.254   1.929
 8940W        W81365  44.273  11.810   0.260
 8941W        W81366  14.323  36.082   0.927
 8942W        W81367  30.056  16.796   4.699
 8943W        W81368  38.988  41.869  11.947
 8944W        W81369   5.393  12.721  14.896
 8945W        W81370  22.646  19.744   2.269
 8946W        W81371  41.502  27.560   0.861
 8947W        W81372  28.639  43.014  12.493
 8948W        W81373  33.534  15.314   4.290
 8949W        W81374  43.910  29.965  12.834
 8950W        W81375  10.217  10.224  11.858
 8951W        W81376   4.781  44.943  13.874
 8952W        W81377  11.263  10.676  11.532
 8953W        W81378   4.715  43.501  12.927
 8954W        W81379  16.741  15.690  13.457
 8955W        W81380   7.912  44.991   2.404
 8956W        W81381  27.002  42.311  13.391
 8957W        W81382  32.947   9.855  12.514
 8958W        W81383   4.864  38.468  11.459
 8959W        W81384  33.498  21.033   0.271
 8960W        W81385  30.634  40.017   2.889
 8961W        W81386  15.664  38.951   1.422
 8962W        W81387  12.749  12.743  14.002
 8963W        W81388  38.461  20.183   0.916
 8964W        W81389  21.083   8.310  12.847
 8965W        W81390  27.197  35.040   3.232
 8966W        W81391  15.691  38.543  14.774
 8967W        W81392  34.419  39.374  12.092
 8968W        W81393  17.569  33.551  14.365
 8969W        W81394  19.717  10.727   2.246
 8970W        W81395  35.103   8.270  13.808
 8971W        W81396  41.403  29.659   4.642
 8972W        W81397  35.943  36.863  13.016
 8973W        W81398  14.259  14.221   4.694
 8974W        W81399  32.602  18.718   5.112
 8975W        W81400  36.044  44.422  12.370
 8976W        W81401  28.665  24.678   0.788
 8977W        W81402   2.364  43.310   4.732
 8978W        W81403   5.393  23.053   0.434
 8979W        W81404  41.035   7.292   1.902
 8980W        W81405  31.110  35.578   1.735
 8981W        W81406  32.548  10.155   1.222
 8982W        W81407   1.819  19.078   0.802
 8983W        W81408  31.519  29.508   4.116
 8984W        W81409  27.490  14.197   4.264
 8985W        W81410   8.676  28.586  14.948
 8986W        W81411   6.910  35.963  14.508
 8987W        W81412  33.468  32.612  11.959
 8988W        W81413  38.557  18.694  14.290
 8989W        W81414  33.430   6.373  12.369
 8990W        W81415  34.020  31.586  12.048
 8991W        W81416   6.821  22.547  13.045
 8992W        W81417  10.265  32.416  10.619
 8993W        W81418  22.187  27.462  12.563
 8994W        W81419  43.009  15.219  10.484
 8995W        W81420  41.891  17.731   1.705
 8996W        W81421  15.291  26.623  14.353
 8997W        W81422  34.433  43.839   0.811
 8998W        W81423  43.490  42.877  11.086
 8999W        W81424  31.061  17.257  13.039
 9000W        W81425   6.700  37.352  11.561
 9001W        W81426  19.204   6.271   0.936
 9002W        W81427  11.670  19.281   4.605
 9003W        W81428  11.167  39.018   1.210
 9004W        W81429  43.922  32.569   2.815
 9005W        W81430  31.492  33.476  14.489
 9006W        W81431   1.762   5.263  11.124
 9007W        W81432  26.466  21.652  13.505
 9008W        W81433   2.925  20.662  12.982
 9009W        W81434  24.602  34.023   1.861
 9010W        W81435   2.791  18.070   2.742
 9011W        W81436  20.039  33.953  13.390
 9012W        W81437  26.497  29.037  11.456
 9013W        W81438  30.526   7.289  13.806
 9014W        W81439  11.327   0.744   1.421
 9015W        W81440  14.697  27.046  12.579
 9016W        W81441  43.947  33.881   3.225
 9017W        W81442  40.911   6.890  12.064
 9018W        W81443  26.548  36.073   3.360
 9019W        W81444   5.300  26.136  10.476
 9020W        W81445  42.327   1.853  11.495
 9021W        W81446   1.278  27.674  10.912
 9022W        W81447  40.392   5.787   4.738
 9023W        W81448  27.499  24.541  14.920
 9024W        W81449   5.355  28.011  12.961
 9025W        W81450  43.478  44.331  14.374
 9026W        W81451  21.118  30.970  11.385
 9027W        W81452  21.713  36.933  10.993
 9028W        W81453  30.525  41.310   2.378
 9029W        W81454  25.554  23.505   4.769
 9030W        W81455  37.075  39.950   0.320
 9031W        W81456  23.640  40.339   4.330
 9032W        W81457  10.769  12.840   2.849
 9033W        W81458  39.385  44.476   1.316
 9034W        W81459   3.941  25.689  13.371
 9035W        W81460  14.784  17.100   0.941
 9036W        W81461  13.193  12.319  10.526
 9037W        W81462  35.996  12.246  13.398
 9038W        W81463  32.560  39.401   2.766
 9039W        W81464  21.184  37.472  14.937
 9040W        W81465  23.112   0.310   1.229
 9041W        W81466  29.117  12.332  13.839
 9042W        W81467  43.798  30.653   0.400
 9043W        W81468  14.212  21.126   3.378
 9044W        W81469  27.951   7.818  10.939
 9045W        W81470  25.476  18.254   3.741
 9046W        W81471  13.639  24.514   2.868
 9047W        W81472  19.259  25.587  14.466
 9048W        W81473  38.457  11.625  10.889
 9049W        W81474  26.633   4.904  14.319
 9050W        W81475  44.317  30.548   9.940
 9051W        W81476  42.407   5.407  12.444
 9052W        W81477  42.908  42.495  14.945
 9053W        W81478  34.608  38.020  10.894
 9054W        W81479  13.219  36.457  14.863
 9055W        W81480   6.218  11.861   3.776
 9056W        W81481   3.722  43.898  13.846
 9057W        W81482  32.921   1.303   2.276
 9058W        W81483  14.740  41.399   2.224
 9059W        W81484  35.097  21.264  14.968
 9060W        W81485  14.833  39.323   2.857
 9061W        W81486  44.973  18.215  12.859
 9062W        W81487  23.217  28.153   0.793
 9063W        W81488  41.524  35.048  14.014
 9064W        W81489  23.159  43.919   4.164
 9065W        W81490   4.274   0.297  10.514
 9066W        W81491  20.652  42.984   1.770
 9067W        W81492  32.508  21.164   0.396
 9068W        W81493   1.277  12.818  11.030
 9069W        W81494  41.940   2.894  12.924
 9070W        W81495   0.812  44.260   4.799
 9071W        W81496   3.718   2.425  10.997
 9072W        W81497   4.251  41.859  11.039
 9073W        W81498   2.740  43.879  11.486
 9074W        W81499  43.871  42.001  11.560
 9075W        W81500  19.761  12.280   4.711
 9076W        W81501   7.193  42.970  12.541
 9077W        W81502  11.730  33.490  14.811
 9078W        W81503   0.841  14.731  14.884
 9079W        W81504  15.298  44.286  10.410
 9080W        W81505  25.481  11.630   0.895
 9081W        W81506   8.827  27.602  14.000
 9082W        W81507  38.956   2.288  11.416
 9083W        W81508  39.951  10.819   1.400
 9084W        W81509  28.015  34.105   0.822
 9085W        W81510  20.175  13.645  13.845
 9086W        W81511   2.393  31.471   0.294
 9087W        W81512  17.163  34.460  11.049
 9088W        W81513  41.828  24.714   1.262
 9089W        W81514  21.135  42.845   5.121
 9090W        W81515  32.447  33.046   2.662
 9091W        W81516  35.083  24.154  12.441
 9092W        W81517  36.027  11.645  10.488
 9093W        W81518  21.100  18.650   0.841
 9094W        W81519  26.456   1.383   4.282
 9095W        W81520   8.710   5.819  14.007
 9096W        W81521  18.101   3.354  11.930
 9097W        W81522  33.489   4.837  13.011
 9098W        W81523  44.408  10.211  11.985
 9099W        W81524  24.091  34.597   4.354
 9100W        W81525  18.284   2.815  11.075
 9101W        W81526  44.809  25.684  14.775
 9102W        W81527  16.207  36.072  12.909
 9103W        W81528   5.401   7.214  11.996
 9104W        W81529  19.041  34.530   4.649
 9105W        W81530   0.439  34.414   4.623
 9106W        W81531  39.972  29.098  10.513
 9107W        W81532  34.496  31.585   3.648
 9108W        W81533  29.918   4.815   4.126
 9109W        W81534  42.007  42.777  13.024
 9110W        W81535  36.405  35.580  13.861
 9111W        W81536  17.126   5.385  13.847
 9112W        W81537  38.977  11.246  13.944
 9113W        W81538   5.423  20.744  13.418
 9114W        W81539  31.965   9.273  13.355
 9115W        W81540  40.925  41.295   2.877
 9116W        W81541   7.339  10.853  11.484
 9117W        W81542  27.998   2.724   4.302
 9118W        W81543  28.022   8.799  13.815
 9119W        W81544  37.495  17.133   0.286
 9120W        W81545  23.546  38.447  12.876
 9121W        W81546  28.074  43.356   2.350
 9122W        W81547   1.478  37.389  13.383
 9123W        W81548  21.101  18.201  14.311
 9124W        W81549   4.727  26.101  11.873
 9125W        W81550   2.960  10.294   2.681
 9126W        W81551  21.736  15.281  11.538
 9127W        W81552  14.168  44.340  11.476
 9128W        W81553  33.128  10.695  11.406
 9129W        W81554  30.413   0.306   1.887
 9130W        W81555  11.737  11.822   4.211
 9131W        W81556   1.277  37.445   0.769
 9132W        W81557  32.943  21.049  11.417
 9133W        W81558  35.432  25.611   3.737
 9134W        W81559  35.108  32.582   2.233
 9135W        W81560  30.508  27.479  14.359
 9136W        W81561  26.981  40.980  12.469
 9137W        W81562   3.244  37.009   2.394
 9138W        W81563  40.880   1.368  14.281
 9139W        W81564  37.979  41.952  13.420
 9140W        W81565  23.177  43.984   0.934
 9141W        W81566   3.863  33.989  14.423
 9142W        W81567   2.751   8.729  10.464
 9143W        W81568  19.116  37.993  12.362
 9144W        W81569   4.785  30.951  11.872
 9145W        W81570  15.204  24.646   4.692
 9146W        W81571  26.974  12.755   3.693
 9147W        W81572   5.846   2.818   0.358
 9148W        W81573  22.598  40.337   1.768
 9149W        W81574  35.019  43.404   0.260
 9150W        W81575  21.166  38.396   2.670
 9151W        W81576  25.585  30.515  10.148
 9152W        W81577  41.809  32.515   1.782
 9153W        W81578   3.719  11.146  13.823
 9154W        W81579  29.627  31.026  13.351
 9155W        W81580   9.781  35.535   3.814
 9156W        W81581  30.623   0.811  10.426
 9157W        W81582  23.588  43.951  10.442
 9158W        W81583   9.658  20.599  12.947
 9159W        W81584  21.648   3.343  11.879
 9160W        W81585  21.635   7.262   4.735
 9161W        W81586  20.217  21.521  13.342
 9162W        W81587   5.934   4.331   2.674
 9163W        W81588  30.969  12.659  10.954
 9164W        W81589   6.227  21.706  14.957
 9165W        W81590   0.818  38.983  13.980
 9166W        W81591  39.892  27.175  10.966
 9167W        W81592  21.155  34.038  12.012
 9168W        W81593  16.157  40.901   3.155
 9169W        W81594  32.046  40.479  11.561
 9170W        W81595  39.451  18.714  11.600
 9171W        W81596  35.401   5.211   3.298
 9172W        W81597  40.872  39.397  11.590
 9173W        W81598  16.167  36.465   4.260
 9174W        W81599  20.166  31.109  11.376
 9175W        W81600   8.803  43.353   4.161
 9176W        W81601  34.447   3.817  13.030
 9177W        W81602  12.300  24.186   5.780
 9178W        W81603   4.732  25.197  12.388
 9179W        W81604  25.137   6.893  13.415
 9180W        W81605  19.564   7.675   0.854
 9181W        W81606  41.948  37.454   2.200
 9182W        W81607  12.212  10.337   1.895
 9183W        W81608  33.874   1.394  11.381
 9184W        W81609  31.585  31.929  12.359
 9185W        W81610   6.709  37.076   0.838
 9186W        W81611   8.798  36.844   3.169
 9187W        W81612  16.767   9.279   0.740
 9188W        W81613   5.696  25.691  10.563
 9189W        W81614  35.374  17.113  12.353
 9190W        W81615  37.367   2.733  12.946
 9191W        W81616  10.757  37.514   5.259
 9192W        W81617   0.383  42.927   2.696
 9193W        W81618  32.915  27.613   4.752
 9194W        W81619  28.974  10.161   0.912
 9195W        W81620  28.580   2.880  13.531
 9196W        W81621  35.572   2.839  12.969
 9197W        W81622  19.613   0.903  12.850
 9198W        W81623  22.730  26.086  11.112
 9199W        W81624   7.171  27.046   1.840
 9200W        W81625  17.663  43.931  11.857
 9201W        W81626  44.898  12.777   3.256
 9202W        W81627  37.400  23.191  12.009
 9203W        W81628  14.176  16.613   2.321
 9204W        W81629  20.746  42.796  12.092
 9205W        W81630  10.201  43.473   4.172
 9206W        W81631  32.042  29.154   1.326
 9207W        W81632  12.650  15.176   3.253
 9208W        W81633  18.743   6.689  11.968
 9209W        W81634  28.478  32.122   2.316
 9210W        W81635   5.699  26.500   3.789
 9211W        W81636   3.256  27.013  13.889
 9212W        W81637  22.246   5.299   1.286
 9213W        W81638  19.575  31.595  10.582
 9214W        W81639  18.643  42.469  13.478
 9215W        W81640   6.372  20.231   1.425
 9216W        W81641  33.970  34.902  13.403
 9217W        W81642   0.254   8.792  10.449
 9218W        W81643  29.452  33.565  12.951
 9219W        W81644  27.562  28.607  11.579
 9220W        W81645   0.941  26.188  12.558
 9221W        W81646   6.849  21.700  11.509
 9222W        W81647  37.455  13.159   2.712
 9223W        W81648  19.155  28.969  13.333
 9224W        W81649  20.259   8.229   2.889
 9225W        W81650   3.376  21.133  10.447
 9226W        W81651  11.835  38.875  13.944
 9227W        W81652  12.660  37.977  13.869
 9228W        W81653   7.795   6.195   2.295
 9229W        W81654  36.568  43.977   1.288
 9230W        W81655  43.326  17.650  12.455
 9231W        W81656   7.343  29.548  13.016
 9232W        W81657  39.017   0.803   1.368
 9233W        W81658  30.107   2.349   3.780
 9234W        W81659  21.123  25.167   3.656
 9235W        W81660  36.998  44.851   4.711
 9236W        W81661  43.490  24.140  10.025
 9237W        W81662  43.819  35.575   4.680
 9238W        W81663   0.870  20.224   4.648
 9239W        W81664  10.185  38.399  11.387
 9240W        W81665  21.719  16.791  13.856
 9241W        W81666  14.591  25.566   3.316
 9242W        W81667  32.077  21.718   2.879
 9243W        W81668  28.443  15.309  14.914
 9244W        W81669  37.418  43.771  11.985
 9245W        W81670  21.521  31.985   1.893
 9246W        W81671  41.850   6.282  13.361
 9247W        W81672  10.800  14.143  13.397
 9248W        W81673  32.407  25.107   4.676
 9249W        W81674  42.790   9.328  14.406
 9250W        W81675   2.966   8.900  12.086
 9251W        W81676  21.198  10.194  14.856
 9252W        W81677  17.066   5.831   0.367
 9253W        W81678  43.863   6.821  14.516
 9254W        W81679   6.397  42.790   4.806
 9255W        W81680  24.007  21.605  11.514
 9256W        W81681  23.533  35.884   0.901
 9257W        W81682  36.506   6.377  10.932
 9258W        W81683  38.851   6.182   1.885
 9259W        W81684  13.324   2.795   4.793
 9260W        W81685  44.996  13.599   0.273
 9261W        W81686  43.953   1.911  12.427
 9262W        W81687  36.447  42.356  14.447
 9263W        W81688   5.844  14.284  13.523
 9264W        W81689  25.573  33.388  13.449
 9265W        W81690   7.734   6.771  11.021
 9266W        W81691  39.882  28.167  12.850
 9267W        W81692   1.758  34.383  14.453
 9268W        W81693   5.902  35.941   3.801
 9269W        W81694  15.784  41.368   2.340
 9270W        W81695  16.272  17.201   4.631
 9271W        W81696  14.590   4.814  13.839
 9272W        W81697  44.937  28.948  14.443
 9273W        W81698   3.743   5.312   3.305
 9274W        W81699   3.231  24.079   5.250
 9275W        W81700  36.413  31.027  12.418
 9276W        W81701  18.183  41.442  14.872
 9277W        W81702  41.484   2.258   2.376
 9278W        W81703  32.949   3.764   4.675
 9279W        W81704  33.517  25.994   0.747
 9280W        W81705  27.669  22.140   1.838
 9281W        W81706  12.646  38.986   4.160
 9282W        W81707  13.179  42.977   4.185
 9283W        W81708   3.828  24.995  11.857
 9284W        W81709   4.375  33.073   0.824
 9285W        W81710  17.657  36.920   0.368
 9286W        W81711   3.401  28.115   2.762
 9287W        W81712  13.799  16.782  12.038
 9288W        W81713  35.583   1.324   1.935
 9289W        W81714  42.520  39.047   3.802
 9290W        W81715  28.534  20.753   4.695
 9291W        W81716  22.127  23.517   2.673
 9292W        W81717   8.893  26.171  10.537
 9293W        W81718  10.378   9.348  11.042
 9294W        W81719  17.588  32.629   2.773
 9295W        W81720  43.916  19.116  12.547
 9296W        W81721  26.504   7.228  13.501
 9297W        W81722  28.629  22.070   4.671
 9298W        W81723  38.478  11.329  14.956
 9299W        W81724  37.387  17.764  11.591
 9300W        W81725   9.332  10.828  11.890
 9301W        W81726   3.730  32.423   3.180
 9302W        W81727  35.908  34.371   2.897
 9303W        W81728   4.331   5.398   0.858
 9304W        W81729  32.507  23.713   4.640
 9305W        W81730  23.099  20.567  11.586
 9306W        W81731  12.784   0.828   2.236
 9307W        W81732   9.383  23.207   4.741
 9308W        W81733  12.339   0.909  14.337
 9309W        W81734  42.003  19.232   0.358
 9310W        W81735  19.249  34.947  10.945
 9311W        W81736  36.524   0.475  13.925
 9312W        W81737  33.440   3.267  14.024
 9313W        W81738  35.602   6.717   2.355
 9314W        W81739  28.105  28.577  11.482
 9315W        W81740  44.846  29.145  11.567
 9316W        W81741  17.637  22.531  12.378
 9317W        W81742   8.338  28.144  14.331
 9318W        W81743  11.365  34.971   1.723
 9319W        W81744  35.455  11.642   2.790
 9320W        W81745  36.580   8.893  13.499
 9321W        W81746  28.018  29.137   3.381
 9322W        W81747  25.693  41.843  13.470
 9323W        W81748  24.231  43.330  10.635
 9324W        W81749  38.454  36.480   0.275
 9325W        W81750  11.361  41.995   3.800
 9326W        W81751   7.671  33.426  12.962
 9327W        W81752  33.484  17.212   0.878
 9328W        W81753  17.224   5.333   0.440
 9329W        W81754   8.176  40.506   3.355
 9330W        W81755   8.666   2.258  13.399
 9331W        W81756  16.099  22.016   1.264
 9332W        W81757  11.861   7.335  10.474
 9333W        W81758  30.160  18.567   3.761
 9334W        W81759   1.973  29.073  13.975
 9335W        W81760  23.197  16.681  14.029
 9336W        W81761  42.515  19.678   0.370
 9337W        W81762   1.957   8.753  12.087
 9338W        W81763  13.336  17.141  13.864
 9339W        W81764  29.513   8.340  12.350
 9340W        W81765   8.385  41.985   4.762
 9341W        W81766   2.749  19.548   2.663
 9342W        W81767  28.513  24.190   1.318
 9343W        W81768  44.772  25.143  12.478
 9344W        W81769  35.397  11.753   3.326
 9345W        W81770  33.492  17.686   4.313
 9346W        W81771   7.878  40.965   2.412
 9347W        W81772  10.691  36.950  12.058
 9348W        W81773  21.599  31.466  13.990
 9349W        W81774   5.875  23.148  13.832
 9350W        W81775  32.423  26.972  13.492
 9351W        W81776  24.033  25.588   4.137
 9352W        W81777  32.398  19.604   2.310
 9353W        W81778  18.076  17.762   1.360
 9354W        W81779   9.360   6.776   4.210
 9355W        W81780   0.345   3.240   4.599
 9356W        W81781  12.642  37.370   1.380
 9357W        W81782  26.522   5.848  14.410
 9358W        W81783  19.103  44.825   4.188
 9359W        W81784  34.962  44.344   4.219
 9360W        W81785  37.934  22.626  10.520
 9361W        W81786  37.916  29.034   4.186
 9362W        W81787  29.059  10.162  14.337
 9363W        W81788  24.660  33.622  12.402
 9364W        W81789  24.632   6.244  13.320
 9365W        W81790  14.258  12.306  11.997
 9366W        W81791  28.007  23.218   2.892
 9367W        W81792  10.257  39.370   0.773
 9368W        W81793  32.967  39.330  10.577
 9369W        W81794   1.887  10.833  11.105
 9370W        W81795   0.291  20.251  14.824
 9371W        W81796  33.077  40.541   0.340
 9372W        W81797   2.276   1.750  14.889
 9373W        W81798  10.761  41.037  12.533
 9374W        W81799  20.133   1.738   1.375
 9375W        W81800  32.435  23.592  10.625
 9376W        W81801  17.240   8.805  12.932
 9377W        W81802   3.298  23.707   2.725
 9378W        W81803  15.307   1.834  12.062
 9379W        W81804  39.531  32.140   3.209
 9380W        W81805  26.653  36.458   0.261
 9381W        W81806  26.494  25.216   3.667
 9382W        W81807  24.060   0.781   4.141
 9383W        W81808  44.446  17.703  13.451
 9384W        W81809   9.738   1.908   3.684
 9385W        W81810  11.135  37.920   3.744
 9386W        W81811   7.743   4.904   2.868
 9387W        W81812  13.201  10.302  10.078
 9388W        W81813  32.897  39.352  14.014
 9389W        W81814  22.221  43.402  13.472
 9390W        W81815  32.885  28.534   2.701
 9391W        W81816   0.841  11.653  11.376
 9392W        W81817  19.582  27.512   2.354
 9393W        W81818  27.965  19.225   3.658
 9394W        W81819  25.210  18.058   2.748
 9395W        W81820  24.658   4.932   1.866
 9396W        W81821  32.500  26.050  11.877
 9397W        W81822  21.695  23.150  10.999
 9398W        W81823  43.489  13.134   3.341
 9399W        W81824  11.198  17.090  11.528
 9400W        W81825  44.844   6.404   2.729
 9401W        W81826   5.411  16.612   3.262
 9402W        W81827  42.820  29.089   4.263
 9403W        W81828  13.201   1.929   0.396
 9404W        W81829  19.213   8.685   1.859
 9405W        W81830  21.550  33.930  10.515
 9406W        W81831  36.035  42.387  12.569
 9407W        W81832   3.917  14.658   2.363
 9408W        W81833  37.372  27.510  13.526
 9409W        W81834  26.547  33.488   0.763
 9410W        W81835  24.596  42.460   1.933
 9411W        W81836  22.588  23.539   3.149
 9412W        W81837   8.379  30.961  10.621
 9413W        W81838  17.165  42.903  14.499
 9414W        W81839  21.523  38.520  14.300
 9415W        W81840  24.522  14.152  12.027
 9416W        W81841   8.811  14.720   1.266
 9417W        W81842  35.399  15.255   3.288
 9418W        W81843  38.460  30.137  12.992
 9419W        W81844  12.116  43.861  13.391
 9420W        W81845  30.920  23.688   2.789
 9421W        W81846  20.171   7.698  10.457
 9422W        W81847  36.509  43.827   4.210
 9423W        W81848  11.786  10.750  13.490
 9424W        W81849  38.962  27.479  11.065
 9425W        W81850   4.305  23.615   1.861
 9426W        W81851   4.767  44.968  10.565
 9427W        W81852  24.202  43.985  10.970
 9428W        W81853  29.504  10.867  10.617
 9429W        W81854   3.838  44.006  11.877
 9430W        W81855   5.306   3.401   3.198
 9431W        W81856  14.219  39.862   0.407
 9432W        W81857  33.914  24.601   4.631
 9433W        W81858  37.851   1.880   5.311
 9434W        W81859  23.606  39.472   2.250
 9435W        W81860  22.570  35.550  14.770
 9436W        W81861   9.354  31.623  12.985
 9437W        W81862  44.907  13.687   4.612
 9438W        W81863  17.581  16.121  10.935
 9439W        W81864  33.918  23.038   4.326
 9440W        W81865  16.767  18.562  11.596
 9441W        W81866  14.764   5.310  14.877
 9442W        W81867  17.079  26.080   4.832
 9443W        W81868   8.162  28.996   3.245
 9444W        W81869  37.579  24.180   3.260
 9445W        W81870  23.716  19.189   3.788
 9446W        W81871  40.369  18.233   4.219
 9447W        W81872  41.976   7.330  11.907
 9448W        W81873  23.215   5.770  14.328
 9449W        W81874  27.075  10.382   2.720
 9450W        W81875  12.691   8.241  10.947
 9451W        W81876   2.722   1.365  12.900
 9452W        W81877   9.176  43.432   1.822
 9453W        W81878   7.762  13.630  13.967
 9454W        W81879  14.682  39.917   4.212
 9455W        W81880  23.042  22.678  10.474
 9456W        W81881   1.385  31.612  12.005
 9457W        W81882  26.002   9.361  10.916
 9458W        W81883  20.629   3.384   3.855
 9459W        W81884  41.359  36.897  12.518
 9460W        W81885  30.428  29.635  11.120
 9461W        W81886   9.374   4.354   2.897
 9462W        W81887  11.749  39.491   4.204
 9463W        W81888  10.361  26.562  11.998
 9464W        W81889  20.764  18.212  12.899
 9465W        W81890  21.143  18.644  12.920
 9466W        W81891   1.886  35.042  13.539
 9467W        W81892   7.832   4.876   4.774
 9468W        W81893  16.246  25.481  14.886
 9469W        W81894  34.458  36.554   3.355
 9470W        W81895  30.927  28.107   4.718
 9471W        W81896  29.964  27.082   4.635
 9472W        W81897  39.483  13.184   2.894
 9473W        W81898  17.239   9.233  15.000
 9474W        W81899  40.021   7.700   2.275
 9475W        W81900   7.755  30.658   4.301
 9476W        W81901  33.941  35.097   2.290
 9477W        W81902  10.162  25.146   3.837
 9478W        W81903  11.625   5.421  11.981
 9479W        W81904  23.153   0.300  13.330
 9480W        W81905  30.455  31.584  11.003
 9481W        W81906  37.889   2.273  14.307
 9482W        W81907  16.157   8.236   0.965
 9483W        W81908  36.849  32.113  13.807
 9484W        W81909   4.902  36.916   3.806
 9485W        W81910  33.402  34.567  11.967
 9486W        W81911  36.980  11.650   4.117
 9487W        W81912   8.378   4.716  11.876
 9488W        W81913  21.186   3.340   4.244
 9489W        W81914  37.358  44.471   4.780
 9490W        W81915  23.141   5.833  10.585
 9491W        W81916  37.557   2.745   2.672
 9492W        W81917  34.048  44.844   0.764
 9493W        W81918  17.301  39.354   3.786
 9494W        W81919   7.835  43.278   4.693
 9495W        W81920   6.274  22.997   2.264
 9496W        W81921  29.049  21.098   0.866
 9497W        W81922  13.837  28.181   1.407
 9498W        W81923  11.332   9.645   0.929
 9499W        W81924  18.118   2.355  13.327
 9500W        W81925   3.804   2.767  12.573
 9501W        W81926  39.537  25.968   0.882
 9502W        W81927   3.323   8.246  14.763
 9503W        W81928  43.792  10.266  10.947
 9504W        W81929  24.999   8.250  10.899
 9505W        W81930   1.748  33.481   3.372
 9506W        W81931   7.883  34.994   3.695
 9507W        W81932  12.294  17.764  14.346
 9508W        W81933  44.979  22.180  13.502
 9509W        W81934  35.364  11.232   1.447
 9510W        W81935   4.722  43.875  10.151
 9511W        W81936  35.027  30.005  10.623
 9512W        W81937  16.216  24.493  13.819
 9513W        W81938  22.098   0.339  11.540
 9514W        W81939  29.505  44.444  11.855
 9515W        W81940  32.011  34.501  14.408
 9516W        W81941  30.621   1.797  10.574
 9517W        W81942  29.098  39.948   0.369
 9518W        W81943  28.053  34.466   4.224
 9519W        W81944  11.741  26.690  12.838
 9520W        W81945  38.834  15.681   1.764
 9521W        W81946  13.762  17.762   0.844
 9522W        W81947  31.498  18.693  12.496
 9523W        W81948  33.956  16.218   4.769
 9524W        W81949  42.872  30.614   2.182
 9525W        W81950  35.451   7.229  13.003
 9526W        W81951  11.224  36.417   4.623
 9527W        W81952  11.751  23.616   1.770
 9528W        W81953  26.588  26.619   1.729
 9529W        W81954  19.214  36.094   1.431
 9530W        W81955  43.955  37.521   1.893
 9531W        W81956   8.720  11.272   0.304
 9532W        W81957  40.822  30.575  11.494
 9533W        W81958   6.350  24.668   3.791
 9534W        W81959  29.076  35.996   3.684
 9535W        W81960   1.404  19.549   0.303
 9536W        W81961   7.678  14.589  13.052
 9537W        W81962  44.324   8.391  11.397
 9538W        W81963  35.061  39.923  11.128
 9539W        W81964   2.413  20.689  12.370
 9540W        W81965  29.600   5.832  11.065
 9541W        W81966   7.394  11.171   3.280
 9542W        W81967  26.600  33.041   2.292
 9543W        W81968  39.986  28.100  11.538
 9544W        W81969  43.308  19.221   1.219
 9545W        W81970  11.139  15.617  10.897
 9546W        W81971  25.556  12.182  12.364
 9547W        W81972  33.964  44.382   4.331
 9548W        W81973  37.453   4.932   2.212
 9549W        W81974  14.265  40.949   2.243
 9550W        W81975  42.303   2.416  11.494
 9551W        W81976  42.456  34.084  14.452
 9552W        W81977  22.672   6.212   0.419
 9553W        W81978  36.073  23.999  13.904
 9554W        W81979  22.581  31.449   3.635
 9555W        W81980  19.691  42.959   5.153
 9556W        W81981  27.097  36.033  12.366
 9557W        W81982  39.332   1.811  12.352
 9558W        W81983  31.630  40.315  13.361
 9559W        W81984  44.357  34.390   2.751
 9560W        W81985  36.496  20.246  12.342
 9561W        W81986   2.241   5.360  11.383
 9562W        W81987   6.761   9.203   1.217
 9563W        W81988  36.928  19.559  14.363
 9564W        W81989  21.633   5.364  14.916
 9565W        W81990  33.994  17.065   4.738
 9566W        W81991  12.235   1.786  11.416
 9567W        W81992  30.458  26.490   4.243
 9568W        W81993  21.674  36.372  10.632
 9569W        W81994  41.830   5.331  14.465
 9570W        W81995  31.454  30.023   3.279
 9571W        W81996  35.085   0.462   3.702
 9572W        W81997  27.191  25.063  10.524
 9573W        W81998   2.722  31.421  12.095
 9574W        W81999  25.175  40.461  10.531
 9575W        W82000  25.211  22.613   4.597
 9576W        W82001  44.367  43.008  14.018
 9577W        W82002   0.440  26.065   1.445
 9578W        W82003  42.881  44.476   3.245
 9579W        W82004  36.084  26.027  12.025
 9580W        W82005  18.703  39.460  13.431
 9581W        W82006   2.961  10.773  10.637
 9582W        W82007  36.374   2.872  14.298
 9583W        W82008  34.498  34.426  13.922
 9584W        W82009  11.851  13.147  14.901
 9585W        W82010   4.425  12.136   1.354
 9586W        W82011   3.809  10.648  10.981
 9587W        W82012  13.188  38.565   2.757
 9588W        W82013  22.176  17.128   3.234
 9589W        W82014  12.752   0.966  14.453
 9590W        W82015  17.195  21.642   4.712
 9591W        W82016  10.154  21.213   0.961
 9592W        W82017  28.592  20.708  11.028
 9593W        W82018  44.002  21.156   4.176
 9594W        W82019  35.431  12.170   2.853
 9595W        W82020  40.538  26.529   4.210
 9596W        W82021  38.907  22.677  13.857
 9597W        W82022   2.847  24.168  13.936
 9598W        W82023  26.036  22.244  11.126
 9599W        W82024  17.271  36.398  12.039
 9600W        W82025  35.881   2.350  13.451
 9601W        W82026  24.071  32.950  13.464
 9602W        W82027  24.482  21.033  12.993
 9603W        W82028  24.196  29.616  10.036
 9604W        W82029   3.407  40.523   1.432
 9605W        W82030   4.888   4.924  12.567
 9606W        W82031  32.609   8.246   2.391
 9607W        W82032  22.630  10.184  10.405
 9608W        W82033  33.045  22.081  12.951
 9609W        W82034  34.915  12.793   0.747
 9610W        W82035  36.425  26.632  14.384
 9611W        W82036  43.274  18.063   4.242
 9612W        W82037  12.760  30.161  10.583
 9613W        W82038  32.637  35.894   3.341
 9614W        W82039   0.765  30.082  11.403
 9615W        W82040  44.910  20.760   2.202
 9616W        W82041   1.475  23.628  13.812
 9617W        W82042  27.445   3.885  14.789
 9618W        W82043   7.192  32.979  14.781
 9619W        W82044  38.990  29.087  14.843
 9620W        W82045  28.453  36.902   0.777
 9621W        W82046  35.087  36.391  10.455
 9622W        W82047  11.803  36.464  11.989
 9623W        W82048  26.498  16.609  13.063
 9624W        W82049  20.627  44.803   3.233
 9625W        W82050   5.278  43.019  12.562
 9626W        W82051  18.741  29.438   2.260
 9627W        W82052  41.957   6.348   3.650
 9628W        W82053  41.531  16.202  12.924
 9629W        W82054  44.404   8.698   1.429
 9630W        W82055   9.871  42.434   4.744
 9631W        W82056  41.899  33.466   0.890
 9632W        W82057   1.451  19.151   1.769
 9633W        W82058  24.193  36.349  14.814
 9634W        W82059  12.256   2.842  11.603
 9635W        W82060  16.566  22.501   3.232
 9636W        W82061  28.639  39.497  14.834
 9637W        W82062   0.935   8.877  12.930
 9638W        W82063   7.309  38.983  11.124
 9639W        W82064  40.814  31.516   3.650
 9640W        W82065  19.275  10.757   4.765
 9641W        W82066  18.547   5.861   1.707
 9642W        W82067  20.229  17.639   3.632
 9643W        W82068   9.368  29.577  12.840
 9644W        W82069  23.996  10.213  12.069
 9645W        W82070   5.425   1.784  11.067
 9646W        W82071  21.736  33.456   1.697
 9647W        W82072   1.828  13.749   0.462
 9648W        W82073  11.709   2.776  14.847
 9649W        W82074   7.860  36.049   3.375
 9650W        W82075  26.558  32.955   4.294
 9651W        W82076  12.301  30.436  12.428
 9652W        W82077  15.671  11.792   4.317
 9653W        W82078  30.455   7.716   0.842
 9654W        W82079   0.920  29.941   2.849
 9655W        W82080  38.838   9.373   0.737
 9656W        W82081  11.848  20.663   4.241
 9657W        W82082  28.487   7.201   3.856
 9658W        W82083  17.081  44.406   1.795
 9659W        W82084  26.103   7.889  12.350
 9660W        W82085  38.941  33.407  14.919
 9661W        W82086  40.833  23.049  13.014
 9662W        W82087   9.668  22.134   1.399
 9663W        W82088  20.156  34.475  14.516
 9664W        W82089  32.510  42.999  10.608
 9665W        W82090  38.973  36.516   3.866
 9666W        W82091  32.635  21.526   1.376
 9667W        W82092  11.858  15.219  11.960
 9668W        W82093  23.096   7.358  12.513
 9669W        W82094   5.218  16.569  13.451
 9670W        W82095  41.939   8.837  11.469
 9671W        W82096   0.359  17.762   0.820
 9672W        W82097  25.091  18.297   4.693
 9673W        W82098  43.418   6.901  10.582
 9674W        W82099   0.858   9.865  13.923
 9675W        W82100   0.860  27.533   3.765
 9676W        W82101   6.281  27.650  13.308
 9677W        W82102   1.317  21.707   2.381
 9678W        W82103  35.855  33.899   1.738
 9679W        W82104  41.806  10.198   3.788
 9680W        W82105  43.855  39.023  14.514
 9681W        W82106  36.898  30.095  12.434
 9682W        W82107   7.902  13.246   0.891
 9683W        W82108  37.341  44.859   2.865
 9684W        W82109  32.886  43.892  12.055
 9685W        W82110  40.928   2.833   0.801
 9686W        W82111   3.324   0.270  14.838
 9687W        W82112  13.684  24.702  14.353
 9688W        W82113  40.037  15.675  10.605
 9689W        W82114  17.561  20.736   3.354
 9690W        W82115  10.838  44.422  12.942
 9691W        W82116  28.603  35.589  13.489
 9692W        W82117  32.074  41.878  13.934
 9693W        W82118  40.046  21.731   2.216
 9694W        W82119  19.653   3.385   0.930
 9695W        W82120  37.446  18.102   4.345
 9696W        W82121  32.892  16.208  10.551
 9697W        W82122  39.950   5.924  12.450
 9698W        W82123  43.283   1.469   3.157
 9699W        W82124   6.188  20.178  12.403
 9700W        W82125  15.163  10.312   5.091
 9701W        W82126  22.502  27.469   2.396
 9702W        W82127  14.634   0.889   0.313
 9703W        W82128  15.317  40.463   3.204
 9704W        W82129  30.451  10.152  11.953
 9705W        W82130  41.322  26.059  11.886
 9706W        W82131  27.955  42.980  11.940
 9707W        W82132  24.216  37.502   1.300
 9708W        W82133  23.700  17.750   4.258
 9709W        W82134  18.774   6.327  13.871
 9710W        W82135  44.995  25.685   4.190
 9711W        W82136  14.708  37.057  10.974
 9712W        W82137  38.434  16.749  11.017
 9713W        W82138  35.060   1.823   0.401
 9714W        W82139  13.661  27.502   3.257
 9715W        W82140  11.269  20.635   1.304
 9716W        W82141   7.174   7.262  14.391
 9717W        W82142  21.630  30.984   1.866
 9718W        W82143  36.378  17.718  14.943
 9719W        W82144   6.209  21.157   1.795
 9720W        W82145   3.819  33.115   1.217
 9721W        W82146  19.769  31.424   1.858
 9722W        W82147  44.410   0.935   1.417
 9723W        W82148  20.229  42.994   2.331
 9724W        W82149  40.840  33.114   0.342
 9725W        W82150  30.995  38.529   3.795
 9726W        W82151   0.451  38.477  13.351
 9727W        W82152  19.728  32.596   1.928
 9728W        W82153  17.768  29.570  12.043
 9729W        W82154  42.438  34.568   1.885
 9730W        W82155   2.812  15.801   3.710
 9731W        W82156  15.694   2.392   4.636
 9732W        W82157  20.740  17.772  11.469
 9733W        W82158  20.055   8.772  13.963
 9734W        W82159  37.968  44.896  13.960
 9735W        W82160  23.153   3.812  14.919
 9736W        W82161  24.190  25.673   4.603
 9737W        W82162  18.116   2.931   2.773
 9738W        W82163  36.583  12.324  13.522
 9739W        W82164  33.554  23.151   0.250
 9740W        W82165  19.762   0.253  10.408
 9741W        W82166  18.171  19.710  14.428
 9742W        W82167  13.747  20.199   0.926
 9743W        W82168  44.916  12.354   1.759
 9744W        W82169  33.432   3.389   3.387
 9745W        W82170  32.002   8.295   2.276
 9746W        W82171   0.344  41.473   2.774
 9747W        W82172  33.402  25.141  10.036
 9748W        W82173   1.827  32.109  13.872
 9749W        W82174  38.496  32.565   3.318
 9750W        W82175   4.792  11.789   3.281
 9751W        W82176   7.251   5.829  12.900
 9752W        W82177  17.625  41.898  12.578
 9753W        W82178  13.753  15.240  14.355
 9754W        W82179   8.260   6.406  12.964
 9755W        W82180  10.653  23.538  12.048
 9756W        W82181  30.030  12.622  13.033
 9757W        W82182  44.411  15.099   4.683
 9758W        W82183  35.893  21.728   4.306
 9759W        W82184   9.352   9.661   2.265
 9760W        W82185  16.314   2.939   1.738
 9761W        W82186   5.310  38.840  11.067
 9762W        W82187  11.186  42.286   1.776
 9763W        W82188  39.469   1.412  11.939
 9764W        W82189  34.002   6.285  13.900
 9765W        W82190  16.579  38.868   2.742
 9766W        W82191  40.039  42.451  14.275
 9767W        W82192  13.776   9.699   4.808
 9768W        W82193  13.789  19.265  12.862
 9769W        W82194  29.969  28.455   3.350
 9770W        W82195  38.990  23.061   4.634
 9771W        W82196  44.784  35.080  14.343
 9772W        W82197   8.276  11.285  13.464
 9773W        W82198  41.884  34.412  14.844
 9774W        W82199  44.858   2.822   3.191
 9775W        W82200  31.045   7.833   4.250
 9776W        W82201  28.628   0.964   4.637
 9777W        W82202  26.177  38.038   1.448
 9778W        W82203  12.228  24.187  10.037
 9779W        W82204  44.004  25.563  12.865
 9780W        W82205  30.613   1.890  12.535
 9781W        W82206  41.301   6.359  10.413
 9782W        W82207  42.501  18.118   1.265
 9783W        W82208   2.435  14.780  11.082
 9784W        W82209  12.831  38.992  11.402
 9785W        W82210  19.778  30.103  14.948
 9786W        W82211   6.404  41.981   0.320
 9787W        W82212  14.102   1.350   0.276
 9788W        W82213  44.761  41.460  12.437
 9789W        W82214  28.434   0.391   2.804
 9790W        W82215  12.204  18.192   2.754
 9791W        W82216  39.452  37.031   4.604
 9792W        W82217  23.721  41.364   4.330
 9793W        W82218  10.753   2.254   3.736
 9794W        W82219   6.278  33.928   1.371
 9795W        W82220  40.923  20.624  10.438
 9796W        W82221  11.283  11.695  10.632
 9797W        W82222   9.792  35.567   2.208
 9798W        W82223  27.017  42.930   4.292
 9799W        W82224  35.476  19.264   4.630
 9800W        W82225   2.948   1.762   2.329
 9801W        W82226  43.009  39.866   1.359
 9802W        W82227   0.473   8.168  10.925
 9803W        W82228  36.539  31.633  11.091
 9804W        W82229  35.488  25.478  12.575
 9805W        W82230  40.835  24.613  11.998
 9806W        W82231  27.470  44.976   1.736
 9807W        W82232  36.392  32.500  12.536
 9808W        W82233  42.492  33.919  10.574
 9809W        W82234  26.158  41.436   3.365
 9810W        W82235  44.399  33.937   1.211
 9811W        W82236   5.803   5.223   3.363
 9812W        W82237  16.630  11.233   0.947
 9813W        W82238  40.818  38.899   3.838
 9814W        W82239  28.645  16.102   0.938
 9815W        W82240   9.865   5.743  11.035
 9816W        W82241  28.182  24.610  10.467
 9817W        W82242   9.666   0.413  10.642
 9818W        W82243  39.975  41.014  13.849
 9819W        W82244  29.652  21.175  13.830
 9820W        W82245   9.718  38.409  13.874
 9821W        W82246   3.339   3.735   3.246
 9822W        W82247  18.623  25.972   1.836
 9823W        W82248  37.404  15.228   9.951
 9824W        W82249  30.443  29.995  11.074
 9825W        W82250  19.583  40.422  12.012
 9826W        W82251  31.999   0.978  14.983
 9827W        W82252  24.990  23.609  11.004
 9828W        W82253  15.822  43.414  13.039
 9829W        W82254  42.888   4.259  12.488
 9830W        W82255  40.315  31.975   0.919
 9831W        W82256  12.618  11.328   2.248
 9832W        W82257  26.537  33.603   4.831
 9833W        W82258  15.179  23.044  10.440
 9834W        W82259  18.655  16.580  14.901
 9835W        W82260  20.620  26.154  12.867
 9836W        W82261   6.897  14.102   0.429
 9837W        W82262   1.428  24.564  11.023
 9838W        W82263  10.183  14.179   2.270
 9839W        W82264  44.325  27.508  12.349
 9840W        W82265  40.861  12.312  11.480
 9841W        W82266  15.172  28.643   3.231
 9842W        W82267  25.595  27.469   3.645
 9843W        W82268  25.599   2.431  12.371
 9844W        W82269   1.743  25.068  10.894
 9845W        W82270   3.895  16.290   1.310
 9846W        W82271   9.189  27.537  14.297
 9847W        W82272  44.756  38.507  14.888
 9848W        W82273  26.993  21.595  13.494
 9849W        W82274   2.764  41.921   3.853
 9850W        W82275  29.529  36.008  10.611
 9851W        W82276  23.197  43.007  14.769
 9852W        W82277  31.105  42.970   3.365
 9853W        W82278   9.163   3.261   4.269
 9854W        W82279  22.571  42.932   1.343
 9855W        W82280  19.777   4.430  13.412
 9856W        W82281   8.266  41.941  12.957
 9857W        W82282  42.944  19.188   1.302
 9858W        W82283   4.752  16.142  13.322
 9859W        W82284  19.237  28.558   1.716
 9860W        W82285   5.390   1.808  10.498
 9861W        W82286  37.378  42.914   3.327
 9862W        W82287  26.587  12.341   1.343
 9863W        W82288  40.320   3.305   0.920
 9864W        W82289  17.249  41.426   1.324
 9865W        W82290   0.786  19.718   2.753
 9866W        W82291  24.996  14.180  14.384
 9867W        W82292  37.575   4.756  11.890
 9868W        W82293  28.093  27.454   1.422
 9869W        W82294  11.810  27.520  14.899
 9870W        W82295  37.505  43.958   9.930
 9871W        W82296  19.053  27.572  13.443
 9872W        W82297  43.874   0.828  13.868
 9873W        W82298  25.041   7.897  14.334
 9874W        W82299  26.079  42.435  13.524
 9875W        W82300   5.925   1.768   4.831
 9876W        W82301  17.060  24.549   3.166
 9877W        W82302  23.533   8.859   1.283
 9878W        W82303   2.936  21.643   4.262
 9879W        W82304  24.216  38.507  13.977
 9880W        W82305  11.335  41.988  13.926
 9881W        W82306  31.991  31.107   4.697
 9882W        W82307   9.731   6.429   2.671
 9883W        W82308  39.904   8.662   3.812
 9884W        W82309  17.298  26.554  13.328
 9885W        W82310  14.124  18.564   0.963
 9886W        W82311  39.020  28.082   3.651
 9887W        W82312  39.512  17.140  14.802
 9888W        W82313  14.334  40.392  13.795
 9889W        W82314  35.501  21.588   1.860
 9890W        W82315  32.420  42.297  14.936
 9891W        W82316  23.193   7.782   5.269
 9892W        W82317  26.477   1.795   3.148
 9893W        W82318   9.305  42.464  10.419
 9894W        W82319  29.134  23.639   3.254
 9895W        W82320   7.411  29.175  12.863
 9896W        W82321  22.670  19.657  14.388
 9897W        W82322  36.957  40.325  10.603
 9898W        W82323  11.717  14.720  11.937
 9899W        W82324   1.818  30.143  10.900
 9900W        W82325  32.545  41.353   0.420
 9901W        W82326  20.047   5.787   3.371
 9902W        W82327  30.022  16.154   2.797
 9903W        W82328  32.024   0.287   2.850
 9904W        W82329   0.965  19.665   3.179
 9905W        W82330  35.884   3.322  13.004
 9906W        W82331  20.553  40.989   1.706
 9907W        W82332  39.520  21.741   4.325
 9908W        W82333   0.466   8.849   1.785
 9909W        W82334   8.884  15.671  11.540
 9910W        W82335   5.243   4.780   0.440
 9911W        W82336  29.611  15.701   1.385
 9912W        W82337  34.537  12.351  14.920
 9913W        W82338  10.330  42.984   4.667
 9914W        W82339  43.472  37.983  13.911
 9915W        W82340  29.934  30.529  12.474
 9916W        W82341  43.419  42.886   1.291
 9917W        W82342  43.778  29.123  13.915
 9918W        W82343  24.709   8.806   3.293
 9919W        W82344  21.718  42.439   3.751
 9920W        W82345  19.602  41.816  11.467
 9921W        W82346   9.326   8.741   0.814
 9922W        W82347  21.058  12.851  14.807
 9923W        W82348  14.766  22.518  11.580
 9924W        W82349  41.914  13.718  10.987
 9925W        W82350  34.866  44.906  13.994
 9926W        W82351  38.334  28.970   3.187
 9927W        W82352   0.257  20.069  11.999
 9928W        W82353   1.351  29.525  12.072
 9929W        W82354   8.873  22.528  14.328
 9930W        W82355  28.505  17.724   2.856
 9931W        W82356   1.403  29.048   1.428
 9932W        W82357   6.831  40.941  11.469
 9933W        W82358  19.605  21.086   9.952
 9934W        W82359  36.562   0.371  13.018
 9935W        W82360  11.634  34.034   2.400
 9936W        W82361  35.952  31.620  10.993
 9937W        W82362   1.849  31.103  13.310
 9938W        W82363  31.981   1.424  13.481
 9939W        W82364  16.739  39.485   3.188
 9940W        W82365   2.879  19.733   4.757
 9941W        W82366  23.673  38.947  13.006
 9942W        W82367  23.536  17.072   0.764
 9943W        W82368   2.353  33.610  11.406
 9944W        W82369  22.165  12.747   1.214
 9945W        W82370  25.020  23.013  12.087
 9946W        W82371  37.076  25.570  10.145
 9947W        W82372  20.635  41.852  12.472
 9948W        W82373  10.692  27.012   1.701
 9949W        W82374  13.321   9.152   1.726
 9950W        W82375  33.512  29.071   1.886
 9951W        W82376  38.952  35.509  11.462
 9952W        W82377   4.247   1.372   3.685
 9953W        W82378   1.394   8.795  12.469
 9954W        W82379  26.670  20.184  11.460
 9955W        W82380   4.328   1.883  11.869
 9956W        W82381   4.402  36.962   4.205
 9957W        W82382  41.809  11.224   2.350
 9958W        W82383  21.129  44.324   3.177
 9959W        W82384   5.738  30.054  13.417
 9960W        W82385   6.261  29.943   1.757
 9961W        W82386   7.286   0.870  13.502
 9962W        W82387   3.822  27.037  14.777
 9963W        W82388  36.484  23.211  13.480
 9964W        W82389  22.026  27.607  14.340
 9965W        W82390  19.083  24.979  14.770
 9966W        W82391  12.799  22.186  12.888
 9967W        W82392   1.950  23.127  13.346
 9968W        W82393  28.486  27.097   4.654
 9969W        W82394  36.577   4.771   4.246
 9970W        W82395   7.193  33.123  13.327
 9971W        W82396  27.944  24.594   3.277
 9972W        W82397   6.763  44.482  11.589
 9973W        W82398  31.137  28.071  13.372
 9974W        W82399  15.600  43.779  11.923
 9975W        W82400  23.651  24.091  14.854
 9976W        W82401  44.847  40.905  13.509
 9977W        W82402   3.410   6.818  11.082
 9978W        W82403  17.214  29.616  10.033
 9979W        W82404  37.515  18.788  11.916
 9980W        W82405  30.477  22.012   4.814
 9981W        W82406   8.663   3.270  12.906
 9982W        W82407  44.339   3.803  10.557
 9983W        W82408  20.034  16.648   3.869
 9984W        W82409  13.744  24.084  12.375
 9985W        W82410  24.149  22.575   1.331
 9986W        W82411  19.766  17.614   1.817
 9987W        W82412   9.240  33.981  10.608
 9988W        W82413  30.476   2.458  11.376
 9989W        W82414  23.037  43.514   2.747
 9990W        W82415  18.144  33.464   3.796
 9991W        W82416  17.704  18.628  14.852
 9992W        W82417  35.005  34.906   1.292
 9993W        W82418  17.626  29.666   4.176
 9994W        W82419  33.541  28.111   2.696
 9995W        W82420   9.791  20.747  11.469
 9996W        W82421  43.496  19.676   2.869
 9997W        W82422  22.092  33.395  11.872
 9998W        W82423  44.854  40.840  11.079
 9999W        W82424  41.933   8.750  10.487
10000W        W82425  24.139  29.942   0.415
10001W        W82426  15.658  26.083  12.390
10002W        W82427  38.927  37.993   2.244
10003W        W82428   2.899   0.897  10.906
10004W        W82429  33.085  16.800   9.544
10005W        W82430   7.309  30.010   2.418
10006W        W82431  10.672   0.250   4.825
10007W        W82432  23.063   2.891   4.175
10008W        W82433  26.693  22.511   1.372
10009W        W82434   1.776  11.762   1.765
10010W        W82435  28.567  43.452   3.267
10011W        W82436  20.709  23.051  12.996
10012W        W82437  22.696  11.279  11.513
10013W        W82438   6.811  35.906   1.349
10014W        W82439  28.171  41.489   1.234
10015W        W82440  12.212  27.520   2.845
10016W        W82441   4.315  20.646  11.092
10017W        W82442  32.633  27.643   2.254
10018W        W82443  17.591  42.990  11.967
10019W        W82444  35.108  44.836  13.450
10020W        W82445  44.898  12.261   4.775
10021W        W82446  31.422   5.689   2.304
10022W        W82447  39.402   2.239   0.814
10023W        W82448  11.819  32.558  14.331
10024W        W82449   4.728   3.255   3.634
10025W        W82450  34.116  25.984  13.853
10026W        W82451  17.140   5.796  13.366
10027W        W82452   6.307  30.643  13.052
10028W        W82453  20.583  13.826  12.530
10029W        W82454   1.448  34.384  11.006
10030W        W82455  37.086  42.336  12.433
10031W        W82456  40.426  35.072   3.856
10032W        W82457  17.753  43.380   3.242
10033W        W82458  26.476  35.578  10.429
10034W        W82459  36.425  19.756   2.184
10035W        W82460  13.201   1.483   4.757
10036W        W82461   8.188  28.589  10.565
10037W        W82462   0.455  21.660  10.496
10038W        W82463  33.381  24.006   1.405
10039W        W82464   1.419  36.037  12.554
10040W        W82465  34.036   5.904  11.604
10041W        W82466  18.160  23.043   4.798
10042W        W82467  33.543   3.447  12.439
10043W        W82468  38.823  26.467   2.204
10044W        W82469   5.199   5.798   1.399
10045W        W82470   1.378  22.530   4.774
10046W        W82471  35.540  27.572   1.699
10047W        W82472  31.128   0.451  11.379
10048W        W82473  33.989  19.610  14.480
10049W        W82474   5.297  27.993   2.677
10050W        W82475   9.365  20.557  11.961
10051W        W82476  16.769  36.494   3.148
10052W        W82477  30.479  35.562   1.317
10053W        W82478   9.675  29.572  11.599
10054W        W82479  39.831  27.960   1.816
10055W        W82480  34.541  23.019   1.725
10056W        W82481  33.535   0.391   4.170
10057W        W82482   2.904  39.558   4.817
10058W        W82483   9.835  30.053   1.707
10059W        W82484   7.322   8.293   0.950
10060W        W82485   8.248   6.211  10.953
10061W        W82486  36.847  13.176  13.312
10062W        W82487  19.717   3.795  12.445
10063W        W82488  22.195  43.391   4.676
10064W        W82489  11.216  28.029   1.254
10065W        W82490  40.942  10.640  13.530
10066W        W82491  27.956  16.247   3.291
10067W        W82492  30.102  23.045   1.306
10068W        W82493  29.919  38.052  11.380
10069W        W82494  24.643  22.019   0.854
10070W        W82495   6.199   7.898   4.622
10071W        W82496  11.800  28.028   4.652
10072W        W82497  15.786   5.910   2.262
10073W        W82498  39.391  39.461  12.476
10074W        W82499  30.601  13.267   4.697
10075W        W82500  23.542  22.106   0.320
10076W        W82501  43.509  23.537  12.000
10077W        W82502  41.943  19.745  13.041
10078W        W82503  40.396  10.291   0.844
10079W        W82504  42.811  12.802   4.152
10080W        W82505  14.708   0.932   2.711
10081W        W82506   4.388  25.130   1.427
10082W        W82507   6.846  40.303  13.368
10083W        W82508  15.104   2.377   0.253
10084W        W82509  15.138  42.909  12.979
10085W        W82510  24.491   1.337  13.049
10086W        W82511  44.334  40.352  10.478
10087W        W82512  25.033  42.976   1.778
10088W        W82513   4.280  14.720  12.390
10089W        W82514  10.791  33.390  12.982
10090W        W82515  26.114   9.767   1.304
10091W        W82516  17.302  40.437   0.961
10092W        W82517  37.577  21.653  13.802
10093W        W82518  20.134  36.584  11.072
10094W        W82519  36.383  13.259  11.405
10095W        W82520  39.870  32.139   0.783
10096W        W82521  16.213  26.075  11.062
10097W        W82522  18.093  43.497   4.192
10098W        W82523  17.659   8.367   0.826
10099W        W82524  30.545  13.140  12.851
10100W        W82525  18.715  16.280   2.307
10101W        W82526  30.047  32.026  13.029
10102W        W82527  30.144  27.454  12.527
10103W        W82528  40.948  24.684  13.346
10104W        W82529  37.992  24.994   4.354
10105W        W82530  26.192   9.736   0.863
10106W        W82531  34.896  37.901  13.965
10107W        W82532  43.432  33.990   4.183
10108W        W82533  11.868  14.173   3.845
10109W        W82534  15.254  42.907   1.911
10110W        W82535   5.820  42.957   0.934
10111W        W82536   3.741  38.891  14.864
10112W        W82537  44.473  10.328   2.257
10113W        W82538  38.952   7.729  11.967
10114W        W82539  37.847  42.992  13.838
10115W        W82540   7.737  42.968  13.869
10116W        W82541   3.737  12.678  11.098
10117W        W82542   1.386  20.604  10.467
10118W        W82543  27.558  21.606   4.606
10119W        W82544  43.432   7.688  14.317
10120W        W82545  37.399  22.220   5.771
10121W        W82546  18.197   9.731   4.279
10122W        W82547  44.807   7.413  13.941
10123W        W82548  41.300   1.377   2.390
10124W        W82549   8.724  37.922  13.528
10125W        W82550  23.183  11.170  13.013
10126W        W82551  39.340  25.192  11.106
10127W        W82552  24.079   3.252  14.278
10128W        W82553  42.936   5.745  13.332
10129W        W82554  40.318  21.559   3.242
10130W        W82555  21.550  13.717   0.420
10131W        W82556   8.699  31.581  12.079
10132W        W82557  17.576   9.158  10.958
10133W        W82558  14.151  26.660  10.080
10134W        W82559  38.849   2.870  14.904
10135W        W82560  36.049  32.074   1.845
10136W        W82561  11.274  37.565   4.349
10137W        W82562  28.489  44.439  11.076
10138W        W82563  11.698  39.554  13.441
10139W        W82564  22.508  15.778   3.821
10140W        W82565  39.522  43.361  13.915
10141W        W82566  35.455  26.512   2.303
10142W        W82567   3.880  13.119  13.932
10143W        W82568  19.701  19.607   0.403
10144W        W82569   7.795  40.893  11.907
10145W        W82570   7.304   5.781  14.308
10146W        W82571  23.147  28.444  13.331
10147W        W82572   6.390  30.023  12.915
10148W        W82573   5.284  11.241  14.429
10149W        W82574   5.434   7.362   1.743
10150W        W82575  38.966  27.620   5.237
10151W        W82576   1.843   0.790   2.329
10152W        W82577  13.202  25.532  11.073
10153W        W82578  25.711  34.023   1.761
10154W        W82579  15.189  27.967  11.856
10155W        W82580  36.988  33.033   4.150
10156W        W82581   0.826  22.076   3.374
10157W        W82582  14.177  36.430  14.898
10158W        W82583  28.115  17.145  11.448
10159W        W82584   0.885  44.769   1.839
10160W        W82585   4.207  44.362  10.494
10161W        W82586  17.113  34.537   0.865
10162W        W82587  31.484  17.613  13.989
10163W        W82588  36.583   8.819   3.355
10164W        W82589  19.107  13.690  10.549
10165W        W82590  14.189  38.887   4.314
10166W        W82591  10.866   3.739  14.902
10167W        W82592   7.861  36.547   9.523
10168W        W82593   8.341  21.080   0.421
10169W        W82594  19.668   7.237   3.857
10170W        W82595  33.575  40.397  13.005
10171W        W82596   6.682  31.512   3.286
10172W        W82597  16.210  25.010  13.399
10173W        W82598  29.550  29.640  14.950
10174W        W82599   6.903  32.604  10.504
10175W        W82600   1.936  28.028  11.049
10176W        W82601  23.702   8.889   5.237
10177W        W82602  40.490   4.917   3.695
10178W        W82603  27.668  38.851  11.462
10179W        W82604  40.811   1.847  10.901
10180W        W82605  44.931  14.255  14.028
10181W        W82606  20.569  10.669  11.486
10182W        W82607  29.980  16.177  10.584
10183W        W82608   2.252  42.958   3.637
10184W        W82609  39.323  39.508  11.543
10185W        W82610  28.626  13.643  14.914
10186W        W82611  38.337   1.804   1.223
10187W        W82612  13.720   0.928  12.390
10188W        W82613   6.211  26.108   4.274
10189W        W82614   0.290  19.190   2.823
10190W        W82615  13.277  21.033   3.273
10191W        W82616  15.223  43.499  13.978
10192W        W82617  12.229  24.149  12.504
10193W        W82618   3.430  42.352  12.361
10194W        W82619  25.557  22.094   1.271
10195W        W82620   8.342   1.286   3.764
10196W        W82621  36.509   2.230   3.747
10197W        W82622  15.593  30.614   1.907
10198W        W82623  36.880  13.717  11.031
10199W        W82624  35.561   9.170  11.432
10200W        W82625   9.380  37.932  11.931
10201W        W82626  22.608  23.575  11.552
10202W        W82627  35.555  39.548  14.783
10203W        W82628  30.606  16.141  11.988
10204W        W82629  14.207  39.004  14.318
10205W        W82630  22.695  18.071  13.534
10206W        W82631   8.686  23.114   3.219
10207W        W82632  17.182  18.750   2.719
10208W        W82633  29.102  41.990  13.823
10209W        W82634  36.858  24.990   2.790
10210W        W82635  31.936  43.851   3.674
10211W        W82636  17.111  28.434  12.990
10212W        W82637  21.247  33.977  12.887
10213W        W82638  37.363  12.733  13.043
10214W        W82639  17.167  13.777  12.521
10215W        W82640  40.855   6.366  10.451
10216W        W82641   7.828  38.384  14.854
10217W        W82642   5.263   8.769  10.487
10218W        W82643  21.050   2.323  11.461
10219W        W82644  27.466   8.875  12.950
10220W        W82645  35.410  30.161  12.952
10221W        W82646  26.649  26.606   4.697
10222W        W82647  42.781  17.243   0.393
10223W        W82648  13.270  23.693  10.974
10224W        W82649  35.993   0.947  11.412
10225W        W82650  23.193  19.628  10.992
10226W        W82651  27.634  34.994   3.208
10227W        W82652  28.668  43.011  12.089
10228W        W82653  23.188  23.677   0.947
10229W        W82654  19.182  36.091  13.430
10230W        W82655  15.245  44.797   0.945
10231W        W82656   1.790  32.963  12.977
10232W        W82657   5.794   7.347   3.252
10233W        W82658  41.316  35.405  11.921
10234W        W82659  21.032   9.322  11.880
10235W        W82660  22.611  35.932   2.769
10236W        W82661  21.752  27.487   4.714
10237W        W82662   6.888  31.061  13.482
10238W        W82663  10.863   6.399   4.159
10239W        W82664   3.779  32.124   1.425
10240W        W82665   2.885  43.297  10.908
10241W        W82666   7.697   3.315   2.343
10242W        W82667  14.129  23.625  14.012
10243W        W82668  24.609  31.566  13.049
10244W        W82669  18.621   2.838   1.806
10245W        W82670  10.194  14.593  12.492
10246W        W82671  34.425   6.204  13.541
10247W        W82672   5.300  16.168   4.227
10248W        W82673  28.971  19.222  10.623
10249W        W82674   8.736  20.539  12.059
10250W        W82675  38.342  38.492   4.138
10251W        W82676  29.094  33.492  14.870
10252W        W82677  23.184   5.208  13.451
10253W        W82678  13.309  11.726   1.275
10254W        W82679  37.531  28.524   1.241
10255W        W82680   0.480  34.067   2.254
10256W        W82681  18.669  29.532  11.856
10257W        W82682  10.163  13.335  14.014
10258W        W82683  31.034  12.658   1.733
10259W        W82684  33.493   7.259  10.952
10260W        W82685  16.163  21.254   2.819
10261W        W82686  23.726  24.980   0.299
10262W        W82687  17.649   9.298  13.930
10263W        W82688   9.869  33.880   3.822
10264W        W82689  44.886  22.027   1.269
10265W        W82690  32.476  18.148   0.308
10266W        W82691  35.360  17.173  11.504
10267W        W82692   8.862  20.068   2.225
10268W        W82693   6.684  31.455  13.458
10269W        W82694  18.055  28.061  11.538
10270W        W82695  42.888  23.038  13.965
10271W        W82696   1.383   0.772   3.784
10272W        W82697   5.720  42.941   0.310
10273W        W82698  29.169  12.669   3.181
10274W        W82699  29.943  42.356  12.070
10275W        W82700  43.963  28.592  12.438
10276W        W82701  11.738  33.398   4.258
10277W        W82702  43.383  23.104  13.921
10278W        W82703  44.910  13.842  11.434
10279W        W82704   0.287  24.991   1.898
10280W        W82705  32.421  11.151  12.419
10281W        W82706   7.869  17.147   4.338
10282W        W82707   7.881  26.604   3.195
10283W        W82708  24.206  16.696   2.681
10284W        W82709  37.959  22.558   2.216
10285W        W82710  35.505  32.922   0.892
10286W        W82711  10.731   1.250   0.803
10287W        W82712  31.555  21.153   3.306
10288W        W82713  26.013  31.583  10.109
10289W        W82714  39.904  41.418  14.918
10290W        W82715   7.205  33.584   0.728
10291W        W82716  20.129   7.238  10.453
10292W        W82717  41.491  16.677   2.893
10293W        W82718  28.085  25.179  12.396
10294W        W82719  38.378  35.097  14.924
10295W        W82720  24.056   9.362  13.874
10296W        W82721  10.698  25.515  14.020
10297W        W82722   9.210  20.051  11.975
10298W        W82723  27.452  14.316   2.755
10299W        W82724  14.106  11.683  12.383
10300W        W82725  10.240  19.757  13.547
10301W        W82726  13.105  42.389   4.609
10302W        W82727  36.930  11.757   1.302
10303W        W82728   9.852   7.348  14.353
10304W        W82729   6.694   2.792  13.961
10305W        W82730  29.574   7.874  12.055
10306W        W82731   1.478  19.069   0.458
10307W        W82732  20.238  32.463   0.347
10308W        W82733  12.134  16.126  11.015
10309W        W82734  41.017  41.519  14.369
10310W        W82735  14.713  11.272   3.288
10311W        W82736  12.216   5.232   4.744
10312W        W82737  34.494  44.448  10.629
10313W        W82738   6.786  21.150   0.833
10314W        W82739  39.051  30.651  10.896
10315W        W82740  17.602   5.300   1.248
10316W        W82741  32.089  43.800   1.340
10317W        W82742  12.680  31.969   4.702
10318W        W82743   1.344   4.774   1.883
10319W        W82744  26.675   3.250  13.002
10320W        W82745  34.526  36.848   2.312
10321W        W82746   2.762   7.384  11.932
10322W        W82747  28.104  30.600  11.948
10323W        W82748  16.281  19.545  10.891
10324W        W82749  33.906  33.626   4.647
10325W        W82750  41.888  35.930   0.418
10326W        W82751  39.964  36.419  11.032
10327W        W82752  23.016  31.470   4.769
10328W        W82753   6.305  25.030  14.833
10329W        W82754  41.450  20.616   0.952
10330W        W82755  26.114  25.992   0.397
10331W        W82756  35.082  17.642  12.566
10332W        W82757  40.978  44.978   5.712
10333W        W82758   2.967  10.662  12.091
10334W        W82759   3.419  24.705  11.501
10335W        W82760  11.151  43.387  10.600
10336W        W82761  24.616  25.581   1.719
10337W        W82762  14.274  19.709  14.903
10338W        W82763  35.598  25.990   4.336
10339W        W82764   5.289   2.919   0.261
10340W        W82765  36.053   0.817   1.450
10341W        W82766  24.008   8.250   0.303
10342W        W82767  17.137  23.532  11.016
10343W        W82768  36.099   3.312  13.419
10344W        W82769  22.588  12.277  14.783
10345W        W82770  28.054  17.775   1.703
10346W        W82771  20.662   6.381   4.130
10347W        W82772   6.185  10.195  14.381
10348W        W82773  39.983  29.019   4.240
10349W        W82774  21.094  20.652   4.760
10350W        W82775  43.970  35.463  11.969
10351W        W82776  16.079   5.396   0.271
10352W        W82777  17.132  38.341  13.017
10353W        W82778   7.282  22.659  12.915
10354W        W82779  17.751  17.213  10.427
10355W        W82780  36.488  24.995  13.972
10356W        W82781  11.816  23.716  14.859
10357W        W82782  42.804  27.013   2.888
10358W        W82783  18.220  27.143   1.795
10359W        W82784   6.191  16.203  14.984
10360W        W82785  23.638  16.710  12.411
10361W        W82786   4.778   8.378   4.178
10362W        W82787  15.140  42.343   1.813
10363W        W82788  11.362   6.351   1.214
10364W        W82789  31.571  11.138  12.024
10365W        W82790  23.600  40.443  13.498
10366W        W82791  11.660  44.994   4.748
10367W        W82792  29.101   4.894  12.554
10368W        W82793  43.889   4.212   2.769
10369W        W82794  30.580  26.530   0.963
10370W        W82795  19.203  15.745   1.402
10371W        W82796  19.187  17.677  13.438
10372W        W82797  21.567   1.465  12.898
10373W        W82798  12.784   3.248   4.814
10374W        W82799  28.997  15.317  10.977
10375W        W82800   0.907   6.391  13.429
10376W        W82801  13.257  19.752   4.750
10377W        W82802   1.890   5.376   1.875
10378W        W82803  28.453  37.452  13.850
10379W        W82804  18.575  25.015   5.153
10380W        W82805  33.116  27.538   0.409
10381W        W82806  42.881  26.121   3.676
10382W        W82807  17.653  24.589   1.933
10383W        W82808   5.716  41.480  13.400
10384W        W82809  38.415  24.509   0.872
10385W        W82810  40.930  15.196   3.310
10386W        W82811  15.742   6.364   5.188
10387W        W82812  33.879   3.884   2.770
10388W        W82813  38.410  39.348  10.438
10389W        W82814   3.279  32.608  11.439
10390W        W82815  24.551   5.840  11.576
10391W        W82816  42.519  26.527  11.393
10392W        W82817  35.475  20.124  13.813
10393W        W82818   7.347   9.369   1.922
10394W        W82819   2.426   3.826  14.347
10395W        W82820  32.629  44.931  10.472
10396W        W82821  39.015  29.920   4.271
10397W        W82822   0.428  35.580   4.650
10398W        W82823   8.821  13.181   1.835
10399W        W82824  32.477   4.351  14.930
10400W        W82825  10.746   5.691   3.174
10401W        W82826  16.312  35.912   4.798
10402W        W82827   2.465  12.621   4.145
10403W        W82828  40.868  38.834  13.388
10404W        W82829  12.798   8.195   0.258
10405W        W82830   6.892  19.596  11.444
10406W        W82831  12.324  40.016  12.569
10407W        W82832  13.745  41.445  13.315
10408W        W82833  22.075  35.532   2.352
10409W        W82834  22.574   9.788  14.889
10410W        W82835  11.830  36.509  13.525
10411W        W82836  29.468  14.183  12.394
10412W        W82837  12.642  12.178   1.337
10413W        W82838  44.877  35.526  12.017
10414W        W82839  35.001  35.062   3.785
10415W        W82840  23.685   8.751  13.985
10416W        W82841  26.189  22.516   3.234
10417W        W82842  12.667   6.356   0.942
10418W        W82843  19.623  23.554  11.061
10419W        W82844  41.441  44.932   9.445
10420W        W82845   1.469  19.129   4.288
10421W        W82846  43.782   7.341   1.279
10422W        W82847  22.518   3.800   2.716
10423W        W82848  32.112  27.016  13.468
10424W        W82849  41.999   3.816  12.974
10425W        W82850  39.910  32.409   0.787
10426W        W82851  39.023  23.144  11.868
10427W        W82852   6.757  37.056  11.477
10428W        W82853  37.916  29.098  13.493
10429W        W82854  14.660  17.631  11.106
10430W        W82855  33.509  25.586  13.449
10431W        W82856  24.219  42.005  10.645
10432W        W82857  43.367  35.940   2.282
10433W        W82858  38.916  15.166   4.805
10434W        W82859  24.503  40.919   1.301
10435W        W82860  37.942  44.844  12.056
10436W        W82861  29.972  13.701   4.675
10437W        W82862  23.003  43.017   4.206
10438W        W82863   1.930  10.700  13.894
10439W        W82864  22.209  21.610  12.508
10440W        W82865  29.129  30.121  13.982
10441W        W82866   6.870  34.936  10.969
10442W        W82867   9.761  31.595  14.281
10443W        W82868  17.584  20.608   1.356
10444W        W82869  22.617  36.468   1.360
10445W        W82870  24.148  13.192  10.901
10446W        W82871  25.184   0.304   0.288
10447W        W82872  32.471  36.510  14.385
10448W        W82873  43.509   4.869  11.570
10449W        W82874  35.592  26.533   3.839
10450W        W82875  41.884   2.818   3.840
10451W        W82876  31.917   6.343   2.221
10452W        W82877  32.582  27.944  10.434
10453W        W82878  17.749  41.411  10.442
10454W        W82879  16.582  25.130   2.775
10455W        W82880  42.824  30.990   3.365
10456W        W82881  38.930  42.439   1.882
10457W        W82882   8.704  32.626  14.293
10458W        W82883  42.918  19.607  14.787
10459W        W82884  12.672  37.398  11.983
10460W        W82885   3.852  26.024  11.927
10461W        W82886  14.138   6.185   2.857
10462W        W82887  26.584  42.886  11.546
10463W        W82888  15.624  32.405   0.421
10464W        W82889  44.411  23.623  14.499
10465W        W82890  34.476  37.010   1.401
10466W        W82891  15.719  36.366   1.862
10467W        W82892  25.692  21.604  10.955
10468W        W82893   5.879   2.879  13.802
10469W        W82894  36.476   8.252   1.787
10470W        W82895  36.955  13.228  12.014
10471W        W82896   4.854  29.551   1.413
10472W        W82897  34.922   2.364   1.881
10473W        W82898  12.157   7.702   0.870
10474W        W82899   4.864  17.563  11.464
10475W        W82900  42.479  44.413  13.055
10476W        W82901  20.676  40.007  11.902
10477W        W82902   4.735  24.575  11.935
10478W        W82903  14.205   1.441  11.985
10479W        W82904  42.818   1.402   0.483
10480W        W82905  37.972   7.800  11.988
10481W        W82906  17.276  23.688   4.712
10482W        W82907  11.364   6.262   2.825
10483W        W82908   4.859  40.471   3.727
10484W        W82909  32.491  13.726  13.357
10485W        W82910  13.229  16.749   3.854
10486W        W82911  41.960  26.981   1.725
10487W        W82912  16.178  15.770   2.818
10488W        W82913  33.494  26.701  12.913
10489W        W82914  17.084   2.306   4.283
10490W        W82915  15.159  40.515  13.977
10491W        W82916  25.602  44.398   2.327
10492W        W82917  25.544  22.133   2.290
10493W        W82918   3.829  25.157  10.621
10494W        W82919  26.009  33.568   2.859
10495W        W82920  11.743   1.781  14.972
10496W        W82921   0.312  13.825  13.984
10497W        W82922  20.066   5.265  10.977
10498W        W82923  12.285  40.516   2.808
10499W        W82924  34.561  14.676  12.042
10500W        W82925  26.560  17.137   3.809
10501W        W82926  15.667  14.737  12.916
10502W        W82927  21.057  42.509  11.557
10503W        W82928  32.492  29.023   4.707
10504W        W82929  41.364  39.327  14.413
10505W        W82930  12.302  23.640  13.030
10506W        W82931   7.221  22.112  12.040
10507W        W82932  25.714  37.944  14.321
10508W        W82933  12.305  14.712   3.736
10509W        W82934  23.685  29.141  14.781
10510W        W82935  24.658   8.322  12.026
10511W        W82936  28.083   0.440  11.877
10512W        W82937  21.569  33.602  11.025
10513W        W82938  39.976   6.877  13.896
10514W        W82939  20.673   5.400   0.338
10515W        W82940   2.743  11.771  11.941
10516W        W82941  33.578  33.588   4.809
10517W        W82942  32.517   1.919  14.949
10518W        W82943   1.832  25.030   1.864
10519W        W82944  10.196  12.301   0.874
10520W        W82945  24.603  36.413   3.690
10521W        W82946  27.685  28.602   4.311
10522W        W82947  16.263   8.688  11.996
10523W        W82948  44.866  37.394   2.767
10524W        W82949  35.594  21.640  10.548
10525W        W82950  12.259  42.397  12.835
10526W        W82951  25.677   0.348   2.752
10527W        W82952  22.677  40.971   2.390
10528W        W82953  19.738  20.628   0.770
10529W        W82954  38.822  15.771   3.683
10530W        W82955  30.554  27.004  12.896
10531W        W82956  36.994  20.695   2.787
10532W        W82957  20.761  33.904   1.331
10533W        W82958  37.957  29.629  13.946
10534W        W82959  44.376  13.738   3.650
10535W        W82960  36.402   7.212   1.331
10536W        W82961  43.802  14.779   2.232
10537W        W82962  27.572   1.942  14.366
10538W        W82963  16.614  27.127   4.306
10539W        W82964  35.052  39.843   0.309
10540W        W82965  21.656   3.948  13.930
10541W        W82966  42.826  30.561  12.539
10542W        W82967   3.819  36.984  10.906
10543W        W82968  24.638  21.542  14.280
10544W        W82969   2.857  15.733  12.529
10545W        W82970  14.781  26.206  10.577
10546W        W82971   4.822  34.035  13.421
10547W        W82972  44.458  14.591  13.885
10548W        W82973  11.750  38.463  13.843
10549W        W82974  17.144  28.467  12.350
10550W        W82975  26.202  21.247  12.917
10551W        W82976  26.684   1.249   0.405
10552W        W82977  15.601  24.186  11.377
10553W        W82978  38.837  18.287  14.343
10554W        W82979  19.244  13.254  13.906
10555W        W82980  35.954  42.519   1.259
10556W        W82981  20.179  40.420   2.207
10557W        W82982  33.098  28.981   1.389
10558W        W82983  35.381  36.379  12.446
10559W        W82984  17.265  21.658  11.519
10560W        W82985  28.007  14.723  12.966
10561W        W82986  40.464  36.528  12.518
10562W        W82987  26.995  26.166   4.144
10563W        W82988  38.890  42.953  14.426
10564W        W82989  28.158  35.948   5.127
10565W        W82990  16.714   7.393   3.686
10566W        W82991  15.620  36.853  11.075
10567W        W82992  44.451  19.253   0.728
10568W        W82993  23.523  12.772  14.292
10569W        W82994   1.789  40.966  14.007
10570W        W82995  28.150  43.963   1.260
10571W        W82996  23.566  30.532   0.414
10572W        W82997  21.639  37.474  11.592
10573W        W82998  10.695  28.543  14.459
10574W        W82999  34.470  29.587  12.495
10575W        W83000  39.058  16.740  11.569
10576W        W83001  43.467   8.710  10.899
10577W        W83002  10.791  20.536  12.439
10578W        W83003  22.226  39.357   0.937
10579W        W83004  19.147  20.064  11.932
10580W        W83005   8.869  13.829  14.805
10581W        W83006   1.829  38.479   1.415
10582W        W83007   6.800  13.110   0.758
10583W        W83008  43.813  25.509   0.358
10584W        W83009  18.680  12.726  13.923
10585W        W83010  17.679  42.874  14.372
10586W        W83011  42.505  30.018   3.691
10587W        W83012  32.980  15.202  11.054
10588W        W83013  34.877  33.035  10.579
10589W        W83014  20.053   5.835  11.493
10590W        W83015   8.389   4.731   4.739
10591W        W83016  12.179  16.243  13.441
10592W        W83017  38.832  31.517  13.947
10593W        W83018  27.557   7.205   4.225
10594W        W83019  43.918  32.442   0.259
10595W        W83020  22.584  22.650   2.366
10596W        W83021   9.753   1.912  13.993
10597W        W83022  20.040  20.185  11.556
10598W        W83023   7.398  24.528  13.858
10599W        W83024  25.040   1.946  13.534
10600W        W83025  18.672  32.955   9.628
10601W        W83026  35.552  10.282  14.865
10602W        W83027  15.674   0.985  12.924
10603W        W83028  29.651  44.465  13.482
10604W        W83029  19.235  14.714   4.244
10605W        W83030  32.974  17.204   5.742
10606W        W83031   3.813   5.834   2.714
10607W        W83032  18.102  40.963   4.708
10608W        W83033  36.558  37.031  12.385
10609W        W83034  13.775  39.484   4.317
10610W        W83035  40.537  14.132  11.566
10611W        W83036  24.604  10.670  11.000
10612W        W83037  10.689  15.813   1.307
10613W        W83038  24.192  12.660   0.856
10614W        W83039  38.985  10.806   4.670
10615W        W83040  41.937   3.721   1.742
10616W        W83041  28.470  17.778  14.491
10617W        W83042  27.145  33.879  11.105
10618W        W83043  17.138   1.786  11.574
10619W        W83044   7.683   4.251   2.186
10620W        W83045   2.279  31.065  11.430
10621W        W83046  16.149  31.558  13.039
10622W        W83047   3.721  28.547  14.425
10623W        W83048   5.362  40.809   0.268
10624W        W83049  11.629  32.906   2.793
10625W        W83050  22.113   2.318  10.404
10626W        W83051  21.626   2.897  12.476
10627W        W83052  40.487   6.287  12.407
10628W        W83053  26.618  43.844  14.027
10629W        W83054  10.225   9.263   2.716
10630W        W83055   0.426  42.283   4.628
10631W        W83056  40.926  19.284   4.771
10632W        W83057  44.453  13.689   4.282
10633W        W83058   8.764  21.607   3.770
10634W        W83059  14.168  43.455  14.277
10635W        W83060  42.372   7.716   4.610
10636W        W83061  21.227  29.017  10.099
10637W        W83062  43.849   0.781  12.580
10638W        W83063  23.174  38.893   9.988
10639W        W83064   2.360  11.833   4.661
10640W        W83065  34.992  37.895  14.367
10641W        W83066  39.876  13.660  14.840
10642W        W83067  37.059   7.236   4.267
10643W        W83068  22.581  35.013  13.035
10644W        W83069  35.869   2.720   2.824
10645W        W83070  27.950  28.079  11.933
10646W        W83071   6.688  27.135   1.790
10647W        W83072   3.751   9.211  10.906
10648W        W83073  12.147  13.326   1.743
10649W        W83074   6.843  12.202   3.337
10650W        W83075  33.586  43.294  11.570
10651W        W83076  33.046  12.831   4.292
10652W        W83077   2.444  34.393   0.957
10653W        W83078   8.663  30.113   3.282
10654W        W83079  26.605  10.204   0.767
10655W        W83080  42.977  41.314   4.341
10656W        W83081  43.368  34.450   2.196
10657W        W83082  27.476  24.007  14.848
10658W        W83083  27.508  15.219   1.219
10659W        W83084  35.982  17.107  13.824
10660W        W83085  44.361  30.609   5.287
10661W        W83086  21.693  13.262   2.205
10662W        W83087   4.348  28.947   1.925
10663W        W83088  36.489  17.719  13.925
10664W        W83089   7.373   4.742  11.895
10665W        W83090  18.580  16.628   3.306
10666W        W83091  19.050   1.830   4.185
10667W        W83092   0.280  37.534  11.933
10668W        W83093  12.630  33.447   1.790
10669W        W83094  32.028  43.270  13.806
10670W        W83095  36.573  42.853   5.086
10671W        W83096   3.810  40.477  14.454
10672W        W83097  17.630  27.180   4.812
10673W        W83098  33.401  44.470   3.325
10674W        W83099  16.595  15.745   1.411
10675W        W83100  27.091   3.417   0.435
10676W        W83101  44.986   9.309   3.364
10677W        W83102   9.330   2.857   1.724
10678W        W83103  44.816  10.339   1.430
10679W        W83104  16.139   5.210   3.694
10680W        W83105  30.545   1.973   3.322
10681W        W83106  34.377  11.738  10.618
10682W        W83107  19.174  42.914  12.850
10683W        W83108  36.863  12.270  10.993
10684W        W83109   1.311  10.189  11.071
10685W        W83110  19.248  32.606   0.452
10686W        W83111  15.187  41.924  12.993
10687W        W83112  21.619  24.580   2.854
10688W        W83113  16.089  12.805  10.471
10689W        W83114   7.315   5.806   4.750
10690W        W83115  10.312  35.460  12.866
10691W        W83116  23.493  28.674   3.278
10692W        W83117  38.373  21.595  11.588
10693W        W83118  14.340  10.226  13.049
10694W        W83119  36.879  10.143  14.950
10695W        W83120   0.387  37.484  11.392
10696W        W83121  27.579  13.601   3.859
10697W        W83122   6.203  29.433   1.702
10698W        W83123  10.248  23.492  13.979
10699W        W83124   6.287  44.310  14.353
10700W        W83125  24.493  17.784  11.872
10701W        W83126  14.594  15.152   3.684
10702W        W83127  42.985  25.617   4.607
10703W        W83128   2.899  43.503  11.935
10704W        W83129   4.741  37.952   0.813
10705W        W83130  26.127  32.635   3.717
10706W        W83131  35.929  16.717   4.651
10707W        W83132   8.757   0.961   1.371
10708W        W83133  29.589  10.671  10.890
10709W        W83134  22.510  29.940   1.892
10710W        W83135   4.350  41.841   3.667
10711W        W83136  31.090  32.009  11.967
10712W        W83137  10.724  27.509   0.416
10713W        W83138  43.427  10.684  10.596
10714W        W83139  33.900   2.429   2.354
10715W        W83140   1.361  37.407  12.008
10716W        W83141   7.816  37.867  14.025
10717W        W83142   3.271   8.172   3.223
10718W        W83143  25.219  20.740  10.964
10719W        W83144  17.717   8.863   4.208
10720W        W83145  19.229  13.260  10.932
10721W        W83146  42.470  31.636  12.881
10722W        W83147  10.854  23.155   4.692
10723W        W83148   7.284   6.405   4.194
10724W        W83149  33.616   1.901   2.242
10725W        W83150   0.415  44.976  14.009
10726W        W83151  32.425  29.137  14.790
10727W        W83152  17.208  38.954   1.835
10728W        W83153  31.138  22.695   3.174
10729W        W83154  39.002  34.079  11.119
10730W        W83155   7.367   9.320   4.269
10731W        W83156  29.981  19.133   2.277
10732W        W83157  16.194  37.849  12.939
10733W        W83158  44.316  40.459   2.784
10734W        W83159   1.240   5.883  12.556
10735W        W83160  43.513  27.597  12.376
10736W        W83161  35.906   1.476  11.519
10737W        W83162  19.202  12.634   2.784
10738W        W83163  38.493  11.756  13.478
10739W        W83164  24.218  20.101  11.041
10740W        W83165  25.701  13.838   0.253
10741W        W83166  33.599  12.699  10.497
10742W        W83167   6.907   8.188   2.179
10743W        W83168  32.117  22.602  13.799
10744W        W83169  22.075  17.111  12.950
10745W        W83170  17.583  33.382   0.345
10746W        W83171  35.371   5.755   3.756
10747W        W83172  12.148  29.173  11.491
10748W        W83173  40.022  11.188   2.825
10749W        W83174  22.193  17.111  13.821
10750W        W83175   7.909  16.686  10.937
10751W        W83176  10.261  44.007   2.727
10752W        W83177  41.506  44.781  13.468
10753W        W83178  18.212  20.683  14.280
10754W        W83179  28.974   5.418   2.243
10755W        W83180   2.964   0.358   1.351
10756W        W83181  30.062  37.087  13.855
10757W        W83182   0.308  27.943   0.965
10758W        W83183  20.030   2.939   3.715
10759W        W83184  28.005  43.284  14.317
10760W        W83185  24.973  15.693   1.715
10761W        W83186   5.333  32.560  10.606
10762W        W83187   9.858  14.791   2.712
10763W        W83188  24.685  26.113   2.249
10764W        W83189  40.343  23.037   4.323
10765W        W83190  33.613  15.263  10.473
10766W        W83191   7.415   8.361  12.544
10767W        W83192  28.085  16.589   0.275
10768W        W83193  37.447  36.004  13.807
10769W        W83194  22.027  33.434  13.497
10770W        W83195  41.333  36.409  14.349
10771W        W83196  22.689  26.959   0.731
10772W        W83197   4.386  13.602   0.358
10773W        W83198  21.149  10.174   4.753
10774W        W83199   0.967  17.654  14.502
10775W        W83200   5.409  34.922  12.396
10776W        W83201  41.510  19.590  11.940
10777W        W83202  32.547  11.840  10.464
10778W        W83203  12.309  41.934   0.365
10779W        W83204   6.834  16.702   3.236
10780W        W83205  18.199  26.657   4.610
10781W        W83206  16.573   7.782   1.913
10782W        W83207  19.046  12.706   0.846
10783W        W83208  25.999  22.060   4.602
10784W        W83209   6.917   1.872   3.849
10785W        W83210  37.003  30.433   2.717
10786W        W83211  10.373  42.361  11.980
10787W        W83212  28.072   6.688   0.251
10788W        W83213   3.910  28.985  14.001
10789W        W83214  33.102   4.867   2.409
10790W        W83215   6.868   8.175  11.110
10791W        W83216  12.287  35.004   0.859
10792W        W83217   0.465  32.017   4.145
10793W        W83218   9.284  17.743  10.426
10794W        W83219  17.194  31.417  10.440
10795W        W83220  17.687  35.447  13.953
10796W        W83221   0.775  21.511   0.459
10797W        W83222  39.396  10.148   1.346
10798W        W83223  10.686  18.178   2.324
10799W        W83224  20.534  20.695   1.406
10800W        W83225  18.143   0.774   0.929
10801W        W83226  14.337   1.762   4.628
10802W        W83227   0.854   4.724  14.765
10803W        W83228  19.738  24.090   4.815
10804W        W83229   3.807   6.910   4.266
10805W        W83230   7.221  39.317  14.362
10806W        W83231   5.895  33.469  10.482
10807W        W83232  28.459  16.180  12.841
10808W        W83233  29.490  25.034   9.991
10809W        W83234  26.485  40.977  12.893
10810W        W83235  25.657  36.932   3.367
10811W        W83236  27.019  33.964  11.427
10812W        W83237   6.410   5.371  11.435
10813W        W83238  40.976  10.663   1.256
10814W        W83239  12.130  29.117  13.379
10815W        W83240  24.579  29.601  10.569
10816W        W83241  22.545  32.542   2.245
10817W        W83242  22.195  34.989  14.495
10818W        W83243  44.316  20.703  13.434
10819W        W83244  43.341  42.434   4.637
10820W        W83245  27.974  44.403  13.997
10821W        W83246  22.124   8.207  10.924
10822W        W83247  35.430  15.737  13.375
10823W        W83248  14.129  13.196   0.255
10824W        W83249  18.249  29.071  12.963
10825W        W83250  26.970  44.444  12.096
10826W        W83251  43.324   3.370  14.966
10827W        W83252   0.958  28.129   4.792
10828W        W83253  15.310  18.660   4.185
10829W        W83254  23.664   9.297   4.716
10830W        W83255  27.163  17.740   0.366
10831W        W83256  39.814  37.571   1.414
10832W        W83257  44.500  38.457   4.742
10833W        W83258   8.691  12.668  13.467
10834W        W83259  36.952  41.317  12.847
10835W        W83260  23.135  19.548   4.345
10836W        W83261  35.920  34.085   4.706
10837W        W83262  19.724  41.436   4.687
10838W        W83263   0.315  16.658  11.085
10839W        W83264   8.385  18.553   3.379
10840W        W83265  29.452   5.742  12.955
10841W        W83266  41.815  28.153   2.889
10842W        W83267  12.148  43.376  14.903
10843W        W83268  24.680  39.419  14.936
10844W        W83269  27.482  17.148  14.803
10845W        W83270   9.249  37.958  14.470
10846W        W83271  42.446   7.734  14.780
10847W        W83272  17.642  43.403  12.856
10848W        W83273   2.786  18.666  14.498
10849W        W83274  17.778   9.680  13.812
10850W        W83275  13.824  11.191  13.992
10851W        W83276  19.710   5.831  11.531
10852W        W83277   5.222   7.303  14.825
10853W        W83278   9.170  16.627  12.902
10854W        W83279  33.403  15.183  14.299
10855W        W83280  44.866  41.335  13.909
10856W        W83281  31.564  15.651   2.690
10857W        W83282  24.984   2.794  12.848
10858W        W83283  21.749  12.664   1.889
10859W        W83284   0.854  33.452   1.800
10860W        W83285  42.328  44.302  14.513
10861W        W83286  32.446  32.024  13.381
10862W        W83287  10.259  27.095  13.046
10863W        W83288  25.015  21.131   0.277
10864W        W83289  34.091  27.568   3.267
10865W        W83290   7.343  15.704   2.392
10866W        W83291  11.744  36.406   0.352
10867W        W83292  20.122   2.817   1.888
10868W        W83293  31.471  43.870  14.025
10869W        W83294  18.581  28.523  10.515
10870W        W83295  28.501  34.967  12.571
10871W        W83296  36.922  10.261   0.376
10872W        W83297  24.077  33.036   0.275
10873W        W83298   8.352  32.078  13.453
10874W        W83299   5.235  38.411  14.801
10875W        W83300  39.934   0.264  13.946
10876W        W83301   1.451  20.534   4.251
10877W        W83302  24.026   7.846  13.430
10878W        W83303  35.500  21.172   3.747
10879W        W83304  29.481   1.750   4.142
10880W        W83305   7.302  29.067  13.350
10881W        W83306  43.949   5.272  11.415
10882W        W83307  24.620  40.978   4.326
10883W        W83308   8.272   4.443   2.411
10884W        W83309  32.467  11.202   0.408
10885W        W83310   1.380  41.839  10.588
10886W        W83311   0.271   8.829  14.275
10887W        W83312   7.816  19.106  10.414
10888W        W83313   7.763  19.184  14.299
10889W        W83314  22.566  16.247  10.558
10890W        W83315   9.277  29.611   2.242
10891W        W83316  39.833  26.481   4.179
10892W        W83317  28.672  32.600  10.610
10893W        W83318   0.807  14.601   1.694
10894W        W83319  13.639  26.467  14.999
10895W        W83320  18.754   0.751  12.376
10896W        W83321   0.425  30.417   3.295
10897W        W83322  41.521   3.231   1.840
10898W        W83323   3.737  42.476  12.539
10899W        W83324  12.705  40.033  11.402
10900W        W83325   6.898  12.332  13.485
10901W        W83326  34.989  40.418   3.693
10902W        W83327  25.023   4.818   1.733
10903W        W83328   0.753   7.880  10.458
10904W        W83329   2.444   4.384   0.912
10905W        W83330   8.702  22.741  11.099
10906W        W83331  21.183   4.437  11.871
10907W        W83332  16.597  37.388   2.833
10908W        W83333  28.991  15.780   3.363
10909W        W83334  13.117  14.130   5.095
10910W        W83335  25.211  29.641   2.378
10911W        W83336  18.587  10.306   3.239
10912W        W83337  17.801  16.622   4.802
10913W        W83338  26.044  23.038  10.998
10914W        W83339  42.369  31.573  13.949
10915W        W83340  24.142  43.882  11.965
10916W        W83341   8.670  20.141   4.232
10917W        W83342  10.854  14.764   2.702
10918W        W83343  13.251   1.377   3.823
10919W        W83344  42.843  21.118  11.559
10920W        W83345   5.331  30.063  10.423
10921W        W83346   7.262  16.654  12.845
10922W        W83347  14.684  26.607   1.377
10923W        W83348   6.711  34.512   5.102
10924W        W83349  18.224  28.483   1.933
10925W        W83350  35.878  30.613   0.903
10926W        W83351  27.075  31.970  13.403
10927W        W83352  38.357  14.195   2.394
10928W        W83353  29.070  44.298   2.699
10929W        W83354  23.602  34.443   0.929
10930W        W83355  41.433  27.998   4.157
10931W        W83356  17.569  30.095   1.257
10932W        W83357  12.829  38.550  11.472
10933W        W83358  10.144   1.475   2.675
10934W        W83359  40.813  27.012  14.807
10935W        W83360  29.500  42.942   4.213
10936W        W83361  13.651   3.320   1.774
10937W        W83362  12.751  44.416   2.319
10938W        W83363   5.780  42.376  14.861
10939W        W83364   0.297  42.442  14.284
10940W        W83365  14.672   5.253   1.930
10941W        W83366  28.014   8.348   3.812
10942W        W83367  14.313   8.810  13.883
10943W        W83368  21.139  30.992   1.400
10944W        W83369  30.441  14.322   1.850
10945W        W83370   0.453  11.300   2.862
10946W        W83371  28.585  39.063  10.580
10947W        W83372  13.184  23.077  13.962
10948W        W83373   0.850  25.167  12.438
10949W        W83374  31.060   9.319  10.902
10950W        W83375  40.929   6.922  14.379
10951W        W83376  25.067   6.214   4.705
10952W        W83377  12.174  29.947  12.039
10953W        W83378  32.067  24.127  14.317
10954W        W83379   7.262  12.331   2.818
10955W        W83380  10.660   8.405  11.875
10956W        W83381   2.854  33.382   0.872
10957W        W83382  22.705  37.926  12.369
10958W        W83383  40.020   7.722  11.987
10959W        W83384   4.810  13.195  13.826
10960W        W83385  19.549  19.649   2.224
10961W        W83386  31.601   9.853   4.236
10962W        W83387  22.144  29.942   4.837
10963W        W83388  24.595  41.898  10.907
10964W        W83389   0.480  35.407  12.949
10965W        W83390   3.408   5.887  12.489
10966W        W83391  33.419   7.226   5.276
10967W        W83392  17.726   3.292   0.798
10968W        W83393  17.231  22.180   4.143
10969W        W83394  34.469  25.197  13.486
10970W        W83395  11.728   9.889  10.010
10971W        W83396  37.352  15.196   3.285
10972W        W83397  20.533   6.798   4.657
10973W        W83398  22.542  30.644   0.391
10974W        W83399  22.174  30.038   3.785
10975W        W83400  21.541  24.224  12.356
10976W        W83401   2.230  17.133   3.329
10977W        W83402  14.626  16.201  11.379
10978W        W83403  12.656  35.438  12.012
10979W        W83404  17.670  35.427   4.129
10980W        W83405  38.948  43.274  12.447
10981W        W83406  24.637  18.572  11.573
10982W        W83407   7.327  42.383   1.325
10983W        W83408   5.737  27.493   2.740
10984W        W83409   9.322  41.293   2.682
10985W        W83410  14.679  31.094   4.699
10986W        W83411  14.280  32.958  12.938
10987W        W83412  24.064   2.757  11.584
10988W        W83413  16.723  39.959   1.753
10989W        W83414  10.195  43.775  13.797
10990W        W83415  35.545   3.763   4.268
10991W        W83416   6.741  27.598  13.454
10992W        W83417  13.688  43.909   2.876
10993W        W83418  24.517  36.421   4.135
10994W        W83419  30.990   4.279  12.538
10995W        W83420   6.737  34.910   4.247
10996W        W83421  28.943  10.327  12.063
10997W        W83422  13.327  28.054  14.308
10998W        W83423  16.739  39.034   1.820
10999W        W83424  35.970  26.472   3.840
11000W        W83425  34.995  22.571  12.452
11001W        W83426   1.959  16.078  11.962
11002W        W83427  15.819  20.214  13.347
11003W        W83428  20.180  29.502   0.292
11004W        W83429  27.085   0.850  14.775
11005W        W83430  18.271  39.363   2.724
11006W        W83431   7.341  33.067   3.865
11007W        W83432  42.340  34.882   3.165
11008W        W83433   7.335  10.338   1.848
11009W        W83434  12.299  42.845  11.890
11010W        W83435  44.439  39.469  10.558
11011W        W83436  18.711  27.612  12.339
11012W        W83437  31.426  39.951  13.836
11013W        W83438  30.927  33.479   4.752
11014W        W83439  30.041  21.650   3.158
11015W        W83440   5.345  32.088  11.050
11016W        W83441  30.461  40.852  12.546
11017W        W83442  25.506  14.718  12.828
11018W        W83443  14.111  28.033   4.186
11019W        W83444  23.139  16.636   4.618
11020W        W83445  25.541  30.574  14.936
11021W        W83446  19.673   4.399   4.262
11022W        W83447  36.559   0.380  10.536
11023W        W83448  31.118  41.942   3.287
11024W        W83449  29.513  40.816  10.926
11025W        W83450   4.293   6.710  12.439
11026W        W83451  18.553   5.376   1.891
11027W        W83452  11.257  23.674  12.496
11028W        W83453  18.672  14.329  13.035
11029W        W83454  37.388   8.264   2.825
11030W        W83455   3.725  37.867  10.546
11031W        W83456  27.992  15.807   3.186
11032W        W83457   5.293  27.653   1.819
11033W        W83458  36.892  39.980   3.777
11034W        W83459   6.303  10.788  11.040
11035W        W83460  19.720   6.680   1.759
11036W        W83461  29.066  11.216   4.195
11037W        W83462  28.479   0.344   1.277
11038W        W83463   5.433  41.915   0.322
11039W        W83464  26.972  11.753   4.201
11040W        W83465   2.372   0.437   3.710
11041W        W83466  10.717  34.539   4.687
11042W        W83467   5.865  29.065  14.441
11043W        W83468   0.310  31.571   4.162
11044W        W83469  39.398  36.976  10.983
11045W        W83470  23.110   7.758   9.538
11046W        W83471  29.567  34.948  13.860
11047W        W83472  23.726  22.720   1.449
11048W        W83473  12.169   9.232  11.504
11049W        W83474  13.232  29.509   3.637
11050W        W83475  12.640   4.871   3.344
11051W        W83476  34.407  13.351   1.412
11052W        W83477  35.436  24.184   0.758
11053W        W83478  18.691  31.007  13.374
11054W        W83479  42.447  15.313  11.556
11055W        W83480  25.209  35.969  13.478
11056W        W83481  34.908  32.087   2.218
11057W        W83482   1.303  23.984   0.246
11058W        W83483  14.753  41.291   4.237
11059W        W83484   8.783  18.105   3.254
11060W        W83485  26.582  33.950  10.406
11061W        W83486  37.440   0.471  13.368
11062W        W83487   7.372  27.672   2.751
11063W        W83488  20.563  40.313   3.848
11064W        W83489  21.118  26.169   3.382
11065W        W83490  38.047  19.712   2.712
11066W        W83491  26.030  32.595  11.482
11067W        W83492  10.222  25.082   4.771
11068W        W83493   4.207  35.388  12.010
11069W        W83494  41.882  41.852  10.925
11070W        W83495  30.068  24.653  11.953
11071W        W83496   9.759  11.249   2.215
11072W        W83497  29.669   3.334   4.600
11073W        W83498  26.570  36.915   3.712
11074W        W83499   6.218  14.278  11.474
11075W        W83500   0.249  17.762  13.896
11076W        W83501   6.751  16.143  13.541
11077W        W83502  22.605  21.523  14.389
11078W        W83503   7.779  31.591   4.218
11079W        W83504  23.643  19.072   3.164
11080W        W83505  11.713  11.235   0.406
11081W        W83506  14.656  40.048  12.559
11082W        W83507  20.574  37.921   3.639
11083W        W83508  23.118  42.908   1.815
11084W        W83509  33.488  40.926  12.347
11085W        W83510  39.501  39.375  13.838
11086W        W83511  30.529  40.474   2.806
11087W        W83512  36.482  22.692  14.357
11088W        W83513  13.270   7.770  12.493
11089W        W83514  36.954  19.607  12.937
11090W        W83515  32.045   4.837   2.245
11091W        W83516  17.192   3.753  14.782
11092W        W83517   6.750  23.561  10.907
11093W        W83518   0.414   5.291   0.837
11094W        W83519  41.954  26.178  13.429
11095W        W83520  14.699  23.725   3.855
11096W        W83521   4.369  25.056  11.472
11097W        W83522   5.360   2.452  13.529
11098W        W83523  22.148  37.867   3.386
11099W        W83524  43.876  15.245   0.762
11100W        W83525  33.411  43.915  12.952
11101W        W83526  10.373  16.280   2.288
11102W        W83527  40.417  40.894   0.766
11103W        W83528   5.921  16.286   4.181
11104W        W83529  44.424  10.355   2.736
11105W        W83530   3.285  12.221   0.800
11106W        W83531   6.396  37.462  13.806
11107W        W83532  24.099  26.024  11.502
11108W        W83533  26.674  27.523   4.800
11109W        W83534  11.726  44.838  11.899
11110W        W83535   1.794   8.381  12.498
11111W        W83536  20.189  11.860   0.957
11112W        W83537   1.291  20.173  13.821
11113W        W83538   1.764  39.816  10.505
11114W        W83539   3.884  34.457  14.306
11115W        W83540  31.554  24.561  11.121
11116W        W83541  14.720  10.219  10.148
11117W        W83542  39.902  31.990  14.449
11118W        W83543  26.969  30.449   3.784
11119W        W83544  36.421  42.933  11.463
11120W        W83545   1.257   1.893  13.528
11121W        W83546  16.128  44.302  14.453
11122W        W83547  14.168  17.195  11.417
11123W        W83548  20.746  16.723   0.275
11124W        W83549  20.116  17.127   4.209
11125W        W83550   6.187  27.688   0.783
11126W        W83551   2.910  22.175  10.896
11127W        W83552  30.437  22.655   2.286
11128W        W83553   4.910  36.070   3.800
11129W        W83554  21.137  35.962   4.294
11130W        W83555  30.112  31.945  13.818
11131W        W83556  31.132  37.518   4.288
11132W        W83557  15.263   4.220   1.355
11133W        W83558  21.691   3.354  14.366
11134W        W83559  39.885  23.644  10.918
11135W        W83560  26.458   4.208   1.342
11136W        W83561   6.889  20.665  13.428
11137W        W83562  40.802  35.447   0.295
11138W        W83563  21.741  19.571  10.514
11139W        W83564  26.045   4.800   1.768
11140W        W83565  12.229  37.852   4.221
11141W        W83566  43.446   9.679  12.035
11142W        W83567   6.744   2.966   4.753
11143W        W83568   3.344   8.336  12.970
11144W        W83569   4.839  44.879  12.021
11145W        W83570  25.039  42.002  13.943
11146W        W83571  38.548  34.095  12.449
11147W        W83572   4.729  14.286   4.832
11148W        W83573  28.625  14.287   3.370
11149W        W83574   5.880  36.401   5.758
11150W        W83575   6.806  23.017  12.862
11151W        W83576  22.570  29.968   2.241
11152W        W83577   2.904  40.822   1.893
11153W        W83578  17.703   8.675   2.259
11154W        W83579   3.343  31.010   2.718
11155W        W83580   7.750   6.754  12.373
11156W        W83581  16.237   2.737  13.530
11157W        W83582  42.031  18.111  14.887
11158W        W83583  25.595  12.745  10.460
11159W        W83584  40.413  21.653   4.793
11160W        W83585   3.885   2.818  13.319
11161W        W83586  21.734  11.663   0.964
11162W        W83587   1.907  17.168   1.696
11163W        W83588  26.101   0.776  13.466
11164W        W83589   2.389  38.403  14.826
11165W        W83590  10.818   7.243   0.886
11166W        W83591  34.110  42.916  10.407
11167W        W83592   6.254   5.775  13.948
11168W        W83593  19.600  33.610  12.836
11169W        W83594   2.357  35.600  14.853
11170W        W83595  34.025  41.848   4.735
11171W        W83596  22.187  15.649  13.062
11172W        W83597  22.702  12.169   3.806
11173W        W83598   0.862  25.586  12.433
11174W        W83599  18.118  42.832  10.415
11175W        W83600  35.378  37.343   2.818
11176W        W83601   7.808  17.089  11.490
11177W        W83602  28.144  18.756   3.147
11178W        W83603  29.627  28.021   2.678
11179W        W83604  33.626   6.193   3.858
11180W        W83605  24.156   5.747   3.336
11181W        W83606  13.668  37.494   2.400
11182W        W83607   5.922  29.964   4.710
11183W        W83608  25.694  44.765   4.243
11184W        W83609  20.111   4.827  11.021
11185W        W83610  15.254  15.091   3.687
11186W        W83611  31.451   3.934   4.757
11187W        W83612   6.690  42.813   4.115
11188W        W83613   0.418  30.949   3.364
11189W        W83614   4.896  12.737  14.402
11190W        W83615  16.753   0.801  13.318
11191W        W83616   1.969  24.983  12.830
11192W        W83617  15.819   3.426   3.339
11193W        W83618  34.987  35.107   2.226
11194W        W83619  25.127   0.414   3.675
11195W        W83620  16.239  15.727  11.885
11196W        W83621   3.369  39.877  11.545
11197W        W83622  17.124   9.243   0.479
11198W        W83623   2.886   1.450  12.397
11199W        W83624  24.174  23.087  14.837
11200W        W83625  16.569  16.586   4.190
11201W        W83626  11.828   0.809  11.393
11202W        W83627  21.263  10.376  10.472
11203W        W83628  10.764  29.147   0.818
11204W        W83629  44.413  40.849  14.284
11205W        W83630  33.932  24.981   1.248
11206W        W83631   0.776   7.782  14.013
11207W        W83632   7.360  35.416  11.982
11208W        W83633  22.727  42.435   0.894
11209W        W83634   1.938   1.907  14.917
11210W        W83635  12.253  15.819   4.129
11211W        W83636  15.095  11.774  13.877
11212W        W83637  17.571   1.382   5.183
11213W        W83638   5.721  42.009   4.242
11214W        W83639  11.276  43.451   4.824
11215W        W83640  18.692  25.031  11.600
11216W        W83641  39.917  35.491   0.910
11217W        W83642   6.319  11.337   2.315
11218W        W83643  11.626  31.117   3.305
11219W        W83644  35.022  13.679  12.845
11220W        W83645   2.936  37.466   0.745
11221W        W83646  43.470  32.513   4.349
11222W        W83647  15.784   0.288  13.041
11223W        W83648  36.507  20.635   1.798
11224W        W83649   0.804  40.030   4.207
11225W        W83650   7.911  23.610  12.436
11226W        W83651  37.023   1.851  11.532
11227W        W83652  42.905  11.625  10.961
11228W        W83653  37.910  36.064  11.109
11229W        W83654  27.177   6.917  13.497
11230W        W83655  37.422  43.787  14.416
11231W        W83656   5.209  10.641   3.196
11232W        W83657  40.959  34.073   0.966
11233W        W83658  20.651  44.786   1.390
11234W        W83659  21.578  16.257  13.013
11235W        W83660  39.921  12.830  11.434
11236W        W83661   3.276  40.320   4.139
11237W        W83662   7.314  43.322  14.365
11238W        W83663  11.841  19.039  13.438
11239W        W83664  40.410  23.005  14.446
11240W        W83665  29.164  38.880  13.369
11241W        W83666  39.407   6.875   0.462
11242W        W83667  30.946  20.189   3.803
11243W        W83668  41.520  24.706   2.317
11244W        W83669  12.666  40.003   1.781
11245W        W83670  33.008  18.227   5.104
11246W        W83671  29.119  12.796  12.431
11247W        W83672   3.280  18.087   3.263
11248W        W83673  12.116  44.802  14.010
11249W        W83674  35.929  24.483  13.051
11250W        W83675  24.210  16.134  13.946
11251W        W83676  31.486  15.669   1.874
11252W        W83677  40.383  37.034  10.442
11253W        W83678  44.888   5.392  14.300
11254W        W83679  22.148  14.302   1.800
11255W        W83680  40.383  22.525  13.825
11256W        W83681  30.976  12.352   4.762
11257W        W83682  21.218  15.755  10.926
11258W        W83683   1.367  29.506   1.321
11259W        W83684   6.792   6.331  12.926
11260W        W83685  15.302   0.434   9.996
11261W        W83686  44.931   4.730   0.928
11262W        W83687   4.894  18.728   0.825
11263W        W83688  14.193  39.518  11.031
11264W        W83689   1.330  38.846  13.819
11265W        W83690  24.086  26.595  10.937
11266W        W83691   6.677   5.839  11.463
11267W        W83692  25.671  14.336  10.505
11268W        W83693  32.398  31.091   4.816
11269W        W83694  29.454   3.728  11.054
11270W        W83695  29.120  37.433  13.817
11271W        W83696  31.571   7.240  13.503
11272W        W83697  30.590  32.891   1.859
11273W        W83698  31.473   6.736   1.225
11274W        W83699  17.725  14.801   3.635
11275W        W83700  37.019  37.365   4.118
11276W        W83701   1.477  14.819   1.332
11277W        W83702  30.599  23.646   2.856
11278W        W83703  23.025  42.776   4.811
11279W        W83704  21.641  25.038  14.877
11280W        W83705  36.516  13.608  10.940
11281W        W83706   5.304  30.654  11.512
11282W        W83707  27.124   4.223  13.509
11283W        W83708  24.560  11.790   4.647
11284W        W83709  36.852  26.630   5.127
11285W        W83710  27.944  15.103   2.280
11286W        W83711  15.652  10.647  11.061
11287W        W83712  28.493  31.975  14.492
11288W        W83713  26.698  44.461  11.439
11289W        W83714  44.492  23.104  13.344
11290W        W83715   2.256  20.584  14.009
11291W        W83716   7.289  31.057  10.610
11292W        W83717  19.230  22.661   1.878
11293W        W83718  32.140   6.302  10.417
11294W        W83719  13.621   6.871   4.737
11295W        W83720  21.123  36.992  11.997
11296W        W83721  29.142  33.508  11.445
11297W        W83722  39.396  30.120  11.419
11298W        W83723  24.043  17.675   0.940
11299W        W83724  22.028  18.078   4.794
11300W        W83725  39.823  40.917  10.416
11301W        W83726   2.839  10.781  14.877
11302W        W83727  32.557  17.758   0.452
11303W        W83728  43.500  44.398   4.228
11304W        W83729  22.224  40.833  12.579
11305W        W83730  15.817  14.178   0.291
11306W        W83731   5.915  18.707  11.956
11307W        W83732   3.347  11.277  14.763
11308W        W83733   4.424  21.066   1.335
11309W        W83734  24.137  23.534  14.917
11310W        W83735   0.333   1.954  11.913
11311W        W83736   1.821  35.042   1.885
11312W        W83737  32.099  30.947   5.214
11313W        W83738  28.045  23.101   3.791
11314W        W83739  12.296  19.248   3.699
11315W        W83740   7.386  29.662   3.747
11316W        W83741  17.201   2.235   3.736
11317W        W83742  11.625  26.955  13.864
11318W        W83743  25.075  18.172   3.672
11319W        W83744  36.443  20.723   0.960
11320W        W83745  44.793   9.276   1.411
11321W        W83746   0.957   4.782  10.404
11322W        W83747   9.305  31.150  10.475
11323W        W83748   0.320  11.334  12.868
11324W        W83749   8.706  11.190   3.227
11325W        W83750  16.636  25.988   2.884
11326W        W83751   5.913  15.589  14.778
11327W        W83752  13.734  30.042  14.031
11328W        W83753  42.980  26.456   4.146
11329W        W83754  14.829  20.558  14.383
11330W        W83755  10.690  27.494  12.554
11331W        W83756  25.587  30.930   0.324
11332W        W83757  34.470   5.213   2.886
11333W        W83758   1.951  16.087   1.843
11334W        W83759  21.538  43.473  13.362
11335W        W83760  30.925  44.260  10.509
11336W        W83761  39.031   4.922   0.908
11337W        W83762  15.603  14.129   3.739
11338W        W83763  21.101  39.354  11.580
11339W        W83764  42.776  11.330  11.926
11340W        W83765  14.729  36.931   0.930
11341W        W83766  28.000  44.496   4.711
11342W        W83767  17.667   8.273   1.230
11343W        W83768  15.158  26.696  12.498
11344W        W83769  33.384  30.547  14.779
11345W        W83770  25.080  30.642  13.847
11346W        W83771  38.547  42.970   5.121
11347W        W83772  41.973  33.016   4.763
11348W        W83773  36.389  11.210   2.229
11349W        W83774   7.317  17.665  14.007
11350W        W83775   8.710  39.987  13.064
11351W        W83776  29.925  32.606   9.923
11352W        W83777  28.978  36.024  11.012
11353W        W83778  10.147   5.722  14.029
11354W        W83779  30.163  12.692   3.844
11355W        W83780  44.286  19.570   3.863
11356W        W83781  43.869  24.217   0.418
11357W        W83782  25.549  37.878   4.777
11358W        W83783  33.414  35.910  11.381
11359W        W83784  29.545  37.036  13.373
11360W        W83785   3.324  28.508  13.338
11361W        W83786  10.695  32.474  14.318
11362W        W83787   9.822  18.594   4.832
11363W        W83788  32.526  26.640  12.839
11364W        W83789  29.959  29.640   3.822
11365W        W83790   7.299   5.851   2.269
11366W        W83791  39.350  16.801  12.005
11367W        W83792  19.562   5.739   2.392
11368W        W83793  35.407  13.599  13.825
11369W        W83794  41.920   7.796   3.746
11370W        W83795   3.257  31.129  12.464
11371W        W83796  27.533  10.283   0.942
11372W        W83797   1.371  34.547   2.886
11373W        W83798  37.070  21.610   0.931
11374W        W83799  22.206  44.319  12.871
11375W        W83800  39.357  20.255   2.242
11376W        W83801   9.295   3.340  11.573
11377W        W83802  34.023  13.151   3.713
11378W        W83803  14.160  22.094   5.692
11379W        W83804  43.271  43.971   0.267
11380W        W83805  42.457  30.456   4.734
11381W        W83806  28.671   5.222   4.818
11382W        W83807  31.421   1.352  14.823
11383W        W83808  34.506  31.553  13.508
11384W        W83809  25.204   9.796   2.687
11385W        W83810  30.539  41.352   0.861
11386W        W83811  10.188   9.685   1.831
11387W        W83812   9.683   8.294  11.934
11388W        W83813  21.136  41.009   2.758
11389W        W83814  29.945  25.046   1.449
11390W        W83815   2.246  44.396   2.781
11391W        W83816  40.892  36.399   0.795
11392W        W83817   2.742   0.339  13.024
11393W        W83818  37.977  39.975   2.776
11394W        W83819  38.981  17.584  13.323
11395W        W83820  42.003  35.107   3.338
11396W        W83821   7.396  31.418   2.901
11397W        W83822   8.677  25.583   4.697
11398W        W83823  23.605   2.330  11.100
11399W        W83824   8.342  13.705   3.848
11400W        W83825  10.660   4.400   4.260
11401W        W83826  13.832  24.197   4.824
11402W        W83827  30.601  41.919   0.828
11403W        W83828  30.652  37.923  14.905
11404W        W83829  20.269  27.552  13.919
11405W        W83830  39.411  42.909  10.467
11406W        W83831  35.374  23.572   5.150
11407W        W83832  23.119  17.674   0.877
11408W        W83833  19.651  29.557   1.841
11409W        W83834  14.202  31.452  14.400
11410W        W83835  41.330  32.462   2.868
11411W        W83836  11.822  37.916   3.799
11412W        W83837  36.565  13.204  12.900
11413W        W83838  16.676  17.247   4.812
11414W        W83839  15.621  37.072   3.791
11415W        W83840  43.911  18.106   3.704
11416W        W83841  17.772  20.684   2.741
11417W        W83842  12.655  34.489  10.521
11418W        W83843   8.189  12.335  14.852
11419W        W83844  21.729  43.379   2.332
11420W        W83845  36.417  38.561   0.428
11421W        W83846  40.525  40.834  11.387
11422W        W83847  35.986   6.345  13.898
11423W        W83848  30.047   1.790  13.421
11424W        W83849   9.317  14.819   2.263
11425W        W83850  43.931   9.351   0.914
11426W        W83851  14.768  20.146  11.458
11427W        W83852  38.019  27.092   1.895
11428W        W83853  14.816  30.143   2.287
11429W        W83854   5.254  34.108  12.078
11430W        W83855  39.481  26.062  11.531
11431W        W83856  25.000  42.422   2.388
11432W        W83857  29.465  34.587   4.294
11433W        W83858   4.812  42.874  13.526
11434W        W83859  31.558  37.984   4.269
11435W        W83860  27.071  27.196  12.402
11436W        W83861  36.034  16.678  13.943
11437W        W83862  23.501   3.807   4.782
11438W        W83863  23.240  28.031   4.239
11439W        W83864  23.726  17.128  12.910
11440W        W83865  11.753  12.309   3.799
11441W        W83866  25.616   6.694   4.216
11442W        W83867  27.071  19.683  12.400
11443W        W83868  36.849  20.053   4.319
11444W        W83869   1.323  40.951  13.925
11445W        W83870   4.833  25.673  10.576
11446W        W83871   8.819  33.495   5.201
11447W        W83872  14.744   0.310  13.051
11448W        W83873  28.944  31.480  10.962
11449W        W83874  17.799   0.864  10.619
11450W        W83875  10.811  25.641   0.479
11451W        W83876  38.857  15.742   3.178
11452W        W83877  41.412  12.233  13.813
11453W        W83878  25.090   4.753  11.122
11454W        W83879   5.706   3.411  10.590
11455W        W83880  23.641  21.574  11.553
11456W        W83881  38.873   9.755  12.911
11457W        W83882  41.840  36.516   2.839
11458W        W83883  44.277  15.263  14.991
11459W        W83884  16.171  30.511  13.977
11460W        W83885   5.333   0.769  14.295
11461W        W83886  37.008  13.845  11.479
11462W        W83887  41.027  30.608   3.312
11463W        W83888  19.209  42.434  13.912
11464W        W83889  19.065  30.499   3.633
11465W        W83890  35.896  32.138   1.331
11466W        W83891  40.830  42.914  10.028
11467W        W83892  44.445   5.813   2.691
11468W        W83893  31.638   1.373   1.830
11469W        W83894   7.395  26.117  10.404
11470W        W83895  37.036  10.308   1.868
11471W        W83896  28.516  26.111   3.714
11472W        W83897  38.956   7.685   4.274
11473W        W83898   8.281  28.478  13.543
11474W        W83899  37.998   5.912   3.235
11475W        W83900  22.587   6.199   1.345
11476W        W83901  35.902  42.316   2.792
11477W        W83902   9.172  22.588   1.251
11478W        W83903  27.564   1.913  14.881
11479W        W83904  25.994  38.904  10.465
11480W        W83905  31.646   9.196   0.242
11481W        W83906  35.979  25.971   2.773
11482W        W83907  38.043  24.709   1.783
11483W        W83908   3.765  40.501  12.565
11484W        W83909  11.271   3.809  13.879
11485W        W83910   1.801  14.291   0.372
11486W        W83911  18.555  36.517   2.331
11487W        W83912   5.386  28.594  11.986
11488W        W83913   9.336  12.185  12.414
11489W        W83914  26.035  28.556   4.609
11490W        W83915   9.649  21.144  10.489
11491W        W83916  13.258   0.260   2.778
11492W        W83917   0.418  14.144  10.550
11493W        W83918  16.566   5.742   0.757
11494W        W83919  36.860  18.749   3.833
11495W        W83920  13.153  13.734   2.800
11496W        W83921   7.309  34.487  13.439
11497W        W83922  11.139  23.087   2.206
11498W        W83923  12.196  37.406  13.931
11499W        W83924  18.070  15.112  14.393
11500W        W83925  11.134  30.928   4.257
11501W        W83926  33.917  21.056   2.903
11502W        W83927  33.473   7.702   4.611
11503W        W83928   5.362  24.036   0.274
11504W        W83929  21.646  15.108  13.850
11505W        W83930  41.302  14.304  12.030
11506W        W83931  38.037   7.365  14.943
11507W        W83932  40.365  35.943  12.958
11508W        W83933   2.310  19.722   4.715
11509W        W83934  27.587  17.581   1.920
11510W        W83935  38.959  36.879   9.948
11511W        W83936  13.171   7.302  12.894
11512W        W83937  12.304  16.720   3.732
11513W        W83938   4.360  37.476   1.904
11514W        W83939  35.482   1.338   3.169
11515W        W83940  43.817  20.623   1.725
11516W        W83941  35.937   5.234  11.084
11517W        W83942   9.317   9.715   3.373
11518W        W83943   2.446  37.448  10.964
11519W        W83944  20.059  19.649  11.422
11520W        W83945   7.686  34.553   4.208
11521W        W83946  23.214   7.674   4.177
11522W        W83947  16.153   7.743  14.407
11523W        W83948  20.544  20.243  14.917
11524W        W83949  34.576  37.044  13.961
11525W        W83950  35.409  39.540  11.095
11526W        W83951   0.938  42.999   1.424
11527W        W83952  27.094  20.171  14.812
11528W        W83953  14.810  42.855   4.819
11529W        W83954  33.423  27.669   0.310
11530W        W83955   1.871  24.558   0.735
11531W        W83956  30.012  11.666   4.284
11532W        W83957  39.989  36.846  14.492
11533W        W83958  14.667   0.417   4.757
11534W        W83959  43.488  32.541  11.523
11535W        W83960  32.003  10.781   3.732
11536W        W83961  33.572   5.343  12.048
11537W        W83962  31.489  17.558  13.310
11538W        W83963  31.457  12.330  12.414
11539W        W83964  39.853   6.395  10.463
11540W        W83965  23.686  14.304  10.930
11541W        W83966  38.025  42.965  12.529
11542W        W83967  18.582  38.916  11.946
11543W        W83968  23.177  38.918  12.856
11544W        W83969  30.538  28.549   4.599
11545W        W83970  20.740  30.523   3.678
11546W        W83971   5.323  36.515   4.688
11547W        W83972  14.316  36.861   2.856
11548W        W83973  33.005  36.025   2.385
11549W        W83974  31.580  42.446  13.404
11550W        W83975  34.921  44.932   1.360
11551W        W83976  42.395   7.777   1.229
11552W        W83977   1.731  33.454  11.107
11553W        W83978  28.527  30.624   5.582
11554W        W83979  16.682  14.224  13.063
11555W        W83980   2.292  13.152   4.739
11556W        W83981  41.800  39.972  12.546
11557W        W83982  31.417  25.603  11.977
11558W        W83983  29.431  41.946  14.394
11559W        W83984  12.353  26.129  12.504
11560W        W83985  29.017  20.601   3.689
11561W        W83986  42.501  19.692  14.022
11562W        W83987  29.634  17.115   4.305
11563W        W83988   8.808  29.567   3.233
11564W        W83989   1.262   0.978  12.067
11565W        W83990  21.061  39.482  12.488
11566W        W83991  13.269  17.207   2.860
11567W        W83992  12.161  21.687  10.953
11568W        W83993  15.818   8.236  14.411
11569W        W83994  14.617  25.985  13.470
11570W        W83995  31.603   0.410  12.552
11571W        W83996  28.173  20.621  10.597
11572W        W83997  24.654  41.816   2.799
11573W        W83998  26.033   1.835   1.407
11574W        W83999   3.261  15.277   1.326
11575W        W84000  30.452  33.457  13.839
11576W        W84001  23.004  20.080   3.379
11577W        W84002  30.100   5.917  14.357
11578W        W84003   6.719  14.621   0.337
11579W        W84004   9.197  14.326  11.532
11580W        W84005  41.011   4.804  11.085
11581W        W84006  30.076  18.737   1.352
11582W        W84007  28.964  17.222  13.046
11583W        W84008  29.480  31.949  10.476
11584W        W84009   0.752   9.839   1.427
11585W        W84010   3.855  41.820   3.270
11586W        W84011   1.437  12.814   4.190
11587W        W84012  33.949  25.584  14.846
11588W        W84013  32.072   4.239  11.394
11589W        W84014   9.358  42.858  12.885
11590W        W84015  18.193  10.723   3.695
11591W        W84016  38.562  28.626   3.215
11592W        W84017  43.496  24.719  12.409
11593W        W84018  18.585  33.505  10.964
11594W        W84019  24.710  10.693  11.392
11595W        W84020   2.848  29.506  14.396
11596W        W84021  38.387  32.569   1.312
11597W        W84022  14.663  28.535  12.898
11598W        W84023   7.210  13.298  12.006
11599W        W84024  15.804  35.452  10.424
11600W        W84025  31.623  28.152   3.344
11601W        W84026  30.112   5.744   1.439
11602W        W84027  40.934  11.313   3.287
11603W        W84028  28.178   5.835  13.436
11604W        W84029  41.886   3.404   4.723
11605W        W84030   6.290  44.942   2.678
11606W        W84031  37.032  44.489  13.509
11607W        W84032  23.594  34.046  11.467
11608W        W84033   0.887  15.186  14.503
11609W        W84034  29.080   0.393  10.573
11610W        W84035  36.542  30.588  14.392
11611W        W84036   9.387  10.817  13.323
11612W        W84037  17.583  42.462  13.054
11613W        W84038  43.427  27.507  11.463
11614W        W84039  10.720  31.034  14.330
11615W        W84040   1.398  16.665   1.888
11616W        W84041  32.008  32.924  14.300
11617W        W84042  22.171  23.223  10.533
11618W        W84043  31.020  19.707   5.118
11619W        W84044   6.745  34.919   0.290
11620W        W84045  14.668  13.229  12.043
11621W        W84046  26.517  39.918   1.824
11622W        W84047   7.710   7.710  11.879
11623W        W84048  41.414  11.323  11.098
11624W        W84049  10.680   4.880  10.040
11625W        W84050  11.303   8.662  10.535
11626W        W84051  20.087  36.485  12.389
11627W        W84052  25.632  25.481   0.373
11628W        W84053  17.159  41.792  13.342
11629W        W84054  43.271  44.397   1.721
11630W        W84055  36.554   1.325   0.953
11631W        W84056  14.124  41.809  12.432
11632W        W84057  10.332   7.719  11.033
11633W        W84058  21.161  34.530  13.866
11634W        W84059   2.948  27.167   4.813
11635W        W84060  21.689  38.019   1.392
11636W        W84061   2.405   6.319   3.280
11637W        W84062  16.576   2.732   3.786
11638W        W84063  11.172  41.478   2.817
11639W        W84064  40.530  29.997  13.335
11640W        W84065   3.279  14.659  12.452
11641W        W84066  34.990  31.555   4.719
11642W        W84067  36.973  12.781   2.381
11643W        W84068   7.801  22.158   2.210
11644W        W84069  25.135   5.329   3.640
11645W        W84070   3.435   7.820  10.902
11646W        W84071  34.987  14.645   4.830
11647W        W84072   9.881   0.821  12.974
11648W        W84073  14.707  34.487  10.431
11649W        W84074  18.088  10.693  14.357
11650W        W84075  18.274  32.469   3.783
11651W        W84076  36.896  11.805   2.857
11652W        W84077  19.618  32.981  13.507
11653W        W84078  35.443   5.293   4.116
11654W        W84079   0.293  10.291  14.310
11655W        W84080   7.190  26.602  11.379
11656W        W84081  26.490   1.296  12.945
11657W        W84082  35.570  40.354  12.916
11658W        W84083   1.382   5.761   2.351
11659W        W84084  44.887  34.006   1.886
11660W        W84085  37.391  43.495   4.215
11661W        W84086  43.963  13.719   0.266
11662W        W84087   9.190  11.764  11.479
11663W        W84088  35.075   3.387   4.186
11664W        W84089  23.203  29.559   4.226
11665W        W84090   3.245  27.082  13.407
11666W        W84091   5.771  14.100  10.940
11667W        W84092   0.431  44.768  14.329
11668W        W84093  11.327   3.311  11.393
11669W        W84094  37.470  20.205   0.473
11670W        W84095  41.502  42.520   0.854
11671W        W84096  15.727  12.164   3.353
11672W        W84097  27.534  30.075  13.528
11673W        W84098  32.896  31.557  10.905
11674W        W84099   9.826  11.737  11.862
11675W        W84100  15.226  14.755  13.043
11676W        W84101  42.992   7.708   3.200
11677W        W84102   5.855  10.254  13.042
11678W        W84103  23.068  31.151  13.383
11679W        W84104   5.429  23.128   4.226
11680W        W84105  12.618   6.259   0.370
11681W        W84106  42.808   9.661  11.425
11682W        W84107  35.403  37.467  14.995
11683W        W84108  17.133  12.670   0.374
11684W        W84109  15.237  24.712  10.930
11685W        W84110  17.138  35.549  10.984
11686W        W84111   5.385  33.914  10.912
11687W        W84112  35.108  15.612  10.027
11688W        W84113  14.165  14.699  14.985
11689W        W84114  19.145  40.429   2.250
11690W        W84115  44.345  41.505   1.214
11691W        W84116  16.089  43.376  14.344
11692W        W84117  14.283  12.835   3.681
11693W        W84118  35.560  22.616  11.375
11694W        W84119  33.115  10.699   0.760
11695W        W84120  20.631  15.815   4.800
11696W        W84121   2.948  10.302  10.108
11697W        W84122  12.788  42.859   1.855
11698W        W84123  28.932  35.103   1.750
11699W        W84124  22.059  38.367   4.140
11700W        W84125  20.727  28.180  12.377
11701W        W84126  20.723  30.081   1.817
11702W        W84127  30.140   3.810  14.841
11703W        W84128  36.972   2.749   1.860
11704W        W84129  36.881   5.688   0.334
11705W        W84130  38.051  20.104   1.916
11706W        W84131  29.557  35.524  12.395
11707W        W84132  28.524  30.156   3.267
11708W        W84133  36.071  37.483   0.264
11709W        W84134  19.566  27.457  10.549
11710W        W84135  11.805   0.874   2.706
11711W        W84136  13.778   4.831   1.231
11712W        W84137  15.172  41.354  10.609
11713W        W84138  25.998  15.212  14.285
11714W        W84139  34.898  26.595   9.954
11715W        W84140  13.347  38.913   2.333
11716W        W84141  12.769  35.419  10.570
11717W        W84142  41.368  23.158   3.244
11718W        W84143  18.759  43.284   2.666
11719W        W84144  30.065  44.305  13.023
11720W        W84145  34.974   3.917  12.039
11721W        W84146  37.538  25.005  14.483
11722W        W84147  26.533  33.468  11.581
11723W        W84148  41.450  35.515   0.783
11724W        W84149  44.789   5.296  11.936
11725W        W84150  19.763  21.019   2.725
11726W        W84151  40.486  36.431   2.195
11727W        W84152  35.388  27.685   0.785
11728W        W84153  12.660  29.060  14.487
11729W        W84154  14.302  12.211  11.114
11730W        W84155  30.977  42.986  11.563
11731W        W84156  17.619   6.912  10.626
11732W        W84157  21.722  23.729   3.217
11733W        W84158  39.972  18.652   1.917
11734W        W84159  21.595   9.176   1.420
11735W        W84160  14.809  15.656  11.125
11736W        W84161  11.633  33.898  14.840
11737W        W84162  17.760  29.949   0.934
11738W        W84163  22.179  36.869   3.150
11739W        W84164  43.774  36.570  11.931
11740W        W84165  40.938  17.600   2.415
11741W        W84166  26.988  24.212  10.978
11742W        W84167  38.493   6.901   2.803
11743W        W84168  33.552  30.129   4.637
11744W        W84169  18.265   2.229   3.244
11745W        W84170  31.969  35.096  14.950
11746W        W84171  14.630  35.909  13.959
11747W        W84172   5.882  24.032  12.053
11748W        W84173  25.000  44.361  13.457
11749W        W84174  29.088  23.114   2.377
11750W        W84175  12.242   8.783  11.526
11751W        W84176  33.107   7.394   2.802
11752W        W84177  26.456  35.043  12.552
11753W        W84178  15.770  28.635   1.903
11754W        W84179  31.608  23.515  13.440
11755W        W84180  25.643  11.315   1.218
11756W        W84181   3.358   5.425  11.522
11757W        W84182  25.509  22.506  14.838
11758W        W84183  24.043  37.029   4.644
11759W        W84184  33.385  44.815   2.831
11760W        W84185  31.612  39.995  11.469
11761W        W84186  34.026   4.873  13.059
11762W        W84187  12.273  37.972   2.307
11763W        W84188  10.700  27.119  12.938
11764W        W84189  35.379  36.510  13.869
11765W        W84190  28.956   1.805  10.427
11766W        W84191  38.491  12.236  14.367
11767W        W84192  15.319  29.473   0.481
11768W        W84193  44.947  14.248  11.880
11769W        W84194  21.707  20.177   4.691
11770W        W84195  29.105  32.891   2.732
11771W        W84196  26.966   2.236   1.396
11772W        W84197  14.188  34.548  12.023
11773W        W84198   8.279  33.512   1.297
11774W        W84199  11.712  16.577   4.232
11775W        W84200  31.105  14.265   4.145
11776W        W84201  16.278  13.643   2.389
11777W        W84202  34.088   9.811  14.905
11778W        W84203  42.418  35.472  14.873
11779W        W84204  10.799   2.924  13.944
11780W        W84205  32.480  33.599  11.455
11781W        W84206  12.688  35.525   1.872
11782W        W84207  22.713  25.019   0.838
11783W        W84208  35.542  34.573   3.689
11784W        W84209  28.640  21.517  12.834
11785W        W84210   5.296   7.905   3.150
11786W        W84211  32.941  10.307  12.377
11787W        W84212  41.423  33.990   0.772
11788W        W84213  26.019  36.899  12.835
11789W        W84214  15.759  38.922  10.578
11790W        W84215   9.846  26.525  10.463
11791W        W84216  20.735  23.038   2.224
11792W        W84217  21.179   3.389   3.757
11793W        W84218  27.596   9.736  13.865
11794W        W84219  37.074  23.032  14.449
11795W        W84220   8.677  24.227   3.239
11796W        W84221  36.359  42.832  14.324
11797W        W84222   1.483   2.744  13.889
11798W        W84223  16.640  20.768  12.529
11799W        W84224   7.364  15.255   4.599
11800W        W84225  43.464  16.706  14.426
11801W        W84226   1.301  12.212  11.010
11802W        W84227  27.563  26.622   0.366
11803W        W84228  12.797  16.566   2.409
11804W        W84229   8.862  19.695   3.185
11805W        W84230  32.459  10.651   3.288
11806W        W84231  31.937   1.345   1.412
11807W        W84232   1.735   0.304   2.243
11808W        W84233   6.389  42.911   9.958
11809W        W84234  13.206  28.598  14.829
11810W        W84235  38.451  11.653   0.248
11811W        W84236  27.123   2.413  13.992
11812W        W84237  40.517  35.476  11.467
11813W        W84238  13.225  35.415   4.274
11814W        W84239  27.144  15.766  14.841
11815W        W84240  24.133  31.576  11.490
11816W        W84241  15.656  35.374  12.481
11817W        W84242  40.424  41.938  12.868
11818W        W84243  12.839  10.174  12.526
11819W        W84244  21.564   4.767  13.971
11820W        W84245   8.243  10.669  11.459
11821W        W84246   4.750  18.202  12.922
11822W        W84247   6.780  20.596  10.565
11823W        W84248  29.942  22.203  10.920
11824W        W84249  43.357  25.077  14.275
11825W        W84250  12.116  21.625   4.607
11826W        W84251   8.166  28.465   0.433
11827W        W84252   4.798  29.155   0.839
11828W        W84253  22.230  44.897  13.519
11829W        W84254  19.725  41.344  14.765
11830W        W84255  30.652  28.671   2.887
11831W        W84256  44.346  37.988  12.901
11832W        W84257  11.263  23.145  13.884
11833W        W84258  20.260  22.181   2.736
11834W        W84259  37.066  44.500  13.976
11835W        W84260  34.055  44.824   0.447
11836W        W84261  13.121  33.513  12.437
11837W        W84262   8.864  13.179   0.400
11838W        W84263   9.653  42.778  12.430
11839W        W84264   8.886  36.890   5.683
11840W        W84265  10.351  32.886  13.796
11841W        W84266  43.451  21.704  12.918
11842W        W84267  22.109   2.834  14.918
11843W        W84268  32.587  26.557  13.867
11844W        W84269  33.577  12.656   1.435
11845W        W84270  23.653  15.620   1.357
11846W        W84271  36.888  37.858  12.561
11847W        W84272   9.675   2.832  13.530
11848W        W84273  30.601  10.869  14.822
11849W        W84274  28.679  23.212   2.722
11850W        W84275  16.160  26.072  12.578
11851W        W84276  30.147  44.498   1.802
11852W        W84277  41.505  14.224   0.795
11853W        W84278  14.175   7.753   0.940
11854W        W84279  26.690  22.130  14.382
11855W        W84280  13.612  27.003   2.379
11856W        W84281  27.957  34.960  14.967
11857W        W84282  37.534   2.269  13.445
11858W        W84283  41.799   5.880  10.604
11859W        W84284  20.728   9.376   3.785
11860W        W84285  11.333  38.338   0.254
11861W        W84286  42.005   0.916   2.295
11862W        W84287  39.023  34.591   0.396
11863W        W84288  16.100  25.017  14.415
11864W        W84289   5.316  15.224   3.383
11865W        W84290  39.030  44.317   0.405
11866W        W84291  44.451  43.834   1.907
11867W        W84292   2.944  18.737   0.883
11868W        W84293  13.758  20.162  14.453
11869W        W84294  10.766   7.407  14.857
11870W        W84295  10.835   2.361  11.995
11871W        W84296  28.157   6.706   4.267
11872W        W84297  22.713  41.799   3.266
11873W        W84298  43.798  15.281  10.520
11874W        W84299  41.434  31.074  14.820
11875W        W84300  11.149  33.447   1.871
11876W        W84301   7.409  36.865   5.268
11877W        W84302   7.775   0.846   3.661
11878W        W84303  43.371  32.441   2.743
11879W        W84304  24.548  10.138   1.363
11880W        W84305  40.448   7.820  11.434
11881W        W84306  35.095  36.848   1.787
11882W        W84307  23.613  17.702  13.791
11883W        W84308  38.935  31.530  14.414
11884W        W84309  38.497  16.777   2.374
11885W        W84310  30.151   1.949  12.069
11886W        W84311  31.588   5.873   3.636
11887W        W84312  23.570  19.765  10.547
11888W        W84313   3.391  35.996  13.966
11889W        W84314  19.177  41.311  11.496
11890W        W84315  19.238  21.061   3.350
11891W        W84316   7.285  36.504   1.706
11892W        W84317  29.046   1.910   1.371
11893W        W84318  40.827  37.887  10.608
11894W        W84319  42.818  25.529   5.223
11895W        W84320  23.046   0.794   4.114
11896W        W84321   4.356  40.937  13.419
11897W        W84322  20.152  27.470  11.988
11898W        W84323  22.013  17.642  11.583
11899W        W84324  38.398  31.579   2.707
11900W        W84325  41.796   9.221  14.364
11901W        W84326   9.696  17.558  10.450
11902W        W84327  44.983  19.156   3.318
11903W        W84328   0.762  15.793  12.413
11904W        W84329  34.974  12.181   3.654
11905W        W84330  29.536  21.115   2.386
11906W        W84331  25.578  28.563  12.565
11907W        W84332  38.012  15.114  11.892
11908W        W84333  25.689  30.946  13.004
11909W        W84334  40.948  40.951  12.071
11910W        W84335  40.481  25.474  14.920
11911W        W84336  29.982  31.426   0.744
11912W        W84337  43.002  21.070  13.966
11913W        W84338  15.189  26.523  13.898
11914W        W84339  14.800  18.223   3.177
11915W        W84340   8.721  33.999   3.828
11916W        W84341  33.464   8.226  14.782
11917W        W84342  39.826   5.259   2.685
11918W        W84343   0.265  34.100   3.771
11919W        W84344  24.158  39.395  11.535
11920W        W84345  44.289  36.544  13.043
11921W        W84346  25.990  21.712  10.896
11922W        W84347   5.905  41.930   2.211
11923W        W84348  14.213   7.771  14.854
11924W        W84349  44.358  17.107   0.828
11925W        W84350   4.355  21.649  13.892
11926W        W84351  40.466   3.737   1.438
11927W        W84352  33.915  41.897  13.325
11928W        W84353  15.318  34.408  11.535
11929W        W84354   6.773  42.426  12.402
11930W        W84355  17.176  32.480   3.792
11931W        W84356  34.479  17.300  14.458
11932W        W84357  29.921  26.642   1.793
11933W        W84358  35.963  21.046  11.535
11934W        W84359  25.138  37.886  14.504
11935W        W84360  13.126   3.434   5.311
11936W        W84361  41.893  17.173  14.480
11937W        W84362  14.210  39.440   1.256
11938W        W84363  10.860  29.045  12.419
11939W        W84364  41.435  33.595  14.945
11940W        W84365  37.843  43.295   4.304
11941W        W84366   7.696  20.215  11.961
11942W        W84367  35.077  41.492   9.960
11943W        W84368  44.011  23.621  14.459
11944W        W84369   1.919  42.873   4.644
11945W        W84370  36.530  12.264   4.220
11946W        W84371  13.609  11.861  12.846
11947W        W84372  29.658   9.738   3.805
11948W        W84373  26.636  26.701   2.812
11949W        W84374  44.955   1.888   0.944
11950W        W84375  30.113  34.025  10.938
11951W        W84376  26.185   3.241  10.492
11952W        W84377  43.998   6.886   1.240
11953W        W84378  30.432  44.876   2.667
11954W        W84379  42.985  22.160   4.134
11955W        W84380   8.796  15.317   0.821
11956W        W84381  36.041   0.950   4.607
11957W        W84382   4.749   5.866   5.130
11958W        W84383   0.378  30.999   1.292
11959W        W84384  10.804  42.505  10.547
11960W        W84385  10.716   6.875   0.339
11961W        W84386  19.131  18.615   4.337
11962W        W84387  24.543  19.069  13.486
11963W        W84388  24.641  32.081  12.367
11964W        W84389   4.753  44.913  14.936
11965W        W84390  37.518  34.546   1.775
11966W        W84391  30.122   9.212   1.425
11967W        W84392   8.272  27.671   1.835
11968W        W84393  10.704   3.231   3.757
11969W        W84394  27.552  26.528  11.886
11970W        W84395  15.736  41.509  13.948
11971W        W84396  13.248  40.914  11.119
11972W        W84397  18.273  19.670   1.246
11973W        W84398  32.949  27.070   3.806
11974W        W84399  12.172  10.768   3.697
11975W        W84400  33.945  33.527  11.459
11976W        W84401  24.979  40.549   5.287
11977W        W84402  12.335  20.555  12.361
11978W        W84403  14.227  40.016  14.813
11979W        W84404  25.095  34.027  13.959
11980W        W84405   1.402  23.168   0.731
11981W        W84406  40.389  33.017   4.332
11982W        W84407  14.266  13.126  11.070
11983W        W84408  26.966  16.669  13.329
11984W        W84409  14.147  24.580  12.958
11985W        W84410  43.423  15.594  12.369
11986W        W84411  11.351  43.447  10.919
11987W        W84412  31.937   1.940   3.651
11988W        W84413   4.229  24.708   3.637
11989W        W84414  27.969  20.033   4.622
11990W        W84415   7.188  20.157  12.502
11991W        W84416   5.826  16.284  10.432
11992W        W84417  26.991   0.381   4.217
11993W        W84418   1.750  23.137  10.563
11994W        W84419  15.301  26.059   1.360
11995W        W84420  20.144  29.137  14.513
11996W        W84421  29.527  23.618   3.305
11997W        W84422  34.885  35.502   4.784
11998W        W84423  40.979   8.887  14.300
11999W        W84424  36.429  30.654   0.772
12000W        W84425  27.995   2.252   3.170
12001W        W84426  23.011   6.353  10.530
12002W        W84427   5.734   3.810  14.025
12003W        W84428  38.382  21.141  14.872
12004W        W84429  20.731   3.279  14.441
12005W        W84430  14.738  37.518  12.027
12006W        W84431   5.312   5.865  14.791
12007W        W84432   7.770   5.836  10.587
12008W        W84433  15.085  26.137   3.693
12009W        W84434  14.634   2.809  13.334
12010W        W84435  28.451  30.477  14.760
12011W        W84436   0.249  11.280  14.379
12012W        W84437  34.897  15.319  13.399
12013W        W84438  11.201  40.398   1.404
12014W        W84439  12.346  28.513   4.345
12015W        W84440   8.732  25.667  12.842
12016W        W84441  13.273  27.485  11.460
12017W        W84442   5.240  19.677  12.480
12018W        W84443   8.251  43.850  14.480
12019W        W84444  38.949  13.828   1.236
12020W        W84445  44.440  35.592  12.432
12021W        W84446   0.447  19.095   3.861
12022W        W84447  18.145  41.025  13.364
12023W        W84448  17.751  18.632  11.891
12024W        W84449  24.598  33.986  13.993
12025W        W84450  21.036  39.557  11.925
12026W        W84451  35.009  42.873  11.078
12027W        W84452  38.361   5.431  10.956
12028W        W84453   0.421  27.655  11.582
12029W        W84454  18.788   6.408  14.449
12030W        W84455  40.854  17.709  12.890
12031W        W84456   6.346  25.657   1.724
12032W        W84457   0.832  20.091  14.416
12033W        W84458  35.529   7.281   1.709
12034W        W84459  25.600  10.345   0.741
12035W        W84460  17.591  36.423   0.340
12036W        W84461  14.242   0.330  12.089
12037W        W84462  43.443  42.900   3.307
12038W        W84463  10.273  24.009   3.655
12039W        W84464  25.553  22.141   0.477
12040W        W84465  26.533   8.213   1.754
12041W        W84466  22.674  40.403   0.929
12042W        W84467   2.944  29.972   3.361
12043W        W84468   5.241   5.305  11.442
12044W        W84469  31.614  42.800  10.640
12045W        W84470   1.429  25.200  11.442
12046W        W84471  39.879  14.615   3.208
12047W        W84472  18.243  38.432   1.255
12048W        W84473  32.047  34.520   0.850
12049W        W84474  36.989  22.717  14.927
12050W        W84475  29.654  34.376  10.540
12051W        W84476  36.931   5.376   1.911
12052W        W84477  10.832  22.076  11.009
12053W        W84478  14.320  16.572  12.396
12054W        W84479   5.860  37.455   2.395
12055W        W84480  41.493  15.699   4.781
12056W        W84481   8.675  25.159  10.479
12057W        W84482  31.503  17.775   0.312
12058W        W84483  37.866  38.960  14.979
12059W        W84484  24.500  27.452   3.828
12060W        W84485   4.380   1.324  13.967
12061W        W84486  24.072  37.034  12.360
12062W        W84487  21.655  11.201  13.545
12063W        W84488  28.168  21.092   2.361
12064W        W84489  41.466   8.362  12.572
12065W        W84490  10.642   1.390  14.782
12066W        W84491  42.014  36.389   2.259
12067W        W84492  37.075  44.445   2.270
12068W        W84493  41.434   3.880   4.160
12069W        W84494   3.296  21.032  11.977
12070W        W84495  42.853  15.663  12.505
12071W        W84496  23.507  24.095  10.456
12072W        W84497   5.821  24.034   0.947
12073W        W84498  33.877  11.271   1.409
12074W        W84499  26.540  18.759   4.775
12075W        W84500   1.936  13.618   1.226
12076W        W84501  34.502  15.199  12.051
12077W        W84502  41.958  38.515  14.985
12078W        W84503  39.006  13.124   0.388
12079W        W84504  26.647  29.098  10.935
12080W        W84505  31.582  28.564  14.440
12081W        W84506   8.347  34.917  11.005
12082W        W84507  18.050  33.559  12.434
12083W        W84508  14.171  36.360   0.889
12084W        W84509  36.891  27.614   2.728
12085W        W84510  10.378  19.081   4.307
12086W        W84511  28.529   2.437  12.496
12087W        W84512   0.484   9.732   2.826
12088W        W84513   8.239  13.820  14.296
12089W        W84514  40.015  16.180   0.919
12090W        W84515  44.860  43.387  14.005
12091W        W84516  44.298  36.982   1.219
12092W        W84517   3.219   7.875   3.801
12093W        W84518  13.199  14.726   0.846
12094W        W84519  43.794  13.783   4.287
12095W        W84520   5.195   6.865   3.812
12096W        W84521  34.094  29.967   4.718
12097W        W84522  11.208  44.924  12.086
12098W        W84523  27.522  22.736  13.986
12099W        W84524  28.627  33.981   9.670
12100W        W84525  23.069   6.309   2.898
12101W        W84526  31.429   3.378  11.988
12102W        W84527   5.412  23.512  13.816
12103W        W84528  31.026   2.806  10.951
12104W        W84529  25.992  34.108   4.314
12105W        W84530   5.802  18.610  12.507
12106W        W84531  29.542  15.327   4.810
12107W        W84532  12.722  36.585   3.847
12108W        W84533  15.147   2.912   3.821
12109W        W84534  31.030  44.867   4.711
12110W        W84535  18.622  24.699  13.362
12111W        W84536   2.234  21.241   9.948
12112W        W84537  21.046  21.533   2.784
12113W        W84538   6.279  15.728  13.868
12114W        W84539  16.120  42.775  11.386
12115W        W84540  23.605   7.386  10.977
12116W        W84541  36.988  31.546  14.287
12117W        W84542  44.482  23.602  10.951
12118W        W84543  23.103  12.332  11.517
12119W        W84544  14.596   0.379  14.928
12120W        W84545   0.934  13.178  13.529
12121W        W84546  17.247  34.457   0.339
12122W        W84547  27.129  41.969  11.051
12123W        W84548   4.935  31.573   2.377
12124W        W84549  36.463  20.645  11.892
12125W        W84550  39.036   3.234  13.793
12126W        W84551   4.366  37.964   2.206
12127W        W84552  42.955  16.288   3.341
12128W        W84553  26.639  14.614  12.044
12129W        W84554  33.004  35.935   3.280
12130W        W84555  18.157   3.384   0.798
12131W        W84556  10.813  28.135   2.828
12132W        W84557  37.063  19.671  13.834
12133W        W84558   0.436  18.705   4.135
12134W        W84559  41.993   9.890   0.894
12135W        W84560  26.630  42.452   3.785
12136W        W84561  16.662  31.144   2.882
12137W        W84562   7.872  25.689   2.883
12138W        W84563  40.047  16.650  11.110
12139W        W84564  32.902  43.514   3.323
12140W        W84565  21.622   7.776  11.603
12141W        W84566  12.652  40.434  13.005
12142W        W84567   0.309  11.178   4.301
12143W        W84568  32.070   4.316  13.322
12144W        W84569  40.814  17.738   0.442
12145W        W84570  38.551  27.614   1.831
12146W        W84571  18.576   2.457   5.241
12147W        W84572  31.015  26.178   3.803
12148W        W84573  12.348  29.073   1.416
12149W        W84574   5.369  29.483   1.741
12150W        W84575   4.251  13.286   1.834
12151W        W84576  36.449  26.696  13.463
12152W        W84577  30.013   1.355   2.793
12153W        W84578   7.368   0.950  12.909
12154W        W84579  18.112   3.820   0.331
12155W        W84580  38.330  30.160  12.095
12156W        W84581  36.425  22.719  10.937
12157W        W84582  27.618  18.787  12.917
12158W        W84583  29.495   9.857   4.649
12159W        W84584  29.596  38.338   0.379
12160W        W84585   8.274  10.792   1.296
12161W        W84586  23.045  27.623   0.316
12162W        W84587  26.114  35.426  13.894
12163W        W84588  10.646  14.598   0.788
12164W        W84589  34.031  33.472  10.159
12165W        W84590  14.748  24.178  12.878
12166W        W84591  43.930   9.690   0.436
12167W        W84592  21.219   0.440  14.999
12168W        W84593   3.231  35.580  14.839
12169W        W84594  44.941   3.405  14.914
12170W        W84595  40.972   1.371  11.512
12171W        W84596   6.796  35.946  10.889
12172W        W84597  13.789  13.755   4.309
12173W        W84598  34.463  32.566   2.408
12174W        W84599  41.891   8.693   0.328
12175W        W84600  34.470  15.791   2.829
12176W        W84601  30.454  32.599  13.521
12177W        W84602  25.477  18.649   4.807
12178W        W84603  27.980  29.535  12.048
12179W        W84604   1.331  27.036   1.406
12180W        W84605   1.268   5.716   3.825
12181W        W84606   6.326  29.949  11.388
12182W        W84607  21.244  10.762  11.974
12183W        W84608  22.226  36.517  12.075
12184W        W84609   0.765   3.903  10.932
12185W        W84610  23.187  15.257   0.766
12186W        W84611   0.311  16.708  13.959
12187W        W84612  10.811   5.759   0.837
12188W        W84613  28.505  29.554  13.979
12189W        W84614  16.297  35.989  11.083
12190W        W84615   2.265   4.431   2.801
12191W        W84616  29.457   7.812  13.848
12192W        W84617   6.297  20.607   3.307
12193W        W84618   8.713  23.543  10.127
12194W        W84619  39.379  44.452   2.845
12195W        W84620  30.472  43.891   3.779
12196W        W84621  25.598  42.787   2.730
12197W        W84622  27.134  15.726   2.764
12198W        W84623  23.090   2.759  11.051
12199W        W84624  30.143  15.759   3.197
12200W        W84625  20.634   2.741  12.038
12201W        W84626  25.968  41.309  12.504
12202W        W84627  15.319   3.726   3.258
12203W        W84628   8.159  39.022  12.025
12204W        W84629   2.938  35.494  12.840
12205W        W84630  44.859   2.268   0.302
12206W        W84631  28.530  34.499  13.908
12207W        W84632  23.023  33.926   4.182
12208W        W84633  33.091  44.005   2.864
12209W        W84634  31.625   3.876   4.280
12210W        W84635  31.627   3.937   0.835
12211W        W84636   8.842  33.458   0.786
12212W        W84637  32.027  13.702   4.772
12213W        W84638  24.568  33.025   4.309
12214W        W84639  24.536  14.682  10.486
12215W        W84640   4.735  29.945   5.268
12216W        W84641   2.381  30.602   2.408
12217W        W84642   3.271  22.616  13.939
12218W        W84643  39.443   8.369   3.654
12219W        W84644   7.347  35.016  13.403
12220W        W84645   6.799   8.735   0.849
12221W        W84646  34.973  33.397  14.981
12222W        W84647  43.923  12.271  14.763
12223W        W84648  32.030   0.771   1.284
12224W        W84649  44.969  24.202  10.552
12225W        W84650  39.054  16.259  10.951
12226W        W84651   6.192  38.891   2.253
12227W        W84652  20.683  18.240  14.379
12228W        W84653  28.498   4.906   1.916
12229W        W84654  20.537  44.263  14.925
12230W        W84655  34.918   0.362   4.251
12231W        W84656   3.436  20.227   5.273
12232W        W84657  43.794  38.910  10.419
12233W        W84658  42.470  34.526   1.298
12234W        W84659  41.425  30.946  12.061
12235W        W84660  35.873  24.984   3.157
12236W        W84661  20.546  37.571  12.380
12237W        W84662  26.669  27.052  13.836
12238W        W84663  31.461  23.038   2.747
12239W        W84664  14.605  34.111  13.915
12240W        W84665  19.610  29.117   3.336
12241W        W84666   4.398   6.213   3.765
12242W        W84667  18.088  26.538  13.811
12243W        W84668  18.170  42.471  11.576
12244W        W84669  11.719  25.482  13.980
12245W        W84670  26.567  36.501   1.755
12246W        W84671  10.725  38.453   2.873
12247W        W84672   1.295   3.724   4.772
12248W        W84673  30.638  27.066   4.139
12249W        W84674  30.066   0.784   0.811
12250W        W84675   2.240  11.190   0.772
12251W        W84676  25.606  18.667  14.821
12252W        W84677   0.368   5.693  13.457
12253W        W84678  21.551   6.384   3.781
12254W        W84679  10.678  14.644  13.814
12255W        W84680  25.577   0.961   2.401
12256W        W84681   8.281   4.219  14.365
12257W        W84682  15.757  16.757   3.319
12258W        W84683  18.260   1.910  11.090
12259W        W84684   9.757  44.368   4.180
12260W        W84685  18.752  36.428   4.295
12261W        W84686   5.839  29.502   1.309
12262W        W84687  41.978   2.396   2.871
12263W        W84688  37.937  13.336   0.407
12264W        W84689  41.801  18.713  14.303
12265W        W84690   7.214  35.532   1.883
12266W        W84691  30.564   0.300  11.534
12267W        W84692  31.009  12.158   0.906
12268W        W84693   8.763   4.702   2.295
12269W        W84694   3.417   9.858  11.932
12270W        W84695  24.200  19.620   4.637
12271W        W84696  43.014  15.699   4.294
12272W        W84697   6.323  36.500   2.863
12273W        W84698  38.451  41.467  10.481
12274W        W84699  26.070  38.831  11.535
12275W        W84700   2.803  32.054  12.066
12276W        W84701  11.232  39.050  13.435
12277W        W84702  32.566   2.771  10.589
12278W        W84703  25.102   9.754   1.811
12279W        W84704  23.691  39.357   0.250
12280W        W84705  33.033  23.019  10.635
12281W        W84706  14.737  24.595   0.726
12282W        W84707   8.725  42.844  12.537
12283W        W84708  34.595   5.861  13.928
12284W        W84709   9.186   6.686  14.761
12285W        W84710   4.867  15.699   4.614
12286W        W84711  18.682  40.522   3.755
12287W        W84712  39.827  41.509   3.667
12288W        W84713  34.112  14.238  14.935
12289W        W84714  24.013   4.229  14.995
12290W        W84715  26.496   2.227  13.398
12291W        W84716   8.696   6.331  13.940
12292W        W84717  17.695  33.586  10.050
12293W        W84718   2.935  26.548  14.375
12294W        W84719   1.299  19.096   4.772
12295W        W84720  19.641  40.938  14.969
12296W        W84721  38.953  26.074  11.605
12297W        W84722  31.096  25.157  14.983
12298W        W84723  41.919  22.702   1.847
12299W        W84724   4.247   0.806  10.610
12300W        W84725  39.030  17.239   4.604
12301W        W84726  19.260  18.176  13.429
12302W        W84727  33.523  34.868   5.190
12303W        W84728  23.073  37.555   3.662
12304W        W84729  33.572  30.030  10.612
12305W        W84730  43.401  28.983   0.286
12306W        W84731  15.171  35.536   3.176
12307W        W84732  27.137  41.856  12.081
12308W        W84733  16.747  25.135  11.457
12309W        W84734  19.115  14.622  12.014
12310W        W84735  26.060  24.067  10.520
12311W        W84736   8.406  19.278  10.446
12312W        W84737  41.505  37.505   5.254
12313W        W84738   5.249  32.554   4.611
12314W        W84739  33.026  22.088   0.738
12315W        W84740  42.380  44.412  11.487
12316W        W84741  41.014  12.148   3.251
12317W        W84742   6.302  21.098  10.473
12318W        W84743   6.339  43.932  13.048
12319W        W84744  25.123  31.484  11.043
12320W        W84745  19.056  25.586   1.364
12321W        W84746   6.898  43.457  13.454
12322W        W84747  12.247   1.878   0.726
12323W        W84748  21.678  36.545  14.493
12324W        W84749  17.614  24.113   1.327
12325W        W84750  43.969  39.935  14.811
12326W        W84751   0.252  33.493  12.543
12327W        W84752  16.269  26.514   2.742
12328W        W84753  23.044  27.071  11.104
12329W        W84754   4.342  42.926  14.990
12330W        W84755  41.990  30.613   2.279
12331W        W84756   6.858  22.708  11.991
12332W        W84757  10.230  37.570  10.522
12333W        W84758  34.864   6.357  14.512
12334W        W84759  37.518  19.567   2.878
12335W        W84760  26.007  31.988  11.989
12336W        W84761   8.804   5.736  10.565
12337W        W84762  40.884   0.888   2.409
12338W        W84763  42.014  17.235   2.187
12339W        W84764  21.549   8.234   4.141
12340W        W84765   3.773  40.000   1.408
12341W        W84766   6.359  31.959   2.714
12342W        W84767   8.865  43.452   0.966
12343W        W84768  23.507  15.666   4.211
12344W        W84769  24.143  25.682  13.419
12345W        W84770   7.391  43.962  13.037
12346W        W84771   0.318  22.051   4.345
12347W        W84772   1.880  20.721   1.714
12348W        W84773  31.465  41.966   2.744
12349W        W84774   6.324   4.212  13.957
12350W        W84775  35.979  13.309   2.713
12351W        W84776  24.979  34.061   1.706
12352W        W84777  16.201  39.931   2.887
12353W        W84778  24.094  16.804   3.156
12354W        W84779  37.028  40.518  12.559
12355W        W84780  16.311   0.863   1.860
12356W        W84781  43.829   3.330   0.417
12357W        W84782  37.986  34.464  13.361
12358W        W84783  43.299  32.993  13.544
12359W        W84784  20.077  35.001  12.898
12360W        W84785   5.892  15.759   3.702
12361W        W84786  14.221   6.426  13.031
12362W        W84787  13.777  41.858  12.070
12363W        W84788  21.229  21.657   0.244
12364W        W84789   9.836  42.989  14.806
12365W        W84790  38.432   8.669  10.982
12366W        W84791  14.116  21.649   5.129
12367W        W84792  33.065  10.192   4.753
12368W        W84793  31.030  33.085   3.673
12369W        W84794  33.972  30.610  12.895
12370W        W84795  18.667  17.255   3.767
12371W        W84796  38.950   7.820   0.879
12372W        W84797   8.730   5.362  13.391
12373W        W84798   0.369  23.133  14.830
12374W        W84799  34.474  35.032   3.158
12375W        W84800  13.299  10.819  10.938
12376W        W84801  33.552  41.829   0.940
12377W        W84802  29.595  38.933  12.439
12378W        W84803  10.730  19.180   3.245
12379W        W84804  34.022   9.307   2.815
12380W        W84805   8.882   8.264  13.492
12381W        W84806  35.369  22.736   0.853
12382W        W84807  14.225  19.205   1.251
12383W        W84808  40.374  27.591   3.813
12384W        W84809  19.671  32.394  13.418
12385W        W84810  41.979  43.860  13.475
12386W        W84811   0.335  16.135  13.883
12387W        W84812   7.368  34.536   5.568
12388W        W84813  15.748  24.048   3.773
12389W        W84814  40.521  17.092   5.285
12390W        W84815  30.599  14.736  11.097
12391W        W84816  42.388  29.450   0.290
12392W        W84817  33.033  14.758   0.807
12393W        W84818  14.830  44.401  10.143
12394W        W84819   6.769  37.025  13.962
12395W        W84820  17.109  42.870  12.034
12396W        W84821  26.157  16.252   1.739
12397W        W84822  42.894   0.833  11.880
12398W        W84823   1.950   8.293  13.524
12399W        W84824  23.136  25.710  14.288
12400W        W84825  42.482   4.703   0.728
12401W        W84826  36.424  32.545   1.772
12402W        W84827  22.224  41.421   0.275
12403W        W84828  41.821  16.317   3.320
12404W        W84829  10.366   8.836   1.866
12405W        W84830  17.125   8.886   3.726
12406W        W84831   9.864  10.872  13.456
12407W        W84832  40.368  30.491   0.842
12408W        W84833  11.226  38.959   3.715
12409W        W84834  44.758  42.499  12.072
12410W        W84835   3.324   5.755   1.446
12411W        W84836  30.048  44.328  13.399
12412W        W84837   8.701  28.015  12.898
12413W        W84838  12.856  15.088  13.375
12414W        W84839   2.886  30.512   0.832
12415W        W84840  25.197  17.713   3.788
12416W        W84841  35.887  26.087   4.742
12417W        W84842   4.907  11.228   4.237
12418W        W84843  10.742  24.685   0.741
12419W        W84844  40.835  13.709  12.067
12420W        W84845  25.010  36.041  11.421
12421W        W84846   1.418  27.066  11.602
12422W        W84847  39.403  29.132   4.240
12423W        W84848  23.498   9.755  14.514
12424W        W84849  18.058  44.502   3.203
12425W        W84850  28.054  16.317  11.579
12426W        W84851  10.802   5.769   9.627
12427W        W84852  31.474   2.310   2.854
12428W        W84853  30.094   9.177   2.413
12429W        W84854  40.808  29.441  13.052
12430W        W84855  23.097  25.093   4.611
12431W        W84856  31.542  43.397   4.297
12432W        W84857  25.120  36.918  13.539
12433W        W84858  12.164  36.582   2.308
12434W        W84859  32.507  40.931  11.497
12435W        W84860  42.434  37.028  12.564
12436W        W84861  31.612   6.729  11.017
12437W        W84862  32.087  33.569  11.895
12438W        W84863  43.843  41.000   1.711
12439W        W84864   7.890   1.402   1.704
12440W        W84865  14.649  18.209  11.522
12441W        W84866  15.169  42.006   0.872
12442W        W84867   1.300  23.517   1.416
12443W        W84868  16.106  39.435   2.253
12444W        W84869   7.801  31.095  14.342
12445W        W84870  13.182  42.980  14.310
12446W        W84871  23.051  26.498  14.825
12447W        W84872   4.718  21.125  12.046
12448W        W84873   5.934  38.066  13.844
12449W        W84874   5.688  22.524   3.721
12450W        W84875  12.767  16.619   3.260
12451W        W84876  27.164  34.009  14.509
12452W        W84877  17.784   0.443   2.310
12453W        W84878  16.635   7.319   1.920
12454W        W84879  42.297  33.977   0.264
12455W        W84880  16.715  27.487   2.253
12456W        W84881  24.536   9.345   0.303
12457W        W84882  14.720  10.311  12.012
12458W        W84883  21.227  34.870   1.841
12459W        W84884  35.507  11.211  11.442
12460W        W84885  34.595  22.125   2.805
12461W        W84886  30.573   7.195   2.733
12462W        W84887   1.312  37.352   4.760
12463W        W84888  40.493  11.338   4.152
12464W        W84889  11.249  41.430   3.638
12465W        W84890  29.943  31.603  12.571
12466W        W84891  27.962   4.723  14.001
12467W        W84892   0.458  21.668   4.629
12468W        W84893  44.491   2.393   4.629
12469W        W84894  31.538  31.991  13.971
12470W        W84895  43.443  26.617  13.016
12471W        W84896  12.855  44.926  11.918
12472W        W84897   6.297  37.570  12.002
12473W        W84898   3.860  34.945   4.724
12474W        W84899  11.810  11.661  13.815
12475W        W84900  42.452   9.327   2.719
12476W        W84901   2.938  22.067   4.279
12477W        W84902   2.903  22.718   3.169
12478W        W84903  36.947  42.441   2.802
12479W        W84904  22.222   0.377  12.470
12480W        W84905  20.681  10.263  14.449
12481W        W84906  29.478  31.129   5.652
12482W        W84907  28.532  25.470   1.896
12483W        W84908  37.389  44.974   2.189
12484W        W84909  19.147  25.044   1.363
12485W        W84910  32.584  30.619   2.216
12486W        W84911  34.022  13.748  10.572
12487W        W84912  17.119  18.066   3.780
12488W        W84913   9.352  16.611   1.250
12489W        W84914  12.818   9.395  11.546
12490W        W84915   9.874  21.035  11.439
12491W        W84916   4.214  13.667   4.345
12492W        W84917  40.492   8.279  14.930
12493W        W84918  10.847  18.145   0.846
12494W        W84919   7.291  16.795   2.187
12495W        W84920  16.585   8.161  12.966
12496W        W84921   9.160  44.872   1.335
12497W        W84922  10.247  40.928   2.695
12498W        W84923  21.109   2.228   5.259
12499W        W84924  10.202  14.624  13.310
12500W        W84925  43.894  41.878   2.854
12501W        W84926  28.105  34.906  12.859
12502W        W84927  12.665  37.373   3.848
12503W        W84928  16.223  27.605   2.859
12504W        W84929   0.485  18.745  14.983
12505W        W84930  12.256  13.721   1.403
12506W        W84931  17.616  27.061  14.802
12507W        W84932   2.870   4.731   4.281
12508W        W84933   0.372  15.580   0.294
12509W        W84934  14.241  44.972   0.312
12510W        W84935  19.681  41.344  10.597
12511W        W84936   2.961  12.705   1.356
12512W        W84937  13.750  25.168   5.287
12513W        W84938  20.756   5.822  13.855
12514W        W84939  25.613  23.590  10.981
12515W        W84940   1.845  31.547   2.765
12516W        W84941  29.621  34.902  11.531
12517W        W84942  42.976  12.341   4.183
12518W        W84943  23.499  16.578  14.281
12519W        W84944  16.312   3.329   4.767
12520W        W84945   0.342  28.616   2.401
12521W        W84946  17.687  37.936  11.059
12522W        W84947  19.540  11.240   3.796
12523W        W84948  38.449   5.809  12.433
12524W        W84949  13.722  23.586  10.104
12525W        W84950  29.551  41.482  14.305
12526W        W84951  35.874  11.267  13.473
12527W        W84952  24.576   1.413   0.475
12528W        W84953  12.794  11.748  14.822
12529W        W84954   1.786  39.478   2.247
12530W        W84955  17.237  19.114   4.316
12531W        W84956  16.225   1.896  12.004
12532W        W84957  29.615  15.177  13.961
12533W        W84958  35.500  44.346  11.498
12534W        W84959  29.045  30.154   3.267
12535W        W84960  18.194   2.762   0.839
12536W        W84961  11.339  32.086  11.402
12537W        W84962  25.657   3.267  14.477
12538W        W84963  18.225  29.112   5.299
12539W        W84964  19.098  32.932   4.168
12540W        W84965  34.034   4.207   4.675
12541W        W84966  22.114   6.793  12.972
12542W        W84967  40.856  26.131  10.426
12543W        W84968  34.940   0.800   2.783
12544W        W84969  39.820  41.524   1.870
12545W        W84970  30.131  26.025   0.759
12546W        W84971  10.847  42.888   0.900
12547W        W84972  44.934  23.578   2.390
12548W        W84973  24.523   8.764  11.013
12549W        W84974  13.727  31.987   0.325
12550W        W84975  44.429   2.253   0.782
12551W        W84976  35.537   3.878   1.282
12552W        W84977  39.408  10.263   4.747
12553W        W84978  21.035  42.346   1.391
12554W        W84979  37.842  37.043   0.324
12555W        W84980   6.851  44.490   1.439
12556W        W84981  12.311  42.994  11.036
12557W        W84982  42.321   4.356  14.018
12558W        W84983  28.118  25.976  14.327
12559W        W84984   5.733  41.345  11.540
12560W        W84985  30.534  20.072  11.588
12561W        W84986  27.461   3.431  10.477
12562W        W84987  38.917   4.917  12.365
12563W        W84988  36.511  36.844   2.804
12564W        W84989  20.084  14.157  13.881
12565W        W84990  11.832   8.403  10.018
12566W        W84991  12.688  33.391  10.624
12567W        W84992  31.457   2.734  13.424
12568W        W84993  10.777  28.470   1.881
12569W        W84994  19.658  42.864   3.859
12570W        W84995  29.958  10.327  12.963
12571W        W84996  42.439  38.849  13.835
12572W        W84997   9.791  38.423   2.302
12573W        W84998  19.630   1.443   4.345
12574W        W84999  28.616  27.083  13.456
12575W        W85000   4.782  42.837   4.809
12576W        W85001   5.296  42.374  11.072
12577W        W85002  29.637  19.570   5.271
12578W        W85003  29.433   5.247  11.417
12579W        W85004   0.433  29.634  14.287
12580W        W85005  25.211  34.442  14.311
12581W        W85006  20.146  40.379  13.041
12582W        W85007  31.468  32.960   3.190
12583W        W85008  13.824  42.427  12.508
12584W        W85009  20.616  37.932  14.828
12585W        W85010  27.679   4.729  14.396
12586W        W85011  27.198  13.188   2.216
12587W        W85012  15.717  29.525   9.969
12588W        W85013  40.477  29.088   2.392
12589W        W85014  36.952   5.748   3.668
12590W        W85015  17.287  11.665   1.405
12591W        W85016  31.038  13.177  14.317
12592W        W85017   7.748  21.261   3.289
12593W        W85018  18.267   0.825   0.476
12594W        W85019   4.330  17.722  12.541
12595W        W85020   3.885  23.051   4.733
12596W        W85021  21.513  36.873   3.740
12597W        W85022  21.558  34.013   2.205
12598W        W85023  42.504  28.629   2.417
12599W        W85024  44.469  15.712  14.937
12600W        W85025   4.860  21.100   0.940
12601W        W85026  41.982  31.137  12.864
12602W        W85027  35.954  22.694   3.377
12603W        W85028  40.018   9.227   4.113
12604W        W85029  11.329   2.795  11.444
12605W        W85030   6.901  32.407   3.198
12606W        W85031  24.594  35.571  11.519
12607W        W85032  24.062  37.051  12.992
12608W        W85033  23.170  14.608  14.392
12609W        W85034   1.744  27.595   0.367
12610W        W85035  41.795   7.338  14.433
12611W        W85036  34.022  27.490  14.823
12612W        W85037  17.194  42.287  10.949
12613W        W85038  35.387  21.626  12.941
12614W        W85039   4.937  23.554   4.687
12615W        W85040   6.330  38.476  12.972
12616W        W85041  44.485   6.352  14.852
12617W        W85042   9.650  17.771  14.497
12618W        W85043  16.725  32.914   0.286
12619W        W85044   7.323   0.280  11.436
12620W        W85045  31.480  32.578  11.993
12621W        W85046  12.117  23.030  10.156
12622W        W85047   9.693  14.647   4.688
12623W        W85048  39.491   2.941  11.864
12624W        W85049  15.251  26.535  10.537
12625W        W85050  22.151  31.476  11.966
12626W        W85051  39.532  29.467   0.868
12627W        W85052  27.685  39.809   2.812
12628W        W85053  29.094  36.567   1.917
12629W        W85054  20.186  25.691  13.460
12630W        W85055   0.470   6.819   0.305
12631W        W85056  24.493  22.584   2.725
12632W        W85057  29.968  13.696  13.968
12633W        W85058  34.879  31.488   2.781
12634W        W85059  21.105  21.046   0.769
12635W        W85060   2.393  42.846  13.394
12636W        W85061  33.895  26.200   3.643
12637W        W85062   6.200   8.728   1.218
12638W        W85063  29.063  28.136   0.935
12639W        W85064  28.625  44.992  12.372
12640W        W85065  22.171   7.760  14.004
12641W        W85066  19.643   7.850   2.856
12642W        W85067   4.887  31.076  12.557
12643W        W85068  33.943  10.306   0.387
12644W        W85069   3.851   1.878  10.990
12645W        W85070  33.120   5.432  13.536
12646W        W85071  27.667  33.005   0.891
12647W        W85072   0.963   6.206   3.639
12648W        W85073  34.054  42.461   0.770
12649W        W85074  32.935  35.896  13.475
12650W        W85075   1.897  30.463   2.696
12651W        W85076   9.254  44.349   4.838
12652W        W85077  24.624  31.554   1.741
12653W        W85078  19.121   0.278   5.243
12654W        W85079   1.775  30.602   2.325
12655W        W85080  33.562  27.570  12.451
12656W        W85081  29.529  26.673  10.502
12657W        W85082  33.900  19.665  10.606
12658W        W85083  11.135   0.392   0.403
12659W        W85084  15.142   4.327  11.380
12660W        W85085  29.107   9.367   3.659
12661W        W85086  39.819  39.990  10.939
12662W        W85087  43.953  37.336   2.378
12663W        W85088  21.214  10.696   4.647
12664W        W85089  30.591  19.687   2.697
12665W        W85090   4.337  19.704  13.516
12666W        W85091  29.064  44.481  10.495
12667W        W85092  30.917  38.366  13.794
12668W        W85093  36.000  41.995   2.762
12669W        W85094  32.422   9.389   4.184
12670W        W85095  31.077  25.580   4.350
12671W        W85096   0.871  37.969   1.373
12672W        W85097  15.311  17.307   2.685
12673W        W85098  28.154   3.323  12.990
12674W        W85099  28.135  22.528  13.364
12675W        W85100  44.298  12.140  14.804
12676W        W85101  35.958   5.220   1.824
12677W        W85102  43.017  29.667   1.785
12678W        W85103  12.116  11.679   4.181
12679W        W85104  33.551  18.766  14.904
12680W        W85105  17.693  44.350  10.568
12681W        W85106  22.193   3.942   0.406
12682W        W85107  18.638  34.902   3.643
12683W        W85108  26.081  41.906   4.790
12684W        W85109  32.461  28.095  14.836
12685W        W85110  29.430   8.275   3.750
12686W        W85111  17.249  42.455  14.321
12687W        W85112   8.296  41.423   0.445
12688W        W85113  42.016   6.792  13.450
12689W        W85114   2.750  25.552  14.500
12690W        W85115  36.924  31.021   1.284
12691W        W85116  29.090  11.749   2.890
12692W        W85117   7.269  40.914   3.343
12693W        W85118  40.046  18.635   2.781
12694W        W85119  30.971  21.118  12.424
12695W        W85120  22.168  32.902  10.567
12696W        W85121  43.899  15.577  13.439
12697W        W85122  15.308   8.809  11.584
12698W        W85123  30.077  39.433  13.954
12699W        W85124  14.321  15.201   3.716
12700W        W85125   2.402  13.652   0.886
12701W        W85126   8.328  10.223   2.732
12702W        W85127  30.542  36.580   0.257
12703W        W85128  38.348  22.532  10.419
12704W        W85129  23.670  42.780   2.676
12705W        W85130   0.427  40.861  12.535
12706W        W85131   5.298  20.179  12.539
12707W        W85132  25.039  31.441   3.156
12708W        W85133  11.854  22.213  11.378
12709W        W85134  20.711   4.894  13.899
12710W        W85135  11.325  24.480   4.630
12711W        W85136  36.472  25.670   9.920
12712W        W85137   7.819   8.897  11.082
12713W        W85138  26.975   8.655  10.438
12714W        W85139   7.376   7.328  12.375
12715W        W85140  13.679   0.897   3.194
12716W        W85141   7.405  20.238  11.041
12717W        W85142  40.801  31.081   3.662
12718W        W85143  25.060   4.330  10.892
12719W        W85144   5.286  37.886   4.259
12720W        W85145  17.157  16.676   0.250
12721W        W85146  20.666  19.754   4.752
12722W        W85147  30.527  38.367   2.690
12723W        W85148   7.382  37.397   1.341
12724W        W85149  15.631   9.156   0.825
12725W        W85150  42.502   0.950  11.467
12726W        W85151  28.543  16.743   4.780
12727W        W85152   8.893  26.019   1.800
12728W        W85153  44.898  14.131   3.242
12729W        W85154  32.971  13.632  11.041
12730W        W85155   7.214  44.774  11.515
12731W        W85156  16.813  16.094   1.776
12732W        W85157  23.237  26.187   4.684
12733W        W85158  22.530   1.951  12.426
12734W        W85159  11.654  19.210  12.093
12735W        W85160  43.944  12.146   3.380
12736W        W85161  23.169  35.514  12.060
12737W        W85162  37.438  37.042  14.870
12738W        W85163   6.740  28.472   1.287
12739W        W85164  22.087  12.714  13.341
12740W        W85165  43.479  23.986   3.155
12741W        W85166  38.986  42.886   0.480
12742W        W85167  44.435  35.532   4.281
12743W        W85168  18.777  34.605  11.465
12744W        W85169  23.601   6.777   0.327
12745W        W85170   0.334   8.877   2.864
12746W        W85171  35.405   1.426   2.857
12747W        W85172  10.820  30.129  14.438
12748W        W85173   1.934   5.827   1.302
12749W        W85174  23.020  25.124   1.890
12750W        W85175  13.805   0.478  14.913
12751W        W85176  27.649   0.927   1.842
12752W        W85177  13.730  14.806   2.673
12753W        W85178  42.322  44.899  12.390
12754W        W85179  16.077  21.037  13.061
12755W        W85180  15.667   4.413  14.374
12756W        W85181   3.438  28.040  13.924
12757W        W85182   0.413  31.597   4.735
12758W        W85183  20.079   4.442   1.750
12759W        W85184  15.198  38.447   1.318
12760W        W85185  14.724  10.344   5.085
12761W        W85186  29.493  14.824   2.746
12762W        W85187  26.093   9.311   1.734
12763W        W85188  20.768   2.424  14.435
12764W        W85189  40.395  21.170   0.892
12765W        W85190   7.331   2.408  13.317
12766W        W85191  31.057   1.912   3.801
12767W        W85192  44.441  29.545  10.988
12768W        W85193   8.861   2.897  12.557
12769W        W85194   8.293  35.075   1.235
12770W        W85195  35.545   7.173  12.426
12771W        W85196  37.007  38.504   3.862
12772W        W85197   2.747  39.939  13.353
12773W        W85198  29.120   3.357   4.355
12774W        W85199  30.063   7.366  12.985
12775W        W85200  42.807  34.047   1.912
12776W        W85201  34.432  41.837   0.338
12777W        W85202  19.768  30.655   4.818
12778W        W85203  15.578  12.686  11.581
12779W        W85204  13.308  26.106   3.761
12780W        W85205   6.283   3.327  14.938
12781W        W85206  22.206  30.441   2.724
12782W        W85207   7.244  22.089   2.820
12783W        W85208   6.392  36.547   4.127
12784W        W85209  18.058   5.778   0.854
12785W        W85210   8.383   6.364   9.599
12786W        W85211   3.220  12.209   0.454
12787W        W85212   6.420  20.096  13.359
12788W        W85213  22.630  16.145   1.848
12789W        W85214  16.172  21.662   3.774
12790W        W85215  32.888  22.631  14.350
12791W        W85216  13.666  16.229   2.885
12792W        W85217   9.165  21.724  12.360
12793W        W85218   7.859   1.267   0.269
12794W        W85219   6.342  15.096  14.815
12795W        W85220  42.482  22.218   2.230
12796W        W85221   9.779  35.043   4.734
12797W        W85222   3.864   7.221  13.054
12798W        W85223  44.346  33.537   3.285
12799W        W85224  35.389   2.468   4.264
12800W        W85225  11.696  20.736  13.539
12801W        W85226  44.406  34.559  13.931
12802W        W85227   9.709  40.394  14.893
12803W        W85228  29.635  30.618  13.344
12804W        W85229  14.101   1.374  11.391
12805W        W85230  15.093  15.197   1.924
12806W        W85231  18.754  38.431   4.322
12807W        W85232   0.351  31.011  11.414
12808W        W85233  31.535  44.979  14.928
12809W        W85234   0.468  43.478   0.899
12810W        W85235  14.635   2.317   2.409
12811W        W85236  24.009  37.550   0.855
12812W        W85237   0.850  31.532   0.901
12813W        W85238  29.481  39.878  10.468
12814W        W85239  36.405   4.279  13.453
12815W        W85240   7.668   6.398  12.536
12816W        W85241   3.305  12.243   4.282
12817W        W85242  42.373  41.959   4.207
12818W        W85243  31.070  36.568   3.722
12819W        W85244  26.163   9.332   4.336
12820W        W85245   4.801  13.619  12.345
12821W        W85246  42.881  27.971   0.850
12822W        W85247  18.746   2.265  13.342
12823W        W85248  29.490  33.016   0.757
12824W        W85249   6.379  26.047   0.749
12825W        W85250  20.147  16.229   0.931
12826W        W85251  13.632  22.089   4.745
12827W        W85252  28.654  32.128  10.919
12828W        W85253  35.598  36.432   1.264
12829W        W85254  37.449  32.636  14.430
12830W        W85255  37.463  22.723   2.799
12831W        W85256  24.606   2.272  13.431
12832W        W85257  23.136  17.114  14.406
12833W        W85258  26.694  16.573  12.015
12834W        W85259   0.780   9.347  10.644
12835W        W85260  40.500  44.386  13.962
12836W        W85261   4.775  20.621  12.522
12837W        W85262  43.882  16.771  10.534
12838W        W85263  40.365   0.787  14.383
12839W        W85264  27.140  38.827  10.574
12840W        W85265  36.012  33.568   4.719
12841W        W85266  36.490  39.363   0.737
12842W        W85267  19.563  24.188  14.354
12843W        W85268  14.671  29.646   2.376
12844W        W85269  19.596   8.773  11.927
12845W        W85270  21.574   1.840   2.390
12846W        W85271  40.366  28.135   0.322
12847W        W85272  29.960  20.735  12.018
12848W        W85273  17.730  28.562   4.792
12849W        W85274  39.505  21.723   2.894
12850W        W85275  16.236  26.156  13.913
12851W        W85276   4.309  18.782   1.429
12852W        W85277  32.410  40.969  14.507
12853W        W85278  12.803  17.238   1.271
12854W        W85279   1.749  14.785   0.874
12855W        W85280  20.224   5.417  10.445
12856W        W85281   0.490  12.799  12.067
12857W        W85282  25.986  41.031   3.299
12858W        W85283  38.521   6.410   2.346
12859W        W85284   9.787  34.075   0.300
12860W        W85285   8.267  37.434  12.487
12861W        W85286  15.261  28.993   0.752
12862W        W85287  35.454  40.836  11.062
12863W        W85288  24.616  10.154  13.988
12864W        W85289  35.432  24.525  13.053
12865W        W85290   9.260  41.799  13.440
12866W        W85291   5.354   3.859   4.793
12867W        W85292   3.938  32.015  10.428
12868W        W85293   5.856  40.311   4.201
12869W        W85294  44.270  33.092   0.298
12870W        W85295  32.077  27.568  12.870
12871W        W85296   6.202  18.079  10.068
12872W        W85297  33.081  34.521   2.235
12873W        W85298  15.319  10.233   1.844
12874W        W85299   6.854  21.180  13.424
12875W        W85300   9.321  13.329  11.874
12876W        W85301  38.386  24.575   5.700
12877W        W85302  18.163   9.232   2.684
12878W        W85303  12.309  31.529  10.421
12879W        W85304  36.566   8.853  10.046
12880W        W85305  10.272  17.726  13.332
12881W        W85306   3.280  43.967   4.291
12882W        W85307  29.523  41.036   0.373
12883W        W85308  34.014  26.602   3.688
12884W        W85309   5.257  16.185   1.369
12885W        W85310   3.342  22.506   5.263
12886W        W85311   8.169  20.076   3.290
12887W        W85312  23.016  41.978  12.955
12888W        W85313   4.226  30.484  10.895
12889W        W85314  28.173  30.916   4.598
12890W        W85315  38.899  35.587   1.713
12891W        W85316  35.479  42.499   2.192
12892W        W85317  12.812  12.147   2.842
12893W        W85318  36.902   0.350  12.426
12894W        W85319  32.533  36.040  13.344
12895W        W85320  22.999   4.859  13.318
12896W        W85321   9.193  36.998   5.683
12897W        W85322  32.624  29.094  13.796
12898W        W85323   7.297  14.814  12.863
12899W        W85324  36.582   2.412  14.950
12900W        W85325   4.296  40.833  10.443
12901W        W85326  11.846  34.426   2.311
12902W        W85327  21.149  19.727   1.450
12903W        W85328  12.746  33.480  12.040
12904W        W85329  24.526  40.460   4.694
12905W        W85330  16.168  33.001   0.780
12906W        W85331  34.436  29.135  12.386
12907W        W85332  28.958  36.897   3.248
12908W        W85333   3.890  21.747   2.226
12909W        W85334  22.128  10.649   2.881
12910W        W85335  12.833  42.338   4.707
12911W        W85336   6.332  18.107   3.656
12912W        W85337  12.233  44.295  11.467
12913W        W85338  14.171  27.051  14.861
12914W        W85339  28.151  19.181  12.454
12915W        W85340  20.531   2.792  13.529
12916W        W85341  43.953   6.728  12.381
12917W        W85342  15.750   4.932  11.125
12918W        W85343  35.447  20.721  14.387
12919W        W85344  21.207  39.917  10.547
12920W        W85345  14.106   2.936  13.376
12921W        W85346  18.289  27.122  12.396
12922W        W85347  37.071  12.855   4.745
12923W        W85348  38.002  18.088  11.055
12924W        W85349  35.483   5.738  11.010
12925W        W85350  43.344  10.689   0.925
12926W        W85351  18.574  41.395   0.472
12927W        W85352  22.670  31.916   0.397
12928W        W85353  44.958  15.677  14.412
12929W        W85354  36.885   9.777  10.911
12930W        W85355   1.385   9.375  13.443
12931W        W85356  11.133  23.671   2.372
12932W        W85357  19.703  22.508   0.759
12933W        W85358  28.472  24.561   3.315
12934W        W85359  33.078  44.915   3.291
12935W        W85360  23.053  10.714  10.043
12936W        W85361  32.996  17.724   2.730
12937W        W85362  37.936  40.914  10.409
12938W        W85363   6.320   5.207   1.256
12939W        W85364  31.938   4.718  13.023
12940W        W85365  17.724  40.002   1.929
12941W        W85366  31.026  12.802   2.210
12942W        W85367  12.175  35.043   1.883
12943W        W85368   0.334  43.891  13.888
12944W        W85369   8.671  20.227  13.984
12945W        W85370   2.244  16.089   3.796
12946W        W85371   0.476  22.588   3.664
12947W        W85372  44.280  12.188   2.806
12948W        W85373   9.286  12.846  12.850
12949W        W85374  25.662  21.694   3.196
12950W        W85375  38.015  16.802   0.854
12951W        W85376  16.158  39.483  11.087
12952W        W85377  43.983  30.561  10.969
12953W        W85378   7.689  16.595  13.877
12954W        W85379   3.720  33.033  11.570
12955W        W85380  39.956  32.404   1.278
12956W        W85381   4.306  26.017  11.920
12957W        W85382  37.946  29.542   1.420
12958W        W85383  35.552  34.518  10.624
12959W        W85384  10.768   7.695   9.996
12960W        W85385  37.517  17.220  13.982
12961W        W85386   4.722  28.944  13.522
12962W        W85387   9.874  23.555   1.251
12963W        W85388   1.898  33.580  12.950
12964W        W85389  43.929   2.275  11.547
12965W        W85390  40.456  40.839   3.281
12966W        W85391  19.626  26.684   0.950
12967W        W85392  32.428  27.482  13.827
12968W        W85393  26.527  12.195   3.701
12969W        W85394   1.891  41.867   1.296
12970W        W85395  22.595   5.841   9.997
12971W        W85396  35.453  21.020  12.949
12972W        W85397  16.265  33.428   2.315
12973W        W85398  41.474  29.116   2.726
12974W        W85399  35.420  28.155  14.284
12975W        W85400  25.048  31.515   1.874
12976W        W85401   7.877  37.388   5.683
12977W        W85402   0.403  40.406  10.422
12978W        W85403  10.863  32.411  12.037
12979W        W85404  31.641  20.706   1.774
12980W        W85405   6.705  24.579  14.862
12981W        W85406  37.943  19.600  12.456
12982W        W85407  38.424  35.001   0.395
12983W        W85408  14.307   4.932  14.313
12984W        W85409  18.740   3.366  11.412
12985W        W85410  43.374  35.995   0.478
12986W        W85411  37.955  28.510   4.759
12987W        W85412  14.602   6.856   4.795
12988W        W85413  15.093  44.354  13.987
12989W        W85414  38.503  11.366   4.800
12990W        W85415   1.291  10.784  11.128
12991W        W85416  29.952  12.662  10.965
12992W        W85417  23.554  21.548  14.857
12993W        W85418  21.250  22.055   2.340
12994W        W85419  26.678  42.940  14.872
12995W        W85420  40.888  35.576  13.021
12996W        W85421   5.753  34.907   1.848
12997W        W85422  11.633  18.077  12.006
12998W        W85423  27.018  16.788   0.749
12999W        W85424  12.270  28.956  13.812
13000W        W85425   5.914   1.458  11.999
13001W        W85426   8.175  43.892  10.477
13002W        W85427  43.435  44.371  10.013
13003W        W85428  13.325  34.031  14.776
13004W        W85429  24.158  10.871  11.992
13005W        W85430  21.743  44.831   2.213
13006W        W85431  41.971  44.882   4.652
13007W        W85432  35.985  13.148   1.382
13008W        W85433  30.659  26.491  14.773
13009W        W85434  23.082  11.830   0.786
13010W        W85435  43.473   6.800  13.793
13011W        W85436  17.632  30.125  12.922
13012W        W85437  29.659  18.174   0.937
13013W        W85438  41.025  38.559   0.920
13014W        W85439  27.586   5.930   4.315
13015W        W85440  29.578  13.242   1.228
13016W        W85441  28.479  40.004   2.265
13017W        W85442  17.115  29.644  11.086
13018W        W85443  13.114  20.080  12.096
13019W        W85444  41.820   2.360  13.459
13020W        W85445  35.921  36.989   2.358
13021W        W85446  15.631  19.165   2.179
13022W        W85447  18.695  22.607  10.532
13023W        W85448  37.461  44.945   4.799
13024W        W85449  44.371  12.814  13.421
13025W        W85450  29.453  13.199  13.871
13026W        W85451  15.164  22.163   3.675
13027W        W85452  44.988  42.857   0.391
13028W        W85453  15.272  21.650   2.236
13029W        W85454  18.684  23.218   3.694
13030W        W85455   9.388  31.150   3.182
13031W        W85456   9.255  29.151   3.858
13032W        W85457  31.564  36.423   3.311
13033W        W85458   7.269  14.096  13.996
13034W        W85459   5.834  17.557   0.333
13035W        W85460  35.568  41.483  13.342
13036W        W85461  36.868  24.607  10.904
13037W        W85462   9.890   9.885  10.529
13038W        W85463  11.305   7.876  11.064
13039W        W85464  41.400  12.309  14.484
13040W        W85465   6.854   9.274  10.491
13041W        W85466  37.574  24.054   2.382
13042W        W85467  24.117  17.070  10.645
13043W        W85468   3.455  33.568  14.833
13044W        W85469  34.021  34.093  12.371
13045W        W85470  22.199  28.475  14.945
13046W        W85471   4.351  40.467  11.962
13047W        W85472  39.842  22.612   3.703
13048W        W85473  30.017  27.997  11.460
13049W        W85474   4.783  41.932   3.845
13050W        W85475  24.186  43.994   0.440
13051W        W85476   4.885  35.470   2.829
13052W        W85477  33.006  41.987  10.502
13053W        W85478  37.063  33.881  14.845
13054W        W85479   5.330   7.818  14.794
13055W        W85480  24.034  17.160  11.604
13056W        W85481  12.333   2.338  10.599
13057W        W85482  44.999  31.946  10.968
13058W        W85483  28.108  24.497  12.943
13059W        W85484  42.895  26.637  12.877
13060W        W85485  32.126  16.163  14.418
13061W        W85486  14.298  38.070   0.305
13062W        W85487  25.136  14.632  13.378
13063W        W85488  11.177  21.756  10.621
13064W        W85489  36.866  15.639  12.943
13065W        W85490  25.155  44.794   2.892
13066W        W85491  15.772  15.599   3.823
13067W        W85492  31.027  42.998   4.190
13068W        W85493  30.126   2.412  14.822
13069W        W85494   1.911  25.486  13.964
13070W        W85495  40.522  17.630   4.136
13071W        W85496  40.544  14.806  10.984
13072W        W85497  44.985  33.062   3.264
13073W        W85498  35.011  30.467   0.319
13074W        W85499  19.281  19.159  13.510
13075W        W85500  13.839  27.081   3.311
13076W        W85501  32.914  31.584  13.878
13077W        W85502  23.152  32.056   4.201
13078W        W85503  19.698  26.497   1.896
13079W        W85504  26.081  29.049   4.280
13080W        W85505   1.339   0.282  14.290
13081W        W85506  42.017  18.296  11.869
13082W        W85507  19.578  30.641  14.944
13083W        W85508  37.977  14.253  12.559
13084W        W85509  22.227  33.614  11.567
13085W        W85510  41.851  37.547  10.976
13086W        W85511  38.464  23.562   0.935
13087W        W85512  28.583   2.736  12.528
13088W        W85513  25.537  17.685   2.847
13089W        W85514  12.746  41.384   0.922
13090W        W85515  33.394  29.935   4.352
13091W        W85516  37.042  20.240  14.275
13092W        W85517  39.386  18.730  14.392
13093W        W85518  37.902  20.736  12.890
13094W        W85519   7.846  28.106   1.320
13095W        W85520   8.663  10.736   1.270
13096W        W85521   6.340  27.598   4.707
13097W        W85522  22.215  35.904   4.677
13098W        W85523  29.636   6.314   3.191
13099W        W85524  16.772  18.692   1.758
13100W        W85525  31.923  42.399   0.446
13101W        W85526  16.586  37.038  11.992
13102W        W85527   8.381  16.134   3.807
13103W        W85528  33.110  23.617   0.242
13104W        W85529   2.302   4.794  12.417
13105W        W85530  12.347  18.673   0.463
13106W        W85531  43.810  15.720  11.512
13107W        W85532   2.336  16.700  11.428
13108W        W85533  33.995   6.676  11.463
13109W        W85534  36.028  25.509  12.890
13110W        W85535  18.123  17.659   0.884
13111W        W85536  26.655   5.864   1.852
13112W        W85537   3.458  41.846   4.829
13113W        W85538   5.320  16.287  13.841
13114W        W85539  21.581  32.526  13.841
13115W        W85540  15.608  23.173   3.249
13116W        W85541  23.525   2.747   1.713
13117W        W85542  26.604  33.492  12.060
13118W        W85543  39.408  23.230   0.451
13119W        W85544  18.584  27.976  11.894
13120W        W85545  29.981  13.662  11.510
13121W        W85546  22.658  37.440  11.456
13122W        W85547  41.032  21.185  12.071
13123W        W85548  28.590   4.415  10.898
13124W        W85549  30.564   9.280   4.758
13125W        W85550  34.112  25.968   3.331
13126W        W85551  37.075   6.847  14.393
13127W        W85552  13.110  26.044   1.240
13128W        W85553  42.793  18.558   5.219
13129W        W85554   6.761   6.376  10.472
13130W        W85555  23.642  37.039   2.247
13131W        W85556  19.731  12.211   0.422
13132W        W85557  35.463   5.746  12.832
13133W        W85558  19.093   2.867  10.576
13134W        W85559  31.404  30.026   0.388
13135W        W85560  25.006  22.174  12.388
13136W        W85561   2.845  20.117   2.199
13137W        W85562   0.797  44.384  14.871
13138W        W85563  41.494  26.617   1.841
13139W        W85564   2.786  39.443   2.806
13140W        W85565  30.100  24.016  13.377
13141W        W85566  44.804  22.127  14.380
13142W        W85567  10.376  44.765  11.516
13143W        W85568  21.217  36.914   0.916
13144W        W85569  42.479  18.638  10.442
13145W        W85570  16.591  38.414   3.753
13146W        W85571  12.857  17.149   0.459
13147W        W85572  15.139  15.597   1.318
13148W        W85573  39.546  32.440   1.424
13149W        W85574  35.415  42.502   0.778
13150W        W85575  34.073  26.169  11.979
13151W        W85576  29.038  17.662  11.508
13152W        W85577  10.744  29.140   2.184
13153W        W85578  24.198  35.970   1.740
13154W        W85579  43.322   5.921  13.931
13155W        W85580  25.174  15.293  12.870
13156W        W85581  30.919  19.144  12.432
13157W        W85582  20.088  14.289   1.829
13158W        W85583  32.031  18.199   0.853
13159W        W85584   4.808  20.743   1.834
13160W        W85585  37.853  28.056   2.805
13161W        W85586   9.371  39.436  11.028
13162W        W85587  16.711  36.522  10.427
13163W        W85588  12.798  12.246   1.844
13164W        W85589   2.448   1.252   1.771
13165W        W85590  33.959  13.704   3.828
13166W        W85591  32.917  33.495  12.067
13167W        W85592  44.483  39.878  10.632
13168W        W85593  10.651   3.376   2.733
13169W        W85594  24.148  15.618  12.549
13170W        W85595  19.047  43.923   0.302
13171W        W85596   4.795  20.587   4.270
13172W        W85597  37.371   4.244   2.296
13173W        W85598  27.574  24.183   1.919
13174W        W85599  35.538  31.418  10.591
13175W        W85600   0.897  30.621  11.464
13176W        W85601   7.714  28.502   2.663
13177W        W85602   6.205  19.565   1.277
13178W        W85603  34.518   9.728  14.968
13179W        W85604   6.854  28.466  14.018
13180W        W85605  31.630   4.402  13.451
13181W        W85606  25.698  37.411   0.838
13182W        W85607   0.847  30.649  14.010
13183W        W85608  16.264  25.196  11.879
13184W        W85609   2.361  14.246   1.387
13185W        W85610  44.809  35.934   1.386
13186W        W85611  22.069  26.198   2.803
13187W        W85612  12.796   9.653   3.376
13188W        W85613  14.329  25.086   2.694
13189W        W85614  42.867   8.732  13.062
13190W        W85615  22.149   6.291   1.784
13191W        W85616  27.063  21.208   4.608
13192W        W85617  41.473  26.593  14.941
13193W        W85618  11.282  43.806  14.316
13194W        W85619   9.265  23.112  12.554
13195W        W85620  17.220  41.797  10.593
13196W        W85621  39.434  22.587   0.411
13197W        W85622  16.792  23.587  11.958
13198W        W85623   9.234  29.037   3.373
13199W        W85624   9.179   8.869  11.881
13200W        W85625  34.940  36.048   3.286
13201W        W85626  29.964   8.369  11.861
13202W        W85627  18.103  35.866   3.729
13203W        W85628  25.520   7.853   1.868
13204W        W85629  26.074   8.727  11.512
13205W        W85630   8.764   3.310  11.434
13206W        W85631  18.094  18.124  14.421
13207W        W85632  28.561   6.849  13.520
13208W        W85633  20.663  35.012   4.288
13209W        W85634   1.857  13.106  11.118
13210W        W85635   7.710  30.955   4.833
13211W        W85636   0.858  41.985  11.025
13212W        W85637   4.823   3.234   0.884
13213W        W85638  43.391   2.857   2.293
13214W        W85639  42.977  43.479   1.882
13215W        W85640  21.157  29.006   0.763
13216W        W85641   1.250  42.445   1.883
13217W        W85642   2.352  28.079   1.918
13218W        W85643  28.600  30.005   1.220
13219W        W85644  15.195  25.118   4.732
13220W        W85645  42.802  16.303   0.853
13221W        W85646   8.166   7.734   1.375
13222W        W85647   3.369   1.734   4.250
13223W        W85648  31.602   2.392  14.351
13224W        W85649  30.036  32.905  10.924
13225W        W85650   3.439  43.289   2.847
13226W        W85651  13.308   8.849  10.405
13227W        W85652  39.831  23.529   4.694
13228W        W85653  34.970   1.368   0.459
13229W        W85654   0.790   3.268  11.465
13230W        W85655  29.062   5.344   1.259
13231W        W85656   4.891  38.856  10.888
13232W        W85657  38.495  18.130   0.883
13233W        W85658  14.105  29.633   3.324
13234W        W85659  26.025   0.985  14.437
13235W        W85660   0.779   1.918   2.843
13236W        W85661   0.407   8.861  11.475
13237W        W85662   4.218  44.893  13.986
13238W        W85663  44.419  31.900  14.019
13239W        W85664  37.450  17.771   3.148
13240W        W85665  41.453  14.320   1.415
13241W        W85666  12.670  36.953  11.006
13242W        W85667  38.843   8.342  10.437
13243W        W85668  37.399  25.644  14.994
13244W        W85669  13.670  33.486  13.363
13245W        W85670  25.520  38.993  13.791
13246W        W85671   6.322  35.923   3.841
13247W        W85672  33.382  42.897  14.344
13248W        W85673  41.325   8.746  12.353
13249W        W85674  21.241  26.506   3.311
13250W        W85675  23.075  38.471  13.374
13251W        W85676  18.194  28.680  12.425
13252W        W85677   1.393   6.268   3.219
13253W        W85678  13.703   6.866   1.714
13254W        W85679  40.506  11.847   5.162
13255W        W85680  22.137  37.500  10.973
13256W        W85681  13.789  22.042  12.835
13257W        W85682   5.404  40.919  14.009
13258W        W85683  22.182  20.523  14.864
13259W        W85684   1.906   5.802  12.421
13260W        W85685  17.156   5.904   1.349
13261W        W85686   5.748  33.028   4.775
13262W        W85687   7.215  16.638   1.408
13263W        W85688  16.311  16.616   3.827
13264W        W85689  23.209  22.215  13.041
13265W        W85690  21.039  24.204   3.148
13266W        W85691  41.366  26.484  12.457
13267W        W85692  29.642  41.924  14.984
13268W        W85693   5.895  19.205  13.338
13269W        W85694  27.492   4.423   0.259
13270W        W85695  12.660  18.244  14.495
13271W        W85696  34.530  25.656   4.177
13272W        W85697   3.269  44.478   3.834
13273W        W85698  28.169  12.711   1.898
13274W        W85699  26.131  29.528   3.226
13275W        W85700  30.583  40.879   2.893
13276W        W85701  20.606  43.838  14.429
13277W        W85702  44.397   7.214  12.367
13278W        W85703   6.916   0.357   0.384
13279W        W85704  27.634  44.426  10.983
13280W        W85705  10.736   1.746  13.456
13281W        W85706  39.393  44.388  10.527
13282W        W85707  29.128  25.578  12.845
13283W        W85708  42.502  24.103  14.842
13284W        W85709  37.982  42.526   2.255
13285W        W85710  26.640  20.084   1.726
13286W        W85711  23.492   4.442  14.922
13287W        W85712  35.395  28.957   0.256
13288W        W85713  35.034  15.276  10.624
13289W        W85714  23.045  32.496   4.243
13290W        W85715  34.110  23.663  14.809
13291W        W85716  37.562  19.185  10.417
13292W        W85717   0.957   6.367  12.936
13293W        W85718   2.460  18.138   1.873
13294W        W85719  32.453  44.318  13.876
13295W        W85720   4.837  23.054   1.417
13296W        W85721  32.546  33.902  14.815
13297W        W85722  36.043   1.280   0.742
13298W        W85723   4.833  44.898   4.724
13299W        W85724  26.529  14.317  13.512
13300W        W85725   6.905  41.942  10.622
13301W        W85726  24.099  35.088  11.882
13302W        W85727  20.179  16.674   2.267
13303W        W85728  14.129  21.127  14.493
13304W        W85729  20.542   3.235  12.952
13305W        W85730  42.018  18.102   0.327
13306W        W85731  30.541  41.905   3.300
13307W        W85732  43.381  20.040   3.282
13308W        W85733  13.713  38.911   2.183
13309W        W85734   8.235  30.456  11.444
13310W        W85735  12.802   3.832   2.898
13311W        W85736  16.174   8.393   2.225
13312W        W85737  17.571  28.161   2.818
13313W        W85738  37.379  41.952  14.859
13314W        W85739  16.213  23.615  14.871
13315W        W85740   0.791  33.903  12.441
13316W        W85741  42.424  40.424  11.040
13317W        W85742  13.127  35.416   3.294
13318W        W85743  25.473  29.645   0.312
13319W        W85744  30.552  29.655   3.665
13320W        W85745   3.402   7.381  14.019
13321W        W85746  18.143   6.845  13.373
13322W        W85747  43.792   8.776   4.714
13323W        W85748  19.059  21.717  12.012
13324W        W85749  10.352  40.841   0.786
13325W        W85750  27.658  13.188   2.707
13326W        W85751  11.160   7.757   0.482
13327W        W85752  10.731   0.247  12.893
13328W        W85753  22.656  39.325  11.097
13329W        W85754   0.266  38.007  12.957
13330W        W85755   5.793  21.729   0.395
13331W        W85756  16.166  24.142  12.425
13332W        W85757  13.629  25.122   1.392
13333W        W85758  22.647  33.581   3.386
13334W        W85759  18.205   9.697   3.355
13335W        W85760  21.657   6.365  13.373
13336W        W85761  14.308  34.369  14.402
13337W        W85762  21.142  29.608  11.507
13338W        W85763  33.481  11.349   9.941
13339W        W85764  42.983  17.155  14.343
13340W        W85765  12.703  18.236   1.753
13341W        W85766  34.974  28.010  14.015
13342W        W85767  36.356   0.310   2.270
13343W        W85768  42.928  31.142   4.296
13344W        W85769  16.256  14.642  14.484
13345W        W85770  22.560  13.227  13.433
13346W        W85771   8.731  40.867   1.450
13347W        W85772  36.387  17.247   1.791
13348W        W85773  38.028  40.515   1.894
13349W        W85774   6.353  37.352   1.393
13350W        W85775  16.288  22.115   1.882
13351W        W85776  11.699   6.808  10.612
13352W        W85777  15.139  24.131  10.641
13353W        W85778  37.550  27.032  12.525
13354W        W85779  13.734  44.978  14.439
13355W        W85780  29.488  37.914   2.888
13356W        W85781   6.404  25.695   3.350
13357W        W85782  40.016  21.160  13.386
13358W        W85783  14.170   9.277   5.279
13359W        W85784  41.981  35.916  14.502
13360W        W85785  39.502   1.739  11.026
13361W        W85786  22.123  13.244  12.055
13362W        W85787  32.472   8.890   4.270
13363W        W85788   9.329  16.132  12.889
13364W        W85789  20.753   8.311  14.011
13365W        W85790   7.262   1.929  12.460
13366W        W85791  31.111  28.515   0.422
13367W        W85792  44.498  27.944  12.974
13368W        W85793   7.715  36.497  13.857
13369W        W85794  39.358  14.750  14.331
13370W        W85795  43.288  15.094   2.380
13371W        W85796  29.955   6.712  11.892
13372W        W85797  33.443   7.792  12.016
13373W        W85798   4.290  17.229   2.411
13374W        W85799  15.663   4.322   0.731
13375W        W85800  17.757   6.365   2.805
13376W        W85801   5.384   0.306   2.326
13377W        W85802  10.290  13.145   3.293
13378W        W85803  24.690   4.230  13.905
13379W        W85804   7.180  14.230  14.394
13380W        W85805  34.021  19.120  13.869
13381W        W85806  13.203   6.877   1.769
13382W        W85807   6.352  30.980   0.477
13383W        W85808  36.527  31.122  14.300
13384W        W85809  15.619  42.373   4.134
13385W        W85810  34.099  12.285  12.083
13386W        W85811  10.872   7.228  11.558
13387W        W85812  40.982   5.801  12.035
13388W        W85813  30.623   3.763  14.947
13389W        W85814   8.689  15.752   1.414
13390W        W85815  12.848  44.781  10.415
13391W        W85816  14.752  44.876   4.761
13392W        W85817  15.719  21.058   5.285
13393W        W85818  20.561  16.104  12.029
13394W        W85819   6.846  43.314   4.737
13395W        W85820  29.608   3.843  12.574
13396W        W85821  15.220   5.220   1.860
13397W        W85822   4.342   4.817   4.677
13398W        W85823   8.238  40.497   2.753
13399W        W85824  35.596  10.703   3.777
13400W        W85825   2.263  10.780   0.376
13401W        W85826  13.600   9.234  12.986
13402W        W85827   8.710   1.971  13.914
13403W        W85828  41.408  34.405   1.349
13404W        W85829  12.833  34.410  12.435
13405W        W85830   8.394   3.384  11.111
13406W        W85831  16.202  31.623   4.602
13407W        W85832   8.697  19.233   2.218
13408W        W85833  30.127  44.287   0.958
13409W        W85834  25.073  23.707   1.410
13410W        W85835  35.997  16.585   1.883
13411W        W85836  24.528  33.067   1.795
13412W        W85837  14.239  44.502   5.159
13413W        W85838  15.315  38.940  11.027
13414W        W85839  31.121  21.525   0.766
13415W        W85840   0.775  18.574  13.996
13416W        W85841  42.016   5.873  12.968
13417W        W85842  23.158  14.631  12.847
13418W        W85843  13.843  21.189  11.952
13419W        W85844  14.657  31.051  12.065
13420W        W85845  40.934  10.181  10.089
13421W        W85846  20.741  44.914  11.477
13422W        W85847  21.694  29.121  14.858
13423W        W85848  11.323  40.965  10.503
13424W        W85849  13.139  10.658  14.787
13425W        W85850  24.041   7.811  11.377
13426W        W85851   5.770   6.872   0.426
13427W        W85852  18.595  44.409   5.265
13428W        W85853   4.896   4.258   1.399
13429W        W85854  17.598  39.508  12.519
13430W        W85855   2.241  23.655   2.875
13431W        W85856   3.428  38.515   3.790
13432W        W85857  27.515  20.565  14.511
13433W        W85858  43.470   1.265   4.714
13434W        W85859  23.685  23.194   2.827
13435W        W85860  38.834  40.941   2.763
13436W        W85861  36.932   3.834  13.962
13437W        W85862  34.531  42.429   2.185
13438W        W85863  41.415  29.013  10.915
13439W        W85864  34.572   7.233   2.697
13440W        W85865   9.803  28.666   4.354
13441W        W85866  27.088  29.982  11.458
13442W        W85867  42.859  21.260   2.863
13443W        W85868  29.500  36.425   3.150
13444W        W85869  19.116  16.756   0.916
13445W        W85870   3.364  23.200  13.800
13446W        W85871  26.070  30.450   5.114
13447W        W85872  23.696  22.679  10.947
13448W        W85873  40.322  12.814   4.343
13449W        W85874   8.862  22.668  11.378
13450W        W85875  20.071  24.524  14.872
13451W        W85876  40.347  10.767   2.276
13452W        W85877  40.477  26.137   3.694
13453W        W85878   7.414  16.179   3.193
13454W        W85879   4.755  15.720  14.361
13455W        W85880  28.102  14.614  13.806
13456W        W85881  34.011  23.659   0.350
13457W        W85882  44.378  38.520  11.990
13458W        W85883  14.737  14.164   5.083
13459W        W85884  12.778  33.938  12.450
13460W        W85885  17.600  22.637  13.914
13461W        W85886   2.271  33.419   5.158
13462W        W85887  23.096  44.989  13.459
13463W        W85888  39.871  39.552   0.331
13464W        W85889   0.979  23.660   4.353
13465W        W85890  31.985  35.930  13.791
13466W        W85891  43.816  41.970  14.369
13467W        W85892   3.344   2.375   0.915
13468W        W85893   5.766  18.577  13.374
13469W        W85894   1.961  22.175  12.523
13470W        W85895   9.816  35.538   4.721
13471W        W85896  35.022  31.947  14.407
13472W        W85897  43.291  34.491   4.274
13473W        W85898  10.830  19.573   2.315
13474W        W85899   9.665  13.287   1.357
13475W        W85900  13.784  41.406   4.170
13476W        W85901   5.758  23.505  14.322
13477W        W85902  39.839  37.939  10.598
13478W        W85903  25.707   7.788  11.090
13479W        W85904   3.940  43.427  13.346
13480W        W85905  41.994  32.523   0.760
13481W        W85906   9.679  28.020  12.359
13482W        W85907  41.304  30.976  14.316
13483W        W85908  30.625  16.223   1.264
13484W        W85909  43.455  23.064   1.351
13485W        W85910  28.038  34.415  14.898
13486W        W85911   1.373   8.297  12.357
13487W        W85912   8.317  34.096   3.165
13488W        W85913  37.877  16.600   4.666
13489W        W85914  33.561  10.785   0.896
13490W        W85915  42.858  37.919   3.861
13491W        W85916  42.919  32.024  11.572
13492W        W85917  38.925  27.591   9.969
13493W        W85918  32.625  28.091   4.242
13494W        W85919  43.514  38.532  13.544
13495W        W85920  23.566  23.102   1.309
13496W        W85921   2.427   4.724   2.276
13497W        W85922   1.957  34.498   4.275
13498W        W85923   1.759  31.506  14.886
13499W        W85924  28.185  33.609   3.383
13500W        W85925  43.816   7.852   3.223
13501W        W85926   5.239  36.925   1.841
13502W        W85927   1.477  22.738  11.044
13503W        W85928  23.506  11.346   2.192
13504W        W85929   9.353  30.154  12.519
13505W        W85930  33.023  26.648  14.765
13506W        W85931  40.897  14.160  11.543
13507W        W85932  29.539  38.555  10.556
13508W        W85933  31.527  31.407   4.676
13509W        W85934  14.127   9.151   1.901
13510W        W85935  18.789  27.511   1.244
13511W        W85936  33.558  14.330  12.067
13512W        W85937  22.117  35.459  13.838
13513W        W85938  21.136   1.276   4.674
13514W        W85939  37.552  32.549  11.524
13515W        W85940  38.948   3.411   0.962
13516W        W85941   5.349   7.749  11.126
13517W        W85942  43.876  40.528   0.376
13518W        W85943  20.248  32.099   9.933
13519W        W85944  24.617  23.590  14.825
13520W        W85945   0.820  40.469  14.396
13521W        W85946  21.253  38.903  11.580
13522W        W85947  14.692  15.209  12.509
13523W        W85948  16.672   8.272   2.889
13524W        W85949  21.618  12.220   3.346
13525W        W85950  37.898  29.625  13.352
13526W        W85951   6.821  29.978  14.837
13527W        W85952  36.529  24.067  12.573
13528W        W85953  20.692  43.954  12.085
13529W        W85954  43.403  19.107  14.015
13530W        W85955  19.698  29.012   2.320
13531W        W85956  17.169  42.939  10.601
13532W        W85957  26.068  40.910   0.248
13533W        W85958  42.310  31.072  14.950
13534W        W85959  39.933   0.902   2.886
13535W        W85960  31.588  22.666  11.499
13536W        W85961   7.733  32.004  14.935
13537W        W85962  34.400  30.640  12.408
13538W        W85963  17.685   1.450   3.350
13539W        W85964  31.074  11.661  13.439
13540W        W85965  20.224  37.005   1.263
13541W        W85966   5.755  28.077   2.232
13542W        W85967  33.884  39.866  13.952
13543W        W85968  25.154  34.968  13.311
13544W        W85969  28.948  16.077   3.649
13545W        W85970  25.594   1.913   3.352
13546W        W85971  24.023  17.184  12.936
13547W        W85972  27.471  28.467  13.932
13548W        W85973   2.785   0.931   1.284
13549W        W85974   3.914  44.890   4.324
13550W        W85975  31.580  19.739  11.494
13551W        W85976   6.268  30.589   2.404
13552W        W85977  36.023   0.859   2.670
13553W        W85978  32.592  12.289  13.803
13554W        W85979  41.925  40.982  13.307
13555W        W85980  34.544  10.744  12.972
13556W        W85981   2.870   6.884   1.346
13557W        W85982   5.372  13.274  12.552
13558W        W85983  12.341  20.241  12.018
13559W        W85984  23.129  23.138   2.310
13560W        W85985  34.571  30.131   2.742
13561W        W85986  37.930  43.838  10.601
13562W        W85987  13.748   4.840  13.444
13563W        W85988   5.715  18.682   3.644
13564W        W85989   5.359  11.306   1.718
13565W        W85990  17.289  16.314  11.457
13566W        W85991  38.024   5.883   4.163
13567W        W85992  35.542   5.262   3.789
13568W        W85993  13.649  14.109  14.432
13569W        W85994  28.661  36.562   2.800
13570W        W85995  37.468   2.904  10.940
13571W        W85996  34.498   2.248  14.486
13572W        W85997  39.904  40.523  13.818
13573W        W85998  28.150  21.524  11.464
13574W        W85999  25.711  34.115  12.447
13575W        W86000  37.436  12.811   4.681
13576W        W86001   6.695  15.261   2.667
13577W        W86002   7.411   5.431   0.862
13578W        W86003  41.479  37.024  10.433
13579W        W86004  33.428   3.353   4.243
13580W        W86005  43.504  30.513  11.034
13581W        W86006  35.363  21.263   1.746
13582W        W86007  25.132  23.573  14.345
13583W        W86008  17.722   2.262   4.783
13584W        W86009  36.522  15.170  10.566
13585W        W86010  25.098  27.650   1.410
13586W        W86011   2.347   0.318  12.383
13587W        W86012  30.962  25.007   0.469
13588W        W86013  38.423  26.645   5.239
13589W        W86014  18.663  24.225   1.714
13590W        W86015  40.838   8.782  13.470
13591W        W86016  12.272   3.810   4.337
13592W        W86017  23.523  21.237  14.422
13593W        W86018  30.000  31.929  13.384
13594W        W86019  30.634  26.635   5.134
13595W        W86020   9.234  18.603  13.968
13596W        W86021  44.815  24.611  14.392
13597W        W86022   3.284  21.164  10.934
13598W        W86023  44.890  12.692  12.940
13599W        W86024   9.282  18.276  13.899
13600W        W86025  15.824  23.517   4.218
13601W        W86026  28.638   4.345  14.495
13602W        W86027  28.659   1.417   1.243
13603W        W86028  15.671  32.485   3.720
13604W        W86029  31.060   4.402  13.503
13605W        W86030  26.178   1.418   4.695
13606W        W86031  38.344  37.934  12.566
13607W        W86032   8.849  32.585  12.975
13608W        W86033  27.555  10.379   4.302
13609W        W86034  10.339   1.822   0.729
13610W        W86035  15.751  22.134   4.256
13611W        W86036  40.944  44.259   0.348
13612W        W86037  23.643  32.020  11.053
13613W        W86038   0.399  20.086  13.524
13614W        W86039  21.665  11.741   2.236
13615W        W86040  31.900   3.440   1.812
13616W        W86041   6.793  22.508  13.500
13617W        W86042   1.414  26.968  13.971
13618W        W86043  11.668  13.648  12.001
13619W        W86044  41.318   9.344  11.126
13620W        W86045   1.372   2.445  12.887
13621W        W86046  16.645   9.323   0.368
13622W        W86047  36.001   6.224   4.201
13623W        W86048   7.779   2.460  12.377
13624W        W86049  43.931  23.105   3.218
13625W        W86050  13.299  27.963   3.836
13626W        W86051  19.173   9.715   3.701
13627W        W86052  14.162  25.191  14.015
13628W        W86053  34.500  36.066   0.431
13629W        W86054  31.516  39.878   2.850
13630W        W86055  40.518  30.147  12.506
13631W        W86056  15.295  26.045  11.411
13632W        W86057  40.933  28.529   0.415
13633W        W86058  34.501   4.738  12.905
13634W        W86059   5.401  37.496  11.375
13635W        W86060   4.320  34.866   3.825
13636W        W86061  30.516  29.449   2.776
13637W        W86062   4.725   1.772  12.070
13638W        W86063  39.029  21.112  14.305
13639W        W86064  18.212  44.370  11.495
13640W        W86065  24.692  29.629   0.446
13641W        W86066   4.844  36.432  13.031
13642W        W86067   2.921   4.216  10.554
13643W        W86068   9.685   5.298   4.328
13644W        W86069   0.921   6.715   0.381
13645W        W86070  13.756  14.641  10.513
13646W        W86071   9.210  22.150  13.448
13647W        W86072   4.279   6.390  13.866
13648W        W86073  29.481  28.593   2.315
13649W        W86074  12.806  11.779   0.424
13650W        W86075  25.661  14.609   2.758
13651W        W86076  33.485  38.493   1.834
13652W        W86077  38.907   0.967   2.696
13653W        W86078  42.405  28.930  12.918
13654W        W86079  39.969  11.321   2.405
13655W        W86080  39.497   1.346  13.834
13656W        W86081  32.918  28.180  13.373
13657W        W86082  30.912  24.479   0.317
13658W        W86083   3.315  30.110   3.370
13659W        W86084  14.183   6.373  13.342
13660W        W86085  31.532  35.473   4.656
13661W        W86086  36.352  20.723  11.439
13662W        W86087  30.635  29.495   1.821
13663W        W86088  24.050  26.971   4.625
13664W        W86089  18.219   1.854   4.322
13665W        W86090  27.513  36.960   1.359
13666W        W86091  32.452  33.618  12.423
13667W        W86092  15.697   2.884  13.916
13668W        W86093  18.711  10.200  13.034
13669W        W86094   2.893   8.701   2.343
13670W        W86095  14.672  27.068   1.836
13671W        W86096  39.363  19.546   3.695
13672W        W86097  44.501  30.917   2.762
13673W        W86098   6.193  44.984  12.381
13674W        W86099   6.803  37.414  10.148
13675W        W86100  17.107  39.497   4.158
13676W        W86101  41.536  24.980   2.719
13677W        W86102  10.820  28.993   4.615
13678W        W86103  37.368  32.516   1.295
13679W        W86104  12.846   0.249  13.878
13680W        W86105  37.851  35.870  14.484
13681W        W86106  29.103  39.488   0.402
13682W        W86107  18.733   2.825  14.329
13683W        W86108  31.444   0.848   0.880
13684W        W86109  20.103  13.239  11.611
13685W        W86110  33.918   1.451   3.317
13686W        W86111   5.704  36.379   2.719
13687W        W86112  44.386  42.315   5.315
13688W        W86113  30.643   0.785  14.332
13689W        W86114   4.431  35.919   3.182
13690W        W86115  12.331  13.620   0.310
13691W        W86116  16.205  43.011   1.281
13692W        W86117  21.538  27.460  14.860
13693W        W86118  42.938  21.697  14.896
13694W        W86119   7.365   1.900   2.298
13695W        W86120   8.384  43.780  12.043
13696W        W86121  37.350   5.720  11.422
13697W        W86122  14.283  20.228  13.320
13698W        W86123  37.036  12.809  13.388
13699W        W86124  44.414  19.722   2.253
13700W        W86125  13.291   9.792   1.755
13701W        W86126  44.430   9.796   4.727
13702W        W86127  30.069   8.852   2.771
13703W        W86128   9.745   0.285   0.756
13704W        W86129  20.635  11.148   1.802
13705W        W86130  33.034  42.373  10.964
13706W        W86131  43.442  34.371   0.851
13707W        W86132  15.310   5.341   1.238
13708W        W86133  12.325  34.085   3.272
13709W        W86134  11.281  36.363  13.522
13710W        W86135   0.315  24.180   4.235
13711W        W86136  40.821   1.251   1.293
13712W        W86137  44.962   2.361   2.331
13713W        W86138  31.621  19.671  12.972
13714W        W86139   5.366  31.057  10.983
13715W        W86140   0.343  31.017   0.247
13716W        W86141  12.735   3.262  14.485
13717W        W86142  42.916  40.385  11.958
13718W        W86143   4.866  35.910  14.871
13719W        W86144  37.031  36.862  14.359
13720W        W86145  37.405  26.546   2.266
13721W        W86146  32.068   1.364  14.502
13722W        W86147   0.745  17.601   0.277
13723W        W86148  11.766  43.916   0.347
13724W        W86149  40.496  35.882   4.801
13725W        W86150   4.288  12.294   1.796
13726W        W86151  33.414  16.782  14.819
13727W        W86152  19.712  10.764  14.895
13728W        W86153  17.597  19.777  11.096
13729W        W86154  44.910   1.417   4.736
13730W        W86155  10.233  10.841   1.285
13731W        W86156  27.559  18.585   0.939
13732W        W86157  30.437  28.134  14.000
13733W        W86158  17.767  39.903   1.383
13734W        W86159  27.480   6.199   0.743
13735W        W86160  10.754  22.668   4.301
13736W        W86161  37.532  11.862   3.707
13737W        W86162  24.716  43.949   3.182
13738W        W86163  17.681  39.017  14.286
13739W        W86164  24.660   2.848   4.275
13740W        W86165  41.504   0.944   0.803
13741W        W86166  20.564  11.338  13.546
13742W        W86167  21.515   6.717  12.034
13743W        W86168  25.085   4.232  10.519
13744W        W86169  41.390  14.308   0.473
13745W        W86170  26.113  26.555   3.301
13746W        W86171   1.247  32.404  12.848
13747W        W86172  29.623   1.871  13.861
13748W        W86173  34.932  10.340   5.260
13749W        W86174  13.669  13.725  14.026
13750W        W86175  25.057  10.249   1.272
13751W        W86176  27.081  32.115   1.709
13752W        W86177  40.916  38.054   4.598
13753W        W86178  28.973  20.147   4.113
13754W        W86179  12.822  17.736   4.612
13755W        W86180  30.086  30.961   5.279
13756W        W86181  35.585  17.794  14.340
13757W        W86182  20.168  30.974   4.638
13758W        W86183  18.614  35.523   1.397
13759W        W86184   5.720  18.248  14.490
13760W        W86185  15.727  22.555  14.889
13761W        W86186  37.571  12.206  12.541
13762W        W86187  12.745  34.902  11.460
13763W        W86188   6.233  10.651   3.150
13764W        W86189  33.128  29.575  12.484
13765W        W86190  28.477  28.435   3.323
13766W        W86191  23.190  17.082  11.389
13767W        W86192   4.828   2.764   0.838
13768W        W86193   1.312  20.170  11.040
13769W        W86194  38.488  10.736  14.278
13770W        W86195   7.385   9.748   2.178
13771W        W86196  27.111  44.817   4.212
13772W        W86197  17.231  10.701   3.243
13773W        W86198  38.362  43.979   1.253
13774W        W86199  40.936   3.720  14.007
13775W        W86200  44.353   7.902   4.624
13776W        W86201  21.683  33.062   0.854
13777W        W86202  31.615  28.162   4.197
13778W        W86203  18.604   3.822  13.433
13779W        W86204  35.992  29.510  12.352
13780W        W86205  33.560  43.779   4.609
13781W        W86206  10.853  22.086  14.506
13782W        W86207  43.879  30.487  13.510
13783W        W86208   7.810  17.224  10.049
13784W        W86209  34.589   9.815  10.609
13785W        W86210  39.526   9.165   4.143
13786W        W86211  40.340   4.897  14.994
13787W        W86212   0.292   6.278   2.836
13788W        W86213  16.706  27.550   0.371
13789W        W86214  31.622  20.711   4.826
13790W        W86215  21.676  44.011  14.431
13791W        W86216  35.577  44.343  11.050
13792W        W86217  44.883  32.441   0.965
13793W        W86218  13.803  28.517   4.284
13794W        W86219   9.843   3.816  14.767
13795W        W86220  31.580  39.528   0.365
13796W        W86221  22.715  34.032   4.682
13797W        W86222  36.073  27.565  11.078
13798W        W86223  14.165   1.815   1.916
13799W        W86224  23.588  29.603   4.677
13800W        W86225   9.325   9.187   5.744
13801W        W86226  10.316  18.289   4.616
13802W        W86227  15.745   5.360   1.274
13803W        W86228  21.120  35.598  14.361
13804W        W86229  26.636  41.335   4.171
13805W        W86230   2.758  17.677  11.392
13806W        W86231  28.521  29.541  14.839
13807W        W86232   5.380  34.564   1.900
13808W        W86233  33.419  39.959   3.245
13809W        W86234  11.635  15.742  13.346
13810W        W86235  26.609  12.755   3.357
13811W        W86236  36.001  36.384   0.761
13812W        W86237  32.605  41.827  14.450
13813W        W86238  39.826  10.733  12.416
13814W        W86239  21.572  20.699  11.909
13815W        W86240  18.148   2.253   3.808
13816W        W86241   8.868  36.999   4.763
13817W        W86242   2.910  22.115   1.263
13818W        W86243  40.816  22.025   4.293
13819W        W86244  39.904  33.456   3.296
13820W        W86245  10.269   3.835  13.044
13821W        W86246  10.264   0.471  14.930
13822W        W86247  28.952  26.471  11.042
13823W        W86248  35.044  15.230  13.868
13824W        W86249  23.691  12.272   4.203
13825W        W86250  38.837  22.522   0.324
13826W        W86251  14.712  40.466  10.136
13827W        W86252  30.601   6.419  10.922
13828W        W86253  11.689   0.347  11.000
13829W        W86254  35.576  33.556  12.527
13830W        W86255  41.804  21.523   1.711
13831W        W86256  12.156  27.501  10.928
13832W        W86257  38.027   8.239   1.713
13833W        W86258  23.093  11.253   0.476
13834W        W86259  13.806   3.738   3.675
13835W        W86260   9.816  11.658  14.981
13836W        W86261  36.481  23.568   5.091
13837W        W86262  39.046  27.675   2.400
13838W        W86263  27.579  12.654  13.816
13839W        W86264  40.516  25.562  10.642
13840W        W86265  24.527  13.680  11.582
13841W        W86266  14.823  20.582   0.425
13842W        W86267   1.956  24.105  11.549
13843W        W86268  43.838  15.114  11.546
13844W        W86269  21.757  38.411   2.896
13845W        W86270   3.234  27.606   1.817
13846W        W86271  15.790  30.952  13.938
13847W        W86272  37.945  32.079   2.360
13848W        W86273  40.810  43.925  14.440
13849W        W86274  23.061   1.973   1.860
13850W        W86275  14.100  12.362  14.419
13851W        W86276  10.641  18.776  12.424
13852W        W86277  34.429  26.601   3.198
13853W        W86278   7.886  19.164  12.409
13854W        W86279  11.802  30.432   3.663
13855W        W86280  27.621  10.194   4.767
13856W        W86281  20.697  29.072  10.503
13857W        W86282  31.126  43.986  14.290
13858W        W86283  41.392  44.871  13.800
13859W        W86284  41.337   5.819   2.797
13860W        W86285  12.306   6.244  12.848
13861W        W86286  44.862   5.363  10.474
13862W        W86287   7.852  44.491   5.193
13863W        W86288  26.190  24.981  14.767
13864W        W86289  13.755  14.662  13.843
13865W        W86290  31.143  29.619   3.206
13866W        W86291   0.881   0.784   4.762
13867W        W86292   7.243  35.058  10.138
13868W        W86293  30.036  31.930  14.394
13869W        W86294  14.104  44.923   2.668
13870W        W86295  36.365   9.208   0.822
13871W        W86296  42.907   7.697  13.384
13872W        W86297  32.506  34.006   4.127
13873W        W86298  33.012  37.555  12.828
13874W        W86299  20.182  29.641   2.872
13875W        W86300  24.185  25.657   0.343
13876W        W86301  36.553  16.668   3.731
13877W        W86302  36.073  30.534  10.471
13878W        W86303  41.346   8.866   2.383
13879W        W86304  26.099  25.626  13.515
13880W        W86305  29.607  35.437  13.856
13881W        W86306   4.715   6.275  14.832
13882W        W86307  28.083  11.300  11.942
13883W        W86308  40.322  38.348   3.349
13884W        W86309  23.568  14.663   3.674
13885W        W86310  36.559  35.517   1.431
13886W        W86311  36.969  37.886  11.566
13887W        W86312  12.634  38.891  10.502
13888W        W86313  32.461   6.243  11.020
13889W        W86314  16.724  35.998   2.333
13890W        W86315  31.913  18.691   9.662
13891W        W86316  26.054   4.284   2.275
13892W        W86317  42.388  43.456   3.638
13893W        W86318  38.929  12.701  12.404
13894W        W86319  33.955  14.127   2.417
13895W        W86320  39.499  32.137   0.789
13896W        W86321  19.162   0.367  11.372
13897W        W86322  24.070  37.023   1.344
13898W        W86323  31.457  12.125   4.265
13899W        W86324  28.576   7.884   2.762
13900W        W86325  20.545  39.886   4.820
13901W        W86326  30.465  24.626  13.430
13902W        W86327  37.354  22.504  14.281
13903W        W86328   2.295  42.459   0.739
13904W        W86329  44.885  36.988   2.688
13905W        W86330  20.552  23.671  14.776
13906W        W86331   6.414   8.753   9.930
13907W        W86332  39.535  13.832  13.832
13908W        W86333   3.318   4.204  14.949
13909W        W86334   3.860  26.656  12.890
13910W        W86335   0.806   5.853   0.863
13911W        W86336  31.550   9.727   1.873
13912W        W86337   2.931  29.454  14.912
13913W        W86338   2.864  20.121   0.766
13914W        W86339  14.205   3.372  10.625
13915W        W86340  11.782  13.605   2.785
13916W        W86341  36.371  13.105  10.610
13917W        W86342  28.042  15.651  12.926
13918W        W86343  21.563  17.147  10.514
13919W        W86344   3.750  14.290   3.664
13920W        W86345  29.496   0.396   0.242
13921W        W86346  16.294  22.049  12.896
13922W        W86347  26.631  30.054  11.534
13923W        W86348  24.168  12.327   2.883
13924W        W86349  43.335  25.177  12.862
13925W        W86350  15.312  30.993  13.375
13926W        W86351   7.414  42.384  14.336
13927W        W86352   8.734  41.347   4.294
13928W        W86353  32.521  38.831  13.485
13929W        W86354   0.272  17.161   2.331
13930W        W86355  44.837   1.812  13.014
13931W        W86356  29.930  39.000  13.804
13932W        W86357   2.797  20.690   2.730
13933W        W86358  21.129  13.229   1.418
13934W        W86359  24.105  38.353   4.772
13935W        W86360  39.462   2.928  10.445
13936W        W86361  26.152  15.593  10.940
13937W        W86362   4.940  22.103  14.343
13938W        W86363  38.388  25.030   0.746
13939W        W86364  35.415  12.326  14.956
13940W        W86365  40.937  27.470   0.765
13941W        W86366  10.296  30.536  10.537
13942W        W86367  44.423  37.343  11.499
13943W        W86368  41.834  19.596   2.829
13944W        W86369   2.287   6.807  11.958
13945W        W86370  18.643  31.641   1.336
13946W        W86371  36.563  41.428   1.703
13947W        W86372  41.451  42.948  12.514
13948W        W86373  31.618  22.040   4.198
13949W        W86374   6.753   2.267   0.744
13950W        W86375  14.736   2.870  12.829
13951W        W86376  17.229  33.061   3.280
13952W        W86377   5.718  37.365  11.497
13953W        W86378  41.380  42.525   3.235
13954W        W86379  16.216   0.351   0.958
13955W        W86380  32.614  20.028  12.516
13956W        W86381  43.970  15.134  14.323
13957W        W86382  20.767   8.713   4.727
13958W        W86383  20.165  32.940   1.337
13959W        W86384  43.468   0.826   4.802
13960W        W86385  10.195  39.368  10.515
13961W        W86386  15.669  35.086   1.403
13962W        W86387  38.961  15.703   4.758
13963W        W86388   5.225  39.850   2.739
13964W        W86389  13.193   9.368  12.852
13965W        W86390  16.103   5.934  14.505
13966W        W86391  30.006  38.867   1.710
13967W        W86392  36.968  30.070  11.009
13968W        W86393   6.379   0.817   3.677
13969W        W86394  23.160   7.359  14.836
13970W        W86395  21.708  19.627  12.521
13971W        W86396  11.648  39.817   0.754
13972W        W86397  12.693  40.458  11.506
13973W        W86398   3.307  10.761   3.351
13974W        W86399  29.522  34.106  11.533
13975W        W86400  33.573  36.514  10.123
13976W        W86401  21.222   4.300  10.616
13977W        W86402  35.423  26.585   9.985
13978W        W86403  34.950  38.989  11.538
13979W        W86404  43.419  28.020  10.086
13980W        W86405   9.193   2.363   0.756
13981W        W86406  22.520  44.467   1.339
13982W        W86407  21.247   3.864   1.916
13983W        W86408  38.349  19.227  13.975
13984W        W86409   9.684   8.724  13.874
13985W        W86410   0.286  38.933   1.818
13986W        W86411  40.508  42.015  14.950
13987W        W86412   7.297  24.620  11.394
13988W        W86413  37.076  10.778  11.574
13989W        W86414  13.660  44.891  10.630
13990W        W86415  29.589  22.584   2.213
13991W        W86416   5.763  38.441  13.002
13992W        W86417   3.218  20.621  12.455
13993W        W86418  20.733  28.043   1.437
13994W        W86419  43.840  26.103   2.680
13995W        W86420  16.110  42.849   1.778
13996W        W86421  20.573  35.975  11.433
13997W        W86422  41.402  34.001  12.001
13998W        W86423   5.895  35.427   2.768
13999W        W86424  44.790  25.162  14.458
14000W        W86425  23.504   2.441  10.597
14001W        W86426  16.143  19.607  11.993
14002W        W86427  20.098  39.955  14.396
14003W        W86428   6.713   4.250  12.882
14004W        W86429  39.529  23.726  11.118
14005W        W86430  38.472  30.002  10.485
14006W        W86431  29.528  16.158  12.852
14007W        W86432   8.737  37.064  14.312
14008W        W86433  25.691   3.410   0.262
14009W        W86434  24.609  26.088   3.345
14010W        W86435   8.831  24.130  11.542
14011W        W86436  11.165  12.331  14.878
14012W        W86437  39.021  24.076   4.776
14013W        W86438  35.372  32.135  11.411
14014W        W86439  25.519   5.295   0.807
14015W        W86440  34.444   1.459  11.056
14016W        W86441  33.546  13.826   4.797
14017W        W86442  10.201  44.942  14.809
14018W        W86443   7.282   3.316   3.309
14019W        W86444   1.348  43.389   4.837
14020W        W86445  19.550  32.892  14.909
14021W        W86446  36.484   7.733   3.259
14022W        W86447  25.506   8.784   1.397
14023W        W86448  40.006  44.948  10.583
14024W        W86449  34.959  14.337   4.351
14025W        W86450  10.242  23.119  11.533
14026W        W86451   5.756  31.015  12.078
14027W        W86452  18.680  36.457   3.220
14028W        W86453  21.532   0.376   2.364
14029W        W86454  30.000  19.145   4.755
14030W        W86455  19.155  34.589  13.817
14031W        W86456  29.173  11.708   1.721
14032W        W86457  15.775  44.009  10.470
14033W        W86458   6.775  43.310   0.474
14034W        W86459  29.612  36.041  13.903
14035W        W86460  16.198  23.618  10.641
14036W        W86461   4.312  10.171   3.708
14037W        W86462  22.165  32.547  13.050
14038W        W86463   2.456   2.766  14.766
14039W        W86464  35.598  39.065   2.795
14040W        W86465  33.877   8.371   3.343
14041W        W86466  41.478  25.684   2.400
14042W        W86467  42.458  24.643   0.811
14043W        W86468  31.551  22.116   0.444
14044W        W86469   4.810   6.272  12.970
14045W        W86470  24.536  37.985  14.386
14046W        W86471  38.443  33.022   1.817
14047W        W86472   6.253  36.976   2.210
14048W        W86473  17.187  16.121  12.473
14049W        W86474  41.822  24.091  13.463
14050W        W86475  40.535  36.925   2.762
14051W        W86476   3.226  10.174  12.983
14052W        W86477  25.201  22.233  10.566
14053W        W86478  28.527  30.950   0.801
14054W        W86479  23.168  31.099   4.634
14055W        W86480  38.461  22.718  12.404
14056W        W86481  19.650   6.683  14.820
14057W        W86482  42.480  15.664  13.866
14058W        W86483   0.855   1.383   3.171
14059W        W86484  43.928  21.727  10.567
14060W        W86485  31.013  22.735   3.713
14061W        W86486  23.710  37.373   3.766
14062W        W86487  27.481  27.563   4.167
14063W        W86488   5.319  40.409   0.960
14064W        W86489   5.416   5.316   1.384
14065W        W86490  34.409  42.868  11.573
14066W        W86491  29.571   4.932   0.283
14067W        W86492  28.577  14.823  11.913
14068W        W86493  41.436   6.269   3.807
14069W        W86494  41.827  37.443   3.191
14070W        W86495   6.385   2.919  10.636
14071W        W86496  23.725   6.794  11.914
14072W        W86497  41.790   3.837   4.156
14073W        W86498  38.554  11.843   0.837
14074W        W86499  20.650  38.058  14.472
14075W        W86500  33.961  22.569   4.142
14076W        W86501  35.595  26.179   2.373
14077W        W86502  35.507  28.678   1.322
14078W        W86503   2.245  35.395   4.336
14079W        W86504  18.137  34.926  11.396
14080W        W86505  31.605  21.549  13.336
14081W        W86506  37.361   9.364   4.680
14082W        W86507  14.695  21.625  11.913
14083W        W86508  10.817  41.393  13.955
14084W        W86509  34.880  34.906   1.816
14085W        W86510  19.215  13.209   1.840
14086W        W86511  32.028  36.076  11.534
14087W        W86512  42.493  39.025  10.919
14088W        W86513  27.177  23.111  11.480
14089W        W86514  35.072  17.721   4.186
14090W        W86515  37.926   4.444   0.776
14091W        W86516  41.898  18.743  11.464
14092W        W86517  28.076  28.559   1.399
14093W        W86518  11.164  39.433  13.424
14094W        W86519  35.064  44.372   1.409
14095W        W86520  34.120  31.562  12.990
14096W        W86521  37.524  28.536  11.454
14097W        W86522  44.353  30.960  13.039
14098W        W86523  23.627  31.135  12.381
14099W        W86524  38.825   5.737  10.494
14100W        W86525  22.193  16.121  13.530
14101W        W86526  24.099  17.276   3.791
14102W        W86527  31.978  38.325   0.847
14103W        W86528  15.253  33.917  10.497
14104W        W86529   5.790   3.430   0.796
14105W        W86530  10.703  25.138   1.275
14106W        W86531  19.272  29.948  11.897
14107W        W86532  30.461  16.090   5.197
14108W        W86533  11.822  25.039   2.731
14109W        W86534   8.209  30.548   1.276
14110W        W86535  17.769  10.138   4.211
14111W        W86536  17.766   3.242   3.196
14112W        W86537  10.842   8.179   1.360
14113W        W86538   1.325  39.994  11.556
14114W        W86539  43.314  24.502  14.458
14115W        W86540  26.116  18.752   3.179
14116W        W86541   2.749  26.046   2.383
14117W        W86542  43.352  33.018  14.389
14118W        W86543  15.249  10.245   4.698
14119W        W86544  23.634  27.183  12.906
14120W        W86545   8.266   1.445   4.774
14121W        W86546  40.847  19.570  13.410
14122W        W86547  30.040  43.439  10.918
14123W        W86548  24.670  21.031  10.906
14124W        W86549   2.323   3.218  11.410
14125W        W86550   0.965   2.418  11.398
14126W        W86551   9.831  20.267   0.376
14127W        W86552   9.734  17.288  14.899
14128W        W86553  16.640  18.157   4.717
14129W        W86554   7.816   5.225   3.657
14130W        W86555  22.692  22.081  10.125
14131W        W86556  25.475  38.953   0.905
14132W        W86557  38.334  33.524  13.461
14133W        W86558  33.596  28.473   2.309
14134W        W86559  43.915  31.928   3.290
14135W        W86560  29.119  12.837  14.485
14136W        W86561  13.130  25.172   2.204
14137W        W86562   3.880  12.793  11.533
14138W        W86563  21.165  19.075  13.056
14139W        W86564  15.638  14.284   5.125
14140W        W86565   0.814  15.143   1.418
14141W        W86566   4.342   6.311   4.340
14142W        W86567   9.750  29.996  13.522
14143W        W86568   4.376  16.806   3.322
14144W        W86569  14.139  32.519   3.833
14145W        W86570  10.663  21.570   2.887
14146W        W86571   5.736  11.348   2.221
14147W        W86572  22.215  25.643   2.369
14148W        W86573  14.798  26.669  11.478
14149W        W86574  33.916  20.663  11.048
14150W        W86575  40.025   3.418   1.791
14151W        W86576  20.763  24.672   1.864
14152W        W86577  28.569   8.322  14.933
14153W        W86578  18.658  26.682   4.770
14154W        W86579  20.630  21.681   2.693
14155W        W86580  39.532  24.020  10.467
14156W        W86581  41.812  36.397   0.859
14157W        W86582  19.044   5.868   3.207
14158W        W86583  17.711  27.158  12.383
14159W        W86584  43.490  28.024  11.583
14160W        W86585  36.991  21.242  14.820
14161W        W86586   4.428  28.053   2.783
14162W        W86587   7.728  33.091  14.294
14163W        W86588  31.633   1.336   0.877
14164W        W86589  37.057   8.676  10.987
14165W        W86590  26.476   4.250   2.274
14166W        W86591  43.388  40.912   2.220
14167W        W86592   5.723  18.567  11.040
14168W        W86593  24.594  15.184  11.865
14169W        W86594  13.119  23.610  14.377
14170W        W86595  10.689  41.516  14.869
14171W        W86596  37.352  19.615  10.601
14172W        W86597  23.728  19.210   0.456
14173W        W86598  43.425  23.582   3.844
14174W        W86599   8.279   0.323  14.346
14175W        W86600  18.781   0.262   5.130
14176W        W86601   3.849  11.254   2.824
14177W        W86602  43.463   8.672  12.522
14178W        W86603  40.419  22.020   0.788
14179W        W86604  14.332  14.224  12.557
14180W        W86605  10.797  26.613  11.419
14181W        W86606  31.922  39.414  12.074
14182W        W86607  40.348  30.561  13.911
14183W        W86608   1.838  43.901  11.560
14184W        W86609  43.471   1.769  10.434
14185W        W86610  32.134  10.383  11.397
14186W        W86611  40.349  42.450   3.159
14187W        W86612  21.635  41.022   1.711
14188W        W86613  20.182   5.710  14.382
14189W        W86614  39.836   8.739  12.493
14190W        W86615  18.778   6.415  11.572
14191W        W86616  35.034  23.143   2.747
14192W        W86617  28.931   7.754  12.898
14193W        W86618  28.495  32.002   2.769
14194W        W86619  25.571  37.063  14.828
14195W        W86620  40.827  35.989   4.207
14196W        W86621  18.564  10.189  11.557
14197W        W86622  33.120   5.905  12.350
14198W        W86623  34.015  35.094   3.778
14199W        W86624  44.266  37.367  12.387
14200W        W86625   6.822   4.434  12.074
14201W        W86626  29.541  16.711   3.221
14202W        W86627   9.167  36.535   3.343
14203W        W86628  38.415   2.382   1.917
14204W        W86629  22.694  15.202   2.744
14205W        W86630  43.345  43.894  14.817
14206W        W86631  25.065   0.769  11.395
14207W        W86632  14.126  12.323  13.855
14208W        W86633  21.149  32.976  13.802
14209W        W86634  35.487  40.852   4.715
14210W        W86635  18.296  43.435   1.731
14211W        W86636  13.306  11.133   1.795
14212W        W86637  18.577  26.632   1.843
14213W        W86638  14.678  42.979  12.492
14214W        W86639  23.235   1.753   2.380
14215W        W86640  33.430   6.778   4.660
14216W        W86641  18.266  17.297   3.374
14217W        W86642  23.663   2.964  11.611
14218W        W86643  11.326  20.561   3.162
14219W        W86644  33.015  40.508  13.847
14220W        W86645  11.664  29.154   0.370
14221W        W86646  12.170  39.380  11.432
14222W        W86647  19.070   9.793  13.917
14223W        W86648  33.522  20.225   2.805
14224W        W86649  16.255  10.852   2.799
14225W        W86650  33.556  27.037  10.486
14226W        W86651   1.442   2.460  14.895
14227W        W86652  13.329  24.485  14.982
14228W        W86653  28.649   1.406  12.441
14229W        W86654  14.774  10.830   3.211
14230W        W86655  11.277   5.208   3.729
14231W        W86656  13.818   7.848   1.387
14232W        W86657   7.782   2.439   1.876
14233W        W86658  23.717  29.157   1.906
14234W        W86659  13.614  35.548   2.790
14235W        W86660  26.483  33.025   9.948
14236W        W86661  43.461   3.365  11.401
14237W        W86662   9.289  27.647   0.372
14238W        W86663  33.943   7.232  12.466
14239W        W86664   5.359  30.613   1.723
14240W        W86665  20.679  34.430   3.704
14241W        W86666  41.024  17.297  12.384
14242W        W86667   2.967   9.182  14.509
14243W        W86668  40.985  17.599   1.400
14244W        W86669  31.564  19.150   1.752
14245W        W86670  38.004  22.187   3.261
14246W        W86671  21.600  18.724   1.237
14247W        W86672  12.802  27.100   1.785
14248W        W86673  27.606  22.572   1.285
14249W        W86674  15.697  40.540   2.714
14250W        W86675  34.928  39.369  14.302
14251W        W86676   2.804  15.818  13.431
14252W        W86677  33.978  43.361  10.511
14253W        W86678   6.314   9.837  11.607
14254W        W86679   5.413  43.372   1.343
14255W        W86680  26.127  21.146   1.422
14256W        W86681   5.356  15.763  14.392
14257W        W86682  30.512  36.439   3.783
14258W        W86683  24.155   2.725   1.793
14259W        W86684  13.685  39.349   3.200
14260W        W86685  35.905  23.144  12.424
14261W        W86686  13.719  38.054  12.826
14262W        W86687  21.608  10.377   0.749
14263W        W86688  11.747  42.838  12.829
14264W        W86689   6.818  32.065   3.808
14265W        W86690  37.895  34.121  11.871
14266W        W86691  23.701  24.490   2.264
14267W        W86692  15.799   0.892  10.949
14268W        W86693  21.544  36.426   0.769
14269W        W86694  10.694  19.093  12.977
14270W        W86695  10.816  17.709  11.918
14271W        W86696  40.426  33.493  14.394
14272W        W86697  31.560  42.312  10.574
14273W        W86698   8.806  25.616  14.394
14274W        W86699   2.317  27.637   3.327
14275W        W86700  10.688  24.174  10.898
14276W        W86701  35.573  43.488  11.099
14277W        W86702  19.709  12.219  12.947
14278W        W86703  12.667   1.850   4.745
14279W        W86704   2.444  21.056  12.352
14280W        W86705   5.210  22.519   0.342
14281W        W86706  15.663  15.122   4.302
14282W        W86707  21.668  31.958  14.807
14283W        W86708  32.630   8.363   4.777
14284W        W86709  40.947   7.300   3.745
14285W        W86710  21.722  32.008  14.292
14286W        W86711   6.913   5.374  14.022
14287W        W86712  44.409  22.037   3.757
14288W        W86713  36.906   5.802   2.344
14289W        W86714  24.207  27.045   3.285
14290W        W86715  44.338  44.937   0.443
14291W        W86716  30.575   5.408  13.408
14292W        W86717   5.346  16.219  13.340
14293W        W86718  32.554  32.917   1.284
14294W        W86719  20.562  13.758   0.812
14295W        W86720  18.592  29.450   4.803
14296W        W86721   0.875  37.533   1.922
14297W        W86722  15.158  44.877  13.459
14298W        W86723  30.154  37.425   0.373
14299W        W86724  40.460   4.238  12.021
14300W        W86725  16.687  42.980   2.701
14301W        W86726  14.799  11.834   2.257
14302W        W86727  42.432  10.158   4.320
14303W        W86728  19.051  31.434  11.017
14304W        W86729  17.606  13.289  10.987
14305W        W86730   5.264  34.476  11.378
14306W        W86731  10.144  16.250   3.197
14307W        W86732  16.188   3.456  12.080
14308W        W86733  43.792  13.810  11.388
14309W        W86734   0.811   7.315  12.393
14310W        W86735  15.120  36.408  11.490
14311W        W86736  27.455   5.395   0.959
14312W        W86737  23.078  25.962  14.759
14313W        W86738  31.083   4.408  14.811
14314W        W86739  34.961  26.020  10.415
14315W        W86740   6.881  19.248  13.312
14316W        W86741  20.540  13.140  12.531
14317W        W86742   1.870  13.748  12.975
14318W        W86743  35.481  23.118  14.003
14319W        W86744  43.894  16.796  13.338
14320W        W86745  37.858  37.938   4.290
14321W        W86746   7.205  34.033  13.827
14322W        W86747  44.006  42.452  13.025
14323W        W86748   4.753  31.967   3.670
14324W        W86749   7.804  24.712  10.535
14325W        W86750  26.118  44.270  11.600
14326W        W86751   1.956  39.040  13.519
14327W        W86752   6.735  33.026  14.937
14328W        W86753  42.889   2.469   0.362
14329W        W86754  27.473   8.237  11.017
14330W        W86755  36.400  12.645   5.299
14331W        W86756   0.903  26.518  12.924
14332W        W86757   1.929   9.230  11.068
14333W        W86758  13.676  40.947   2.817
14334W        W86759  34.369  22.637   2.797
14335W        W86760   8.184   3.319   4.779
14336W        W86761  22.173  23.067  11.500
14337W        W86762  33.090  25.547  12.441
14338W        W86763  16.753  42.388   0.872
14339W        W86764  43.798  18.268   2.747
14340W        W86765   8.729   2.339  12.477
14341W        W86766  22.131  34.047  10.505
14342W        W86767  14.715   6.819   0.912
14343W        W86768   1.403  19.649  11.937
14344W        W86769  13.839  16.725   3.637
14345W        W86770  41.468   0.431  10.955
14346W        W86771  28.945  21.181  12.944
14347W        W86772  15.110  25.165   0.912
14348W        W86773  11.164  36.017   4.723
14349W        W86774  40.497  41.341  10.622
14350W        W86775  32.569  25.151  14.351
14351W        W86776  29.143  35.031  13.493
14352W        W86777  34.603  40.504  13.308
14353W        W86778  12.695  41.823  12.343
14354W        W86779  22.997   3.792  12.024
14355W        W86780  17.070  37.360  13.042
14356W        W86781  36.853   2.951  10.557
14357W        W86782  18.671   7.391   4.160
14358W        W86783  18.292   8.831   2.414
14359W        W86784  25.181  43.386  11.047
14360W        W86785   2.387  18.574   2.262
14361W        W86786  30.021  31.993   2.820
14362W        W86787  17.252  32.473   2.852
14363W        W86788   6.424   5.870   4.175
14364W        W86789  30.148  38.501  11.101
14365W        W86790  33.551  38.939  14.002
14366W        W86791  12.280   4.211   4.764
14367W        W86792  20.725  22.136  11.451
14368W        W86793   8.687   9.354   3.827
14369W        W86794  28.581  14.692   2.360
14370W        W86795   2.419   9.352  13.440
14371W        W86796  16.213  10.343   4.673
14372W        W86797  39.375  38.947  10.527
14373W        W86798  34.870  10.381  10.598
14374W        W86799   7.404   1.452  12.082
14375W        W86800   5.787  37.866  11.051
14376W        W86801  33.902  29.118  11.576
14377W        W86802  23.650  28.522   4.236
14378W        W86803  37.552   9.665   3.275
14379W        W86804  37.964   1.286  14.410
14380W        W86805  25.142   2.360  14.819
14381W        W86806   7.321  27.491  14.436
14382W        W86807  36.029  43.854  14.402
14383W        W86808  40.857  42.839   2.230
14384W        W86809  33.057  22.119   1.884
14385W        W86810  19.747  26.150   3.206
14386W        W86811  11.809  39.885   0.401
14387W        W86812  25.102  35.383  14.876
14388W        W86813   0.338  19.761   2.803
14389W        W86814  42.454  11.775  12.871
14390W        W86815  11.164  13.714   1.412
14391W        W86816  38.426  22.663   4.280
14392W        W86817   0.442  32.593  10.445
14393W        W86818  20.068  32.566   0.792
14394W        W86819  14.803   6.252  12.827
14395W        W86820  30.643  40.801   1.854
14396W        W86821  25.661  28.586  13.895
14397W        W86822  24.976  24.533  12.833
14398W        W86823  24.524   2.962   1.712
14399W        W86824  19.766  32.475   9.974
14400W        W86825  25.988  36.856   3.714
14401W        W86826  42.403  27.503   2.211
14402W        W86827   6.869   8.825   3.305
14403W        W86828   8.762   4.859   4.182
14404W        W86829  33.971  22.675   3.352
14405W        W86830  43.384  18.625   3.351
14406W        W86831  26.114  36.499  14.421
14407W        W86832  44.946  30.062  12.947
14408W        W86833  43.481  17.206  10.627
14409W        W86834  13.619  44.470   2.834
14410W        W86835  34.443   0.450  14.862
14411W        W86836  33.584  22.708   4.209
14412W        W86837  34.440  41.922  10.415
14413W        W86838  25.635  38.833   1.277
14414W        W86839  38.054  23.493   0.475
14415W        W86840  27.030  11.815   3.638
14416W        W86841   0.865  37.449   5.318
14417W        W86842  27.104  28.541   4.234
14418W        W86843  44.291  22.125   0.399
14419W        W86844  19.056  16.622   2.373
14420W        W86845  19.580  36.070   4.131
14421W        W86846  36.379  33.555  12.462
14422W        W86847  36.496   8.739   4.214
14423W        W86848  27.099   6.315  12.414
14424W        W86849  33.522  29.004   3.248
14425W        W86850   1.777  10.189   4.209
14426W        W86851  37.000   0.440   3.758
14427W        W86852   6.801   9.784  12.450
14428W        W86853  27.055  31.057  14.968
14429W        W86854  34.553  34.874   4.725
14430W        W86855  20.206  41.882   0.451
14431W        W86856  27.552  33.421  10.507
14432W        W86857   2.886  41.850   0.767
14433W        W86858  11.827  17.681   0.411
14434W        W86859  35.855  16.084  11.900
14435W        W86860  13.169   3.313   4.628
14436W        W86861  33.588   4.836   5.102
14437W        W86862  21.588   7.372  10.940
14438W        W86863  28.530  20.237   3.239
14439W        W86864  14.799  11.740   1.261
14440W        W86865   9.865  32.914   1.758
14441W        W86866  41.800  40.803  14.484
14442W        W86867  25.004  30.519  13.426
14443W        W86868  20.532  32.481  14.869
14444W        W86869  40.354  37.877   4.824
14445W        W86870   5.427  34.988   3.731
14446W        W86871   5.861  34.493  12.347
14447W        W86872  44.280  26.961   2.342
14448W        W86873  33.571  21.179  13.426
14449W        W86874  39.009   8.664   1.415
14450W        W86875  26.996  12.727  11.070
14451W        W86876  31.012  21.512   4.305
14452W        W86877  24.998   7.292  13.348
14453W        W86878  32.565   0.966   3.387
14454W        W86879  13.763  34.947  11.447
14455W        W86880   9.797   1.479  14.020
14456W        W86881  21.260  18.670   1.392
14457W        W86882  23.055   9.666  14.865
14458W        W86883  42.526  22.705   3.268
14459W        W86884   0.375  28.175  10.952
14460W        W86885   0.335   9.380  11.944
14461W        W86886  35.863   6.308   2.402
14462W        W86887  28.148  23.140  10.897
14463W        W86888  38.936  25.552  10.533
14464W        W86889  25.714   6.836  12.559
14465W        W86890  28.938  13.639  13.541
14466W        W86891   4.385  33.391  13.396
14467W        W86892  43.864  20.135  13.004
14468W        W86893   7.290  30.911   1.386
14469W        W86894  17.222  36.487  11.093
14470W        W86895   1.319  38.898  14.804
14471W        W86896  35.550  31.901  13.429
14472W        W86897  27.121  21.675  13.959
14473W        W86898  25.061  24.722  10.973
14474W        W86899  29.983  37.472  11.088
14475W        W86900  43.424  23.664   4.807
14476W        W86901   2.942  24.049  13.476
14477W        W86902   1.385  44.770  10.422
14478W        W86903  30.540   8.245   3.631
14479W        W86904  26.525  11.222  14.981
14480W        W86905  15.806  28.073   1.747
14481W        W86906  22.510  38.403  12.561
14482W        W86907  31.414   8.791  11.481
14483W        W86908  44.330   6.281  14.488
14484W        W86909  40.962   2.932  13.995
14485W        W86910  27.653  40.949  11.048
14486W        W86911  35.602  14.306   0.390
14487W        W86912  44.853  17.151   3.288
14488W        W86913   5.694  14.835  14.362
14489W        W86914   1.386  24.534   2.662
14490W        W86915  35.879  27.669  10.511
14491W        W86916  12.643  20.524   2.691
14492W        W86917  12.830  33.002   2.304
14493W        W86918  36.354   5.866   1.905
14494W        W86919  41.831   5.761   3.764
14495W        W86920  21.605  39.522  11.095
14496W        W86921  16.139  13.770   3.373
14497W        W86922  28.675   7.847  14.495
14498W        W86923  23.233  23.175   3.785
14499W        W86924   5.707  25.517   4.820
14500W        W86925  28.567  43.945   0.805
14501W        W86926  37.071  24.152  12.923
14502W        W86927  29.003   7.787   1.709
14503W        W86928  34.958  37.960  13.309
14504W        W86929  37.061  15.245   0.266
14505W        W86930   5.825   4.446  12.001
14506W        W86931  42.462  20.689   3.716
14507W        W86932  26.614  20.058   3.669
14508W        W86933  38.992  42.290   0.445
14509W        W86934   4.227  42.835   0.400
14510W        W86935   7.816   9.191  10.460
14511W        W86936  16.254  40.944  12.387
14512W        W86937  12.649  14.705  14.861
14513W        W86938  21.723  23.238  11.985
14514W        W86939  11.645   8.386   2.244
14515W        W86940   2.230  16.133   4.295
14516W        W86941  35.360   5.731  14.376
14517W        W86942  20.153  27.524   1.274
14518W        W86943  23.164  13.605   0.385
14519W        W86944   0.937  15.097  12.021
14520W        W86945   6.777  32.572   0.324
14521W        W86946   7.667  19.729   4.197
14522W        W86947  13.731  31.969   1.710
14523W        W86948  11.268   4.865   2.326
14524W        W86949  24.112  16.279   2.866
14525W        W86950  39.932   7.285   3.186
14526W        W86951  13.625  29.992  11.992
14527W        W86952   9.304  16.569  13.496
14528W        W86953   3.812  15.221   4.352
14529W        W86954  27.136   4.801  11.027
14530W        W86955  28.005  33.479  12.005
14531W        W86956  22.722  42.323  13.822
14532W        W86957  15.621  13.749  10.633
14533W        W86958  21.056  34.923  11.949
14534W        W86959  36.427  28.594  11.996
14535W        W86960   0.850   0.415   0.804
14536W        W86961   0.851  31.402  12.575
14537W        W86962   9.355   9.680   2.799
14538W        W86963  30.537  42.442  10.424
14539W        W86964  41.825  41.788   1.254
14540W        W86965  22.521  12.358  12.871
14541W        W86966  30.492  17.701   2.784
14542W        W86967  26.559  40.361  14.855
14543W        W86968  32.997  43.355  14.841
14544W        W86969  43.864   1.833   1.908
14545W        W86970   2.385  10.265  14.849
14546W        W86971  27.540  22.040   1.360
14547W        W86972  24.141  24.674   0.418
14548W        W86973   1.303   7.790  12.431
14549W        W86974  21.088  32.925   1.394
14550W        W86975  38.449   7.757  10.487
14551W        W86976  20.227  18.726  14.887
14552W        W86977  31.033  43.857   3.328
14553W        W86978  23.230  30.542  11.563
14554W        W86979   6.838  22.639   3.295
14555W        W86980   7.311  22.670   4.747
14556W        W86981  24.027  19.659  11.986
14557W        W86982   9.733  16.155  13.414
14558W        W86983   0.745   8.875   0.443
14559W        W86984  42.853  42.875   2.326
14560W        W86985  35.893  32.889   1.307
14561W        W86986  25.559  44.884  10.949
14562W        W86987  39.812   0.760  14.852
14563W        W86988  31.465   1.240  11.110
14564W        W86989  33.520   1.363   4.214
14565W        W86990  18.280  12.193  13.360
14566W        W86991   2.271  43.460   1.391
14567W        W86992  37.501  11.359  14.014
14568W        W86993  26.148  37.427   2.355
14569W        W86994  38.013   2.721   3.295
14570W        W86995  35.602   4.278   1.858
14571W        W86996  20.612  39.332   0.256
14572W        W86997  22.233  34.472   1.289
14573W        W86998   3.796   0.941  12.936
14574W        W86999  41.531  24.539   0.737
14575W        W87000  21.535  29.006   3.798
14576W        W87001   8.837  39.906  11.005
14577W        W87002  28.004  38.396  13.522
14578W        W87003  43.448  18.789  12.504
14579W        W87004  38.882   0.837   1.742
14580W        W87005  24.504  26.555  10.551
14581W        W87006  37.534  10.282   3.255
14582W        W87007  27.016  33.516  13.830
14583W        W87008  10.859  44.795   4.157
14584W        W87009  38.361  43.831  10.073
14585W        W87010  15.821  18.106  11.059
14586W        W87011   2.775  32.495   0.935
14587W        W87012  36.925   9.873  12.539
14588W        W87013   0.477  27.484   2.274
14589W        W87014  34.976   3.735   0.906
14590W        W87015   9.264  44.370   0.318
14591W        W87016  35.930  20.183   4.684
14592W        W87017   4.389  18.169  13.456
14593W        W87018  40.846  38.902  11.599
14594W        W87019   9.160  12.634   5.176
14595W        W87020  35.466  22.089   1.762
14596W        W87021  21.662  34.057   3.339
14597W        W87022  24.629   5.309  13.807
14598W        W87023   6.910  39.359   4.244
14599W        W87024  39.397  21.050  12.512
14600W        W87025  24.067  17.665  13.341
14601W        W87026  31.648  42.890   4.606
14602W        W87027  17.792   6.719   0.374
14603W        W87028   0.769   5.286   3.337
14604W        W87029   1.480  34.490  13.952
14605W        W87030  20.680   5.270   2.379
14606W        W87031   0.787  11.807   3.645
14607W        W87032   2.438  13.723  13.056
14608W        W87033   6.690   8.717   1.305
14609W        W87034   9.388  19.170   1.359
14610W        W87035   1.925  23.614   3.385
14611W        W87036  17.561   7.866  12.348
14612W        W87037  34.973  42.972   1.878
14613W        W87038  20.526   9.668   3.225
14614W        W87039   7.306  23.216   2.272
14615W        W87040   0.379  34.594  12.572
14616W        W87041  12.345   7.339  11.439
14617W        W87042  29.467   0.439  10.132
14618W        W87043  11.716   2.936  12.915
14619W        W87044  39.027  13.719   2.205
14620W        W87045  28.454   0.330  10.890
14621W        W87046  23.010   4.289  12.448
14622W        W87047   1.863  35.023   2.366
14623W        W87048   9.817  15.675   4.355
14624W        W87049  34.574  32.621  12.475
14625W        W87050   0.984  21.163  11.524
14626W        W87051  43.846   6.865   0.394
14627W        W87052   9.699  23.494  11.394
14628W        W87053   6.349  13.656  12.070
14629W        W87054  10.690  25.476  13.467
14630W        W87055   5.219  39.013   4.164
14631W        W87056   6.700  41.307  13.961
14632W        W87057   5.918  29.071   0.873
14633W        W87058  16.279  15.726   3.748
14634W        W87059   7.668  21.085  10.556
14635W        W87060  24.020  18.553   5.088
14636W        W87061  36.393  31.145  12.986
14637W        W87062  43.946  40.922   0.855
14638W        W87063  43.817  11.176   1.341
14639W        W87064  10.729  36.575   2.272
14640W        W87065  16.214  43.964   1.808
14641W        W87066  15.191  38.484   1.878
14642W        W87067  44.282   9.225  14.908
14643W        W87068  36.385   5.322  11.113
14644W        W87069  12.249  21.544  10.574
14645W        W87070   9.806  27.189  13.063
14646W        W87071   7.822  38.456   3.371
14647W        W87072  35.901  22.103  12.566
14648W        W87073  38.474  17.276  12.991
14649W        W87074  15.318  16.690  14.953
14650W        W87075  39.503  44.788  10.490
14651W        W87076  43.939  35.058  10.902
14652W        W87077   6.882  17.586  10.643
14653W        W87078  27.187  14.287   2.708
14654W        W87079   1.275  25.147   4.331
14655W        W87080  21.734  42.972   1.256
14656W        W87081  39.549   1.289   4.678
14657W        W87082  11.192  29.965   3.677
14658W        W87083  43.827  14.229  12.864
14659W        W87084  39.006   9.689   4.678
14660W        W87085  15.780  21.676  12.061
14661W        W87086   0.796   2.431  13.791
14662W        W87087  12.658  10.378   4.148
14663W        W87088  42.511  25.622  10.571
14664W        W87089   2.403  13.744   3.679
14665W        W87090  18.627  32.981  11.025
14666W        W87091   0.449   5.760  11.032
14667W        W87092   2.935  43.935   1.891
14668W        W87093  10.215  18.729  11.604
14669W        W87094  16.572  37.022   2.224
14670W        W87095   8.161  44.961   1.834
14671W        W87096  15.274  39.904  11.555
14672W        W87097  34.567  26.114   0.756
14673W        W87098   5.884   2.351  12.895
14674W        W87099  41.343  33.558  14.370
14675W        W87100  12.279  44.310  10.524
14676W        W87101  43.369  29.484   0.756
14677W        W87102  13.817  29.152   1.930
14678W        W87103  36.421  15.233  11.015
14679W        W87104  31.975  18.289  11.527
14680W        W87105  23.146   5.928  11.500
14681W        W87106  44.758  17.730   3.172
14682W        W87107  24.568  31.934  14.007
14683W        W87108  30.069  41.498   1.810
14684W        W87109  24.049  29.133  10.418
14685W        W87110  25.096  28.050   4.616
14686W        W87111  13.219  28.591   4.196
14687W        W87112   9.161  38.468  12.477
14688W        W87113  15.221  16.192   1.315
14689W        W87114  12.255  10.357  13.864
14690W        W87115  25.588  44.338   3.760
14691W        W87116  37.980  25.587   3.703
14692W        W87117  23.562   7.703   0.288
14693W        W87118  26.605  29.510   3.350
14694W        W87119  36.430  20.183   1.261
14695W        W87120  16.778  35.469  13.885
14696W        W87121   3.230  26.582  11.527
14697W        W87122  36.578  40.509  13.499
14698W        W87123  16.579   8.360   0.466
14699W        W87124  20.167  44.896   2.274
14700W        W87125   0.481   5.417  14.470
14701W        W87126  38.394  18.755  11.460
14702W        W87127  28.183   8.802   0.410
14703W        W87128  25.699  14.135   2.275
14704W        W87129   9.289  43.463   2.278
14705W        W87130  18.598  26.703  10.617
14706W        W87131   8.733  43.389   2.681
14707W        W87132  30.935   7.312  13.498
14708W        W87133  22.644  17.796  13.452
14709W        W87134  28.183  26.663   0.917
14710W        W87135  15.681  34.881   3.170
14711W        W87136  28.556  44.812   2.329
14712W        W87137  23.663   8.871  12.890
14713W        W87138  26.618  15.632  12.536
14714W        W87139  11.193  40.911   3.158
14715W        W87140  13.700  18.265   3.373
14716W        W87141  15.767   6.306   2.390
14717W        W87142  20.150   6.244   0.333
14718W        W87143  11.627  11.192  11.895
14719W        W87144   3.239  17.180   1.446
14720W        W87145  40.961  29.107   1.754
14721W        W87146  33.007  19.114  13.901
14722W        W87147  25.144  34.034  13.419
14723W        W87148  28.483  36.958  14.351
14724W        W87149  22.552   7.338  12.008
14725W        W87150   2.256  13.654   2.759
14726W        W87151  24.103  18.133   4.616
14727W        W87152  32.026  34.069  13.460
14728W        W87153   7.365   1.966  11.093
14729W        W87154  36.926  25.198   4.114
14730W        W87155  13.659  33.000   3.671
14731W        W87156  14.625  20.253  13.368
14732W        W87157  20.541  36.372   0.476
14733W        W87158  30.641   6.230  12.083
14734W        W87159  41.935  21.543  10.537
14735W        W87160  39.346  13.104   3.285
14736W        W87161  25.013  42.775   3.870
14737W        W87162   7.774  11.799  14.445
14738W        W87163  30.972  29.540  12.392
14739W        W87164   9.284  10.636  14.500
14740W        W87165  23.238  43.861  13.916
14741W        W87166  36.092  12.695  10.550
14742W        W87167  15.767  34.117   2.412
14743W        W87168  23.589  31.530  13.801
14744W        W87169   7.908   4.270   3.820
14745W        W87170   9.379  19.710  10.419
14746W        W87171  26.194  13.232  14.994
14747W        W87172  11.739  20.215   3.247
14748W        W87173   1.744  38.542   2.711
14749W        W87174  37.446  12.239  10.642
14750W        W87175  24.575   7.807  12.901
14751W        W87176  27.075   2.378  13.401
14752W        W87177  16.308   7.228   0.839
14753W        W87178   9.189  25.108  13.455
14754W        W87179  21.189  14.280  11.893
14755W        W87180  14.822  24.084  10.046
14756W        W87181  11.221  33.104   3.704
14757W        W87182  10.675   3.322   0.369
14758W        W87183  41.338  27.643  12.868
14759W        W87184   5.838   6.407  13.814
14760W        W87185  23.056  23.641  11.566
14761W        W87186   7.287   9.647  14.326
14762W        W87187   0.983  42.335  14.319
14763W        W87188  23.576  36.880   1.252
14764W        W87189  38.529  26.555  11.438
14765W        W87190  43.003  13.804  10.513
14766W        W87191  32.947  38.032   1.393
14767W        W87192  27.504  10.835  12.526
14768W        W87193   0.361   4.753  13.337
14769W        W87194  34.098  12.187   2.792
14770W        W87195  43.435  34.931  10.539
14771W        W87196   4.390  15.583   3.314
14772W        W87197  18.129   0.371   0.843
14773W        W87198   0.301  11.707   3.643
14774W        W87199  37.558  39.523  12.082
14775W        W87200  30.513  21.204   2.187
14776W        W87201  43.929   1.876   4.143
14777W        W87202  41.346  16.223  10.551
14778W        W87203  34.055  34.386   1.788
14779W        W87204  18.237  33.455   4.212
14780W        W87205   1.324  16.097   2.806
14781W        W87206  10.822  25.468  12.386
14782W        W87207  32.945  10.146  14.848
14783W        W87208  13.641   5.328   3.769
14784W        W87209   9.204  21.259   1.318
14785W        W87210  39.823   5.707   3.146
14786W        W87211  26.503  29.477  11.557
14787W        W87212  10.317  32.117  13.342
14788W        W87213  22.066  36.092  14.461
14789W        W87214  34.081  33.115  14.021
14790W        W87215  11.330  28.085  11.002
14791W        W87216  10.175  37.438   2.896
14792W        W87217  25.521  38.342  11.067
14793W        W87218  12.358  22.995   0.301
14794W        W87219  11.855  26.493   9.974
14795W        W87220  16.582  43.471   0.786
14796W        W87221  16.118  15.303  13.971
14797W        W87222  17.787  12.624  13.999
14798W        W87223   1.775   6.732  12.412
14799W        W87224  22.139   4.739   3.661
14800W        W87225  15.166   9.719   1.929
14801W        W87226  20.584  16.781   3.220
14802W        W87227  33.954  15.731  14.854
14803W        W87228  29.483   7.802   3.851
14804W        W87229  24.653   9.232   2.251
14805W        W87230  16.289   0.744  11.941
14806W        W87231   4.722  10.315  12.441
14807W        W87232   1.303  17.616  11.076
14808W        W87233  43.299  32.962  11.483
14809W        W87234  14.795  22.050   0.740
14810W        W87235  37.347  13.292  11.896
14811W        W87236  16.670  39.869  11.429
14812W        W87237   8.799  18.648  10.554
14813W        W87238  44.817   0.838   4.814
14814W        W87239  13.682  21.043   0.929
14815W        W87240  44.933  27.575  13.451
14816W        W87241  28.171   5.723  13.909
14817W        W87242  10.288  22.044  12.869
14818W        W87243  20.708   4.435  14.772
14819W        W87244  23.066  42.957   3.147
14820W        W87245  20.241   3.919  14.992
14821W        W87246  37.419  36.886  11.901
14822W        W87247  37.839  31.961   1.829
14823W        W87248   8.190  18.202   3.769
14824W        W87249  21.135  12.346   4.343
14825W        W87250  35.586  31.462   2.850
14826W        W87251  25.678  25.551  10.897
14827W        W87252  13.229  18.245  10.905
14828W        W87253  15.776   4.421  11.085
14829W        W87254   7.705  19.586   0.284
14830W        W87255   0.907  11.660  10.146
14831W        W87256  22.538  17.200   0.911
14832W        W87257  11.718  23.500  10.137
14833W        W87258  17.091  11.729   3.817
14834W        W87259   9.234  19.613   0.244
14835W        W87260  43.021   0.834   2.900
14836W        W87261   9.790  24.487  11.908
14837W        W87262  35.932  17.658  12.902
14838W        W87263  34.475   6.796   2.229
14839W        W87264  26.614  28.556   1.275
14840W        W87265  21.593  39.495   0.798
14841W        W87266  25.043  39.485   2.705
14842W        W87267  32.461  16.760  14.322
14843W        W87268   1.948  19.706  14.975
14844W        W87269   6.878  36.852  10.574
14845W        W87270   8.287  40.861   2.816
14846W        W87271  12.730   0.378   0.288
14847W        W87272  43.945  17.756  11.856
14848W        W87273  43.462  40.876  14.884
14849W        W87274  37.478  28.073   4.746
14850W        W87275  10.790  30.422   3.331
14851W        W87276  40.369  40.917  14.400
14852W        W87277  36.000  28.076   4.779
14853W        W87278  24.198  24.533   0.768
14854W        W87279  18.078  32.951   4.633
14855W        W87280  11.739  26.475  12.424
14856W        W87281   2.928  37.490  11.523
14857W        W87282  11.137  37.565   4.642
14858W        W87283  11.282   0.407   1.891
14859W        W87284  41.372  27.970   3.363
14860W        W87285  20.769  37.360  10.990
14861W        W87286   0.930   8.172  10.624
14862W        W87287   3.920  20.151   1.899
14863W        W87288  14.762  18.064  13.365
14864W        W87289  41.827  18.184   9.969
14865W        W87290  11.822   0.461   3.223
14866W        W87291  43.766  37.377   3.675
14867W        W87292  32.071  37.553  14.994
14868W        W87293  31.614  21.708   3.258
14869W        W87294  23.682  13.611  14.387
14870W        W87295  37.986  20.191  12.092
14871W        W87296  15.689  44.386  11.918
14872W        W87297  17.132  27.025  12.416
14873W        W87298  37.363  23.502   1.721
14874W        W87299  13.205   5.231   4.791
14875W        W87300   4.336  40.347   3.805
14876W        W87301  23.718  16.078  14.443
14877W        W87302  16.775  13.620   2.328
14878W        W87303  39.413  44.368  11.981
14879W        W87304   7.866  24.983  10.102
14880W        W87305   3.446   3.381  10.925
14881W        W87306   1.456  21.129   2.671
14882W        W87307  14.788  25.581   2.690
14883W        W87308  12.812  32.432  12.889
14884W        W87309  30.960   2.721   3.367
14885W        W87310   4.820  27.015   0.822
14886W        W87311  38.014  23.095   4.668
14887W        W87312  12.797  28.555   0.966
14888W        W87313  31.142   2.286  12.895
14889W        W87314  11.354  13.599   0.379
14890W        W87315  21.162  36.529  11.916
14891W        W87316  38.397  15.091   1.335
14892W        W87317  27.146  25.661  11.586
14893W        W87318  44.992  35.986   0.831
14894W        W87319  31.088  22.151  14.507
14895W        W87320  39.811  17.258   2.878
14896W        W87321  23.681  15.306  11.460
14897W        W87322   7.378  42.915  14.991
14898W        W87323  20.074  41.012   0.397
14899W        W87324  19.742  44.879   4.765
14900W        W87325   2.278  35.855   1.449
14901W        W87326  13.607  15.200  13.831
14902W        W87327  37.898  18.714  12.912
14903W        W87328   0.945  33.460   0.920
14904W        W87329  38.943  28.597  12.086
14905W        W87330  21.123   7.701   3.175
14906W        W87331  40.419  38.353   4.186
14907W        W87332  38.992  37.993  14.451
14908W        W87333  43.373  26.196  14.293
14909W        W87334   9.757  23.115   0.415
14910W        W87335  43.462  30.627  10.637
14911W        W87336  38.488  21.544  10.478
14912W        W87337   5.312  10.816   1.826
14913W        W87338  41.938  40.313   1.747
14914W        W87339  23.651   9.741   2.779
14915W        W87340  34.564  12.661   3.694
14916W        W87341  23.200  31.492  14.323
14917W        W87342   4.282  27.596  13.897
14918W        W87343   9.654  31.612  12.424
14919W        W87344   4.709  35.497   3.642
14920W        W87345  15.265   2.323  13.356
14921W        W87346  34.888  11.133   1.832
14922W        W87347  42.001  42.419   0.471
14923W        W87348   4.942   0.864  12.567
14924W        W87349  32.610   2.405  12.081
14925W        W87350   9.747  12.665   2.218
14926W        W87351  20.758   2.890   0.399
14927W        W87352  31.910  25.983  13.431
14928W        W87353  23.058  20.698   0.925
14929W        W87354   9.887  38.003   1.415
14930W        W87355  18.734  26.054   4.225
14931W        W87356  26.063   1.916   4.157
14932W        W87357  35.541   1.316  13.381
14933W        W87358  15.668  18.750  12.004
14934W        W87359  17.098  24.192  13.958
14935W        W87360  39.985   9.873  10.643
14936W        W87361  21.224  26.509  12.844
14937W        W87362  11.150  28.128  12.496
14938W        W87363  21.172   5.312  11.589
14939W        W87364   3.457   2.896  10.410
14940W        W87365   7.671  38.381  13.535
14941W        W87366  14.616  33.586   2.694
14942W        W87367  23.596   1.452  13.058
14943W        W87368  28.119  16.072  13.970
14944W        W87369  22.500  31.504   0.850
14945W        W87370  42.957  18.661  13.942
14946W        W87371  22.676  25.988  11.586
14947W        W87372   0.783   3.266  12.980
14948W        W87373  26.539  27.033  11.879
14949W        W87374  20.571  27.605  14.404
14950W        W87375   5.391  22.182  13.419
14951W        W87376  39.912  35.543  10.901
14952W        W87377  35.457   1.465   4.162
14953W        W87378  32.510  33.532   1.381
14954W        W87379  40.032  18.645   3.384
14955W        W87380   6.411  41.856  12.088
14956W        W87381  43.860  41.982  14.926
14957W        W87382  41.535  26.656   1.262
14958W        W87383   6.244  42.302   1.741
14959W        W87384   3.912  41.822   1.264
14960W        W87385  37.482   5.349   4.746
14961W        W87386  24.548  30.914   0.444
14962W        W87387  13.740   1.465  11.454
14963W        W87388   6.278   8.830  11.855
14964W        W87389   6.377  38.829   3.750
14965W        W87390  16.163  36.020   4.171
14966W        W87391  12.177  13.741   3.151
14967W        W87392   8.164  43.772  11.526
14968W        W87393  30.908  23.631   1.423
14969W        W87394  11.834   7.695   1.854
14970W        W87395  11.216  19.144   0.896
14971W        W87396  15.103  10.639   4.306
14972W        W87397  41.818  33.996  10.982
14973W        W87398  14.786  19.066   1.415
14974W        W87399  38.960  38.422  14.979
14975W        W87400   1.254  19.266   3.192
14976W        W87401  16.299   2.346  12.900
14977W        W87402   8.736   3.824  10.596
14978W        W87403  12.344  19.225   2.389
14979W        W87404   4.365   2.727   1.854
14980W        W87405  21.059  16.090   2.347
14981W        W87406  24.709  44.973  13.862
14982W        W87407  11.838  19.171   2.300
14983W        W87408  14.642  24.537   2.794
14984W        W87409   5.365  42.935  14.867
14985W        W87410  15.580  23.000   0.758
14986W        W87411  41.803  38.018  11.383
14987W        W87412   3.311  26.951   5.294
14988W        W87413  22.135  14.215  12.499
14989W        W87414  37.978  20.112  12.471
14990W        W87415  13.174   5.778  14.992
14991W        W87416  19.219  29.499  14.992
14992W        W87417  18.563  22.514   0.872
14993W        W87418   0.877  23.492  13.480
14994W        W87419  41.836  30.494   3.238
14995W        W87420  27.086  38.939  14.487
14996W        W87421  34.043   5.868  13.457
14997W        W87422  16.098  39.525  14.928
14998W        W87423  12.615  38.455  10.973
14999W        W87424   2.252  34.050  11.961
15000W        W87425   9.254  43.938  13.009
15001W        W87426  38.468  27.654  14.980
15002W        W87427  19.133  12.353   1.745
15003W        W87428  34.420   6.873   3.774
15004W        W87429  32.904  10.192  11.476
15005W        W87430  19.241  21.168  11.373
15006W        W87431   5.428  11.355  10.415
15007W        W87432  37.882  37.488   1.388
15008W        W87433  31.645  38.002   1.877
15009W        W87434  34.119  33.605  14.900
15010W        W87435  31.555  21.593   4.731
15011W        W87436   0.802  20.738  11.944
15012W        W87437  35.958  34.915   3.698
15013W        W87438   3.363  44.788   3.667
15014W        W87439  38.377  15.103   1.899
15015W        W87440  10.314  34.376   3.721
15016W        W87441  41.350  24.145  13.813
15017W        W87442   6.191  23.213  14.970
15018W        W87443   6.254  37.900   0.379
15019W        W87444  10.672  14.686  13.317
15020W        W87445  18.108   0.844  10.935
15021W        W87446  33.482  40.402   3.261
15022W        W87447  16.804   8.895  11.857
15023W        W87448  29.504  15.132   2.237
15024W        W87449  26.172   1.480  13.944
15025W        W87450  19.702  41.039  11.528
15026W        W87451  27.677   6.749  12.576
15027W        W87452  17.140  12.141   2.771
15028W        W87453  41.344  40.865  11.506
15029W        W87454  18.182   3.804  12.084
15030W        W87455  26.071  30.570  12.543
15031W        W87456  15.627  14.275   1.293
15032W        W87457  14.140  19.647  14.413
15033W        W87458  14.317  41.890   5.153
15034W        W87459  43.000  17.565   1.841
15035W        W87460  12.754   4.384  12.836
15036W        W87461  34.002  25.557  13.885
15037W        W87462  13.282  29.137  14.889
15038W        W87463  12.160  39.544  13.323
15039W        W87464  12.228  27.688  12.489
15040W        W87465  39.392  10.278  13.014
15041W        W87466   9.846  35.563   0.286
15042W        W87467  16.152  24.178   2.747
15043W        W87468  16.080   7.185   1.794
15044W        W87469  39.313  44.878   9.452
15045W        W87470  16.125  40.387   0.403
15046W        W87471  36.945  14.222  14.374
15047W        W87472  38.470  25.480  14.316
15048W        W87473  36.458  43.322  13.362
15049W        W87474  24.157  39.471  10.629
15050W        W87475  35.966   2.765   4.745
15051W        W87476   9.678   4.709  14.935
15052W        W87477   5.263  22.200   4.760
15053W        W87478  18.699   7.185   0.852
15054W        W87479  25.604  13.752  13.944
15055W        W87480   4.204  36.968   2.699
15056W        W87481  40.993  44.805   5.186
15057W        W87482  36.451  39.447   4.340
15058W        W87483  44.299  24.512   2.205
15059W        W87484   5.316  27.493  12.515
15060W        W87485  17.629  38.519  11.453
15061W        W87486  22.687  29.979  14.495
15062W        W87487  32.429  19.170   3.816
15063W        W87488  41.040  25.038  14.803
15064W        W87489  34.070  43.290  10.961
15065W        W87490  31.635   6.747  10.575
15066W        W87491  30.073   8.361  10.622
15067W        W87492   0.939   9.878  10.411
15068W        W87493  40.987  42.894   3.693
15069W        W87494  21.063  20.079   2.895
15070W        W87495  10.314  14.297   1.413
15071W        W87496  32.038  34.886   1.771
15072W        W87497  41.341  25.503   4.831
15073W        W87498  36.397  43.764  14.427
15074W        W87499   9.740  43.870  11.036
15075W        W87500  10.864  44.825  12.871
15076W        W87501  42.345  17.753  13.393
15077W        W87502  35.583  35.952   4.648
15078W        W87503  41.835  23.727   4.788
15079W        W87504   4.411   0.247   0.378
15080W        W87505   6.876  41.010   4.234
15081W        W87506  24.618  22.015   3.386
15082W        W87507  39.056  32.038   2.875
15083W        W87508  12.728  35.866  14.510
15084W        W87509  27.611   1.933   0.760
15085W        W87510  28.172  21.021   0.915
15086W        W87511   1.445  23.200   3.685
15087W        W87512   4.397  26.979   0.412
15088W        W87513  23.107  38.885  14.456
15089W        W87514   6.677  36.533   2.804
15090W        W87515   5.291   7.381   3.749
15091W        W87516  17.099  17.753   1.331
15092W        W87517   2.382  41.852  13.879
15093W        W87518  14.769  41.860   4.314
15094W        W87519  43.429  34.586   4.698
15095W        W87520   0.412  12.190   3.695
15096W        W87521  27.945  12.793  13.502
15097W        W87522  17.222  39.412  12.824
15098W        W87523  11.346   1.253  13.421
15099W        W87524  33.105  34.969   0.395
15100W        W87525   6.424   1.734   2.304
15101W        W87526   3.436  12.348   1.921
15102W        W87527  32.027  17.266  14.872
15103W        W87528  36.563  40.955  11.074
15104W        W87529  32.953   9.363   2.239
15105W        W87530  33.082  29.014  11.866
15106W        W87531  12.705   8.217  14.855
15107W        W87532  31.038  37.865   3.812
15108W        W87533  30.642  37.872   1.717
15109W        W87534  22.172  28.984   1.842
15110W        W87535   6.300  28.971  13.855
15111W        W87536  32.542   2.398   1.340
15112W        W87537  11.350  39.022   3.291
15113W        W87538  26.052  29.112  12.016
15114W        W87539  18.085  18.090  13.821
15115W        W87540   5.241  36.441  11.506
15116W        W87541  14.698  37.355   2.206
15117W        W87542  44.353  39.017   1.779
15118W        W87543  11.723  11.710  13.330
15119W        W87544  32.487  18.137  14.448
15120W        W87545  43.000  28.062   4.249
15121W        W87546  23.222   6.757   0.934
15122W        W87547  17.702  36.062   2.839
15123W        W87548   0.278  14.296   1.708
15124W        W87549   4.871  10.735  13.316
15125W        W87550  17.680  33.996   2.836
15126W        W87551  37.418  20.123   5.223
15127W        W87552   8.778  13.194   2.775
15128W        W87553  40.985  26.993  13.385
15129W        W87554  17.276  17.145   2.748
15130W        W87555  26.582  21.021   1.214
15131W        W87556  19.599  22.706  10.892
15132W        W87557  17.797   3.885  13.367
15133W        W87558  11.785  16.690  12.490
15134W        W87559  16.574   8.243  14.274
15135W        W87560  17.616  43.505  12.415
15136W        W87561  36.860  23.651  12.044
15137W        W87562   9.329   8.669   9.933
15138W        W87563  12.854  36.473  12.359
15139W        W87564  14.761  34.031  14.861
15140W        W87565  24.227  32.625   4.262
15141W        W87566  30.119   0.491   1.695
15142W        W87567   0.306   7.899  13.896
15143W        W87568  39.978  37.021  11.529
15144W        W87569  40.367  31.077   0.303
15145W        W87570  36.573  22.024   0.422
15146W        W87571  43.515  21.078   0.280
15147W        W87572  24.144   2.356   2.817
15148W        W87573  22.618  37.343  14.866
15149W        W87574  43.882  32.532  11.604
15150W        W87575  10.778  21.239   3.695
15151W        W87576  14.139  12.265   0.369
15152W        W87577  44.824  35.535  10.515
15153W        W87578  41.820  14.222  14.863
15154W        W87579  14.177  33.618  13.480
15155W        W87580  26.664  14.797   0.393
15156W        W87581   9.655   6.199   5.760
15157W        W87582  19.041   9.672   0.742
15158W        W87583  16.291  19.603  14.995
15159W        W87584  38.878  34.008   4.670
15160W        W87585  26.651  40.891  14.374
15161W        W87586  21.058  32.091   1.761
15162W        W87587  20.698  44.334  13.431
15163W        W87588  36.496  30.107   0.463
15164W        W87589  17.680  33.993  14.777
15165W        W87590  17.130  14.744  14.811
15166W        W87591  12.706  34.572   1.720
15167W        W87592  40.859  33.123  11.109
15168W        W87593   5.349   3.908  11.608
15169W        W87594  30.587  41.963   1.444
15170W        W87595  33.082   8.714   4.198
15171W        W87596  42.447  14.664  13.451
15172W        W87597   7.911   4.752   4.298
15173W        W87598  24.588  38.870   0.813
15174W        W87599   3.350   3.436   3.813
15175W        W87600  10.353  16.652  12.341
15176W        W87601  34.464  23.157  11.451
15177W        W87602  42.492  36.380   1.254
15178W        W87603  42.281  16.242  10.423
15179W        W87604  15.726   4.793   2.822
15180W        W87605   4.889  26.057  11.599
15181W        W87606  10.844  44.294   3.810
15182W        W87607   0.901  20.765  14.911
15183W        W87608  33.575   6.702  14.993
15184W        W87609  43.287  22.086  10.408
15185W        W87610  17.261  37.564   4.227
15186W        W87611   3.227  20.164  12.510
15187W        W87612  11.763  41.473  13.542
15188W        W87613  42.916   1.334  12.544
15189W        W87614  27.661  34.414  13.496
15190W        W87615   7.331  24.121  14.403
15191W        W87616   9.643  33.091  14.426
15192W        W87617  23.222  37.522   1.891
15193W        W87618   5.732  40.381   1.852
15194W        W87619  24.079  32.496  10.619
15195W        W87620  34.880  27.029   0.367
15196W        W87621  20.055  33.507  14.912
15197W        W87622  20.688  10.324  11.990
15198W        W87623  37.447  31.603   2.216
15199W        W87624  19.696  25.096  13.443
15200W        W87625   4.855   7.250  13.017
15201W        W87626   3.321  44.959  12.483
15202W        W87627  28.974   2.353   3.181
15203W        W87628  14.326  39.817  13.529
15204W        W87629  14.331  26.972  14.030
15205W        W87630   8.355  29.945  11.874
15206W        W87631  15.808  33.458  14.844
15207W        W87632  22.075  26.032  10.913
15208W        W87633   2.921  27.996   0.887
15209W        W87634  31.152  23.060  12.006
15210W        W87635  19.222  37.570   4.652
15211W        W87636  25.088  34.566  13.506
15212W        W87637  15.191  10.875  13.410
15213W        W87638  42.449  37.982  12.513
15214W        W87639  10.359   1.357   3.155
15215W        W87640  42.290  33.125  11.875
15216W        W87641  43.015  34.558  14.002
15217W        W87642   3.918  39.374  13.484
15218W        W87643  44.499  27.575  14.914
15219W        W87644  21.519   8.363  13.440
15220W        W87645  42.861  35.495   4.682
15221W        W87646  27.021  34.906   0.288
15222W        W87647  13.712  22.077   5.762
15223W        W87648  19.594  42.503  12.946
15224W        W87649  33.571   0.916  14.506
15225W        W87650  40.358  27.582  10.615
15226W        W87651   9.174   5.341  10.591
15227W        W87652  24.082  19.087   3.819
15228W        W87653   6.262  39.934  14.943
15229W        W87654   4.330  17.766   2.321
15230W        W87655  20.565  41.974   1.273
15231W        W87656   6.719  16.318   1.815
15232W        W87657   2.938  33.434   3.287
15233W        W87658   9.749   2.276  12.489
15234W        W87659  21.626  20.190   0.912
15235W        W87660   9.220  22.539  11.915
15236W        W87661  31.133  43.804  14.822
15237W        W87662  25.676  28.537   1.866
15238W        W87663  15.764  37.889   4.604
15239W        W87664  35.858  42.392  13.488
15240W        W87665   0.940   1.265  14.944
15241W        W87666   0.329  38.947   0.754
15242W        W87667  42.525   3.359   3.851
15243W        W87668  24.718  18.088  11.422
15244W        W87669  39.923  44.483   0.468
15245W        W87670  18.663   8.372  12.040
15246W        W87671  20.151  20.163  12.515
15247W        W87672  21.120  37.842  13.937
15248W        W87673  21.584  17.191   2.209
15249W        W87674  20.749  23.560   4.134
15250W        W87675  11.818  10.670  12.355
15251W        W87676   7.180  39.899   3.809
15252W        W87677  19.595  39.902   3.223
15253W        W87678  14.244  38.920  12.078
15254W        W87679  43.356  43.286   2.294
15255W        W87680  32.422  41.457  12.502
15256W        W87681  39.988  20.663   1.251
15257W        W87682  39.453  38.324  10.914
15258W        W87683   2.842   5.764  12.436
15259W        W87684   3.354  43.378   2.258
15260W        W87685  25.479   1.737   1.743
15261W        W87686  20.074  35.487   3.811
15262W        W87687  21.525  38.945  14.506
15263W        W87688  13.246  37.452   0.870
15264W        W87689  10.835  32.944   2.780
15265W        W87690   7.273  20.036   1.764
15266W        W87691  28.461  27.689   3.855
15267W        W87692  12.279  35.441  10.584
15268W        W87693  31.935  13.283   0.364
15269W        W87694  21.029  23.578   2.218
15270W        W87695  26.126   5.861   3.331
15271W        W87696  36.399  18.111  10.999
15272W        W87697  15.821  37.041  14.298
15273W        W87698  10.226  25.990  13.816
15274W        W87699  20.061  25.061  10.901
15275W        W87700  12.652   5.850  14.867
15276W        W87701  15.238  35.362   0.928
15277W        W87702  19.194   7.293   2.820
15278W        W87703  27.139  14.142   4.350
15279W        W87704  31.523  31.055  12.009
15280W        W87705  10.199  18.079   4.323
15281W        W87706  23.989  25.549  13.941
15282W        W87707  37.355  43.485  12.379
15283W        W87708  44.757  28.109   1.417
15284W        W87709  29.505   1.845   2.186
15285W        W87710   9.260  43.901  14.446
15286W        W87711  41.885  40.454  14.336
15287W        W87712  21.739  30.519   0.256
15288W        W87713  15.166  23.198  14.831
15289W        W87714  27.082   1.274  12.358
15290W        W87715  11.129  40.424  11.493
15291W        W87716  11.274  24.174   2.780
15292W        W87717  42.890   8.893   4.199
15293W        W87718  41.910   0.824   1.264
15294W        W87719  28.139  19.244  14.425
15295W        W87720  19.101  21.682  12.552
15296W        W87721  19.547  20.609  10.988
15297W        W87722  23.491  23.700  14.778
15298W        W87723  35.495  35.005   0.372
15299W        W87724  15.302  32.631  12.942
15300W        W87725  37.947  25.599   1.245
15301W        W87726  38.353  16.298  11.580
15302W        W87727  28.516  31.587  14.991
15303W        W87728   6.354  43.496  12.014
15304W        W87729   0.420  39.456   4.620
15305W        W87730  31.982  11.253  13.423
15306W        W87731   5.247  31.114  14.890
15307W        W87732  13.317  40.365  11.101
15308W        W87733   9.288   5.419  13.864
15309W        W87734   2.767  22.130   3.341
15310W        W87735  44.767  20.071   0.764
15311W        W87736  44.287  36.588  14.014
15312W        W87737  16.167   7.266  14.502
15313W        W87738  13.191  14.698  11.931
15314W        W87739  29.966  37.931  13.528
15315W        W87740   8.260  22.617  10.523
15316W        W87741  10.282  20.557  10.129
15317W        W87742  29.500   2.920   3.210
15318W        W87743  37.047  14.163   0.964
15319W        W87744  15.621  41.359  12.872
15320W        W87745   8.325   2.337  10.405
15321W        W87746  23.714  40.454  10.539
15322W        W87747  30.139  35.363   2.207
15323W        W87748  44.458  22.124  10.942
15324W        W87749  11.729   1.312  11.589
15325W        W87750  17.258  44.396  11.594
15326W        W87751   4.907  35.581   2.417
15327W        W87752   7.217  40.987   2.823
15328W        W87753  41.298  40.855  11.895
15329W        W87754  17.714  41.825  10.627
15330W        W87755   9.654  24.089  13.413
15331W        W87756   2.845  23.217  11.534
15332W        W87757  42.788  16.575  12.089
15333W        W87758  40.896   0.376  13.391
15334W        W87759  34.943   1.863   0.773
15335W        W87760  33.124   8.243  12.502
15336W        W87761  17.724  34.095   4.801
15337W        W87762  35.424  22.099   3.665
15338W        W87763  20.568   6.711  14.890
15339W        W87764  11.688  33.445   1.776
15340W        W87765  27.117  33.931   2.872
15341W        W87766  31.449  19.270   5.313
15342W        W87767  44.780  24.196  13.396
15343W        W87768  34.379  19.128   1.706
15344W        W87769   3.414  26.157   3.678
15345W        W87770  19.756  29.125  11.057
15346W        W87771  10.743  39.951   2.230
15347W        W87772  29.465   1.744  13.327
15348W        W87773  43.490  43.923   2.730
15349W        W87774   7.841   9.660  14.439
15350W        W87775  44.485  15.323  10.160
15351W        W87776   9.666   8.746   1.271
15352W        W87777  10.676  42.929  11.924
15353W        W87778   1.417  18.715   2.280
15354W        W87779  43.448  23.098  12.895
15355W        W87780  11.809  30.566  10.960
15356W        W87781   2.800  37.491  10.591
15357W        W87782  32.083  22.078  13.825
15358W        W87783  41.940  43.014  11.590
15359W        W87784  32.418  37.363   2.215
15360W        W87785  34.531   8.293   4.638
15361W        W87786  34.068   4.415  11.422
15362W        W87787  36.406  10.678   2.722
15363W        W87788   2.395  33.907  14.955
15364W        W87789  34.877  25.573   1.247
15365W        W87790   4.827  37.901  14.768
15366W        W87791  18.591   2.826   3.850
15367W        W87792   2.373  33.082   1.277
15368W        W87793  39.992  36.436  11.603
15369W        W87794  13.834   1.900  14.304
15370W        W87795  20.160  29.634   1.288
15371W        W87796  25.050   1.321   1.929
15372W        W87797  22.078  18.674   0.436
15373W        W87798  24.718  42.784  14.475
15374W        W87799  28.953   9.782   3.772
15375W        W87800  11.213  32.504  12.861
15376W        W87801  34.592   9.341  14.364
15377W        W87802  22.525   6.308  11.521
15378W        W87803  11.235   5.207  12.505
15379W        W87804  12.200   6.705  10.574
15380W        W87805  20.657  15.776  11.030
15381W        W87806  33.880  40.928   4.816
15382W        W87807  14.817  18.563  13.477
15383W        W87808   3.943  38.529   2.287
15384W        W87809  40.019   5.766  13.391
15385W        W87810  27.966  42.892  10.587
15386W        W87811   2.419  21.110   1.409
15387W        W87812  41.537  14.659   1.343
15388W        W87813   2.855  31.565   1.383
15389W        W87814  43.826  35.978   4.353
15390W        W87815  44.880   6.349  11.432
15391W        W87816  29.640  22.730  11.081
15392W        W87817  29.033  22.515   2.674
15393W        W87818  17.590  11.764  11.011
15394W        W87819  12.834  43.862   3.385
15395W        W87820  14.176  22.187  10.644
15396W        W87821  19.703  41.959  13.964
15397W        W87822  12.666  42.993   3.287
15398W        W87823  11.705   9.820   4.687
15399W        W87824   2.316  31.443  12.383
15400W        W87825  41.865  42.832   4.750
15401W        W87826  41.947   9.659   1.221
15402W        W87827   7.238  28.593   2.785
15403W        W87828   5.247  28.616  10.511
15404W        W87829  33.545  42.026  14.972
15405W        W87830  41.333  43.979   0.887
15406W        W87831  20.626  30.559   3.318
15407W        W87832  16.169   0.978  10.956
15408W        W87833  38.380  16.727   3.706
15409W        W87834   4.709  16.114   1.820
15410W        W87835  37.565   0.489   1.244
15411W        W87836  17.150  29.428  12.084
15412W        W87837  13.768  19.161  13.888
15413W        W87838  22.622   8.779  10.007
15414W        W87839  26.522  37.865   3.735
15415W        W87840  34.438  14.646   3.763
15416W        W87841  22.684  13.618   0.797
15417W        W87842   9.840  43.827   2.698
15418W        W87843  42.308  21.615   0.368
15419W        W87844   1.309  36.908   4.186
15420W        W87845  38.868   7.314  11.974
15421W        W87846  41.869  10.384   1.322
15422W        W87847  14.591  22.146  12.897
15423W        W87848  29.461   0.806  14.797
15424W        W87849  16.127   7.271  11.995
15425W        W87850  38.486  34.523   3.834
15426W        W87851  29.160  39.999   3.368
15427W        W87852  36.982  31.646   4.823
15428W        W87853  29.959   9.280  14.953
15429W        W87854   0.832  16.141  11.937
15430W        W87855  44.411   4.262   1.856
15431W        W87856  21.235   8.327   0.734
15432W        W87857   0.338  34.011  12.487
15433W        W87858  29.497   1.912   9.964
15434W        W87859  23.580   5.433  13.057
15435W        W87860  20.737   8.892  13.908
15436W        W87861  22.016  10.308  14.808
15437W        W87862  40.831   2.230   3.235
15438W        W87863  33.473   5.779   4.763
15439W        W87864  34.073  36.412   0.760
15440W        W87865  19.159  21.621   4.770
15441W        W87866  18.644  22.728  11.423
15442W        W87867  30.075   5.351   1.308
15443W        W87868  34.593   8.261  13.329
15444W        W87869  43.983   1.913  11.061
15445W        W87870   8.291  39.331  13.507
15446W        W87871  30.591  43.797  11.386
15447W        W87872  13.159  42.301  13.905
15448W        W87873  13.746  44.932  10.995
15449W        W87874   9.872  22.142  14.786
15450W        W87875  29.139  15.178  11.585
15451W        W87876  40.317   7.240   1.929
15452W        W87877  35.547   9.268   3.677
15453W        W87878  12.174  21.204   3.681
15454W        W87879  22.144  41.019  14.509
15455W        W87880  36.994  10.306   4.829
15456W        W87881   2.464  24.527   3.780
15457W        W87882  39.435  14.632   3.790
15458W        W87883  40.913  14.622   2.365
15459W        W87884  27.103  30.920   3.830
15460W        W87885  23.496  37.361   1.349
15461W        W87886  16.213  42.449  11.609
15462W        W87887  10.226  27.687   2.271
15463W        W87888   2.956  27.165   2.715
15464W        W87889  27.463   7.341   3.315
15465W        W87890  17.166  25.562   1.827
15466W        W87891  36.471  29.152   2.189
15467W        W87892  15.679  39.377   0.346
15468W        W87893  13.775   4.852   3.705
15469W        W87894  12.830  28.128  11.128
15470W        W87895  37.995  37.574  12.370
15471W        W87896   2.428   4.907  12.980
15472W        W87897  39.502   3.434   3.261
15473W        W87898  12.743   5.913  13.454
15474W        W87899  32.440  35.094  10.122
15475W        W87900  39.494   9.808   3.240
15476W        W87901  39.860   5.812   1.772
15477W        W87902  42.955  16.708  11.394
15478W        W87903   3.871   9.757   2.214
15479W        W87904  31.411  23.585   3.213
15480W        W87905  21.654   4.436   0.877
15481W        W87906  30.055   5.425  12.561
15482W        W87907   8.722  21.017   2.874
15483W        W87908  27.103  20.669  10.490
15484W        W87909  23.230  20.533  11.123
15485W        W87910  11.860  39.532   3.384
15486W        W87911  30.963  21.751  11.519
15487W        W87912  41.527  38.431   0.859
15488W        W87913  13.110  44.386   3.781
15489W        W87914  12.844  22.234   3.381
15490W        W87915  25.483  35.562  10.906
15491W        W87916  44.263   7.214   1.809
15492W        W87917   7.359  35.104  14.982
15493W        W87918  44.980  20.043  12.877
15494W        W87919  39.505  39.520   2.768
15495W        W87920  37.926   4.249   3.765
15496W        W87921  22.605  15.784  11.374
15497W        W87922  28.600  29.031   4.206
15498W        W87923  44.345  18.769   5.224
15499W        W87924  37.507   2.822   1.889
15500W        W87925  31.542   9.727   2.801
15501W        W87926  23.990  39.986   3.656
15502W        W87927  19.197  38.391  12.986
15503W        W87928   0.815  25.193  11.485
15504W        W87929  14.171  22.117   3.661
15505W        W87930  42.901  30.949   0.884
15506W        W87931  27.161  33.879  12.049
15507W        W87932   3.715  34.437  10.432
15508W        W87933  42.833  24.580  10.541
15509W        W87934  23.627  37.907   4.836
15510W        W87935  42.783  11.841   4.833
15511W        W87936  27.645  29.157  12.060
15512W        W87937   2.394  23.984   4.178
15513W        W87938  34.614  27.487   0.369
15514W        W87939  32.599  10.719   2.307
15515W        W87940  44.853  10.153   2.268
15516W        W87941  18.564  21.523   4.814
15517W        W87942  32.411  18.565  10.103
15518W        W87943  13.797  16.567  10.621
15519W        W87944   1.969  43.462  11.005
15520W        W87945  10.750  26.701  14.468
15521W        W87946  42.799   1.466  13.341
15522W        W87947  32.541   6.226   1.298
15523W        W87948  12.675  32.913   4.615
15524W        W87949   5.873   3.713   2.861
15525W        W87950   1.806   3.343   2.294
15526W        W87951   5.324  43.964  14.763
15527W        W87952  14.110   1.905   4.289
15528W        W87953  16.691   5.255  10.923
15529W        W87954  17.694  10.363  12.918
15530W        W87955  35.443  17.224  12.941
15531W        W87956  38.894   2.350  12.001
15532W        W87957  20.680  19.767  10.489
15533W        W87958  20.065   2.236   2.895
15534W        W87959  12.324  26.494   5.159
15535W        W87960  13.116  35.426  13.878
15536W        W87961  38.056  43.876   1.226
15537W        W87962  41.993   5.281   0.951
15538W        W87963  15.608  35.060   4.761
15539W        W87964   0.494   1.868  14.992
15540W        W87965  17.082   5.398  10.920
15541W        W87966   0.743   9.646  14.363
15542W        W87967  31.117  18.554   5.657
15543W        W87968   2.755  10.333  13.975
15544W        W87969  43.280   7.334  12.076
15545W        W87970  22.223  38.496   3.236
15546W        W87971  25.209   7.727  12.994
15547W        W87972  33.546  37.539   4.283
15548W        W87973   8.257  15.750   1.891
15549W        W87974  33.891  28.671   2.873
15550W        W87975  12.751   7.240   4.277
15551W        W87976  18.082  33.391  13.992
15552W        W87977  26.102  28.114   3.291
15553W        W87978  10.792  42.970   3.240
15554W        W87979   8.671  14.220  13.048
15555W        W87980  16.214  36.055  11.444
15556W        W87981  14.752  24.524  12.967
15557W        W87982  37.839  41.354   4.140
15558W        W87983  42.464  11.261  11.542
15559W        W87984  23.617  43.914  11.547
15560W        W87985  31.071   0.451  10.592
15561W        W87986  23.171  31.022  14.839
15562W        W87987   2.454  22.568  13.381
15563W        W87988  17.195   6.787   2.769
15564W        W87989  21.524  43.291  13.962
15565W        W87990   3.725  35.050   1.712
15566W        W87991  32.581  13.673   2.769
15567W        W87992  33.096  29.160   4.243
15568W        W87993  32.957   6.200  14.310
15569W        W87994  28.519  41.929  10.412
15570W        W87995  12.646  30.625   1.916
15571W        W87996  26.461  42.835   5.102
15572W        W87997  37.574   1.972   0.863
15573W        W87998  30.024  26.961  11.933
15574W        W87999  43.368  42.937  11.510
15575W        W88000  21.212   9.695  11.607
15576W        W88001  32.416  13.226   2.282
15577W        W88002  23.121  22.251   4.226
15578W        W88003   4.805  44.409   2.670
15579W        W88004  14.645  10.748   0.413
15580W        W88005  20.250  21.229   4.799
15581W        W88006  32.502  35.501  12.438
15582W        W88007   6.358   6.394  12.517
15583W        W88008  15.169  29.154  11.479
15584W        W88009  37.073  35.866  12.876
15585W        W88010  28.657   6.758  11.504
15586W        W88011  40.415  24.010   0.771
15587W        W88012  12.359  36.581  11.080
15588W        W88013  29.492  17.071  12.978
15589W        W88014  39.558  26.125   4.785
15590W        W88015   9.710  20.632   3.737
15591W        W88016  21.066  40.479   2.309
15592W        W88017  35.599   8.208   2.890
15593W        W88018   0.491  37.023  11.057
15594W        W88019   5.900  29.066  11.524
15595W        W88020  42.835  39.483  13.483
15596W        W88021  14.697  14.140  13.546
15597W        W88022  10.734  10.822   3.252
15598W        W88023   2.745  16.210  13.309
15599W        W88024  36.490  41.976  11.394
15600W        W88025  13.245  35.098   5.168
15601W        W88026  29.633  22.196   3.826
15602W        W88027   6.297  44.355   3.252
15603W        W88028   6.811  18.744   0.838
15604W        W88029  30.566   4.808  12.407
15605W        W88030   6.243  17.087   5.178
15606W        W88031  42.902  23.173   3.307
15607W        W88032  17.181  12.666  12.488
15608W        W88033  16.699  37.888  12.371
15609W        W88034  10.357  32.554  14.505
15610W        W88035  41.977  33.988   4.599
15611W        W88036  43.002  42.283  12.487
15612W        W88037  26.670   7.686  12.363
15613W        W88038  15.734  43.333  13.393
15614W        W88039  24.227  11.811  12.471
15615W        W88040  12.799  22.065   5.319
15616W        W88041  10.682   7.285  14.508
15617W        W88042  39.002  11.748  10.031
15618W        W88043  19.209   2.252   5.755
15619W        W88044  42.829   2.459  14.803
15620W        W88045   5.269  36.063  14.851
15621W        W88046  14.726  38.475   0.957
15622W        W88047   8.746  26.033  11.970
15623W        W88048  38.422  41.872   0.447
15624W        W88049  33.059  20.087  13.441
15625W        W88050  33.079  29.984   3.203
15626W        W88051  21.718   9.259   0.778
15627W        W88052  23.108  42.961   3.647
15628W        W88053  32.910  41.517   2.758
15629W        W88054  10.350  39.925  12.015
15630W        W88055  23.095  36.500   2.185
15631W        W88056   9.396  27.550   2.289
15632W        W88057  19.599  42.341   4.833
15633W        W88058  43.403  22.233   1.249
15634W        W88059   9.864   9.854  12.437
15635W        W88060  24.176  37.489  14.893
15636W        W88061  42.966  10.826  10.605
15637W        W88062  15.815   6.377   1.378
15638W        W88063  14.615  29.520   2.685
15639W        W88064   8.700  39.319   4.690
15640W        W88065   6.881   4.794   0.886
15641W        W88066  23.011  28.996  14.770
15642W        W88067  28.582  10.334  11.074
15643W        W88068  26.552  27.034   3.226
15644W        W88069  39.490   0.407   0.778
15645W        W88070  28.562  36.914  13.980
15646W        W88071  16.578  15.814   2.673
15647W        W88072  14.268  35.102   1.790
15648W        W88073  28.449   2.890  14.818
15649W        W88074  35.941  21.538  12.828
15650W        W88075  20.543  28.516  12.421
15651W        W88076  19.634   8.228   4.298
15652W        W88077  14.655  42.409  12.833
15653W        W88078  41.919  30.443  12.350
15654W        W88079  25.070  30.535   1.258
15655W        W88080   9.801  41.978  13.312
15656W        W88081  11.162   7.265   5.212
15657W        W88082  37.021   6.182   4.772
15658W        W88083  13.105  18.136   4.717
15659W        W88084  24.156   1.294   4.791
15660W        W88085  16.668  27.197  11.979
15661W        W88086   7.875  21.114   2.321
15662W        W88087  14.257  44.428  11.104
15663W        W88088  29.056  44.466  11.522
15664W        W88089  41.924   8.228  11.053
15665W        W88090  11.338  27.581   4.789
15666W        W88091   8.683  30.592  11.072
15667W        W88092  35.020   5.267   1.241
15668W        W88093  41.814   3.339   0.908
15669W        W88094   9.707   6.749   3.173
15670W        W88095  44.780  20.144   4.607
15671W        W88096   3.782  28.516   3.785
15672W        W88097  16.597  19.171   3.197
15673W        W88098  12.137  35.923  11.049
15674W        W88099  33.031   5.389   3.665
15675W        W88100  27.093  30.001  11.103
15676W        W88101  34.026  20.152  12.533
15677W        W88102  29.543  26.118  12.420
15678W        W88103  17.612   4.293  12.003
15679W        W88104  37.372   8.831   2.334
15680W        W88105  31.479  24.632  11.508
15681W        W88106  14.763  44.949  12.479
15682W        W88107  18.559  37.372   9.980
15683W        W88108  32.971   1.741   4.128
15684W        W88109   2.390  31.069  13.328
15685W        W88110  28.105  14.679  14.435
15686W        W88111   2.788   5.395  12.861
15687W        W88112  31.529  36.026   0.261
15688W        W88113  11.332  14.196  10.911
15689W        W88114   6.906  35.430   2.692
15690W        W88115  14.175  18.186   3.331
15691W        W88116  27.179  20.113   4.754
15692W        W88117  35.038  34.033  12.371
15693W        W88118  26.616   6.259   3.222
15694W        W88119  12.772   7.232   0.757
15695W        W88120  14.311  28.990   1.726
15696W        W88121  33.119  27.076  11.536
15697W        W88122  17.621  23.722  11.569
15698W        W88123  38.402  16.698  12.444
15699W        W88124  44.472  41.399  10.559
15700W        W88125  12.136  22.212  10.119
15701W        W88126  34.399  34.944   1.853
15702W        W88127  27.967  26.060   1.772
15703W        W88128  20.258  19.237  13.825
15704W        W88129  41.979  16.182   4.743
15705W        W88130   9.243   7.298   1.290
15706W        W88131  32.891   1.465   2.711
15707W        W88132  22.674   1.764  12.062
15708W        W88133  14.282  33.917   4.654
15709W        W88134  37.900   7.796  14.504
15710W        W88135  28.140  18.258  10.012
15711W        W88136   2.278  39.852  12.950
15712W        W88137  16.243  36.558   1.276
15713W        W88138   7.814  32.124   0.760
15714W        W88139  23.648  33.602   4.252
15715W        W88140  21.532  28.175  12.978
15716W        W88141  13.845  26.005  13.811
15717W        W88142   0.427  30.524  11.056
15718W        W88143  43.288   0.924   2.718
15719W        W88144   4.402  29.490  12.920
15720W        W88145  39.933  26.566  11.071
15721W        W88146  43.307  24.050  13.954
15722W        W88147  28.100   2.252   2.389
15723W        W88148  29.973  41.891   0.249
15724W        W88149  35.536  41.994  10.600
15725W        W88150  33.522   1.410  14.847
15726W        W88151  12.127  10.712   3.367
15727W        W88152  19.219  14.624  10.483
15728W        W88153  25.599   1.243   3.755
15729W        W88154  29.925   2.313   1.806
15730W        W88155   5.788  43.509  11.903
15731W        W88156  27.551  41.364  10.919
15732W        W88157   0.303  18.237   0.909
15733W        W88158  40.905  24.014   4.155
15734W        W88159  32.512  41.452  12.874
15735W        W88160  14.819  32.006  11.390
15736W        W88161  12.273  18.717  11.409
15737W        W88162  33.592  43.908   2.244
15738W        W88163  25.972  32.547   9.628
15739W        W88164  22.069  44.975  10.612
15740W        W88165  42.451  40.537   1.377
15741W        W88166  43.481  43.387   3.158
15742W        W88167  19.662  14.173   4.744
15743W        W88168  40.862  13.796   3.359
15744W        W88169  33.986   0.269  11.981
15745W        W88170  32.617  25.067  10.634
15746W        W88171  12.632  36.055   1.823
15747W        W88172  22.217  31.103   3.694
15748W        W88173  41.518  44.322   3.382
15749W        W88174  17.218  44.824  10.502
15750W        W88175  39.469   2.791  12.539
15751W        W88176  13.133   5.332  14.817
15752W        W88177  24.596  24.222  10.915
15753W        W88178  12.617  32.595  10.507
15754W        W88179  33.086  41.426   0.248
15755W        W88180  26.065  10.843  12.915
15756W        W88181   6.382  41.376  12.440
15757W        W88182  29.627  31.954   5.254
15758W        W88183   7.329  23.588   1.886
15759W        W88184   4.767   9.156   0.257
15760W        W88185  13.108   9.283   3.661
15761W        W88186   8.347  35.595  10.998
15762W        W88187   4.743   1.898  12.339
15763W        W88188  19.732   1.836   0.294
15764W        W88189  26.575   8.243   4.255
15765W        W88190  26.561  37.431   4.820
15766W        W88191  27.118  34.918  11.376
15767W        W88192  38.367  17.300  11.413
15768W        W88193  31.116  19.170  11.518
15769W        W88194  40.324  28.945  12.954
15770W        W88195  27.573  34.434  12.431
15771W        W88196   0.340   1.898   2.870
15772W        W88197  19.670  10.833  11.987
15773W        W88198  28.624  32.546   2.368
15774W        W88199  35.532  42.330   4.826
15775W        W88200  28.579  32.937  14.952
15776W        W88201  35.970  23.714   3.733
15777W        W88202  44.275  37.532   2.268
15778W        W88203  43.339  26.464  12.048
15779W        W88204  44.411   3.750  14.980
15780W        W88205   1.344   5.852  12.844
15781W        W88206  43.471  20.123   1.701
15782W        W88207   8.666  40.408   5.314
15783W        W88208  10.775  32.524  13.420
15784W        W88209   8.883   5.831   2.855
15785W        W88210  19.271  35.056   0.403
15786W        W88211  26.671  28.637  11.486
15787W        W88212  31.034  10.168   4.827
15788W        W88213  42.498  42.964  10.992
15789W        W88214  17.262  42.941   2.253
15790W        W88215  37.496  24.118   1.371
15791W        W88216  33.420  26.204  10.907
15792W        W88217  42.014  31.643   0.384
15793W        W88218  22.743   5.862   1.336
15794W        W88219   6.678  12.687  11.477
15795W        W88220  18.639  10.681   0.285
15796W        W88221   3.405  16.275   3.814
15797W        W88222   4.415  40.483   1.381
15798W        W88223  19.256  10.761   2.418
15799W        W88224  32.592  42.856  14.794
15800W        W88225  15.140  13.696  14.381
15801W        W88226  30.657   2.756   3.369
15802W        W88227  26.594  14.645  12.344
15803W        W88228  42.320  23.227   2.253
15804W        W88229  36.866  38.378   4.728
15805W        W88230  28.111   3.944  13.928
15806W        W88231  32.550  34.497   4.714
15807W        W88232  28.475  33.546   1.394
15808W        W88233  35.578  37.401   1.378
15809W        W88234   2.227  14.680  13.450
15810W        W88235  25.977   4.403   0.963
15811W        W88236  11.186  24.055  13.049
15812W        W88237  28.550   9.361  13.479
15813W        W88238   2.809   6.360  13.881
15814W        W88239   3.461  37.953  11.094
15815W        W88240  13.661  24.202  12.901
15816W        W88241  42.839  10.844   0.451
15817W        W88242  13.295  32.030   0.354
15818W        W88243  23.516  28.134  14.409
15819W        W88244  40.479   0.894   4.689
15820W        W88245  40.912   4.780  11.597
15821W        W88246  28.491  32.460   3.723
15822W        W88247   7.208  26.580  14.763
15823W        W88248  28.677  17.233   0.841
15824W        W88249  36.462  40.452  10.550
15825W        W88250  24.065  35.003  10.518
15826W        W88251  36.566  17.115  13.344
15827W        W88252  29.560   1.955   5.120
15828W        W88253  42.288  40.450  12.080
15829W        W88254  29.994  12.685   1.748
15830W        W88255  35.929   9.282  13.961
15831W        W88256   4.273  31.920  13.828
15832W        W88257  28.053  10.269  12.923
15833W        W88258  18.568   2.463  12.877
15834W        W88259   0.408  44.773  11.913
15835W        W88260   1.351  38.012  11.118
15836W        W88261  17.800  20.054   3.335
15837W        W88262  18.143  11.127   4.619
15838W        W88263  39.457  31.561  12.441
15839W        W88264  18.226   8.180  14.012
15840W        W88265   2.374  25.561   2.672
15841W        W88266  32.494  43.940  11.891
15842W        W88267   7.325  11.343  12.399
15843W        W88268  26.199  21.580  13.853
15844W        W88269  21.115   8.778  13.012
15845W        W88270  29.449   8.898  12.844
15846W        W88271  41.880  35.105   2.730
15847W        W88272  28.076  22.202   2.220
15848W        W88273  11.650  26.607  10.606
15849W        W88274   3.414  36.425   3.839
15850W        W88275   8.666  23.177   2.667
15851W        W88276   2.857   8.853   1.362
15852W        W88277  27.193  34.580   2.234
15853W        W88278  31.573  29.483  10.441
15854W        W88279  23.073  18.263   4.808
15855W        W88280  41.824  40.960   3.338
15856W        W88281  44.292  31.013   3.219
15857W        W88282  30.113  11.656   1.373
15858W        W88283  34.613  32.977  10.448
15859W        W88284   1.410  17.104  11.902
15860W        W88285  33.583  29.632   4.158
15861W        W88286  13.320  17.763  14.012
15862W        W88287  44.422  30.025   9.936
15863W        W88288  22.573  34.501  13.447
15864W        W88289  38.971   1.256   3.676
15865W        W88290  40.334  44.410   1.853
15866W        W88291  40.363   3.445   4.335
15867W        W88292  31.048  44.295   2.861
15868W        W88293   4.343  19.744   0.814
15869W        W88294  37.874  31.963  10.043
15870W        W88295  12.218  39.323   1.382
15871W        W88296  30.086  38.377  14.433
15872W        W88297  19.108  38.370   0.299
15873W        W88298   7.865   6.755   4.196
15874W        W88299   3.739  42.801   2.871
15875W        W88300  27.187  31.604   2.737
15876W        W88301  14.213  19.696   0.426
15877W        W88302  39.022  27.505  12.974
15878W        W88303  23.000  25.127  12.968
15879W        W88304   3.810  42.982   1.291
15880W        W88305  20.098  29.538  12.352
15881W        W88306  13.668   3.404  13.518
15882W        W88307  14.818   8.238  12.844
15883W        W88308  29.553  33.034   2.754
15884W        W88309  11.273  44.758   0.248
15885W        W88310   8.383  14.776   1.931
15886W        W88311   2.255  34.990   1.428
15887W        W88312  27.068   0.312  10.592
15888W        W88313  32.435  40.409   4.300
15889W        W88314  34.494   1.321   2.840
15890W        W88315  27.666   7.821  11.971
15891W        W88316  15.136   9.660  13.021
15892W        W88317  41.817  30.941   4.227
15893W        W88318   2.410  24.716  14.847
15894W        W88319   2.318  35.494   2.843
15895W        W88320  26.591  34.013   0.357
15896W        W88321  20.100  33.045   4.310
15897W        W88322  10.760  25.012  11.080
15898W        W88323  29.608  26.695  14.497
15899W        W88324  11.335  30.126  12.087
15900W        W88325  17.139  35.554  12.861
15901W        W88326  41.013  18.667   1.289
15902W        W88327  39.888  37.518   4.322
15903W        W88328  37.027   3.893   0.729
15904W        W88329  19.645  32.397  10.479
15905W        W88330  41.374  13.639   2.781
15906W        W88331  21.233  38.456  13.926
15907W        W88332  26.124  33.599  13.057
15908W        W88333  11.350  40.545  12.064
15909W        W88334   4.808  24.073  12.456
15910W        W88335  24.199  27.110   2.828
15911W        W88336   8.184  26.204  14.397
15912W        W88337  38.382  36.053  11.874
15913W        W88338   2.926  20.740   1.912
15914W        W88339  24.542  34.556  11.521
15915W        W88340   1.842  30.643   1.255
15916W        W88341  25.027  27.581   3.383
15917W        W88342  44.876  22.570  12.539
15918W        W88343  34.112  37.972   2.215
15919W        W88344   6.849  10.139   3.721
15920W        W88345  43.931  43.415   3.844
15921W        W88346  22.068  11.160   4.692
15922W        W88347  11.291  29.926  14.388
15923W        W88348  14.714  27.122  11.463
15924W        W88349  14.626  19.273   2.376
15925W        W88350  19.050  38.366   1.907
15926W        W88351  11.251  35.940  13.864
15927W        W88352  40.052   9.885  14.953
15928W        W88353  39.024  13.272   3.792
15929W        W88354  43.923  34.043   4.305
15930W        W88355   4.860   8.864   1.316
15931W        W88356  44.435  10.675   3.836
15932W        W88357   6.721  42.430   0.850
15933W        W88358  35.094  35.093   5.108
15934W        W88359  41.792  41.840   4.144
15935W        W88360   7.885  18.121   0.886
15936W        W88361  30.016  25.528   3.212
15937W        W88362  12.140  23.082  11.860
15938W        W88363  40.798   3.352   4.197
15939W        W88364   2.273  34.968  14.028
15940W        W88365   6.409  13.720  11.399
15941W        W88366  23.599  26.465  12.827
15942W        W88367  40.945   5.246  13.910
15943W        W88368  12.705   0.754   3.201
15944W        W88369   8.346   8.731  12.864
15945W        W88370  37.858  32.551   4.628
15946W        W88371  10.310  37.429  10.913
15947W        W88372  24.979  21.115  12.845
15948W        W88373  25.605  34.952   4.656
15949W        W88374  35.551  32.929   1.414
15950W        W88375  14.206  19.165   4.175
15951W        W88376  11.627  13.771  13.466
15952W        W88377   7.687  32.524   1.275
15953W        W88378  43.875   7.760  11.964
15954W        W88379  20.749  19.777  12.529
15955W        W88380  24.716  14.659   2.267
15956W        W88381  26.638  10.239   3.865
15957W        W88382  42.525  15.282   4.617
15958W        W88383  18.274  38.007  13.809
15959W        W88384  32.997  16.589   2.747
15960W        W88385  20.558  29.616  11.558
15961W        W88386  16.620  40.916   2.185
15962W        W88387  27.669  28.115   0.801
15963W        W88388  39.468   4.715  13.024
15964W        W88389  17.608  10.243   0.934
15965W        W88390   5.846  40.477  10.459
15966W        W88391  33.047  42.287   1.734
15967W        W88392  10.358   1.452  11.009
15968W        W88393  19.217  21.160  13.851
15969W        W88394  34.964  29.555  13.967
15970W        W88395  13.348  30.073   4.232
15971W        W88396  35.953   7.377   3.726
15972W        W88397  27.479  13.244  12.909
15973W        W88398  27.493  30.949  11.123
15974W        W88399  27.481  21.586   1.414
15975W        W88400   9.237  32.419   1.255
15976W        W88401  41.318  12.165   1.695
15977W        W88402  14.104   7.178   4.644
15978W        W88403  25.639  31.135   1.278
15979W        W88404  30.599  30.644  12.577
15980W        W88405  27.166  30.087   4.768
15981W        W88406   9.677  33.095   4.762
15982W        W88407  16.615  32.885   2.692
15983W        W88408   5.208   9.172   0.252
15984W        W88409   8.855  36.378   1.294
15985W        W88410   6.765  24.128  14.821
15986W        W88411   2.887  36.097  10.623
15987W        W88412  44.998  28.064  12.366
15988W        W88413   3.908  23.230  11.963
15989W        W88414  21.145  15.638  12.951
15990W        W88415   9.277  44.864  14.394
15991W        W88416  20.633   1.822  12.080
15992W        W88417  37.429  36.951  11.121
15993W        W88418  21.108  32.452  11.522
15994W        W88419  31.406  23.664  10.535
15995W        W88420  32.454  20.232  10.638
15996W        W88421   7.388  21.580  10.583
15997W        W88422  30.596  30.058  13.318
15998W        W88423  20.727  11.716   0.942
15999W        W88424   1.382  18.052   4.771
16000W        W88425  38.977   0.460   1.710
16001W        W88426  27.122   8.734  14.296
16002W        W88427  14.139   1.748  11.053
16003W        W88428  26.657   0.948  13.423
16004W        W88429   1.459   5.905   1.304
16005W        W88430   9.162  35.544  12.063
16006W        W88431  44.427  22.250  11.879
16007W        W88432  19.535  10.323   0.266
16008W        W88433  36.088  41.533   2.368
16009W        W88434  22.551   0.394  12.412
16010W        W88435  33.526  27.462  10.945
16011W        W88436  40.003  37.073   1.916
16012W        W88437  29.168  38.462  12.092
16013W        W88438   9.387  16.626   2.274
16014W        W88439   7.302  43.957  13.404
16015W        W88440  35.885  15.755   4.302
16016W        W88441   2.737  42.969  11.429
16017W        W88442   6.837  23.657   2.283
16018W        W88443   6.764  37.449   0.351
16019W        W88444  44.824  37.852   1.899
16020W        W88445  36.356  13.189   1.251
16021W        W88446  23.661  16.597  10.985
16022W        W88447  18.697  21.577  11.060
16023W        W88448  41.392  21.232  14.758
16024W        W88449  37.520  40.869  11.549
16025W        W88450  25.663   5.768   3.227
16026W        W88451  18.720  41.311  14.768
16027W        W88452  31.964  37.069   2.884
16028W        W88453   8.695  26.653  10.466
16029W        W88454  28.177  11.191   4.289
16030W        W88455  39.042  25.663  12.067
16031W        W88456  35.377  16.153  14.962
16032W        W88457  12.314  30.995  14.439
16033W        W88458   9.758  28.628   1.234
16034W        W88459  36.872  12.696  11.083
16035W        W88460  37.436  16.216   2.766
16036W        W88461  16.169   3.290  11.413
16037W        W88462  34.613  41.373   0.873
16038W        W88463  44.801  23.229  10.946
16039W        W88464   2.749  40.894   4.620
16040W        W88465  26.005  40.800  13.523
16041W        W88466  31.136   6.309  12.390
16042W        W88467  43.413  34.584  14.437
16043W        W88468  24.653   2.321  14.353
16044W        W88469  39.914  44.356   5.771
16045W        W88470  17.613   0.957   4.813
16046W        W88471  37.974  17.730  12.050
16047W        W88472  27.546  44.997  14.361
16048W        W88473   0.791  36.479   2.857
16049W        W88474  42.898  29.171   0.448
16050W        W88475  14.296  43.021   1.255
16051W        W88476  12.838  18.248   1.262
16052W        W88477  31.443  25.143  14.943
16053W        W88478  14.109  42.341  11.957
16054W        W88479   9.281  24.627   1.816
16055W        W88480  32.429  36.032   2.214
16056W        W88481   0.393  10.710   3.322
16057W        W88482  10.846  38.404  14.331
16058W        W88483  14.251  33.890  10.573
16059W        W88484  40.801  28.662  14.989
16060W        W88485   9.203  12.842   0.421
16061W        W88486  39.969  42.970   0.262
16062W        W88487  15.807  34.411   1.728
16063W        W88488  24.998  26.047   1.302
16064W        W88489   5.433   3.938  14.345
16065W        W88490  20.641  12.306   1.780
16066W        W88491  13.831  25.167  11.016
16067W        W88492  41.984   9.815  12.853
16068W        W88493  42.931   5.745  12.345
16069W        W88494  31.609  38.458  12.483
16070W        W88495   6.720  37.555  13.981
16071W        W88496  40.861  43.828  11.123
16072W        W88497  31.925  18.693   2.419
16073W        W88498  31.575  44.326  10.624
16074W        W88499  24.078  36.536  10.406
16075W        W88500  29.650  25.038   4.700
16076W        W88501  33.114  10.634   3.167
16077W        W88502  21.235  44.788   1.335
16078W        W88503  39.813  24.524  13.335
16079W        W88504  35.017  13.135   2.802
16080W        W88505   5.196  21.721  12.997
16081W        W88506   5.868  20.157   0.286
16082W        W88507  24.527  43.283  11.392
16083W        W88508   7.909  15.250   0.354
16084W        W88509  23.175  41.446   1.247
16085W        W88510   0.746  14.732   3.794
16086W        W88511  16.705  21.107   1.774
16087W        W88512  43.815  30.086  13.502
16088W        W88513   5.235  18.711   3.168
16089W        W88514   0.463  36.987  14.290
16090W        W88515  22.062   1.772  14.936
16091W        W88516  19.586  40.841   2.831
16092W        W88517   2.721  12.699   4.296
16093W        W88518  16.257  33.405  10.113
16094W        W88519  22.175  24.183   3.831
16095W        W88520  29.585  17.745  10.429
16096W        W88521  34.931  12.641   4.820
16097W        W88522  26.459  41.947   2.197
16098W        W88523   8.662   2.768   3.814
16099W        W88524  35.385  26.077  12.045
16100W        W88525   4.941  16.733  14.327
16101W        W88526   5.732  11.305   0.862
16102W        W88527   4.297  13.733   4.639
16103W        W88528  37.555  10.703  14.970
16104W        W88529  26.472  43.876   4.816
16105W        W88530   6.229  22.513   2.742
16106W        W88531   9.831  29.449  14.836
16107W        W88532  32.054  27.489   1.222
16108W        W88533  28.533  14.707   3.368
16109W        W88534   6.899  20.234  14.282
16110W        W88535  12.683   2.729   0.783
16111W        W88536  35.970  11.180  11.893
16112W        W88537  35.988   1.841   0.353
16113W        W88538   6.210   1.261  12.862
16114W        W88539   8.289  31.460   1.694
16115W        W88540   0.897   3.792  11.884
16116W        W88541  25.564  11.356  14.025
16117W        W88542  19.626   5.728  12.026
16118W        W88543  28.997  23.532   0.728
16119W        W88544  33.507  39.466   1.738
16120W        W88545  29.586  17.306  13.412
16121W        W88546  11.829  32.523   4.653
16122W        W88547   1.863  28.606   1.408
16123W        W88548   3.729  39.462  14.449
16124W        W88549  35.888  43.391   1.836
16125W        W88550   3.333  41.414   1.221
16126W        W88551  13.271  34.589   3.337
16127W        W88552  35.441  21.240  10.561
16128W        W88553  25.127  10.352   0.430
16129W        W88554   0.421   9.837  14.764
16130W        W88555  41.791   7.335  12.847
16131W        W88556  43.299  22.529  12.522
16132W        W88557  43.406  40.945  12.536
16133W        W88558   0.981  44.444  13.898
16134W        W88559  35.929   4.388   3.850
16135W        W88560  37.469   3.794  10.589
16136W        W88561  13.266  18.266   3.261
16137W        W88562  44.968   1.310  13.461
16138W        W88563  31.907   2.414  14.290
16139W        W88564  23.156  24.123   3.697
16140W        W88565  15.591  12.137  14.373
16141W        W88566   4.380  21.251  14.292
16142W        W88567  15.737  27.657   2.239
16143W        W88568  44.940  39.823  10.407
16144W        W88569  20.675  41.293  10.591
16145W        W88570  31.568  34.588  14.463
16146W        W88571  35.455  21.106  12.415
16147W        W88572  37.383  18.130   1.249
16148W        W88573   5.787  33.395  13.795
16149W        W88574  36.415  17.581   2.280
16150W        W88575  42.950  32.549  13.887
16151W        W88576  12.622  44.959  13.399
16152W        W88577  21.688  27.660  11.916
16153W        W88578  23.492  20.163   0.914
16154W        W88579  36.492  21.220   2.675
16155W        W88580  33.517  26.509  10.582
16156W        W88581  41.835  14.606   2.329
16157W        W88582  27.581  32.537  12.960
16158W        W88583  36.454  36.878   1.255
16159W        W88584  25.001   8.857   4.149
16160W        W88585  32.955  43.340   2.667
16161W        W88586  18.141  30.045  12.563
16162W        W88587  33.425  29.500  11.564
16163W        W88588   6.372  35.541   4.150
16164W        W88589   4.809  20.634  12.073
16165W        W88590  32.410  18.626  12.369
16166W        W88591  11.728  38.938  11.875
16167W        W88592  29.430  33.038  11.516
16168W        W88593  32.532   9.804   0.797
16169W        W88594   4.366  34.371  11.969
16170W        W88595  43.841   6.787  14.828
16171W        W88596  31.538  33.511   3.752
16172W        W88597  33.028  18.547   4.613
16173W        W88598  36.924   0.259   0.943
16174W        W88599   3.866   0.341   2.331
16175W        W88600  11.285  21.530  13.000
16176W        W88601  29.105  13.701   1.265
16177W        W88602  40.797   6.759   3.837
16178W        W88603   8.388   7.867  10.447
16179W        W88604  30.598  32.132   2.263
16180W        W88605  27.660   3.884   2.371
16181W        W88606  32.036   8.281   1.722
16182W        W88607  31.604  11.764  14.809
16183W        W88608   5.240  20.565   3.200
16184W        W88609  34.406  28.586   0.754
16185W        W88610   9.380  31.953  13.422
16186W        W88611  32.396  36.529   0.862
16187W        W88612  28.494  35.592   3.203
16188W        W88613  18.726  18.286   0.795
16189W        W88614  33.472  19.694   1.837
16190W        W88615   1.349   1.463  11.064
16191W        W88616  21.537  28.101   3.379
16192W        W88617  22.126  19.218   1.309
16193W        W88618  30.589   5.352   0.351
16194W        W88619  34.086  23.074  13.307
16195W        W88620   5.755  20.581   1.723
16196W        W88621  10.662  41.524   1.769
16197W        W88622  40.409  40.018  12.965
16198W        W88623  25.144  11.748   0.908
16199W        W88624  31.480   0.926   2.326
16200W        W88625  12.823   1.355   2.258
16201W        W88626  24.711   7.759  10.531
16202W        W88627  22.035   0.908  10.982
16203W        W88628   2.851  33.072  14.991
16204W        W88629  30.486  17.714   2.382
16205W        W88630  34.965  18.075  13.400
16206W        W88631  29.618  14.145   2.874
16207W        W88632   5.302  18.752   1.387
16208W        W88633  31.467  42.366   4.743
16209W        W88634  42.011  38.335   4.712
16210W        W88635  39.385  31.518   2.323
16211W        W88636  41.315   3.885  10.978
16212W        W88637  16.801  24.527  14.982
16213W        W88638  11.311  26.106  14.927
16214W        W88639  27.677  43.490   0.428
16215W        W88640  40.403  23.610   4.320
16216W        W88641  33.031  43.937  13.935
16217W        W88642  21.516   1.793  11.402
16218W        W88643   7.901   1.804  12.406
16219W        W88644   9.747  13.643  12.027
16220W        W88645   1.830   0.380   3.149
16221W        W88646  41.893  31.100  11.063
16222W        W88647  14.134  19.554  12.089
16223W        W88648  20.053  43.899  13.312
16224W        W88649  18.652  26.988   0.843
16225W        W88650  38.056  44.004  11.896
16226W        W88651  43.781  41.472   2.765
16227W        W88652  28.461   2.410  13.433
16228W        W88653  21.601   3.733  11.121
16229W        W88654   4.261  20.242  11.896
16230W        W88655   7.835  10.292  13.370
16231W        W88656  13.281  19.087  12.982
16232W        W88657  38.885   8.258  11.087
16233W        W88658  34.091  32.119  11.551
16234W        W88659  18.568  30.097   4.630
16235W        W88660   7.888  39.435  12.367
16236W        W88661  15.169   4.712   1.935
16237W        W88662  27.104  34.923  10.154
16238W        W88663  33.951  25.068  10.471
16239W        W88664  22.539  27.595   1.762
16240W        W88665  32.942  37.043   2.342
16241W        W88666  16.736  26.055   3.759
16242W        W88667  32.463  20.117   3.250
16243W        W88668  12.791  31.052   4.627
16244W        W88669  35.532  37.549  13.849
16245W        W88670   2.279  30.060  10.542
16246W        W88671  42.807  13.287  10.951
16247W        W88672  14.200  18.666   4.266
16248W        W88673  43.985  27.610   0.937
16249W        W88674  38.567  32.102  11.583
16250W        W88675  25.029  29.100  11.114
16251W        W88676  42.306  24.724  11.463
16252W        W88677  33.596  15.120   1.866
16253W        W88678   6.860  43.514  11.589
16254W        W88679   5.888   2.923   4.612
16255W        W88680  40.515  19.645   5.087
16256W        W88681  31.911  16.270   0.482
16257W        W88682  43.811  34.865  10.538
16258W        W88683  32.510   8.186  13.435
16259W        W88684  11.194  28.495   1.751
16260W        W88685  44.933  38.830  11.548
16261W        W88686  44.352  42.931  10.923
16262W        W88687  44.986   2.884   4.788
16263W        W88688   3.812  40.451  14.882
16264W        W88689  37.048   4.367  13.452
16265W        W88690   9.804  41.017  10.543
16266W        W88691   9.689   2.234   3.737
16267W        W88692  35.567  43.336   1.705
16268W        W88693  39.987  25.124   4.824
16269W        W88694   9.340  15.711  12.848
16270W        W88695  25.634  36.045   2.756
16271W        W88696  29.068  29.153  11.027
16272W        W88697  11.203  28.119  13.820
16273W        W88698  22.146   0.396   1.275
16274W        W88699   3.849  39.843  10.917
16275W        W88700  36.367   1.399   1.385
16276W        W88701  33.578  16.698  13.510
16277W        W88702  28.526  20.765  10.567
16278W        W88703  35.422  31.581   4.148
16279W        W88704   8.401   9.852   1.230
16280W        W88705  44.364   1.302   0.243
16281W        W88706   4.943   8.718   3.179
16282W        W88707  15.794  11.221  13.499
16283W        W88708   2.288  42.372   3.150
16284W        W88709  28.024  10.649   0.351
16285W        W88710  42.788  13.203  12.954
16286W        W88711  20.594  12.317   0.441
16287W        W88712  11.744   2.721  14.413
16288W        W88713  19.762   6.190   2.770
16289W        W88714  14.098  25.165   0.883
16290W        W88715  42.368   7.353   0.435
16291W        W88716  32.511  40.881   2.816
16292W        W88717  44.898  22.050  14.908
16293W        W88718  26.630  23.102  14.377
16294W        W88719  35.981  12.235   3.863
16295W        W88720   2.791  39.977   4.742
16296W        W88721  20.079  44.378  13.379
16297W        W88722  43.823  17.085   0.410
16298W        W88723  20.135  32.024   1.925
16299W        W88724   3.877   7.386  10.896
16300W        W88725  23.237   8.324   1.843
16301W        W88726  14.219   4.431  13.421
16302W        W88727  19.601  23.555  14.513
16303W        W88728  10.837  18.689  12.874
16304W        W88729  31.565   0.834  12.483
16305W        W88730  43.352  33.008   1.372
16306W        W88731  31.996  29.163  14.430
16307W        W88732  40.933  44.799   0.795
16308W        W88733  24.520  13.349  13.048
16309W        W88734   1.753  32.061  13.016
16310W        W88735  33.527   7.297   1.440
16311W        W88736  44.760   5.835  14.868
16312W        W88737  21.526  43.812  12.079
16313W        W88738  32.036  28.568   3.360
16314W        W88739  30.487  20.597   4.259
16315W        W88740  44.338  15.105  12.855
16316W        W88741  31.946  39.010   4.765
16317W        W88742  17.712  29.029  11.412
16318W        W88743  14.647  33.969   2.348
16319W        W88744  42.005  15.762   0.944
16320W        W88745  41.301   7.752   3.659
16321W        W88746   3.877  14.773  10.533
16322W        W88747  29.008  27.009   0.461
16323W        W88748  26.627  15.292   0.953
16324W        W88749  40.839  40.533   3.285
16325W        W88750  26.004  17.674   1.401
16326W        W88751  21.692  24.186  11.914
16327W        W88752  26.635  37.961   1.738
16328W        W88753  22.571   5.413   4.796
16329W        W88754   5.929  21.660   4.136
16330W        W88755   3.768   5.366  13.014
16331W        W88756  19.187  10.379   3.295
16332W        W88757   1.339  41.466  14.996
16333W        W88758   5.811   9.233  12.567
16334W        W88759  36.483  33.890   4.144
16335W        W88760  23.697   9.813  14.761
16336W        W88761  11.706  39.417  11.096
16337W        W88762  24.132  14.239   0.349
16338W        W88763  33.521  30.528  10.508
16339W        W88764  41.917  37.866   3.791
16340W        W88765   2.373  35.421   0.406
16341W        W88766  21.127   1.476  12.034
16342W        W88767  21.207   4.863  10.632
16343W        W88768  28.122   9.262  11.863
16344W        W88769  20.031  21.555  12.862
16345W        W88770  22.703   3.871   4.118
16346W        W88771  11.259  11.667   2.873
16347W        W88772  36.959  31.555  12.453
16348W        W88773  41.851  43.298  12.890
16349W        W88774  39.352  43.770   2.782
16350W        W88775  40.966  34.532   0.744
16351W        W88776  28.534  44.758  12.957
16352W        W88777  38.869  39.372   5.232
16353W        W88778  14.830  37.897  12.480
16354W        W88779  29.550  16.191  14.867
16355W        W88780   9.188  44.777   4.752
16356W        W88781  23.105  11.281   1.907
16357W        W88782  31.118  40.330   0.464
16358W        W88783  13.681  23.131   1.265
16359W        W88784  21.048  37.484   9.964
16360W        W88785  26.512  39.841  13.041
16361W        W88786   8.700  41.510   3.788
16362W        W88787  44.378   3.243  10.503
16363W        W88788  42.775  10.700   3.802
16364W        W88789   1.798  28.530  10.546
16365W        W88790  33.521  39.505  13.968
16366W        W88791  13.674   7.240   2.235
16367W        W88792  29.496  35.094   3.265
16368W        W88793  40.433   3.716  12.429
16369W        W88794  11.295  39.375   2.373
16370W        W88795   8.670  16.278  10.889
16371W        W88796  21.253  34.464  10.618
16372W        W88797   8.351  28.009  11.484
16373W        W88798  31.432   7.375  10.432
16374W        W88799   1.789   3.340   3.330
16375W        W88800  31.426  33.543   2.307
16376W        W88801  17.719  43.007   3.293
16377W        W88802  28.038  22.530   4.670
16378W        W88803  32.063  18.757  11.421
16379W        W88804  25.602   1.369   0.248
16380W        W88805   0.481  28.527   1.740
16381W        W88806  34.368  13.152  12.963
16382W        W88807   1.278  34.538  13.519
16383W        W88808  20.221   8.190   1.226
16384W        W88809  23.600  13.610  12.823
16385W        W88810  29.091  44.008   0.330
16386W        W88811   7.268   3.270  13.914
16387W        W88812  30.490  36.987  13.312
16388W        W88813  15.807  36.000  13.511
16389W        W88814  35.595   1.910   4.700
16390W        W88815  32.612  30.142  12.446
16391W        W88816  41.941  14.757   4.716
16392W        W88817  18.114  23.052   4.275
16393W        W88818  24.536  34.407   4.768
16394W        W88819  19.194  35.566  12.826
16395W        W88820   7.372   1.407   4.802
16396W        W88821  34.993  19.283   3.786
16397W        W88822  30.164   2.808  13.936
16398W        W88823  15.329  16.315  13.848
16399W        W88824  27.062   2.729   0.452
16400W        W88825  34.877  37.990  12.339
16401W        W88826  27.446  12.669  12.493
16402W        W88827  15.756  19.542  11.610
16403W        W88828  43.278  41.304   4.747
16404W        W88829   7.797  39.501   2.758
16405W        W88830  38.378   0.455  13.433
16406W        W88831  15.213  30.566   3.310
16407W        W88832  24.041   5.207   0.869
16408W        W88833  17.668   2.803  12.525
16409W        W88834   1.312   2.345  11.000
16410W        W88835  27.680  34.914  11.953
16411W        W88836  40.349  31.012  13.433
16412W        W88837   6.693  16.640  10.891
16413W        W88838  34.099  22.142   3.349
16414W        W88839  35.463  29.614  14.794
16415W        W88840  42.499  29.502   2.247
16416W        W88841  36.447  42.313   4.597
16417W        W88842  37.495  31.026   1.234
16418W        W88843  25.640  19.124   4.289
16419W        W88844   2.746  34.043  12.422
16420W        W88845  11.231  17.169  12.859
16421W        W88846   4.839   8.732   2.713
16422W        W88847  18.697  12.697  13.012
16423W        W88848  42.836  42.329   3.783
16424W        W88849  39.902  18.654  14.351
16425W        W88850  37.029   5.340  12.915
16426W        W88851  26.143  28.569  10.497
16427W        W88852  28.120  12.675  13.044
16428W        W88853  13.272  39.337   2.181
16429W        W88854  24.006   0.345   1.833
16430W        W88855  13.221  24.015  13.510
16431W        W88856  40.358  42.496  14.381
16432W        W88857  20.101   6.346   0.933
16433W        W88858  23.514   7.813   4.190
16434W        W88859  12.139  33.950   4.744
16435W        W88860  15.248  35.979   1.784
16436W        W88861   4.732  41.033   4.659
16437W        W88862  27.517  12.664   1.228
16438W        W88863  17.122  33.453  11.577
16439W        W88864  19.703  42.330  11.986
16440W        W88865  23.614  10.374   0.366
16441W        W88866   8.802   3.262   1.410
16442W        W88867  23.218   7.392  12.984
16443W        W88868  39.381   7.352   2.891
16444W        W88869   4.303  13.279  11.058
16445W        W88870  31.622  43.937   0.379
16446W        W88871  14.739  15.647  12.380
16447W        W88872   1.318  11.249  13.531
16448W        W88873  44.465   6.349   3.819
16449W        W88874   1.933  17.689  12.938
16450W        W88875  41.831   7.397  10.588
16451W        W88876  28.454  39.957  12.927
16452W        W88877   3.724  34.984   2.830
16453W        W88878  25.499  25.021   5.107
16454W        W88879  22.561  39.046   3.279
16455W        W88880   5.278  20.215   2.856
16456W        W88881  25.979  37.466  14.419
16457W        W88882   6.224  29.494  10.424
16458W        W88883   0.829  41.465  10.537
16459W        W88884  30.609  35.382  11.002
16460W        W88885  35.548  32.569  10.487
16461W        W88886   5.258   8.161   3.311
16462W        W88887  42.841  30.158  14.851
16463W        W88888  44.282  36.081   0.760
16464W        W88889  32.489  29.051   1.214
16465W        W88890   8.830  39.053   0.261
16466W        W88891  13.615   5.734  14.960
16467W        W88892  34.588   4.388   3.356
16468W        W88893  33.970   6.273  10.582
16469W        W88894  25.574  31.587  11.447
16470W        W88895  33.401  31.045  12.971
16471W        W88896   0.932  20.271   0.425
16472W        W88897  30.102   4.728  10.528
16473W        W88898   6.805  21.620  12.374
16474W        W88899   2.408  25.135   0.483
16475W        W88900  30.605  39.399   1.245
16476W        W88901  35.456  31.442   1.868
16477W        W88902  41.977  14.151  12.341
16478W        W88903  13.803  24.190  10.020
16479W        W88904  14.099  42.931   4.777
16480W        W88905  44.402  42.982  12.445
16481W        W88906   4.817   3.884  11.402
16482W        W88907   7.713  23.630   0.255
16483W        W88908  13.667  24.480   0.820
16484W        W88909  39.392   9.871   0.952
16485W        W88910  32.445  28.654   4.738
16486W        W88911  28.503  31.442  11.450
16487W        W88912  40.486  11.279  14.331
16488W        W88913  39.037  40.343   4.833
16489W        W88914  10.365   6.739  10.903
16490W        W88915   0.980   9.663  13.504
16491W        W88916   6.248  36.911  13.861
16492W        W88917  10.273  16.147   5.286
16493W        W88918  20.089  41.018  14.371
16494W        W88919  14.225  15.760  14.762
16495W        W88920   8.810  25.515   3.148
16496W        W88921   5.918  29.097  10.409
16497W        W88922  19.274   1.444   5.691
16498W        W88923  41.383  35.538   0.278
16499W        W88924  23.599  16.074   3.340
16500W        W88925  15.305  42.363   0.768
16501W        W88926  35.993  18.154  13.026
16502W        W88927  25.078   0.342  11.596
16503W        W88928   0.915  36.974   2.414
16504W        W88929   2.244  37.565  14.763
16505W        W88930  30.164  37.418  13.820
16506W        W88931  21.155  42.950  11.098
16507W        W88932  33.456  36.879   1.247
16508W        W88933  15.194  42.482  14.796
16509W        W88934  25.470   7.844   0.264
16510W        W88935  31.610  10.746  13.313
16511W        W88936  20.240   9.275   4.836
16512W        W88937  28.955  18.127   1.237
16513W        W88938   7.843  35.108   1.288
16514W        W88939  44.499  26.560  10.558
16515W        W88940   8.283  30.942  11.076
16516W        W88941  21.044  41.365   2.356
16517W        W88942  22.705  37.946   3.761
16518W        W88943   1.926  32.889  10.417
16519W        W88944   6.708  26.137   1.283
16520W        W88945   3.867  25.054  14.926
16521W        W88946   8.165  35.009  10.502
16522W        W88947  20.065  18.270   5.125
16523W        W88948  20.660  36.881  13.979
16524W        W88949   2.797  20.718   1.259
16525W        W88950  28.499  27.473  14.416
16526W        W88951  29.923  28.135   0.368
16527W        W88952  30.498  15.638   4.696
16528W        W88953  41.381  14.218  13.991
16529W        W88954  23.216  15.618  12.533
16530W        W88955   0.423  32.946   1.399
16531W        W88956  30.055  10.744   1.430
16532W        W88957   2.440  29.126   1.912
16533W        W88958  20.095  25.656  13.007
16534W        W88959  16.310  19.710  12.460
16535W        W88960  32.516  15.126   2.705
16536W        W88961   5.400   4.322  10.466
16537W        W88962   9.337  36.048   0.472
16538W        W88963   2.451  29.158  13.341
16539W        W88964  36.863  31.504  14.826
16540W        W88965  14.833  42.430   4.317
16541W        W88966  17.621  39.409  11.561
16542W        W88967   2.755  18.124   4.696
16543W        W88968  13.824   1.332  14.285
16544W        W88969  12.290  11.745  12.469
16545W        W88970   0.871  30.101   3.350
16546W        W88971  41.881  40.446  13.395
16547W        W88972   9.668  17.577   3.367
16548W        W88973  37.485   9.171   0.350
16549W        W88974   1.433  14.190   3.833
16550W        W88975  35.379  25.593  10.900
16551W        W88976  28.542   1.249   4.166
16552W        W88977  41.836  21.730   4.180
16553W        W88978  22.599   3.847   1.285
16554W        W88979  18.199  24.500  10.927
16555W        W88980  25.125  15.715  11.073
16556W        W88981  17.227  32.123  12.917
16557W        W88982   6.324  12.151   2.828
16558W        W88983  10.271  24.556   5.298
16559W        W88984  41.890  36.422   1.929
16560W        W88985   8.712   3.221   1.833
16561W        W88986  12.187  30.459  10.623
16562W        W88987   8.318  24.616  10.426
16563W        W88988  27.023  31.954  13.979
16564W        W88989   3.424   1.358   1.714
16565W        W88990  29.078  14.302   2.409
16566W        W88991  33.933  30.024   3.186
16567W        W88992  27.599   6.207  11.472
16568W        W88993  21.664  15.623   2.785
16569W        W88994  32.125  15.311  14.375
16570W        W88995  22.193  30.044   0.296
16571W        W88996  17.565  19.039  13.903
16572W        W88997  40.545  16.212  11.023
16573W        W88998   6.789   6.913  12.902
16574W        W88999  29.973  24.204  11.023
16575W        W89000  15.653  28.646   4.334
16576W        W89001  21.076  11.332  13.998
16577W        W89002  20.757   7.288  14.471
16578W        W89003  32.497  18.668  12.964
16579W        W89004  31.092  43.952  12.973
16580W        W89005   2.373  13.188   2.378
16581W        W89006  18.727  26.503   2.259
16582W        W89007  38.498  19.576   0.381
16583W        W89008  30.050  13.600   1.853
16584W        W89009   1.322  38.010  10.586
16585W        W89010  14.251  38.861   1.417
16586W        W89011   7.911  38.860  11.944
16587W        W89012  31.153   5.318   1.341
16588W        W89013   4.846  43.331   4.793
16589W        W89014   7.677   3.900  13.982
16590W        W89015  31.937  39.816   2.362
16591W        W89016  42.294  31.450  14.463
16592W        W89017  32.125  33.387   0.880
16593W        W89018  10.153  25.093  11.600
16594W        W89019   4.712  43.394   1.322
16595W        W89020  29.520  23.524   0.396
16596W        W89021  19.105   3.322  12.929
16597W        W89022  44.846   8.748   1.825
16598W        W89023  20.184   4.218   4.314
16599W        W89024  37.988  33.113   3.153
16600W        W89025  39.066  17.202  12.936
16601W        W89026  36.468  15.716  12.990
16602W        W89027  28.589  29.593   0.760
16603W        W89028  35.539  38.896  12.425
16604W        W89029  40.389  15.747   0.727
16605W        W89030  33.956  43.887  11.921
16606W        W89031  21.088  13.839  11.944
16607W        W89032  14.116   0.451  12.898
16608W        W89033  21.638  19.087  10.479
16609W        W89034   6.766  13.251  14.353
16610W        W89035  14.608  42.367  10.938
16611W        W89036  39.515  34.980   0.728
16612W        W89037  23.055  28.529   2.872
16613W        W89038  24.496  12.610  11.942
16614W        W89039  34.887  19.613   1.926
16615W        W89040  40.992  20.066  13.431
16616W        W89041  26.647  42.518  14.832
16617W        W89042  14.738  44.449  13.396
16618W        W89043  24.562  20.167  12.554
16619W        W89044  33.406  16.251  11.565
16620W        W89045  22.042  41.962  14.482
16621W        W89046   5.843  44.332   2.314
16622W        W89047   1.316  21.170  13.491
16623W        W89048   7.273  22.509   1.326
16624W        W89049  24.213  23.569   3.667
16625W        W89050  33.557  10.251  11.102
16626W        W89051  25.532  19.770  13.819
16627W        W89052  18.238  43.860  11.059
16628W        W89053  20.548  40.335   0.794
16629W        W89054  25.097   5.208   4.821
16630W        W89055  38.329   6.337   1.233
16631W        W89056  14.781   9.270  13.416
16632W        W89057   6.822  13.115   3.808
16633W        W89058   3.872  36.350   0.964
16634W        W89059  35.892  34.086  14.860
16635W        W89060  15.098  29.033   2.819
16636W        W89061   6.255  25.978   4.656
16637W        W89062  40.923   3.765  11.080
16638W        W89063  36.461  34.963   2.884
16639W        W89064  26.156  41.447  14.447
16640W        W89065  13.338   4.784   3.301
16641W        W89066  13.167  33.610   2.717
16642W        W89067  42.338  14.215  12.485
16643W        W89068  16.586   7.804  13.418
16644W        W89069  19.749  12.681   2.357
16645W        W89070  25.616  31.040  14.943
16646W        W89071  32.629  15.600   2.858
16647W        W89072  13.164  26.132  11.006
16648W        W89073  35.912  41.299   1.718
16649W        W89074  11.247  23.231  11.475
16650W        W89075  14.232   1.453   3.256
16651W        W89076   8.796  11.744   4.183
16652W        W89077  23.548  20.766   0.261
16653W        W89078  41.476   4.743   0.897
16654W        W89079  17.245  22.740   3.387
16655W        W89080  36.479  35.365   1.815
16656W        W89081  13.842   1.340   3.245
16657W        W89082  10.340  36.504   0.958
16658W        W89083  17.640  17.659  14.843
16659W        W89084  25.198  33.071  10.525
16660W        W89085  15.822  41.303   2.716
16661W        W89086  22.061  31.500  12.447
16662W        W89087  22.744  26.582   4.627
16663W        W89088  41.488  44.874  11.505
16664W        W89089   3.460  29.174  14.426
16665W        W89090  23.030  17.139  12.579
16666W        W89091  34.915  25.061   5.265
16667W        W89092  22.565  18.780   3.682
16668W        W89093   7.197  17.580   2.760
16669W        W89094   1.470  29.583   4.718
16670W        W89095  11.149   8.836   2.276
16671W        W89096  42.012   7.718  13.516
16672W        W89097  36.878  11.348  11.506
16673W        W89098  28.645  32.886   5.677
16674W        W89099   2.420  34.952  14.943
16675W        W89100  23.697  26.627   0.741
16676W        W89101  12.213  21.610   0.462
16677W        W89102  43.765  13.136  14.486
16678W        W89103  29.028  24.072  13.861
16679W        W89104  32.539  26.012  14.444
16680W        W89105  12.256  14.198   4.264
16681W        W89106  33.549  14.201  13.316
16682W        W89107  31.408   2.766   0.965
16683W        W89108  18.104  31.550  11.863
16684W        W89109  19.070  16.720   1.732
16685W        W89110  33.418  11.738   2.667
16686W        W89111  32.523  13.837  13.015
16687W        W89112  12.642  41.428   1.298
16688W        W89113  43.444  31.009  11.961
16689W        W89114   4.894   7.329  14.907
16690W        W89115  42.797  34.448  13.385
16691W        W89116  37.463   9.382  12.446
16692W        W89117   0.934  17.116  10.498
16693W        W89118  41.958  41.517  13.884
16694W        W89119  20.596  41.355  12.057
16695W        W89120  18.073   6.225   2.292
16696W        W89121  41.916  27.962  13.536
16697W        W89122   5.922  37.370   1.267
16698W        W89123  13.252  33.481  13.331
16699W        W89124  41.442  24.006  13.320
16700W        W89125  32.447   8.701   1.387
16701W        W89126  11.689   7.362  13.409
16702W        W89127  12.144  17.801   3.863
16703W        W89128   6.277  30.465  12.519
16704W        W89129  21.610  12.244  12.962
16705W        W89130  36.970   7.884   1.764
16706W        W89131  22.160  31.962  12.560
16707W        W89132  38.490   5.827   4.764
16708W        W89133   1.434   0.930   4.147
16709W        W89134  44.312  41.478  14.946
16710W        W89135  21.147   2.405   2.883
16711W        W89136  37.389  11.253   9.921
16712W        W89137  29.585  17.106  10.506
16713W        W89138  17.144   5.715   2.305
16714W        W89139  30.034  26.134  13.417
16715W        W89140  24.226  33.943   1.702
16716W        W89141  17.600   9.823  14.976
16717W        W89142  22.177  39.930   1.242
16718W        W89143  37.971  27.618  14.836
16719W        W89144  21.564  12.788   0.784
16720W        W89145  38.035  16.312  11.065
16721W        W89146  11.245   5.410  14.503
16722W        W89147  11.135  12.721  10.539
16723W        W89148  26.159  38.908  12.084
16724W        W89149  19.538  35.510  11.583
16725W        W89150  15.162  31.566   2.878
16726W        W89151  37.550  16.652   2.413
16727W        W89152  10.693  35.984   4.277
16728W        W89153  23.039  35.492   4.837
16729W        W89154  13.651   4.773   2.349
16730W        W89155  36.026   2.751   4.294
16731W        W89156  27.586   0.856   0.837
16732W        W89157  11.138   5.891   2.218
16733W        W89158  31.051  16.783   2.900
16734W        W89159   2.776   7.171  13.456
16735W        W89160   8.210  10.779   4.339
16736W        W89161  17.590   6.182   1.771
16737W        W89162  22.229  11.250   0.280
16738W        W89163  41.799  28.179   2.406
16739W        W89164  12.138  22.599   3.752
16740W        W89165  27.513   5.897   0.343
16741W        W89166  32.511  40.367   2.679
16742W        W89167   8.890  21.536  14.452
16743W        W89168   6.342   4.225  14.856
16744W        W89169  29.562   8.276   4.663
16745W        W89170  24.649   4.889  10.635
16746W        W89171  37.567  29.068   4.628
16747W        W89172   1.419  17.698  13.469
16748W        W89173  11.820  26.951  12.567
16749W        W89174  16.789  36.967  10.515
16750W        W89175  40.459  18.102  13.436
16751W        W89176  24.482   7.251   3.350
16752W        W89177  38.350  10.243   4.305
16753W        W89178  37.909  43.424   4.732
16754W        W89179   6.859   0.785  13.419
16755W        W89180   3.823   4.708   1.318
16756W        W89181   4.891  33.409  12.386
16757W        W89182   7.668  38.344   5.139
16758W        W89183  35.920  31.646   0.822
16759W        W89184  34.965  26.699  10.534
16760W        W89185  37.398   8.346  13.803
16761W        W89186  34.984  18.782  13.794
16762W        W89187  23.689  34.385  12.867
16763W        W89188   7.305  10.207   0.859
16764W        W89189  41.876  16.788  12.864
16765W        W89190  23.207   6.390   3.803
16766W        W89191  22.996  39.955   4.812
16767W        W89192  13.651  12.641  14.904
16768W        W89193  30.564  15.601   4.164
16769W        W89194  43.346   4.813  14.418
16770W        W89195  37.427  21.614  14.846
16771W        W89196   3.851  26.200  14.925
16772W        W89197   5.845  12.273   1.331
16773W        W89198  23.726  21.219   1.707
16774W        W89199  43.466  21.729   1.233
16775W        W89200  28.462  33.405   2.201
16776W        W89201  26.020   1.378   2.789
16777W        W89202  29.100   0.394  12.973
16778W        W89203  36.591  30.073   4.301
16779W        W89204   7.705  27.622  13.543
16780W        W89205  43.500  36.518   4.663
16781W        W89206  43.413   8.182  13.970
16782W        W89207  29.170   0.874   1.758
16783W        W89208  33.510  43.777  13.484
16784W        W89209   3.420  32.930  13.345
16785W        W89210  43.825  34.441  12.064
16786W        W89211   9.873   3.906   1.927
16787W        W89212  37.912  41.433  14.487
16788W        W89213   2.880  38.450  11.436
16789W        W89214  22.667  16.221   4.125
16790W        W89215  30.586  18.675   3.668
16791W        W89216  25.045  35.051   2.757
16792W        W89217   7.819   2.836  13.945
16793W        W89218  14.175  11.661   4.206
16794W        W89219  17.707  24.482  13.370
16795W        W89220  16.249  38.949   3.755
16796W        W89221  27.006  41.486  11.479
16797W        W89222  43.807   6.730   2.392
16798W        W89223  30.947   9.375   2.264
16799W        W89224  22.727  42.446   4.208
16800W        W89225  28.975  42.335  11.518
16801W        W89226  35.517  13.838   0.849
16802W        W89227  36.380  37.958  11.488
16803W        W89228  40.865  33.558  12.439
16804W        W89229  39.426   6.426  13.935
16805W        W89230   2.392  12.192  12.900
16806W        W89231  20.556  11.732  13.871
16807W        W89232  17.780  35.980  14.006
16808W        W89233  29.559   7.315  10.955
16809W        W89234  10.819  35.063  12.407
16810W        W89235  43.884  13.739  14.450
16811W        W89236  36.033  40.979  10.523
16812W        W89237  36.353  18.576  11.489
16813W        W89238  34.961  11.686  13.051
16814W        W89239  15.735  17.707   0.373
16815W        W89240  17.725  35.964  12.876
16816W        W89241  43.467  43.440   0.463
16817W        W89242  33.105   4.214  13.856
16818W        W89243   3.796  38.957  11.586
16819W        W89244   1.961  28.951  10.932
16820W        W89245   7.832  28.973   0.928
16821W        W89246  28.633   2.851   1.731
16822W        W89247  10.252  21.558   2.185
16823W        W89248  14.737   3.919  13.857
16824W        W89249  37.503  11.863  10.949
16825W        W89250  22.640   9.258   4.669
16826W        W89251  35.092   7.221  11.401
16827W        W89252  28.153  25.620   0.810
16828W        W89253  12.831  14.705   0.797
16829W        W89254  23.998   9.864   2.393
16830W        W89255   5.874  22.538  11.981
16831W        W89256  19.107  26.523   0.273
16832W        W89257  38.354  19.044   3.840
16833W        W89258  43.786  13.616  14.952
16834W        W89259   5.769  42.912   3.343
16835W        W89260  39.992   9.777  11.998
16836W        W89261   0.893  38.365   2.664
16837W        W89262  21.694  35.893   2.216
16838W        W89263  32.073  10.674   2.744
16839W        W89264   3.300  40.819  11.018
16840W        W89265  38.062  36.376  11.599
16841W        W89266  11.628   2.314   3.676
16842W        W89267  20.533  10.293  13.807
16843W        W89268  10.374   7.905   3.174
16844W        W89269  29.506   1.346   4.771
16845W        W89270  30.515  18.071  11.571
16846W        W89271   5.353  12.178  11.078
16847W        W89272   2.873  33.935   3.746
16848W        W89273  31.052  36.046  11.391
16849W        W89274  39.313  44.392  14.762
16850W        W89275  28.562  32.052  12.006
16851W        W89276   0.793  30.655  12.518
16852W        W89277  12.155  26.062  14.856
16853W        W89278  30.145  36.455   2.206
16854W        W89279  40.486   4.445  13.446
16855W        W89280   2.734  10.231   0.835
16856W        W89281   3.299  38.557   1.331
16857W        W89282  21.017  12.217   1.220
16858W        W89283  18.231  39.393  13.345
16859W        W89284   9.837  15.269   3.644
16860W        W89285  40.306  22.643   1.844
16861W        W89286  24.104  28.004  12.572
16862W        W89287  39.474   6.679   3.351
16863W        W89288  36.883  30.990   4.838
16864W        W89289   7.409  17.687   2.379
16865W        W89290  37.066  36.992   1.723
16866W        W89291  24.220   2.457   0.918
16867W        W89292  39.471   6.362  11.949
16868W        W89293  35.596  28.511  12.954
16869W        W89294  35.449  42.403  14.446
16870W        W89295  18.614  40.035  14.373
16871W        W89296  22.102  34.893   2.227
16872W        W89297   3.317  40.484   3.348
16873W        W89298  16.663  39.844   4.650
16874W        W89299   8.657  42.841   1.363
16875W        W89300   6.286  14.737  14.476
16876W        W89301  17.740  20.263  12.925
16877W        W89302  25.586  27.006   3.280
16878W        W89303  38.517  24.224   4.734
16879W        W89304  26.073  24.988  11.405
16880W        W89305  29.593  40.356  11.036
16881W        W89306   4.739  19.077   3.173
16882W        W89307   2.359  39.990   4.300
16883W        W89308  44.951  30.655  11.607
16884W        W89309   0.812  19.258   2.788
16885W        W89310  14.279  13.771  12.444
16886W        W89311  36.053  26.186   1.311
16887W        W89312  27.161  20.052   4.117
16888W        W89313  36.973  32.399   0.828
16889W        W89314   9.175  15.205  13.043
16890W        W89315   3.809   1.469  14.767
16891W        W89316  10.874  19.142  11.857
16892W        W89317  41.904  40.891  10.462
16893W        W89318  43.307  12.673   1.782
16894W        W89319   3.910  17.652   2.693
16895W        W89320   6.857  35.014   1.695
16896W        W89321  36.969  14.799  14.432
16897W        W89322  20.586  18.265   4.160
16898W        W89323  39.966  34.026   3.687
16899W        W89324  21.665  29.467  10.587
16900W        W89325  12.274   4.432   1.769
16901W        W89326   6.831  16.312  11.613
16902W        W89327  43.961  40.849  14.471
16903W        W89328  38.007  36.567  14.796
16904W        W89329   5.897  22.115  14.396
16905W        W89330   3.384   1.950  12.453
16906W        W89331  33.914  14.293  13.047
16907W        W89332  43.869   9.266  14.759
16908W        W89333  30.019  43.352   3.259
16909W        W89334   2.294  10.865  10.596
16910W        W89335   8.247  11.778  14.939
16911W        W89336   3.756  25.502  14.842
16912W        W89337   4.338  38.538   2.744
16913W        W89338  36.566  24.221   0.244
16914W        W89339  31.053  16.297  14.358
16915W        W89340  30.495  15.778   1.350
16916W        W89341  44.991   0.309  11.467
16917W        W89342   8.406   3.799  12.517
16918W        W89343  38.049  39.434  12.377
16919W        W89344  14.644  29.041   0.831
16920W        W89345   3.892   3.230  12.041
16921W        W89346   6.922   1.412  13.364
16922W        W89347  36.490  40.893  14.026
16923W        W89348  36.026  36.463   3.742
16924W        W89349  32.575  22.701  14.455
16925W        W89350  13.326  20.555  12.913
16926W        W89351  25.037   5.248  13.030
16927W        W89352  41.320  24.717  12.021
16928W        W89353  13.223  34.059  13.062
16929W        W89354  10.279  33.614   1.926
16930W        W89355  21.608   3.844   2.382
16931W        W89356  44.421   0.434   1.439
16932W        W89357  20.226  17.715   0.824
16933W        W89358   5.931  34.555  11.496
16934W        W89359   1.325   9.393   4.324
16935W        W89360   7.187   4.207  11.538
16936W        W89361  19.162  36.951  10.440
16937W        W89362  16.264  17.242  12.448
16938W        W89363  38.001  27.640  12.457
16939W        W89364  17.565  40.891  12.066
16940W        W89365   7.205   2.911   4.259
16941W        W89366   6.311  41.486  14.006
16942W        W89367  25.105  33.897  11.930
16943W        W89368  42.017  39.872  14.868
16944W        W89369  34.873   9.775   2.771
16945W        W89370  40.390  24.029   5.111
16946W        W89371  40.798  13.135  11.884
16947W        W89372  10.797  11.177   4.815
16948W        W89373  15.295  16.696  13.881
16949W        W89374  20.621   0.463  10.626
16950W        W89375  33.560  36.086   0.388
16951W        W89376  37.063  39.545   3.812
16952W        W89377  12.850  15.196  13.832
16953W        W89378  13.231   8.267  13.907
16954W        W89379  39.397  13.272  10.938
16955W        W89380  15.688  42.970  13.871
16956W        W89381   3.898  22.013  10.974
16957W        W89382  40.039   4.381   2.331
16958W        W89383   9.887  19.186  11.472
16959W        W89384  15.806   9.203  10.997
16960W        W89385  29.042  31.122   2.347
16961W        W89386   9.316  17.730  13.048
16962W        W89387  23.715   8.873   0.883
16963W        W89388  24.523  19.700  14.972
16964W        W89389  34.374  26.666   1.756
16965W        W89390  16.719  21.140   3.337
16966W        W89391  30.534   7.827   5.240
16967W        W89392  19.126  43.492   0.819
16968W        W89393   3.277  36.059   4.810
16969W        W89394  39.920  28.521   4.271
16970W        W89395  17.797   2.335   3.266
16971W        W89396  41.935   0.396   1.722
16972W        W89397  30.024  26.565   4.647
16973W        W89398  10.874  14.671  10.955
16974W        W89399  25.616   4.209   0.267
16975W        W89400  31.041  26.562   3.742
16976W        W89401  25.206   6.203   3.352
16977W        W89402  39.035  15.812  11.490
16978W        W89403  29.509  43.293   0.920
16979W        W89404  43.473   7.723  11.514
16980W        W89405   0.985  25.632   1.717
16981W        W89406   7.800   0.765   1.839
16982W        W89407  24.978  13.652   4.730
16983W        W89408   9.169  31.555  12.514
16984W        W89409  26.522  23.505  12.451
16985W        W89410  21.062   7.334   1.846
16986W        W89411  40.316  24.574   3.856
16987W        W89412  19.279   2.254  13.447
16988W        W89413  17.721  23.665   0.394
16989W        W89414  33.519  25.678  12.520
16990W        W89415  21.644  29.500  13.360
16991W        W89416  40.385  32.630  12.556
16992W        W89417  16.794   9.763  10.525
16993W        W89418  10.290  18.560   1.825
16994W        W89419  37.395   9.858  10.515
16995W        W89420  18.144  42.346  14.483
16996W        W89421   4.430  28.930   1.250
16997W        W89422  39.502  11.257  14.928
16998W        W89423   8.388   1.386   3.284
16999W        W89424  11.355  11.655   0.301
17000W        W89425   7.825  11.854   2.390
17001W        W89426   2.299  18.729  13.884
17002W        W89427  41.310  19.173  12.064
17003W        W89428  33.618   6.182  10.082
17004W        W89429  40.414  26.477  12.940
17005W        W89430  35.039  27.974  14.419
17006W        W89431   5.845   8.311  14.877
17007W        W89432  28.497   1.427   1.711
17008W        W89433   6.421  18.619   4.763
17009W        W89434  18.559  16.284   3.377
17010W        W89435  17.691  13.139  11.588
17011W        W89436  23.525  11.829   0.879
17012W        W89437  38.840  23.524  11.538
17013W        W89438  31.541  32.109  10.077
17014W        W89439  27.997   0.406   3.649
17015W        W89440  32.079  29.930  11.567
17016W        W89441  33.974  34.107   1.228
17017W        W89442  26.611  16.571   0.440
17018W        W89443  11.807  42.344  11.028
17019W        W89444   3.382  39.490  12.457
17020W        W89445  37.969  29.471   0.800
17021W        W89446  44.779  32.548  14.811
17022W        W89447  18.188  37.046  11.042
17023W        W89448  30.055  17.306  10.981
17024W        W89449  24.131   2.290   0.390
17025W        W89450  36.445  29.439   2.294
17026W        W89451  28.944  14.685  14.851
17027W        W89452   2.883  32.990  11.944
17028W        W89453   7.250   2.757  10.893
17029W        W89454  22.654  27.157   1.922
17030W        W89455  42.966   0.747   2.397
17031W        W89456  40.973   7.710   0.412
17032W        W89457  27.683  18.239  12.982
17033W        W89458  15.177   3.796  14.372
17034W        W89459   1.436  42.812  13.413
17035W        W89460   9.829  13.162   2.220
17036W        W89461  40.034  20.084  12.916
17037W        W89462   2.318  38.348  11.057
17038W        W89463   4.338  34.048   1.730
17039W        W89464   2.824  41.326  13.524
17040W        W89465  36.848  44.304  11.972
17041W        W89466  13.656  39.001   4.336
17042W        W89467  13.144  19.255   0.836
17043W        W89468  33.586  34.900  11.442
17044W        W89469  27.686  37.444  14.405
17045W        W89470  44.833  44.408   1.251
17046W        W89471   9.362   4.408  14.800
17047W        W89472  33.614  11.781   2.321
17048W        W89473  25.702  20.249   1.750
17049W        W89474  13.630  27.492  13.005
17050W        W89475   4.931  23.726  11.954
17051W        W89476  13.676  44.471   1.277
17052W        W89477   2.857  24.073   2.849
17053W        W89478  41.533  25.496   3.767
17054W        W89479   6.717   2.371   3.351
17055W        W89480  32.970   5.367   0.786
17056W        W89481  16.202  13.112  10.525
17057W        W89482  14.732   9.170  10.441
17058W        W89483  14.145  12.735   4.702
17059W        W89484  18.186  43.432   4.676
17060W        W89485  22.063  42.963  12.431
17061W        W89486  32.103  18.090   1.329
17062W        W89487  37.914  14.718  10.429
17063W        W89488  23.545   1.952   3.756
17064W        W89489   9.857  28.644  12.348
17065W        W89490  30.125   6.746  12.851
17066W        W89491  23.559  11.758   4.665
17067W        W89492  12.193  10.866   1.434
17068W        W89493  13.832  12.770  10.541
17069W        W89494  34.403  10.643   0.803
17070W        W89495  20.766  27.013   4.288
17071W        W89496  21.740  31.522  13.546
17072W        W89497   9.721  20.686  12.005
17073W        W89498  19.079  10.291   1.837
17074W        W89499   1.881  24.067   2.842
17075W        W89500   3.384   9.883  14.819
17076W        W89501  19.200  31.431  12.511
17077W        W89502  13.636  43.300   3.667
17078W        W89503  37.945  21.661  11.601
17079W        W89504  43.381  23.604  12.549
17080W        W89505  31.568  17.085   0.384
17081W        W89506  17.096   4.939   0.335
17082W        W89507  33.389  23.647  10.017
17083W        W89508  38.382  13.645  11.951
17084W        W89509  11.153  16.182  11.496
17085W        W89510  21.245   1.388  10.612
17086W        W89511  19.185  25.169  11.048
17087W        W89512  16.156  41.412  12.472
17088W        W89513   6.272  37.084   9.568
17089W        W89514  12.126   1.379   0.363
17090W        W89515  18.696  30.567  13.328
17091W        W89516  30.438  30.460  14.960
17092W        W89517   2.334  34.600  14.423
17093W        W89518  37.008   8.360  13.993
17094W        W89519  29.993   4.250  11.086
17095W        W89520  43.926  14.720   0.455
17096W        W89521   4.429  25.699  11.860
17097W        W89522   5.227  29.138   1.406
17098W        W89523  18.641  35.043  12.913
17099W        W89524  12.817   8.737  12.920
17100W        W89525   9.176  38.553  14.915
17101W        W89526  38.921  21.724   1.304
17102W        W89527  35.942  33.896   2.744
17103W        W89528  30.572  31.082  14.972
17104W        W89529   7.399  42.474   3.288
17105W        W89530  36.932   2.374   3.711
17106W        W89531  22.238   5.845   3.786
17107W        W89532   8.743  29.520  13.052
17108W        W89533  19.200  15.655   4.660
17109W        W89534  42.804  20.213   2.739
17110W        W89535  36.466  29.106  13.828
17111W        W89536  28.535  24.503  10.918
17112W        W89537  31.471   7.782   2.381
17113W        W89538  38.994  41.303   1.441
17114W        W89539  10.853  22.547   2.869
17115W        W89540  37.346  44.268  14.953
17116W        W89541   8.721  38.980   2.719
17117W        W89542  36.899  12.323   0.800
17118W        W89543  11.643  43.287   0.456
17119W        W89544   2.771  40.002  14.418
17120W        W89545  34.599  32.610   1.915
17121W        W89546  34.543  11.679   2.801
17122W        W89547  28.478  43.963  14.275
17123W        W89548  12.277  19.658   3.802
17124W        W89549  19.116  29.086  13.970
17125W        W89550  38.850  31.582  11.386
17126W        W89551   0.436  25.184  10.904
17127W        W89552  36.892  27.615   3.810
17128W        W89553  32.066   0.403   2.365
17129W        W89554   2.942  42.335   2.334
17130W        W89555   8.776  28.987   3.383
17131W        W89556  36.943   4.279  10.563
17132W        W89557  26.188  14.130   3.325
17133W        W89558  15.299   8.191  14.389
17134W        W89559  20.159  30.482   3.198
17135W        W89560  12.810   4.390   2.279
17136W        W89561  18.663  27.117  14.419
17137W        W89562  42.499   6.764   1.275
17138W        W89563  12.717   2.845  13.854
17139W        W89564   0.419  10.228  10.972
17140W        W89565  37.995  34.083  14.277
17141W        W89566  30.588  26.677  13.346
17142W        W89567  22.612  30.064   4.174
17143W        W89568   6.773  42.825  13.352
17144W        W89569   7.174   5.800   0.384
17145W        W89570  35.563  44.377   1.267
17146W        W89571  24.706  37.933   3.820
17147W        W89572  25.988  33.885   3.189
17148W        W89573   4.322  29.628  10.961
17149W        W89574  32.624  14.786  14.378
17150W        W89575  11.650  43.460  12.572
17151W        W89576   5.422  29.596  12.992
17152W        W89577  12.690  34.066   2.799
17153W        W89578  31.613  20.253  14.829
17154W        W89579   8.227  44.279   0.278
17155W        W89580  17.122  31.565   1.367
17156W        W89581  23.699  14.696   4.646
17157W        W89582  28.667  29.423  11.404
17158W        W89583  25.218   9.779   4.147
17159W        W89584  29.468   9.291  10.556
17160W        W89585   6.244   6.189   5.204
17161W        W89586  21.254  26.003   2.200
17162W        W89587  14.303  38.820   5.149
17163W        W89588   3.863  24.679   0.851
17164W        W89589  36.064  33.622   0.472
17165W        W89590  34.012   4.444  11.104
17166W        W89591  35.085  28.592   4.300
17167W        W89592  35.425  23.658   4.190
17168W        W89593   8.793  44.780   0.797
17169W        W89594  38.052  23.650  12.980
17170W        W89595  33.093  16.208   0.316
17171W        W89596   8.357   5.404  13.532
17172W        W89597  11.171  38.992   4.716
17173W        W89598  12.150  34.915   2.799
17174W        W89599  40.503  14.211   5.135
17175W        W89600  34.510  35.501  14.320
17176W        W89601  11.747  27.583   3.670
17177W        W89602  39.518  11.622  13.879
17178W        W89603   4.906   5.811   4.675
17179W        W89604  37.381   4.237  13.803
17180W        W89605  18.747   8.688  14.903
17181W        W89606  44.761  20.720  12.457
17182W        W89607  41.032   8.297   2.407
17183W        W89608   7.343  19.613  12.516
17184W        W89609  38.904  35.358  13.024
17185W        W89610   9.783  35.888   0.378
17186W        W89611  17.793  10.712   4.829
17187W        W89612  19.628  41.794   1.910
17188W        W89613  18.720  16.592   4.253
17189W        W89614   9.324  13.622   1.256
17190W        W89615  18.161  25.128  13.534
17191W        W89616  11.260  31.020  10.981
17192W        W89617  14.602  42.958   3.728
17193W        W89618  12.845  44.350  14.987
17194W        W89619  38.862  31.905  11.047
17195W        W89620  43.476  24.196  13.360
17196W        W89621  12.766  21.684  11.125
17197W        W89622  37.435  27.941  14.796
17198W        W89623   0.965  30.492   3.748
17199W        W89624  36.511  15.247   4.251
17200W        W89625  38.328  42.350   9.938
17201W        W89626  17.685  24.044  12.834
17202W        W89627  33.470  42.921   0.386
17203W        W89628  20.736   8.836   2.219
17204W        W89629  21.226  22.698   4.616
17205W        W89630  25.548  31.445  14.989
17206W        W89631  18.622  44.774  10.080
17207W        W89632  31.632  35.517  10.576
17208W        W89633  19.071  35.357   0.476
17209W        W89634  26.685  34.098   3.732
17210W        W89635  42.351   3.384   2.278
17211W        W89636  30.943  25.590  11.046
17212W        W89637   8.199   8.838  13.451
17213W        W89638   1.261  21.176  14.308
17214W        W89639  36.555  19.150  13.983
17215W        W89640   0.264  10.790   2.750
17216W        W89641  35.518   4.796   4.308
17217W        W89642  42.428  15.699   0.361
17218W        W89643   0.372  44.937   3.745
17219W        W89644   3.829  25.482   4.124
17220W        W89645  23.721   7.680   1.240
17221W        W89646  22.093  35.555  11.919
17222W        W89647  22.018   2.329   3.797
17223W        W89648  39.967   2.882  14.834
17224W        W89649  17.795   7.738   4.291
17225W        W89650  39.986  16.768  12.566
17226W        W89651   8.858  43.813   4.833
17227W        W89652   7.404  15.755  11.444
17228W        W89653  14.791  16.172   0.317
17229W        W89654  11.225  41.464  14.413
17230W        W89655  41.923  17.680   4.601
17231W        W89656  31.532  42.502   2.814
17232W        W89657   0.794  23.618  10.422
17233W        W89658  20.267  24.052   5.231
17234W        W89659  40.920  40.859   2.716
17235W        W89660  23.543  41.984   2.418
17236W        W89661   9.205  32.447   2.296
17237W        W89662  36.509  27.122   0.457
17238W        W89663  13.158  17.723   2.852
17239W        W89664  36.871  35.419   1.337
17240W        W89665  16.162  12.270  10.624
17241W        W89666   2.790  25.561  12.483
17242W        W89667  23.053  31.430  11.554
17243W        W89668  13.801   8.322   3.161
17244W        W89669   4.729  16.579  10.087
17245W        W89670  22.249  31.548   0.392
17246W        W89671  29.496   7.768  11.596
17247W        W89672  27.983  24.634   4.662
17248W        W89673  37.399  41.956  13.389
17249W        W89674  13.221  23.668   5.272
17250W        W89675   2.846  10.640  14.309
17251W        W89676   8.674  26.001   2.320
17252W        W89677   5.715  18.160   2.364
17253W        W89678   1.331  12.163   0.261
17254W        W89679  17.575  22.070   2.190
17255W        W89680   5.411  25.131   3.723
17256W        W89681  15.665  35.534   2.826
17257W        W89682  42.414  12.151   2.204
17258W        W89683  21.091  36.549  11.451
17259W        W89684  11.340   4.373  12.540
17260W        W89685  12.284   1.922  14.832
17261W        W89686  17.737  43.008   5.187
17262W        W89687  16.153   4.812   1.305
17263W        W89688  14.653   5.881  13.792
17264W        W89689  18.243  15.238   1.382
17265W        W89690  18.588  10.384   4.350
17266W        W89691  37.880  32.560  12.573
17267W        W89692   9.779  36.986   2.898
17268W        W89693  23.602   0.324  14.408
17269W        W89694  20.053  39.938  11.093
17270W        W89695  26.465  37.024   2.741
17271W        W89696  35.523  20.653   0.732
17272W        W89697  44.926   2.291   2.718
17273W        W89698   9.871  43.964  13.340
17274W        W89699   6.756  25.656  12.443
17275W        W89700  25.652  34.561  12.455
17276W        W89701  31.986  44.338  13.476
17277W        W89702   9.237  22.126   0.809
17278W        W89703  19.168  29.540   4.178
17279W        W89704  12.222   7.841   1.295
17280W        W89705  16.199  42.495  10.469
17281W        W89706  36.941   0.955   4.667
17282W        W89707  20.663  39.903   1.317
17283W        W89708  34.542   8.216  14.433
17284W        W89709  14.835  39.814  11.581
17285W        W89710  27.132  32.476  13.320
17286W        W89711  29.994  29.619  13.935
17287W        W89712   1.769   0.968   2.830
17288W        W89713   0.368  31.621  11.041
17289W        W89714  34.070  33.930   2.863
17290W        W89715  10.358  36.030  10.906
17291W        W89716   0.383   2.908  12.885
17292W        W89717  24.991  36.071   3.709
17293W        W89718  25.688  41.999   3.727
17294W        W89719   6.872  10.294   1.747
17295W        W89720  38.560  16.665  14.981
17296W        W89721  11.856  34.930  10.944
17297W        W89722  20.609  10.731   0.376
17298W        W89723  29.104  43.018  11.605
17299W        W89724  43.366   7.222   2.311
17300W        W89725  16.220   2.237  14.380
17301W        W89726  38.539  38.566   0.302
17302W        W89727  25.100  25.109   4.295
17303W        W89728  14.673  37.021   1.752
17304W        W89729  42.953  19.692   3.173
17305W        W89730  15.087  38.991  11.953
17306W        W89731  28.478   4.438  11.519
17307W        W89732  20.067  11.362   0.790
17308W        W89733  42.525  15.228   3.831
17309W        W89734  33.067   2.306   2.378
17310W        W89735  13.164   2.916  12.089
17311W        W89736  22.093  18.613  13.478
17312W        W89737  43.351   9.230  13.050
17313W        W89738   0.840  39.044   1.761
17314W        W89739  16.159  14.829   2.388
17315W        W89740  26.509  16.673  13.330
17316W        W89741  28.062  29.049  11.912
17317W        W89742  42.431  43.882   1.697
17318W        W89743  16.783   6.863   1.289
17319W        W89744  41.326  27.197   2.887
17320W        W89745  31.047  40.429   1.814
17321W        W89746  11.780   9.649  14.400
17322W        W89747  24.223  43.298  11.873
17323W        W89748  13.271  10.185  13.392
17324W        W89749   3.236  30.457   9.985
17325W        W89750  32.496   0.775   4.699
17326W        W89751  32.914   8.271   3.772
17327W        W89752  23.702  30.638   2.663
17328W        W89753  31.914  24.563   0.761
17329W        W89754   6.733  19.601  12.413
17330W        W89755  19.242  40.832   3.683
17331W        W89756   7.902  22.686   5.151
17332W        W89757  32.019  23.610  13.885
17333W        W89758  10.237   6.292   2.689
17334W        W89759   7.682   8.172   2.312
17335W        W89760  39.380  24.645   0.907
17336W        W89761  11.139  43.831   1.798
17337W        W89762  15.302  16.170  10.599
17338W        W89763   2.766  19.142   1.709
17339W        W89764  38.455   5.860   0.907
17340W        W89765  28.182  31.902   0.852
17341W        W89766  44.350  18.125   3.251
17342W        W89767   8.254  44.393  10.094
17343W        W89768  19.559  30.912  11.534
17344W        W89769  26.678  41.474   1.872
17345W        W89770  22.737  36.990  11.488
17346W        W89771  25.159  23.583  13.794
17347W        W89772  20.530  12.239  12.354
17348W        W89773   4.916  36.922   1.312
17349W        W89774  18.197  11.308   3.234
17350W        W89775   9.208  24.126  13.046
17351W        W89776  38.005  29.513  10.983
17352W        W89777  31.537  13.664  11.906
17353W        W89778   9.804  28.517  14.812
17354W        W89779   7.212  32.098  13.348
17355W        W89780  39.432  19.676   4.347
17356W        W89781  35.422  44.822   2.332
17357W        W89782  12.146  19.232   1.834
17358W        W89783  31.948  30.503   0.901
17359W        W89784  19.089  22.063   3.831
17360W        W89785  27.671  29.121  13.521
17361W        W89786  10.218  38.462  10.065
17362W        W89787  36.419   4.725  13.308
17363W        W89788  25.701  10.187   2.355
17364W        W89789  11.720  29.166   3.663
17365W        W89790   5.724  14.142  14.950
17366W        W89791  15.681  43.381  14.957
17367W        W89792  30.978  36.443   4.171
17368W        W89793  40.827   0.750  14.863
17369W        W89794  27.497   0.747  12.538
17370W        W89795   8.220  15.101  11.072
17371W        W89796   5.849   2.452   3.256
17372W        W89797   6.757  20.678   2.259
17373W        W89798  30.139  26.560   1.265
17374W        W89799   4.276   4.933  12.067
17375W        W89800   3.295  14.159  11.896
17376W        W89801  15.643  16.133  13.015
17377W        W89802  17.791  16.115   4.300
17378W        W89803   0.342   4.776   3.254
17379W        W89804   7.667  13.702  11.502
17380W        W89805   7.196  38.011   0.370
17381W        W89806  22.226  39.465   1.401
17382W        W89807  16.235  34.076   3.221
17383W        W89808  22.504  21.223  10.493
17384W        W89809  37.833  26.177   0.738
17385W        W89810  17.113   0.449  13.818
17386W        W89811  41.351  39.003   4.177
17387W        W89812  27.455  11.622   4.214
17388W        W89813  18.639   0.983  14.370
17389W        W89814   1.330  28.478  11.891
17390W        W89815  17.234  15.199  14.789
17391W        W89816  15.734   0.307   0.403
17392W        W89817  38.368  25.052   3.293
17393W        W89818  13.615  30.457   0.268
17394W        W89819  21.038  34.951   3.359
17395W        W89820  23.071  35.412   3.768
17396W        W89821  15.655  42.877  13.467
17397W        W89822   3.431  14.110   2.344
17398W        W89823  10.231  12.645   3.236
17399W        W89824  20.081  34.992  13.864
17400W        W89825  31.900  43.837  10.124
17401W        W89826  18.646  44.003  14.801
17402W        W89827  21.258  15.758  12.540
17403W        W89828  12.817  30.614  12.498
17404W        W89829  32.127  39.454   4.822
17405W        W89830   1.739  28.949   2.279
17406W        W89831  34.975  20.687   4.195
17407W        W89832  41.521  30.652   4.158
17408W        W89833  27.495  10.143  10.583
17409W        W89834  22.081  33.973  13.869
17410W        W89835  41.805  22.643  13.357
17411W        W89836  25.189  12.618  12.862
17412W        W89837  41.851  34.057   3.298
17413W        W89838   3.393  19.280  14.344
17414W        W89839  22.551  31.501   2.241
17415W        W89840   6.316  36.056  10.104
17416W        W89841  38.362  16.225   2.204
17417W        W89842  17.235  21.589   3.357
17418W        W89843  32.981  41.007  11.862
17419W        W89844  12.253  34.906  10.927
17420W        W89845  13.115   2.823  14.911
17421W        W89846  20.195  27.664  12.943
17422W        W89847  25.205  24.594  13.907
17423W        W89848  34.568  10.368   3.852
17424W        W89849  22.529   4.745   1.745
17425W        W89850  37.355  16.219  11.056
17426W        W89851  38.566  29.605  12.976
17427W        W89852  27.946  18.740   3.684
17428W        W89853  40.858  29.925  11.463
17429W        W89854  11.238  14.604  10.430
17430W        W89855   9.704  40.972  14.906
17431W        W89856  38.840  13.843   3.218
17432W        W89857  26.026  17.564   3.188
17433W        W89858   0.915  29.557  11.994
17434W        W89859   6.219   0.462  11.469
17435W        W89860   4.760  34.060   0.411
17436W        W89861   3.716   5.877   3.837
17437W        W89862  42.404  31.151  11.542
17438W        W89863  27.054  39.476  10.890
17439W        W89864  41.512  24.186  10.450
17440W        W89865   1.397  41.476  13.038
17441W        W89866  33.034  32.887   3.765
17442W        W89867  20.753  32.018  10.516
17443W        W89868  16.738  27.466  14.763
17444W        W89869   1.954   8.260  11.525
17445W        W89870   4.407  15.717   1.852
17446W        W89871  43.396   8.217  10.518
17447W        W89872  30.092  15.685  14.352
17448W        W89873  44.822  39.377   3.784
17449W        W89874  32.483  36.851   2.901
17450W        W89875   9.810   4.801   2.353
17451W        W89876   7.210  19.549  12.829
17452W        W89877  38.955  12.331  11.932
17453W        W89878  44.336  17.634   3.780
17454W        W89879  10.198  32.557  13.396
17455W        W89880   1.822  20.086  13.027
17456W        W89881   5.267  17.250   0.788
17457W        W89882  37.537  24.619  10.593
17458W        W89883  34.527  39.440   0.833
17459W        W89884  36.571  29.427   0.853
17460W        W89885  31.071  28.615   2.839
17461W        W89886  16.742  41.806   4.656
17462W        W89887  24.013  38.345   2.218
17463W        W89888  42.484  32.908   0.867
17464W        W89889  20.616  27.501   3.341
17465W        W89890  37.882  39.426  10.644
17466W        W89891  19.576  38.860  12.493
17467W        W89892  11.326  35.468   3.165
17468W        W89893  12.263   5.802  10.422
17469W        W89894  30.467  31.932  12.877
17470W        W89895  22.678  17.690  11.413
17471W        W89896  11.724   7.290  12.554
17472W        W89897  26.043  18.264   0.887
17473W        W89898  28.474  33.577   3.362
17474W        W89899  23.626  31.643  12.523
17475W        W89900  17.576  14.270  10.917
17476W        W89901  24.630   7.327  14.021
17477W        W89902   4.291  37.385  12.420
17478W        W89903  19.126  12.303  14.964
17479W        W89904   5.780   0.396   2.271
17480W        W89905  32.904  23.220   2.391
17481W        W89906  35.449  25.049   5.125
17482W        W89907  33.061   7.286   2.317
17483W        W89908   6.271   4.757  11.935
17484W        W89909  14.735  36.561  13.318
17485W        W89910  24.184  20.195  13.368
17486W        W89911  23.125  32.637  12.544
17487W        W89912  15.171  24.498  11.528
17488W        W89913  22.711  22.507   1.793
17489W        W89914  33.047  27.652   3.358
17490W        W89915   7.318  37.974   2.419
17491W        W89916  44.985  24.581  14.780
17492W        W89917  21.718  19.096   0.854
17493W        W89918  28.065  36.897   3.682
17494W        W89919  15.597  34.496  11.015
17495W        W89920  14.126  39.026   4.808
17496W        W89921  39.385  44.768   0.940
17497W        W89922  13.636  26.084  10.494
17498W        W89923  20.232   4.352   3.229
17499W        W89924  26.143  15.278   0.264
17500W        W89925  39.456  13.183  12.376
17501W        W89926   9.391  21.724   2.399
17502W        W89927  32.137  33.959   2.783
17503W        W89928  22.234  41.004  11.085
17504W        W89929  18.562  30.954  12.479
17505W        W89930  11.783  21.199   5.252
17506W        W89931  15.728  15.174  12.397
17507W        W89932  35.519   5.320  10.968
17508W        W89933  33.068   4.406  14.959
17509W        W89934   1.330  36.075   3.154
17510W        W89935   6.788  38.543   2.757
17511W        W89936  36.905   2.791  12.832
17512W        W89937  44.374  29.653   2.332
17513W        W89938  39.517  19.732  14.962
17514W        W89939  21.728  36.014  12.075
17515W        W89940  39.941   5.293  14.844
17516W        W89941  13.727  35.879  11.561
17517W        W89942  13.757   1.807  10.505
17518W        W89943  26.574  40.966   0.925
17519W        W89944  19.043   4.206  12.851
17520W        W89945  43.923  29.535  12.343
17521W        W89946   6.210  23.665   0.399
17522W        W89947  11.646  32.393   3.171
17523W        W89948  22.681   5.415   2.868
17524W        W89949  39.512  15.613   4.142
17525W        W89950   3.728  15.630   4.342
17526W        W89951  22.034   0.920   0.832
17527W        W89952  26.543  26.467  11.908
17528W        W89953  15.115  11.132   4.832
17529W        W89954  11.814   9.729   3.788
17530W        W89955  33.942  18.766   5.316
17531W        W89956  44.983  42.356  14.366
17532W        W89957  41.928   8.708   1.699
17533W        W89958  13.812   7.249  12.920
17534W        W89959  41.351  20.597  11.874
17535W        W89960   0.775  34.441   2.254
17536W        W89961  13.778  26.000   3.362
17537W        W89962  24.136   7.864  14.476
17538W        W89963  38.530  31.079   1.739
17539W        W89964  23.123  13.740   4.306
17540W        W89965  32.464  37.520   2.662
17541W        W89966  35.021  28.583  13.899
17542W        W89967  40.390   8.264   3.866
17543W        W89968   0.255  39.046  11.483
17544W        W89969  43.833  38.068  10.993
17545W        W89970  13.748  14.130   3.797
17546W        W89971  13.752   6.753   0.941
17547W        W89972   8.329  21.647  10.575
17548W        W89973  34.393  20.058  11.090
17549W        W89974   2.881  19.618  12.963
17550W        W89975  26.676  25.164   0.819
17551W        W89976   8.178  21.516   2.686
17552W        W89977  33.052  36.857  12.499
17553W        W89978  27.003  33.080  12.942
17554W        W89979   9.643  21.026  10.996
17555W        W89980  35.029   6.806  13.801
17556W        W89981  40.412   0.408  12.977
17557W        W89982   5.298   4.825   4.168
17558W        W89983  17.584   2.440  12.087
17559W        W89984   5.705  34.072  14.961
17560W        W89985   7.888  29.102   4.798
17561W        W89986   2.295  10.866  11.951
17562W        W89987  34.892  43.778   0.397
17563W        W89988  11.773   7.291  13.029
17564W        W89989   9.199  13.238   1.436
17565W        W89990   4.753   3.459   1.910
17566W        W89991  30.157  34.945  11.091
17567W        W89992  44.996  26.118  14.851
17568W        W89993   8.355   8.774  10.938
17569W        W89994   7.390   6.268  12.413
17570W        W89995   0.458  21.097  10.599
17571W        W89996  38.342  44.871   2.274
17572W        W89997  44.392  27.014  11.537
17573W        W89998  32.999   3.289   3.317
17574W        W89999   2.752   2.325  13.419
17575W        W90000  11.314  16.603  10.946
17576W        W90001  36.938  14.632  11.586
17577W        W90002  12.636  19.639   4.629
17578W        W90003  43.985  23.186  11.608
17579W        W90004  25.673   1.818  10.078
17580W        W90005  32.445  37.908  11.110
17581W        W90006  41.894   9.374   3.329
17582W        W90007   9.778  10.279   1.734
17583W        W90008  37.969  42.492  11.573
17584W        W90009  16.128   8.820   2.860
17585W        W90010  35.856  19.172   0.886
17586W        W90011  16.723  41.486   0.885
17587W        W90012  10.291  21.621   3.262
17588W        W90013  31.402  19.711   2.889
17589W        W90014  17.705  33.948  10.983
17590W        W90015   7.821   5.748   4.787
17591W        W90016  24.581  32.632   2.871
17592W        W90017  42.961  16.197  12.860
17593W        W90018  43.410   0.407  13.528
17594W        W90019  16.231  11.372  10.466
17595W        W90020  29.570  30.597   9.473
17596W        W90021  25.519  12.159   4.608
17597W        W90022  35.358  15.163   1.780
17598W        W90023  24.690   8.799   5.082
17599W        W90024  35.870   4.774   3.348
17600W        W90025  36.478   7.410  13.002
17601W        W90026  29.956  39.425  13.402
17602W        W90027  20.206  29.021  11.440
17603W        W90028  38.866  26.171   1.260
17604W        W90029  36.954   7.198   3.308
17605W        W90030  41.039  11.740   0.481
17606W        W90031  23.701  36.558   3.678
17607W        W90032  34.987  19.271  13.929
17608W        W90033  38.058  13.209   4.820
17609W        W90034   4.904  32.634   4.208
17610W        W90035  36.988  28.073  14.397
17611W        W90036  19.617  25.194   0.320
17612W        W90037  13.602  30.984   1.781
17613W        W90038   8.163   6.837   4.709
17614W        W90039  16.133  42.874   2.804
17615W        W90040  27.634  19.177  13.895
17616W        W90041  37.558  23.178  11.058
17617W        W90042  10.354  35.557  11.053
17618W        W90043  29.663  17.304   2.233
17619W        W90044  41.845  44.310   5.151
17620W        W90045  37.555  29.016   2.223
17621W        W90046  30.146   1.287  11.882
17622W        W90047  16.130   7.689   0.845
17623W        W90048  29.617  44.385  12.387
17624W        W90049   3.399  15.322   2.702
17625W        W90050   9.773  17.746  13.060
17626W        W90051  28.053  23.122   3.217
17627W        W90052   2.391   2.334   4.141
17628W        W90053  42.992  17.801   2.401
17629W        W90054  19.664  16.097  14.495
17630W        W90055  38.008  20.701   0.929
17631W        W90056  22.211  27.162  13.500
17632W        W90057  19.276  24.086  12.346
17633W        W90058  34.079  32.538  12.458
17634W        W90059  16.099  39.019   2.670
17635W        W90060  28.567  33.553   4.634
17636W        W90061  44.781  17.776  10.924
17637W        W90062  39.523  31.455   3.371
17638W        W90063  43.371   9.231  11.411
17639W        W90064  17.154  18.555   4.673
17640W        W90065  44.359  36.407   2.872
17641W        W90066  10.790  19.132   2.790
17642W        W90067   4.277  33.387   0.914
17643W        W90068  39.911  30.596   2.896
17644W        W90069  44.849  11.630   3.368
17645W        W90070  43.913  27.165   3.832
17646W        W90071  14.334   8.832   1.870
17647W        W90072  17.778   4.810   2.386
17648W        W90073  10.319   5.917   2.829
17649W        W90074  30.430  31.528   0.483
17650W        W90075   7.670  23.998   3.370
17651W        W90076  36.422  27.479  11.078
17652W        W90077   8.679   8.899  10.405
17653W        W90078  13.769  11.137   2.389
17654W        W90079  10.684  17.645   3.309
17655W        W90080   6.917  32.466   1.810
17656W        W90081   3.432  43.397   0.801
17657W        W90082  41.407  17.128   4.296
17658W        W90083  23.003  11.857   2.700
17659W        W90084   6.266  19.166  13.878
17660W        W90085  20.696  39.966   0.841
17661W        W90086  18.213  15.778   3.808
17662W        W90087  32.603  41.815  13.022
17663W        W90088  26.566   7.290   3.731
17664W        W90089  20.579  24.177   0.388
17665W        W90090  33.405  10.298   4.615
17666W        W90091   5.820  31.132   2.711
17667W        W90092  24.498  33.932   0.469
17668W        W90093  36.961  24.007  11.992
17669W        W90094   8.780  35.495   2.345
17670W        W90095  39.031   6.406   2.416
17671W        W90096   3.216  44.938   3.257
17672W        W90097  42.998  19.277  12.509
17673W        W90098  16.213  10.261   1.300
17674W        W90099  21.158  14.321  10.104
17675W        W90100  13.298  22.579   4.738
17676W        W90101  31.954   1.483  11.016
17677W        W90102  17.653  25.033  12.032
17678W        W90103  36.552  23.153   0.256
17679W        W90104  38.539  38.416  14.284
17680W        W90105  10.668  35.018   4.608
17681W        W90106  28.043   7.277  14.370
17682W        W90107  15.655   2.812  12.391
17683W        W90108   4.340  36.957  10.609
17684W        W90109  36.884  44.323  10.998
17685W        W90110  30.048  16.135   2.380
17686W        W90111  10.651  21.728   4.253
17687W        W90112  15.240   0.774  10.015
17688W        W90113   2.786  29.107   2.722
17689W        W90114  37.557  37.569  13.865
17690W        W90115  36.363   2.895   3.343
17691W        W90116  15.612  23.034  10.445
17692W        W90117  23.664  40.478   2.321
17693W        W90118  42.415  17.591   0.834
17694W        W90119  18.279  24.552   4.117
17695W        W90120   3.775  30.937   1.745
17696W        W90121  22.213  28.053   1.228
17697W        W90122  34.098  12.774   3.223
17698W        W90123   2.799  39.982   0.953
17699W        W90124  43.821  16.810   2.233
17700W        W90125   8.781   9.191   4.685
17701W        W90126  22.207  28.106   0.764
17702W        W90127  14.807  41.857   0.328
17703W        W90128   0.942  21.199   2.672
17704W        W90129   4.846  33.436   0.811
17705W        W90130  15.092  42.948   0.265
17706W        W90131   2.402  31.468   2.182
17707W        W90132  24.026  43.404   1.375
17708W        W90133  44.954  12.840  12.415
17709W        W90134   3.928  35.934   2.758
17710W        W90135  28.168  12.812   2.268
17711W        W90136  26.139  42.875  14.906
17712W        W90137  24.679  22.630  14.503
17713W        W90138  16.779  43.864  13.394
17714W        W90139  42.974  15.187   1.819
17715W        W90140  15.179   4.254  14.829
17716W        W90141  34.932  41.986  12.961
17717W        W90142  10.659  41.357  12.487
17718W        W90143   7.677   5.852   2.715
17719W        W90144  16.278  28.019   3.870
17720W        W90145   6.775   4.266  10.940
17721W        W90146  41.306  16.138  11.050
17722W        W90147  42.924  20.115   0.856
17723W        W90148  44.340   0.914  14.372
17724W        W90149  28.499   8.292  13.830
17725W        W90150  19.593  24.214   3.366
17726W        W90151   2.858  34.447   0.735
17727W        W90152  34.448  33.004   4.757
17728W        W90153   1.752  41.932  13.960
17729W        W90154  18.056  22.025   2.337
17730W        W90155  38.509  17.181   2.832
17731W        W90156   3.847  35.423  14.400
17732W        W90157  25.652   9.761  12.959
17733W        W90158  35.985  25.052  11.544
17734W        W90159   2.906  11.629  13.965
17735W        W90160  31.986   7.236   4.330
17736W        W90161   5.438  23.554  10.602
17737W        W90162   6.192  42.465   4.762
17738W        W90163  35.486  11.738  12.967
17739W        W90164  38.427   9.386   2.866
17740W        W90165  40.856  32.888   0.906
17741W        W90166  19.139  19.231  14.450
17742W        W90167  34.092   9.860  12.576
17743W        W90168  25.136  13.626   2.266
17744W        W90169  39.941  22.747  11.489
17745W        W90170   4.276   4.717  11.600
17746W        W90171  37.480  43.393   3.819
17747W        W90172  34.922   2.753  10.570
17748W        W90173  10.757   0.799   3.726
17749W        W90174  23.127  21.579   3.210
17750W        W90175  35.443   1.863   2.807
17751W        W90176  35.862  10.199  12.498
17752W        W90177  35.903  29.458   3.244
17753W        W90178  39.876  21.596  13.968
17754W        W90179   1.812   5.867   0.952
17755W        W90180  13.774  15.629  13.530
17756W        W90181  25.562  16.148   0.753
17757W        W90182  41.044  41.461  13.387
17758W        W90183  29.071  33.512  13.470
17759W        W90184  36.376  20.759   4.245
17760W        W90185  23.236  38.861   3.169
17761W        W90186  17.609  15.813   1.861
17762W        W90187  22.513  41.394  12.454
17763W        W90188  13.783  12.200   0.740
17764W        W90189  21.755  18.228  12.887
17765W        W90190  42.835  16.194   3.639
17766W        W90191  23.065   7.847  11.481
17767W        W90192   8.750  36.526  14.983
17768W        W90193  21.692   4.753  12.344
17769W        W90194  44.895  23.620   0.867
17770W        W90195  16.149  34.027   1.838
17771W        W90196  21.715  31.522  14.779
17772W        W90197  13.316  13.749  11.516
17773W        W90198  18.570   9.851   4.313
17774W        W90199   2.349   1.929   3.746
17775W        W90200  22.732  11.645   3.779
17776W        W90201   3.943  21.754  14.017
17777W        W90202   1.951  27.483   3.373
17778W        W90203  44.397  35.998  11.529
17779W        W90204  31.590  32.595   3.332
17780W        W90205  37.902  31.117   3.216
17781W        W90206   7.324  12.670   1.854
17782W        W90207  38.981  41.326   0.462
17783W        W90208  22.104   6.372   0.934
17784W        W90209   1.363  21.224  10.431
17785W        W90210  20.556  37.894   0.936
17786W        W90211  27.193  19.056   3.812
17787W        W90212  35.372  26.992   4.284
17788W        W90213   6.696   0.316  10.526
17789W        W90214  16.764  21.574  13.885
17790W        W90215  37.522  41.880  11.402
17791W        W90216  35.924  32.548   0.865
17792W        W90217  35.390  17.246  14.885
17793W        W90218  31.556   0.821   4.711
17794W        W90219   1.884   2.311   2.842
17795W        W90220  12.616  21.105  11.477
17796W        W90221  29.495  29.656  12.483
17797W        W90222   5.268  20.731  13.986
17798W        W90223  39.350  38.825  14.772
17799W        W90224  36.489  38.420  11.514
17800W        W90225  26.058  19.550  14.499
17801W        W90226  20.548  41.948   1.797
17802W        W90227  30.929  12.145  14.777
17803W        W90228  24.705  41.947   3.666
17804W        W90229  39.037  30.052  11.012
17805W        W90230   4.266  43.774  13.834
17806W        W90231  18.723  38.393  13.397
17807W        W90232  28.080  32.893   5.678
17808W        W90233  28.121  18.219   0.940
17809W        W90234   0.953  43.327   2.251
17810W        W90235  13.259   1.754  12.452
17811W        W90236  20.561  12.208   2.834
17812W        W90237  41.505  31.429   2.389
17813W        W90238  19.179   9.773  13.397
17814W        W90239  22.504  42.920  14.962
17815W        W90240   9.271  33.497   1.438
17816W        W90241  17.719   8.285   0.324
17817W        W90242  28.162  37.414  14.937
17818W        W90243  32.579  27.490   0.847
17819W        W90244  38.885  18.155   2.309
17820W        W90245  23.612  27.534   0.258
17821W        W90246  41.958  38.953  10.128
17822W        W90247  15.211   0.774   4.698
17823W        W90248   6.249   4.834  12.923
17824W        W90249  39.961   7.270   3.698
17825W        W90250  17.161  43.022   3.844
17826W        W90251  39.925  42.963  10.451
17827W        W90252  32.070  15.284   3.796
17828W        W90253  22.176  25.201   1.777
17829W        W90254  24.639  27.091   2.819
17830W        W90255  19.279  19.106   4.721
17831W        W90256  33.599  32.927   4.347
17832W        W90257  43.511   3.868   3.817
17833W        W90258   2.296  40.969  12.541
17834W        W90259  14.624  38.450  13.805
17835W        W90260  13.286  24.042   4.272
17836W        W90261   8.722  11.259  11.033
17837W        W90262   9.689  21.637   0.781
17838W        W90263  12.620  43.490  10.440
17839W        W90264  17.070   6.366   4.739
17840W        W90265   2.227  34.086   0.906
17841W        W90266  27.605  42.944  13.512
17842W        W90267  29.135   1.304  11.568
17843W        W90268  22.141   6.720   0.823
17844W        W90269  32.999   0.443  10.967
17845W        W90270  34.567  12.315   2.682
17846W        W90271  38.892  23.113  12.465
17847W        W90272  38.529  20.630   0.358
17848W        W90273   8.308  13.311  12.912
17849W        W90274  44.900  17.114  12.932
17850W        W90275  20.693  35.025   4.816
17851W        W90276  13.219   9.376  11.002
17852W        W90277   8.769  44.928   1.922
17853W        W90278  40.041  34.945  14.336
17854W        W90279   9.227  11.713  12.090
17855W        W90280  41.329  20.696   4.230
17856W        W90281  19.657  13.119   4.197
17857W        W90282  16.601  43.799  12.050
17858W        W90283  23.547  14.244  11.995
17859W        W90284  12.675  33.496   4.181
17860W        W90285  29.660   7.248  11.432
17861W        W90286   7.704  30.020  10.897
17862W        W90287  22.129  13.845  14.340
17863W        W90288   0.453  40.435  12.005
17864W        W90289  35.951  27.015  12.576
17865W        W90290   9.789  20.266  13.505
17866W        W90291  40.433   7.192  13.798
17867W        W90292  35.854   9.362   2.370
17868W        W90293  14.743   2.818   3.792
17869W        W90294   0.348  41.991  11.863
17870W        W90295  39.383  36.016   0.956
17871W        W90296  16.152  42.028  11.099
17872W        W90297  24.112   0.920   1.239
17873W        W90298  21.652  27.128  10.588
17874W        W90299  28.675  27.070   2.411
17875W        W90300  29.487   5.868   3.254
17876W        W90301  11.199  22.019  13.875
17877W        W90302  33.941   5.253   3.861
17878W        W90303  16.201  39.354  13.337
17879W        W90304  17.218   8.311   0.946
17880W        W90305  12.772   5.890   3.685
17881W        W90306  34.985  26.135  14.995
17882W        W90307  18.674  26.162  14.026
17883W        W90308  31.947  32.988   4.708
17884W        W90309  23.986  35.888   2.809
17885W        W90310  22.737  35.604   2.857
17886W        W90311  22.520  40.333   2.770
17887W        W90312  18.707   4.209   3.850
17888W        W90313  19.703  23.500   0.962
17889W        W90314  35.415  43.818   2.885
17890W        W90315  35.563  19.726   4.786
17891W        W90316  23.613  41.518   2.380
17892W        W90317  14.748  42.864   0.900
17893W        W90318  20.219   5.764  12.409
17894W        W90319  13.158  28.489   2.249
17895W        W90320   0.969  41.523  12.027
17896W        W90321  16.777  30.069   1.813
17897W        W90322  15.303  22.720   3.810
17898W        W90323   0.302   7.815   0.396
17899W        W90324   9.772   5.913  13.842
17900W        W90325  36.415  31.149   3.661
17901W        W90326  12.177  39.553  14.970
17902W        W90327   0.464  26.562  12.038
17903W        W90328  15.637  42.441   3.175
17904W        W90329  38.894   1.386   0.757
17905W        W90330  19.624   6.359   1.292
17906W        W90331   1.289  26.597  11.987
17907W        W90332   6.853   6.326  11.470
17908W        W90333  14.699  32.120  12.568
17909W        W90334  31.018  27.509   4.810
17910W        W90335  26.075  35.409   0.289
17911W        W90336   8.669  40.918  12.850
17912W        W90337  44.000  27.684  11.079
17913W        W90338  41.465   7.190  13.986
17914W        W90339  37.457  29.173   3.756
17915W        W90340   0.929  12.832  13.044
17916W        W90341  28.181  38.503  12.990
17917W        W90342   3.337   3.271  14.511
17918W        W90343   0.377  29.546   0.853
17919W        W90344  35.982  21.025  12.026
17920W        W90345  27.580  34.592   4.686
17921W        W90346  17.727  25.618  14.432
17922W        W90347  10.661  23.572   1.918
17923W        W90348   4.310  29.638  12.495
17924W        W90349  34.937  33.130   0.386
17925W        W90350  39.382  25.672   1.411
17926W        W90351  14.274  24.716   1.823
17927W        W90352  19.780   9.210  14.869
17928W        W90353  40.047  26.632  13.935
17929W        W90354  16.659  31.452  11.518
17930W        W90355   5.269   8.845   4.803
17931W        W90356  28.470  30.073  14.943
17932W        W90357  23.672   2.786  11.869
17933W        W90358   1.812  33.499  14.797
17934W        W90359  37.501  31.421   3.248
17935W        W90360  13.119  37.444   1.434
17936W        W90361  41.007  23.549   0.801
17937W        W90362  43.853  30.451  12.058
17938W        W90363  15.811   6.311  11.458
17939W        W90364  41.937  36.870  14.862
17940W        W90365  43.369  33.972   3.848
17941W        W90366  37.339   5.252  12.465
17942W        W90367   7.882  22.702  13.028
17943W        W90368  38.353  43.954   5.107
17944W        W90369   5.688  20.616  11.906
17945W        W90370  15.101  38.860   2.273
17946W        W90371  16.679  33.467  14.476
17947W        W90372   8.885  43.419   2.326
17948W        W90373  31.946  37.426  14.029
17949W        W90374  29.574  22.227   2.803
17950W        W90375  19.083  34.492   2.383
17951W        W90376  37.399   5.903   1.933
17952W        W90377  25.595  36.005   0.447
17953W        W90378  39.815   9.644  14.313
17954W        W90379   5.213  28.580  13.367
17955W        W90380  13.112  19.689   2.364
17956W        W90381  20.075  15.717  12.005
17957W        W90382  38.340  24.049   1.353
17958W        W90383   3.878  17.202  10.504
17959W        W90384  32.583  11.827   1.902
17960W        W90385  39.330  33.092   4.838
17961W        W90386  23.165  42.471   3.205
17962W        W90387  44.382  41.009   1.807
17963W        W90388  40.946  23.524  14.950
17964W        W90389  15.091   1.411   3.261
17965W        W90390  32.059  12.756  11.877
17966W        W90391  29.501   3.800  11.414
17967W        W90392  34.529   0.449   2.203
17968W        W90393  39.527  34.069   2.693
17969W        W90394   4.745  37.514   2.297
17970W        W90395  41.999  44.503   3.282
17971W        W90396  25.011  22.708  12.378
17972W        W90397  26.661  26.588  11.101
17973W        W90398  37.413  17.243   2.790
17974W        W90399  44.992   9.832  11.387
17975W        W90400  23.596  44.351  11.971
17976W        W90401   1.358  21.513   0.849
17977W        W90402  23.152  18.584  11.937
17978W        W90403  21.072  34.024  11.116
17979W        W90404  18.206  32.015   4.698
17980W        W90405  16.753   3.844  10.644
17981W        W90406  38.349  32.088   3.771
17982W        W90407  27.617  28.660  14.788
17983W        W90408  14.318  41.451  14.959
17984W        W90409   3.803   1.461  10.582
17985W        W90410  23.685   7.761   0.948
17986W        W90411   7.843  26.080   2.790
17987W        W90412   2.403  16.270   4.794
17988W        W90413  42.401  44.284   3.850
17989W        W90414  35.380  25.064  11.588
17990W        W90415   1.875  23.142   1.871
17991W        W90416  31.531  30.104   4.621
17992W        W90417   9.798  29.621  12.979
17993W        W90418  19.609   6.202   3.772
17994W        W90419   6.294  13.168  12.367
17995W        W90420  37.429  14.303  10.468
17996W        W90421  41.474   3.456  14.880
17997W        W90422  28.467  39.969   1.740
17998W        W90423  21.226  27.642   4.711
17999W        W90424  20.761  40.527  14.996
18000W        W90425  33.596  10.304   1.356
18001W        W90426  39.396  32.570   4.619
18002W        W90427   9.878  35.892  11.927
18003W        W90428  23.672  41.446  12.887
18004W        W90429  19.606  39.446  11.051
18005W        W90430   5.376   4.336  11.066
18006W        W90431  44.899  17.080   1.257
18007W        W90432   8.750  40.034   2.805
18008W        W90433  15.304  27.167  12.883
18009W        W90434  40.815  41.882  13.857
18010W        W90435  43.506   1.307  13.461
18011W        W90436  33.503   1.966  11.040
18012W        W90437  37.927  37.515   3.245
18013W        W90438   8.699  36.533   1.855
18014W        W90439   7.358  25.659   3.760
18015W        W90440  40.842  28.985   2.197
18016W        W90441  28.029  33.933   2.740
18017W        W90442  35.008  13.630   2.236
18018W        W90443  15.622  27.512   4.209
18019W        W90444   0.762  18.060  10.083
18020W        W90445   5.778   4.421   1.283
18021W        W90446  15.662  38.861   4.234
18022W        W90447  10.302  15.288  13.500
18023W        W90448  10.850  38.406   1.830
18024W        W90449   9.839  17.642   1.866
18025W        W90450  16.194  26.653  10.567
18026W        W90451  41.945   0.913   2.841
18027W        W90452  13.317  38.013  10.980
18028W        W90453  41.349  20.561   0.373
18029W        W90454  14.652  42.336   0.953
18030W        W90455  11.640  42.928  12.577
18031W        W90456  34.576  20.034   1.407
18032W        W90457   7.819  25.662  13.883
18033W        W90458  44.765  16.569   1.255
18034W        W90459   6.920  11.191  11.971
18035W        W90460  39.382  30.590   1.252
18036W        W90461   9.873   1.837  11.909
18037W        W90462  15.148  41.494   0.270
18038W        W90463  32.545  42.907  14.511
18039W        W90464  15.753   4.214  13.432
18040W        W90465  39.405  24.982  11.972
18041W        W90466  12.161  22.643  10.138
18042W        W90467  10.358  12.851   0.310
18043W        W90468  39.515  38.049   0.965
18044W        W90469  38.370  27.584  13.458
18045W        W90470   8.693  12.687  13.941
18046W        W90471  13.187  12.802  13.354
18047W        W90472  21.041  19.279   4.637
18048W        W90473   6.412   4.279   2.303
18049W        W90474   8.764  24.116   3.701
18050W        W90475  15.731  21.588   4.330
18051W        W90476   0.783  18.144  10.973
18052W        W90477  21.254  42.323  10.561
18053W        W90478   2.333   0.913  12.996
18054W        W90479   2.297  29.924   0.304
18055W        W90480  40.039  15.102  12.965
18056W        W90481  19.712  14.144  13.040
18057W        W90482  12.183   0.882  12.415
18058W        W90483  25.579  24.106  14.334
18059W        W90484  11.300  35.974  10.933
18060W        W90485  14.147  34.548  12.520
18061W        W90486  40.391  40.905   0.386
18062W        W90487   2.820  17.262  10.411
18063W        W90488  44.315  40.307  12.534
18064W        W90489   1.272  26.556   3.800
18065W        W90490   2.239   6.215  11.377
18066W        W90491   9.224   4.757  14.404
18067W        W90492  21.722  16.239  11.560
18068W        W90493  29.609  13.214   2.323
18069W        W90494  42.314   6.203  10.921
18070W        W90495   9.695   8.765  14.937
18071W        W90496  27.507  44.995   4.219
18072W        W90497  22.580   2.772   2.178
18073W        W90498  17.170   3.862  13.498
18074W        W90499  42.500  19.090   4.248
18075W        W90500   4.391  26.199   2.216
18076W        W90501  13.617  20.237  11.380
18077W        W90502  12.676  15.648   0.453
18078W        W90503  21.560   9.776   2.664
18079W        W90504  15.231   1.295  14.474
18080W        W90505  13.309   6.701   2.268
18081W        W90506   9.284  19.211   4.810
18082W        W90507  36.593  20.235   2.388
18083W        W90508  39.341  42.410  10.020
18084W        W90509  34.106  35.485   0.876
18085W        W90510  24.511  15.681   0.891
18086W        W90511   0.889  41.457  10.089
18087W        W90512   0.257  42.372  12.378
18088W        W90513  21.655  19.699  10.983
18089W        W90514  13.696   8.255   1.722
18090W        W90515  42.999   2.394   3.810
18091W        W90516  23.501  44.457  10.046
18092W        W90517   4.390  23.003  14.830
18093W        W90518  26.124  32.421  11.954
18094W        W90519   1.838  13.655   1.810
18095W        W90520  30.110  33.384   0.747
18096W        W90521  13.646  42.524   1.817
18097W        W90522   9.785  31.999  11.405
18098W        W90523   5.727  29.149  14.017
18099W        W90524  25.003   6.829   4.200
18100W        W90525  36.364  12.269   3.734
18101W        W90526  14.154  44.474   1.288
18102W        W90527  20.674  35.442   4.346
18103W        W90528  28.100  32.582   3.160
18104W        W90529  35.378  43.380  12.400
18105W        W90530   9.670   9.332   9.944
18106W        W90531  15.790   0.321   0.831
18107W        W90532  26.551  27.656  11.534
18108W        W90533  43.380  17.140   1.260
18109W        W90534  27.074  37.436  14.760
18110W        W90535   8.281   1.334  10.913
18111W        W90536  19.608  40.820  10.551
18112W        W90537   7.838  13.173  14.761
18113W        W90538  26.171  33.012   0.308
18114W        W90539  37.366  16.582  11.012
18115W        W90540  19.270   5.210   0.760
18116W        W90541   7.341  34.372   4.835
18117W        W90542  21.649   8.800   9.592
18118W        W90543  40.316  44.824   5.597
18119W        W90544  43.807  37.432  13.430
18120W        W90545  26.149  16.100  12.955
18121W        W90546  44.358  14.206   3.281
18122W        W90547  19.245  11.782  10.460
18123W        W90548  10.660   7.769   1.823
18124W        W90549  38.526  20.034  11.561
18125W        W90550  34.518  12.124  13.424
18126W        W90551  13.799  30.006  13.546
18127W        W90552  39.999  43.980   9.993
18128W        W90553  36.527  13.745  10.417
18129W        W90554  26.498  14.648  13.030
18130W        W90555   7.216  26.993  12.543
18131W        W90556  37.423  28.435   0.402
18132W        W90557  23.137  40.464  12.348
18133W        W90558  25.581  44.760  10.457
18134W        W90559  10.336  39.967   2.185
18135W        W90560   2.425  18.280  12.443
18136W        W90561  15.205  15.821  13.906
18137W        W90562  38.460  28.167  11.465
18138W        W90563  22.720  10.276  13.978
18139W        W90564  10.248  11.837   3.839
18140W        W90565  34.602  26.146   1.295
18141W        W90566   0.829  29.574   4.609
18142W        W90567  22.112  18.649  14.491
18143W        W90568  16.654  32.448   4.635
18144W        W90569  26.026  44.488   2.280
18145W        W90570  24.185  36.996   2.826
18146W        W90571  29.436   7.295  12.997
18147W        W90572  15.696  44.982   2.337
18148W        W90573  36.553  10.202  11.548
18149W        W90574   4.347  33.458  12.917
18150W        W90575  30.929   5.429   0.940
18151W        W90576  22.539  39.407   2.881
18152W        W90577   0.908   8.744   1.417
18153W        W90578   9.733  33.958   0.928
18154W        W90579  39.831  21.635  11.991
18155W        W90580  15.617  32.530   0.965
18156W        W90581   3.288  18.639  13.400
18157W        W90582  41.856  35.386   3.693
18158W        W90583  25.624  42.842   0.885
18159W        W90584  14.228  12.310   3.782
18160W        W90585  11.252  40.835  14.863
18161W        W90586   7.302  24.558   3.714
18162W        W90587  26.123  14.763  12.952
18163W        W90588  30.445  42.527  11.070
18164W        W90589  28.006  28.626  14.456
18165W        W90590  19.694   3.461   3.833
18166W        W90591  44.344   4.761   3.310
18167W        W90592   9.660  21.591   3.322
18168W        W90593  12.252   2.805  10.606
18169W        W90594   6.316  25.990   2.890
18170W        W90595  11.259  16.634   4.705
18171W        W90596  44.436  32.424  12.826
18172W        W90597  41.890   4.447   2.768
18173W        W90598   2.350  10.297  11.003
18174W        W90599  32.895  15.154   3.336
18175W        W90600  33.563  10.852   1.290
18176W        W90601  10.334  29.132   1.694
18177W        W90602  13.182  10.866  10.612
18178W        W90603  21.111  14.269   1.356
18179W        W90604   9.218  14.127   1.917
18180W        W90605  42.503   5.798  10.435
18181W        W90606  34.594  27.189  12.021
18182W        W90607   4.710  30.078  12.538
18183W        W90608  36.995  41.885   4.335
18184W        W90609  22.656  39.936  12.568
18185W        W90610  16.271   6.864   2.376
18186W        W90611  44.803   2.312  13.435
18187W        W90612  38.020  33.537   0.265
18188W        W90613  29.448   3.750  10.416
18189W        W90614  27.516  33.529  13.005
18190W        W90615   4.237   4.385   2.679
18191W        W90616  14.629  16.615  14.450
18192W        W90617  32.470  35.571   3.820
18193W        W90618   0.291   7.407  14.278
18194W        W90619   7.193  19.094   4.785
18195W        W90620  24.601   4.247   1.423
18196W        W90621  11.161  15.265  10.951
18197W        W90622  21.660   6.284  12.089
18198W        W90623  29.982  17.231  13.978
18199W        W90624  33.977  39.320  12.566
18200W        W90625  18.684  31.153   0.343
18201W        W90626  42.344  28.996  12.559
18202W        W90627  19.268  36.017   1.818
18203W        W90628  37.529  44.264  11.916
18204W        W90629  37.833  13.836  12.483
18205W        W90630  10.789  37.418  11.513
18206W        W90631  39.326  13.320  14.873
18207W        W90632  36.542  12.141  14.315
18208W        W90633   4.778  40.376   4.781
18209W        W90634  27.147  11.808  10.916
18210W        W90635  23.062   9.708   0.935
18211W        W90636  24.636  22.666  12.578
18212W        W90637  19.624  13.682  14.897
18213W        W90638  33.104  17.085   2.828
18214W        W90639  44.811  18.558  13.866
18215W        W90640  39.453  34.982   0.401
18216W        W90641  43.818  14.730   1.284
18217W        W90642   0.482  23.199   4.165
18218W        W90643  20.107  30.952   0.407
18219W        W90644   2.907  19.658   2.320
18220W        W90645  21.098  19.163   2.289
18221W        W90646  34.401   4.290  10.531
18222W        W90647  39.326   1.263   4.148
18223W        W90648  13.752   5.219   4.808
18224W        W90649  40.549  44.480   3.749
18225W        W90650  28.039   2.957   2.900
18226W        W90651  44.488  30.416   1.352
18227W        W90652   2.812  23.716  12.475
18228W        W90653  26.533  34.506  14.830
18229W        W90654   7.759   6.368   3.739
18230W        W90655  14.761  40.355   3.347
18231W        W90656  21.179  21.667  12.923
18232W        W90657   5.308  27.128   3.214
18233W        W90658  33.051   3.264  11.383
18234W        W90659  16.107  30.432   1.393
18235W        W90660  10.232  16.762  13.817
18236W        W90661  29.449  43.871  11.448
18237W        W90662  31.503  24.601   3.700
18238W        W90663   1.799  38.333   4.283
18239W        W90664  32.062  30.432  10.974
18240W        W90665  14.185  11.138  12.575
18241W        W90666  28.000  26.969  12.826
18242W        W90667  18.612  19.108  13.452
18243W        W90668  19.053  15.259  12.519
18244W        W90669  40.433   9.158  10.620
18245W        W90670  24.571  16.705   3.224
18246W        W90671  24.113  34.428  11.010
18247W        W90672  20.151  43.857   4.185
18248W        W90673  28.556  22.045   1.222
18249W        W90674  35.451  23.995  14.837
18250W        W90675  15.620  24.064  13.349
18251W        W90676  37.011  36.432   3.194
18252W        W90677  37.914  33.425  14.289
18253W        W90678   6.365  43.401  11.572
18254W        W90679  12.756  40.021  14.396
18255W        W90680  17.157  25.633   4.304
18256W        W90681  23.078   6.386  13.032
18257W        W90682   6.239  10.641  13.366
18258W        W90683  40.474  25.141  12.363
18259W        W90684  23.175  44.853  11.026
18260W        W90685   9.761  31.599  11.439
18261W        W90686  38.448  29.933  11.117
18262W        W90687   7.786   1.307  11.001
18263W        W90688   7.217  30.422   4.320
18264W        W90689   0.462  29.483  10.991
18265W        W90690  35.486   0.369  14.360
18266W        W90691   1.797  22.237  12.891
18267W        W90692  24.008  24.591  14.417
18268W        W90693  33.616  42.836   1.910
18269W        W90694  34.864  18.778  11.600
18270W        W90695  37.514   7.309   4.693
18271W        W90696  43.456  39.880  14.463
18272W        W90697  16.649  33.420   4.631
18273W        W90698  16.722  11.216  11.027
18274W        W90699  37.391  40.851  14.281
18275W        W90700   7.243   0.785   0.892
18276W        W90701   6.407  11.182  10.489
18277W        W90702  31.930   8.191   1.369
18278W        W90703  25.484  36.493  13.808
18279W        W90704  28.530   6.690   1.311
18280W        W90705  38.950  20.696   4.330
18281W        W90706  34.524  44.307   1.280
18282W        W90707  28.647   7.347  14.378
18283W        W90708  43.351   6.251   4.782
18284W        W90709  29.478   5.690   4.199
18285W        W90710  37.973  10.207  13.839
18286W        W90711  22.557  41.963  10.571
18287W        W90712  44.335  33.029  13.949
18288W        W90713   4.782  15.305  11.406
18289W        W90714  40.369  38.042   1.761
18290W        W90715  10.751  37.061  12.420
18291W        W90716  33.438  19.275  13.500
18292W        W90717  20.588  38.342   4.337
18293W        W90718  39.442  25.986  13.984
18294W        W90719   8.166  36.065  11.586
18295W        W90720  30.978   3.901   2.362
18296W        W90721  44.278   5.291  13.934
18297W        W90722  14.110   6.874  12.053
18298W        W90723  37.434  24.672  14.795
18299W        W90724  25.154  27.142   0.334
18300W        W90725  41.438  35.029   0.253
18301W        W90726  13.604  16.778  12.445
18302W        W90727  19.079  28.663  11.033
18303W        W90728  42.506  38.496  14.502
18304W        W90729   6.194  38.443  12.041
18305W        W90730  26.699  22.192  12.047
18306W        W90731  19.060   0.458  10.481
18307W        W90732  21.753  14.113  13.873
18308W        W90733  29.129  26.988   3.202
18309W        W90734  26.481  17.567  11.506
18310W        W90735  13.118  20.157  10.958
18311W        W90736   2.470  44.888   2.895
18312W        W90737   6.239  24.567   4.674
18313W        W90738  35.008  43.393  12.037
18314W        W90739   2.296  43.881   0.277
18315W        W90740  44.276  10.314  11.098
18316W        W90741  17.195  15.632   1.418
18317W        W90742  41.883  10.685  14.858
18318W        W90743  15.090   2.726   0.852
18319W        W90744  19.145   9.866   4.621
18320W        W90745  19.145  29.592   4.757
18321W        W90746  34.105  28.133   2.416
18322W        W90747  29.480  30.659   0.891
18323W        W90748  30.100  24.606  11.060
18324W        W90749  13.746   8.783  13.948
18325W        W90750  33.956  15.689  13.486
18326W        W90751  15.285  27.989   3.795
18327W        W90752   2.802  34.974  14.465
18328W        W90753  22.617  33.073  10.631
18329W        W90754  21.551   0.878   0.903
18330W        W90755  17.658  26.132  12.419
18331W        W90756  40.806  15.742  14.890
18332W        W90757  44.443  17.721   3.373
18333W        W90758  33.531  13.828   3.823
18334W        W90759  13.801  29.668  13.538
18335W        W90760  15.201  37.523  10.623
18336W        W90761  16.611  10.659   1.820
18337W        W90762  16.171  19.538   1.793
18338W        W90763  25.975  19.678  11.578
18339W        W90764   4.877  10.357  10.525
18340W        W90765  12.786  40.038  10.950
18341W        W90766  40.502  17.574   0.942
18342W        W90767  37.016   2.333  11.073
18343W        W90768  37.955  14.826   0.877
18344W        W90769  22.084  23.074   2.854
18345W        W90770  39.460  40.406  12.440
18346W        W90771  30.025  36.381  14.379
18347W        W90772  27.598  36.457   0.408
18348W        W90773  39.874  38.916   0.742
18349W        W90774  15.804  41.892  12.050
18350W        W90775  30.589  28.643   4.317
18351W        W90776  24.109  14.724   0.943
18352W        W90777  43.826   3.797  12.959
18353W        W90778  38.820   1.294   4.273
18354W        W90779   3.367   2.826   0.928
18355W        W90780  42.407   5.931  14.890
18356W        W90781  28.963  10.717  10.602
18357W        W90782  18.769  39.442   4.678
18358W        W90783  15.268   9.700  13.839
18359W        W90784  21.518  16.239   1.270
18360W        W90785   5.904  14.807   2.862
18361W        W90786  31.554   8.879  12.533
18362W        W90787  10.799  24.096   2.878
18363W        W90788  30.959  31.427   2.315
18364W        W90789   2.396  18.585  10.558
18365W        W90790  34.936  44.466  11.090
18366W        W90791   9.265  10.355   1.247
18367W        W90792  39.942  13.300   1.259
18368W        W90793  44.949  19.597  13.046
18369W        W90794   7.808  20.211  14.872
18370W        W90795   1.252  44.460  11.919
18371W        W90796  41.403   4.249  10.587
18372W        W90797   8.162  34.941   2.201
18373W        W90798  32.965   6.217   1.786
18374W        W90799  23.026  23.067  14.292
18375W        W90800  29.631  33.561   4.184
18376W        W90801   8.292  29.517  11.586
18377W        W90802  35.078  37.834  12.960
18378W        W90803  30.442  40.008   4.249
18379W        W90804  32.076  44.936  11.908
18380W        W90805   2.874   2.442   1.236
18381W        W90806  21.677   4.262   3.674
18382W        W90807  40.013  37.445   2.251
18383W        W90808  35.357   9.224  11.867
18384W        W90809  29.601   1.781   0.327
18385W        W90810  41.905  20.672  11.068
18386W        W90811  38.470  30.440   0.811
18387W        W90812  22.218  35.997  14.761
18388W        W90813  21.258  18.592   0.320
18389W        W90814  41.926  15.823  11.401
18390W        W90815  36.475  10.854  14.422
18391W        W90816  33.482   2.836   2.388
18392W        W90817  22.698  34.600   0.303
18393W        W90818   5.821   9.670  11.432
18394W        W90819   1.893  18.189  10.509
18395W        W90820  34.943  31.031   2.324
18396W        W90821  11.626  16.582  11.960
18397W        W90822  26.087  26.991   2.678
18398W        W90823  41.444   0.414   2.892
18399W        W90824  24.017   6.396   0.808
18400W        W90825  19.283  27.100  12.012
18401W        W90826  14.635  27.127  12.939
18402W        W90827  39.402  39.391   0.953
18403W        W90828  16.221  36.538   1.760
18404W        W90829  25.986   2.440   1.790
18405W        W90830  43.787   0.465   2.214
18406W        W90831  38.974  34.875  14.496
18407W        W90832  28.542  20.668  14.510
18408W        W90833  34.568  44.815   4.706
18409W        W90834  36.981  15.701   3.181
18410W        W90835  19.158  43.859  11.126
18411W        W90836  19.610  18.782   2.699
18412W        W90837   7.790  40.315  14.455
18413W        W90838  27.609   8.750   3.843
18414W        W90839   1.797  30.017   4.291
18415W        W90840  27.056  34.875  11.105
18416W        W90841  27.981  11.814  11.437
18417W        W90842  38.045  13.715   3.798
18418W        W90843  34.441   6.690   0.350
18419W        W90844  31.049  24.052  10.631
18420W        W90845  26.181  42.407   1.783
18421W        W90846  37.507  43.373   5.229
18422W        W90847  40.948  13.841  11.436
18423W        W90848  42.312  14.666   2.225
18424W        W90849  11.164   0.439   3.176
18425W        W90850  13.845  38.851  14.496
18426W        W90851  21.648  38.827  10.068
18427W        W90852  13.736  41.508  12.852
18428W        W90853   6.701  13.314  12.961
18429W        W90854  11.821  23.725   1.377
18430W        W90855  24.646  44.474   3.222
18431W        W90856  27.047  40.356  14.312
18432W        W90857  11.358  43.947  10.584
18433W        W90858  13.346  39.891   4.176
18434W        W90859  35.061   5.847   3.642
18435W        W90860  19.659  34.962  11.018
18436W        W90861   9.211  24.152   4.303
18437W        W90862   8.713  36.851   0.806
18438W        W90863  34.606  14.689  11.394
18439W        W90864  42.442  12.828  12.452
18440W        W90865  27.173  34.544  13.843
18441W        W90866  32.414  31.083  12.576
18442W        W90867  15.260   8.747  12.026
18443W        W90868   0.791  22.625  12.843
18444W        W90869  12.629   1.903   0.953
18445W        W90870  40.334  42.438   4.625
18446W        W90871  23.228   2.772   4.802
18447W        W90872   2.886  14.787   0.782
18448W        W90873  29.151  10.349  14.987
18449W        W90874  33.062  32.926   0.767
18450W        W90875  22.667  17.117   3.190
18451W        W90876  30.446   3.220  13.053
18452W        W90877   2.926   5.298   2.742
18453W        W90878   3.295   0.879  12.890
18454W        W90879  23.605  43.378  10.940
18455W        W90880   5.426   5.742   3.810
18456W        W90881  36.588  31.003   2.867
18457W        W90882  41.843  13.304   0.279
18458W        W90883  43.997  20.103  14.494
18459W        W90884  25.151  10.735  12.888
18460W        W90885  19.204  39.370   0.416
18461W        W90886  23.078   0.406  10.416
18462W        W90887  22.550  43.900  10.444
18463W        W90888   8.348  22.653  11.885
18464W        W90889  25.078  11.181   3.159
18465W        W90890  42.870  18.167   1.929
18466W        W90891   1.848  28.459   4.200
18467W        W90892  37.525  33.125  12.407
18468W        W90893  39.461  22.102   2.773
18469W        W90894  24.485  20.600  11.104
18470W        W90895   2.851  36.060  12.525
18471W        W90896  43.902  41.460  11.931
18472W        W90897   5.863  19.168   1.861
18473W        W90898  28.976  25.147   1.213
18474W        W90899  16.593  21.113  13.009
18475W        W90900  25.660   5.391   3.778
18476W        W90901   5.222  32.403   3.293
18477W        W90902  27.943  15.738  10.047
18478W        W90903  13.118  35.963   2.693
18479W        W90904  36.847   0.448  14.467
18480W        W90905  44.486  27.451  10.975
18481W        W90906  41.842  30.631   4.627
18482W        W90907  18.067  32.468  11.535
18483W        W90908  14.301   4.874   2.778
18484W        W90909  33.621  39.993   2.815
18485W        W90910  19.076  36.092  12.479
18486W        W90911  10.658  42.466  12.356
18487W        W90912   1.258   9.881   2.291
18488W        W90913  10.363  12.810   5.256
18489W        W90914  41.813  33.558  13.335
18490W        W90915  19.159  18.144   0.748
18491W        W90916  27.004   6.188  11.424
18492W        W90917   2.319  39.402   1.887
18493W        W90918  30.477  28.004  14.388
18494W        W90919  44.419  18.748   3.693
18495W        W90920  12.142   8.257  13.456
18496W        W90921  43.838  31.535   1.217
18497W        W90922  23.554  38.540  12.012
18498W        W90923   8.393  26.163  13.983
18499W        W90924  22.997  17.105  10.549
18500W        W90925  18.710   7.222  10.626
18501W        W90926  40.836  24.098  14.780
18502W        W90927  23.171   8.218  10.557
18503W        W90928  42.441  36.447   0.890
18504W        W90929  37.921  24.595  12.060
18505W        W90930  25.198   6.890   1.789
18506W        W90931  12.159  41.794   1.836
18507W        W90932  43.478   8.797  12.026
18508W        W90933   4.753  24.049   1.864
18509W        W90934  19.644   0.966  14.803
18510W        W90935  15.259   8.763  14.865
18511W        W90936  20.177  24.030  12.900
18512W        W90937  25.531   9.157   0.402
18513W        W90938  32.392   6.361   3.311
18514W        W90939   3.410  39.857   1.835
18515W        W90940  28.945  13.259   1.281
18516W        W90941  22.721  11.765   2.286
18517W        W90942  26.621  31.908  10.127
18518W        W90943  42.889   8.342  14.382
18519W        W90944  12.182  13.669  12.443
18520W        W90945  16.783   8.884  11.599
18521W        W90946  34.438  33.108   2.207
18522W        W90947  19.554  21.116  10.486
18523W        W90948  40.014  22.153   1.393
18524W        W90949   3.340   5.900  13.459
18525W        W90950   1.391  13.637   4.331
18526W        W90951  31.146   7.277   4.312
18527W        W90952   1.422  36.440   4.180
18528W        W90953  42.974   7.347   0.756
18529W        W90954  17.104   0.345   4.772
18530W        W90955   6.898  22.063   0.909
18531W        W90956  40.874  44.949   2.711
18532W        W90957  11.204  33.496   2.812
18533W        W90958   5.400   3.458   1.738
18534W        W90959  24.096   3.843   1.440
18535W        W90960  40.952   5.870  14.999
18536W        W90961  33.535   7.393   0.472
18537W        W90962  38.490  24.682   2.721
18538W        W90963   0.778  44.308   2.864
18539W        W90964  25.211  23.117  14.779
18540W        W90965   9.810   5.319   2.293
18541W        W90966   7.208  13.305  14.306
18542W        W90967  36.845  43.954   3.747
18543W        W90968  27.045   7.205   4.328
18544W        W90969   6.242  44.775   1.781
18545W        W90970  27.629  39.328  12.565
18546W        W90971  15.753  12.666  10.036
18547W        W90972   4.861   3.236  13.468
18548W        W90973  11.369  34.563  13.427
18549W        W90974   8.356  25.546  14.947
18550W        W90975  12.199   7.866   3.714
18551W        W90976  23.096   8.199  14.376
18552W        W90977   9.327   7.793  14.326
18553W        W90978  44.297  17.560  10.524
18554W        W90979  42.834  19.722  10.565
18555W        W90980  21.659   5.262   2.276
18556W        W90981  11.207  22.087  13.018
18557W        W90982  14.594  33.908   4.159
18558W        W90983  18.779  15.804   4.646
18559W        W90984  17.575  39.836  11.009
18560W        W90985  21.128  35.564  11.469
18561W        W90986  41.354  26.124  12.366
18562W        W90987  32.961   8.304  14.815
18563W        W90988  44.813  17.253   3.807
18564W        W90989   8.743  41.313  13.347
18565W        W90990  12.668  14.215  10.509
18566W        W90991  13.219  15.744   4.337
18567W        W90992   6.189  34.943  10.475
18568W        W90993   2.437  19.138   0.262
18569W        W90994  36.954  14.120  11.857
18570W        W90995  10.224  13.716  12.018
18571W        W90996  17.603   3.938  12.503
18572W        W90997  13.311  35.483  10.436
18573W        W90998  24.714  11.678   5.226
18574W        W90999  24.571  29.460   1.714
18575W        W91000  21.068  38.412   3.812
18576W        W91001  36.448  29.139   2.850
18577W        W91002  16.582   6.231   3.704
18578W        W91003  13.624  17.588   3.263
18579W        W91004  43.867  35.579  10.499
18580W        W91005   3.244  34.110  14.793
18581W        W91006  29.009  26.990  12.536
18582W        W91007  24.191   4.407   0.376
18583W        W91008   2.235  43.275  12.865
18584W        W91009  34.890  34.428   0.778
18585W        W91010  26.492  42.804  14.356
18586W        W91011   6.700  44.754   2.237
18587W        W91012  22.739  20.628  10.971
18588W        W91013  39.431   9.875  10.427
18589W        W91014  12.839  25.205  10.539
18590W        W91015  40.022  22.554   2.312
18591W        W91016  19.608  35.060   4.806
18592W        W91017  36.388  44.349   4.124
18593W        W91018   2.229  15.199   3.296
18594W        W91019  35.962   3.371   2.399
18595W        W91020  26.203  44.405   0.900
18596W        W91021  40.005  44.900  14.912
18597W        W91022  26.469  33.918   1.814
18598W        W91023  18.603  11.748  13.423
18599W        W91024   9.332  34.483   1.712
18600W        W91025  27.050  26.492  11.518
18601W        W91026   3.824  18.748   2.407
18602W        W91027   1.746   2.382  12.354
18603W        W91028   5.410   5.895  13.848
18604W        W91029  24.536  12.215   4.809
18605W        W91030  18.565  44.816   2.863
18606W        W91031  33.452  21.561  14.832
18607W        W91032  19.194  35.602  11.948
18608W        W91033  22.111  35.563  14.329
18609W        W91034  13.196  28.493   3.329
18610W        W91035   1.395  37.480   1.403
18611W        W91036  25.024  22.541  12.850
18612W        W91037  19.637  40.931  14.512
18613W        W91038  40.931  33.118   4.754
18614W        W91039   1.887  22.027   3.786
18615W        W91040  10.241  21.260   1.709
18616W        W91041  31.050   5.806   0.853
18617W        W91042  26.099  25.711   1.243
18618W        W91043  31.556  24.588  12.927
18619W        W91044  44.844   1.276   3.818
18620W        W91045   4.821  34.910  12.887
18621W        W91046  16.174  30.589   3.247
18622W        W91047  34.437   8.879   1.853
18623W        W91048   6.243  11.343  14.434
18624W        W91049  25.177  12.157   2.840
18625W        W91050  18.152  17.778   0.431
18626W        W91051  25.561  19.631   3.258
18627W        W91052  27.462  20.665   3.338
18628W        W91053  23.607  41.866   3.698
18629W        W91054  32.437  21.674  12.921
18630W        W91055   1.740  10.814  14.484
18631W        W91056  33.380  15.147  11.945
18632W        W91057  34.543   0.895  14.416
18633W        W91058  28.478  41.403   4.717
18634W        W91059  14.612  22.077   2.827
18635W        W91060   4.245  22.070  12.854
18636W        W91061   4.892   5.816  10.014
18637W        W91062  42.986   0.968  14.489
18638W        W91063   8.680  42.859   3.237
18639W        W91064  36.984  14.795  11.082
18640W        W91065  34.479  14.118   0.821
18641W        W91066  22.586  35.433   1.861
18642W        W91067  15.761  34.080   4.619
18643W        W91068  28.611   9.366   1.745
18644W        W91069  22.203  22.148   4.133
18645W        W91070  22.530  10.291   5.106
18646W        W91071  37.552  20.536   4.118
18647W        W91072  42.975  34.974  14.450
18648W        W91073  22.020  13.288  13.498
18649W        W91074  17.275  39.944  13.838
18650W        W91075  34.958  29.123   4.650
18651W        W91076   7.304  25.080  14.908
18652W        W91077   1.971  13.325   3.234
18653W        W91078  10.860  18.654   0.889
18654W        W91079  35.866  36.980  14.935
18655W        W91080  19.716  43.500  11.076
18656W        W91081   7.278  36.853  11.081
18657W        W91082   4.856  13.790  11.910
18658W        W91083  42.500  24.003  13.423
18659W        W91084  38.534  44.474   0.747
18660W        W91085  28.929  13.839   0.731
18661W        W91086  28.959  39.497  14.439
18662W        W91087  15.787  23.237   1.821
18663W        W91088  28.032  32.471   5.216
18664W        W91089  27.632   6.358   0.437
18665W        W91090   3.949  13.798   3.773
18666W        W91091  16.118   1.350   9.442
18667W        W91092  23.604  35.908   3.752
18668W        W91093  34.457  27.548   2.410
18669W        W91094  23.687   4.805  11.508
18670W        W91095  11.278  10.715   0.938
18671W        W91096  10.306   3.268  14.771
18672W        W91097   0.822  26.051   1.905
18673W        W91098   8.384  32.455  12.897
18674W        W91099   2.835  39.838  11.051
18675W        W91100  19.748  21.746  11.442
18676W        W91101  10.305  36.573   0.464
18677W        W91102  20.541  15.264  10.525
18678W        W91103  11.787  10.252  12.926
18679W        W91104  34.479  38.932   4.826
18680W        W91105  30.483  20.656  11.955
18681W        W91106  33.398  41.795  11.423
18682W        W91107  42.325  13.668  11.128
18683W        W91108  27.547   3.377   2.188
18684W        W91109  14.620  10.141  12.370
18685W        W91110  11.366  36.084  13.502
18686W        W91111  37.870  28.940  10.924
18687W        W91112  38.932   0.460  13.511
18688W        W91113  22.055  36.856   4.784
18689W        W91114  17.211   9.333   4.624
18690W        W91115   7.171  39.004  12.434
18691W        W91116   5.400  38.964   1.844
18692W        W91117  17.558  21.626  12.469
18693W        W91118  12.711  25.976  14.516
18694W        W91119   8.299  13.803   1.321
18695W        W91120  44.378   9.775  10.503
18696W        W91121  23.654   3.758   1.710
18697W        W91122   8.784  24.596  12.513
18698W        W91123  32.393  31.919  13.969
18699W        W91124  31.046  10.244   3.203
18700W        W91125  30.156  42.895   4.693
18701W        W91126  13.664  33.106  13.332
18702W        W91127  14.709  33.393  10.125
18703W        W91128  14.259  33.987  13.993
18704W        W91129   7.387  11.746  14.914
18705W        W91130   9.335   3.439   2.854
18706W        W91131  20.060  12.142  13.042
18707W        W91132  10.791   2.852   1.697
18708W        W91133  34.497  23.648   4.314
18709W        W91134  44.993  29.511   1.755
18710W        W91135  20.180  19.629  10.040
18711W        W91136  31.617  41.299  12.546
18712W        W91137  32.112  38.841   4.223
18713W        W91138   4.276  35.563   3.692
18714W        W91139  16.720   0.923   5.264
18715W        W91140   7.853   7.818   3.833
18716W        W91141  40.484   9.846   4.259
18717W        W91142  35.577  18.753  11.572
18718W        W91143  21.077  39.530  12.969
18719W        W91144   6.223  16.098   4.229
18720W        W91145  18.645   8.705   9.969
18721W        W91146  12.136  43.432  12.429
18722W        W91147   4.783  32.040   4.681
18723W        W91148  41.017  20.656  14.302
18724W        W91149  34.556  17.689   2.707
18725W        W91150  14.098  41.908  14.960
18726W        W91151  42.840  12.269   0.859
18727W        W91152  44.937  36.005  12.506
18728W        W91153  39.444  10.843  12.851
18729W        W91154  30.587  19.756   1.431
18730W        W91155  15.099  14.294  10.573
18731W        W91156  10.637  32.484  12.542
18732W        W91157   0.747  44.767  10.582
18733W        W91158   3.268  18.697   4.348
18734W        W91159  17.666   7.770   3.276
18735W        W91160  32.985  14.217   3.288
18736W        W91161  36.865  36.381   1.768
18737W        W91162   9.392  10.190  12.398
18738W        W91163   3.876  42.007  10.931
18739W        W91164  18.757  13.252  10.541
18740W        W91165  39.498  31.608   1.742
18741W        W91166   7.191  11.804   3.321
18742W        W91167  35.410  27.961   4.332
18743W        W91168  24.481  43.492   0.850
18744W        W91169  43.441  18.102  14.446
18745W        W91170  37.523   7.398  13.338
18746W        W91171  38.325  41.797  12.991
18747W        W91172   4.699  27.456  13.861
18748W        W91173  44.995  24.035   2.277
18749W        W91174  19.597  21.200   4.694
18750W        W91175  38.831  17.559  10.895
18751W        W91176  14.144  36.016  14.903
18752W        W91177  16.696   2.252  14.320
18753W        W91178  27.089   9.185  11.856
18754W        W91179  40.038  37.505  12.053
18755W        W91180  20.058  16.749   0.787
18756W        W91181  30.541   9.165   4.308
18757W        W91182  11.315  16.745   3.727
18758W        W91183  33.075   8.339   1.385
18759W        W91184  26.481  36.044   0.827
18760W        W91185  13.108   6.187   0.967
18761W        W91186  19.667  37.956  13.907
18762W        W91187   5.814  20.250   4.602
18763W        W91188  20.656  41.956   2.665
18764W        W91189  14.157  43.485  12.508
18765W        W91190  29.563   9.722   1.890
18766W        W91191  14.726  33.484  14.957
18767W        W91192  28.986  20.706   0.436
18768W        W91193  28.023  12.148   1.440
18769W        W91194  10.348   7.667   0.287
18770W        W91195  26.575  37.515   3.309
18771W        W91196  40.410  20.190   3.688
18772W        W91197  16.273  26.601  11.381
18773W        W91198  10.334  11.706  13.472
18774W        W91199  44.814  20.116  12.422
18775W        W91200  41.534   3.269   3.288
18776W        W91201   4.707   5.304   4.647
18777W        W91202  39.390  16.680   3.789
18778W        W91203  19.763  20.570  12.481
18779W        W91204   2.426  26.062   1.265
18780W        W91205  38.444  36.404   0.839
18781W        W91206   1.832  11.821  11.489
18782W        W91207  30.557  25.707  14.484
18783W        W91208  19.548  26.128   2.198
18784W        W91209  24.139  37.830  11.453
18785W        W91210  26.663  23.615   3.676
18786W        W91211   4.919   4.287  13.370
18787W        W91212   4.350  31.910  14.958
18788W        W91213   9.203  28.615  14.978
18789W        W91214  11.250   9.307  12.907
18790W        W91215  22.043   8.330   0.394
18791W        W91216   6.892   7.204  10.422
18792W        W91217  37.833  33.957   2.360
18793W        W91218   8.866  38.018   2.195
18794W        W91219  26.608   4.234  11.378
18795W        W91220  32.930  13.677   1.246
18796W        W91221  31.934   1.940  10.610
18797W        W91222  38.356  23.550  12.927
18798W        W91223  32.455  17.574  11.896
18799W        W91224  34.974   6.349   3.709
18800W        W91225   0.454  40.436   0.390
18801W        W91226  31.632  28.436  13.814
18802W        W91227  38.946  34.009   1.218
18803W        W91228  42.447  40.928   2.318
18804W        W91229  41.379  44.989   3.261
18805W        W91230  23.039  19.744  13.901
18806W        W91231  27.145  10.788  14.380
18807W        W91232  38.842  26.602   4.693
18808W        W91233   5.302  44.970  10.527
18809W        W91234  17.578   1.834   4.643
18810W        W91235  38.894  16.790  12.061
18811W        W91236  36.895  23.213  14.799
18812W        W91237  32.903  18.141   0.772
18813W        W91238  12.116  20.262   1.733
18814W        W91239  44.903  19.728  12.442
18815W        W91240  30.440  24.978   3.674
18816W        W91241  16.220  22.545   4.160
18817W        W91242  36.371  19.133   0.801
18818W        W91243   3.814  31.125  14.822
18819W        W91244   1.892  17.725   1.380
18820W        W91245  35.089  31.909  11.890
18821W        W91246  16.152  25.038   3.232
18822W        W91247  20.626  42.933  13.981
18823W        W91248  11.695  24.655  13.949
18824W        W91249  34.589  44.298  11.591
18825W        W91250  41.437   7.670  12.446
18826W        W91251   2.903   2.938  11.573
18827W        W91252  37.352  37.528  14.442
18828W        W91253  35.945   2.264   2.903
18829W        W91254  17.090  14.311   3.294
18830W        W91255  39.934  33.956  12.398
18831W        W91256  26.499  31.972  13.965
18832W        W91257  27.667  11.129  12.952
18833W        W91258  28.579  17.650  11.878
18834W        W91259  42.384  30.430   0.807
18835W        W91260  34.425   1.366  10.511
18836W        W91261  11.193  32.958  13.899
18837W        W91262  33.481  18.115  13.924
18838W        W91263  36.014   0.251  13.998
18839W        W91264  17.159  31.143   0.250
18840W        W91265  11.184  21.123   0.434
18841W        W91266  37.867  41.826  13.901
18842W        W91267  11.708  43.911  13.399
18843W        W91268  18.725   4.902   5.163
18844W        W91269  30.596   6.719  11.073
18845W        W91270  36.094   4.743  12.070
18846W        W91271  13.793  33.602  14.427
18847W        W91272  30.020   0.792   1.218
18848W        W91273  16.580   1.886  10.537
18849W        W91274  22.645  11.162  13.014
18850W        W91275  25.150  24.196   2.258
18851W        W91276  35.086   3.278   4.699
18852W        W91277  42.425  40.033  13.866
18853W        W91278  24.704  38.560  13.021
18854W        W91279  24.550   6.748   3.743
18855W        W91280   1.329  24.102  12.356
18856W        W91281  11.155  20.658   2.292
18857W        W91282  30.085  12.638   3.186
18858W        W91283  38.458   9.807  12.459
18859W        W91284  16.747   2.808  13.826
18860W        W91285  12.275  41.854  14.318
18861W        W91286  44.286  19.141   1.288
18862W        W91287  20.747  41.305   3.793
18863W        W91288  27.971  37.041   0.314
18864W        W91289  14.670  12.657   4.314
18865W        W91290   3.448  19.268  13.322
18866W        W91291  35.087  39.560   4.691
18867W        W91292  35.032   3.768  13.899
18868W        W91293  26.519   7.279  11.881
18869W        W91294   2.235  16.235   0.824
18870W        W91295  15.325  21.105  11.561
18871W        W91296  20.250  40.053  11.932
18872W        W91297  22.537  31.614  13.447
18873W        W91298  29.018  44.927  10.418
18874W        W91299  36.498  12.692  12.419
18875W        W91300  42.893  42.005  11.492
18876W        W91301   5.294  38.974   2.668
18877W        W91302  31.616  26.089  11.011
18878W        W91303  18.756   0.253  14.492
18879W        W91304  32.951  10.263   2.399
18880W        W91305  32.571  19.694   1.381
18881W        W91306  16.622  37.376  13.038
18882W        W91307  36.855  24.619  13.965
18883W        W91308  27.477  15.703  13.463
18884W        W91309  41.893   4.352  11.460
18885W        W91310   5.246  34.586  12.990
18886W        W91311  36.088  42.403   3.725
18887W        W91312  26.555  36.467   0.854
18888W        W91313  25.473   2.731   3.198
18889W        W91314  25.622   1.849  14.875
18890W        W91315   6.305  25.676   0.849
18891W        W91316  30.621  29.958  10.579
18892W        W91317  14.237  44.997  14.393
18893W        W91318  41.492  17.203   0.253
18894W        W91319  20.592   1.346  12.015
18895W        W91320   7.712  43.329  12.054
18896W        W91321   1.267   3.220   5.217
18897W        W91322  37.497   5.303   3.242
18898W        W91323  21.143  23.704  14.862
18899W        W91324   7.716  41.023   4.141
18900W        W91325  39.958  43.474   1.215
18901W        W91326   3.830  43.815  14.320
18902W        W91327   1.977  20.106   2.828
18903W        W91328  40.391  14.219   2.677
18904W        W91329   7.272  30.540  12.032
18905W        W91330   4.338   9.839   1.854
18906W        W91331  10.745  43.928   0.414
18907W        W91332  32.100   3.928  14.486
18908W        W91333  42.473  27.116   3.274
18909W        W91334  37.028  39.417   0.315
18910W        W91335   4.745  33.123   2.710
18911W        W91336   3.418   9.305   1.358
18912W        W91337  44.836  31.956   1.389
18913W        W91338  12.227  17.160  13.832
18914W        W91339  14.171  30.090   0.749
18915W        W91340  44.409  31.999   2.721
18916W        W91341  41.424  31.533  14.834
18917W        W91342  17.623  40.910  14.975
18918W        W91343  26.473  15.249  12.367
18919W        W91344  39.059  26.583  10.970
18920W        W91345  11.180  22.147   4.150
18921W        W91346  20.032  43.464  11.526
18922W        W91347  35.998  37.536   1.374
18923W        W91348   1.934  12.288  14.944
18924W        W91349  42.003  21.067   2.378
18925W        W91350  31.412  17.564   4.148
18926W        W91351  32.036   2.271   0.863
18927W        W91352  28.476  22.714   4.209
18928W        W91353  27.602  41.968  14.011
18929W        W91354   5.869  16.145   0.786
18930W        W91355  16.164  40.937  13.475
18931W        W91356  36.981  21.585   2.799
18932W        W91357  44.315  27.559   4.776
18933W        W91358  30.019  17.772   1.232
18934W        W91359  34.060   9.382   1.763
18935W        W91360   7.682  37.396  14.298
18936W        W91361   0.909  11.680  14.373
18937W        W91362  29.098  13.271   0.459
18938W        W91363  11.780  10.717  11.380
18939W        W91364  14.122  22.108   0.431
18940W        W91365  13.682  31.925  14.767
18941W        W91366  14.817  39.920   0.387
18942W        W91367  17.176  24.027   3.818
18943W        W91368  24.532  39.065  14.967
18944W        W91369   5.850   9.704  10.556
18945W        W91370  41.951  22.686   3.209
18946W        W91371  11.262  30.527   4.774
18947W        W91372  25.507  43.919  11.963
18948W        W91373   7.859  17.620   1.382
18949W        W91374  24.210   0.801  13.333
18950W        W91375  10.197  19.659  14.425
18951W        W91376   7.411  37.527   4.244
18952W        W91377  14.676  24.200  14.869
18953W        W91378  25.477  25.027   1.434
18954W        W91379  22.595  33.962   2.207
18955W        W91380  36.049   0.805  13.382
18956W        W91381  44.875  10.680   2.229
18957W        W91382  32.614   4.781  12.345
18958W        W91383  18.662  28.035   0.314
18959W        W91384  43.332   1.349   2.382
18960W        W91385  22.570   1.374   2.816
18961W        W91386  31.119  29.124   2.787
18962W        W91387  36.452  17.192  13.918
18963W        W91388  26.050  28.607   1.347
18964W        W91389  38.887   2.256  13.894
18965W        W91390   7.847   0.893  12.970
18966W        W91391  24.512  24.097  13.460
18967W        W91392  27.538   7.367  13.507
18968W        W91393  23.543  31.440  11.473
18969W        W91394   2.248  13.813  11.109
18970W        W91395   2.409  37.501   2.736
18971W        W91396  42.991  39.356  12.546
18972W        W91397   8.826  13.681  12.928
18973W        W91398  27.016  24.712   1.886
18974W        W91399  44.334  34.901  11.397
18975W        W91400   7.178  12.769   2.770
18976W        W91401  26.505  34.514   2.258
18977W        W91402  20.142  27.688   4.685
18978W        W91403   5.391  20.761   4.313
18979W        W91404   5.722  44.374   3.816
18980W        W91405   6.298  27.088  14.316
18981W        W91406  36.431  25.088  14.871
18982W        W91407   2.349  25.672   3.181
18983W        W91408   0.807  35.014  13.057
18984W        W91409  26.623  39.045  14.786
18985W        W91410  13.619  43.291   0.336
18986W        W91411  27.618  24.118   2.688
18987W        W91412   4.394   8.258   1.749
18988W        W91413  44.002  40.520   3.362
18989W        W91414  36.389  15.607   3.703
18990W        W91415  18.231  38.568   3.254
18991W        W91416  38.372  32.585   0.326
18992W        W91417  30.449  32.539   2.309
18993W        W91418  13.106   5.359   4.305
18994W        W91419  32.488  32.537   0.269
18995W        W91420  43.860  14.306  14.920
18996W        W91421  16.566  17.790   1.302
18997W        W91422  19.272  20.216   3.284
18998W        W91423  17.788  11.298  12.874
18999W        W91424  26.049  31.148   1.853
19000W        W91425  44.914  36.868  11.062
19001W        W91426  23.496   0.785  14.396
19002W        W91427  18.070   1.285  12.009
19003W        W91428  37.425   8.166  11.445
19004W        W91429  42.460  24.596  11.940
19005W        W91430  36.584  25.206   0.819
19006W        W91431  14.311  22.030  14.284
19007W        W91432  25.158  11.845  11.565
19008W        W91433  15.765   5.759   9.941
19009W        W91434  43.358  18.739  11.375
19010W        W91435   0.339   6.277   2.403
19011W        W91436  10.240   4.850  14.856
19012W        W91437   7.854  40.805  14.003
19013W        W91438  37.538   3.454  11.104
19014W        W91439  20.641  31.643   3.266
19015W        W91440  31.433  16.272   9.496
19016W        W91441  10.297  20.149  14.765
19017W        W91442  13.696  36.585   3.357
19018W        W91443  30.454  21.709   4.827
19019W        W91444   7.231  43.323   2.689
19020W        W91445   4.941  38.904  10.476
19021W        W91446  32.055  34.594  12.915
19022W        W91447   4.227  13.352  12.013
19023W        W91448  33.510  36.969   3.311
19024W        W91449  42.949   4.422  14.372
19025W        W91450  16.795  42.972   0.480
19026W        W91451   5.874  25.981   4.335
19027W        W91452  18.243  36.852  11.510
19028W        W91453  42.513  18.119  11.116
19029W        W91454  15.600  16.584  12.007
19030W        W91455   4.856  19.638   5.282
19031W        W91456  39.910   1.909  12.048
19032W        W91457  37.345  34.503  11.935
19033W        W91458  20.673   9.791   1.327
19034W        W91459  33.389  33.415  12.361
19035W        W91460   1.839   9.317  14.434
19036W        W91461   2.806  12.837   4.646
19037W        W91462  36.414  40.800   3.244
19038W        W91463  24.498  17.138   0.965
19039W        W91464   8.354  29.042  11.379
19040W        W91465  22.592  24.691  14.795
19041W        W91466  31.648  34.411   4.779
19042W        W91467   7.207  35.934  12.922
19043W        W91468  30.125  22.502  10.969
19044W        W91469  33.459  14.168  10.066
19045W        W91470  42.011  24.202   3.213
19046W        W91471  11.152  31.509   4.807
19047W        W91472  26.117  12.274   3.234
19048W        W91473  26.570  30.521   2.222
19049W        W91474  10.156   3.302   2.814
19050W        W91475  40.868  25.060   4.760
19051W        W91476  19.712  27.010  11.085
19052W        W91477  39.463  27.086   0.850
19053W        W91478  23.579  30.034  14.771
19054W        W91479   0.850  39.496   2.803
19055W        W91480  39.892  15.116   2.298
19056W        W91481   2.318  21.077  13.945
19057W        W91482   3.434  44.268   2.399
19058W        W91483   2.321  14.317   4.349
19059W        W91484   7.219  12.197   1.348
19060W        W91485   6.372  34.540   2.852
19061W        W91486  26.042  42.315   0.304
19062W        W91487   9.687   6.354   3.789
19063W        W91488  10.660  13.268   3.653
19064W        W91489  38.070   8.874  11.921
19065W        W91490   5.394  43.373   0.769
19066W        W91491  40.458  34.938  11.057
19067W        W91492  11.763  40.420   0.484
19068W        W91493  34.403  28.990  10.531
19069W        W91494  25.189  38.015  11.519
19070W        W91495  12.272  23.654  10.932
19071W        W91496   4.903  39.808   0.848
19072W        W91497  44.379  10.261   5.270
19073W        W91498  36.404  21.634  13.345
19074W        W91499  27.526  24.487   2.365
19075W        W91500  34.542  41.976   0.903
19076W        W91501  24.676  24.974   3.387
19077W        W91502  28.105  33.959   3.382
19078W        W91503  41.850  29.574   2.295
19079W        W91504  28.946   6.883   0.905
19080W        W91505  29.129  19.566   2.317
19081W        W91506   7.818  40.396  10.576
19082W        W91507  32.583  32.897   0.326
19083W        W91508  12.353  30.922   2.760
19084W        W91509  16.585  29.952  10.636
19085W        W91510  26.001   3.274   0.266
19086W        W91511   6.213   1.464   0.892
19087W        W91512  30.052  41.295  14.967
19088W        W91513  22.116  27.454  14.787
19089W        W91514  20.158  20.613  10.599
19090W        W91515   4.789   9.682  12.008
19091W        W91516  41.431  18.606   2.703
19092W        W91517  29.631  11.673  14.491
19093W        W91518  30.512  29.116  14.788
19094W        W91519  40.381  33.533  11.052
19095W        W91520  30.456  36.403  14.920
19096W        W91521  16.693  15.732   1.710
19097W        W91522  26.055  30.084  14.003
19098W        W91523  41.888  39.812  13.884
19099W        W91524  11.755  20.743   4.810
19100W        W91525   2.341  25.071  12.449
19101W        W91526  14.208  43.330   0.869
19102W        W91527   5.851  17.104  13.940
19103W        W91528   4.394  39.372  10.935
19104W        W91529  28.081   4.876   1.897
19105W        W91530  24.073   9.690  12.399
19106W        W91531  40.927  32.077  14.022
19107W        W91532  37.010  25.690  11.986
19108W        W91533  22.694  16.645  11.445
19109W        W91534  43.929  27.565  11.523
19110W        W91535   1.283  19.618  10.422
19111W        W91536   8.859  32.966   1.802
19112W        W91537  35.549  11.690   1.739
19113W        W91538  20.588  12.623   2.237
19114W        W91539  27.090  41.352   0.343
19115W        W91540   0.322  33.106  11.053
19116W        W91541   0.313   7.346   1.802
19117W        W91542  39.411  16.140  11.087
19118W        W91543  40.971  22.180  14.447
19119W        W91544  38.024   3.322   3.868
19120W        W91545  23.691  25.570  14.839
19121W        W91546  23.736  15.821   2.866
19122W        W91547   2.403  44.345   3.259
19123W        W91548  10.860  43.782  12.953
19124W        W91549   7.883  25.096  14.882
19125W        W91550   0.905   0.823  11.956
19126W        W91551  15.204  26.671  11.113
19127W        W91552  29.564  24.202  14.280
19128W        W91553  12.768  22.526   3.297
19129W        W91554   3.414  30.916  14.884
19130W        W91555   1.765  27.605   0.943
19131W        W91556   5.705  39.436  12.929
19132W        W91557   4.338  40.443  10.566
19133W        W91558  36.439   5.900  14.296
19134W        W91559  40.529  35.857   2.205
19135W        W91560  31.505   1.347  14.022
19136W        W91561   2.727  21.560  14.394
19137W        W91562   5.377  38.856  12.566
19138W        W91563  40.456  40.453  14.506
19139W        W91564  10.156  31.898   1.817
19140W        W91565  27.608   2.315   0.795
19141W        W91566  34.883  43.878   1.397
19142W        W91567  23.507  11.651  10.644
19143W        W91568  31.111  20.588   1.396
19144W        W91569  17.111   6.304   1.830
19145W        W91570  18.195  20.070  13.383
19146W        W91571  13.634  26.017   0.354
19147W        W91572  17.741  29.581   2.347
19148W        W91573  41.436   8.791  11.857
19149W        W91574  14.174  37.548  11.400
19150W        W91575  44.838  18.630  14.842
19151W        W91576  34.588  41.879  14.466
19152W        W91577  26.614  18.755  11.482
19153W        W91578   7.273  34.938  10.506
19154W        W91579  30.576  42.797  14.480
19155W        W91580   7.235  33.563  14.384
19156W        W91581  25.525  11.663  10.453
19157W        W91582  36.426  27.568  11.881
19158W        W91583  39.499  29.037   4.794
19159W        W91584  31.636  35.535  14.814
19160W        W91585   6.400   9.741  13.877
19161W        W91586  34.110  25.489  14.440
19162W        W91587   9.256  10.795  10.519
19163W        W91588  35.392  18.598  11.079
19164W        W91589  29.611  27.159   2.773
19165W        W91590  30.646  37.467  11.431
19166W        W91591  42.357  35.053  12.384
19167W        W91592  17.144   5.265   3.684
19168W        W91593   2.270  42.991  14.790
19169W        W91594  36.474   5.785   0.910
19170W        W91595  19.544  41.384   1.916
19171W        W91596  42.494  42.386  14.489
19172W        W91597  18.260  16.573  11.872
19173W        W91598  21.092  30.068   1.405
19174W        W91599  27.471  10.845   2.781
19175W        W91600  23.628   2.733   0.767
19176W        W91601  32.569   5.383  14.440
19177W        W91602  34.917  11.853   1.836
19178W        W91603  12.658  34.564   2.241
19179W        W91604  16.728  33.083  14.010
19180W        W91605  22.192  38.382  11.001
19181W        W91606  33.517  39.943  12.051
19182W        W91607  27.630  23.198   3.250
19183W        W91608  20.753  28.031   0.313
19184W        W91609  19.625  11.634  13.524
19185W        W91610  25.675  36.538   2.350
19186W        W91611  34.485  43.320  13.514
19187W        W91612  19.671  34.484  12.892
19188W        W91613  34.546  20.049   0.351
19189W        W91614   4.831   4.302   3.383
19190W        W91615  39.026   8.344  12.834
19191W        W91616  26.558  38.364  12.444
19192W        W91617  36.398  30.096  14.004
19193W        W91618  22.250  44.991   3.320
19194W        W91619   8.189  41.497   4.660
19195W        W91620   9.871  42.281  13.343
19196W        W91621   9.197   8.285  11.466
19197W        W91622  10.373  14.611   4.287
19198W        W91623  17.081   0.946   1.360
19199W        W91624  36.560   0.912  10.979
19200W        W91625  10.794  40.919   2.327
19201W        W91626   2.841  25.203  13.322
19202W        W91627  18.783   6.347   4.130
19203W        W91628  36.423  38.959  12.390
19204W        W91629   6.777  22.038  10.467
19205W        W91630  33.497   3.334   1.278
19206W        W91631   0.483  31.459   2.839
19207W        W91632  22.538  11.737  10.566
19208W        W91633  41.530   8.247  14.948
19209W        W91634   3.839  37.949   3.757
19210W        W91635   7.369  27.664   2.326
19211W        W91636  13.736  24.151   2.813
19212W        W91637   9.778  40.825  11.521
19213W        W91638   0.288  28.493   4.692
19214W        W91639  28.953  30.547   5.222
19215W        W91640   4.434   9.857  13.972
19216W        W91641  25.692  12.227  13.862
19217W        W91642   2.787  41.316  14.476
19218W        W91643  21.200  40.377   4.243
19219W        W91644  29.006   8.320  13.338
19220W        W91645  41.447  40.879  14.840
19221W        W91646   2.962  28.584  14.776
19222W        W91647  39.415  30.065   4.255
19223W        W91648  14.695  27.677   4.706
19224W        W91649  29.161  23.989  11.436
19225W        W91650  30.637  40.363  14.438
19226W        W91651   7.848  34.541   1.838
19227W        W91652  34.550   1.907  10.558
19228W        W91653  14.308  39.990   2.888
19229W        W91654  23.501  21.076   2.878
19230W        W91655   9.728  31.978  12.528
19231W        W91656  19.083  38.509  12.342
19232W        W91657  21.687  11.250   3.240
19233W        W91658  36.376  30.075  12.984
19234W        W91659  37.830  26.562   0.856
19235W        W91660  34.439  38.434   2.411
19236W        W91661  16.126  10.349   3.712
19237W        W91662  11.750  29.597   1.430
19238W        W91663  42.328  35.443  10.898
19239W        W91664  44.894  36.029   3.735
19240W        W91665  30.445  10.742   2.347
19241W        W91666  38.358  11.656  11.524
19242W        W91667  22.739  25.050   2.691
19243W        W91668  26.120  26.593   1.785
19244W        W91669   2.254  36.527   1.447
19245W        W91670  28.530   6.745  12.853
19246W        W91671   1.288   4.775  12.996
19247W        W91672  33.099  43.297   3.816
19248W        W91673  15.283  28.940   4.142
19249W        W91674  13.830  20.034  11.038
19250W        W91675   1.313   4.923   2.223
19251W        W91676  14.132   3.217  13.533
19252W        W91677  23.731  40.525  11.556
19253W        W91678  32.636  21.248   1.232
19254W        W91679  11.832  42.924   1.918
19255W        W91680  10.712  34.909  11.563
19256W        W91681  44.276   7.415   3.297
19257W        W91682  32.593  22.729  12.450
19258W        W91683  28.547  41.024   3.804
19259W        W91684  37.835  22.188  13.505
19260W        W91685  25.164   2.728  11.916
19261W        W91686  37.402  14.234  14.280
19262W        W91687  14.664  12.703  13.405
19263W        W91688  25.624  27.460  13.931
19264W        W91689  29.577  10.361   5.083
19265W        W91690  43.874  42.355   0.448
19266W        W91691   3.769   5.327   2.354
19267W        W91692  36.407  28.566  14.800
19268W        W91693   7.297  17.737   4.208
19269W        W91694  28.620  42.313   3.204
19270W        W91695  28.967  41.371  14.337
19271W        W91696  44.396  18.141  12.389
19272W        W91697  29.580  23.601   4.781
19273W        W91698  38.353  39.014   0.787
19274W        W91699  41.790   4.767  11.129
19275W        W91700  36.865  44.979  11.447
19276W        W91701  10.860  31.455   4.830
19277W        W91702  28.155   6.185  11.053
19278W        W91703  10.646  27.620  13.505
19279W        W91704  12.852  20.248   3.803
19280W        W91705  14.195  23.538  10.597
19281W        W91706   3.232  42.332  14.990
19282W        W91707   3.352   7.224  14.281
19283W        W91708  41.903  29.525   3.209
19284W        W91709  28.102  10.779  10.954
19285W        W91710  16.725  32.125   1.404
19286W        W91711  24.513  36.867   4.605
19287W        W91712  12.302   3.735  12.478
19288W        W91713   6.184  11.856   0.448
19289W        W91714   6.351   4.714  13.932
19290W        W91715  16.310  27.658  14.355
19291W        W91716  37.558  27.141   4.134
19292W        W91717  19.139  18.769   2.897
19293W        W91718  10.753   4.279  10.925
19294W        W91719  33.038  35.986   4.613
19295W        W91720  22.117  17.245   1.359
19296W        W91721  39.447   1.321  12.944
19297W        W91722  21.138  36.498  13.426
19298W        W91723  39.966  34.111   1.284
19299W        W91724  44.969  33.567  13.522
19300W        W91725  34.916  36.365  13.907
19301W        W91726  16.730  29.928  13.342
19302W        W91727  33.407  31.469  10.536
19303W        W91728  14.799  28.553   3.812
19304W        W91729  35.945  25.547  13.899
19305W        W91730  15.617  12.351   4.231
19306W        W91731  28.606  22.600   0.824
19307W        W91732  30.051  29.660   3.238
19308W        W91733  14.235  16.203  13.864
19309W        W91734  14.197  28.479  10.591
19310W        W91735  14.104  18.050  14.484
19311W        W91736  29.614  38.843  10.573
19312W        W91737  21.536   1.254   0.348
19313W        W91738   0.394  17.155   4.204
19314W        W91739   6.913  23.069  11.397
19315W        W91740  20.578  31.009  13.016
19316W        W91741  38.426   5.225   1.401
19317W        W91742  31.569   7.889  11.993
19318W        W91743  36.004  20.759  14.837
19319W        W91744  21.228  15.619   0.833
19320W        W91745   3.385  16.584   2.849
19321W        W91746  30.491  23.210   4.126
19322W        W91747  36.425  27.148  12.387
19323W        W91748   1.806  43.922   4.685
19324W        W91749   1.240  18.296  12.021
19325W        W91750   7.243  29.667   4.205
19326W        W91751  32.025  16.184  11.524
19327W        W91752  41.303  25.170  11.471
19328W        W91753  35.991  32.070  13.382
19329W        W91754  28.982  11.159  14.762
19330W        W91755  21.089   7.904   1.900
19331W        W91756  23.614  26.149   2.668
19332W        W91757  17.150   2.380  14.500
19333W        W91758  40.518  13.286   2.673
19334W        W91759  14.310  16.308   1.410
19335W        W91760   4.779   0.286   1.738
19336W        W91761  34.916  16.253   2.801
19337W        W91762  27.557   5.348   3.362
19338W        W91763  20.062  36.041  11.106
19339W        W91764  29.510  28.449   4.303
19340W        W91765  28.589  11.844  13.498
19341W        W91766  10.179  25.166   2.783
19342W        W91767  39.535  30.657  13.913
19343W        W91768  33.894  22.518  13.433
19344W        W91769  33.454  26.685   2.234
19345W        W91770  22.156  33.529   1.346
19346W        W91771  37.969   8.751   1.442
19347W        W91772  16.093  41.361  11.585
19348W        W91773  12.122  31.024   1.699
19349W        W91774   0.292  43.421  10.952
19350W        W91775  39.001  40.491   2.865
19351W        W91776   6.184  23.605  10.983
19352W        W91777  41.528   4.910  11.913
19353W        W91778  25.583  24.151   4.658
19354W        W91779  37.523  42.880  13.841
19355W        W91780  15.241  35.480   4.822
19356W        W91781  23.538  19.778  11.043
19357W        W91782   0.935  37.012   1.933
19358W        W91783  34.412  44.939   0.309
19359W        W91784   1.942   0.806   4.792
19360W        W91785  12.757  24.533   5.091
19361W        W91786  16.732  43.978  11.076
19362W        W91787  39.815  38.047   3.302
19363W        W91788  30.572  37.423   1.723
19364W        W91789  43.907  31.093   0.332
19365W        W91790   0.344  14.339  13.309
19366W        W91791  24.696   2.271   2.862
19367W        W91792  29.998  12.332  11.946
19368W        W91793  14.157  38.864  11.591
19369W        W91794  31.488  11.162  13.437
19370W        W91795   4.933  11.752  10.887
19371W        W91796  26.613  19.544  14.366
19372W        W91797  19.182  11.734   1.779
19373W        W91798  14.794  37.039  12.369
19374W        W91799   6.854  12.852   2.869
19375W        W91800  31.637  25.516  14.814
19376W        W91801  38.340  27.647  11.396
19377W        W91802   7.835  19.201   4.311
19378W        W91803  28.977  36.065   0.801
19379W        W91804  17.139  15.720  11.121
19380W        W91805  26.014  32.406   4.200
19381W        W91806  33.098  34.508   1.215
19382W        W91807  37.998   5.379   1.876
19383W        W91808  27.025  13.813  10.927
19384W        W91809  16.080  39.854   1.430
19385W        W91810   1.906  44.485  12.069
19386W        W91811  22.228  30.511   4.784
19387W        W91812  33.476  13.815  11.905
19388W        W91813  17.095  40.817  14.978
19389W        W91814  18.632  25.689  13.796
19390W        W91815  14.195  40.936   0.473
19391W        W91816  11.745  21.684  12.491
19392W        W91817  15.142  39.423   4.327
19393W        W91818  18.663   4.225   4.706
19394W        W91819  34.921  22.060  13.905
19395W        W91820  31.058  14.748   2.681
19396W        W91821  34.484   1.747  13.856
19397W        W91822  22.518  37.948   0.898
19398W        W91823  17.081   3.758   0.952
19399W        W91824   7.316  36.441  14.780
19400W        W91825  25.695  43.501   0.736
19401W        W91826  42.021  21.211   0.758
19402W        W91827  20.241  30.588   2.400
19403W        W91828   6.707  27.682   3.335
19404W        W91829  15.817  21.156  13.412
19405W        W91830  35.576  29.153  11.117
19406W        W91831  29.637  32.114   1.259
19407W        W91832  21.080   4.321   4.719
19408W        W91833  13.756  18.614  12.510
19409W        W91834   4.384  43.379   1.241
19410W        W91835  30.625   4.722   1.760
19411W        W91836  17.729  43.811   2.852
19412W        W91837   1.764  38.354  14.440
19413W        W91838   7.787  37.948  13.018
19414W        W91839  25.202   9.858  14.839
19415W        W91840  27.657  26.990  14.762
19416W        W91841   1.886   6.407  12.016
19417W        W91842  12.125  33.590  14.460
19418W        W91843  16.731   0.485   0.933
19419W        W91844  36.350   9.158  12.862
19420W        W91845   3.291  37.895  12.452
19421W        W91846  22.051  13.607   0.349
19422W        W91847  38.487  43.821   2.407
19423W        W91848  43.481  39.029  13.886
19424W        W91849  26.136  32.424   3.252
19425W        W91850  43.397  15.218   0.806
19426W        W91851  31.446  18.664   2.405
19427W        W91852  43.021  22.042   1.340
19428W        W91853  35.427  34.104   4.683
19429W        W91854  27.582  16.255  10.502
19430W        W91855  19.071   6.378  11.983
19431W        W91856  25.134  14.602   3.831
19432W        W91857  23.141  20.592  12.871
19433W        W91858  33.081  15.625  11.033
19434W        W91859   3.296  16.681   4.308
19435W        W91860  41.522  44.838   1.712
19436W        W91861  13.795   6.348  12.371
19437W        W91862  32.610  32.581   2.687
19438W        W91863  18.584  23.701   0.746
19439W        W91864  38.472  15.696   4.601
19440W        W91865   9.679  28.482   0.932
19441W        W91866  12.265  40.344  14.373
19442W        W91867  19.075  22.157  10.634
19443W        W91868  22.550   9.353   2.355
19444W        W91869  15.780  38.423  10.087
19445W        W91870  23.013  41.423  12.895
19446W        W91871  38.947  41.799  11.386
19447W        W91872  15.239  36.574  12.577
19448W        W91873  30.426  23.645  14.994
19449W        W91874   2.272  44.292  11.373
19450W        W91875  40.536  19.593   1.807
19451W        W91876  30.125  15.724   0.833
19452W        W91877  16.583  34.449  13.953
19453W        W91878   9.711  35.938   1.839
19454W        W91879  18.645  15.738  12.387
19455W        W91880  13.340   0.836  12.888
19456W        W91881  13.782   4.748  13.989
19457W        W91882  20.554  41.032   4.606
19458W        W91883  43.891  19.733  13.836
19459W        W91884  21.686  30.586   2.292
19460W        W91885  10.871  14.658   3.692
19461W        W91886  11.181  34.419   4.260
19462W        W91887  26.987  44.260   0.944
19463W        W91888  23.674  30.464  11.951
19464W        W91889  31.450  16.166  10.584
19465W        W91890   3.777  29.031   1.214
19466W        W91891  11.755  22.207   4.599
19467W        W91892  10.848  32.413   3.644
19468W        W91893  11.254   8.288   9.551
19469W        W91894  29.144  20.759   4.697
19470W        W91895   3.885  13.818  14.324
19471W        W91896  29.980  31.057   0.333
19472W        W91897   3.318  29.163   9.978
19473W        W91898  14.641  23.094   1.320
19474W        W91899  23.066  24.680  12.543
19475W        W91900  25.998  37.364   9.971
19476W        W91901  38.855  43.465   2.767
19477W        W91902  15.624  32.396  11.495
19478W        W91903  42.878  35.592  10.905
19479W        W91904  31.057  43.467  10.934
19480W        W91905  19.773   5.409   1.707
19481W        W91906  19.041   0.347  13.971
19482W        W91907  17.733  38.376  12.066
19483W        W91908  27.630  11.729   0.813
19484W        W91909   7.893  17.703   3.197
19485W        W91910  17.628  43.880   2.184
19486W        W91911  24.176  13.140   0.309
19487W        W91912  12.815  26.477   3.323
19488W        W91913  13.603  26.550   0.758
19489W        W91914  22.251   5.196   3.340
19490W        W91915   8.815  35.970   0.773
19491W        W91916   7.709  13.351   0.296
19492W        W91917  12.121   8.815   3.746
19493W        W91918   2.234  39.041  13.950
19494W        W91919  37.034   5.306   4.268
19495W        W91920   1.268  23.198  10.599
19496W        W91921  10.207  34.476   2.268
19497W        W91922  32.583  19.047  12.440
19498W        W91923  42.304  19.258  14.789
19499W        W91924  44.902  39.548  12.467
19500W        W91925  38.063  23.135   2.236
19501W        W91926   5.874  40.896  12.549
19502W        W91927   2.895  32.487  14.313
19503W        W91928   1.318  23.676   0.961
19504W        W91929  23.202   0.453   0.298
19505W        W91930   0.975   2.278  10.905
19506W        W91931   1.249   4.775   0.740
19507W        W91932  15.623  35.897   1.354
19508W        W91933  14.656  26.507  10.960
19509W        W91934  28.958  42.311  14.383
19510W        W91935   1.931  43.846  14.977
19511W        W91936  26.579  38.444   4.346
19512W        W91937  42.489  43.901  14.909
19513W        W91938  12.772  16.710  12.348
19514W        W91939  18.718  40.444  12.825
19515W        W91940   9.707  14.824   2.394
19516W        W91941  15.242  33.964   1.704
19517W        W91942  19.729   1.760  10.420
19518W        W91943  25.634   6.683   2.841
19519W        W91944  44.417  14.639  12.084
19520W        W91945  19.765  12.134  10.556
19521W        W91946  27.496  24.088   0.816
19522W        W91947  37.914  11.215   2.731
19523W        W91948  21.605   8.659   4.634
19524W        W91949  16.709  27.666   3.726
19525W        W91950   6.273   0.336  12.925
19526W        W91951   3.722  10.355  14.765
19527W        W91952  33.000  30.548  14.802
19528W        W91953  24.487  22.011  12.573
19529W        W91954   1.935  43.009   3.703
19530W        W91955  44.980  14.206  13.423
19531W        W91956  17.796  35.515  11.554
19532W        W91957  22.019  10.772  14.365
19533W        W91958   9.688  13.644   3.840
19534W        W91959   6.778  20.546  12.382
19535W        W91960   2.419   4.419  13.018
19536W        W91961  16.754  35.033   3.383
19537W        W91962  26.969  37.453  13.445
19538W        W91963   5.763  42.883  13.456
19539W        W91964  21.648  44.909   1.811
19540W        W91965  17.607  43.845  12.463
19541W        W91966  40.831  28.036   3.259
19542W        W91967  42.835  41.943   4.632
19543W        W91968  38.516  39.851  12.507
19544W        W91969   8.207  33.903  14.299
19545W        W91970  29.170   8.698   3.310
19546W        W91971  13.171  10.280   3.193
19547W        W91972  38.369  17.557   3.825
19548W        W91973  12.616  14.138   2.839
19549W        W91974  15.180   6.830   1.240
19550W        W91975  40.987  40.951  10.978
19551W        W91976  39.906  29.640   2.781
19552W        W91977   7.822  25.213   0.919
19553W        W91978  17.601  14.327   2.742
19554W        W91979  36.089  36.097   4.630
19555W        W91980  34.920  28.137  14.980
19556W        W91981  27.107   0.249  12.071
19557W        W91982  16.686  10.157   0.802
19558W        W91983  26.563  16.579  11.492
19559W        W91984  32.924  16.191  11.120
19560W        W91985  38.959  26.136   1.892
19561W        W91986  39.937  34.099  14.468
19562W        W91987   4.944   4.899   5.234
19563W        W91988  13.724  21.648   4.685
19564W        W91989  25.614   3.748  13.321
19565W        W91990   6.683  27.023   3.281
19566W        W91991  17.698  19.750  11.508
19567W        W91992   5.297  32.438  14.490
19568W        W91993   3.768  29.431   3.151
19569W        W91994  32.423  11.815  12.915
19570W        W91995   0.958  39.990  13.979
19571W        W91996   4.319  37.582  13.833
19572W        W91997  27.147  39.954  12.981
19573W        W91998  39.518  32.425   0.860
19574W        W91999  21.165  28.631   2.334
19575W        W92000  40.408   6.683  15.000
19576W        W92001  29.152  30.644  11.042
19577W        W92002  19.139   9.308   2.804
19578W        W92003  24.653   6.896  11.569
19579W        W92004   2.340  19.196  14.376
19580W        W92005   0.307  44.890   0.345
19581W        W92006   7.706   8.878  14.943
19582W        W92007   1.465  28.588  13.360
19583W        W92008  36.425   5.408   4.778
19584W        W92009  16.293  33.093   4.208
19585W        W92010  33.978  11.844  11.904
19586W        W92011  41.497  22.082  13.889
19587W        W92012  39.531   0.977  12.985
19588W        W92013   4.320   9.800  12.541
19589W        W92014  23.692  10.705   2.235
19590W        W92015  39.380  31.013  11.447
19591W        W92016  29.438  25.201   1.726
19592W        W92017   8.832  29.166  14.315
19593W        W92018  28.101  26.955  10.971
19594W        W92019  40.443  10.150  12.553
19595W        W92020  28.016  16.298  10.080
19596W        W92021  44.306   6.762   4.155
19597W        W92022  40.482  23.202   4.734
19598W        W92023  42.475  14.788  10.476
19599W        W92024  41.998  34.026  14.344
19600W        W92025  30.426  34.076  14.481
19601W        W92026   2.304  19.637  10.038
19602W        W92027  26.996  24.128   4.141
19603W        W92028  27.045  17.237  14.014
19604W        W92029   3.386  34.445  11.993
19605W        W92030  32.098  18.144  14.890
19606W        W92031  35.585  17.141  13.353
19607W        W92032  26.657  28.126  10.571
19608W        W92033  28.476  22.232  14.904
19609W        W92034  20.157  32.470   2.194
19610W        W92035  19.705  22.741   1.778
19611W        W92036  12.137  22.244   3.337
19612W        W92037  33.572   8.404  11.985
19613W        W92038  21.187   3.759   2.732
19614W        W92039  26.188  10.672  14.896
19615W        W92040  32.486  42.363   1.745
19616W        W92041   2.332  24.566  14.330
19617W        W92042  13.655   7.277  12.005
19618W        W92043  17.062  37.005  13.542
19619W        W92044  27.626  35.895   1.427
19620W        W92045  25.197  16.235  12.985
19621W        W92046   5.292  37.453  11.990
19622W        W92047  44.310  11.150   2.784
19623W        W92048  18.601  13.268   2.815
19624W        W92049  10.148   7.277  13.810
19625W        W92050  24.168   4.391   4.125
19626W        W92051   9.335  22.118   1.400
19627W        W92052  34.423  10.866   0.481
19628W        W92053   3.432  21.239  14.005
19629W        W92054  39.058  40.899  11.529
19630W        W92055  32.606   1.401  12.428
19631W        W92056  44.399  32.073  14.762
19632W        W92057  38.927  20.664   4.706
19633W        W92058   7.746   8.360  12.886
19634W        W92059  31.084  21.054   3.254
19635W        W92060   1.468   7.298  12.967
19636W        W92061  12.714  10.870   3.192
19637W        W92062   4.765  36.422  10.150
19638W        W92063  19.141   5.909   4.241
19639W        W92064  25.148   7.330   0.879
19640W        W92065  37.372  19.081   1.282
19641W        W92066  27.686  37.500  12.359
19642W        W92067   6.819  31.105  11.947
19643W        W92068   8.654  39.824  10.446
19644W        W92069   4.300  30.019  14.459
19645W        W92070  31.043  40.019   1.387
19646W        W92071  23.204  33.901   1.295
19647W        W92072  44.759   5.262   4.304
19648W        W92073  31.093   1.373   2.724
19649W        W92074  12.263   8.294  12.966
19650W        W92075  44.458  37.565   3.299
19651W        W92076  34.546   6.222   3.187
19652W        W92077  23.718  12.642   2.376
19653W        W92078  12.723   3.339   2.822
19654W        W92079  28.008  13.335  11.449
19655W        W92080  34.518  39.394  12.449
19656W        W92081   0.957  32.448   1.911
19657W        W92082  26.606  30.578  12.368
19658W        W92083  33.022  17.092  12.422
19659W        W92084  13.207   8.792  14.010
19660W        W92085   9.349  35.062  11.067
19661W        W92086  35.473  38.046   2.802
19662W        W92087  21.565  26.554  14.410
19663W        W92088  35.523  26.693   1.332
19664W        W92089  38.007  35.104  13.447
19665W        W92090  30.066  30.638  13.476
19666W        W92091  38.489  10.277   2.758
19667W        W92092  21.600  14.101   0.244
19668W        W92093  12.215  44.310  13.910
19669W        W92094  23.166  30.139  14.364
19670W        W92095  19.621  31.924  13.445
19671W        W92096   3.806  30.087  13.826
19672W        W92097   7.777  40.876   0.427
19673W        W92098  10.830   8.736   0.936
19674W        W92099  19.247  40.893  12.408
19675W        W92100  30.472  23.129  14.799
19676W        W92101  18.784  32.093   1.352
19677W        W92102  18.574  29.941  14.009
19678W        W92103  24.667  13.644   3.791
19679W        W92104   1.780  41.294   4.138
19680W        W92105  10.657   9.725   4.313
19681W        W92106   2.443  29.528  10.155
19682W        W92107  14.165  16.162  11.857
19683W        W92108  40.895  43.797   1.433
19684W        W92109  12.224  27.672  14.473
19685W        W92110  26.970   9.361   1.230
19686W        W92111  33.977  17.706   1.801
19687W        W92112  17.650  16.089  11.437
19688W        W92113  44.465   9.798   4.300
19689W        W92114  29.978  38.981  11.973
19690W        W92115  20.254   6.815   1.775
19691W        W92116   4.873  42.022   3.175
19692W        W92117   0.343  22.039  10.628
19693W        W92118  13.166  40.478   1.402
19694W        W92119  42.392  11.691   4.323
19695W        W92120  36.080  37.912  11.414
19696W        W92121   2.435   1.800  12.371
19697W        W92122  30.640  41.303   3.777
19698W        W92123  27.085  33.061   4.766
19699W        W92124   7.859  10.224   2.701
19700W        W92125  15.168  41.513   0.850
19701W        W92126  41.828  10.858   2.885
19702W        W92127  23.103   5.692   2.332
19703W        W92128  16.638   4.380   0.742
19704W        W92129  15.316   2.302   3.211
19705W        W92130  32.099  40.341   0.479
19706W        W92131   9.365  14.757   1.430
19707W        W92132  11.793  11.767  12.365
19708W        W92133  38.939  10.190   1.301
19709W        W92134  27.664  44.800   1.234
19710W        W92135  39.439  11.279  11.039
19711W        W92136  37.006   3.425  12.476
19712W        W92137  14.268   4.430   3.294
19713W        W92138   4.768  16.080   0.258
19714W        W92139   7.759  21.547   4.821
19715W        W92140   6.826  11.768   1.731
19716W        W92141  30.911  37.341  11.013
19717W        W92142  42.495  20.103  13.529
19718W        W92143  29.981  41.854  12.555
19719W        W92144  26.550  40.385   1.396
19720W        W92145  30.473  37.581  13.410
19721W        W92146  42.013  44.887  14.888
19722W        W92147  15.703  42.784  13.016
19723W        W92148  27.134  34.105   4.116
19724W        W92149  41.454   3.413  11.943
19725W        W92150  17.787  42.359   0.772
19726W        W92151  16.653  12.661  13.313
19727W        W92152   4.717  34.585  12.847
19728W        W92153  11.292  42.435   0.875
19729W        W92154  27.595  24.640   4.624
19730W        W92155  43.976  33.596   3.784
19731W        W92156  29.619  19.103  14.848
19732W        W92157  38.064  20.742  11.406
19733W        W92158   5.349  21.657  12.545
19734W        W92159  31.608  22.637  14.964
19735W        W92160  21.630   9.371  14.483
19736W        W92161  23.577  26.613  11.924
19737W        W92162  42.006  28.063   0.330
19738W        W92163  14.791  11.170  11.472
19739W        W92164  16.162  27.108   0.744
19740W        W92165  17.265  18.603   0.803
19741W        W92166   9.289  30.659   4.828
19742W        W92167  20.686  30.972   2.801
19743W        W92168  39.472  13.807   1.247
19744W        W92169  22.048  15.678  11.425
19745W        W92170   0.774   2.909  12.544
19746W        W92171  43.968   9.806   3.269
19747W        W92172  38.984  17.252   2.390
19748W        W92173  37.057   2.876  13.997
19749W        W92174  31.967  21.703  10.416
19750W        W92175  25.618  30.454  12.397
19751W        W92176  17.585   1.408   0.368
19752W        W92177   3.841   7.827  12.438
19753W        W92178  41.364  36.001  10.567
19754W        W92179  18.631  35.403  10.606
19755W        W92180  27.087  28.980   0.466
19756W        W92181  36.943  33.953  13.971
19757W        W92182   2.390  34.479  13.501
19758W        W92183  16.269  17.796  13.823
19759W        W92184  25.002  17.710   1.802
19760W        W92185  16.719   7.902   1.433
19761W        W92186  39.811  37.371  10.418
19762W        W92187   4.760  30.926  13.314
19763W        W92188  14.668  23.216  11.392
19764W        W92189  21.200  44.274  14.908
19765W        W92190  18.138  17.763  14.341
19766W        W92191  41.341  27.645  11.381
19767W        W92192  16.295   5.218  11.094
19768W        W92193  34.611  10.319   4.636
19769W        W92194  30.122  26.634   2.267
19770W        W92195  14.676  14.161   0.270
19771W        W92196  14.129  23.237  13.526
19772W        W92197  23.204  21.754   0.895
19773W        W92198  11.149   4.300   1.735
19774W        W92199  24.999  44.789   4.118
19775W        W92200   8.299  11.189   1.244
19776W        W92201  37.878  10.800  11.098
19777W        W92202  31.133  29.627  14.928
19778W        W92203  23.129  37.970  12.347
19779W        W92204  34.399  40.024  11.429
19780W        W92205  44.331   7.686  12.962
19781W        W92206   2.783   4.863  14.945
19782W        W92207  14.614  32.919   2.833
19783W        W92208   1.449   0.284   2.220
19784W        W92209  42.919   8.232   1.361
19785W        W92210  43.834   9.389   3.696
19786W        W92211  41.294  28.154  11.121
19787W        W92212  24.675   1.463  10.547
19788W        W92213  37.070  30.461   1.237
19789W        W92214  14.099   3.769  13.480
19790W        W92215  32.439   7.187  13.356
19791W        W92216  33.981  44.966  11.464
19792W        W92217  32.018  21.059  14.495
19793W        W92218  44.499  31.137  13.492
19794W        W92219  42.986  13.182   3.674
19795W        W92220  43.485  38.008  12.030
19796W        W92221  22.713  33.126   2.334
19797W        W92222  38.015  16.267  12.379
19798W        W92223  10.821  10.770  12.377
19799W        W92224  11.835  12.613   0.900
19800W        W92225  19.278  14.337   0.443
19801W        W92226  23.724  23.567  12.566
19802W        W92227  10.633  30.086  11.584
19803W        W92228  19.548  16.792   4.835
19804W        W92229  44.899  27.619   2.232
19805W        W92230   9.729  33.996  10.443
19806W        W92231  20.176   2.854  10.438
19807W        W92232  11.729  41.364   0.795
19808W        W92233   9.716  15.171   3.277
19809W        W92234  24.991  41.314  14.320
19810W        W92235   5.330   2.740   0.852
19811W        W92236   5.708  43.883   0.288
19812W        W92237  13.211  41.463  14.311
19813W        W92238  42.371   1.388   4.796
19814W        W92239   5.733  15.721   2.258
19815W        W92240  24.078  18.065   3.211
19816W        W92241   0.363  25.491  10.549
19817W        W92242   9.352   0.890   0.258
19818W        W92243  44.767  17.794   1.337
19819W        W92244  42.949  15.588  14.857
19820W        W92245  11.821  34.604  12.519
19821W        W92246  27.603  33.590  11.592
19822W        W92247  41.328   3.439   4.315
19823W        W92248  28.514  25.067  13.339
19824W        W92249  29.932  29.046   3.692
19825W        W92250  20.596  40.958  13.340
19826W        W92251  41.325  39.043  14.763
19827W        W92252  39.956  34.544  11.040
19828W        W92253  24.566  14.240  12.382
19829W        W92254   5.750  32.424   4.169
19830W        W92255   9.696  30.109  10.921
19831W        W92256  25.042  44.935  14.783
19832W        W92257   5.699  39.873  13.834
19833W        W92258  43.322  34.943   2.741
19834W        W92259  32.040  14.226  12.865
19835W        W92260  34.538  23.212  13.368
19836W        W92261   7.199  37.836  11.554
19837W        W92262  27.122  30.111   1.344
19838W        W92263   0.768  40.925   0.912
19839W        W92264   4.854  39.470   1.820
19840W        W92265  40.847   2.236  10.929
19841W        W92266   4.926  14.821  13.988
19842W        W92267  26.637   8.224   2.334
19843W        W92268  35.089  11.336  10.939
19844W        W92269  34.044  11.623   2.779
19845W        W92270  37.881  38.072  11.076
19846W        W92271  40.313  43.899   3.763
19847W        W92272  22.242  20.131  14.513
19848W        W92273  20.192  30.068   2.181
19849W        W92274   1.910  25.469  13.318
19850W        W92275  43.930  18.633   0.307
19851W        W92276  42.336  39.006  13.352
19852W        W92277  38.862  41.040  11.012
19853W        W92278   9.368  29.979  10.533
19854W        W92279  28.561   6.426   4.202
19855W        W92280  13.121   3.243  13.010
19856W        W92281  41.364  36.865  14.371
19857W        W92282   0.468   9.315  13.547
19858W        W92283  37.957  31.625  11.002
19859W        W92284  22.022  28.945  11.429
19860W        W92285   4.841  31.433  13.508
19861W        W92286  18.152  37.406   1.370
19862W        W92287  15.764  44.997   4.691
19863W        W92288  27.589   3.437   4.197
19864W        W92289  21.185  23.707  14.419
19865W        W92290  25.686  42.465  11.057
19866W        W92291  36.014  25.542   0.464
19867W        W92292  43.356  11.236  13.498
19868W        W92293  38.342  35.985  10.556
19869W        W92294  17.139  27.659  10.933
19870W        W92295  35.052  23.144  12.003
19871W        W92296  33.995  19.544   2.856
19872W        W92297  40.517  39.467   3.356
19873W        W92298  39.542   7.886  13.956
19874W        W92299  33.984  23.675   3.728
19875W        W92300   2.345  22.096  11.937
19876W        W92301  33.109  33.990   3.331
19877W        W92302  17.280  34.058   4.820
19878W        W92303  18.201  15.622   4.329
19879W        W92304  23.736  10.739  14.964
19880W        W92305  28.642  13.742   4.184
19881W        W92306   0.427   6.393  13.868
19882W        W92307  35.893  39.027   2.887
19883W        W92308   7.396  38.075  12.836
19884W        W92309  15.729  40.955  14.989
19885W        W92310   7.351   1.952  14.988
19886W        W92311  12.168  29.160   2.867
19887W        W92312  34.070  31.938   0.741
19888W        W92313  15.315  25.546  12.084
19889W        W92314  16.265  44.961  12.045
19890W        W92315  35.018  32.099   1.846
19891W        W92316   6.243  36.534   1.422
19892W        W92317   4.873  34.570  14.403
19893W        W92318  37.871  16.078   0.859
19894W        W92319  28.163  44.387  13.471
19895W        W92320  17.142   6.419  10.994
19896W        W92321   8.258  21.208   0.735
19897W        W92322  40.830  31.089  11.456
19898W        W92323  38.545  19.719   2.361
19899W        W92324  31.100  43.824  11.904
19900W        W92325  30.475   1.476   0.250
19901W        W92326  30.534   2.396  14.382
19902W        W92327   2.298  24.981  10.152
19903W        W92328  39.921  44.480   1.450
19904W        W92329  34.383  36.900   0.456
19905W        W92330  26.092  44.311  10.550
19906W        W92331  18.705  37.413  11.505
19907W        W92332  39.429   3.748   0.368
19908W        W92333   6.251  32.127  10.990
19909W        W92334  34.577  33.620  12.405
19910W        W92335  33.590  21.512   2.775
19911W        W92336  17.783   9.335  14.431
19912W        W92337  23.563  32.539  11.049
19913W        W92338   7.269  27.018   0.326
19914W        W92339  17.785  18.723   2.395
19915W        W92340   7.905   9.686   2.770
19916W        W92341  23.546  25.000   3.296
19917W        W92342  20.174  10.335  12.928
19918W        W92343  16.759  41.407   3.685
19919W        W92344   5.820  32.572  11.544
19920W        W92345  14.297   2.467  14.909
19921W        W92346   7.850  26.536   1.400
19922W        W92347  21.529  37.391   1.247
19923W        W92348  25.970   9.710   0.480
19924W        W92349  20.545  12.640   4.250
19925W        W92350  18.110  36.012  13.894
19926W        W92351  19.187   2.415  14.399
19927W        W92352   5.419   1.768   2.749
19928W        W92353   4.835  33.488   3.252
19929W        W92354   3.352  41.381   2.362
19930W        W92355  20.670  11.799   3.840
19931W        W92356   6.229   4.865   4.255
19932W        W92357  11.857  25.669  11.524
19933W        W92358  37.896  22.511  11.509
19934W        W92359  26.197   2.256  14.287
19935W        W92360  29.114  40.030  11.440
19936W        W92361   7.686  11.178   3.241
19937W        W92362  32.529  19.223   0.343
19938W        W92363  34.070  39.552   3.825
19939W        W92364  34.560  15.692   3.193
19940W        W92365  22.055  39.989  13.905
19941W        W92366  29.967  43.787   2.709
19942W        W92367  30.605   7.262   3.276
19943W        W92368   3.439  35.880   2.186
19944W        W92369  16.075   1.913  14.467
19945W        W92370  31.456   0.374   3.217
19946W        W92371  43.893  38.010   2.808
19947W        W92372  28.507   0.249   2.214
19948W        W92373  40.332  27.016   4.782
19949W        W92374  27.945  11.337  13.024
19950W        W92375  20.143   0.850   2.779
19951W        W92376  10.813   6.912   1.350
19952W        W92377   0.318  20.197   4.250
19953W        W92378  28.566   6.192   4.599
19954W        W92379   6.325  19.226  11.396
19955W        W92380  18.724   7.742   0.913
19956W        W92381  43.372  31.003  14.023
19957W        W92382  24.540  38.844  11.535
19958W        W92383  32.079  16.738   2.718
19959W        W92384  24.528   9.873   4.319
19960W        W92385  10.834   5.223  12.442
19961W        W92386  31.076  11.840  11.034
19962W        W92387   8.211  36.523  13.935
19963W        W92388  14.192  31.956  14.322
19964W        W92389  31.935  37.925  14.984
19965W        W92390  38.411  29.995   0.337
19966W        W92391   7.878  25.697  12.420
19967W        W92392  22.608  11.295   3.822
19968W        W92393  10.262  22.593   2.336
19969W        W92394  29.534  17.714  14.029
19970W        W92395  31.518  10.721   0.879
19971W        W92396  38.994  37.917  11.075
19972W        W92397   5.699  11.726   3.209
19973W        W92398  25.074  13.634   2.812
19974W        W92399  16.093  17.624   2.791
19975W        W92400  40.459  25.213  14.793
19976W        W92401   6.837  14.183  12.093
19977W        W92402  10.250  13.299   2.291
19978W        W92403  34.105   7.740   0.262
19979W        W92404  36.530  42.525   2.285
19980W        W92405  16.172  15.618   2.387
19981W        W92406  31.050  21.115  13.494
19982W        W92407  20.148   0.781   0.838
19983W        W92408  43.514  25.635   0.811
19984W        W92409  26.573   8.730  13.471
19985W        W92410  29.482  26.004   3.635
19986W        W92411  34.602  42.884  13.459
19987W        W92412  41.380  33.990  11.119
19988W        W92413  10.706  13.266  14.456
19989W        W92414   7.824  19.095   0.915
19990W        W92415  12.699  44.320   0.410
19991W        W92416  19.066  20.237   1.346
19992W        W92417  41.482  33.002   0.244
19993W        W92418   7.242  41.461  12.887
19994W        W92419  13.652  18.747  12.011
19995W        W92420  22.574   7.276  13.064
19996W        W92421  25.650  30.028   4.235
19997W        W92422  27.161   6.387   1.719
19998W        W92423  12.336  15.772  11.948
19999W        W92424  43.383  14.812  12.940
20000W        W92425   1.831  34.877   3.758
20001W        W92426  27.183  13.768   4.806
20002W        W92427  30.078  40.330  10.500
20003W        W92428   4.809  37.843   1.840
20004W        W92429   9.346  27.663   2.881
20005W        W92430   8.196   5.338   0.456
20006W        W92431  27.534  25.554  12.079
20007W        W92432  33.604  23.999  12.363
20008W        W92433  30.643  39.486   0.733
20009W        W92434  25.617  22.522  12.481
20010W        W92435  35.579  32.596  14.838
20011W        W92436  26.502  29.582  13.025
20012W        W92437  29.528  19.685  10.643
20013W        W92438  17.728   5.274   0.250
20014W        W92439  41.015  17.184   3.748
20015W        W92440  13.613  30.058   0.727
20016W        W92441  24.164   7.817  12.425
20017W        W92442   7.199   0.445   4.134
20018W        W92443  28.099  31.423   4.629
20019W        W92444   9.765  38.905  11.124
20020W        W92445   5.701  38.943  13.422
20021W        W92446  22.063  37.441  11.480
20022W        W92447  39.348   3.415  12.378
20023W        W92448  39.538  16.625  14.329
20024W        W92449  36.850  40.835  11.552
20025W        W92450  44.878  13.298   1.221
20026W        W92451  28.105  14.662   3.800
20027W        W92452  24.681   0.861  11.023
20028W        W92453  26.111  18.225  12.485
20029W        W92454   6.825  23.032  14.934
20030W        W92455  30.982  11.727   2.724
20031W        W92456  39.956  43.280  12.523
20032W        W92457  18.083   4.415   4.280
20033W        W92458  19.683  19.184   2.278
20034W        W92459  31.014  19.045   2.188
20035W        W92460   1.827  39.386  11.532
20036W        W92461  15.753  18.762  10.897
20037W        W92462  20.547  39.856  12.842
20038W        W92463  24.069  11.140   4.285
20039W        W92464   7.851  18.139  14.290
20040W        W92465   6.218  18.234   2.294
20041W        W92466   1.283  23.173   0.389
20042W        W92467  18.676  30.494  14.307
20043W        W92468  25.553   2.465   4.198
20044W        W92469  22.606   7.882   3.146
20045W        W92470   5.253  41.010  12.861
20046W        W92471  31.616  22.232  14.789
20047W        W92472  41.955   1.305  10.631
20048W        W92473  33.591  34.018  11.099
20049W        W92474  13.621  13.802   1.725
20050W        W92475   9.646  18.257   4.720
20051W        W92476  23.216  14.313  13.851
20052W        W92477  23.105  22.252   3.385
20053W        W92478  26.579  30.029  12.847
20054W        W92479  27.086  24.003  12.970
20055W        W92480  20.750   9.363  12.467
20056W        W92481  40.798   1.975   2.836
20057W        W92482   3.356  39.860  11.007
20058W        W92483  10.183  14.237  11.427
20059W        W92484   3.791  21.529  10.952
20060W        W92485  29.160  24.514  11.406
20061W        W92486  33.967   4.274   3.826
20062W        W92487  12.813   7.793  11.979
20063W        W92488  42.951  25.688   1.248
20064W        W92489   0.839  15.646  11.451
20065W        W92490   8.354  19.620  13.444
20066W        W92491   3.844  30.993   1.441
20067W        W92492   7.817   9.322   4.298
20068W        W92493  38.072  18.053   3.750
20069W        W92494   0.745   9.648   3.777
20070W        W92495   0.280  33.933   0.887
20071W        W92496   3.903  19.624   4.337
20072W        W92497  31.002  24.070   3.721
20073W        W92498  30.146  34.438  10.478
20074W        W92499  21.731   7.839   4.212
20075W        W92500  12.712   5.360  10.611
20076W        W92501  28.969   3.729   3.217
20077W        W92502  13.648   1.244   4.689
20078W        W92503  42.290  20.146   4.736
20079W        W92504  29.994  37.885  10.938
20080W        W92505  28.499  13.233  11.981
20081W        W92506  25.067  31.906   3.855
20082W        W92507  13.311  44.411   0.384
20083W        W92508  39.334  29.967   3.696
20084W        W92509  44.849  32.419  10.607
20085W        W92510  30.023  43.487   1.863
20086W        W92511   0.856  12.317  14.281
20087W        W92512   9.305  26.191  11.583
20088W        W92513  41.013   4.350  13.405
20089W        W92514   5.256  14.286  14.508
20090W        W92515  20.588  25.533   1.906
20091W        W92516  15.766   8.695  14.803
20092W        W92517  11.829   0.395  13.019
20093W        W92518  42.451  34.029   4.248
20094W        W92519  24.029   3.741   1.850
20095W        W92520   8.296  13.749  10.941
20096W        W92521   9.824   5.764   2.263
20097W        W92522  19.617  44.896  13.521
20098W        W92523   0.250  24.992   2.806
20099W        W92524   9.319  10.661   0.347
20100W        W92525   1.349  32.494  14.362
20101W        W92526  29.662  36.540   4.230
20102W        W92527  37.490  30.998  13.961
20103W        W92528  30.156   9.731   4.163
20104W        W92529  25.056  14.647  14.016
20105W        W92530  10.304  23.002   4.311
20106W        W92531  33.428  10.375  11.481
20107W        W92532  38.371  18.650  12.862
20108W        W92533  17.724   9.703  12.394
20109W        W92534  24.725  33.099   0.761
20110W        W92535   1.273  40.800   4.118
20111W        W92536  12.214   8.205  13.886
20112W        W92537  27.622  14.773  13.996
20113W        W92538   6.376  23.659   4.805
20114W        W92539   9.198   9.702   3.868
20115W        W92540  18.119  32.520  12.038
20116W        W92541  42.356  19.546   0.799
20117W        W92542  36.589   3.318   0.463
20118W        W92543  44.840  12.789  11.092
20119W        W92544  27.953   3.793  12.507
20120W        W92545  10.344  25.541  14.815
20121W        W92546  32.068  10.234   3.371
20122W        W92547  28.571  37.970   0.953
20123W        W92548  18.240  21.104  12.372
20124W        W92549   5.921  28.140  12.534
20125W        W92550  39.342  12.353   0.260
20126W        W92551  28.059  13.840   4.294
20127W        W92552   2.289   2.431  10.448
20128W        W92553  13.242   2.385   3.863
20129W        W92554  23.635  12.802  12.490
20130W        W92555  32.998   2.898  11.893
20131W        W92556  32.913  43.900   2.315
20132W        W92557  23.171  20.227   3.702
20133W        W92558  14.672  32.625  13.349
20134W        W92559  18.155  15.252  10.443
20135W        W92560  36.581  29.018  12.931
20136W        W92561  36.479  18.734  11.870
20137W        W92562   8.283   1.350   1.773
20138W        W92563  44.329  13.194   1.307
20139W        W92564  34.413  13.626   4.251
20140W        W92565  31.481  17.556  12.826
20141W        W92566  30.585  41.493   3.188
20142W        W92567   8.760   6.758   1.921
20143W        W92568  36.899  37.581   5.291
20144W        W92569  15.749  14.157  14.291
20145W        W92570  19.711  41.483  12.351
20146W        W92571  33.558  36.980  12.435
20147W        W92572  37.440  42.972  14.997
20148W        W92573  36.449  34.077   2.691
20149W        W92574  15.113  16.584   4.194
20150W        W92575   1.281  43.993  13.005
20151W        W92576  23.623   0.432  12.939
20152W        W92577  42.839  11.210   4.259
20153W        W92578  17.634  29.523   4.774
20154W        W92579   3.342  24.501  13.796
20155W        W92580   9.825  26.995   2.326
20156W        W92581   7.186  19.253  14.316
20157W        W92582   3.387   4.724   2.847
20158W        W92583  43.386  38.883   9.924
20159W        W92584  21.755  34.523   2.339
20160W        W92585  44.336  34.376   2.298
20161W        W92586   6.418  33.486   4.185
20162W        W92587  13.687   4.306   2.257
20163W        W92588  27.093  30.420  13.940
20164W        W92589   0.304  44.936   1.783
20165W        W92590   4.343  16.265   1.803
20166W        W92591  38.064  34.398   5.198
20167W        W92592  36.949   6.870  10.951
20168W        W92593  31.500   6.408   4.820
20169W        W92594   2.374  24.610  13.367
20170W        W92595  25.030   7.372   2.664
20171W        W92596  39.509  32.132   4.166
20172W        W92597  25.163  30.548  14.377
20173W        W92598  30.432  43.310   1.696
20174W        W92599   3.714   3.932   2.398
20175W        W92600  18.559  10.318   2.345
20176W        W92601  22.024  17.642   3.712
20177W        W92602   2.745  41.851   4.714
20178W        W92603  30.996  24.579   2.698
20179W        W92604   7.800  14.152  11.035
20180W        W92605   4.909   8.197  10.989
20181W        W92606  12.709  29.475   0.818
20182W        W92607  33.549   0.881  11.399
20183W        W92608  33.023  10.869  13.346
20184W        W92609  25.704  43.953   0.300
20185W        W92610  31.552   8.251   0.398
20186W        W92611  39.035  13.764  10.413
20187W        W92612  30.457  14.254  11.397
20188W        W92613  19.698  36.027  12.457
20189W        W92614  43.512  27.453   1.924
20190W        W92615  35.094  30.105   2.730
20191W        W92616   1.893  20.083  10.529
20192W        W92617  24.018   5.739  12.453
20193W        W92618   4.289  31.632   2.232
20194W        W92619  15.317  30.461   2.776
20195W        W92620  31.436  32.536  12.891
20196W        W92621  10.375   0.434  13.524
20197W        W92622   5.725   6.276  10.916
20198W        W92623  29.429  20.249  11.016
20199W        W92624   2.728  43.856  14.302
20200W        W92625  43.777  44.412  10.508
20201W        W92626  40.956  40.420  14.919
20202W        W92627  38.440  32.585   4.283
20203W        W92628  35.058  41.030  12.062
20204W        W92629  24.522  25.127  12.027
20205W        W92630  10.335  10.737  10.891
20206W        W92631   7.181  44.845  10.956
20207W        W92632  41.512   2.308  12.537
20208W        W92633  43.288  31.418   0.813
20209W        W92634   9.703   6.361   4.285
20210W        W92635  18.570  39.914   3.199
20211W        W92636  30.435  44.004  12.537
20212W        W92637  24.046  21.550  11.082
20213W        W92638  27.126  34.439  12.056
20214W        W92639  44.384  16.293   1.864
20215W        W92640  38.946  15.722  13.962
20216W        W92641  10.322  14.194  10.636
20217W        W92642  40.452  19.602  12.030
20218W        W92643  26.999  26.683  10.411
20219W        W92644  11.173   4.843   3.169
20220W        W92645  43.990  19.545   3.831
20221W        W92646   4.772  11.263   0.443
20222W        W92647  41.485  13.649   1.222
20223W        W92648  36.472  34.442   0.908
20224W        W92649  43.892  38.382   3.800
20225W        W92650  19.749  37.839  11.468
20226W        W92651  15.103   6.191   0.934
20227W        W92652   8.752  30.059  10.565
20228W        W92653  44.980  38.475  11.457
20229W        W92654  13.749   4.301  14.920
20230W        W92655  11.767  32.106  13.056
20231W        W92656  33.969  22.746   1.292
20232W        W92657  30.563  36.530   1.929
20233W        W92658   9.207  43.405   4.215
20234W        W92659  23.172  11.776  10.539
20235W        W92660  19.641  15.777  12.397
20236W        W92661  38.824  19.577   3.760
20237W        W92662  22.688  44.835   3.632
20238W        W92663  31.952  31.981   0.425
20239W        W92664   5.794  39.479   1.884
20240W        W92665   1.467   3.235   1.701
20241W        W92666  28.553  34.592   4.674
20242W        W92667   1.783   6.323  13.485
20243W        W92668  21.067  36.490   0.399
20244W        W92669  40.904  13.330   4.691
20245W        W92670  41.329  11.646  13.844
20246W        W92671  40.530  37.356   1.854
20247W        W92672   2.287  39.016  13.540
20248W        W92673  39.030  38.027   4.836
20249W        W92674  25.514  25.642  14.902
20250W        W92675  18.612  14.225   3.371
20251W        W92676  34.375   9.304   1.798
20252W        W92677  32.404  15.789   0.949
20253W        W92678  21.684  42.443   4.188
20254W        W92679  27.046  32.472   1.323
20255W        W92680  37.440  29.158  12.000
20256W        W92681  17.288  30.570   4.699
20257W        W92682  21.127  27.447  10.142
20258W        W92683  16.742  16.247  10.443
20259W        W92684  37.420  43.330   4.760
20260W        W92685  30.125  15.255   1.287
20261W        W92686   5.241  10.731  11.123
20262W        W92687  13.194  12.773  14.906
20263W        W92688  14.244  20.665  12.048
20264W        W92689   0.359  21.115  12.375
20265W        W92690  25.549  20.101   4.263
20266W        W92691  26.536  25.706  14.030
20267W        W92692   9.707  18.753  13.493
20268W        W92693  40.415   0.784  12.860
20269W        W92694  20.090  44.495   2.710
20270W        W92695  19.658  35.927   0.802
20271W        W92696  14.167  14.648   0.377
20272W        W92697  16.626   3.441  11.984
20273W        W92698  14.649   8.169  11.967
20274W        W92699  23.079  22.024  12.475
20275W        W92700  10.152  20.253  12.451
20276W        W92701  26.501  27.074  12.956
20277W        W92702  20.132  38.940  11.471
20278W        W92703  16.685  37.355  10.088
20279W        W92704  35.002  24.034   0.449
20280W        W92705  32.089   8.730   4.774
20281W        W92706   3.863  21.245  12.513
20282W        W92707  21.046  27.173   0.797
20283W        W92708  36.462  34.378   3.778
20284W        W92709  26.166   5.904  14.970
20285W        W92710   7.668  27.000  14.855
20286W        W92711  28.150  12.810   2.878
20287W        W92712  33.948  33.582  12.396
20288W        W92713  23.523  25.107   4.246
20289W        W92714  37.548  16.568  11.885
20290W        W92715  13.729  22.122   0.404
20291W        W92716  25.997  11.189   0.454
20292W        W92717  23.593  36.539   2.684
20293W        W92718   6.887   4.226   1.370
20294W        W92719  13.741  38.979  14.911
20295W        W92720  42.311   4.447   3.205
20296W        W92721  41.806  21.086   1.419
20297W        W92722  12.850  34.601  13.406
20298W        W92723  38.907  27.462   3.261
20299W        W92724  11.631  29.507   2.753
20300W        W92725  13.620  17.120  14.796
20301W        W92726  33.501  30.436   2.768
20302W        W92727  31.586  35.900   1.912
20303W        W92728   8.288  34.038  11.055
20304W        W92729  10.670   1.296  13.943
20305W        W92730  26.053  18.576  14.333
20306W        W92731  25.490   8.698  11.391
20307W        W92732  11.267   0.798   3.737
20308W        W92733  16.595  21.098   2.289
20309W        W92734  12.674  33.480   3.176
20310W        W92735  21.108  12.801  11.610
20311W        W92736  31.468  35.523   2.415
20312W        W92737  34.934  19.044   1.307
20313W        W92738   5.388   6.185   4.295
20314W        W92739   7.188  32.608  11.446
20315W        W92740  15.274  43.834   3.153
20316W        W92741  33.569  29.109   2.680
20317W        W92742  31.548   9.323  10.943
20318W        W92743  37.864  33.423  12.350
20319W        W92744  13.623  19.766  11.103
20320W        W92745  20.264  17.094   3.171
20321W        W92746  34.894  10.744   2.677
20322W        W92747  36.466  11.205  13.360
20323W        W92748  27.461  21.035  11.508
20324W        W92749   4.787  12.360  11.497
20325W        W92750  25.179  37.476   5.296
20326W        W92751  16.303  33.888  12.998
20327W        W92752  10.722  12.763   1.769
20328W        W92753   0.764  11.334   1.841
20329W        W92754  37.572  10.253   9.920
20330W        W92755  31.103   0.361   4.746
20331W        W92756   3.713  26.551   0.363
20332W        W92757  16.753  24.013   3.248
20333W        W92758   6.386  26.527   0.967
20334W        W92759   7.231  21.579  12.507
20335W        W92760  20.652  24.170   3.302
20336W        W92761   5.711  43.320   0.933
20337W        W92762  33.963  19.129   3.350
20338W        W92763  36.048  39.923  11.956
20339W        W92764  27.461  44.841   3.707
20340W        W92765   5.357  23.002   1.894
20341W        W92766  18.172  12.179   3.367
20342W        W92767  44.446  31.597  14.996
20343W        W92768  14.271  17.251  13.923
20344W        W92769  30.081  30.087   2.207
20345W        W92770   2.226  28.108  12.492
20346W        W92771  42.438   8.271  13.367
20347W        W92772  40.532  19.269   3.233
20348W        W92773  28.658  15.268   3.700
20349W        W92774  15.716  43.324   3.771
20350W        W92775  39.318  43.966  10.635
20351W        W92776  28.490  11.754   0.960
20352W        W92777  27.973  15.218  11.443
20353W        W92778  36.559  15.317  14.299
20354W        W92779   4.834  18.582   3.661
20355W        W92780  30.974  32.479  12.414
20356W        W92781   1.825  11.643  13.451
20357W        W92782  36.385   1.794   0.817
20358W        W92783  41.856  23.222  13.795
20359W        W92784  30.538  18.200  10.153
20360W        W92785   8.699  12.192   4.762
20361W        W92786   2.460   9.707   4.708
20362W        W92787  34.556   0.889   1.383
20363W        W92788   5.830  29.599  13.544
20364W        W92789  20.691  11.686   2.860
20365W        W92790  30.948  12.164   1.229
20366W        W92791  26.072  31.525   2.769
20367W        W92792  14.221  29.126   1.383
20368W        W92793  43.841   8.351   4.187
20369W        W92794  18.230  30.506   3.831
20370W        W92795  36.430  34.864   3.790
20371W        W92796   2.918  16.160   2.196
20372W        W92797  26.483   5.750   2.236
20373W        W92798  21.744   5.223  12.488
20374W        W92799  42.895  16.191   1.826
20375W        W92800  43.970  30.061   2.664
20376W        W92801  21.607  25.215   5.145
20377W        W92802  27.192  20.626  12.546
20378W        W92803   2.446   2.778   0.953
20379W        W92804   8.854  38.971   3.194
20380W        W92805  41.909   0.859   0.752
20381W        W92806  14.722  10.687   4.719
20382W        W92807  36.497   9.850   3.263
20383W        W92808  37.517  27.195  14.485
20384W        W92809  14.690  19.664   2.873
20385W        W92810  17.585  35.095  14.954
20386W        W92811  31.483  11.803  10.935
20387W        W92812  15.147   5.206  12.555
20388W        W92813  29.487  34.972   0.806
20389W        W92814  24.587  28.668  13.915
20390W        W92815  37.360  44.937  12.408
20391W        W92816   6.198  43.354   0.406
20392W        W92817  41.978  43.959  14.320
20393W        W92818  33.122  36.479   3.736
20394W        W92819  37.517   5.691   2.316
20395W        W92820   2.398   5.803  12.571
20396W        W92821  28.183  40.800  13.974
20397W        W92822  16.234  37.897  14.430
20398W        W92823  39.031  19.566   9.965
20399W        W92824  36.446   6.244  11.859
20400W        W92825  36.972  42.281  14.325
20401W        W92826  24.125   3.741   0.389
20402W        W92827  15.709   7.685  10.499
20403W        W92828  38.029  26.117   2.704
20404W        W92829  25.124  35.478   0.845
20405W        W92830  41.530  39.315   3.651
20406W        W92831  18.674  37.339  13.382
20407W        W92832  22.502   9.149  10.643
20408W        W92833  37.022  17.089  10.520
20409W        W92834   7.315   5.279   3.186
20410W        W92835  43.365  13.313  14.328
20411W        W92836  44.408   9.378   1.376
20412W        W92837   9.371  25.042   3.352
20413W        W92838  41.492  38.017   0.314
20414W        W92839  22.095  44.753   1.897
20415W        W92840  36.048  44.288   3.822
20416W        W92841  24.057  18.552   3.812
20417W        W92842  15.307  29.968  13.024
20418W        W92843  28.503   8.789   2.878
20419W        W92844   0.766   1.803  10.495
20420W        W92845  43.410   3.393  10.509
20421W        W92846  14.621  22.223  11.047
20422W        W92847   9.721  25.167   0.278
20423W        W92848  36.039  15.307  10.949
20424W        W92849  31.578  39.368  12.541
20425W        W92850  34.107  22.058   0.781
20426W        W92851  34.433  13.741   2.825
20427W        W92852  19.763  43.490   1.318
20428W        W92853  35.872  13.301   4.163
20429W        W92854  41.808   0.986  12.399
20430W        W92855   3.775  40.001  11.883
20431W        W92856  17.270  17.709  11.916
20432W        W92857   9.732   8.841   4.668
20433W        W92858   0.265  36.525  14.480
20434W        W92859   8.396  32.594   4.650
20435W        W92860  34.489  16.691   1.755
20436W        W92861  29.155  26.189  14.416
20437W        W92862  12.203  12.683   3.757
20438W        W92863   8.332  14.652   2.282
20439W        W92864  43.918  11.368  11.946
20440W        W92865   9.864  11.212  11.009
20441W        W92866  29.160  21.020  14.382
20442W        W92867  14.148  36.934  13.835
20443W        W92868  23.636  32.024   2.409
20444W        W92869  17.642  28.672   1.278
20445W        W92870   4.716  41.519  11.534
20446W        W92871  15.694  28.552  11.112
20447W        W92872  30.907  32.466   1.734
20448W        W92873  39.481  13.733  10.507
20449W        W92874  13.824  25.185  10.117
20450W        W92875  44.485  36.935   2.781
20451W        W92876  20.048  39.419  11.530
20452W        W92877  15.280   8.812  10.503
20453W        W92878   7.881  30.136   1.239
20454W        W92879   8.833  24.990   2.259
20455W        W92880  24.529  14.122  12.869
20456W        W92881  41.352   3.956   0.416
20457W        W92882  40.041  10.690   3.280
20458W        W92883  30.941  23.636  14.829
20459W        W92884  42.324  19.665   4.290
20460W        W92885  18.266  22.189   4.694
20461W        W92886  11.135  28.025   0.341
20462W        W92887  30.123  17.795  10.499
20463W        W92888  17.094  24.640   1.897
20464W        W92889  39.472  12.736   3.186
20465W        W92890  24.045  33.595   0.936
20466W        W92891  15.115  10.779  13.836
20467W        W92892  41.983   4.864  10.615
20468W        W92893  39.008  25.148   4.767
20469W        W92894  22.674  34.964   1.310
20470W        W92895  36.420  23.197  11.041
20471W        W92896  31.474   9.798  14.902
20472W        W92897   2.734  16.195   2.843
20473W        W92898  22.690  14.711  14.954
20474W        W92899  31.633  36.094   2.675
20475W        W92900   2.226  21.753  11.088
20476W        W92901   6.715   0.840   3.689
20477W        W92902   4.367  27.569   4.228
20478W        W92903  37.869  16.183  12.088
20479W        W92904  23.100  35.071   1.840
20480W        W92905  25.643   7.408   2.280
20481W        W92906  18.708  20.753   1.237
20482W        W92907  15.284  13.132   1.918
20483W        W92908  12.266  28.677   1.384
20484W        W92909  12.752  16.303  12.444
20485W        W92910  18.157  28.549  11.534
20486W        W92911  32.401  27.453   1.864
20487W        W92912  30.999   4.291  13.920
20488W        W92913  14.787   6.390   1.431
20489W        W92914   7.252   0.348   2.233
20490W        W92915  37.974  22.245  11.867
20491W        W92916  22.534  31.141  14.330
20492W        W92917  41.959   4.916   5.107
20493W        W92918  33.411   6.376   0.427
20494W        W92919   7.847  16.155   4.191
20495W        W92920  23.578   5.400  10.432
20496W        W92921  10.308   5.927   0.246
20497W        W92922  36.074  42.012   3.233
20498W        W92923  17.300  16.156   1.328
20499W        W92924  42.396  23.070  14.880
20500W        W92925  37.085  12.285  13.908
20501W        W92926  25.219  21.085  10.479
20502W        W92927  19.643  11.720  11.986
20503W        W92928  34.936  21.748  12.909
20504W        W92929   9.697  43.491  11.607
20505W        W92930  22.563  14.677   2.318
20506W        W92931  24.552  44.264   0.394
20507W        W92932  33.036  22.248   1.381
20508W        W92933  23.639  37.544  10.446
20509W        W92934  30.909  14.184  11.383
20510W        W92935  13.745  23.097   3.681
20511W        W92936  41.459   8.313  13.040
20512W        W92937  38.968   6.755  13.026
20513W        W92938   6.750  25.634  11.574
20514W        W92939  16.120  29.572   0.475
20515W        W92940  37.500  44.763  12.929
20516W        W92941  37.448  23.559  11.384
20517W        W92942  14.209  23.005   2.183
20518W        W92943  20.525  33.583  14.934
20519W        W92944  44.466  11.829   5.122
20520W        W92945  33.995  30.972   2.807
20521W        W92946  11.218  36.447  14.025
20522W        W92947  10.314  11.220  10.554
20523W        W92948  16.241  18.588   3.859
20524W        W92949  16.100  13.327  13.900
20525W        W92950  24.160  12.829   3.653
20526W        W92951  41.414  13.289   0.928
20527W        W92952  37.985  28.152  13.002
20528W        W92953  16.731   8.846  11.024
20529W        W92954  41.854   9.850  10.583
20530W        W92955   1.390  37.850   4.756
20531W        W92956   5.853  39.518   0.765
20532W        W92957  10.308   9.162   5.659
20533W        W92958  29.531  27.980   2.187
20534W        W92959  15.105  32.567  11.548
20535W        W92960  42.791   8.764   2.276
20536W        W92961  34.609  32.885   0.302
20537W        W92962  22.710  44.461  11.084
20538W        W92963   6.221  40.906  10.569
20539W        W92964  23.552  18.589  10.615
20540W        W92965   0.941  25.500   0.367
20541W        W92966  44.305  26.482  11.438
20542W        W92967  30.910  41.368  10.529
20543W        W92968  31.579  38.960  10.889
20544W        W92969   5.304  12.779   3.779
20545W        W92970  26.665   9.170  11.925
20546W        W92971  44.291  20.167   4.192
20547W        W92972  25.031  42.872   0.472
20548W        W92973  20.237  42.375   0.365
20549W        W92974  23.998  15.218  10.450
20550W        W92975   8.789  32.960  12.452
20551W        W92976   1.944  28.631  14.927
20552W        W92977  22.530  17.608   4.633
20553W        W92978  40.915  15.165   3.705
20554W        W92979  26.146  14.332  11.080
20555W        W92980  39.913  31.921   4.251
20556W        W92981  21.728   8.199   0.726
20557W        W92982  13.246  42.925  12.860
20558W        W92983   1.449  10.780  12.091
20559W        W92984   0.468   1.386  10.618
20560W        W92985  33.439   4.845  11.480
20561W        W92986  21.128   0.326   9.934
20562W        W92987  19.282  15.127   3.856
20563W        W92988  15.185  41.397  14.012
20564W        W92989  12.126  22.730   1.231
20565W        W92990  24.711  10.357  11.064
20566W        W92991  42.897  15.314   0.814
20567W        W92992  41.381   7.791   2.397
20568W        W92993  22.108  40.395   0.760
20569W        W92994  39.876  14.614  14.303
20570W        W92995  33.475  44.489  14.452
20571W        W92996   0.850  20.652   2.822
20572W        W92997  17.688  41.849   1.932
20573W        W92998  16.607   0.415  13.794
20574W        W92999  22.717  41.292  10.895
20575W        W93000  42.959  41.896  13.867
20576W        W93001  35.421  11.195   4.614
20577W        W93002  33.448  39.970   1.777
20578W        W93003  32.520   9.756   1.779
20579W        W93004  17.714  19.633   1.768
20580W        W93005  15.248  21.167   2.189
20581W        W93006  41.955  27.514   4.787
20582W        W93007  42.877  20.127  14.001
20583W        W93008  23.225  31.601   2.298
20584W        W93009  35.995  13.241  10.610
20585W        W93010  11.225  33.623  11.987
20586W        W93011  28.996   5.859   3.208
20587W        W93012  35.986  30.571   4.787
20588W        W93013  14.143  11.700   3.173
20589W        W93014  44.472  43.397  10.999
20590W        W93015   3.759  26.682   1.238
20591W        W93016  15.185  25.071  10.555
20592W        W93017   5.417  31.093   1.834
20593W        W93018   2.734  15.739  10.918
20594W        W93019  13.647  30.539  10.572
20595W        W93020   0.488  19.197  14.979
20596W        W93021  12.744  32.004  12.025
20597W        W93022  23.518  31.132   2.878
20598W        W93023  18.705  44.487   0.461
20599W        W93024   6.761  41.795  14.952
20600W        W93025  23.525  34.479   2.843
20601W        W93026  24.658  21.132   1.239
20602W        W93027  30.447   4.776  10.592
20603W        W93028   7.909  41.880   3.336
20604W        W93029  38.549   3.263  14.772
20605W        W93030  43.466   8.827  10.625
20606W        W93031   7.400  23.676   0.270
20607W        W93032  36.478  29.443   3.163
20608W        W93033  32.418  41.034  11.106
20609W        W93034  34.919   8.318   4.650
20610W        W93035  23.000  18.635   4.781
20611W        W93036  43.379  14.607  13.989
20612W        W93037  33.130  41.296  12.904
20613W        W93038  41.947  39.003   4.693
20614W        W93039  39.447  16.311  12.564
20615W        W93040  31.906  24.482   3.646
20616W        W93041  28.931  10.179   1.707
20617W        W93042  30.601   3.294   4.147
20618W        W93043  38.945  22.038   3.673
20619W        W93044   2.348  14.819   4.195
20620W        W93045   5.802   1.926  13.347
20621W        W93046   6.209  40.806   2.340
20622W        W93047  29.564  42.312   2.326
20623W        W93048   2.922  34.065   0.858
20624W        W93049  39.509  28.030   1.450
20625W        W93050  10.371  43.815   1.715
20626W        W93051  25.120  37.578   1.451
20627W        W93052  39.532  15.281   0.742
20628W        W93053  11.760  18.565   5.209
20629W        W93054   6.781   0.753   3.349
20630W        W93055   0.893  15.804  12.012
20631W        W93056  32.565  15.121   4.666
20632W        W93057  30.587   8.309  14.302
20633W        W93058   6.414  42.475  14.905
20634W        W93059  31.974   3.230  13.918
20635W        W93060  20.544  36.571   1.760
20636W        W93061  23.673  44.850   1.222
20637W        W93062  13.739  28.988  10.443
20638W        W93063  18.783  35.983  10.459
20639W        W93064  12.274  31.453  12.403
20640W        W93065   5.309  33.031  14.949
20641W        W93066   1.378   9.265   4.780
20642W        W93067   3.334  37.897   0.958
20643W        W93068  14.614  39.944  14.907
20644W        W93069  19.152  44.872  10.953
20645W        W93070   4.297   2.825   3.309
20646W        W93071  13.819  32.100  13.955
20647W        W93072  40.501  22.051   2.697
20648W        W93073  37.031  19.190  10.467
20649W        W93074  24.591  35.527  14.884
20650W        W93075  19.267  40.809   2.232
20651W        W93076  30.461  16.737  11.990
20652W        W93077  25.988  13.792  14.448
20653W        W93078  18.140  29.976  13.341
20654W        W93079  32.494   9.239   0.345
20655W        W93080  44.898  15.595   1.385
20656W        W93081   4.904  42.836  12.902
20657W        W93082  22.087  32.098   3.173
20658W        W93083  11.338   7.345   1.431
20659W        W93084  38.845   8.841   3.225
20660W        W93085  16.259  42.397   3.686
20661W        W93086  34.082  19.615  13.318
20662W        W93087  17.772   4.793  13.030
20663W        W93088  19.709   1.326   0.388
20664W        W93089  16.806   4.232  10.888
20665W        W93090  30.967   3.717   1.320
20666W        W93091  39.383  27.607  11.103
20667W        W93092   8.849  28.153  14.013
20668W        W93093  32.138  35.024  11.060
20669W        W93094   0.984  24.133  10.623
20670W        W93095  43.904  23.082  11.862
20671W        W93096  36.994   4.813  13.483
20672W        W93097  16.628  37.490  11.447
20673W        W93098  40.527   5.287   4.216
20674W        W93099  27.569  29.440   0.965
20675W        W93100  13.286   0.348   2.404
20676W        W93101  32.034  38.466  13.840
20677W        W93102   0.336  25.183  12.080
20678W        W93103  41.027  36.042  11.603
20679W        W93104  32.082  32.099   3.835
20680W        W93105  21.186  31.534   3.685
20681W        W93106  34.983   9.797   4.793
20682W        W93107   6.821   8.669  13.975
20683W        W93108  24.221   1.825  14.833
20684W        W93109  21.647   1.310   1.777
20685W        W93110  25.162  40.811   1.779
20686W        W93111  38.466  10.778   0.399
20687W        W93112  21.653  16.767  10.963
20688W        W93113   4.761  27.009   4.676
20689W        W93114  32.942  41.850   4.736
20690W        W93115  36.400  44.299   2.195
20691W        W93116  36.477  36.042  14.931
20692W        W93117  41.485  17.574  14.314
20693W        W93118   7.322  37.999   3.224
20694W        W93119  38.333   4.783  14.803
20695W        W93120   0.443  19.542   1.869
20696W        W93121  13.192  39.844  11.596
20697W        W93122  18.288  26.678   3.255
20698W        W93123  29.951  11.819   4.644
20699W        W93124  26.626   7.332   1.303
20700W        W93125   5.291  44.791   2.861
20701W        W93126  24.980  39.012   4.205
20702W        W93127  41.431  13.207   1.266
20703W        W93128  36.396  30.944  10.528
20704W        W93129   5.313  33.971   2.241
20705W        W93130  26.547  21.171  11.375
20706W        W93131  19.142  40.518  11.518
20707W        W93132   9.158  13.722   3.843
20708W        W93133  35.907   6.706  14.935
20709W        W93134  28.598  43.407  11.530
20710W        W93135  18.133  12.847  10.952
20711W        W93136   3.812   3.317  12.581
20712W        W93137   5.361   1.304  13.059
20713W        W93138  33.479  19.624   2.278
20714W        W93139   4.420  13.780  14.890
20715W        W93140  44.428  42.459  13.984
20716W        W93141  35.886  24.060   4.614
20717W        W93142  20.595  17.625  12.846
20718W        W93143  25.119   1.263   4.688
20719W        W93144  25.602   2.917   3.738
20720W        W93145   5.277  40.820  11.052
20721W        W93146   6.281   5.209  12.841
20722W        W93147  32.512   4.942  13.838
20723W        W93148  20.113  15.240   2.701
20724W        W93149  21.608  29.577   2.263
20725W        W93150  16.752  10.380  12.900
20726W        W93151  25.475  38.832  14.876
20727W        W93152  26.029  19.049  11.605
20728W        W93153  21.144  22.079   4.170
20729W        W93154  44.461   3.841  14.349
20730W        W93155  14.822  22.182   1.726
20731W        W93156   2.748  18.755   1.256
20732W        W93157  31.900  17.295  11.385
20733W        W93158  24.010  20.179  10.503
20734W        W93159  39.533  19.280  13.530
20735W        W93160   7.796  36.411  10.077
20736W        W93161   2.883  23.617   1.905
20737W        W93162   1.322  18.204   0.362
20738W        W93163  35.878  27.579   2.859
20739W        W93164  37.911  43.506   0.280
20740W        W93165  31.541  20.232   1.764
20741W        W93166   0.834  20.575   1.359
20742W        W93167  10.642  16.121   0.881
20743W        W93168  22.587  39.372   2.275
20744W        W93169  28.139  20.737   0.403
20745W        W93170  15.216  10.837  11.936
20746W        W93171  44.325   4.295   0.945
20747W        W93172  42.467  29.063  13.389
20748W        W93173  39.002  20.734  11.963
20749W        W93174   1.460  25.023  11.123
20750W        W93175  35.510  24.584  12.354
20751W        W93176   7.393  12.270  12.359
20752W        W93177  43.910  43.462  11.449
20753W        W93178  22.543  28.439   3.770
20754W        W93179  32.020  43.850  13.530
20755W        W93180  13.736  30.520  12.925
20756W        W93181  24.006  36.403  14.452
20757W        W93182  26.548   8.741  12.935
20758W        W93183  37.833  22.705   0.399
20759W        W93184   2.812   2.878   3.337
20760W        W93185  27.682   6.223   2.873
20761W        W93186  28.933   4.433   4.154
20762W        W93187  22.731  42.872   4.651
20763W        W93188  44.285  14.604  12.381
20764W        W93189  24.043  30.065  10.973
20765W        W93190  40.354  25.125   9.925
20766W        W93191   2.443  17.271  11.944
20767W        W93192   4.410  33.988   1.345
20768W        W93193  22.536  38.849   1.694
20769W        W93194  14.694  23.685  11.392
20770W        W93195  37.504  20.058   3.773
20771W        W93196  16.729  23.655  11.466
20772W        W93197   4.286  27.954  14.826
20773W        W93198  33.477  26.208  12.516
20774W        W93199   1.382  25.134  12.080
20775W        W93200  36.415  32.563  11.405
20776W        W93201  35.053  37.011  13.916
20777W        W93202   5.435  32.891   2.852
20778W        W93203  20.591  28.097  14.466
20779W        W93204  38.513  10.242  13.906
20780W        W93205   4.713  21.620  10.974
20781W        W93206  10.195  32.517   0.917
20782W        W93207  18.753   9.235   2.796
20783W        W93208  35.409  21.581  11.528
20784W        W93209  34.998  30.431  13.981
20785W        W93210  17.145  11.331  12.860
20786W        W93211  12.132   6.755  11.908
20787W        W93212  14.797  24.516  13.941
20788W        W93213  23.070   5.286  14.991
20789W        W93214  35.474  12.281   3.320
20790W        W93215  42.920  36.363   1.831
20791W        W93216   7.236  13.123   3.330
20792W        W93217  44.390  38.491  13.328
20793W        W93218  22.058  24.977  13.475
20794W        W93219  44.400  39.444  14.411
20795W        W93220  13.297  33.390  14.807
20796W        W93221  25.078  31.425  11.908
20797W        W93222  38.329  44.378   5.588
20798W        W93223   0.825  37.368  10.414
20799W        W93224  11.800  43.478   3.646
20800W        W93225  39.029  38.965  11.376
20801W        W93226  25.567  20.552  14.461
20802W        W93227  31.056  31.090  14.775
20803W        W93228  24.695  20.676   4.287
20804W        W93229  25.588  34.929  11.398
20805W        W93230  25.679  28.545   0.253
20806W        W93231   0.923  22.606  10.108
20807W        W93232  24.085  36.364   3.151
20808W        W93233  11.820   0.758  14.810
20809W        W93234   2.839  29.921   2.688
20810W        W93235  21.527   3.276  10.079
20811W        W93236  42.415  29.024   4.629
20812W        W93237  23.550  44.367   0.327
20813W        W93238  13.715   8.740  14.931
20814W        W93239  24.713  15.274   1.931
20815W        W93240  40.821  18.666   4.153
20816W        W93241   7.279  42.334  11.025
20817W        W93242  12.143  36.898  12.858
20818W        W93243  28.637  35.096   1.775
20819W        W93244  28.044  17.233  14.508
20820W        W93245  30.101  12.799   4.676
20821W        W93246  23.179   8.165   2.385
20822W        W93247  43.018  32.542  12.845
20823W        W93248  38.008  36.890   1.371
20824W        W93249  30.650  31.133   1.788
20825W        W93250  27.052  42.402  11.591
20826W        W93251   8.358  15.213   0.934
20827W        W93252   8.735  32.108   2.733
20828W        W93253   7.869  17.583   2.398
20829W        W93254  41.327  42.947   2.895
20830W        W93255   7.393   3.784   0.898
20831W        W93256  33.928  41.341  12.052
20832W        W93257  11.339  44.363   2.319
20833W        W93258  21.700   1.458  11.862
20834W        W93259  42.465  19.090   0.343
20835W        W93260  10.863  28.145  10.573
20836W        W93261   6.779  10.146   1.296
20837W        W93262  32.021  23.622  12.576
20838W        W93263  26.535  32.127  13.323
20839W        W93264  23.240  14.610  12.551
20840W        W93265   4.308   6.903   1.333
20841W        W93266  33.987  43.385   1.711
20842W        W93267  34.413  41.398   4.163
20843W        W93268  29.971  22.030   0.465
20844W        W93269  21.703  16.271   0.424
20845W        W93270  21.557   2.243  12.032
20846W        W93271  18.564  38.487   3.856
20847W        W93272  18.224   8.268   0.824
20848W        W93273  39.902  40.525   1.280
20849W        W93274  18.165  12.283  12.435
20850W        W93275  10.754  21.087  11.533
20851W        W93276  36.365  37.015  11.907
20852W        W93277  23.658  27.598  14.890
20853W        W93278  26.693  44.409   2.359
20854W        W93279  35.088  23.576   0.852
20855W        W93280  21.748  41.835  11.087
20856W        W93281  41.528  23.605   3.779
20857W        W93282  20.722  29.495   0.372
20858W        W93283  30.418  42.818  12.973
20859W        W93284  36.056  39.467   4.636
20860W        W93285  22.545  17.107   1.862
20861W        W93286  12.693  28.525   1.293
20862W        W93287  38.396   7.902   2.763
20863W        W93288  29.922   4.790   3.785
20864W        W93289   3.416  34.588   1.798
20865W        W93290  32.512  16.225   9.636
20866W        W93291  16.620   8.901   0.362
20867W        W93292  40.356  38.903   1.927
20868W        W93293   7.885  27.044  12.987
20869W        W93294  36.091  19.575  13.362
20870W        W93295  42.341  14.338  12.999
20871W        W93296  44.485  31.124  14.818
20872W        W93297  36.954  31.919   4.173
20873W        W93298   7.318  18.784  12.847
20874W        W93299   8.197   8.371   5.660
20875W        W93300  16.622  30.482  12.536
20876W        W93301   0.425  30.909   0.762
20877W        W93302   8.656  18.705  12.912
20878W        W93303  25.978  33.973   4.762
20879W        W93304  44.931  27.555  14.457
20880W        W93305  44.954   8.358   4.255
20881W        W93306  36.932  42.914   1.720
20882W        W93307   5.839   3.237  13.528
20883W        W93308  35.891  44.445   2.332
20884W        W93309  26.034   0.901   3.190
20885W        W93310  33.955  42.310  12.957
20886W        W93311   9.390  44.408   2.386
20887W        W93312  29.651  34.924   4.333
20888W        W93313  27.552  13.653   3.332
20889W        W93314  42.309  36.082   0.879
20890W        W93315  40.356  22.560  11.407
20891W        W93316   4.838  27.188  12.842
20892W        W93317  38.352  32.609  12.061
20893W        W93318  23.509  27.509   4.643
20894W        W93319  33.933  38.886   1.371
20895W        W93320  26.551  16.169   2.902
20896W        W93321   1.332  38.018   1.426
20897W        W93322  23.220   8.790   5.101
20898W        W93323  11.820  38.557   1.932
20899W        W93324   7.814  37.908  10.041
20900W        W93325  29.997   8.176   4.745
20901W        W93326  16.133  33.400  13.432
20902W        W93327  11.229  43.415   0.291
20903W        W93328  16.663  40.537   4.349
20904W        W93329  10.252  41.337  13.494
20905W        W93330   5.711  14.707  12.882
20906W        W93331  38.494  21.514  12.839
20907W        W93332  31.535  16.074  12.412
20908W        W93333  12.129   4.354  10.973
20909W        W93334  18.595  14.304  11.514
20910W        W93335  40.934   5.318  12.942
20911W        W93336  36.881   5.286  12.557
20912W        W93337  21.666  16.619   3.171
20913W        W93338  28.659  32.467   9.924
20914W        W93339   9.257   6.289   4.823
20915W        W93340  30.970  18.215   3.378
20916W        W93341  35.041  32.399  10.495
20917W        W93342   4.244   4.818  12.533
20918W        W93343  37.010  32.406   4.627
20919W        W93344  30.419  13.803  12.376
20920W        W93345  24.099   9.679   3.368
20921W        W93346  25.542   1.413   2.873
20922W        W93347  44.904  12.348   4.211
20923W        W93348   1.369   7.882   4.810
20924W        W93349  35.939  25.685   0.949
20925W        W93350  13.688  26.119   2.261
20926W        W93351  38.385  28.104   1.411
20927W        W93352  36.899  38.392   4.179
20928W        W93353  10.381  15.247  11.997
20929W        W93354  18.145   4.824   1.901
20930W        W93355  40.878  18.626  14.477
20931W        W93356  27.000  27.642  14.806
20932W        W93357   4.306  15.612   2.838
20933W        W93358  26.652   4.864   1.904
20934W        W93359  23.220   7.273   2.347
20935W        W93360   8.227   8.169  11.973
20936W        W93361  12.804  16.801   0.341
20937W        W93362  31.092  33.894   3.353
20938W        W93363  42.410  32.090  13.494
20939W        W93364  23.100  43.419   2.202
20940W        W93365   6.226  22.231   2.225
20941W        W93366  20.202   5.421   2.287
20942W        W93367  38.076   7.831  14.887
20943W        W93368  25.600  14.714   4.754
20944W        W93369   1.852  30.445   4.625
20945W        W93370  26.518  22.188  10.133
20946W        W93371  35.886  26.483  11.883
20947W        W93372  42.905   6.877  11.022
20948W        W93373  17.801  39.945   2.829
20949W        W93374  16.310  14.661  13.520
20950W        W93375  17.646  20.598   0.916
20951W        W93376  12.820  29.084  14.783
20952W        W93377  26.491  26.495  14.926
20953W        W93378  42.872  32.934   2.385
20954W        W93379  12.194   0.743  14.774
20955W        W93380  12.750   2.383   3.666
20956W        W93381   8.165  14.193   2.826
20957W        W93382  22.743  26.701   2.746
20958W        W93383  38.525  23.711   1.422
20959W        W93384   7.407  20.563  12.831
20960W        W93385  42.352  36.515   3.226
20961W        W93386  21.228  26.585   2.394
20962W        W93387  10.870  23.706   3.270
20963W        W93388  40.477  10.831  11.460
20964W        W93389  32.568  44.876   1.867
20965W        W93390   6.778  20.560   1.384
20966W        W93391   9.191  31.973   1.332
20967W        W93392  10.742  26.489   4.626
20968W        W93393  29.441  23.589   2.365
20969W        W93394  24.642   4.301   2.196
20970W        W93395  29.548   0.933   0.834
20971W        W93396  32.464  11.233   4.657
20972W        W93397  20.633  26.481   0.894
20973W        W93398  40.366   6.690   0.734
20974W        W93399   1.863  18.616   1.332
20975W        W93400  24.013  19.137  11.059
20976W        W93401  35.980  14.795  13.052
20977W        W93402  32.987  35.875  11.540
20978W        W93403  28.612  27.060   3.702
20979W        W93404  38.048   5.881   1.782
20980W        W93405  10.355  16.774  13.464
20981W        W93406   2.881  28.469  11.003
20982W        W93407  20.179  41.335   3.350
20983W        W93408  38.000  11.206  14.456
20984W        W93409   1.422  42.505   2.273
20985W        W93410  10.221  17.733   2.894
20986W        W93411  43.355   5.375   0.842
20987W        W93412  24.148  11.356  13.314
20988W        W93413  38.509   4.439   1.795
20989W        W93414  30.932  26.093  13.400
20990W        W93415  37.449  38.927   1.883
20991W        W93416  24.992  20.133   1.375
20992W        W93417  42.963  28.171   3.630
20993W        W93418   0.431  25.999  12.053
20994W        W93419   3.270   6.309  14.792
20995W        W93420  43.919  14.206   3.218
20996W        W93421  22.248  34.491   4.630
20997W        W93422  33.604  13.351  12.871
20998W        W93423  36.417   2.287   4.321
20999W        W93424  39.408  17.761   0.421
21000W        W93425  26.188  39.448   2.752
21001W        W93426  11.848   1.455  11.857
21002W        W93427  27.000  37.886   0.729
21003W        W93428  31.928  41.875   1.410
21004W        W93429   6.354  44.006  10.155
21005W        W93430  14.754  34.919  13.998
21006W        W93431   8.890  21.172   3.870
21007W        W93432  26.549  16.098  11.444
21008W        W93433  35.001   6.866   1.294
21009W        W93434   0.437  31.964   1.837
21010W        W93435   9.773  24.984   2.835
21011W        W93436  25.190   4.307   4.620
21012W        W93437  16.785  28.507  12.890
21013W        W93438  17.763  44.410  12.939
21014W        W93439  20.607   3.294  12.059
21015W        W93440   7.719   8.755   1.309
21016W        W93441  21.211  25.186   4.743
21017W        W93442  28.064  33.109  12.087
21018W        W93443  23.520  18.131  13.484
21019W        W93444  44.793  44.993   1.380
21020W        W93445  43.895  31.031   0.894
21021W        W93446  24.217   9.363  10.155
21022W        W93447  29.160  42.315  13.830
21023W        W93448  22.137   7.857  11.494
21024W        W93449  27.041  40.480  14.990
21025W        W93450  22.692  39.935  11.936
21026W        W93451  27.487  41.440  12.076
21027W        W93452  37.969  37.910   0.335
21028W        W93453  18.232  15.598   3.274
21029W        W93454  14.142  41.493  12.842
21030W        W93455  23.729   8.894   4.264
21031W        W93456  15.772  25.676   0.802
21032W        W93457  36.388  38.036   4.324
21033W        W93458  28.169  14.707   2.716
21034W        W93459  31.415  19.199   3.159
21035W        W93460  30.000  25.175  14.973
21036W        W93461  23.664  40.392  12.086
21037W        W93462  44.496   4.857  14.984
21038W        W93463   5.265  33.095   0.891
21039W        W93464  40.892  26.953   1.280
21040W        W93465   1.756   0.794  13.382
21041W        W93466  38.954  10.315   5.140
21042W        W93467  34.984  38.854  14.937
21043W        W93468   8.260   0.258  12.363
21044W        W93469  16.169  42.455  12.091
21045W        W93470  41.842   5.289   4.833
21046W        W93471  36.565   4.779   1.746
21047W        W93472  35.862  32.116  12.544
21048W        W93473  37.900  22.646   1.837
21049W        W93474  26.548  16.735   2.751
21050W        W93475  15.771  10.653   0.409
21051W        W93476  34.614  16.262   1.738
21052W        W93477  37.441  19.769  13.499
21053W        W93478   3.759   6.907   0.786
21054W        W93479  41.951  19.570   3.744
21055W        W93480  34.423   4.233  13.819
21056W        W93481  27.649  33.621   4.197
21057W        W93482   2.803  28.069   4.133
21058W        W93483  28.140  21.178  14.848
21059W        W93484  29.478   1.371   3.255
21060W        W93485   4.932  40.947   1.896
21061W        W93486  19.228  36.591  14.971
21062W        W93487  43.308  34.528  12.037
21063W        W93488  42.914  11.666   0.366
21064W        W93489   8.211  30.977   0.871
21065W        W93490  37.949  42.312  11.959
21066W        W93491  39.534  38.496  12.516
21067W        W93492  32.943   2.826   4.777
21068W        W93493  29.994  35.916   3.366
21069W        W93494  12.362  34.956   0.376
21070W        W93495  23.192   5.815   0.408
21071W        W93496  10.634  42.976   4.243
21072W        W93497  20.529   6.419  10.917
21073W        W93498  19.250   4.342   3.353
21074W        W93499  38.501  43.019   3.747
21075W        W93500  37.986   8.235  10.443
21076W        W93501  21.166  12.340   0.470
21077W        W93502   8.737  31.956  12.998
21078W        W93503  31.947  11.650   2.269
21079W        W93504  18.206   7.770   1.757
21080W        W93505  20.248  18.687  11.870
21081W        W93506  41.387  36.359  12.345
21082W        W93507  32.140   0.324  12.978
21083W        W93508  12.622  41.004   1.714
21084W        W93509   1.299  27.174   1.816
21085W        W93510  25.001  15.788   0.481
21086W        W93511  34.105  42.317   2.211
21087W        W93512   8.260  28.971  12.848
21088W        W93513  34.414  27.577   4.804
21089W        W93514  41.956  39.361   2.331
21090W        W93515  28.632  18.067   4.651
21091W        W93516  16.193   1.786   5.298
21092W        W93517  34.063  15.301  14.025
21093W        W93518   0.313   5.875   4.760
21094W        W93519  19.561  25.515   4.644
21095W        W93520  26.952  23.040   1.865
21096W        W93521  14.327  15.809   4.334
21097W        W93522  14.104  23.055  12.953
21098W        W93523  37.338  27.984  13.961
21099W        W93524   4.744  10.295   4.124
21100W        W93525  34.868  15.822  12.466
21101W        W93526  12.835  39.355  14.937
21102W        W93527  30.111  21.729   1.215
21103W        W93528  39.923   5.208   3.362
21104W        W93529  18.130  22.548   0.889
21105W        W93530  12.786  22.199   3.668
21106W        W93531  13.782  44.961  14.827
21107W        W93532  33.600  35.378   2.299
21108W        W93533  24.996  40.522  11.057
21109W        W93534   6.848  31.424   4.802
21110W        W93535  14.639  30.500   2.664
21111W        W93536  42.458   8.274   3.672
21112W        W93537  41.316  13.240   4.823
21113W        W93538  37.504   7.683  11.933
21114W        W93539   0.421  13.290   3.805
21115W        W93540  39.999  17.137   3.827
21116W        W93541  10.251  10.317  13.474
21117W        W93542  25.079  19.230  11.443
21118W        W93543  40.026  21.076  13.912
21119W        W93544  28.172   2.398   4.179
21120W        W93545  29.430  25.967   0.360
21121W        W93546  26.954  29.983   0.967
21122W        W93547  30.034  11.162   4.700
21123W        W93548   3.734  33.060   3.346
21124W        W93549  39.873   9.323   0.945
21125W        W93550  15.306  44.858   3.653
21126W        W93551  33.917   4.732   3.836
21127W        W93552  26.045  33.471  10.439
21128W        W93553  19.077  12.322   0.856
21129W        W93554   6.310   6.264  14.957
21130W        W93555  39.403  25.475  11.405
21131W        W93556  40.339   7.839   4.188
21132W        W93557  35.393   7.376   2.267
21133W        W93558  32.082  35.066  14.422
21134W        W93559  26.966  40.822   3.657
21135W        W93560  30.637   6.723   4.141
21136W        W93561  32.524  12.637   3.849
21137W        W93562   8.284  27.492  12.544
21138W        W93563  21.194  16.279   4.142
21139W        W93564  36.397  37.914   0.448
21140W        W93565  12.789  18.170   2.408
21141W        W93566  11.340  25.649  12.385
21142W        W93567  16.085   8.267  12.993
21143W        W93568  36.536   8.695   1.749
21144W        W93569  11.764   1.474  14.783
21145W        W93570   6.264  41.970   1.230
21146W        W93571   6.906   3.937  12.378
21147W        W93572   0.319  11.834  13.460
21148W        W93573  32.087  12.203   1.780
21149W        W93574  22.133  29.075   0.892
21150W        W93575   7.806  29.999  14.800
21151W        W93576  22.081  38.553  11.421
21152W        W93577  35.577  14.752  10.531
21153W        W93578   4.814  24.603   3.303
21154W        W93579  22.613  11.683   1.351
21155W        W93580  39.016  40.444  12.352
21156W        W93581  17.699  17.610  12.050
21157W        W93582   4.800  26.472   3.283
21158W        W93583   1.415  30.459   2.240
21159W        W93584  36.937  42.449   4.750
21160W        W93585   5.771  31.465   0.340
21161W        W93586  39.362   5.739   3.387
21162W        W93587  23.616  14.634  10.482
21163W        W93588  36.952   9.809  12.858
21164W        W93589  33.482  25.710   2.334
21165W        W93590  41.416  12.230   1.388
21166W        W93591  14.595  11.324   0.273
21167W        W93592  15.207   7.268  12.466
21168W        W93593  12.310  18.282   0.815
21169W        W93594  30.485   0.817   2.235
21170W        W93595  36.555  44.875   3.315
21171W        W93596  14.590  28.621   1.255
21172W        W93597  29.501  23.180  12.896
21173W        W93598  24.528  37.830  14.761
21174W        W93599   9.765   9.732  12.841
21175W        W93600  28.149  39.954   1.211
21176W        W93601  32.128  34.942  13.894
21177W        W93602  38.486  27.951   0.305
21178W        W93603  21.075   8.898   1.780
21179W        W93604  40.479  25.015  13.992
21180W        W93605  30.607   2.447  14.898
21181W        W93606  14.589  42.995   0.468
21182W        W93607  27.038  38.012  13.475
21183W        W93608  33.395  37.890  10.486
21184W        W93609  25.573  23.728  10.529
21185W        W93610  33.380   4.752  13.427
21186W        W93611  34.103  20.255   2.233
21187W        W93612  31.096  28.110   1.263
21188W        W93613   6.695  28.503  11.046
21189W        W93614  39.325   2.369   0.268
21190W        W93615  13.652  10.264   1.744
21191W        W93616  17.105   2.882  10.119
21192W        W93617  17.669  18.659  13.313
21193W        W93618  31.506   6.339  13.999
21194W        W93619   8.890  29.423  11.121
21195W        W93620   0.958  39.907  10.495
21196W        W93621   4.710   4.339   2.877
21197W        W93622  14.196  13.747  14.939
21198W        W93623  23.042  37.347  12.901
21199W        W93624   7.251  40.440   1.354
21200W        W93625  12.838  16.747   4.825
21201W        W93626  24.070  31.580  14.293
21202W        W93627  44.785  40.812  10.536
21203W        W93628  17.667  34.981   0.766
21204W        W93629  21.596  16.228   3.328
21205W        W93630  43.378  24.117  12.935
21206W        W93631  15.762  30.941   1.778
21207W        W93632  25.005  10.309   4.634
21208W        W93633  11.130  33.968  11.517
21209W        W93634  44.376  26.540  13.043
21210W        W93635  21.683  17.676  13.927
21211W        W93636  10.645  17.584  11.576
21212W        W93637  36.050  35.415  12.527
21213W        W93638  35.379  20.078  14.406
21214W        W93639  28.616  42.342  14.444
21215W        W93640  28.606  25.591   2.723
21216W        W93641  43.471   1.951  14.845
21217W        W93642  31.077  38.021   0.300
21218W        W93643  40.842  28.950   2.669
21219W        W93644  18.258  28.100   0.323
21220W        W93645  17.657   2.264   5.783
21221W        W93646   0.802  44.492   4.150
21222W        W93647  17.634   8.749  14.511
21223W        W93648  39.383  35.582  12.962
21224W        W93649  44.983  20.062  13.978
21225W        W93650  41.483   0.910  10.489
21226W        W93651  40.929  29.656  12.408
21227W        W93652  42.511  36.983  14.431
21228W        W93653  33.459  42.795  13.002
21229W        W93654  39.863  17.748   0.264
21230W        W93655  16.790  13.653   3.183
21231W        W93656  31.481  33.437   0.744
21232W        W93657   8.658  34.562  14.498
21233W        W93658   4.790   1.943  14.993
21234W        W93659  42.869  13.743  11.525
21235W        W93660  18.251   7.283  14.383
21236W        W93661   6.226  19.219   3.339
21237W        W93662  11.777  25.483   2.816
21238W        W93663   5.381  10.325   3.348
21239W        W93664  10.300  41.018  13.832
21240W        W93665  31.479  24.515   0.848
21241W        W93666  21.046   5.867  12.485
21242W        W93667   5.894  15.816   2.759
21243W        W93668  36.392  33.474   0.927
21244W        W93669  44.855   8.207   3.170
21245W        W93670   5.428   4.846   0.856
21246W        W93671  38.917  34.975  12.430
21247W        W93672  24.205   4.255   1.744
21248W        W93673  10.735  22.648   3.686
21249W        W93674  19.582  28.593  14.280
21250W        W93675  21.064  42.490   0.366
21251W        W93676   8.197  32.044   1.259
21252W        W93677  39.886   5.241  13.962
21253W        W93678  11.702  42.969   5.231
21254W        W93679   5.805  37.030  12.550
21255W        W93680   1.351  32.911   1.284
21256W        W93681   4.899  10.158   2.677
21257W        W93682   0.839  30.162  12.412
21258W        W93683  30.458  41.340  10.540
21259W        W93684  23.505  17.118   0.264
21260W        W93685   9.317  14.806  14.407
21261W        W93686   1.412  13.751   4.684
21262W        W93687  19.536  19.044   1.289
21263W        W93688  25.142   4.368  14.450
21264W        W93689  41.350  21.250  13.791
21265W        W93690  18.269  35.951  10.634
21266W        W93691   6.799  42.337   4.266
21267W        W93692  17.230  24.565  14.760
21268W        W93693  14.730  25.678  13.479
21269W        W93694  10.369   1.959  13.966
21270W        W93695  10.860  27.963  11.527
21271W        W93696  14.325  10.645  14.349
21272W        W93697   7.288   8.758   3.371
21273W        W93698  38.931   6.722   2.368
21274W        W93699  20.132   2.451  13.035
21275W        W93700   9.302  42.920  10.468
21276W        W93701  18.545  26.064  14.500
21277W        W93702  36.955  27.957  13.474
21278W        W93703   8.797  28.615   4.598
21279W        W93704  10.659   3.949  11.996
21280W        W93705  37.083  20.132  10.550
21281W        W93706  41.957  27.976  10.430
21282W        W93707  37.053   1.338  14.363
21283W        W93708  27.943  35.529   0.300
21284W        W93709  24.061  16.155   3.331
21285W        W93710  35.026  32.476   1.799
21286W        W93711   6.865  38.887  11.387
21287W        W93712   2.958  17.076  14.989
21288W        W93713  19.706  34.036   1.266
21289W        W93714  19.732   5.329   2.267
21290W        W93715   3.877  10.383  13.378
21291W        W93716  20.056  14.180  14.461
21292W        W93717  26.668  16.761  14.358
21293W        W93718  22.188  34.888  13.893
21294W        W93719   5.365  10.368  13.820
21295W        W93720  35.072  44.360   3.323
21296W        W93721   1.923   2.462  14.405
21297W        W93722  39.387  14.739   3.280
21298W        W93723  16.630  25.553  12.950
21299W        W93724  39.459  18.550  12.545
21300W        W93725  16.134  10.824  13.520
21301W        W93726  40.001  22.567  12.380
21302W        W93727  10.305  20.120   4.664
21303W        W93728  21.583  39.911  11.110
21304W        W93729   0.307  10.702   4.295
21305W        W93730   1.363  14.698   0.369
21306W        W93731  25.701   5.740   0.398
21307W        W93732   7.375  35.436   5.256
21308W        W93733  14.321   1.907  11.385
21309W        W93734  10.268  14.674  11.015
21310W        W93735   4.774  16.296   0.953
21311W        W93736  39.373  18.269  11.915
21312W        W93737  36.941  21.710   4.684
21313W        W93738  35.531  43.866   0.262
21314W        W93739  13.270  28.494   0.314
21315W        W93740   6.845   0.757  12.386
21316W        W93741  42.461  37.524   3.806
21317W        W93742  34.550  25.667   3.767
21318W        W93743  18.165  39.870  12.351
21319W        W93744  10.678   6.221   2.395
21320W        W93745  36.347  34.104   3.805
21321W        W93746  16.245  42.805   3.861
21322W        W93747  23.005   6.348   2.220
21323W        W93748  15.174  11.701  13.442
21324W        W93749   0.316  18.733   1.249
21325W        W93750  28.944   5.804   4.607
21326W        W93751  27.150  33.021   2.267
21327W        W93752  35.917  36.025  13.952
21328W        W93753  30.964  43.483  13.331
21329W        W93754  17.670  42.996  14.991
21330W        W93755   2.267  27.576  11.476
21331W        W93756  25.124   8.843  12.551
21332W        W93757  36.902  42.301   2.410
21333W        W93758  30.480  38.071  10.995
21334W        W93759  34.968  39.325   2.777
21335W        W93760  15.329  30.938  13.807
21336W        W93761  15.633   1.853  14.877
21337W        W93762  26.588  10.773   4.671
21338W        W93763   2.847  38.420  13.444
21339W        W93764  26.618  32.957   1.714
21340W        W93765  24.199  25.074  11.072
21341W        W93766  18.616  13.634   2.848
21342W        W93767  32.979  22.665  10.534
21343W        W93768  17.649  13.760  12.468
21344W        W93769   4.865  27.686  12.867
21345W        W93770  18.267  28.074   0.854
21346W        W93771   5.307  29.633   4.350
21347W        W93772  16.096  35.378   2.206
21348W        W93773  40.305  39.399  14.802
21349W        W93774  12.618  26.972  13.329
21350W        W93775   6.796   0.350  14.362
21351W        W93776   6.358  41.399   4.313
21352W        W93777  43.938  11.851   3.377
21353W        W93778  16.084   1.900  12.529
21354W        W93779  20.190  20.215  12.831
21355W        W93780  13.220  30.079  10.628
21356W        W93781  21.653  17.710  10.446
21357W        W93782   9.211  22.245   2.697
21358W        W93783  19.722   3.735   3.353
21359W        W93784   4.320  19.771  11.048
21360W        W93785  15.165  28.068   3.250
21361W        W93786  43.845  39.888   1.803
21362W        W93787  26.535  28.605  13.853
21363W        W93788  29.621  34.466  11.597
21364W        W93789  40.459  40.362  11.488
21365W        W93790  41.850  40.911   2.833
21366W        W93791  12.833   3.949  11.067
21367W        W93792  29.470  36.924   1.218
21368W        W93793  42.000  10.854  14.390
21369W        W93794  10.159  11.242  13.951
21370W        W93795  30.479  35.872   1.750
21371W        W93796  27.953  17.582   4.194
21372W        W93797  24.067   2.851   0.824
21373W        W93798   8.172  35.447   3.840
21374W        W93799  30.978  19.216   4.155
21375W        W93800  13.691  21.692  11.401
21376W        W93801   2.273  33.875  14.300
21377W        W93802  10.338  21.722   1.413
21378W        W93803  24.668   4.417  12.029
21379W        W93804  41.942  16.073   3.672
21380W        W93805  34.091  24.987  12.377
21381W        W93806  19.701  17.067   0.371
21382W        W93807  26.464   2.754   3.843
21383W        W93808   9.221  33.495   0.379
21384W        W93809  20.591   8.377   3.659
21385W        W93810  30.041  10.772   1.828
21386W        W93811  25.495   7.334  10.092
21387W        W93812   7.789  20.165   0.281
21388W        W93813  27.587  11.351   3.681
21389W        W93814   4.705  40.976  10.909
21390W        W93815  36.015  21.647   0.445
21391W        W93816  25.083  21.186  14.974
21392W        W93817  12.263  35.855   0.271
21393W        W93818   0.776  11.861  14.769
21394W        W93819  20.694  26.159  11.530
21395W        W93820  11.856  34.481  11.512
21396W        W93821   6.216   9.798  11.868
21397W        W93822  44.958  36.514  12.003
21398W        W93823  34.389   9.317  11.912
21399W        W93824  29.509  36.440  10.492
21400W        W93825  32.015  29.652  13.844
21401W        W93826  13.296  42.886   0.402
21402W        W93827  37.874  17.147   3.333
21403W        W93828  12.716   9.858   3.791
21404W        W93829   3.714   3.353   3.368
21405W        W93830  41.321  38.401   3.198
21406W        W93831  24.171   6.895   3.705
21407W        W93832  11.283  11.860   1.815
21408W        W93833  13.312   3.369  14.890
21409W        W93834  11.797  39.830   3.662
21410W        W93835  31.479  16.259   0.480
21411W        W93836  34.982  15.089   3.778
21412W        W93837   4.891   5.725  13.420
21413W        W93838   6.315  37.964   2.212
21414W        W93839  41.418  31.499   1.262
21415W        W93840  26.595  30.948   2.220
21416W        W93841  27.180   9.292  13.967
21417W        W93842   0.476   1.391  14.989
21418W        W93843  16.200  22.083   2.893
21419W        W93844   6.358  10.200  10.606
21420W        W93845  22.706  43.883  12.919
21421W        W93846  17.109  12.663  10.466
21422W        W93847   3.809  33.388  13.491
21423W        W93848  42.927  22.132   1.734
21424W        W93849  35.957  10.669  13.998
21425W        W93850  26.007  39.048  12.393
21426W        W93851   7.754  25.215  12.523
21427W        W93852  18.139  41.999  11.405
21428W        W93853  39.948  19.207  12.002
21429W        W93854  41.792  35.986   0.867
21430W        W93855  20.627   4.306  11.373
21431W        W93856  32.455  19.093   2.247
21432W        W93857   6.794  26.146  13.402
21433W        W93858  20.567  38.562  11.989
21434W        W93859  26.544  16.121   4.771
21435W        W93860  20.092  18.745   1.737
21436W        W93861  36.896  15.679  11.016
21437W        W93862  25.218  24.637  11.959
21438W        W93863   7.697  44.371   2.278
21439W        W93864   7.870  27.982  14.469
21440W        W93865  37.478   5.202  13.316
21441W        W93866  21.734  10.729   3.700
21442W        W93867  18.057  32.948  14.004
21443W        W93868  19.742  11.716  13.940
21444W        W93869  38.896  35.040  13.361
21445W        W93870   7.867  17.620  14.002
21446W        W93871  15.800  34.920   3.812
21447W        W93872   8.250  20.622  13.007
21448W        W93873  32.582  39.052   9.992
21449W        W93874   8.277  42.511   2.667
21450W        W93875  36.543  43.007   0.806
21451W        W93876  13.341   8.730   4.283
21452W        W93877  11.133  32.894  12.372
21453W        W93878  16.621  22.145   2.412
21454W        W93879   9.650  33.875   4.797
21455W        W93880  11.779  42.888   0.759
21456W        W93881   9.389  23.626   4.128
21457W        W93882  28.132   1.929   1.311
21458W        W93883  19.570  18.277  12.394
21459W        W93884   2.961  17.794  14.760
21460W        W93885  26.583   1.789   2.335
21461W        W93886   3.276  40.538  14.342
21462W        W93887  14.221   0.319   1.776
21463W        W93888  36.041  16.198  13.044
21464W        W93889  32.973  36.882   3.334
21465W        W93890   2.876  22.655   1.231
21466W        W93891  37.429  41.501  14.330
21467W        W93892  44.505  33.602   1.815
21468W        W93893  42.810  15.222  13.818
21469W        W93894   5.809  41.027   2.755
21470W        W93895  16.805  28.562   3.824
21471W        W93896  12.222  14.287   2.307
21472W        W93897  43.958  13.269   4.310
21473W        W93898   9.777  26.104   0.361
21474W        W93899  33.984   6.320  12.003
21475W        W93900  30.067  11.339  14.465
21476W        W93901  35.060  28.637   1.447
21477W        W93902  29.158   7.289   4.737
21478W        W93903  41.530   4.863  13.032
21479W        W93904  32.516  28.944   2.755
21480W        W93905  29.560  16.682   4.135
21481W        W93906  40.929  23.583  13.383
21482W        W93907  16.139  28.067   1.241
21483W        W93908  18.718   8.706  14.512
21484W        W93909   6.738  44.319  10.960
21485W        W93910   2.416  31.432   2.887
21486W        W93911  19.191  23.142   3.373
21487W        W93912  22.624  35.904  14.904
21488W        W93913   6.217  17.784   1.313
21489W        W93914  10.779  44.782  11.410
21490W        W93915  32.440   7.836   4.722
21491W        W93916   0.323  31.580  13.925
21492W        W93917  43.957  11.815  13.857
21493W        W93918  43.282  15.319   1.304
21494W        W93919   3.894   0.373  13.826
21495W        W93920  15.774   2.390   4.137
21496W        W93921  29.950  38.462  12.881
21497W        W93922  17.075  22.657  10.506
21498W        W93923  28.008   1.333   0.480
21499W        W93924  10.709  41.342   2.231
21500W        W93925  13.818  40.803  14.411
21501W        W93926  14.171  20.639  11.472
21502W        W93927  37.528  21.632   4.674
21503W        W93928  20.259  40.996  12.562
21504W        W93929   1.363  40.313   3.180
21505W        W93930  11.168  25.026  14.758
21506W        W93931  32.391  13.640   4.606
21507W        W93932  24.514  13.333   1.368
21508W        W93933  39.560  16.244   0.867
21509W        W93934  39.999  24.982  10.922
21510W        W93935  37.429  41.877   1.403
21511W        W93936  39.406  23.660  14.857
21512W        W93937  36.940  36.044  11.934
21513W        W93938  33.927  31.970   3.648
21514W        W93939  44.282   0.474   4.662
21515W        W93940  12.262  10.138  10.998
21516W        W93941  22.130  15.702  14.334
21517W        W93942  43.292  22.219  13.948
21518W        W93943  41.498  12.691  11.377
21519W        W93944  12.707  42.449   3.306
21520W        W93945  41.926  35.413  13.047
21521W        W93946   3.822  17.108  11.476
21522W        W93947   7.267  38.061  13.477
21523W        W93948   8.655  36.867  10.640
21524W        W93949  24.158  37.429   2.841
21525W        W93950   4.750  24.129  14.275
21526W        W93951   6.863  18.224   4.343
21527W        W93952   5.906  33.105   3.270
21528W        W93953   1.841  15.577   5.245
21529W        W93954  20.148  39.961   0.782
21530W        W93955  22.561  41.915   3.816
21531W        W93956  16.219  22.040  12.558
21532W        W93957  26.173  25.705  11.996
21533W        W93958  38.417  30.052  12.566
21534W        W93959  37.389  35.421  13.387
21535W        W93960  15.293  35.437  12.568
21536W        W93961  13.173  15.734  14.336
21537W        W93962   6.186  17.588   2.385
21538W        W93963  41.333   8.786   4.330
21539W        W93964  19.129  16.580   2.731
21540W        W93965   2.369  26.011  13.931
21541W        W93966  35.080  36.394  13.421
21542W        W93967  25.547  23.172  13.515
21543W        W93968  15.217  43.371  12.845
21544W        W93969  22.602  33.027  11.376
21545W        W93970  40.437   5.414  11.049
21546W        W93971  29.446  35.465   0.441
21547W        W93972   4.799   8.175   5.214
21548W        W93973  21.521  24.528  12.075
21549W        W93974  22.100   5.222   0.813
21550W        W93975  27.558  41.041   3.718
21551W        W93976  12.648  38.450   4.287
21552W        W93977  21.576  33.512   1.335
21553W        W93978   4.304  10.272   4.791
21554W        W93979  26.983  35.863  14.935
21555W        W93980  10.733  27.071   0.269
21556W        W93981  31.646  21.610  13.961
21557W        W93982   6.922  21.569  14.953
21558W        W93983  39.343  43.944   1.323
21559W        W93984   0.943  40.011   0.460
21560W        W93985  28.676  16.253   1.883
21561W        W93986  21.256  41.538   1.286
21562W        W93987   7.184   1.784   1.213
21563W        W93988   2.916  40.956  12.007
21564W        W93989  40.494   4.407  13.935
21565W        W93990  44.466  22.113  14.862
21566W        W93991  28.479  17.784   0.367
21567W        W93992  10.227  21.252   3.812
21568W        W93993   1.366   0.985  10.599
21569W        W93994  38.875  44.481   9.997
21570W        W93995  27.564   0.782  11.423
21571W        W93996   3.745   8.338  14.771
21572W        W93997  10.231   6.758  10.625
21573W        W93998  41.423   1.243  12.470
21574W        W93999  19.068  12.726   3.230
21575W        W94000  35.960  14.142   4.142
21576W        W94001  10.669  16.601  10.461
21577W        W94002  40.408  24.686   1.914
21578W        W94003  34.903  32.503  11.876
21579W        W94004  39.934  15.737   2.678
21580W        W94005   9.682  32.140   2.372
21581W        W94006  27.025  41.902   1.880
21582W        W94007  25.057   9.709   0.856
21583W        W94008  37.064  18.246  13.012
21584W        W94009   6.404   5.259  14.391
21585W        W94010  11.864  34.100   0.418
21586W        W94011  20.258   9.713   3.642
21587W        W94012  41.932  22.542  13.042
21588W        W94013  30.152  30.505  10.943
21589W        W94014  38.371  40.401   0.437
21590W        W94015  32.945  28.113   4.312
21591W        W94016  17.568  27.520   1.396
21592W        W94017  16.666  12.278   1.220
21593W        W94018  17.239   1.267   0.445
21594W        W94019  36.496   7.410   4.747
21595W        W94020   1.435   8.402   2.390
21596W        W94021   7.208  12.343   3.858
21597W        W94022  15.684  10.296  14.932
21598W        W94023  12.306   8.200   1.787
21599W        W94024  25.121  13.223   2.374
21600W        W94025  27.120   1.391  12.918
21601W        W94026  14.794  15.763   4.685
21602W        W94027  13.213  37.501   5.119
21603W        W94028  16.786  15.752  11.524
21604W        W94029  44.809  10.354  13.881
21605W        W94030  29.507  15.718   9.945
21606W        W94031   4.783   7.352   2.683
21607W        W94032  16.640   0.805  12.013
21608W        W94033  44.315  43.448   4.645
21609W        W94034  37.338  43.848  14.828
21610W        W94035   3.441  31.419   2.862
21611W        W94036  31.938  44.938  12.863
21612W        W94037  27.093  10.329  12.389
21613W        W94038  29.496  22.068  14.949
21614W        W94039  22.138  18.686   2.365
21615W        W94040   6.338  42.521   0.342
21616W        W94041  26.695  23.133  10.975
21617W        W94042  33.893  24.223  13.994
21618W        W94043  22.660  28.635   1.446
21619W        W94044  22.198  37.847   4.282
21620W        W94045  26.131  24.037   3.632
21621W        W94046   3.298  28.164   0.959
21622W        W94047  20.649  43.860  11.103
21623W        W94048  31.009   1.327   0.907
21624W        W94049  24.668   7.673   4.137
21625W        W94050  23.648  25.068   2.842
21626W        W94051   0.380  36.434   2.895
21627W        W94052  16.669  11.183   4.640
21628W        W94053   6.783  27.158  13.027
21629W        W94054  17.779  29.013   1.263
21630W        W94055   3.388   6.698   0.925
21631W        W94056  31.122  44.967  10.532
21632W        W94057   8.205  11.241   0.962
21633W        W94058  25.197  31.031   3.322
21634W        W94059   8.845   5.822  13.460
21635W        W94060  30.001  24.172  10.449
21636W        W94061  12.762  44.802   3.318
21637W        W94062  12.691  21.554   2.825
21638W        W94063   3.301  34.111   2.766
21639W        W94064  10.778  31.946  14.357
21640W        W94065  22.679   5.910   2.800
21641W        W94066  10.667  20.156  13.057
21642W        W94067   0.326  29.040   3.665
21643W        W94068  42.876  18.760  11.870
21644W        W94069  15.209  12.825   3.672
21645W        W94070  25.536  34.427  11.956
21646W        W94071  40.828  10.695   3.282
21647W        W94072  26.589  21.118   5.293
21648W        W94073  29.450  43.996  13.989
21649W        W94074  14.676   1.349  11.974
21650W        W94075  22.051  16.704  10.919
21651W        W94076  37.965  29.934   1.239
21652W        W94077   9.175  31.615   0.414
21653W        W94078   7.172  37.427  10.416
21654W        W94079  25.044  29.447   0.396
21655W        W94080   3.344  31.404  11.861
21656W        W94081  44.258  29.612  13.527
21657W        W94082  30.488  23.646   1.250
21658W        W94083  42.300  31.037  10.902
21659W        W94084  42.508  28.550   1.883
21660W        W94085  39.458   1.366  10.925
21661W        W94086   3.392  42.798  13.998
21662W        W94087  36.849  27.954   3.272
21663W        W94088  10.279  37.838   3.196
21664W        W94089  35.969  28.465  14.828
21665W        W94090  28.024  35.461   3.632
21666W        W94091  39.517   9.273   2.696
21667W        W94092  23.586   4.796   2.860
21668W        W94093  13.281  10.362   1.230
21669W        W94094  11.139  23.660  13.545
21670W        W94095   3.780  31.971   0.842
21671W        W94096  22.167  35.438   4.128
21672W        W94097  41.327  40.880   2.392
21673W        W94098  26.600  27.669   3.639
21674W        W94099  18.689  22.102  10.405
21675W        W94100  38.401   6.241  11.419
21676W        W94101  44.461   9.667   1.442
21677W        W94102  14.657  11.289   1.831
21678W        W94103   2.338  16.813  14.512
21679W        W94104   2.283  22.111   4.329
21680W        W94105  20.107  20.206  11.863
21681W        W94106  10.348  15.769  10.461
21682W        W94107  25.976  42.335  10.635
21683W        W94108  36.414  43.830  14.994
21684W        W94109  28.940  11.868  14.486
21685W        W94110  28.984  29.162  13.855
21686W        W94111  38.900   3.859  12.392
21687W        W94112  42.026  29.043  14.005
21688W        W94113  10.718   3.854   4.242
21689W        W94114  39.844  25.083   2.369
21690W        W94115  15.769  12.324  12.042
21691W        W94116  42.299   4.402  12.388
21692W        W94117  11.724  19.651   5.231
21693W        W94118  28.648  31.436   0.329
21694W        W94119  25.536  42.804  13.415
21695W        W94120  22.679  16.119  13.457
21696W        W94121  10.251   1.817  11.856
21697W        W94122  40.372  14.641  13.929
21698W        W94123  30.413   4.845  13.055
21699W        W94124  34.570  38.932  11.100
21700W        W94125  44.393  12.155  10.964
21701W        W94126  17.748   1.935  12.564
21702W        W94127   8.764  35.540  12.838
21703W        W94128  26.068  10.369  11.116
21704W        W94129  32.596  14.318   2.775
21705W        W94130  19.776   2.326  11.567
21706W        W94131   0.371  15.673   0.943
21707W        W94132  21.252  15.660   2.663
21708W        W94133  34.093  28.978  13.414
21709W        W94134  44.841  21.740   3.702
21710W        W94135   9.321  20.759   2.302
21711W        W94136  41.040   3.917  14.309
21712W        W94137  19.704  11.801  10.974
21713W        W94138  18.760  10.653  11.915
21714W        W94139  38.002  28.611  13.412
21715W        W94140  40.038  34.080  14.024
21716W        W94141  13.604   3.842  13.893
21717W        W94142  43.472  16.138   3.769
21718W        W94143   2.384  10.713   2.360
21719W        W94144  28.006  24.701   3.637
21720W        W94145  42.519  28.475  14.479
21721W        W94146  44.806   6.404   4.818
21722W        W94147  41.962  34.535   3.640
21723W        W94148  15.326   1.896   2.395
21724W        W94149  13.296  22.086   4.170
21725W        W94150  15.817  22.690   0.896
21726W        W94151  25.607  29.483   2.193
21727W        W94152   5.318  44.290  14.935
21728W        W94153  28.985  25.474  14.315
21729W        W94154  31.643  25.990  13.935
21730W        W94155  20.537  34.545  12.002
21731W        W94156   7.364  18.645   4.295
21732W        W94157  42.946   9.308   0.398
21733W        W94158  29.425  10.707   3.696
21734W        W94159  19.542  22.013  11.008
21735W        W94160  14.128  32.074  14.990
21736W        W94161  25.135  27.145   3.715
21737W        W94162  12.798  29.966  12.828
21738W        W94163  31.926   8.753  13.050
21739W        W94164  44.351  26.120   3.285
21740W        W94165  35.442  39.483   3.306
21741W        W94166  26.618  37.879   0.273
21742W        W94167  43.991  39.924  14.278
21743W        W94168  33.532  15.710   4.115
21744W        W94169   6.872  23.070   2.388
21745W        W94170  23.500  14.592  12.372
21746W        W94171   3.758   7.188  13.404
21747W        W94172  25.051  43.859  13.914
21748W        W94173  10.142  31.424  12.007
21749W        W94174  28.134  39.001  10.932
21750W        W94175  35.577   7.777   0.890
21751W        W94176  37.978  35.484   3.234
21752W        W94177   4.253  21.674  14.845
21753W        W94178  34.023  28.517   4.604
21754W        W94179  33.422  35.406   0.470
21755W        W94180  21.241  30.495   5.271
21756W        W94181  29.082   6.355   3.806
21757W        W94182  26.043  25.648   0.413
21758W        W94183  39.315  36.946   1.448
21759W        W94184  39.983   0.951  13.516
21760W        W94185  28.525  35.101   3.700
21761W        W94186   3.915  44.964  12.341
21762W        W94187  33.982   8.810  12.844
21763W        W94188  43.787  25.134  14.831
21764W        W94189   4.317  25.213  11.991
21765W        W94190  29.517  30.943   0.896
21766W        W94191   3.880  14.780  13.970
21767W        W94192  33.396  20.632   2.200
21768W        W94193  32.481  44.329   4.151
21769W        W94194  39.501  39.516  13.469
21770W        W94195  35.396  15.141  14.845
21771W        W94196  31.637  29.606   0.316
21772W        W94197  12.801  16.745  13.006
21773W        W94198  40.841  36.444  14.911
21774W        W94199   0.287  28.158   4.710
21775W        W94200  44.328  18.070   1.835
21776W        W94201  23.616  40.431  14.959
21777W        W94202   8.674  10.344   3.740
21778W        W94203  10.368  13.700  10.599
21779W        W94204  37.919  35.075  11.891
21780W        W94205  27.550  43.397   3.678
21781W        W94206  34.064   2.736  13.052
21782W        W94207  27.681   4.302  14.402
21783W        W94208  33.113  33.532  10.571
21784W        W94209  23.534  37.350  14.371
21785W        W94210  27.489  34.456   1.931
21786W        W94211   4.822  23.677  14.032
21787W        W94212  44.960  19.085  14.802
21788W        W94213  42.480  25.089  14.032
21789W        W94214  23.579  35.491   2.417
21790W        W94215  14.708   5.858  10.929
21791W        W94216  38.990  15.726  11.018
21792W        W94217  10.196  44.504  12.928
21793W        W94218   4.722  34.927   0.878
21794W        W94219  27.530   8.802   2.224
21795W        W94220  20.569  13.331  13.799
21796W        W94221  28.612  30.966  11.877
21797W        W94222  26.090  30.968  12.398
21798W        W94223  26.537  10.870  11.924
21799W        W94224   5.854  19.629  14.493
21800W        W94225  12.698  33.584  11.096
21801W        W94226  23.554   5.803   4.256
21802W        W94227  41.993  11.663   0.271
21803W        W94228  41.908  25.651   0.751
21804W        W94229  43.779  11.138   3.753
21805W        W94230   8.829  22.051  12.393
21806W        W94231  43.907  21.696  11.017
21807W        W94232   2.772   7.742  11.479
21808W        W94233  42.860  23.104   4.773
21809W        W94234  21.247  17.801  11.048
21810W        W94235   2.892  26.046   4.766
21811W        W94236  21.117  36.434   3.280
21812W        W94237  37.029  22.120  10.130
21813W        W94238   2.828  41.343   3.361
21814W        W94239  27.990   9.831  13.837
21815W        W94240   5.834  43.380  10.979
21816W        W94241   6.308   9.160  12.516
21817W        W94242  33.883  42.382  11.445
21818W        W94243  27.951  14.692   0.467
21819W        W94244  20.170  31.494   4.337
21820W        W94245  14.337  13.315  14.002
21821W        W94246   7.274  13.209   4.637
21822W        W94247   6.278  10.171  11.092
21823W        W94248   8.807   5.283  11.037
21824W        W94249  11.697  34.993   0.402
21825W        W94250  20.187  16.719  11.389
21826W        W94251  23.502   3.947  14.819
21827W        W94252  28.934  30.994   1.254
21828W        W94253   8.794  40.429   0.797
21829W        W94254  15.773  20.631   0.800
21830W        W94255   7.249  34.448  10.520
21831W        W94256   4.348  26.634  11.040
21832W        W94257  10.678   2.226  13.027
21833W        W94258  14.756  13.753   0.898
21834W        W94259  39.553   6.206  11.487
21835W        W94260  19.253  29.630   5.685
21836W        W94261   5.239   8.234   1.807
21837W        W94262  24.064  19.182   2.320
21838W        W94263  35.997  15.786  10.438
21839W        W94264  25.665  27.978  11.561
21840W        W94265  25.614  18.681  14.021
21841W        W94266  33.072  42.862  13.542
21842W        W94267  11.748  34.985  10.587
21843W        W94268  42.409  44.973  14.780
21844W        W94269  25.670   9.186   2.345
21845W        W94270  25.136  26.574  11.003
21846W        W94271  37.369  28.081  14.425
21847W        W94272   1.482  44.453   1.699
21848W        W94273  23.553  42.809  11.588
21849W        W94274   7.291  16.270   2.817
21850W        W94275   4.735  44.347  14.759
21851W        W94276  23.017  40.030   0.289
21852W        W94277  18.270   0.285   1.288
21853W        W94278  16.616  34.510  14.778
21854W        W94279  38.339  42.463  11.565
21855W        W94280  31.605  38.512   3.260
21856W        W94281  34.869  34.929  11.419
21857W        W94282  18.204  14.725   4.689
21858W        W94283  28.065   5.777   3.248
21859W        W94284  14.198  22.708   1.280
21860W        W94285  19.614  39.507   1.287
21861W        W94286  40.874   2.906   3.722
21862W        W94287  39.928  15.820  13.320
21863W        W94288   2.464  33.470  13.535
21864W        W94289   9.342  10.695   0.763
21865W        W94290  28.511  16.184   4.645
21866W        W94291  30.603  37.412   3.320
21867W        W94292   8.836   1.951   0.782
21868W        W94293   2.837  20.575  14.977
21869W        W94294  22.733  32.983  14.003
21870W        W94295  32.936   7.285   0.783
21871W        W94296  42.991  17.615  10.490
21872W        W94297  13.275  12.629   3.725
21873W        W94298  38.886  39.967  11.060
21874W        W94299  29.595  11.734  12.905
21875W        W94300  11.288  23.653  12.839
21876W        W94301  10.360  42.299  13.998
21877W        W94302  38.045  10.203  10.904
21878W        W94303  12.761  32.017  10.615
21879W        W94304  35.520  31.123  13.924
21880W        W94305  15.205  25.014  13.359
21881W        W94306  40.477  44.851   3.265
21882W        W94307   6.384   1.843   1.765
21883W        W94308  37.038   0.889  14.787
21884W        W94309  19.658  27.160  12.504
21885W        W94310  38.486  37.001   0.343
21886W        W94311  34.045   0.453  13.022
21887W        W94312   3.249  20.034   2.344
21888W        W94313  19.206  35.458   3.258
21889W        W94314  35.387  44.858  12.094
21890W        W94315   4.414  44.753   4.609
21891W        W94316   5.224  22.544   2.287
21892W        W94317  29.122   7.881   2.754
21893W        W94318  24.215   9.355   1.916
21894W        W94319  12.182   0.361  14.440
21895W        W94320  12.181  20.619   3.662
21896W        W94321  44.265   5.837  14.015
21897W        W94322  40.531  14.233  13.433
21898W        W94323  20.142  20.551  11.472
21899W        W94324  18.212  18.671  14.890
21900W        W94325  42.855  10.659  13.795
21901W        W94326   0.430  14.826   4.226
21902W        W94327  29.952  22.036  12.008
21903W        W94328  14.167  26.984   1.741
21904W        W94329   1.281  44.914  13.476
21905W        W94330   7.302  29.613  14.995
21906W        W94331  38.408  10.249  10.525
21907W        W94332  44.369  21.030  13.474
21908W        W94333  36.964  20.030  10.908
21909W        W94334  14.230  28.445  13.883
21910W        W94335  16.235   1.785   5.625
21911W        W94336  26.636   2.234  10.589
21912W        W94337   5.839  44.430  12.959
21913W        W94338  28.047   1.368   0.961
21914W        W94339  26.001   0.744   3.763
21915W        W94340  21.061  36.536  11.062
21916W        W94341  35.893  42.400   3.227
21917W        W94342  39.552  39.899   3.738
21918W        W94343  18.150  22.090   4.347
21919W        W94344  20.604   7.869  13.396
21920W        W94345  14.689   7.223  10.987
21921W        W94346  13.273  24.496  11.973
21922W        W94347   0.340  20.665  11.504
21923W        W94348  16.266  43.904   3.345
21924W        W94349  17.098  29.452   4.621
21925W        W94350  10.343  10.858  13.033
21926W        W94351   9.683  32.997   3.864
21927W        W94352   1.759  33.474   4.290
21928W        W94353  21.066   2.312  13.042
21929W        W94354  15.786   8.891  12.569
21930W        W94355  37.988  27.057   3.333
21931W        W94356  27.688  18.192   0.857
21932W        W94357  22.557  34.109  14.779
21933W        W94358  23.190  12.829  13.852
21934W        W94359  17.206  19.167  14.316
21935W        W94360  12.299   1.753   2.801
21936W        W94361  13.765  34.033   2.315
21937W        W94362  26.493  14.272   3.369
21938W        W94363  32.005   6.836   3.740
21939W        W94364   3.272  22.607  12.902
21940W        W94365  10.878  27.126  13.816
21941W        W94366   4.258   0.880  12.458
21942W        W94367   7.330  28.085   1.421
21943W        W94368  26.098   1.972   3.282
21944W        W94369  41.347  34.498   4.762
21945W        W94370  30.083  40.421   3.809
21946W        W94371  41.815   3.830  14.353
21947W        W94372  13.256  32.983  10.984
21948W        W94373  15.149  24.643  12.525
21949W        W94374  11.645   6.294   2.234
21950W        W94375  42.365  13.707  11.896
21951W        W94376  25.015  26.483   1.818
21952W        W94377   1.248  28.083   3.732
21953W        W94378  21.654  14.249  10.531
21954W        W94379  29.536  27.690  14.777
21955W        W94380  23.168   6.427  12.548
21956W        W94381  26.051  30.105   4.776
21957W        W94382  25.612  40.402  11.417
21958W        W94383  28.500  38.506  13.448
21959W        W94384  36.381  23.609  11.976
21960W        W94385  34.507  39.894  14.336
21961W        W94386  20.251   5.399   4.339
21962W        W94387   9.786  26.541  14.502
21963W        W94388  40.849  39.925  14.951
21964W        W94389  41.357  16.298   4.836
21965W        W94390  11.198  11.261  11.396
21966W        W94391  40.433  17.110  11.867
21967W        W94392  44.505  41.413  12.950
21968W        W94393   5.699   0.918   2.861
21969W        W94394   3.766  23.570   2.286
21970W        W94395  33.611  11.629  14.871
21971W        W94396   2.401  12.173  14.437
21972W        W94397   2.259  18.219   9.973
21973W        W94398   6.707  24.023   1.424
21974W        W94399  40.945   9.775   2.377
21975W        W94400  20.731  41.003   3.223
21976W        W94401  19.698  33.066   3.862
21977W        W94402  27.133   5.195   3.632
21978W        W94403  12.656  29.154  11.985
21979W        W94404  16.779  39.474   2.757
21980W        W94405  39.049  10.330   3.298
21981W        W94406  41.909  39.833   1.358
21982W        W94407  39.969  26.197   2.757
21983W        W94408  14.105  21.582  14.467
21984W        W94409  39.534  40.305   3.709
21985W        W94410  38.444  11.731   1.329
21986W        W94411  32.946  19.232   9.637
21987W        W94412  14.100   9.714  10.529
21988W        W94413  18.626  13.627   0.390
21989W        W94414   5.731  25.072   4.175
21990W        W94415  27.131  40.433   2.858
21991W        W94416  44.876  13.637   2.705
21992W        W94417  18.232   6.427  14.985
21993W        W94418  44.765  40.531  14.499
21994W        W94419   2.442   6.418   4.600
21995W        W94420   9.825  18.722   2.823
21996W        W94421  43.285   2.446  14.796
21997W        W94422   4.214  39.002  12.093
21998W        W94423  12.738  23.996   1.784
21999W        W94424  26.659  35.456  11.911
22000W        W94425  11.780  36.876  11.399
22001W        W94426  33.480   8.293  10.085
22002W        W94427   8.870   7.381  12.965
22003W        W94428  20.051   0.894  14.947
22004W        W94429  34.107  38.349  14.320
22005W        W94430  11.627  37.493   0.471
22006W        W94431  12.714   1.922   3.630
22007W        W94432  15.682  13.326   0.390
22008W        W94433  31.102  32.563   2.828
22009W        W94434   2.278   4.239   1.699
22010W        W94435  27.065   2.757   0.958
22011W        W94436  29.150  24.118  14.928
22012W        W94437  16.571  10.640   2.859
22013W        W94438  38.347  27.674   3.180
22014W        W94439  24.646  28.034  11.562
22015W        W94440  20.208  23.049   1.400
22016W        W94441  41.393  44.354  10.495
22017W        W94442   9.687   7.702  11.968
22018W        W94443  40.841  30.128  10.902
22019W        W94444   5.840  36.430  11.506
22020W        W94445  26.500  40.472   1.921
22021W        W94446   9.880   5.278   1.760
22022W        W94447  30.591   0.286   2.401
22023W        W94448   3.753   1.826  12.377
22024W        W94449  20.247  33.457  14.501
22025W        W94450  27.590  28.495   1.255
22026W        W94451  34.102  35.881   0.771
22027W        W94452  37.003  26.688  11.973
22028W        W94453  22.080   7.800   2.774
22029W        W94454  28.517  31.571   3.281
22030W        W94455   6.258  35.374   1.716
22031W        W94456  33.079  18.202   0.450
22032W        W94457  38.469  35.444  14.992
22033W        W94458   1.302   8.185  13.318
22034W        W94459   6.859   8.865  11.047
22035W        W94460  13.656  34.979  13.438
22036W        W94461  11.637  39.454   2.766
22037W        W94462  34.469  18.681  11.553
22038W        W94463  32.093  16.671  13.410
22039W        W94464   9.651   6.316   1.742
22040W        W94465   5.423  34.445  13.973
22041W        W94466  34.495  12.768  11.395
22042W        W94467  11.313  16.189   4.317
22043W        W94468  28.070  34.042  10.410
22044W        W94469  22.175  20.764   1.282
22045W        W94470   4.873  43.904   2.195
22046W        W94471  44.904  43.304   2.329
22047W        W94472  23.662   8.252  14.351
22048W        W94473  26.470  22.169   0.439
22049W        W94474  38.033  40.335   0.758
22050W        W94475  23.681   0.935  11.543
22051W        W94476  30.918   9.871  11.014
22052W        W94477  38.827   5.851   2.304
22053W        W94478   4.787   1.833  13.541
22054W        W94479   4.445   1.762   0.460
22055W        W94480   3.949  17.630  14.925
22056W        W94481  16.206  26.045   0.887
22057W        W94482  41.379   2.320  11.474
22058W        W94483  14.598   2.793  13.906
22059W        W94484  10.309  34.608   1.836
22060W        W94485  38.328  24.587  13.791
22061W        W94486  16.631  28.558  12.352
22062W        W94487   1.903  24.707  13.802
22063W        W94488  21.707  40.524  11.422
22064W        W94489  38.013  44.975   2.276
22065W        W94490  33.513   6.776  12.892
22066W        W94491  27.559   2.434   2.840
22067W        W94492  28.026   6.354  13.534
22068W        W94493  39.945  27.010   4.164
22069W        W94494   0.790  35.532  12.473
22070W        W94495  12.356   3.351   0.464
22071W        W94496  14.174  22.252   1.901
22072W        W94497  38.500   1.938  11.417
22073W        W94498  19.757  32.446  11.103
22074W        W94499  14.255  14.779  10.980
22075W        W94500  32.077  15.267   0.825
22076W        W94501  39.913  36.853  13.535
22077W        W94502  16.107  10.739   2.383
22078W        W94503  30.118  11.713  13.326
22079W        W94504  10.745   6.399   5.667
22080W        W94505  33.105  36.007  14.364
22081W        W94506  23.612  37.013  12.438
22082W        W94507  40.984  26.043  13.355
22083W        W94508   4.218   5.236  10.902
22084W        W94509  27.076  41.904   1.271
22085W        W94510  15.322  24.054   1.760
22086W        W94511  13.284  44.771  10.541
22087W        W94512  32.021  36.887   1.265
22088W        W94513   4.236   1.875  11.539
22089W        W94514  40.491  35.367  11.974
22090W        W94515  30.086  26.668  14.298
22091W        W94516  31.598  20.222  13.874
22092W        W94517  23.065   6.861  13.996
22093W        W94518  20.080   8.180  12.528
22094W        W94519  23.227  32.002   0.361
22095W        W94520   9.884   0.890   0.278
22096W        W94521  38.930  19.594   3.313
22097W        W94522  25.690  35.469  13.875
22098W        W94523  42.022  19.591   4.141
22099W        W94524  21.104  33.096   4.275
22100W        W94525  44.444   3.861   4.272
22101W        W94526  38.516   1.251   0.955
22102W        W94527  23.540   2.289  12.874
22103W        W94528   6.182  39.990   1.350
22104W        W94529  27.518   4.873  11.855
22105W        W94530   0.961  22.022   2.356
22106W        W94531  21.578  23.694   2.261
22107W        W94532  28.558  17.175   4.154
22108W        W94533   4.848  28.559   0.331
22109W        W94534   7.842  17.128   2.235
22110W        W94535  11.211  36.505  14.318
22111W        W94536   8.655  44.859   4.298
22112W        W94537  26.682  16.650   1.723
22113W        W94538   2.904  41.913  10.408
22114W        W94539  38.906   2.247   1.356
22115W        W94540   6.341  42.896   2.399
22116W        W94541  37.558  28.064  13.020
22117W        W94542   5.808   6.243  14.456
22118W        W94543  42.888  30.497   0.844
22119W        W94544  41.005  27.609   3.361
22120W        W94545   8.203  38.908  13.046
22121W        W94546   8.347  16.284  14.311
22122W        W94547  13.786  17.670   2.259
22123W        W94548  37.503  12.750  14.956
22124W        W94549  42.924  23.051  13.391
22125W        W94550   2.246  20.679  13.311
22126W        W94551  30.958  16.583  14.838
22127W        W94552   8.214   1.977  12.538
22128W        W94553  23.036  27.633  14.968
22129W        W94554  12.688  21.604  14.409
22130W        W94555   9.302  20.117  14.831
22131W        W94556   5.856   8.227  10.426
22132W        W94557  23.070  23.667  12.350
22133W        W94558  44.303  22.626   2.180
22134W        W94559  41.042  21.118  12.904
22135W        W94560   3.264  21.255   4.766
22136W        W94561  17.731  27.077   3.840
22137W        W94562  12.132  36.974   3.830
22138W        W94563  22.576  27.095  10.596
22139W        W94564  35.403  43.810   1.371
22140W        W94565   7.298  36.043   0.840
22141W        W94566  15.698   2.471  13.346
22142W        W94567   8.167  43.371   0.468
22143W        W94568   3.427  44.920  14.320
22144W        W94569  39.424   9.799  12.000
22145W        W94570  29.571  17.266   1.312
22146W        W94571   1.757  32.533  14.957
22147W        W94572   1.302  24.605   3.631
22148W        W94573  34.908  15.718   2.788
22149W        W94574  29.538  20.629  12.882
22150W        W94575  20.225   9.682  13.365
22151W        W94576  38.047   9.716   3.376
22152W        W94577  29.654  41.994  13.372
22153W        W94578  14.689  31.402  10.424
22154W        W94579  17.277  33.005  14.951
22155W        W94580  34.374  38.066  12.925
22156W        W94581  23.603  39.534  12.063
22157W        W94582  30.646  16.159   4.823
22158W        W94583  21.639  31.077  10.599
22159W        W94584  34.873   6.858  10.534
22160W        W94585   5.415  29.030  12.004
22161W        W94586   6.280  33.540  11.922
22162W        W94587  20.086  42.486   4.195
22163W        W94588  15.171  23.579   4.221
22164W        W94589  22.714   1.751   4.749
22165W        W94590  30.576  17.650  11.954
22166W        W94591  15.697  24.127   0.894
22167W        W94592   5.281  42.307   3.172
22168W        W94593  41.044   2.248   1.428
22169W        W94594  32.041  13.631  13.531
22170W        W94595   2.732   2.417   4.323
22171W        W94596  41.348  28.448  12.445
22172W        W94597   6.740  22.181   2.804
22173W        W94598  14.339  33.979  12.057
22174W        W94599  42.851  15.583  11.942
22175W        W94600  25.698  11.828  13.861
22176W        W94601  13.813  22.103   2.775
22177W        W94602  39.432  19.065  14.814
22178W        W94603  32.417  34.117   4.677
22179W        W94604  14.262  16.188  11.514
22180W        W94605  10.318  40.485  13.340
22181W        W94606  29.654  28.542   0.436
22182W        W94607  24.606  40.389  13.984
22183W        W94608   4.929  40.932  13.907
22184W        W94609  32.563   0.264  13.453
22185W        W94610  22.175   8.307  10.078
22186W        W94611  27.623  22.080   4.321
22187W        W94612   1.790   9.291  10.430
22188W        W94613  29.001   2.397   1.824
22189W        W94614   0.265  26.068  11.493
22190W        W94615  10.202   2.863  14.441
22191W        W94616  42.848  29.919  14.362
22192W        W94617  30.609   8.686   3.711
22193W        W94618   6.698  32.435   3.699
22194W        W94619  16.696  30.939  11.042
22195W        W94620  24.980  31.543  13.039
22196W        W94621  18.693  31.630  14.931
22197W        W94622   3.344  15.096   2.188
22198W        W94623  41.861  26.986  13.374
22199W        W94624  34.573  21.195   4.317
22200W        W94625   2.760  40.953   1.343
22201W        W94626  29.525  27.597  12.889
22202W        W94627   3.433   5.259   4.795
22203W        W94628  24.679  38.848   2.789
22204W        W94629  11.680  18.768  12.851
22205W        W94630  42.955  20.551  12.897
22206W        W94631  18.625   3.340   0.247
22207W        W94632  29.113  18.669   4.139
22208W        W94633   5.709  22.723   3.335
22209W        W94634   0.854  27.619   4.768
22210W        W94635  42.495  15.232  12.961
22211W        W94636  11.320  38.333  11.380
22212W        W94637  14.248  41.882   2.336
22213W        W94638  26.456  11.688  12.461
22214W        W94639  28.084   8.191  12.348
22215W        W94640   3.954  32.593  13.933
22216W        W94641  20.758   7.353   0.345
22217W        W94642   7.177   7.748   2.740
22218W        W94643  42.991  11.753  13.492
22219W        W94644  34.406   2.778   3.199
22220W        W94645  26.546  24.204   2.397
22221W        W94646  28.090   3.301  14.490
22222W        W94647  40.944  39.534   4.241
22223W        W94648  14.228   5.927  14.937
22224W        W94649  28.481   4.424  10.604
22225W        W94650  35.934  37.516   3.701
22226W        W94651  35.396  18.063  13.900
22227W        W94652   0.879  32.104  12.080
22228W        W94653   7.868  13.678   1.701
22229W        W94654  14.626  30.048   3.224
22230W        W94655  15.104  16.238   3.677
22231W        W94656   8.334   6.424   0.957
22232W        W94657   7.188  35.061   5.271
22233W        W94658  24.186  43.916   3.692
22234W        W94659  20.121  19.079   3.176
22235W        W94660  23.494  23.666  11.551
22236W        W94661  32.083  10.863   0.429
22237W        W94662  31.582   5.850   0.282
22238W        W94663   4.838  20.674  10.131
22239W        W94664  12.319  22.009   4.817
22240W        W94665  42.469  24.623   4.803
22241W        W94666   2.762  38.981   1.781
22242W        W94667  41.945  32.057  11.060
22243W        W94668  24.537  33.115  11.601
22244W        W94669   3.387  24.578   0.883
22245W        W94670   1.818  26.978  11.068
22246W        W94671  22.602  32.598  12.952
22247W        W94672  41.402  44.787  12.090
22248W        W94673  19.181  30.503  12.033
22249W        W94674  13.635  38.331  13.047
22250W        W94675   9.815  15.320  14.882
22251W        W94676  12.795  18.224   0.916
22252W        W94677  28.003  29.001  10.054
22253W        W94678  34.901  31.949   5.249
22254W        W94679  24.113  10.839   2.227
22255W        W94680  27.461  23.042  10.583
22256W        W94681   2.833  34.575   2.276
22257W        W94682  22.124   8.873   9.542
22258W        W94683  44.978  34.599   4.128
22259W        W94684  40.993  17.756   4.803
22260W        W94685  18.214  41.957  14.787
22261W        W94686  26.162  30.606  12.049
22262W        W94687  10.782  31.122   2.267
22263W        W94688  24.537  34.470  12.060
22264W        W94689  29.612   9.836   2.277
22265W        W94690  24.538  36.448   1.717
22266W        W94691  34.891  24.601  14.881
22267W        W94692   9.231  43.876  14.015
22268W        W94693   1.978  39.334   1.294
22269W        W94694  33.084  22.188  11.054
22270W        W94695  41.339  13.651  14.449
22271W        W94696  22.103  21.605  14.773
22272W        W94697  32.560   5.238   4.829
22273W        W94698  44.969   7.868  12.952
22274W        W94699  23.543  39.981  12.022
22275W        W94700  40.543  37.898   2.818
22276W        W94701  41.816  37.031   4.145
22277W        W94702  24.013  15.763   2.850
22278W        W94703  25.601  40.843   3.267
22279W        W94704  12.719  23.048  11.048
22280W        W94705  16.151  44.315   4.344
22281W        W94706  37.407  33.469  12.532
22282W        W94707   3.323  11.156  13.985
22283W        W94708   0.935  38.913  13.335
22284W        W94709  34.079  15.197  11.102
22285W        W94710  22.511  10.710  11.099
22286W        W94711  11.183  44.355   0.776
22287W        W94712  39.389   4.215  12.439
22288W        W94713  22.577   6.265  11.884
22289W        W94714  10.224  43.004  14.990
22290W        W94715  38.911  29.604   3.321
22291W        W94716  38.000  29.162  10.588
22292W        W94717  30.470  44.763   3.233
22293W        W94718   5.727   6.424  10.534
22294W        W94719  34.973  32.058   1.256
22295W        W94720  16.693  31.077  10.471
22296W        W94721  37.507  17.129  13.322
22297W        W94722   8.229  26.547   0.360
22298W        W94723  26.499  35.856  10.037
22299W        W94724  13.646  14.810  14.933
22300W        W94725  30.629  38.912   3.307
22301W        W94726   1.321  28.068  13.347
22302W        W94727  32.059  42.482   2.389
22303W        W94728  16.142   2.457  13.918
22304W        W94729  42.449  39.477  12.504
22305W        W94730  12.310   4.742   1.415
22306W        W94731  17.233  20.223   2.891
22307W        W94732  24.173  32.565   4.655
22308W        W94733   6.219  11.731   4.143
22309W        W94734   0.407  16.648   0.478
22310W        W94735  25.180  27.591  11.490
22311W        W94736  43.836   5.741   2.799
22312W        W94737  35.495  42.874  11.874
22313W        W94738  40.971  26.009   0.346
22314W        W94739  19.614   9.172  13.470
22315W        W94740   0.450   2.915   1.858
22316W        W94741  18.132  37.874   0.366
22317W        W94742  33.008  36.059  10.638
22318W        W94743  16.241  34.032   2.816
22319W        W94744  14.263  38.480   0.738
22320W        W94745   2.819   4.746  11.611
22321W        W94746   8.828  10.354   4.728
22322W        W94747  40.481  18.589  14.422
22323W        W94748  25.673  41.890  13.806
22324W        W94749   9.157  15.312   1.370
22325W        W94750  26.698  21.042  14.442
22326W        W94751  29.543  24.672   2.357
22327W        W94752  43.395  41.890  12.420
22328W        W94753  20.607  24.577  12.492
22329W        W94754  34.014   7.788  12.846
22330W        W94755  16.806  11.350   3.269
22331W        W94756  15.209  26.114  14.453
22332W        W94757  25.141  29.024  14.398
22333W        W94758  44.758  10.722  11.503
22334W        W94759  24.592  14.620  14.875
22335W        W94760  16.703  34.539   1.430
22336W        W94761  31.577  25.218  13.342
22337W        W94762   9.279  13.666   3.348
22338W        W94763  25.970  22.049   3.339
22339W        W94764  17.728  14.117   0.892
22340W        W94765   4.240  30.491   2.861
22341W        W94766  36.452  43.992  10.595
22342W        W94767  20.639  28.999   3.846
22343W        W94768   9.353   6.714   3.196
22344W        W94769   7.207  17.569  10.605
22345W        W94770   4.297  20.231   4.221
22346W        W94771  35.940  39.553   4.199
22347W        W94772   0.346  38.389   2.814
22348W        W94773  38.021   6.356   3.211
22349W        W94774  38.000  11.639   9.925
22350W        W94775  26.497  13.845   3.818
22351W        W94776  18.175  25.064   3.277
22352W        W94777   3.402  35.035   1.410
22353W        W94778  34.936  19.257   4.219
22354W        W94779  42.345  19.773  11.419
22355W        W94780  31.466  16.763   0.380
22356W        W94781   0.401  15.807  10.989
22357W        W94782  17.201  30.040  11.008
22358W        W94783  41.391  14.686  12.979
22359W        W94784  36.977  44.765  13.914
22360W        W94785  22.152  39.010  12.898
22361W        W94786   1.887   4.361  13.516
22362W        W94787  19.754  28.670  10.467
22363W        W94788  25.483  40.359  12.530
22364W        W94789  27.144  28.077  13.951
22365W        W94790  29.601  32.094  10.039
22366W        W94791  40.837  15.651   4.330
22367W        W94792  38.060  25.472   9.971
22368W        W94793  26.479  15.727   2.365
22369W        W94794  20.151  40.394  13.504
22370W        W94795  25.556   7.292   1.276
22371W        W94796  12.635  37.359  14.000
22372W        W94797   1.968  31.553   3.716
22373W        W94798  29.648   0.761  11.604
22374W        W94799   5.273  26.533  14.012
22375W        W94800   9.822  30.591   3.852
22376W        W94801  29.535  43.365   2.210
22377W        W94802   9.675  17.091   4.765
22378W        W94803  44.457  34.430  13.004
22379W        W94804  29.579  12.247   3.785
22380W        W94805  23.569  29.428   1.235
22381W        W94806  33.123  42.437  14.323
22382W        W94807   6.912  39.991   3.291
22383W        W94808  34.069  37.478  14.500
22384W        W94809  40.462  26.156   1.402
22385W        W94810  19.176  16.586  14.462
22386W        W94811  41.497  30.151  14.463
22387W        W94812   6.888  32.984   0.254
22388W        W94813  22.051   1.360  10.501
22389W        W94814  11.269   1.456  11.025
22390W        W94815  21.091  36.081  13.881
22391W        W94816  44.416  38.991   3.307
22392W        W94817  27.465  42.795   1.723
22393W        W94818  43.514  42.402   3.285
22394W        W94819  24.546   4.280   3.711
22395W        W94820   5.836  29.158  12.007
22396W        W94821  11.269  32.484   4.780
22397W        W94822  40.948   8.728   0.855
22398W        W94823  43.867  38.013   0.399
22399W        W94824  17.183  44.324   9.997
22400W        W94825  19.592  43.933  10.609
22401W        W94826  14.676  38.482   4.599
22402W        W94827   0.836  13.195   1.783
22403W        W94828   3.333  14.188   0.817
22404W        W94829  15.303  25.702   4.254
22405W        W94830  32.562  13.844   2.419
22406W        W94831  16.083  30.638   2.229
22407W        W94832  21.659   3.415   3.327
22408W        W94833  37.866   1.460  11.967
22409W        W94834  33.406  26.077   1.218
22410W        W94835   5.307  22.152   1.387
22411W        W94836   0.809  31.897  12.837
22412W        W94837  35.892   1.796   0.829
22413W        W94838  24.605  34.431   1.839
22414W        W94839  44.791  39.947   0.951
22415W        W94840  30.534  17.605  12.850
22416W        W94841  21.670  22.555  11.552
22417W        W94842  14.763  12.141  14.342
22418W        W94843   8.348  42.987   1.245
22419W        W94844  18.257   6.349  13.517
22420W        W94845   0.302   5.725  10.550
22421W        W94846   6.350  35.382  10.588
22422W        W94847   7.199  14.244  12.050
22423W        W94848  41.294   7.809  13.794
22424W        W94849  12.733  26.193  10.472
22425W        W94850  32.074  14.297  13.830
22426W        W94851  40.987  19.671  14.497
22427W        W94852  39.363  36.953   4.184
22428W        W94853   8.312  39.013   3.662
22429W        W94854  13.173   4.444   0.784
22430W        W94855  37.511  15.257  11.484
22431W        W94856  35.499  22.121   3.267
22432W        W94857  31.040  13.307   0.775
22433W        W94858  17.068  30.503  11.087
22434W        W94859  33.401  14.271   4.220
22435W        W94860   0.424  22.735   2.239
22436W        W94861  44.909   6.785  13.422
22437W        W94862  28.621  10.153  13.969
22438W        W94863  33.044  11.244   4.301
22439W        W94864   7.217  27.067  14.004
22440W        W94865  27.948   8.279  10.594
22441W        W94866  10.664  11.142  13.911
22442W        W94867  24.580  44.771   4.755
22443W        W94868  31.590  19.058   3.843
22444W        W94869  22.251  19.133  12.499
22445W        W94870  15.635  19.117  11.471
22446W        W94871   2.871  34.974   2.895
22447W        W94872   9.694  42.342  10.970
22448W        W94873   5.222  35.474   4.221
22449W        W94874  23.557  40.935  13.542
22450W        W94875   3.317  33.447  11.580
22451W        W94876  29.618  22.228  10.921
22452W        W94877  33.009  14.647   1.426
22453W        W94878  42.959  32.440  14.364
22454W        W94879   5.287  41.351   3.257
22455W        W94880  15.271  33.494   4.333
22456W        W94881  25.021  12.195   0.340
22457W        W94882  20.660   3.367   1.862
22458W        W94883  44.758   3.897  14.327
22459W        W94884   0.398  19.255  14.350
22460W        W94885   9.237   0.849   1.778
22461W        W94886  16.226  35.569  10.408
22462W        W94887  38.917  41.395  12.935
22463W        W94888   7.707  44.798  11.430
22464W        W94889   3.951  40.520  11.539
22465W        W94890  23.137  10.682   5.801
22466W        W94891   5.693  25.188   4.796
22467W        W94892  11.726   5.718   3.811
22468W        W94893  29.581   2.381   0.247
22469W        W94894  25.987  23.490   4.618
22470W        W94895  35.077  13.721  10.918
22471W        W94896  24.143   9.310  13.314
22472W        W94897   7.835  33.970  10.537
22473W        W94898  44.791  34.428  13.338
22474W        W94899  43.881  25.663  11.593
22475W        W94900  15.619  12.774  10.611
22476W        W94901  42.941   6.378   1.253
22477W        W94902   6.312  21.234   0.775
22478W        W94903   9.745   0.905  12.435
22479W        W94904  11.780  32.580   4.270
22480W        W94905  33.986  41.871   1.449
22481W        W94906  17.772  11.768   0.283
22482W        W94907  36.551  37.856   4.676
22483W        W94908  21.559  14.700   3.302
22484W        W94909   5.241  38.465   1.867
22485W        W94910  13.191  19.690  12.884
22486W        W94911  44.985  32.093  13.448
22487W        W94912  33.457  26.049   1.834
22488W        W94913  13.242  40.884   3.277
22489W        W94914  25.021  43.017   4.614
22490W        W94915  26.544   3.758   0.797
22491W        W94916  17.767  11.250  10.410
22492W        W94917  40.949  29.533  12.018
22493W        W94918  29.520  28.073  11.389
22494W        W94919  41.956  22.715  11.999
22495W        W94920  14.246   7.822   2.899
22496W        W94921  32.898  27.561   0.753
22497W        W94922  15.321   3.454  12.083
22498W        W94923  14.711  19.086  11.403
22499W        W94924  14.697  14.249   3.669
22500W        W94925  14.126  22.565   3.836
22501W        W94926  41.945  43.444  11.610
22502W        W94927  17.241  30.140  11.391
22503W        W94928  33.401  42.778  10.889
22504W        W94929   0.416   7.858  10.456
22505W        W94930   8.871  25.485   5.265
22506W        W94931  25.540  43.324   1.698
22507W        W94932  12.657   5.403   4.664
22508W        W94933  12.287  15.260   1.748
22509W        W94934  13.814  14.808   3.859
22510W        W94935  32.937   6.248   2.804
22511W        W94936   6.329  44.361  13.938
22512W        W94937  12.632  37.509  11.585
22513W        W94938   2.777  23.593   1.351
22514W        W94939  25.169   8.386   2.296
22515W        W94940  19.775  19.707  12.090
22516W        W94941  25.522  12.294  14.302
22517W        W94942  32.029  16.310  12.047
22518W        W94943  41.943  15.328   1.252
22519W        W94944  11.269  17.672   1.701
22520W        W94945  17.128  21.637  11.023
22521W        W94946  15.762  20.564   3.868
22522W        W94947  26.964  13.171   4.250
22523W        W94948  24.219   1.975   1.284
22524W        W94949   6.286  19.240   2.205
22525W        W94950   5.329  21.724  14.456
22526W        W94951  29.563  42.990   5.268
22527W        W94952  21.685  24.088   0.748
22528W        W94953   3.759  35.420  12.832
22529W        W94954   4.260  12.280  10.611
22530W        W94955  42.326   5.335  13.820
22531W        W94956  11.188  14.331   3.641
22532W        W94957   2.366  20.715   1.315
22533W        W94958   7.348  38.861  11.533
22534W        W94959  13.275  36.021  11.863
22535W        W94960  43.409   0.936  12.034
22536W        W94961  33.542  11.324  12.832
22537W        W94962  15.322   3.851  11.073
22538W        W94963  27.470   1.908  13.802
22539W        W94964  18.295  43.965   2.290
22540W        W94965   2.860   0.292  14.953
22541W        W94966  20.581  40.540   4.309
22542W        W94967  40.906  44.383  10.949
22543W        W94968  13.296  40.800  12.923
22544W        W94969  26.186  32.442  13.444
22545W        W94970  17.664  44.956   0.811
22546W        W94971   3.840  18.164  10.979
22547W        W94972   5.233  12.354  14.915
22548W        W94973  22.612  16.132   0.728
22549W        W94974  42.896   4.324   2.854
22550W        W94975  36.542  16.089  14.485
22551W        W94976  42.423  29.444  11.121
22552W        W94977  32.528   0.456   1.431
22553W        W94978  42.884  13.783  13.355
22554W        W94979  16.783  27.582  12.367
22555W        W94980  33.100   1.883  14.443
22556W        W94981  23.032  43.953  12.345
22557W        W94982  30.127  24.585  12.571
22558W        W94983  34.108  44.398  14.937
22559W        W94984  16.298  26.098   1.394
22560W        W94985  34.395   8.352   2.743
22561W        W94986   1.927  21.101  12.560
22562W        W94987  14.683  12.797  12.405
22563W        W94988   0.796  11.784   1.447
22564W        W94989  21.046   0.325   4.146
22565W        W94990  25.215   6.307   0.887
22566W        W94991  21.748  19.178   2.281
22567W        W94992  21.247  13.158   1.708
22568W        W94993  43.389  19.754  14.960
22569W        W94994   1.476  44.318   0.772
22570W        W94995   7.693  26.459  12.879
22571W        W94996  19.211  35.105   4.236
22572W        W94997   5.803   4.276   3.342
22573W        W94998   7.865  18.748   2.348
22574W        W94999   8.659  31.407  14.943
22575W        W95000  17.765  22.597   3.710
22576W        W95001  14.285  26.528  12.980
22577W        W95002  30.641  38.916  11.524
22578W        W95003   1.375   9.250  12.431
22579W        W95004  36.386  18.654   0.369
22580W        W95005  28.170  33.448   2.202
22581W        W95006  32.063  36.537  11.001
22582W        W95007  35.958  29.428  13.909
22583W        W95008  29.582  40.870  12.431
22584W        W95009  38.542  10.351  11.989
22585W        W95010   5.781  15.305   3.208
22586W        W95011  42.988  28.663   0.770
22587W        W95012  20.048  42.872   0.750
22588W        W95013   9.681  22.108   3.202
22589W        W95014  17.661  24.701   4.218
22590W        W95015  44.323  21.189   2.378
22591W        W95016  42.392   6.370  11.579
22592W        W95017  19.253   4.714   2.746
22593W        W95018  13.201  37.350  14.496
22594W        W95019  19.735   2.299   5.130
22595W        W95020  42.855  43.369  14.944
22596W        W95021  18.737   9.723  14.308
22597W        W95022  11.769  39.973  12.877
22598W        W95023   8.178  42.453  13.954
22599W        W95024  19.678  40.430  11.090
22600W        W95025  20.756  43.891  13.032
22601W        W95026  27.690  30.150   2.851
22602W        W95027   9.250   6.244   9.474
22603W        W95028  20.538  23.520  11.956
22604W        W95029  24.689  38.408   1.350
22605W        W95030  12.848  10.304   1.447
22606W        W95031   6.309  26.574   2.770
22607W        W95032  43.500  35.056  11.031
22608W        W95033  26.601   3.869   3.379
22609W        W95034  15.640  44.466   1.245
22610W        W95035  44.876  29.647   0.327
22611W        W95036  14.675  33.888   1.882
22612W        W95037   0.904  40.046   1.348
22613W        W95038  23.039   9.655  10.998
22614W        W95039   5.372  13.129  12.052
22615W        W95040  22.995  42.444   4.713
22616W        W95041   4.389  20.208   4.677
22617W        W95042   6.692  32.956   4.798
22618W        W95043  42.415  30.491  13.993
22619W        W95044  14.629  31.149   2.326
22620W        W95045   6.250  36.863   3.159
22621W        W95046  41.016   8.171   0.316
22622W        W95047   9.804  42.817  10.507
22623W        W95048   4.280  15.582   3.685
22624W        W95049  26.067   6.305   2.744
22625W        W95050  17.738  36.577  11.913
22626W        W95051   1.830  19.050   3.703
22627W        W95052  33.557  33.125  14.774
22628W        W95053  38.850  25.680   1.716
22629W        W95054  31.006  20.738  13.815
22630W        W95055  36.997  17.080  11.524
22631W        W95056  43.338  16.767  12.011
22632W        W95057  32.632  29.136  12.339
22633W        W95058  31.534   9.648  13.837
22634W        W95059  43.421  27.174   0.259
22635W        W95060  26.195  26.477   5.259
22636W        W95061  29.041  21.259  10.955
22637W        W95062  23.637   5.914   1.406
22638W        W95063  43.270  31.038  11.056
22639W        W95064  40.373  44.948   5.252
22640W        W95065   7.416  10.147  13.866
22641W        W95066  26.126  24.541   1.242
22642W        W95067   1.841  29.020   3.870
22643W        W95068  30.514   2.759  13.045
22644W        W95069   3.934  21.049   0.437
22645W        W95070  28.541  18.607   0.307
22646W        W95071  34.478  34.971  11.115
22647W        W95072   0.743  41.438  14.308
22648W        W95073  43.510  31.459   3.670
22649W        W95074   7.413   2.333  11.070
22650W        W95075  16.733   3.917   1.742
22651W        W95076  22.551  23.068  12.865
22652W        W95077  42.950   5.874  10.561
22653W        W95078  43.314  28.552   2.741
22654W        W95079  30.104  22.241  13.004
22655W        W95080  21.746  34.059  11.954
22656W        W95081  36.582  19.188   1.333
22657W        W95082  41.361   0.788  10.924
22658W        W95083  13.235  27.548  14.285
22659W        W95084  35.966  11.310   0.880
22660W        W95085  38.963   9.224  13.803
22661W        W95086  44.960  30.936  13.920
22662W        W95087  38.330   6.271  14.333
22663W        W95088  23.158  30.958  12.376
22664W        W95089   7.290  36.499   3.788
22665W        W95090  28.576   9.748  14.431
22666W        W95091  27.525  10.272   2.786
22667W        W95092  13.236  10.312   0.324
22668W        W95093   1.920  29.611  11.471
22669W        W95094  25.976  17.227   2.246
22670W        W95095  38.385  17.263  10.567
22671W        W95096  28.447  17.560  12.543
22672W        W95097  20.734  25.703  12.380
22673W        W95098  13.205  10.647  12.848
22674W        W95099  29.089   2.886  14.913
22675W        W95100   1.260  22.203  12.512
22676W        W95101  42.311  28.496   3.679
22677W        W95102  25.213   2.274  12.035
22678W        W95103   9.778  36.432  10.561
22679W        W95104  32.520  30.444  10.927
22680W        W95105  19.612  33.390  13.428
22681W        W95106  14.273  25.632  10.988
22682W        W95107   9.771   1.761   0.245
22683W        W95108   9.855  18.779   1.268
22684W        W95109  21.224   7.198   4.688
22685W        W95110  28.176   2.394   1.397
22686W        W95111  12.158  13.247   2.395
22687W        W95112   7.324  38.841  10.565
22688W        W95113  16.681  10.145   1.229
22689W        W95114   1.424  33.548  14.468
22690W        W95115  11.160  34.543  13.850
22691W        W95116   9.804  40.008  11.464
22692W        W95117  10.185  27.525  14.307
22693W        W95118   1.973   1.334   3.678
22694W        W95119   2.318   7.378   1.342
22695W        W95120  11.783   9.363  10.905
22696W        W95121  41.843  40.342  14.892
22697W        W95122  39.057  18.219   0.453
22698W        W95123   2.297   4.721   3.655
22699W        W95124  27.067  42.484  12.012
22700W        W95125  28.075  41.349   2.776
22701W        W95126  15.789  27.462   0.377
22702W        W95127  29.165  29.437  14.020
22703W        W95128  12.338  17.291  10.421
22704W        W95129  20.675  25.198  11.096
22705W        W95130  11.852   1.402  13.528
22706W        W95131  43.305  31.478  14.876
22707W        W95132  38.872   6.912   0.298
22708W        W95133  19.658  39.834  11.995
22709W        W95134   7.691  11.711   1.451
22710W        W95135  19.102  42.429   3.311
22711W        W95136  17.185  24.692   0.807
22712W        W95137   3.939  29.078   4.645
22713W        W95138  10.855  19.172   0.917
22714W        W95139  14.161  30.565  12.021
22715W        W95140   8.276  35.444  13.885
22716W        W95141  12.684  38.823   3.170
22717W        W95142  28.042  28.163  12.523
22718W        W95143  33.465  11.134  10.590
22719W        W95144   8.880  12.268  11.121
22720W        W95145  36.478  38.387  14.806
22721W        W95146   4.722  39.476   2.717
22722W        W95147   6.205  26.606   1.839
22723W        W95148  35.871  34.019   2.283
22724W        W95149  25.619  16.580  14.811
22725W        W95150  43.997  30.569  12.997
22726W        W95151  12.312  38.355   2.696
22727W        W95152  34.556  22.082   0.740
22728W        W95153   8.684  32.028  13.343
22729W        W95154  35.076  33.504   4.681
22730W        W95155  17.154   4.213   0.775
22731W        W95156  24.689  29.002   0.472
22732W        W95157  20.164   8.743  10.030
22733W        W95158   5.775  23.094  13.030
22734W        W95159  12.759  31.066   2.326
22735W        W95160  44.415   8.172  13.341
22736W        W95161  36.970  27.506   1.696
22737W        W95162   8.173  31.934   2.761
22738W        W95163  23.592  22.585   1.715
22739W        W95164  32.904   5.392   4.605
22740W        W95165  42.285  32.539   1.415
22741W        W95166   0.757  13.621   3.220
22742W        W95167  38.359  40.967   3.199
22743W        W95168  19.176  27.483   4.234
22744W        W95169  19.732  18.249   0.851
22745W        W95170  15.090  41.436  14.892
22746W        W95171   2.353  23.591  13.429
22747W        W95172  29.451  32.003  12.562
22748W        W95173   7.371   6.917   0.831
22749W        W95174  12.682  13.677   0.434
22750W        W95175  42.365  13.206   1.741
22751W        W95176  13.838   8.755  11.494
22752W        W95177  43.435   2.950  13.947
22753W        W95178  43.810  14.641   4.747
22754W        W95179  11.647  43.328  10.087
22755W        W95180   2.729  15.638   0.854
22756W        W95181   8.672   9.330   5.702
22757W        W95182  40.492   5.203   1.448
22758W        W95183  38.356  13.290  14.807
22759W        W95184  16.622  15.124  14.761
22760W        W95185   3.836  18.115   1.736
22761W        W95186  38.010  20.273   2.829
22762W        W95187  21.169   7.342   2.845
22763W        W95188   7.774   3.808   1.817
22764W        W95189  41.941   4.699   1.409
22765W        W95190  24.087  23.216  13.924
22766W        W95191  12.671  20.576  12.931
22767W        W95192  19.689  12.790   0.872
22768W        W95193  22.728  15.714   5.302
22769W        W95194   0.365  30.946  11.010
22770W        W95195  18.648  38.828  10.092
22771W        W95196  40.019  44.942  14.495
22772W        W95197  37.057   0.434   1.915
22773W        W95198  17.289  26.199  10.948
22774W        W95199  22.233   4.296   3.219
22775W        W95200  39.992   2.233   1.216
22776W        W95201   5.313  25.632   2.711
22777W        W95202   6.357  10.344   4.183
22778W        W95203  23.554  44.469  11.019
22779W        W95204  40.377   8.696   3.382
22780W        W95205  39.967  10.870  13.464
22781W        W95206  12.143   8.722   1.909
22782W        W95207  27.562  36.355   2.833
22783W        W95208  19.690  26.628  11.573
22784W        W95209  18.763  35.486  12.998
22785W        W95210  42.852  40.495  10.563
22786W        W95211  10.140   5.265   0.945
22787W        W95212  41.498  29.569  11.561
22788W        W95213  36.440   8.855   4.731
22789W        W95214  41.954  13.689   3.293
22790W        W95215  42.357  31.119   2.779
22791W        W95216   1.423  19.716   2.355
22792W        W95217  16.108  39.923  11.397
22793W        W95218  29.636   4.364  11.014
22794W        W95219  42.021  35.575  10.449
22795W        W95220  25.470  29.098  13.931
22796W        W95221  31.570  35.569   3.828
22797W        W95222  18.227  30.939  12.952
22798W        W95223  33.602  34.068   0.764
22799W        W95224  11.754  14.180  11.427
22800W        W95225  11.752  39.367   0.790
22801W        W95226  22.515   2.954   2.735
22802W        W95227  11.294  18.147  11.964
22803W        W95228  14.782  44.769  11.536
22804W        W95229  12.628  22.048  10.969
22805W        W95230  40.906   6.183  12.398
22806W        W95231  42.414  24.015   3.850
22807W        W95232  19.735  15.752  11.509
22808W        W95233   3.821  33.499  10.011
22809W        W95234  19.607  37.474  14.516
22810W        W95235  44.392  16.124   3.230
22811W        W95236  14.759  23.500   3.271
22812W        W95237   0.817  23.003   3.768
22813W        W95238  36.469  19.621  12.570
22814W        W95239   7.753  22.547  13.511
22815W        W95240  11.276   0.289  10.959
22816W        W95241  25.152  43.010  11.601
22817W        W95242  25.488  12.254  11.476
22818W        W95243  31.622   4.939  14.504
22819W        W95244  16.611  39.394  12.855
22820W        W95245  14.745   2.447   2.733
22821W        W95246  34.453  19.269   1.394
22822W        W95247  32.005  26.113  11.876
22823W        W95248  34.483  14.244   0.311
22824W        W95249  40.857   7.766  13.844
22825W        W95250   8.160  28.644   3.208
22826W        W95251   7.814  13.127   3.215
22827W        W95252   4.382  22.180  11.995
22828W        W95253   2.917  36.016  12.937
22829W        W95254  10.789  32.928  12.425
22830W        W95255  43.371   8.365   1.927
22831W        W95256  16.726  29.616   1.428
22832W        W95257   3.802   4.835   4.330
22833W        W95258   6.733  42.789   0.909
22834W        W95259  29.524  43.418   0.366
22835W        W95260  42.980  43.357  11.486
22836W        W95261  23.174   7.209   1.318
22837W        W95262  19.719  35.965  11.395
22838W        W95263  25.487  21.031  10.020
22839W        W95264   8.792  10.709  14.825
22840W        W95265   0.274  15.136  11.612
22841W        W95266  37.537  25.029  12.910
22842W        W95267   0.793  35.358   1.317
22843W        W95268   5.242  29.487   3.828
22844W        W95269   5.263  41.311  10.456
22845W        W95270  23.595  26.003   1.823
22846W        W95271  28.475  43.281   2.732
22847W        W95272  24.209  43.884  11.401
22848W        W95273   4.845  31.502   3.171
22849W        W95274   7.395  31.135  13.807
22850W        W95275   1.818  17.068  13.002
22851W        W95276   5.415  23.123  10.499
22852W        W95277  12.277  37.837   4.765
22853W        W95278   8.702  10.666  13.879
22854W        W95279   8.814  36.529   3.691
22855W        W95280  13.616  38.995   0.334
22856W        W95281  18.706  28.076  13.945
22857W        W95282  23.990  19.168   1.307
22858W        W95283  36.492  39.432  13.360
22859W        W95284  34.584  37.844   1.226
22860W        W95285  42.782  35.987  14.283
22861W        W95286   6.732  10.374  14.335
22862W        W95287  33.606  41.531   0.283
22863W        W95288  34.048  15.248   4.339
22864W        W95289  42.502  15.716  10.589
22865W        W95290   7.399  19.642  13.798
22866W        W95291  10.176  40.825   1.921
22867W        W95292   1.402  30.049  10.489
22868W        W95293  30.584  18.554   0.897
22869W        W95294   1.444  11.247  11.864
22870W        W95295  10.743   9.381  11.086
22871W        W95296   8.840   2.752   0.319
22872W        W95297  29.467  25.580   0.872
22873W        W95298  38.076  16.652  10.511
22874W        W95299   7.776  28.088   0.851
22875W        W95300  20.551  26.119  10.408
22876W        W95301   7.668  27.635  10.916
22877W        W95302  12.759  17.301  10.962
22878W        W95303  16.306  39.006   0.461
22879W        W95304   9.714  39.848   2.192
22880W        W95305  32.021   8.890   0.801
22881W        W95306  42.845  24.573  13.371
22882W        W95307  40.467  28.112  12.937
22883W        W95308  26.100  12.745   3.257
22884W        W95309   2.853  21.027  13.372
22885W        W95310  34.497  43.878  12.016
22886W        W95311   0.273  27.952   2.831
22887W        W95312  25.713   9.156  12.543
22888W        W95313  34.501  34.469  13.309
22889W        W95314  16.108  15.130   3.383
22890W        W95315   4.304  41.369  12.945
22891W        W95316  29.961  14.267  14.513
22892W        W95317  29.660  35.895   2.667
22893W        W95318  11.850  20.559   0.890
22894W        W95319  18.261  29.597  10.516
22895W        W95320  16.574  20.184  11.554
22896W        W95321   9.301  26.614  14.008
22897W        W95322  17.776  29.472  11.600
22898W        W95323  40.960   1.878  14.296
22899W        W95324  40.928  18.223   4.282
22900W        W95325  30.474  44.769   1.888
22901W        W95326  23.678   6.278  13.481
22902W        W95327   2.329   6.391   2.394
22903W        W95328  44.482  14.776   0.319
22904W        W95329   3.438  33.050  11.480
22905W        W95330  44.263  28.980   0.378
22906W        W95331   5.774  23.535   3.812
22907W        W95332  13.705  17.141   3.359
22908W        W95333  21.731  36.045   5.120
22909W        W95334  42.924  17.694  11.051
22910W        W95335  18.611  26.522   2.816
22911W        W95336   1.467  29.591  14.379
22912W        W95337  13.333   2.827  14.444
22913W        W95338   2.867  10.829   3.643
22914W        W95339  13.834   3.713  13.318
22915W        W95340  35.484  37.910  14.396
22916W        W95341   1.313  42.494   4.660
22917W        W95342  33.420   7.692   1.839
22918W        W95343   3.823  39.511  14.901
22919W        W95344  39.392  34.452   0.353
22920W        W95345  26.960  21.040   3.367
22921W        W95346  15.149  44.813  11.921
22922W        W95347   2.236  44.873  14.452
22923W        W95348  32.971   3.437   0.933
22924W        W95349  29.460  32.397   1.414
22925W        W95350  35.101  21.657   3.201
22926W        W95351  29.986  18.074  11.031
22927W        W95352  30.099   4.934  13.840
22928W        W95353  24.162  19.671  10.458
22929W        W95354  31.629  26.104  12.088
22930W        W95355   7.689  23.136  13.392
22931W        W95356   5.743  32.616  13.921
22932W        W95357  37.893  41.028  11.548
22933W        W95358   2.899   8.891   2.903
22934W        W95359   5.797   1.414   0.728
22935W        W95360  21.079  32.414  13.912
22936W        W95361  34.106  37.011  11.993
22937W        W95362  26.099  19.561   3.634
22938W        W95363   7.249  23.583  12.495
22939W        W95364  26.510  12.138   0.787
22940W        W95365   8.317  13.158   1.286
22941W        W95366  19.585  44.415  10.488
22942W        W95367  40.401  40.911   4.742
22943W        W95368  24.225   1.771  10.124
22944W        W95369  17.795  16.730   2.259
22945W        W95370  43.875  42.879   1.719
22946W        W95371  10.189  38.365  14.321
22947W        W95372   8.898  37.979  11.932
22948W        W95373   0.857  10.821   4.718
22949W        W95374  42.776  38.411  11.399
22950W        W95375  28.026  42.363  10.625
22951W        W95376  18.232   2.290   5.624
22952W        W95377   2.921   8.180   4.710
22953W        W95378  10.236  37.081  14.470
22954W        W95379  43.018  43.902  13.018
22955W        W95380   8.725  22.594   3.852
22956W        W95381   4.397  36.042   4.181
22957W        W95382  17.225  23.231  12.394
22958W        W95383   8.798  26.995  12.464
22959W        W95384  15.160  38.561  13.886
22960W        W95385  16.651  21.571   1.896
22961W        W95386  34.935   8.313   0.756
22962W        W95387  19.135  40.343   3.148
22963W        W95388  42.944   2.266  11.062
22964W        W95389  23.492   9.793   0.333
22965W        W95390  15.731   9.203   5.320
22966W        W95391  38.506  32.134  12.000
22967W        W95392  34.414  14.265   1.433
22968W        W95393  42.440  19.568   4.791
22969W        W95394  43.787  12.293  11.025
22970W        W95395  21.536  37.869   3.241
22971W        W95396   7.725  22.664   2.903
22972W        W95397  14.321  11.743  14.333
22973W        W95398  10.809  11.647   4.324
22974W        W95399  34.393  28.981   3.727
22975W        W95400   2.367  32.106   0.860
22976W        W95401  33.015  23.638   4.808
22977W        W95402  44.986  16.702  13.316
22978W        W95403  31.503  17.175  11.491
22979W        W95404  25.034  23.988   1.382
22980W        W95405  24.049  40.494   0.880
22981W        W95406  34.405  20.651  10.964
22982W        W95407   8.825  23.523   4.305
22983W        W95408  27.167   0.956  10.506
22984W        W95409  27.092  41.946   0.816
22985W        W95410  19.046   2.232   3.748
22986W        W95411  14.131   4.710  10.466
22987W        W95412  12.739  43.939   1.391
22988W        W95413  29.496  39.840  12.425
22989W        W95414  18.201   0.327  12.380
22990W        W95415  29.081  16.257   0.865
22991W        W95416  41.892  42.022  13.019
22992W        W95417   0.791   2.956  10.967
22993W        W95418  15.768   7.295   0.890
22994W        W95419  30.638  21.651  12.482
22995W        W95420  26.470  20.262   3.237
22996W        W95421   4.753  32.013   0.817
22997W        W95422  15.272  35.008   4.808
22998W        W95423  36.889  33.509   2.901
22999W        W95424  39.881  21.178  10.972
23000W        W95425  42.973  31.017   1.695
23001W        W95426   9.692  27.505   4.722
23002W        W95427  35.062   0.898   0.807
23003W        W95428   1.960  13.122  12.464
23004W        W95429   9.382  34.035  14.277
23005W        W95430  20.702  35.040  11.860
23006W        W95431   8.768  26.552  10.958
23007W        W95432   9.731   0.825  13.973
23008W        W95433  12.612  29.661   3.371
23009W        W95434   6.704  37.970   4.271
23010W        W95435  32.484  38.987   4.292
23011W        W95436  37.847  13.600  14.846
23012W        W95437   0.381  39.847  12.036
23013W        W95438   7.788  31.594   4.675
23014W        W95439  11.219   4.248   3.679
23015W        W95440  42.520   9.794  13.040
23016W        W95441  34.065  18.753  10.993
23017W        W95442  42.389  43.449  14.395
23018W        W95443  36.864  22.571   2.820
23019W        W95444  43.996  15.639   1.415
23020W        W95445  19.648  25.965  13.414
23021W        W95446  28.553  39.972  10.488
23022W        W95447   6.897  38.390   1.314
23023W        W95448  32.604  36.993  11.924
23024W        W95449  36.932  35.011  12.957
23025W        W95450  23.656  44.402  11.442
23026W        W95451  11.137  32.034  11.072
23027W        W95452   5.405  26.474  13.020
23028W        W95453  24.516   7.840  11.863
23029W        W95454  30.645  33.025  11.406
23030W        W95455  25.663   4.420  11.483
23031W        W95456   0.307  42.928  11.588
23032W        W95457  32.134  34.086   1.280
23033W        W95458  31.149  25.673   3.631
23034W        W95459   9.235  39.462  12.507
23035W        W95460  40.543  15.237  11.117
23036W        W95461   8.745   8.301   9.521
23037W        W95462  17.263   2.902   3.771
23038W        W95463   4.410  18.655   3.306
23039W        W95464   9.317  25.973   2.706
23040W        W95465  25.507  32.960  12.995
23041W        W95466   3.374  14.639  13.009
23042W        W95467   1.820  31.588  12.352
23043W        W95468  26.977   9.300  11.115
23044W        W95469  23.997  33.384   3.157
23045W        W95470  20.101  33.106   2.801
23046W        W95471   9.234  32.507   4.158
23047W        W95472   7.797  31.004  14.886
23048W        W95473  18.741  17.307   1.887
23049W        W95474  19.665  15.744   0.294
23050W        W95475  30.497  36.851   0.954
23051W        W95476  38.992  31.057   3.197
23052W        W95477  17.718   3.932   3.833
23053W        W95478  29.924  24.620   1.761
23054W        W95479  25.191  19.770  14.354
23055W        W95480  38.926  14.312   0.448
23056W        W95481  37.342  44.793  14.024
23057W        W95482   1.306  12.811   3.229
23058W        W95483  38.405  38.835   2.374
23059W        W95484  35.852  34.589  12.527
23060W        W95485  39.375  34.382   4.208
23061W        W95486  10.145  18.791   2.182
23062W        W95487  26.483  26.015   0.909
23063W        W95488  35.094  35.914   4.314
23064W        W95489  17.221   0.460  14.774
23065W        W95490  42.501  40.958  12.856
23066W        W95491  27.662  25.671  13.013
23067W        W95492  19.628  16.624  11.570
23068W        W95493  22.603  43.421   0.880
23069W        W95494  42.315  22.589   1.364
23070W        W95495  18.171  43.951  12.045
23071W        W95496  17.578  25.067  12.349
23072W        W95497   1.890  43.010   3.293
23073W        W95498   2.737  43.992  11.079
23074W        W95499   8.742  16.647   4.223
23075W        W95500  19.745  33.435   0.857
23076W        W95501  17.125  21.220   4.327
23077W        W95502  29.926  13.218  10.636
23078W        W95503  40.398  41.899  10.604
23079W        W95504   2.233  44.774  12.526
23080W        W95505  40.533  43.404  12.488
23081W        W95506  25.569  43.928  11.019
23082W        W95507   7.674  19.745  11.529
23083W        W95508  23.032  19.664   0.351
23084W        W95509  42.864  22.190  14.388
23085W        W95510  40.949  30.980  11.936
23086W        W95511  18.756  33.995  12.507
23087W        W95512  23.027  41.845  11.116
23088W        W95513  31.122  10.164   0.400
23089W        W95514  34.481  23.670  10.045
23090W        W95515  43.006  43.780  14.815
23091W        W95516  13.264  11.307   1.299
23092W        W95517  33.477  17.278  13.539
23093W        W95518  25.504   1.792  13.002
23094W        W95519  13.683  34.923   3.349
23095W        W95520  14.336  30.087  10.463
23096W        W95521  31.451  28.463   4.617
23097W        W95522  12.829  14.682   2.193
23098W        W95523  41.512  38.474   1.893
23099W        W95524  33.963  41.476  10.554
23100W        W95525  33.556   0.402  12.037
23101W        W95526  14.597  22.612  13.899
23102W        W95527   9.199  37.542  14.000
23103W        W95528   0.421  32.559  14.507
23104W        W95529  28.088  21.699  13.815
23105W        W95530  17.206  39.927   0.839
23106W        W95531  31.520  21.612   0.901
23107W        W95532  12.830  22.131   1.316
23108W        W95533  10.687  28.003   4.118
23109W        W95534  24.206  10.270   4.167
23110W        W95535  12.134  18.113   2.254
23111W        W95536  29.986  20.045   2.688
23112W        W95537  37.348  17.577  13.394
23113W        W95538  10.262  40.051  12.881
23114W        W95539   2.442   7.795   3.172
23115W        W95540   4.380  32.394  14.848
23116W        W95541  24.530  39.831  11.574
23117W        W95542  41.038  40.818   4.343
23118W        W95543   3.459  16.264  14.025
23119W        W95544  12.192   1.264  14.502
23120W        W95545  34.495  31.627   4.617
23121W        W95546  24.992  41.406   3.683
23122W        W95547  15.195  32.564  14.365
23123W        W95548  27.947  16.759   1.448
23124W        W95549  17.678  27.986  12.547
23125W        W95550  34.899  28.972   1.313
23126W        W95551  34.103  39.042  14.032
23127W        W95552   0.848  30.451   1.800
23128W        W95553   5.226  39.948  10.620
23129W        W95554  24.554  23.642  10.895
23130W        W95555   5.723  21.574  10.918
23131W        W95556  17.700  12.344  10.521
23132W        W95557  41.872  31.033  11.512
23133W        W95558  17.635   2.864  10.911
23134W        W95559  27.035   0.831  11.858
23135W        W95560  16.299   0.493  14.767
23136W        W95561  39.885  37.915   2.679
23137W        W95562  37.921  10.368   3.747
23138W        W95563  23.651  43.825   4.761
23139W        W95564  21.534  15.798  13.883
23140W        W95565  10.202  16.101   2.725
23141W        W95566  43.817  43.469  10.455
23142W        W95567  42.432   7.255  14.810
23143W        W95568   6.757  40.905  12.555
23144W        W95569  12.191  22.189   5.133
23145W        W95570  26.154  18.557   3.678
23146W        W95571   1.294  18.062   3.670
23147W        W95572  44.856  39.813  11.500
23148W        W95573  32.953  26.026  13.852
23149W        W95574  34.572   8.709   0.285
23150W        W95575  11.731   7.272  14.789
23151W        W95576  19.580  23.541   1.886
23152W        W95577  40.886  28.664  10.495
23153W        W95578  24.028  17.240   5.236
23154W        W95579  19.101   2.422   2.306
23155W        W95580  18.142  33.453   0.338
23156W        W95581   6.901  16.244  14.920
23157W        W95582  39.861   7.720   4.229
23158W        W95583  14.747   2.744  11.941
23159W        W95584  25.080  39.036  11.877
23160W        W95585  32.629  24.994  14.942
23161W        W95586  43.007  10.168   0.906
23162W        W95587  24.017  19.722   0.783
23163W        W95588  22.604   8.253   3.662
23164W        W95589  39.327  14.228   0.431
23165W        W95590   4.941  11.851  12.906
23166W        W95591  14.740  21.059   5.289
23167W        W95592  17.731  37.038  11.975
23168W        W95593   4.285  13.185   0.272
23169W        W95594  29.132  10.672  13.479
23170W        W95595  36.412  36.091   4.790
23171W        W95596  27.148  24.538   4.224
23172W        W95597   6.870  26.683   1.293
23173W        W95598  19.044  11.676  14.472
23174W        W95599  19.585  10.375  12.850
23175W        W95600   2.782   6.884  12.943
23176W        W95601  22.662  35.934   4.125
23177W        W95602  10.693  29.085   3.855
23178W        W95603  42.406  36.050  12.577
23179W        W95604  25.627  28.533  14.476
23180W        W95605  43.345  34.498   1.421
23181W        W95606  35.056  35.975  10.907
23182W        W95607  27.004  19.109   3.169
23183W        W95608  13.775  24.073  11.080
23184W        W95609   3.920  24.562  12.462
23185W        W95610  42.348  19.670   1.354
23186W        W95611  11.234   2.314  11.896
23187W        W95612   3.316  21.167  14.826
23188W        W95613  12.307  20.607   2.774
23189W        W95614  21.105  27.486  10.645
23190W        W95615  41.957   3.455  11.873
23191W        W95616  43.271  28.468  11.431
23192W        W95617  23.230  26.080  11.600
23193W        W95618   9.813  23.166   3.170
23194W        W95619  17.640  11.727  13.416
23195W        W95620  36.521  18.150   2.713
23196W        W95621   8.880  29.570  11.510
23197W        W95622  29.461  31.460  12.491
23198W        W95623  34.928  43.394  14.478
23199W        W95624  37.570  11.704   0.811
23200W        W95625  17.125  30.450   2.297
23201W        W95626  40.019  14.828   3.782
23202W        W95627   1.880  28.096   0.461
23203W        W95628   2.966  38.884   3.631
23204W        W95629  10.168  31.917   4.167
23205W        W95630  14.131   2.258   2.807
23206W        W95631   1.842  43.873  11.929
23207W        W95632  27.682   3.435  14.318
23208W        W95633  29.150  20.207  13.448
23209W        W95634  23.159   6.704  12.394
23210W        W95635  32.074  24.491   4.733
23211W        W95636   6.768  35.450   0.726
23212W        W95637  31.575  18.066  14.501
23213W        W95638  21.648  30.975   2.231
23214W        W95639  10.288   5.382   1.304
23215W        W95640  16.118  12.789   3.848
23216W        W95641  26.457  37.465   4.293
23217W        W95642  40.012  41.475   2.859
23218W        W95643  19.549  24.707  11.389
23219W        W95644  37.559  14.825  12.095
23220W        W95645  31.143   4.399  14.497
23221W        W95646  17.237  38.901   3.655
23222W        W95647  26.003  20.057  13.330
23223W        W95648   9.878   8.316   2.863
23224W        W95649  16.567  32.017   4.616
23225W        W95650  17.144  38.072   9.933
23226W        W95651  10.275  22.636   1.875
23227W        W95652  10.696   8.237  11.516
23228W        W95653  27.050   8.291  11.381
23229W        W95654  18.693   1.886   1.237
23230W        W95655  43.821  19.096   0.945
23231W        W95656  22.038   8.172   2.217
23232W        W95657  44.784  39.358   0.295
23233W        W95658  36.964  35.986   2.864
23234W        W95659  38.056   0.330  13.518
23235W        W95660  35.551  26.160   0.844
23236W        W95661  16.775  14.339   2.882
23237W        W95662  12.170  38.416   4.827
23238W        W95663   9.386  43.442  13.972
23239W        W95664  26.569  24.165   1.358
23240W        W95665  10.363  30.611  12.415
23241W        W95666  21.626  17.693  13.493
23242W        W95667   1.334   1.386   2.295
23243W        W95668  12.300  32.425   4.753
23244W        W95669   8.329  42.929   3.353
23245W        W95670   2.437  34.545   2.711
23246W        W95671   7.845  42.838   4.263
23247W        W95672   3.229  23.676   4.835
23248W        W95673   4.228  32.124   4.251
23249W        W95674  25.492  17.129   1.445
23250W        W95675  40.046   4.341  12.545
23251W        W95676  13.733  38.995  12.483
23252W        W95677  35.019   7.690  11.067
23253W        W95678  43.440   6.225   3.864
23254W        W95679  12.324  22.167  13.447
23255W        W95680  14.108  18.291   4.304
23256W        W95681  14.269   6.884   3.787
23257W        W95682  41.359  19.129   4.170
23258W        W95683  13.700  31.605   4.703
23259W        W95684  36.926  19.539  11.444
23260W        W95685  15.263  23.621  14.362
23261W        W95686  34.508   4.816  10.471
23262W        W95687  12.667  31.928  11.542
23263W        W95688  12.769  39.025   1.842
23264W        W95689  21.256  24.685  11.986
23265W        W95690  37.449  39.923   4.838
23266W        W95691   7.329  22.631   1.814
23267W        W95692  39.954  25.143  10.459
23268W        W95693  32.963  18.637   9.973
23269W        W95694  19.108   2.756  12.444
23270W        W95695   1.742  27.082   2.734
23271W        W95696  26.964  32.426   4.633
23272W        W95697  37.880  10.712  12.876
23273W        W95698   9.719  22.667   2.895
23274W        W95699  34.559  35.535   0.868
23275W        W95700  17.663  40.491   4.262
23276W        W95701  44.467   3.717   4.775
23277W        W95702  21.036  37.012   4.838
23278W        W95703  44.474  18.074  12.042
23279W        W95704   9.679   8.168  14.894
23280W        W95705  28.495  21.228   4.821
23281W        W95706  37.972   0.988  12.839
23282W        W95707  31.899  33.930  14.802
23283W        W95708  39.817   0.301   4.345
23284W        W95709  40.372   0.336   2.409
23285W        W95710   6.205  28.015   1.773
23286W        W95711  14.655  30.539   4.255
23287W        W95712  12.241  43.958  13.919
23288W        W95713  11.234  35.919   3.694
23289W        W95714  21.593  10.784  12.411
23290W        W95715  28.150  28.142  13.828
23291W        W95716  29.107  10.309   3.260
23292W        W95717  21.176   4.353  11.429
23293W        W95718  22.574  18.053  12.505
23294W        W95719  43.855  38.038   4.284
23295W        W95720   8.200  19.763  12.438
23296W        W95721  22.145   2.371  11.040
23297W        W95722  41.026  12.813  13.031
23298W        W95723  25.519   4.829   1.346
23299W        W95724   4.852  18.233   3.795
23300W        W95725  41.366  29.446  14.420
23301W        W95726   2.885  31.966   3.152
23302W        W95727  27.161  24.064   0.896
23303W        W95728  25.615   5.849   1.413
23304W        W95729   0.330  36.560   0.249
23305W        W95730  40.477  27.078   2.812
23306W        W95731  17.764  40.905   4.738
23307W        W95732  33.430  41.520   2.358
23308W        W95733  10.138  38.063   5.150
23309W        W95734  23.711  11.300   3.149
23310W        W95735  17.211  37.906  11.001
23311W        W95736   8.762  13.789  12.342
23312W        W95737  37.929   4.421  14.473
23313W        W95738  36.908  43.359  13.519
23314W        W95739  39.052  33.117   0.256
23315W        W95740  31.626  23.106   0.875
23316W        W95741  12.332   1.749  12.976
23317W        W95742  23.125  44.323  10.604
23318W        W95743  16.801  28.025   2.833
23319W        W95744  22.540  18.681  13.804
23320W        W95745  10.659  26.533  10.933
23321W        W95746   2.742  25.111   0.466
23322W        W95747  33.930   8.300  11.523
23323W        W95748  31.122  17.207  10.938
23324W        W95749  44.869  38.868   1.696
23325W        W95750  34.041   5.323  12.886
23326W        W95751   4.763  37.850  14.356
23327W        W95752   1.776   0.386   4.333
23328W        W95753  23.071  24.479  10.484
23329W        W95754   8.750  25.624  11.986
23330W        W95755  36.969  11.839  13.353
23331W        W95756  42.790  23.599  13.873
23332W        W95757  25.586  23.502   1.268
23333W        W95758  28.437  17.646  13.422
23334W        W95759  30.074   2.281   2.273
23335W        W95760  22.130  33.989   2.354
23336W        W95761   1.402  16.589  12.018
23337W        W95762  21.226  31.523   1.288
23338W        W95763  22.121  11.305  11.896
23339W        W95764  10.636  35.921   5.137
23340W        W95765  28.128  27.593   4.216
23341W        W95766   2.243   7.375   3.710
23342W        W95767  35.542  25.685   1.215
23343W        W95768  43.499  20.601   1.232
23344W        W95769  26.010  10.849   1.804
23345W        W95770   1.804  38.453   2.179
23346W        W95771  29.104   3.434   1.868
23347W        W95772  33.116  39.395  13.436
23348W        W95773   0.843   5.828  14.822
23349W        W95774  34.029  36.935   3.374
23350W        W95775  15.650  25.074  10.534
23351W        W95776  24.572  41.951  12.096
23352W        W95777  44.464   5.846   3.665
23353W        W95778  32.610  32.593  10.970
23354W        W95779   9.345  35.476   4.165
23355W        W95780  11.217   7.815  11.401
23356W        W95781  32.394  40.421   2.351
23357W        W95782  25.545  42.968  14.515
23358W        W95783  43.980  44.433  13.953
23359W        W95784  15.130  35.482  11.896
23360W        W95785   0.404  41.512  12.962
23361W        W95786  39.503   1.322   2.719
23362W        W95787   1.360  17.770   4.769
23363W        W95788  30.645  17.693   0.378
23364W        W95789  42.343   1.913   2.893
23365W        W95790  42.422  40.494   2.277
23366W        W95791   2.913  40.397  11.396
23367W        W95792  33.046   9.202  11.930
23368W        W95793  28.498   8.343   3.812
23369W        W95794  20.218  24.536  11.565
23370W        W95795  29.511  35.973  12.917
23371W        W95796  26.176  13.790   4.731
23372W        W95797  37.917  15.112   4.711
23373W        W95798  34.091   4.391  10.591
23374W        W95799  31.415  14.105   2.873
23375W        W95800  12.633  38.010  12.980
23376W        W95801  38.839  26.133  12.863
23377W        W95802  19.615  41.854   5.288
23378W        W95803  13.193  30.465  13.340
23379W        W95804  12.781  39.902   4.352
23380W        W95805  17.073  31.579   4.150
23381W        W95806  25.116  11.631   2.304
23382W        W95807   1.909  16.567   2.310
23383W        W95808  43.878   8.852   3.694
23384W        W95809  42.436  14.812  11.608
23385W        W95810  34.553   8.289  14.808
23386W        W95811   7.756   8.765  14.453
23387W        W95812   5.884  31.402  12.007
23388W        W95813  14.271  37.512   3.646
23389W        W95814   3.810  43.299   4.676
23390W        W95815  42.796  21.715  12.088
23391W        W95816  15.329  44.825   4.778
23392W        W95817   3.754  30.659   3.356
23393W        W95818  12.201  25.690  13.313
23394W        W95819  35.598  33.586   0.853
23395W        W95820  42.415   0.923   0.429
23396W        W95821   0.280  15.580  11.957
23397W        W95822  28.092  24.009   2.222
23398W        W95823  17.634  16.174  12.359
23399W        W95824   6.405  44.395   0.949
23400W        W95825  34.470   1.300   1.338
23401W        W95826  13.642  14.682   2.215
23402W        W95827  34.531   0.419  12.826
23403W        W95828  26.036  29.961  12.577
23404W        W95829  25.120  25.117  12.420
23405W        W95830  33.426  35.961   4.776
23406W        W95831  23.074   9.777   3.376
23407W        W95832  23.590  35.487  11.902
23408W        W95833  15.809  18.092   0.365
23409W        W95834  27.019  36.560  12.339
23410W        W95835  36.886  25.200   3.157
23411W        W95836   4.412  20.718   0.332
23412W        W95837  23.067  29.449  11.897
23413W        W95838   4.299   8.215  12.459
23414W        W95839   0.962  27.075  11.497
23415W        W95840   1.890  33.478  12.394
23416W        W95841  13.179   4.436   3.709
23417W        W95842  21.555  14.185   5.166
23418W        W95843   1.794  39.976   1.897
23419W        W95844  37.861  36.492   4.660
23420W        W95845  29.515   6.283   5.135
23421W        W95846  35.052  24.577  12.465
23422W        W95847  19.585  41.538  11.493
23423W        W95848  39.964  22.689   1.254
23424W        W95849  36.533   3.792  10.465
23425W        W95850  18.173   5.349  11.451
23426W        W95851  18.100  34.072   2.840
23427W        W95852   0.768  13.759   2.404
23428W        W95853  19.076   3.355   1.843
23429W        W95854  15.186  23.036   2.210
23430W        W95855  14.273  24.661  13.888
23431W        W95856  28.993  35.867   2.403
23432W        W95857  42.987  28.073  10.421
23433W        W95858  12.255  33.583   2.316
23434W        W95859  22.015  41.815  10.521
23435W        W95860  24.192  31.431   3.631
23436W        W95861   4.394   0.276   0.788
23437W        W95862  28.930  15.170   0.795
23438W        W95863   1.786   9.860   1.812
23439W        W95864   7.288   6.710   2.763
23440W        W95865  26.163  30.576  14.413
23441W        W95866   9.222  30.980   2.675
23442W        W95867  42.461  42.430   1.815
23443W        W95868  30.597  29.146  13.521
23444W        W95869  11.228  34.998   0.915
23445W        W95870  40.977  22.617   1.871
23446W        W95871  16.724  27.564   4.143
23447W        W95872  25.615  26.482  14.367
23448W        W95873  13.691  20.148   3.855
23449W        W95874  24.152   7.856   4.705
23450W        W95875  40.423  35.861   3.182
23451W        W95876   3.262  30.616   0.257
23452W        W95877  26.958  36.349   2.703
23453W        W95878   6.726  42.452   1.706
23454W        W95879  44.972  28.606   3.354
23455W        W95880  17.634  17.250  12.507
23456W        W95881  26.507  18.557  13.934
23457W        W95882   0.942  30.416   2.358
23458W        W95883  23.648  42.340   2.846
23459W        W95884  23.556  34.049   0.931
23460W        W95885  39.337  24.606   2.400
23461W        W95886  31.583  25.035   4.238
23462W        W95887  33.065  37.851   0.833
23463W        W95888  13.739   2.741   1.244
23464W        W95889  32.618  26.977  10.582
23465W        W95890  42.872   6.801   1.776
23466W        W95891   1.947  42.971  14.285
23467W        W95892  16.587  31.446   0.759
23468W        W95893   0.327  10.738   0.780
23469W        W95894  30.927  12.355   2.894
23470W        W95895  28.061   9.342   4.263
23471W        W95896  39.385  44.956  10.099
23472W        W95897  39.870  42.848  13.050
23473W        W95898   7.219   4.703  11.522
23474W        W95899   0.832  14.794  11.901
23475W        W95900  21.054  41.841  12.575
23476W        W95901  14.618  10.336  13.828
23477W        W95902  34.946  17.574   3.824
23478W        W95903  16.094  31.426  11.060
23479W        W95904  13.669   5.850   4.621
23480W        W95905  42.806  21.614  12.412
23481W        W95906   7.282  19.086  13.523
23482W        W95907  34.475  19.541   0.900
23483W        W95908  25.603   9.320  14.970
23484W        W95909   7.217  37.476   3.385
23485W        W95910   3.298   7.364  13.058
23486W        W95911  25.987  29.963   0.346
23487W        W95912  37.958  30.471  11.599
23488W        W95913  36.953  34.030  13.468
23489W        W95914   0.421  34.893   3.726
23490W        W95915  28.061  15.171   4.275
23491W        W95916   6.329  33.385   3.168
23492W        W95917  11.792  31.088  13.448
23493W        W95918  10.325   8.683   5.669
23494W        W95919  19.176  20.258   4.283
23495W        W95920   6.683  17.677   0.250
23496W        W95921  26.672  39.317  12.999
23497W        W95922  43.898  26.039   4.189
23498W        W95923  29.006  22.677   1.213
23499W        W95924   2.772  35.457   1.869
23500W        W95925  27.516  15.083   1.928
23501W        W95926  23.587  40.909  14.424
23502W        W95927   1.970  13.344  14.791
23503W        W95928  14.105  42.471   0.777
23504W        W95929  10.311  33.501  10.539
23505W        W95930  21.166  21.581  13.996
23506W        W95931   8.790  21.178   4.758
23507W        W95932  13.743  17.582   4.137
23508W        W95933  15.240  14.815   1.743
23509W        W95934  22.167   1.739  14.494
23510W        W95935  13.308  12.253  14.793
23511W        W95936  38.362  33.979   0.736
23512W        W95937  35.010  18.750  14.421
23513W        W95938  15.754  20.693  12.083
23514W        W95939  44.808  39.533   1.863
23515W        W95940   8.225   4.735  10.000
23516W        W95941  37.833  14.817  14.312
23517W        W95942   8.893  27.179   1.259
23518W        W95943  38.925  35.997   4.149
23519W        W95944  38.451  37.437  13.912
23520W        W95945  43.497  29.962   2.802
23521W        W95946  27.544   1.414  10.566
23522W        W95947  40.334  41.442   5.146
23523W        W95948  28.507  12.300  13.913
23524W        W95949   8.794  34.025  14.339
23525W        W95950   6.802  26.122   2.365
23526W        W95951   2.813  13.143  12.062
23527W        W95952   4.751  32.028  13.012
23528W        W95953  27.530  23.185   4.146
23529W        W95954  17.692  21.708   2.411
23530W        W95955  21.554   9.814   1.866
23531W        W95956  34.453  26.020  14.769
23532W        W95957   1.913  15.103  13.992
23533W        W95958  24.201  29.634  11.480
23534W        W95959  21.058  13.762   0.352
23535W        W95960  17.585   9.316  14.931
23536W        W95961  39.395  38.055   2.802
23537W        W95962   8.203  44.389  12.401
23538W        W95963   3.347  24.108   1.219
23539W        W95964   6.838   4.363   2.229
23540W        W95965  26.162  32.412  10.031
23541W        W95966  31.620   7.326  14.293
23542W        W95967  17.685  40.371  12.449
23543W        W95968  36.881  32.493  14.317
23544W        W95969  18.062   1.842  12.449
23545W        W95970  44.370  17.182   1.350
23546W        W95971  32.491  36.925   3.794
23547W        W95972  31.056  17.738  14.789
23548W        W95973   8.204   0.930   2.716
23549W        W95974  35.396  31.080   2.356
23550W        W95975  29.081  43.447   2.821
23551W        W95976  29.173   0.972   3.320
23552W        W95977  13.326  44.929   0.801
23553W        W95978  29.935  37.893   1.892
23554W        W95979   9.315  15.597  14.840
23555W        W95980  39.416  16.220   4.718
23556W        W95981  26.079  25.103   4.776
23557W        W95982   1.755   1.277   1.745
23558W        W95983  18.767   6.760  13.372
23559W        W95984   2.790  17.063  12.503
23560W        W95985   7.669  19.712   0.909
23561W        W95986  39.394  14.219   3.697
23562W        W95987  43.863   4.438  14.890
23563W        W95988  19.647  14.160  10.933
23564W        W95989  20.530  10.774   1.735
23565W        W95990  15.098  38.846  12.410
23566W        W95991  40.360  16.661   2.362
23567W        W95992   8.262  13.185  13.898
23568W        W95993  38.376  34.057   3.211
23569W        W95994  20.236   8.227   4.277
23570W        W95995  20.034  12.696   2.344
23571W        W95996   7.395  38.343  12.550
23572W        W95997  27.488  22.647  11.948
23573W        W95998   9.243  10.259  13.311
23574W        W95999  26.463   4.853   3.209
23575W        W96000  27.020  29.440  12.572
23576W        W96001  33.953  21.575  12.986
23577W        W96002   8.181  27.623   3.730
23578W        W96003   7.829  34.593   3.690
23579W        W96004  16.296  41.840   0.887
23580W        W96005   6.794  26.575   1.907
23581W        W96006   7.346   8.797  13.805
23582W        W96007   4.943  28.982  13.859
23583W        W96008  30.027   5.260  14.989
23584W        W96009  33.446  31.443   3.867
23585W        W96010  33.017  10.282  10.472
23586W        W96011  29.556   9.242   4.354
23587W        W96012  29.071  14.207   4.797
23588W        W96013  25.055  30.608  11.991
23589W        W96014  44.439  32.434  10.455
23590W        W96015  31.042  30.464   5.251
23591W        W96016   8.178  38.006   0.422
23592W        W96017  18.187   1.387  13.032
23593W        W96018  26.515  36.939  12.515
23594W        W96019  34.467  30.451   3.273
23595W        W96020  36.918  11.167   2.280
23596W        W96021  24.150  34.949   3.151
23597W        W96022  19.663  24.190  10.550
23598W        W96023  11.669  27.003  10.897
23599W        W96024  32.016  44.473  13.955
23600W        W96025  40.516   1.479   4.314
23601W        W96026  43.949   2.248  14.298
23602W        W96027  34.432   7.285  12.039
23603W        W96028   2.906  24.658  10.488
23604W        W96029   7.327  26.617  14.469
23605W        W96030  16.725   8.811  14.489
23606W        W96031  39.368  37.876  13.908
23607W        W96032  22.015  23.686   2.307
23608W        W96033  15.696  28.681   2.739
23609W        W96034  18.695  28.933   1.742
23610W        W96035   2.291  29.029  14.894
23611W        W96036   8.779  41.454  12.994
23612W        W96037  44.492  30.423   2.746
23613W        W96038  25.469  21.600  12.887
23614W        W96039  39.359   2.900  11.416
23615W        W96040  15.318  12.135  13.917
23616W        W96041   7.200   1.267  10.929
23617W        W96042   0.445  11.179  11.090
23618W        W96043  24.516  12.232   0.751
23619W        W96044  30.035  25.985   2.796
23620W        W96045  36.570  42.782   4.133
23621W        W96046  21.747   2.933   0.367
23622W        W96047  39.552  23.016   0.780
23623W        W96048  23.656  12.185  10.453
23624W        W96049  22.012  30.159  13.989
23625W        W96050  37.438  38.964  11.016
23626W        W96051  39.006  33.897  13.411
23627W        W96052  27.541   2.938   4.247
23628W        W96053   9.292  23.021   0.791
23629W        W96054  22.091  24.627   2.374
23630W        W96055  33.100  28.932  11.073
23631W        W96056   7.724  14.692  12.363
23632W        W96057  37.867  29.558  13.019
23633W        W96058  17.643  18.269   0.349
23634W        W96059  12.681   1.741   2.353
23635W        W96060   7.753  31.033  10.418
23636W        W96061  30.096   9.692  10.980
23637W        W96062  18.132  29.948   1.863
23638W        W96063  10.222   4.743   1.701
23639W        W96064  36.970   4.824  10.531
23640W        W96065   6.739   4.226   0.322
23641W        W96066  27.959  15.091  14.379
23642W        W96067   6.339  12.751   3.860
23643W        W96068  42.481  25.019   1.802
23644W        W96069  16.302  24.613   2.400
23645W        W96070  26.166  30.118   2.186
23646W        W96071  25.003  15.091   0.858
23647W        W96072  14.250  38.347   2.780
23648W        W96073   9.265  27.138  13.842
23649W        W96074  14.141   5.237   4.236
23650W        W96075  22.191  12.220  10.483
23651W        W96076   4.448  37.341   4.258
23652W        W96077   3.440  35.927   0.389
23653W        W96078   9.741  20.205  13.043
23654W        W96079  24.027  17.150  12.435
23655W        W96080  41.032  16.286  13.500
23656W        W96081   8.256  25.083   2.766
23657W        W96082  15.285  29.922  14.316
23658W        W96083  13.674   8.371   2.703
23659W        W96084  18.591  18.138   2.665
23660W        W96085  16.187  13.740  10.920
23661W        W96086  13.689   2.811  11.950
23662W        W96087  26.629  24.537  11.864
23663W        W96088   1.414  14.249  13.015
23664W        W96089  15.181   1.374   0.363
23665W        W96090  21.602  29.000  14.023
23666W        W96091  30.544  27.039  13.333
23667W        W96092  20.089  24.111   0.748
23668W        W96093  28.184  26.649   3.710
23669W        W96094  31.494  10.289  13.847
23670W        W96095  22.224  39.556  14.824
23671W        W96096  44.928  19.147   0.372
23672W        W96097   9.652  12.164   2.199
23673W        W96098   7.192  35.879   3.861
23674W        W96099  42.989  27.978  14.836
23675W        W96100  41.825  24.022  14.400
23676W        W96101   3.384  26.050   1.335
23677W        W96102   5.876   8.265  12.354
23678W        W96103   1.476  32.915  11.934
23679W        W96104  39.407  21.632  12.419
23680W        W96105  40.505  18.749   0.839
23681W        W96106   7.214  44.853  10.637
23682W        W96107  32.027  43.873  14.823
23683W        W96108  18.114  41.845  14.443
23684W        W96109  17.268   0.761  11.859
23685W        W96110  15.627   5.753   1.827
23686W        W96111  22.087  30.464   0.743
23687W        W96112   5.428  28.097  13.891
23688W        W96113  43.015  11.705  14.441
23689W        W96114  14.654  12.120   0.960
23690W        W96115  15.726  21.609  14.953
23691W        W96116   2.262  26.977   2.864
23692W        W96117  29.126  20.728  13.922
23693W        W96118  13.709   5.203   1.331
23694W        W96119  33.450  36.410   2.394
23695W        W96120  17.287  21.025  12.548
23696W        W96121  16.155  16.313  13.936
23697W        W96122   6.820  38.347   3.243
23698W        W96123   8.877  31.036  13.431
23699W        W96124  35.595   5.216  10.529
23700W        W96125  17.654   0.840  10.964
23701W        W96126  17.237  19.271   1.860
23702W        W96127  40.344   5.870   1.448
23703W        W96128  28.633  39.880  12.548
23704W        W96129  29.471  42.474  11.404
23705W        W96130  19.621  27.470  12.339
23706W        W96131  22.202   0.292   3.174
23707W        W96132  34.388  19.770  12.528
23708W        W96133   9.277  33.619   3.844
23709W        W96134  14.225   7.809   3.304
23710W        W96135  31.900  13.157   2.272
23711W        W96136  40.315  42.851  11.489
23712W        W96137  10.346  41.907   0.332
23713W        W96138  19.063  41.886  11.885
23714W        W96139  24.667  30.492   4.285
23715W        W96140  44.337   5.840  10.062
23716W        W96141   0.793   7.358   1.239
23717W        W96142  33.071  41.028  10.627
23718W        W96143  18.791  19.544   1.924
23719W        W96144   1.872  18.676  12.567
23720W        W96145  12.768  42.845  11.505
23721W        W96146  33.906  22.553   2.747
23722W        W96147  31.121  38.908  10.893
23723W        W96148  39.547  25.483   1.815
23724W        W96149   9.654  23.170  13.358
23725W        W96150  24.569  40.869   0.806
23726W        W96151  14.319  39.916   3.801
23727W        W96152  30.413  21.721  11.475
23728W        W96153   8.328   9.369   9.974
23729W        W96154  31.077   5.762  13.979
23730W        W96155  43.516  44.762   2.772
23731W        W96156  36.430   2.736   3.851
23732W        W96157  38.544  16.253  13.463
23733W        W96158   6.759  33.587  12.054
23734W        W96159  39.930  33.103   1.776
23735W        W96160   6.271  13.180   4.669
23736W        W96161  10.793  16.117   2.768
23737W        W96162  35.506  20.579   2.801
23738W        W96163  10.315  27.992   2.209
23739W        W96164  10.152  39.360   2.237
23740W        W96165  32.943  29.556  10.500
23741W        W96166  35.567  25.598  10.636
23742W        W96167   3.790  16.284   0.378
23743W        W96168  13.747  22.211   1.831
23744W        W96169  29.966  38.551   2.671
23745W        W96170   5.422  31.634   0.462
23746W        W96171  41.817  32.553  12.878
23747W        W96172  42.468  24.640   2.779
23748W        W96173  37.341  24.994   2.668
23749W        W96174  37.555   3.766  14.792
23750W        W96175   2.726  31.032   4.613
23751W        W96176   3.318  42.998   2.736
23752W        W96177  35.033   1.932   5.316
23753W        W96178  39.014   2.251   0.813
23754W        W96179  12.219  44.335  14.281
23755W        W96180  12.635  23.643  11.967
23756W        W96181  18.701  16.687   0.319
23757W        W96182   3.224  12.746  13.904
23758W        W96183  29.617  44.988  12.519
23759W        W96184  39.335   9.795   3.741
23760W        W96185  29.488  37.384  11.421
23761W        W96186  29.159  32.906   3.695
23762W        W96187   4.242  43.848  14.421
23763W        W96188  28.084  11.698  14.393
23764W        W96189   3.352   2.365  13.403
23765W        W96190   9.678  40.448  11.507
23766W        W96191  20.664   0.869  12.407
23767W        W96192  12.172  39.538   1.694
23768W        W96193  32.012  24.984   3.379
23769W        W96194   2.949   1.958   0.406
23770W        W96195   1.416   9.694  11.381
23771W        W96196   9.739  18.168  11.488
23772W        W96197  19.540  22.685  12.427
23773W        W96198  30.549  32.450  11.435
23774W        W96199  20.673   1.864   0.787
23775W        W96200  44.788  24.053   1.875
23776W        W96201  35.412   5.247  12.407
23777W        W96202   1.836  37.081  13.939
23778W        W96203  22.149   6.778   0.246
23779W        W96204  34.509  42.948   0.904
23780W        W96205  13.737   5.909   1.248
23781W        W96206  10.636  38.840   1.901
23782W        W96207  38.827  29.172  11.864
23783W        W96208  17.782  30.001  12.477
23784W        W96209   4.305  42.436   3.813
23785W        W96210  28.581   5.916  11.906
23786W        W96211  17.743  30.462   4.139
23787W        W96212  25.977  37.985  14.344
23788W        W96213  13.278  31.960  12.833
23789W        W96214  15.223  36.384   4.258
23790W        W96215  16.607  39.421  12.553
23791W        W96216  33.122  18.557  12.059
23792W        W96217  42.026  29.661  14.388
23793W        W96218  27.052  33.048   3.343
23794W        W96219   1.870  17.098  14.929
23795W        W96220  28.591  33.120   5.114
23796W        W96221  25.520  21.654  10.495
23797W        W96222  20.270  11.135   4.602
23798W        W96223  15.819  41.888  10.911
23799W        W96224  21.146  31.013  13.929
23800W        W96225  30.540  13.316   0.386
23801W        W96226  32.543  36.447  13.820
23802W        W96227  43.296  18.244   3.311
23803W        W96228  23.044  41.967   1.389
23804W        W96229  25.027   1.817   3.252
23805W        W96230  26.092  17.647   0.876
23806W        W96231  44.393  26.573   3.702
23807W        W96232  30.147   4.391   3.662
23808W        W96233  31.997  34.523  13.528
23809W        W96234  32.062   0.418  13.489
23810W        W96235  23.065   7.728   2.181
23811W        W96236  12.349  23.150   3.658
23812W        W96237   3.411  28.611  11.438
23813W        W96238  17.675  37.049  12.445
23814W        W96239  29.450  24.146   2.803
23815W        W96240   7.677  35.448   4.121
23816W        W96241  10.811  15.596   0.942
23817W        W96242  28.178  23.984   1.432
23818W        W96243  11.311  30.992   0.893
23819W        W96244  12.314  41.977  10.532
23820W        W96245   4.248   2.244   0.818
23821W        W96246   4.291  11.241  10.579
23822W        W96247  16.216  10.229  11.121
23823W        W96248  40.513  38.983   2.725
23824W        W96249  21.634  43.920   3.296
23825W        W96250   7.274   8.255   5.126
23826W        W96251  17.656  11.347   0.479
23827W        W96252  29.071  14.685  10.944
23828W        W96253  25.711  21.033   4.348
23829W        W96254  39.416  37.973   2.275
23830W        W96255  42.334   6.728  13.800
23831W        W96256  10.835  26.187   0.321
23832W        W96257   9.154  15.252  13.965
23833W        W96258  26.951   1.379   4.318
23834W        W96259  43.322  44.487   3.641
23835W        W96260   3.327  38.039  11.579
23836W        W96261  29.644   0.950   1.301
23837W        W96262  37.043  25.475   9.585
23838W        W96263  25.175  20.543  14.003
23839W        W96264  28.597  32.625   4.636
23840W        W96265  13.605  17.084   0.728
23841W        W96266  23.635  27.556   4.340
23842W        W96267   3.366  11.193   2.844
23843W        W96268  32.407   9.203  13.465
23844W        W96269  26.639  41.448  14.018
23845W        W96270  34.868  39.351  12.459
23846W        W96271  34.515   9.338   0.265
23847W        W96272   8.241  44.925  10.499
23848W        W96273   7.364  20.564   2.411
23849W        W96274  40.805   6.283   0.473
23850W        W96275   1.895  36.428  12.069
23851W        W96276  39.339  38.044  11.072
23852W        W96277  16.192  24.648  13.506
23853W        W96278   8.819  42.821  12.887
23854W        W96279  16.651  42.474  11.594
23855W        W96280  44.802  33.504   0.768
23856W        W96281   5.839  36.900   4.278
23857W        W96282   9.802  43.778  14.294
23858W        W96283   8.813   3.846  10.935
23859W        W96284   2.944  11.652   0.794
23860W        W96285  10.177  16.754   1.421
23861W        W96286   2.374  39.392  12.375
23862W        W96287  16.278   3.248  10.899
23863W        W96288  33.402  30.059  11.511
23864W        W96289  29.080  12.292  11.029
23865W        W96290  15.255  20.236  11.541
23866W        W96291  15.250  22.716  10.546
23867W        W96292  37.851   8.887   4.727
23868W        W96293   7.754  35.012  14.834
23869W        W96294  33.067  30.064   0.375
23870W        W96295  34.502   3.292   3.181
23871W        W96296   1.898   1.335  14.370
23872W        W96297  28.085  38.529   9.981
23873W        W96298   9.809  29.934  10.551
23874W        W96299  42.438  14.220   3.633
23875W        W96300  14.228  28.591  12.917
23876W        W96301  12.278   1.429  10.540
23877W        W96302  25.994   0.958   1.285
23878W        W96303  14.175   8.287   2.297
23879W        W96304  36.379  35.078  13.019
23880W        W96305  29.960  42.807  12.949
23881W        W96306  33.951  36.514  12.366
23882W        W96307  38.556  28.943  11.985
23883W        W96308  10.702  24.033  12.041
23884W        W96309  43.357   7.375  13.536
23885W        W96310  30.941   9.368  14.349
23886W        W96311   0.347  38.340  14.994
23887W        W96312  11.729  17.738  12.049
23888W        W96313  25.213  21.213   2.385
23889W        W96314  11.175  23.544  10.452
23890W        W96315  18.712  38.367  14.950
23891W        W96316  43.495  40.820   1.700
23892W        W96317  35.066   2.720  12.443
23893W        W96318  33.557   7.178  10.532
23894W        W96319   0.897  34.395   2.888
23895W        W96320  43.498  38.499  13.932
23896W        W96321  13.785  24.019  11.598
23897W        W96322  12.137  37.843  14.848
23898W        W96323  42.379  22.142  11.013
23899W        W96324  22.653  36.424  12.547
23900W        W96325  25.567  18.193  10.459
23901W        W96326   9.875   1.756  13.333
23902W        W96327  21.752  30.608  14.879
23903W        W96328  44.938  43.994  11.561
23904W        W96329  34.999  24.705  12.955
23905W        W96330  37.951  11.709   4.715
23906W        W96331   5.866  38.509   4.695
23907W        W96332   8.253  33.056  11.871
23908W        W96333  18.556  32.989   2.200
23909W        W96334  36.419  23.628   4.151
23910W        W96335  28.456  37.985  14.919
23911W        W96336  24.535  36.883  13.959
23912W        W96337  32.142   2.238   1.268
23913W        W96338  13.821   3.872  12.853
23914W        W96339  17.232  37.988   1.452
23915W        W96340  32.895  16.635   0.906
23916W        W96341   4.326   0.973   1.779
23917W        W96342  13.341   8.675  13.470
23918W        W96343  27.122  40.014   4.615
23919W        W96344  27.587  11.660   0.470
23920W        W96345  29.644  22.165   2.355
23921W        W96346  36.586  21.536   3.332
23922W        W96347  34.909  40.546   0.425
23923W        W96348  13.253  44.286   4.189
23924W        W96349  29.055  11.679   1.295
23925W        W96350   4.282   4.248   0.828
23926W        W96351   8.245  28.139  13.541
23927W        W96352   7.189  39.015   1.276
23928W        W96353   5.397  38.346  12.398
23929W        W96354  10.771  41.899  14.969
23930W        W96355  27.987  41.005  12.349
23931W        W96356  32.497  40.907   4.326
23932W        W96357  18.689  19.753  10.019
23933W        W96358  38.846  14.808  14.376
23934W        W96359  42.788  10.252  10.475
23935W        W96360   7.199   4.276  12.951
23936W        W96361  21.639  34.427  14.367
23937W        W96362   0.815  23.063  13.857
23938W        W96363  22.732  12.623   1.805
23939W        W96364  35.000   7.324   3.850
23940W        W96365  12.662  39.494  11.479
23941W        W96366  31.490  31.934  10.595
23942W        W96367   6.360  19.154   1.245
23943W        W96368  44.928  40.339  10.415
23944W        W96369  28.070  13.200  11.119
23945W        W96370   1.928   5.856   2.241
23946W        W96371  17.095  19.587  10.415
23947W        W96372  35.078  36.460   3.736
23948W        W96373   0.789  27.660  10.440
23949W        W96374  24.984  27.022   3.225
23950W        W96375  41.882  28.960  11.374
23951W        W96376   9.666  21.623  14.395
23952W        W96377  26.479  39.448  11.887
23953W        W96378  39.987  42.371   3.730
23954W        W96379  29.548  41.334   3.800
23955W        W96380  32.923   4.817   2.663
23956W        W96381  34.051  33.943  10.908
23957W        W96382  36.588  28.672   1.933
23958W        W96383  14.772  44.781   2.815
23959W        W96384  43.345   4.348   1.866
23960W        W96385  14.802  14.148  14.449
23961W        W96386  34.091  29.068   2.868
23962W        W96387   0.927  22.706   3.239
23963W        W96388  29.939   2.860   2.829
23964W        W96389   4.724  18.698   0.444
23965W        W96390  22.505  18.717   3.160
23966W        W96391   8.880  38.397  11.915
23967W        W96392   1.872  17.163   0.961
23968W        W96393  27.103  25.492   1.737
23969W        W96394  23.605  26.189  13.037
23970W        W96395  39.879  33.463  11.569
23971W        W96396  11.201  41.029   1.382
23972W        W96397  34.950  35.074  14.473
23973W        W96398  35.591  28.586   2.313
23974W        W96399  38.072   9.666   4.179
23975W        W96400  27.582   1.854  10.584
23976W        W96401   6.330  27.168   2.780
23977W        W96402  24.633  36.556   0.816
23978W        W96403  41.816  20.090  10.513
23979W        W96404  30.537  38.071   3.717
23980W        W96405  13.317  16.663  13.402
23981W        W96406  39.317  26.534   1.876
23982W        W96407  23.198  14.698  14.925
23983W        W96408  29.557  31.114  14.294
23984W        W96409  42.886  27.034   5.299
23985W        W96410   3.262  43.363  12.483
23986W        W96411   7.333  11.825  13.838
23987W        W96412   5.905  13.651  12.909
23988W        W96413   6.839  44.294   1.780
23989W        W96414  43.481  27.564  12.003
23990W        W96415  25.582   8.772  12.488
23991W        W96416  33.008  41.468  13.350
23992W        W96417  20.750  42.438  11.462
23993W        W96418  32.424  11.733  10.032
23994W        W96419   3.419   5.338  14.805
23995W        W96420  22.694  28.963   2.854
23996W        W96421  13.719   8.286   0.340
23997W        W96422  44.454  10.758  12.874
23998W        W96423  21.737  23.560   4.138
23999W        W96424  29.519  35.960   3.148
24000W        W96425  17.766  25.155  13.370
24001W        W96426   8.832  23.007   0.947
24002W        W96427   6.919   1.344  13.966
24003W        W96428   8.196  26.132   1.341
24004W        W96429  37.830   9.209   3.227
24005W        W96430   1.883  21.565  10.429
24006W        W96431  24.607  38.051   1.426
24007W        W96432  26.475  35.546   3.693
24008W        W96433  44.993   8.283   2.785
24009W        W96434  10.678  43.956   3.790
24010W        W96435  18.719  28.638  14.841
24011W        W96436  17.307  37.872   4.298
24012W        W96437  42.443  28.982   1.423
24013W        W96438  14.613   8.716   1.885
24014W        W96439  12.170   0.370   0.376
24015W        W96440   4.796  29.520  14.001
24016W        W96441   4.412  15.585   1.407
24017W        W96442  16.727   8.898  13.522
24018W        W96443  27.031  14.331   1.362
24019W        W96444   5.415   0.261   1.212
24020W        W96445   0.843  20.696   1.735
24021W        W96446  30.928  39.864  11.000
24022W        W96447   0.821   9.651  12.371
24023W        W96448   1.415  17.649  14.885
24024W        W96449  41.040  13.683   2.367
24025W        W96450  18.671  25.176  11.040
24026W        W96451   9.837   7.749  10.123
24027W        W96452   1.412  23.575   3.158
24028W        W96453  38.912  18.205   1.329
24029W        W96454   6.733   8.367   2.832
24030W        W96455   7.776  42.459  12.872
24031W        W96456  28.675  40.532  13.940
24032W        W96457   3.797  44.802   2.272
24033W        W96458  10.356   7.735  13.812
24034W        W96459   0.414  41.407  13.807
24035W        W96460   8.769   8.797   1.913
24036W        W96461   8.269  42.809   4.281
24037W        W96462  13.738  36.977   3.301
24038W        W96463   9.883  36.029   3.736
24039W        W96464  34.102   2.317  14.292
24040W        W96465  41.302  31.118  13.511
24041W        W96466  39.533  26.042  11.933
24042W        W96467  41.494  35.390  10.539
24043W        W96468  11.201  36.004   1.274
24044W        W96469  12.223  10.829  13.967
24045W        W96470  44.300  10.293  12.460
24046W        W96471   9.233  41.309   4.814
24047W        W96472   4.747   0.862  10.548
24048W        W96473  44.859  38.498  14.454
24049W        W96474  35.477  42.356   2.664
24050W        W96475  37.934  15.161   1.309
24051W        W96476  21.574  11.677  14.491
24052W        W96477   2.737  32.976   2.742
24053W        W96478   3.438  32.068  13.341
24054W        W96479  17.682   8.887  11.529
24055W        W96480  34.385  27.458  14.476
24056W        W96481  32.633  22.515   4.810
24057W        W96482  35.387  18.630   1.395
24058W        W96483  33.966  29.126  12.035
24059W        W96484  27.181  43.021   0.738
24060W        W96485  22.601  42.910  12.966
24061W        W96486  29.140  13.273   2.276
24062W        W96487  37.485   9.150  13.047
24063W        W96488   3.897   4.917   2.800
24064W        W96489  21.085  15.250   2.390
24065W        W96490  30.017   8.186  14.389
24066W        W96491  22.035  34.505  11.886
24067W        W96492  15.680  18.176  11.391
24068W        W96493  30.501   9.345  12.981
24069W        W96494  31.050  15.177   0.348
24070W        W96495   8.245  18.272  13.340
24071W        W96496  17.277   0.771   2.320
24072W        W96497  37.851  26.052  14.875
24073W        W96498   6.760  27.948   4.745
24074W        W96499  27.654  26.588  14.920
24075W        W96500  39.357  34.050   0.966
24076W        W96501  42.448  24.629   3.808
24077W        W96502  15.257  22.057  10.440
24078W        W96503  24.051  42.374   2.762
24079W        W96504   7.859  18.584   5.234
24080W        W96505  11.316   4.887   4.815
24081W        W96506  37.059   7.879   2.870
24082W        W96507  32.109  18.106  10.979
24083W        W96508  20.584  29.621  10.955
24084W        W96509   1.293  35.582  13.545
24085W        W96510  43.900   9.716  14.793
24086W        W96511  43.802  13.715   1.308
24087W        W96512  32.958   6.678  10.971
24088W        W96513  33.094  31.443   4.789
24089W        W96514  39.050  40.955   3.241
24090W        W96515  17.190  34.050   1.304
24091W        W96516  17.239  14.604  11.606
24092W        W96517  21.725  39.560  10.592
24093W        W96518  11.714  10.335  10.032
24094W        W96519   6.919  21.176   4.173
24095W        W96520  24.151  14.276   2.894
24096W        W96521  19.668   5.725  13.917
24097W        W96522   2.446  32.617  10.953
24098W        W96523   5.339  38.371   1.292
24099W        W96524  41.877   6.220  11.989
24100W        W96525  34.563  34.104   2.779
24101W        W96526  43.336   5.299   3.219
24102W        W96527  15.248   2.796   2.384
24103W        W96528  15.802  38.021   0.375
24104W        W96529  17.624  18.585   1.749
24105W        W96530  39.936  38.558  14.995
24106W        W96531  23.684  31.076  13.407
24107W        W96532  36.439  25.177   5.111
24108W        W96533  39.815   7.730  13.892
24109W        W96534  40.497  35.986   5.290
24110W        W96535  23.011  40.800   2.227
24111W        W96536  13.649  22.688   5.150
24112W        W96537  26.002  25.587   2.858
24113W        W96538   5.349  26.077  10.916
24114W        W96539  12.137  36.018   4.120
24115W        W96540  39.395  13.283  12.912
24116W        W96541  36.445   9.746   2.876
24117W        W96542  38.885   0.446   4.255
24118W        W96543  29.505  17.789   3.813
24119W        W96544   0.939   4.840   0.810
24120W        W96545  41.914   0.474   0.397
24121W        W96546   3.885  30.998  14.013
24122W        W96547  24.189  32.591  14.831
24123W        W96548   3.785  33.042  14.891
24124W        W96549   3.816  34.458  12.424
24125W        W96550  43.289  15.192  10.484
24126W        W96551   8.883  42.953  10.100
24127W        W96552   0.358  14.306   4.118
24128W        W96553  12.239   2.728   3.846
24129W        W96554  42.986  24.987   0.924
24130W        W96555  19.113  23.047  12.478
24131W        W96556  37.019   9.341  13.055
24132W        W96557  11.705  41.006  11.909
24133W        W96558  43.516   1.447   0.446
24134W        W96559   8.384  22.177   1.861
24135W        W96560  44.461  16.228   2.850
24136W        W96561  41.457  28.138   1.293
24137W        W96562  14.637  11.132  11.996
24138W        W96563  26.624  43.346   0.357
24139W        W96564  18.613  28.444   0.834
24140W        W96565  41.937  39.543  11.371
24141W        W96566   8.690  40.475  13.439
24142W        W96567  15.692  34.917  13.959
24143W        W96568  10.689   0.384  14.922
24144W        W96569  31.001  35.096   1.296
24145W        W96570  39.883  31.551   3.784
24146W        W96571  22.061  12.651   0.375
24147W        W96572  16.141  19.224   0.245
24148W        W96573  24.664  15.098  14.345
24149W        W96574  23.677  33.047   0.827
24150W        W96575   5.204  21.179   3.195
24151W        W96576  20.215  21.088  14.276
24152W        W96577  14.209  33.101  12.014
24153W        W96578  39.500  16.674   1.396
24154W        W96579   9.754  29.430   1.385
24155W        W96580  25.217  11.834  13.915
24156W        W96581  35.068  40.878  10.515
24157W        W96582  16.620  44.950  12.071
24158W        W96583  13.775   9.764   1.380
24159W        W96584  30.021   6.686   0.267
24160W        W96585  10.728  39.364  14.998
24161W        W96586  13.267  25.476  14.323
24162W        W96587  29.647  43.866   2.254
24163W        W96588  13.708  17.721   1.389
24164W        W96589   8.227  10.332   4.266
24165W        W96590  14.199  12.153   2.370
24166W        W96591  41.887  24.055   4.776
24167W        W96592  31.018  14.637   0.402
24168W        W96593  27.039  10.169  12.093
24169W        W96594  29.485  22.589   5.264
24170W        W96595   1.909  29.613  13.855
24171W        W96596  21.656  11.677   2.869
24172W        W96597  22.743  36.040   0.803
24173W        W96598  43.494  17.797  13.918
24174W        W96599   9.645  18.182   4.325
24175W        W96600   2.356   4.407  11.386
24176W        W96601  39.483  35.537  10.410
24177W        W96602  37.869   4.787   2.846
24178W        W96603  14.659  30.484  12.981
24179W        W96604  21.097  29.670   0.375
24180W        W96605  13.697   8.687   1.408
24181W        W96606  14.696  40.304   2.775
24182W        W96607  43.279  23.590   2.730
24183W        W96608  39.369  38.503  11.604
24184W        W96609  38.478  38.477   2.782
24185W        W96610  20.217  39.019  10.058
24186W        W96611  32.522   8.303   3.675
24187W        W96612  16.192  35.400  11.928
24188W        W96613  31.063   0.331  12.459
24189W        W96614  36.559  34.918  13.854
24190W        W96615  42.333   2.369   3.854
24191W        W96616   7.293  13.174  11.610
24192W        W96617   0.430  15.200   3.784
24193W        W96618  37.559  18.566  11.482
24194W        W96619  27.552   0.456   4.345
24195W        W96620  22.078  36.488   3.184
24196W        W96621   6.706   7.332  11.038
24197W        W96622   2.268  28.943   2.354
24198W        W96623  42.834  25.972  11.953
24199W        W96624  21.129  35.865  14.439
24200W        W96625   8.751  20.656   0.958
24201W        W96626  32.573  27.158   2.822
24202W        W96627  15.084   8.246   2.839
24203W        W96628   7.908  10.861  11.032
24204W        W96629   1.742  26.147  10.485
24205W        W96630   2.918  13.661   3.226
24206W        W96631  20.200  25.023   4.311
24207W        W96632  12.754  29.151   2.878
24208W        W96633  28.128  14.770  10.582
24209W        W96634  36.449   3.413   4.154
24210W        W96635  30.569  13.842  11.112
24211W        W96636   2.447  38.494  13.356
24212W        W96637  10.352  39.963   9.939
24213W        W96638  14.684  14.835   4.784
24214W        W96639  17.557   0.476  11.398
24215W        W96640  23.662  33.057  11.089
24216W        W96641  32.442  42.802  13.448
24217W        W96642  17.099  43.915   0.944
24218W        W96643  16.129  37.343   1.211
24219W        W96644  13.344  25.101   2.897
24220W        W96645  41.040   3.446   4.677
24221W        W96646  27.073   0.749  11.094
24222W        W96647  32.914  22.544  12.362
24223W        W96648  34.991  42.522  10.511
24224W        W96649  16.306  20.151  10.519
24225W        W96650   9.671  19.553   2.262
24226W        W96651  12.287   5.292   0.842
24227W        W96652  41.899  20.633  13.380
24228W        W96653  42.942   7.691  11.920
24229W        W96654  33.541  27.145  11.398
24230W        W96655  33.460  26.182   2.847
24231W        W96656  40.927  35.474  11.917
24232W        W96657  43.405  28.956  11.568
24233W        W96658  10.723  32.130  10.510
24234W        W96659  31.403   0.384   4.715
24235W        W96660  30.515  11.714   1.894
24236W        W96661  32.447  17.713   2.714
24237W        W96662   2.459  11.268  11.922
24238W        W96663  31.012  33.122  11.053
24239W        W96664  37.014  11.732   1.767
24240W        W96665   1.295  19.257   0.924
24241W        W96666  15.173  13.617  11.489
24242W        W96667  27.155  29.590  10.477
24243W        W96668  44.267  28.650   4.147
24244W        W96669   6.331  19.627   4.621
24245W        W96670  13.614  38.033   0.911
24246W        W96671  17.300  13.793  12.960
24247W        W96672   5.416  40.488   4.124
24248W        W96673   3.763  32.546   3.859
24249W        W96674  16.104  20.256  11.557
24250W        W96675  15.682  19.778   0.916
24251W        W96676  43.019  43.280  12.558
24252W        W96677  10.346  15.670   0.380
24253W        W96678  35.901   8.697  10.594
24254W        W96679  23.643  38.491  14.287
24255W        W96680   4.908  23.569   0.763
24256W        W96681  30.055  28.460  10.937
24257W        W96682  12.307   3.900   2.685
24258W        W96683   9.710  42.477  11.427
24259W        W96684  16.586  31.997   1.780
24260W        W96685   4.785  38.514   1.231
24261W        W96686  35.061   6.362   4.832
24262W        W96687   6.258   7.815  13.946
24263W        W96688  43.348  18.619  14.351
24264W        W96689   2.360  22.107  12.851
24265W        W96690   6.837  37.931   5.727
24266W        W96691  18.094  27.112   3.240
24267W        W96692  19.752  32.078  12.875
24268W        W96693  42.929  38.878   2.223
24269W        W96694  11.868   1.969  10.631
24270W        W96695  26.182  35.528  14.957
24271W        W96696  27.960  31.931  13.795
24272W        W96697  34.980  19.737  10.546
24273W        W96698   6.736  34.954  11.427
24274W        W96699   4.277   8.677   4.270
24275W        W96700  25.620   8.672   5.242
24276W        W96701  33.579   2.813  10.552
24277W        W96702   4.264  21.074   2.846
24278W        W96703   2.285  19.539  11.592
24279W        W96704   8.166  11.315  10.533
24280W        W96705   0.910  43.914  12.090
24281W        W96706  20.716   6.909   0.250
24282W        W96707  24.721  32.988  13.484
24283W        W96708  30.036  15.182  10.553
24284W        W96709  38.821   7.248   2.332
24285W        W96710  15.695  25.633   2.674
24286W        W96711  40.929  33.595   4.695
24287W        W96712  42.794  31.600  11.900
24288W        W96713  29.546  18.676  13.059
24289W        W96714  43.414  23.061  10.428
24290W        W96715   0.895  17.600   1.293
24291W        W96716  19.170  31.613  10.554
24292W        W96717  20.101  18.273  10.955
24293W        W96718  23.991  15.132   1.824
24294W        W96719  11.706   9.375  13.050
24295W        W96720  17.143  42.309  12.093
24296W        W96721  30.596  22.039  11.519
24297W        W96722  33.491  44.468  10.489
24298W        W96723  30.598   9.868  11.907
24299W        W96724  12.246  39.559  14.286
24300W        W96725  42.315  32.032  11.403
24301W        W96726   3.719  15.209  14.275
24302W        W96727  21.143  34.994  13.480
24303W        W96728  36.045   1.903   4.805
24304W        W96729  35.014  44.896   3.370
24305W        W96730  21.216  44.948  13.543
24306W        W96731  19.766  14.204  14.786
24307W        W96732  26.531  18.752  13.339
24308W        W96733  16.153  12.617   0.743
24309W        W96734  31.065   7.708   2.289
24310W        W96735   3.711   3.813  12.403
24311W        W96736  11.357  16.301   3.370
24312W        W96737  14.708  16.302  11.044
24313W        W96738  28.162  41.871   2.222
24314W        W96739  10.238  32.610   2.266
24315W        W96740   6.269   9.338   1.313
24316W        W96741  27.570  42.862   1.353
24317W        W96742  28.494  20.146  13.046
24318W        W96743  12.836  38.434  10.570
24319W        W96744  38.442  34.950   1.343
24320W        W96745  36.890  33.527   4.158
24321W        W96746  31.993  37.574   3.697
24322W        W96747  37.989   9.241  14.315
24323W        W96748  13.758  11.200   4.719
24324W        W96749  13.767   6.892   3.816
24325W        W96750   6.320  38.981  12.878
24326W        W96751  42.354  25.152  12.573
24327W        W96752  36.936  15.253   4.314
24328W        W96753   3.845  21.079  13.421
24329W        W96754  29.080  11.759  10.608
24330W        W96755  39.934  16.759  11.548
24331W        W96756  35.367  34.893  12.077
24332W        W96757  44.918  36.887   3.771
24333W        W96758  25.654  16.710   4.252
24334W        W96759   2.872  11.645  12.515
24335W        W96760  24.158  22.219  11.980
24336W        W96761  18.280   4.914   4.147
24337W        W96762  42.401   3.903   3.682
24338W        W96763  44.763   8.195   3.724
24339W        W96764  43.459  18.180   4.805
24340W        W96765   1.854  11.327   3.801
24341W        W96766  24.048   4.884   2.379
24342W        W96767   0.355  32.944   0.245
24343W        W96768  18.170  13.639   4.132
24344W        W96769  14.327  38.398  14.974
24345W        W96770  37.454  33.475  10.921
24346W        W96771  13.158  26.172   4.687
24347W        W96772   6.368  33.389   3.793
24348W        W96773  40.353   2.735  11.521
24349W        W96774  31.132  19.170   5.316
24350W        W96775  17.292   5.813   4.321
24351W        W96776  39.448  42.525  12.553
24352W        W96777  29.593   5.892   2.857
24353W        W96778  20.031   4.886  14.349
24354W        W96779  23.583  17.715   4.809
24355W        W96780  40.386  23.630  13.795
24356W        W96781   7.687   0.765   0.927
24357W        W96782  21.516   2.258  10.993
24358W        W96783  21.206  18.613  11.033
24359W        W96784   0.413  27.119  12.557
24360W        W96785  28.009  26.146   2.397
24361W        W96786  15.272   1.264  12.928
24362W        W96787  36.559   6.780   0.816
24363W        W96788  43.409  19.253   3.708
24364W        W96789  29.485  35.951  11.599
24365W        W96790   4.721  34.076  12.512
24366W        W96791  36.359  40.382   3.711
24367W        W96792  25.195  28.124  10.456
24368W        W96793  44.377   9.325  13.971
24369W        W96794  34.876  11.759  14.924
24370W        W96795  17.710  20.261   4.727
24371W        W96796  16.809  33.066   1.280
24372W        W96797   8.349  33.529   2.692
24373W        W96798  11.229  18.281   3.654
24374W        W96799  12.333  38.971   0.858
24375W        W96800  17.786  33.033   3.733
24376W        W96801  20.197  11.654  12.466
24377W        W96802  18.626  37.075   3.832
24378W        W96803  41.371   3.756   2.389
24379W        W96804  26.047   6.826   4.808
24380W        W96805  41.791  25.481   4.116
24381W        W96806  35.485   2.319  10.911
24382W        W96807   6.217  29.093  11.989
24383W        W96808  13.749   3.919   2.409
24384W        W96809  22.136  30.444   1.794
24385W        W96810  43.841  15.633   3.205
24386W        W96811  22.068  27.164   2.243
24387W        W96812  42.924   9.705  11.019
24388W        W96813   9.374  15.307   0.362
24389W        W96814  20.131  18.767   3.662
24390W        W96815  43.403  12.670   4.670
24391W        W96816  19.235  42.858   4.709
24392W        W96817  40.902  29.144  12.883
24393W        W96818  31.151  31.514  11.575
24394W        W96819  27.125  17.258  12.461
24395W        W96820  25.665   0.829   2.802
24396W        W96821   9.754  26.539  11.472
24397W        W96822  33.414   4.396   0.768
24398W        W96823  15.739  24.682  13.017
24399W        W96824  39.347   8.766  11.881
24400W        W96825  11.802  11.274  14.490
24401W        W96826  28.983  31.578   2.833
24402W        W96827  17.584  36.075  11.586
24403W        W96828  17.182  41.870   2.213
24404W        W96829  12.701  40.374  10.949
24405W        W96830   4.768   7.676   3.786
24406W        W96831  12.791  39.417   4.664
24407W        W96832   3.714  41.877  12.049
24408W        W96833  15.215  29.107   0.476
24409W        W96834  14.739  21.704  13.546
24410W        W96835  10.229  43.308  12.094
24411W        W96836  34.925  38.535   0.383
24412W        W96837  24.060   9.818  13.444
24413W        W96838  29.539  25.620   0.261
24414W        W96839  12.346  37.556  11.526
24415W        W96840  19.730  24.693   2.411
24416W        W96841  16.582  24.206  11.903
24417W        W96842   5.832  15.778   1.309
24418W        W96843  22.643  19.214  14.342
24419W        W96844   3.724  40.511  10.405
24420W        W96845  43.805  10.783   3.732
24421W        W96846  32.013  14.738   0.780
24422W        W96847  40.018  12.680  14.277
24423W        W96848  12.640  13.794  11.974
24424W        W96849  24.559   8.264  13.857
24425W        W96850  27.637   1.473   0.771
24426W        W96851  16.170  20.532   1.757
24427W        W96852  31.473   5.703  11.510
24428W        W96853  27.163  24.012  13.999
24429W        W96854   2.957  16.173  13.009
24430W        W96855  29.066  25.668  13.514
24431W        W96856  18.121  35.582   0.894
24432W        W96857   7.355  14.637   2.255
24433W        W96858  33.459   7.293   3.683
24434W        W96859  14.686  27.965   1.407
24435W        W96860  31.118   5.422   0.409
24436W        W96861  40.816   4.857   0.463
24437W        W96862  28.147  25.528  14.971
24438W        W96863  28.439  25.134   3.213
24439W        W96864  21.246   1.786   0.384
24440W        W96865   4.901  28.436  13.041
24441W        W96866  24.216  43.429  14.358
24442W        W96867  39.514   9.182  13.485
24443W        W96868  17.555  29.003  12.476
24444W        W96869  11.751  43.849  14.917
24445W        W96870  25.646   5.727  14.333
24446W        W96871   5.907   6.909  12.422
24447W        W96872  40.020  16.206   0.323
24448W        W96873  36.355  21.045  10.457
24449W        W96874  32.506  37.476  11.524
24450W        W96875  44.882  28.676  13.061
24451W        W96876  34.608  33.056   2.812
24452W        W96877  29.605  18.788  14.981
24453W        W96878  17.072  16.095  14.965
24454W        W96879   8.230  27.475   0.819
24455W        W96880  36.913  28.449   2.286
24456W        W96881  24.575  11.767   0.850
24457W        W96882  34.532  36.033  14.293
24458W        W96883  10.159  34.555  11.003
24459W        W96884  37.455  21.686   1.904
24460W        W96885   0.985  18.084   2.786
24461W        W96886  10.217  11.802  10.599
24462W        W96887  13.814  35.098  14.295
24463W        W96888  29.549  34.050  12.868
24464W        W96889  42.900   4.270   3.684
24465W        W96890  29.928  15.645   0.424
24466W        W96891  37.080   4.235   3.335
24467W        W96892   6.787  19.045   2.898
24468W        W96893  41.406  19.780   0.304
24469W        W96894  31.408  29.615  12.871
24470W        W96895   5.416  12.856   2.824
24471W        W96896  23.711  38.993   0.342
24472W        W96897   8.855  26.139  13.972
24473W        W96898  33.526  44.403  14.931
24474W        W96899  36.088   5.837  12.896
24475W        W96900  42.942   8.373  11.050
24476W        W96901   0.798  35.478  12.974
24477W        W96902   2.330  12.172   0.337
24478W        W96903  35.424  14.226  14.833
24479W        W96904  16.799   1.300  12.864
24480W        W96905  14.250  28.512  11.538
24481W        W96906  28.442  12.211  13.345
24482W        W96907  33.063  15.625   0.413
24483W        W96908   6.732  36.080  12.366
24484W        W96909   5.230  32.092  13.533
24485W        W96910  37.510  42.427   0.260
24486W        W96911  26.635  25.132  12.410
24487W        W96912   6.722  29.953   4.170
24488W        W96913   1.743  37.990  13.041
24489W        W96914  22.023  29.069  14.006
24490W        W96915  20.238  28.548  14.025
24491W        W96916  42.786  18.100   2.766
24492W        W96917   5.337  12.683   4.270
24493W        W96918   1.346   8.757   4.757
24494W        W96919  44.005  24.689   1.870
24495W        W96920  26.173  22.995  14.864
24496W        W96921  39.341  39.872  13.356
24497W        W96922  19.657  39.870  14.800
24498W        W96923   7.733  18.236  11.898
24499W        W96924  17.649  16.244  10.510
24500W        W96925  42.976  27.563   1.898
24501W        W96926  43.954  31.125  11.468
24502W        W96927  25.140   6.808  14.330
24503W        W96928  44.850  21.550   0.741
24504W        W96929  43.894   0.791  13.411
24505W        W96930  40.338  10.255  13.522
24506W        W96931   2.960  21.209  11.517
24507W        W96932  37.434   9.676   4.659
24508W        W96933  23.003   4.240  11.934
24509W        W96934   8.784  21.537   2.689
24510W        W96935   1.391  33.407   3.150
24511W        W96936  21.697   4.797   4.783
24512W        W96937   1.392  23.615  11.609
24513W        W96938  27.652   6.277  10.558
24514W        W96939  41.470   6.255   5.136
24515W        W96940  41.486  39.511  10.898
24516W        W96941  21.037  32.054   4.290
24517W        W96942  28.093  38.528   5.229
24518W        W96943   8.690  40.928   1.800
24519W        W96944  10.702  26.079   4.337
24520W        W96945  44.372  44.818   2.340
24521W        W96946  24.014  17.583  10.519
24522W        W96947  25.013  28.002   4.172
24523W        W96948  41.857   6.751   4.154
24524W        W96949  33.051  36.960  13.499
24525W        W96950  18.164  19.214  14.011
24526W        W96951   6.385  23.147  11.581
24527W        W96952  27.030   9.825   2.273
24528W        W96953   3.285  27.455  14.808
24529W        W96954  27.601  25.151  14.023
24530W        W96955  30.493   7.742   2.230
24531W        W96956  43.768  30.583  13.905
24532W        W96957  42.865  20.698  10.578
24533W        W96958  11.714  11.664  12.017
24534W        W96959  21.130  11.700  11.984
24535W        W96960  11.368  22.597   0.806
24536W        W96961   1.957  42.916  12.364
24537W        W96962  25.539  17.717  13.055
24538W        W96963  29.038  40.025   4.664
24539W        W96964  43.485  33.099  12.914
24540W        W96965  17.600   8.881   1.865
24541W        W96966  30.585  27.011   2.287
24542W        W96967  40.804  42.474   1.724
24543W        W96968  14.754  14.202  12.522
24544W        W96969  24.123  42.922  13.488
24545W        W96970  16.291  37.468  11.429
24546W        W96971  41.349  30.946   1.907
24547W        W96972  13.731  18.222   0.259
24548W        W96973  13.287  19.724  13.804
24549W        W96974  29.585  19.097  12.856
24550W        W96975  12.144  10.833  14.807
24551W        W96976  11.252   2.299  13.944
24552W        W96977  35.560  27.107   1.265
24553W        W96978   3.383  22.690   0.786
24554W        W96979   7.250  11.272  11.893
24555W        W96980  18.211  44.310   3.732
24556W        W96981  27.084  17.178  10.415
24557W        W96982   2.918  34.454  14.475
24558W        W96983  13.747  41.922  11.001
24559W        W96984  26.206   6.882  10.919
24560W        W96985   4.239  24.112   0.257
24561W        W96986  43.489  44.431  12.563
24562W        W96987  38.554  26.689  14.820
24563W        W96988  20.687   7.752   1.322
24564W        W96989   4.940  27.572  10.986
24565W        W96990  37.476   8.738  12.505
24566W        W96991  30.526  15.231   3.715
24567W        W96992  24.652   7.297  10.553
24568W        W96993  29.143  25.177  11.444
24569W        W96994  31.944  12.814  14.951
24570W        W96995   0.464  40.925  13.905
24571W        W96996  15.107  33.952   3.340
24572W        W96997  25.193  34.890   3.748
24573W        W96998  32.539   9.723  12.364
24574W        W96999  11.223   5.422  13.802
24575W        W97000  31.526   3.795   1.368
24576W        W97001   5.358  41.417  14.468
24577W        W97002  16.192   5.690   4.786
24578W        W97003  17.577  43.371  13.908
24579W        W97004   3.840  42.350   1.323
24580W        W97005  17.225  20.221   0.792
24581W        W97006  23.611  19.709   3.654
24582W        W97007  20.237  26.664  14.969
24583W        W97008   9.214  27.528   3.849
24584W        W97009  37.412  38.443  13.944
24585W        W97010  11.362  21.663   1.400
24586W        W97011  34.117  44.265   2.888
24587W        W97012  33.132  19.183   4.264
24588W        W97013  37.441  32.589  12.075
24589W        W97014  14.222  44.381   2.389
24590W        W97015  15.195  35.976  14.383
24591W        W97016  30.006   8.784   3.286
24592W        W97017  28.973  26.498  14.895
24593W        W97018  18.598  42.436  11.911
24594W        W97019  43.817  16.774   3.252
24595W        W97020   4.926   8.238  12.063
24596W        W97021  43.841  35.873  14.294
24597W        W97022   9.764  27.995  13.321
24598W        W97023  19.549  16.627  14.998
24599W        W97024  29.983   2.249  12.456
24600W        W97025   6.723  37.337   9.549
24601W        W97026  42.868   7.298   3.840
24602W        W97027  38.859  31.523  13.388
24603W        W97028   7.255   0.290   1.713
24604W        W97029  43.993  42.975   3.690
24605W        W97030  23.984   6.336   4.750
24606W        W97031  31.544  24.016  13.949
24607W        W97032  29.939  17.141  12.836
24608W        W97033  15.594  25.529   4.758
24609W        W97034   3.386   9.309   1.851
24610W        W97035  18.548   5.415   0.332
24611W        W97036  12.186   5.298   2.827
24612W        W97037  24.042  29.667   5.263
24613W        W97038   9.163  12.782   3.307
24614W        W97039   4.818  26.561   2.275
24615W        W97040   6.839  29.436   0.315
24616W        W97041  21.193  10.809  13.950
24617W        W97042  28.173  20.663  13.043
24618W        W97043  36.427  34.423  13.457
24619W        W97044  13.140   3.864   4.753
24620W        W97045  32.069  44.483  11.525
24621W        W97046  42.489  36.495  14.358
24622W        W97047  15.709   8.890   0.824
24623W        W97048  22.240  43.991   0.839
24624W        W97049  15.193  43.320   4.350
24625W        W97050   3.793   9.347  14.513
24626W        W97051  37.374  29.034   3.198
24627W        W97052  33.445  25.018   3.729
24628W        W97053   6.289  18.182  10.631
24629W        W97054  44.403  15.240  12.011
24630W        W97055  24.196  31.067  12.464
24631W        W97056   9.660  17.240  14.326
24632W        W97057  27.601  19.225   2.244
24633W        W97058  13.263  25.078  12.995
24634W        W97059  13.229  30.967   3.185
24635W        W97060  31.026  10.834  12.525
24636W        W97061  31.987  37.440  11.102
24637W        W97062  34.929   1.745  12.901
24638W        W97063  20.058  31.150   2.284
24639W        W97064  26.111  39.339  11.101
24640W        W97065  41.838  42.312   3.700
24641W        W97066  43.892   5.208   0.393
24642W        W97067  21.215  13.325  11.050
24643W        W97068  20.644  43.338   2.833
24644W        W97069  39.017  38.986   5.249
24645W        W97070   1.326  10.775   2.680
24646W        W97071   8.833   2.375   0.340
24647W        W97072   7.806   3.283  12.549
24648W        W97073  39.955   6.419   4.125
24649W        W97074  23.629   9.181   0.960
24650W        W97075  15.094  22.589   0.811
24651W        W97076  30.910  19.551  13.869
24652W        W97077  34.949   4.252   0.278
24653W        W97078   5.838  37.492   0.458
24654W        W97079  38.544  26.576  12.498
24655W        W97080  21.733  31.512   2.706
24656W        W97081  42.361  24.663  13.342
24657W        W97082  37.452  42.288  14.278
24658W        W97083  40.993  40.313  12.978
24659W        W97084  16.774  26.482  10.934
24660W        W97085  15.168  32.523  12.380
24661W        W97086  20.153  40.984   0.772
24662W        W97087   2.285   4.904   3.337
24663W        W97088  29.669  30.608  12.011
24664W        W97089   3.371  27.024   2.407
24665W        W97090  10.640  10.827  12.012
24666W        W97091  16.303  19.201  13.400
24667W        W97092   9.339  36.571   2.829
24668W        W97093  22.522  12.247   0.875
24669W        W97094  12.737   2.433   5.129
24670W        W97095  10.311  42.381  11.057
24671W        W97096   9.781  17.721  14.899
24672W        W97097  14.831  30.943   1.750
24673W        W97098  31.941   5.712   3.151
24674W        W97099  26.600   5.246  12.823
24675W        W97100  38.044  22.058   2.709
24676W        W97101  43.485   1.786   1.872
24677W        W97102  35.564  27.138  12.063
24678W        W97103   0.262  43.917  11.459
24679W        W97104  14.171  38.397  13.858
24680W        W97105  23.597  43.802  12.015
24681W        W97106  20.146  30.968  10.891
24682W        W97107  43.361  11.677   1.393
24683W        W97108   3.311   2.324   2.813
24684W        W97109  21.169  37.364  11.060
24685W        W97110  18.081  29.034   1.339
24686W        W97111   9.866  38.038  11.441
24687W        W97112   0.290   3.362  13.896
24688W        W97113  44.275  29.607   1.242
24689W        W97114  26.577  42.305  11.911
24690W        W97115  18.194  27.032  13.826
24691W        W97116  44.406  23.538   4.614
24692W        W97117  19.565   6.284   4.787
24693W        W97118  37.539   1.388  11.932
24694W        W97119  19.537  12.704  10.897
24695W        W97120  30.571   5.836   2.715
24696W        W97121  28.624   2.854  13.933
24697W        W97122  15.121  23.638   2.240
24698W        W97123  39.846  42.901   4.780
24699W        W97124  11.688  30.066  13.935
24700W        W97125  10.648  21.745  11.418
24701W        W97126  27.166   3.319   5.135
24702W        W97127  29.489  16.125   4.603
24703W        W97128  43.316  11.816  14.389
24704W        W97129  23.159  34.070   0.369
24705W        W97130  26.020  10.764  13.342
24706W        W97131  26.202  31.079  14.382
24707W        W97132  33.943  16.697  14.289
24708W        W97133  29.042  19.764   3.719
24709W        W97134   2.466  21.056   3.228
24710W        W97135  17.772  17.266  14.938
24711W        W97136   5.402  31.413   1.448
24712W        W97137  20.148  43.313   0.283
24713W        W97138   8.871  23.158  11.905
24714W        W97139  13.655   8.736   0.460
24715W        W97140  34.881  32.110   2.721
24716W        W97141  41.928  11.295   3.734
24717W        W97142  32.456  27.196  14.415
24718W        W97143  25.026  43.021   0.815
24719W        W97144   3.800  26.473  10.555
24720W        W97145  34.492  41.344  14.961
24721W        W97146  43.433  35.416  11.936
24722W        W97147   3.739  17.292   1.270
24723W        W97148   9.752  20.233  12.467
24724W        W97149  25.476  14.600  10.615
24725W        W97150  39.538  24.992   1.917
24726W        W97151  24.015  13.683  14.473
24727W        W97152   9.168  42.407  11.383
24728W        W97153   7.776  36.356  12.347
24729W        W97154  22.655  26.027  11.966
24730W        W97155   7.717  24.097   2.383
24731W        W97156  44.376   3.897  13.048
24732W        W97157  24.984  33.420   3.302
24733W        W97158  21.226  11.305   4.128
24734W        W97159  19.211  16.758  13.503
24735W        W97160  31.040  18.164  13.938
24736W        W97161   9.718   6.352   4.712
24737W        W97162  44.481   3.275  12.906
24738W        W97163  29.620   7.735   2.898
24739W        W97164  18.296  43.987   4.636
24740W        W97165  27.957  42.457  12.987
24741W        W97166   1.936   2.382   1.841
24742W        W97167  13.837  21.042  14.876
24743W        W97168  24.991  24.552  11.548
24744W        W97169  33.099   8.262   3.376
24745W        W97170  24.554  39.818  11.968
24746W        W97171   5.247  39.945   2.232
24747W        W97172  23.198  33.062  13.359
24748W        W97173   3.320   1.931  10.894
24749W        W97174   6.243  44.940   0.764
24750W        W97175  20.693   4.883  14.873
24751W        W97176  15.733  31.929   0.755
24752W        W97177  25.062  31.043   3.683
24753W        W97178  26.056  29.101   0.933
24754W        W97179  42.994  36.475   2.284
24755W        W97180  29.169  18.585   2.830
24756W        W97181  44.912  13.319   2.276
24757W        W97182  42.493  27.619   1.359
24758W        W97183  27.688  32.396  11.451
24759W        W97184  32.004  35.419  10.607
24760W        W97185  33.485  16.786   0.407
24761W        W97186  30.476  35.452   0.858
24762W        W97187  31.129  27.607  10.939
24763W        W97188  15.768   1.758  10.129
24764W        W97189   3.278  19.127  13.060
24765W        W97190  13.208  22.534  13.035
24766W        W97191  12.280   1.889  10.891
24767W        W97192  25.163   5.899  11.124
24768W        W97193  13.272  21.067  11.524
24769W        W97194   0.939  34.097  14.491
24770W        W97195  23.560  14.095  13.046
24771W        W97196  17.568  37.515  12.987
24772W        W97197   9.661  38.061  14.986
24773W        W97198  14.803  34.044  13.063
24774W        W97199  35.852  40.984   3.289
24775W        W97200  22.738  14.640   3.339
24776W        W97201  33.908  24.214   3.317
24777W        W97202  36.567   1.945  13.858
24778W        W97203  33.496  18.684   5.233
24779W        W97204  44.978  28.967   1.716
24780W        W97205   4.377  25.622  13.464
24781W        W97206  44.484  33.457   2.296
24782W        W97207  14.689   1.462  11.105
24783W        W97208  13.258  30.995  11.066
24784W        W97209   0.949   1.875   0.741
24785W        W97210  23.174  20.713   3.216
24786W        W97211  31.520  21.212  11.396
24787W        W97212  24.154  38.940   4.202
24788W        W97213  38.013  38.417   0.839
24789W        W97214  30.942  16.209   2.390
24790W        W97215   0.298  27.460   2.792
24791W        W97216   0.898  34.039  13.063
24792W        W97217  31.469  11.226   2.719
24793W        W97218  19.144  22.716  10.608
24794W        W97219  14.174  32.573   2.722
24795W        W97220  26.008  17.096  12.911
24796W        W97221  25.707  26.085   1.800
24797W        W97222  24.697  32.887   3.818
24798W        W97223  27.003   7.784  10.908
24799W        W97224  41.370  33.547   4.308
24800W        W97225  15.292  27.487   4.788
24801W        W97226  25.067   7.416  12.846
24802W        W97227  32.069  36.464  12.509
24803W        W97228  29.970  29.439   4.152
24804W        W97229  39.326   9.353   3.670
24805W        W97230  22.064   4.270  11.065
24806W        W97231  44.473  36.484   1.935
24807W        W97232  17.279  31.137  14.349
24808W        W97233  29.482  34.444  12.857
24809W        W97234  35.068  40.932  12.488
24810W        W97235  20.153  32.511   2.851
24811W        W97236  13.302  43.787  13.976
24812W        W97237  11.847  15.814   4.638
24813W        W97238  30.451  18.578   0.298
24814W        W97239  15.203  41.420  14.468
24815W        W97240  41.800  14.790   1.390
24816W        W97241   1.779  36.941   1.926
24817W        W97242   4.832  38.451  14.858
24818W        W97243  28.458   7.230  10.418
24819W        W97244  21.114  28.552  12.964
24820W        W97245   2.286  12.765   3.810
24821W        W97246   2.440  33.084   0.802
24822W        W97247  26.191   1.750   4.835
24823W        W97248  11.163  42.879   0.728
24824W        W97249   5.868  42.836  11.087
24825W        W97250  24.696  31.461   4.692
24826W        W97251  31.983  39.918   3.741
24827W        W97252  35.955  32.473  14.403
24828W        W97253  40.443  11.233   2.294
24829W        W97254  22.250   3.361  13.053
24830W        W97255  17.781   5.791  14.297
24831W        W97256  33.545  25.208   3.162
24832W        W97257  25.026  41.810  11.877
24833W        W97258   3.946  15.158  11.983
24834W        W97259  35.003  37.564   2.197
24835W        W97260  13.255  36.589   2.402
24836W        W97261  37.418  27.001   3.690
24837W        W97262  17.101  14.717   3.794
24838W        W97263   7.231  28.552  11.514
24839W        W97264  42.915  10.755  12.918
24840W        W97265  28.474  42.479  10.465
24841W        W97266  39.982  36.545   1.214
24842W        W97267  11.788  17.296  10.898
24843W        W97268  23.221  38.001  10.894
24844W        W97269  11.267  10.183  14.294
24845W        W97270  13.324  25.155   4.243
24846W        W97271  24.628  12.155  13.032
24847W        W97272  39.347  18.166  13.867
24848W        W97273  20.028  22.640   2.746
24849W        W97274   0.895  15.627   3.252
24850W        W97275   8.722  14.314   4.769
24851W        W97276  13.152  42.902   3.800
24852W        W97277  15.326  28.601   2.765
24853W        W97278  21.736  44.366  14.992
24854W        W97279  38.481  19.133   4.627
24855W        W97280  41.890  40.358  12.426
24856W        W97281   4.753   6.410   9.995
24857W        W97282  25.524  32.943  13.445
24858W        W97283   6.736   7.741  13.874
24859W        W97284  18.206  21.131   0.800
24860W        W97285  43.831   3.890  14.486
24861W        W97286   4.294  21.186   0.865
24862W        W97287   4.845  14.154  11.545
24863W        W97288  30.960  32.084  11.565
24864W        W97289   8.285  10.211   3.719
24865W        W97290   7.861  30.045   1.884
24866W        W97291  13.298  44.833   2.701
24867W        W97292  28.088  22.244   4.664
24868W        W97293  37.082   8.385   4.666
24869W        W97294  37.000  15.763   3.637
24870W        W97295  19.100  36.502   1.258
24871W        W97296  23.716  39.338  14.869
24872W        W97297  27.052  29.668  14.951
24873W        W97298  22.074  23.047  11.046
24874W        W97299  14.624  37.425  13.049
24875W        W97300  33.037   4.389   3.375
24876W        W97301  42.416   4.337   4.283
24877W        W97302   3.723  25.493   0.939
24878W        W97303  32.009   1.772  12.942
24879W        W97304  43.386  28.589   3.853
24880W        W97305  30.156  17.604  11.491
24881W        W97306  11.260  36.890   2.743
24882W        W97307  27.985  42.935   4.245
24883W        W97308  26.457   7.755  12.020
24884W        W97309   7.197  28.522  12.035
24885W        W97310  16.580   0.393   2.839
24886W        W97311  19.760  30.495   3.153
24887W        W97312  30.981  30.911   2.180
24888W        W97313  33.429  32.020   4.746
24889W        W97314  39.457  32.463   4.226
24890W        W97315   0.971   6.750  12.095
24891W        W97316  34.016  24.601  11.077
24892W        W97317  23.129  15.168  11.984
24893W        W97318  23.181  14.303   4.211
24894W        W97319  13.266  34.414  13.937
24895W        W97320  37.368   9.283   1.911
24896W        W97321  42.956  16.120   2.217
24897W        W97322   9.165  38.862   1.428
24898W        W97323  13.607  27.492  10.973
24899W        W97324  29.975  43.885   0.749
24900W        W97325  17.113  18.753   1.694
24901W        W97326  16.767  11.224   1.341
24902W        W97327   5.736   7.218  14.325
24903W        W97328  15.158  40.916   4.827
24904W        W97329   7.832  42.514  10.955
24905W        W97330  13.159  25.146  11.525
24906W        W97331   8.669  19.780  13.876
24907W        W97332   9.714  15.107   1.931
24908W        W97333   3.301   5.734  14.420
24909W        W97334   8.665  33.550  13.909
24910W        W97335  24.545  43.431   2.357
24911W        W97336  43.476   2.432  14.440
24912W        W97337   5.817   4.287  13.824
24913W        W97338   7.385  38.452   1.412
24914W        W97339  16.715   5.698  13.488
24915W        W97340  16.800  27.479   1.828
24916W        W97341  36.490  19.679   3.753
24917W        W97342   0.810  40.490   0.890
24918W        W97343   0.360  38.474  11.378
24919W        W97344  43.907  39.354  11.543
24920W        W97345   0.975   8.845  11.420
24921W        W97346   7.793   0.473  11.931
24922W        W97347  20.715  16.614   2.207
24923W        W97348  28.518  36.084  11.946
24924W        W97349  12.683  27.647  13.404
24925W        W97350  25.180  43.332   3.735
24926W        W97351  18.245  22.035  11.006
24927W        W97352  22.134  37.930  14.843
24928W        W97353  38.431   2.839   0.844
24929W        W97354  36.913  37.949  11.870
24930W        W97355   5.334  40.969   2.841
24931W        W97356  38.374  37.376  10.953
24932W        W97357  21.094  10.349   2.398
24933W        W97358  12.211  40.390  11.981
24934W        W97359   1.335   1.904  14.510
24935W        W97360  25.111  16.676   3.864
24936W        W97361  25.095  13.807   0.760
24937W        W97362   1.280  36.393   1.323
24938W        W97363  44.291  25.631  11.972
24939W        W97364   6.210  34.054   2.749
24940W        W97365  10.695  16.776   1.376
24941W        W97366  12.266  24.642  12.573
24942W        W97367  22.157   4.739  12.013
24943W        W97368   9.839  11.681  12.832
24944W        W97369  11.800   3.815  10.416
24945W        W97370  41.943  17.716   2.894
24946W        W97371  36.969  16.644  10.444
24947W        W97372   5.901  28.631  13.336
24948W        W97373  33.079  37.920  14.349
24949W        W97374  30.586  30.642   3.672
24950W        W97375  25.504  37.006  12.969
24951W        W97376  44.398   0.296   3.819
24952W        W97377   7.281  15.599   3.743
24953W        W97378  32.562  16.307   4.126
24954W        W97379  37.079   1.272   4.279
24955W        W97380  17.155  26.096  14.507
24956W        W97381  10.836  38.034   1.424
24957W        W97382  37.367  36.864  13.393
24958W        W97383  37.490  35.416   1.436
24959W        W97384  34.912  23.644   5.157
24960W        W97385   9.866  36.911   9.975
24961W        W97386   3.459   3.383   0.743
24962W        W97387  37.564  44.938  14.993
24963W        W97388  15.747  39.968   1.875
24964W        W97389  34.933  14.145  11.900
24965W        W97390   9.389  22.573   3.693
24966W        W97391  36.361   8.799  14.933
24967W        W97392   7.388  10.744  10.892
24968W        W97393  34.914  22.096  11.998
24969W        W97394  32.632  35.946   1.297
24970W        W97395  42.408  12.149  14.949
24971W        W97396  39.063   3.737  14.285
24972W        W97397  34.910  25.093  14.995
24973W        W97398   0.252   9.179  10.900
24974W        W97399  27.001   4.802  11.556
24975W        W97400  19.282   6.228  14.499
24976W        W97401   0.935  43.322  12.964
24977W        W97402  39.937  13.682  13.460
24978W        W97403  18.708  41.472   5.162
24979W        W97404  23.509   4.810  12.916
24980W        W97405  33.557  16.109   3.272
24981W        W97406   7.253  39.924  13.458
24982W        W97407   6.360  11.157   3.699
24983W        W97408  25.198  29.131   2.360
24984W        W97409  34.892  33.398   2.831
24985W        W97410  43.775   9.834   4.285
24986W        W97411  42.331  17.289  12.375
24987W        W97412  15.309   3.880  11.937
24988W        W97413   8.694  40.500  12.021
24989W        W97414  43.332  29.059   2.411
24990W        W97415  40.332   7.293   3.833
24991W        W97416  20.155   3.803   3.311
24992W        W97417  10.198   3.861   4.635
24993W        W97418  28.476  44.267   1.260
24994W        W97419  14.122  20.618  12.563
24995W        W97420  32.990  38.024  10.517
24996W        W97421   4.266  36.990   0.845
24997W        W97422   3.392  23.047  14.356
24998W        W97423  36.500  38.019   0.929
24999W        W97424  27.002   6.272  13.984
25000W        W97425  31.513  42.404  14.511
25001W        W97426   2.309   6.213  13.433
25002W        W97427  20.530  23.557   2.358
25003W        W97428  11.182  24.614   0.458
25004W        W97429  35.396  21.177   5.289
25005W        W97430  31.033   1.329  12.954
25006W        W97431  41.383  40.318   3.147
25007W        W97432   5.305  43.484  11.089
25008W        W97433  42.414  35.084  12.026
25009W        W97434  39.931   9.699   2.304
25010W        W97435  26.105  34.045  10.553
25011W        W97436  40.842   9.783  14.791
25012W        W97437  43.948  32.957   0.771
25013W        W97438  16.295  21.561   2.279
25014W        W97439  26.000  16.740   0.835
25015W        W97440  23.131  26.185  10.581
25016W        W97441  15.740   8.386   4.808
25017W        W97442   5.932  31.011  12.459
25018W        W97443  11.789  18.166   2.266
25019W        W97444   8.727  19.236   3.869
25020W        W97445   1.412  16.587  10.523
25021W        W97446   5.906  36.354  11.036
25022W        W97447  16.158  30.951   1.292
25023W        W97448  34.527  29.556   2.239
25024W        W97449  40.313  20.061  13.834
25025W        W97450  23.649  39.871   0.405
25026W        W97451  38.069  16.603  12.051
25027W        W97452  17.100  15.627  14.372
25028W        W97453  28.676  11.629  10.411
25029W        W97454   9.173  18.654  14.763
25030W        W97455  21.722  23.682  12.353
25031W        W97456  14.720   9.364  11.550
25032W        W97457  21.545  18.658  14.968
25033W        W97458  43.514  38.040   2.282
25034W        W97459  26.018  39.885   1.838
25035W        W97460  35.087  42.870   3.252
25036W        W97461   4.236   3.273  14.948
25037W        W97462  24.023  24.716  12.015
25038W        W97463  18.611  37.485  12.042
25039W        W97464  29.069   4.868  10.424
25040W        W97465  31.489  17.702  12.496
25041W        W97466  37.958  30.485   4.782
25042W        W97467   1.797  32.591   4.718
25043W        W97468  34.052  40.319   2.327
25044W        W97469  11.762  15.241  11.602
25045W        W97470  39.397  11.339  10.414
25046W        W97471   0.898  31.629  10.444
25047W        W97472   6.238  22.679  10.593
25048W        W97473  25.480  29.922   1.263
25049W        W97474   6.274  39.328   3.708
25050W        W97475  34.083   1.390   1.845
25051W        W97476  13.831  14.119   3.251
25052W        W97477   1.405  22.188   1.437
25053W        W97478  27.956  41.837  10.468
25054W        W97479  24.708  38.567  11.019
25055W        W97480  31.038   6.804   0.323
25056W        W97481  35.094  34.978  13.014
25057W        W97482  40.910  22.674   3.278
25058W        W97483  30.130  33.512  12.398
25059W        W97484  41.357   2.878   0.350
25060W        W97485  40.859  31.473  10.959
25061W        W97486  19.091  30.033  10.027
25062W        W97487   4.273  39.538  12.513
25063W        W97488  28.024  33.587   0.445
25064W        W97489  19.245  36.096   0.729
25065W        W97490  10.848  35.916  12.408
25066W        W97491  15.748   9.169  14.978
25067W        W97492  29.167   0.888  14.812
25068W        W97493  41.335  31.430  12.395
25069W        W97494  30.001  35.095   0.915
25070W        W97495  13.224  33.115   2.793
25071W        W97496   8.747  25.152   0.872
25072W        W97497   8.285   7.839  12.371
25073W        W97498   8.285   2.439  14.897
25074W        W97499  40.990  43.969  12.892
25075W        W97500  42.402  41.492  11.003
25076W        W97501   3.948  13.708   4.731
25077W        W97502  16.677  31.516  12.439
25078W        W97503  21.202  22.736  10.946
25079W        W97504  36.953  32.118  14.804
25080W        W97505  28.141   8.707  14.330
25081W        W97506  38.360  22.177  11.983
25082W        W97507  41.500  22.038  14.968
25083W        W97508  13.233  44.805  13.471
25084W        W97509  29.086  29.593  11.001
25085W        W97510  10.740  19.576  13.009
25086W        W97511  19.040   5.376  14.336
25087W        W97512   1.406  43.018  12.991
25088W        W97513  40.906  35.488   1.899
25089W        W97514  14.611  19.538   5.223
25090W        W97515  28.620  32.975  11.123
25091W        W97516  10.218  40.007   4.808
25092W        W97517  15.819  42.891  14.465
25093W        W97518  37.933  18.588   4.832
25094W        W97519  35.549  10.784   1.350
25095W        W97520  34.930   4.764   4.138
25096W        W97521   1.754  33.877   4.616
25097W        W97522   0.803   2.305   2.409
25098W        W97523  44.304  33.502   5.117
25099W        W97524   0.941  22.626  13.968
25100W        W97525   2.374  25.670   4.210
25101W        W97526  38.883  23.183   2.196
25102W        W97527  22.665  35.477   3.841
25103W        W97528  26.990   6.802  12.902
25104W        W97529  19.563  11.814   2.879
25105W        W97530  21.652  14.173   4.263
25106W        W97531  13.659  35.852  10.430
25107W        W97532   3.419  12.760  11.930
25108W        W97533  43.464  12.815   2.311
25109W        W97534  23.159  44.950   1.385
25110W        W97535  36.042   9.752   2.846
25111W        W97536  42.786  22.093   4.713
25112W        W97537  18.763  36.370   1.930
25113W        W97538   0.458  36.472   0.756
25114W        W97539  32.468  44.442   1.386
25115W        W97540   6.298  22.114  12.422
25116W        W97541  38.930  42.425  10.604
25117W        W97542  18.207  23.037  14.011
25118W        W97543  25.675  35.911   4.322
25119W        W97544  10.863  22.720   2.329
25120W        W97545  34.942  31.031  11.050
25121W        W97546  37.400  39.041   0.908
25122W        W97547   8.396  16.689  14.950
25123W        W97548   0.811  27.514   2.268
25124W        W97549  12.672   3.306   0.905
25125W        W97550   4.286  11.243  12.481
25126W        W97551  20.256  31.614  12.379
25127W        W97552  20.214  24.996  10.013
25128W        W97553  17.640  33.882   2.187
25129W        W97554  17.065   0.958   1.737
25130W        W97555  24.040   2.926  11.962
25131W        W97556  24.210   7.708   3.367
25132W        W97557  28.181  14.633   1.399
25133W        W97558  12.824   6.251  14.472
25134W        W97559  36.950   7.888   1.427
25135W        W97560  10.367  37.925   4.176
25136W        W97561  27.034  31.136   4.821
25137W        W97562  23.691  42.365   4.259
25138W        W97563  12.177   8.367  12.509
25139W        W97564  19.237   1.324  13.432
25140W        W97565  24.120  13.216  14.870
25141W        W97566  16.120  43.943  11.934
25142W        W97567  20.732  14.630   4.215
25143W        W97568  27.964  42.496   0.866
25144W        W97569  22.160  41.503  14.500
25145W        W97570  42.437  35.438  14.413
25146W        W97571  43.943  38.886   1.271
25147W        W97572   7.387  44.916   3.707
25148W        W97573   1.772  27.465   4.708
25149W        W97574   9.157   4.914  12.913
25150W        W97575  39.054  24.544  12.040
25151W        W97576  19.160  41.463   0.328
25152W        W97577   4.837  34.089  10.896
25153W        W97578  27.558  37.899  13.419
25154W        W97579  40.367  30.625  12.439
25155W        W97580  31.625  35.475   1.337
25156W        W97581  27.570  40.967   4.304
25157W        W97582  12.157   2.876   4.774
25158W        W97583  38.040  39.553  12.928
25159W        W97584  21.740   3.902   3.342
25160W        W97585   6.700  17.716  12.077
25161W        W97586  25.036   4.279   1.386
25162W        W97587  40.982   5.205  14.296
25163W        W97588  32.906  27.611   1.310
25164W        W97589  40.978  28.530   0.957
25165W        W97590  36.408  21.728   1.285
25166W        W97591  13.195   3.912   1.869
25167W        W97592  34.440   8.827  14.759
25168W        W97593  10.877   3.459  14.494
25169W        W97594  41.490  13.286  11.608
25170W        W97595  32.612  42.334  13.367
25171W        W97596  36.477  24.524   4.275
25172W        W97597  35.504  10.743   0.939
25173W        W97598   9.348  22.507  14.030
25174W        W97599  19.089  41.855   2.401
25175W        W97600   6.902  37.063  11.073
25176W        W97601  34.083  30.923  14.956
25177W        W97602  18.071  41.342  10.624
25178W        W97603  18.671  33.397   4.698
25179W        W97604  36.098  44.768  11.902
25180W        W97605  15.321  13.710  13.543
25181W        W97606  31.969  13.292   4.761
25182W        W97607  18.128  32.534   2.335
25183W        W97608  37.531  17.688   4.345
25184W        W97609  23.996   7.200  10.448
25185W        W97610  11.341   6.375  14.793
25186W        W97611  27.132  35.965  10.597
25187W        W97612  41.818  26.018   1.924
25188W        W97613  17.292  21.073  10.581
25189W        W97614  14.683  28.154   2.184
25190W        W97615  10.774  11.817  12.531
25191W        W97616  22.683  16.625   3.850
25192W        W97617  25.639  12.610  10.157
25193W        W97618  43.448  15.626   2.774
25194W        W97619  15.581  41.951  14.797
25195W        W97620  37.084  16.676  11.582
25196W        W97621  34.091  32.504  13.369
25197W        W97622   3.798  36.525  11.912
25198W        W97623  24.608   3.348   3.162
25199W        W97624   2.278  21.540  12.829
25200W        W97625  11.706  15.685   5.223
25201W        W97626  22.742  32.619  10.923
25202W        W97627  43.472   7.196   0.245
25203W        W97628  43.903   2.451   3.684
25204W        W97629  43.764   7.679  14.440
25205W        W97630  21.713  37.543  10.591
25206W        W97631  18.637  32.438   4.833
25207W        W97632   7.267  25.491   0.802
25208W        W97633  25.474  39.336  11.120
25209W        W97634  19.537   8.666  14.988
25210W        W97635   1.422  21.212   1.411
25211W        W97636   2.739  37.513  14.835
25212W        W97637   0.368  17.170   4.711
25213W        W97638  20.097  15.671   4.277
25214W        W97639  24.984  10.641  13.440
25215W        W97640  33.539   8.243   4.222
25216W        W97641  22.501   9.232  13.965
25217W        W97642  29.502  12.331   3.280
25218W        W97643  20.761  22.023  12.077
25219W        W97644  37.353  41.355  14.948
25220W        W97645  34.890   8.380   1.412
25221W        W97646  15.726  32.012   1.805
25222W        W97647  10.780   7.834   0.834
25223W        W97648  34.487  40.860   0.805
25224W        W97649  27.623  38.415   1.398
25225W        W97650  26.971  17.701   1.889
25226W        W97651  11.817  43.297  10.466
25227W        W97652  31.494   7.205  12.399
25228W        W97653  35.361   4.362  14.500
25229W        W97654  30.543   3.882  12.367
25230W        W97655  37.918  43.981   1.815
25231W        W97656  25.075  15.197  12.052
25232W        W97657  20.745  35.939  10.616
25233W        W97658   4.932  34.530  14.781
25234W        W97659  42.887  38.557  14.397
25235W        W97660  29.158  36.431  13.940
25236W        W97661  28.077   0.858  14.009
25237W        W97662   8.685  36.499  11.998
25238W        W97663   3.392  17.294  13.880
25239W        W97664   1.869  23.605   1.760
25240W        W97665   2.822   5.774   4.211
25241W        W97666  30.988  24.510   3.856
25242W        W97667  21.649  10.328   2.882
25243W        W97668   8.362  27.153  11.941
25244W        W97669  36.878   2.913   2.276
25245W        W97670  32.924  39.036   2.352
25246W        W97671  31.911  36.365  12.038
25247W        W97672   6.777  27.594   4.155
25248W        W97673  42.943   4.941  13.821
25249W        W97674  35.504  15.781  10.945
25250W        W97675  13.171   6.304   3.795
25251W        W97676   2.775  28.962   0.416
25252W        W97677  36.356   1.801  11.474
25253W        W97678  28.184   2.787  14.399
25254W        W97679  15.675   9.170   4.752
25255W        W97680   2.884  41.787   2.780
25256W        W97681  24.662   4.818  12.879
25257W        W97682  24.651  31.543  10.961
25258W        W97683  23.139  27.961  11.970
25259W        W97684  33.874  23.607  14.338
25260W        W97685  21.562  29.579   3.856
25261W        W97686  34.376   0.915   0.797
25262W        W97687  10.639   6.262   5.106
25263W        W97688  15.155   5.404   4.199
25264W        W97689  44.297  25.660  13.399
25265W        W97690   0.373   4.414  14.969
25266W        W97691   6.203   9.741  13.010
25267W        W97692   6.323  16.609  13.478
25268W        W97693   1.945  37.401  13.064
25269W        W97694  23.034  13.608   1.327
25270W        W97695  14.301  20.609   0.349
25271W        W97696   2.894  30.429   1.813
25272W        W97697  39.457  13.795   1.822
25273W        W97698  23.079  11.223   4.666
25274W        W97699  28.044  32.627  12.419
25275W        W97700  30.946   4.874   0.848
25276W        W97701  13.336  41.954  13.437
25277W        W97702  34.063   9.745   4.831
25278W        W97703   7.735  34.117  14.277
25279W        W97704  38.069  22.547  14.016
25280W        W97705  33.438   0.278   2.234
25281W        W97706  32.122  27.546   4.213
25282W        W97707  27.508   0.349  14.888
25283W        W97708   6.338  34.016  11.096
25284W        W97709   0.891  27.187   3.331
25285W        W97710   3.363   5.419   3.185
25286W        W97711  17.160  27.099   2.887
25287W        W97712  34.093   2.463   1.260
25288W        W97713  19.226  21.182   2.348
25289W        W97714  42.340  31.114   3.368
25290W        W97715  33.380  34.391  14.508
25291W        W97716  13.345  26.613   2.841
25292W        W97717  42.477  26.177   0.874
25293W        W97718   7.405  32.556  14.507
25294W        W97719  34.425  44.848  12.899
25295W        W97720   3.217  24.110  12.399
25296W        W97721   6.375  40.402  11.594
25297W        W97722  32.012  36.861   1.759
25298W        W97723   7.183  13.685   2.740
25299W        W97724   5.253  28.505  12.525
25300W        W97725  33.091   1.968   4.801
25301W        W97726  31.630  10.322   9.997
25302W        W97727   9.277  16.744   3.697
25303W        W97728  40.000  21.223   2.790
25304W        W97729  33.596  18.187   5.771
25305W        W97730   0.748  17.630   2.722
25306W        W97731  36.002  22.554  13.529
25307W        W97732  26.543  33.460   2.359
25308W        W97733  23.169  30.156   4.247
25309W        W97734  44.904  28.462   2.345
25310W        W97735  18.232  43.394  12.383
25311W        W97736  36.074  38.388  12.844
25312W        W97737   9.815   0.358   3.149
25313W        W97738  36.080  33.989  14.292
25314W        W97739   8.828  23.143  13.411
25315W        W97740  43.467  27.038  10.993
25316W        W97741  28.146   9.878   0.751
25317W        W97742  27.676  33.933  14.881
25318W        W97743  38.517   5.420   0.823
25319W        W97744  27.033  26.188   2.255
25320W        W97745  42.516   3.835   2.339
25321W        W97746   5.411  41.917  13.838
25322W        W97747  19.775   6.679  10.967
25323W        W97748  41.329  25.513  11.087
25324W        W97749  15.636   6.196  12.859
25325W        W97750  44.482   8.663   0.832
25326W        W97751  40.376  42.935   4.219
25327W        W97752  42.512  38.470  12.940
25328W        W97753  11.716   2.321  11.442
25329W        W97754  39.411   6.315   0.438
25330W        W97755   2.956   4.337  14.913
25331W        W97756   4.422   1.743  13.862
25332W        W97757  30.062  33.907   4.830
25333W        W97758  21.680  37.456   4.717
25334W        W97759  36.586  11.847  14.441
25335W        W97760  44.295  32.564  14.311
25336W        W97761  38.866  13.204  10.621
25337W        W97762  36.437  25.473  12.396
25338W        W97763  37.538   0.823   4.725
25339W        W97764  26.016  37.868  11.462
25340W        W97765  35.089  25.651   0.413
25341W        W97766   0.751  24.592   4.666
25342W        W97767  39.469  39.465   3.379
25343W        W97768  30.140   0.294  13.056
25344W        W97769  12.302  17.685  11.550
25345W        W97770  12.773  12.253  12.437
25346W        W97771  15.276  25.525  10.437
25347W        W97772  16.578  43.346  14.937
25348W        W97773  35.374  38.875   3.642
25349W        W97774  42.994  11.359   0.381
25350W        W97775  32.015  29.491  13.542
25351W        W97776  35.598   5.348   2.357
25352W        W97777  44.922  23.542  13.446
25353W        W97778  40.397   0.779   2.243
25354W        W97779  25.612   7.250  12.968
25355W        W97780  42.942   9.363  12.929
25356W        W97781  15.587   2.356  11.063
25357W        W97782  19.708  11.367  12.476
25358W        W97783   9.230   8.293  14.028
25359W        W97784  18.656  44.866  10.636
25360W        W97785  16.237   8.832  14.938
25361W        W97786  44.873  14.656   4.674
25362W        W97787  37.464  28.459  14.970
25363W        W97788  29.513   7.741   2.316
25364W        W97789  33.488   0.257   0.753
25365W        W97790  30.516  37.937  10.538
25366W        W97791  21.140  24.724  12.942
25367W        W97792   0.878  24.027   3.864
25368W        W97793  41.383  21.154   1.800
25369W        W97794  19.628  35.047   2.801
25370W        W97795  33.457  16.085   4.351
25371W        W97796  15.171  37.344  13.016
25372W        W97797  32.455  14.191  11.950
25373W        W97798  15.583  25.204  12.500
25374W        W97799  44.816  31.417   4.637
25375W        W97800   0.397  40.884  13.423
25376W        W97801  29.664  22.066  14.419
25377W        W97802  15.758   0.784   5.686
25378W        W97803  10.282   0.450  13.816
25379W        W97804  31.461   2.385   1.761
25380W        W97805   2.795   4.785   1.887
25381W        W97806   0.955  29.165  10.140
25382W        W97807   5.805  39.903  12.855
25383W        W97808  44.754  12.285  11.948
25384W        W97809  42.311  20.562  12.896
25385W        W97810  24.702  40.305  11.457
25386W        W97811   0.766  25.153   1.370
25387W        W97812  41.983   5.377   2.344
25388W        W97813  37.372  29.626  12.488
25389W        W97814  12.330  11.832   0.430
25390W        W97815  40.318  11.690   3.839
25391W        W97816  23.991  24.201  13.862
25392W        W97817  24.083   8.892   2.814
25393W        W97818  11.193  10.345  13.467
25394W        W97819  33.972   4.284   2.362
25395W        W97820  15.251  41.836  14.878
25396W        W97821  34.876   1.251  14.472
25397W        W97822  36.036   3.890  14.352
25398W        W97823  33.560  17.235   0.360
25399W        W97824  35.491  10.352   4.807
25400W        W97825  17.651  43.787  14.764
25401W        W97826   0.851  20.195  10.557
25402W        W97827  16.085   4.250   4.264
25403W        W97828  44.357  38.874  10.550
25404W        W97829  21.244  34.428  12.083
25405W        W97830  36.069  18.128  10.898
25406W        W97831  24.607  36.015   2.300
25407W        W97832   9.367  35.041  10.542
25408W        W97833  22.740  39.863  10.448
25409W        W97834  15.279  14.239  12.377
25410W        W97835  17.215  33.507   1.694
25411W        W97836  38.978   0.260   0.879
25412W        W97837   8.872   6.314  14.420
25413W        W97838  42.872   0.885   0.852
25414W        W97839  33.878   2.865   4.237
25415W        W97840   3.806  29.175   3.157
25416W        W97841  14.746   6.786  13.357
25417W        W97842  24.017  12.177  10.445
25418W        W97843  37.525   7.318  11.489
25419W        W97844  11.264  36.874  10.465
25420W        W97845   2.393  36.581  11.509
25421W        W97846  14.809  19.087   4.196
25422W        W97847  42.843  33.080  11.416
25423W        W97848  36.062  23.217   1.902
25424W        W97849   1.744  24.719  10.533
25425W        W97850  10.369  11.318   1.356
25426W        W97851  39.554  11.687   4.251
25427W        W97852  37.476   0.820   2.688
25428W        W97853  35.862  16.154  12.367
25429W        W97854  37.868  26.674  12.000
25430W        W97855  39.023  25.014   2.848
25431W        W97856   3.845  26.500  12.460
25432W        W97857  19.545  29.088  12.573
25433W        W97858  21.530  34.930   3.745
25434W        W97859  29.087  23.230  11.481
25435W        W97860  26.594  39.020   2.227
25436W        W97861  27.187  10.839   2.706
25437W        W97862   8.176   4.345   4.262
25438W        W97863   1.786   4.392   3.797
25439W        W97864  38.954  34.009  11.952
25440W        W97865  19.741  44.905   0.885
25441W        W97866   3.342   4.913   3.720
25442W        W97867  23.502  16.643   0.942
25443W        W97868  13.631   2.776   3.630
25444W        W97869  21.542  21.635   1.828
25445W        W97870   1.797  42.311   2.668
25446W        W97871  18.294  22.046   0.811
25447W        W97872  13.276  36.954  11.076
25448W        W97873  14.831  24.192   0.878
25449W        W97874   7.694  23.996  13.889
25450W        W97875  31.151  35.031   4.236
25451W        W97876  34.888  10.270  13.376
25452W        W97877  25.541  12.690   0.884
25453W        W97878  36.870  26.131   4.738
25454W        W97879   2.831  25.095  11.484
25455W        W97880  43.344  20.153  10.958
25456W        W97881  37.969   9.742  12.086
25457W        W97882  25.994  35.061  14.360
25458W        W97883  19.544  22.671   4.280
25459W        W97884  19.084  20.060  12.509
25460W        W97885   3.837  20.048   2.253
25461W        W97886  15.218  31.639   1.862
25462W        W97887  21.030  43.502  11.007
25463W        W97888  19.761  36.029   4.754
25464W        W97889  31.969  29.500  14.371
25465W        W97890   4.802  32.001  11.872
25466W        W97891  25.029   4.818  12.966
25467W        W97892  41.964  24.994  14.975
25468W        W97893  33.450  42.340   2.765
25469W        W97894   9.852  44.887   2.859
25470W        W97895   6.358  14.771  12.512
25471W        W97896  38.933  23.186  12.915
25472W        W97897  17.247   5.220  11.451
25473W        W97898   6.909   6.774   2.357
25474W        W97899   0.924  12.255  13.835
25475W        W97900  18.116  42.009  12.454
25476W        W97901  17.607  29.499  12.560
25477W        W97902   6.784   6.202   1.864
25478W        W97903  10.370   7.321  13.498
25479W        W97904  41.291   7.718  13.401
25480W        W97905   5.855   1.968  10.983
25481W        W97906   1.262  13.706  13.890
25482W        W97907   6.721  32.952  13.315
25483W        W97908  37.571  44.421   4.184
25484W        W97909   1.389   3.279   3.152
25485W        W97910  10.757  41.342  13.426
25486W        W97911  29.957   6.407   1.853
25487W        W97912  28.522  13.313   3.283
25488W        W97913  15.605  24.671   0.919
25489W        W97914  11.638   2.873  12.450
25490W        W97915  23.502   9.351   1.252
25491W        W97916  16.188   4.740  11.049
25492W        W97917   5.253   2.767  14.807
25493W        W97918  43.401  25.666  14.282
25494W        W97919  31.422  25.469   3.155
25495W        W97920  41.024  17.705  10.555
25496W        W97921  27.090  34.474   4.253
25497W        W97922  18.231  29.618  13.403
25498W        W97923   4.428  41.514   3.783
25499W        W97924  43.375   1.279   1.361
25500W        W97925  41.334  16.169  14.306
25501W        W97926  14.312   5.829   2.255
25502W        W97927  44.452  31.093  10.628
25503W        W97928   8.248  15.723   2.855
25504W        W97929  26.978  26.529  11.912
25505W        W97930  30.051  27.581   2.296
25506W        W97931  41.932  25.476  13.442
25507W        W97932  26.544  18.766   3.195
25508W        W97933  12.771  41.948   0.764
25509W        W97934  40.868  23.563  13.876
25510W        W97935   0.308  16.602  11.892
25511W        W97936  29.659   8.852   3.839
25512W        W97937   3.403  19.777  12.478
25513W        W97938  34.103  11.799  14.881
25514W        W97939  26.669  15.205   1.850
25515W        W97940  19.734  30.126  11.459
25516W        W97941  35.537  44.810   1.710
25517W        W97942  27.621  16.714   2.301
25518W        W97943   9.354  18.162  12.379
25519W        W97944  26.531  14.698   3.679
25520W        W97945  26.187  11.821   0.923
25521W        W97946  17.720  29.523   3.344
25522W        W97947  34.599  29.466   3.295
25523W        W97948  13.154  34.378   1.234
25524W        W97949  15.752   4.785  10.417
25525W        W97950  11.654  10.817  14.493
25526W        W97951  29.953  35.471  11.417
25527W        W97952  21.735  28.140   3.655
25528W        W97953   2.390  15.303   3.727
25529W        W97954   7.694  32.938  10.602
25530W        W97955   1.791   2.436   4.654
25531W        W97956  40.893   4.428   0.257
25532W        W97957   0.899  29.971   3.686
25533W        W97958  41.000   7.740   2.769
25534W        W97959  13.256  31.436  10.963
25535W        W97960  12.270  30.429   4.239
25536W        W97961   3.248  30.640   2.873
25537W        W97962  36.985  32.412  11.517
25538W        W97963  31.055  36.848   4.225
25539W        W97964   4.872  15.610  12.872
25540W        W97965  23.066  11.799   3.330
25541W        W97966  11.637  17.264   2.279
25542W        W97967  32.517  38.329   3.774
25543W        W97968  24.025  39.060   5.312
25544W        W97969  24.061  21.024   2.378
25545W        W97970   1.276  32.997  12.369
25546W        W97971  40.417  29.624  10.953
25547W        W97972  29.556   2.767  10.412
25548W        W97973  25.160   1.792   1.248
25549W        W97974  28.496   1.379   0.454
25550W        W97975  38.519  26.490   3.387
25551W        W97976  33.073  16.789  14.851
25552W        W97977  18.262  20.644   0.934
25553W        W97978  37.454  34.473  10.922
25554W        W97979   8.206  12.326   2.410
25555W        W97980  34.474  29.975   3.759
25556W        W97981  20.069  10.798   0.252
25557W        W97982   3.360  18.718   4.692
25558W        W97983  17.127  22.658   4.733
25559W        W97984  25.648   9.692  13.335
25560W        W97985  44.862  20.098   1.424
25561W        W97986   4.318   3.316   2.901
25562W        W97987  15.229  42.413   4.288
25563W        W97988   3.297  21.740   3.820
25564W        W97989  18.624   2.942  12.491
25565W        W97990  30.000  35.906   3.782
25566W        W97991   6.892   7.707   3.216
25567W        W97992  38.372  12.732  13.809
25568W        W97993  25.032  25.052   1.881
25569W        W97994   7.873  26.115   3.715
25570W        W97995  43.464  26.586   2.752
25571W        W97996  43.781  22.126   1.233
25572W        W97997   2.274  14.637  12.520
25573W        W97998  30.500  13.109  12.340
25574W        W97999  34.422  37.080   3.822
25575W        W98000  30.924   9.178  14.809
25576W        W98001   8.249  33.085   0.875
25577W        W98002   9.394  26.997  13.440
25578W        W98003  11.781  22.234  10.142
25579W        W98004  31.577   5.433   0.860
25580W        W98005  20.594   6.786   1.913
25581W        W98006   7.668   8.749   0.332
25582W        W98007  40.400  26.042  14.366
25583W        W98008  38.511  28.099  12.885
25584W        W98009  15.252  25.561   3.292
25585W        W98010  19.750  37.001   3.728
25586W        W98011  32.985   0.488  13.968
25587W        W98012  23.615  10.742   3.774
25588W        W98013  36.521  39.052   4.613
25589W        W98014  27.993  15.735  11.561
25590W        W98015  44.400  39.487   0.272
25591W        W98016  37.418   1.821  13.014
25592W        W98017  24.523   2.769  12.372
25593W        W98018   0.936  41.448   2.879
25594W        W98019  43.827  13.117  14.867
25595W        W98020   2.430  39.850   3.334
25596W        W98021  23.569   6.421  14.280
25597W        W98022  41.461  23.145  14.429
25598W        W98023  20.550  24.044  14.428
25599W        W98024  12.318  21.256  10.979
25600W        W98025   2.427  23.633  14.853
25601W        W98026  13.786   1.811  13.921
25602W        W98027  11.660  44.798   4.207
25603W        W98028  11.197   6.754   9.964
25604W        W98029   7.786  12.355  11.112
25605W        W98030   9.165  42.441  14.396
25606W        W98031  43.372  11.794   0.875
25607W        W98032   5.757  39.840   2.885
25608W        W98033   8.673  19.545  14.886
25609W        W98034  25.479  14.267   3.693
25610W        W98035  33.528  34.543   1.771
25611W        W98036   6.321  20.542  11.128
25612W        W98037  30.079  19.042  13.382
25613W        W98038  10.223  17.563   3.770
25614W        W98039  34.496  42.448   3.754
25615W        W98040  21.584  31.011  14.959
25616W        W98041  41.325  17.263   3.843
25617W        W98042  29.551  39.838  11.899
25618W        W98043  26.204   7.669  10.944
25619W        W98044   1.457  17.117  14.290
25620W        W98045   4.242  31.925  10.485
25621W        W98046  24.001  38.486  10.589
25622W        W98047  27.962  23.989   5.176
25623W        W98048   4.305  22.500   3.650
25624W        W98049   9.653  31.133   2.244
25625W        W98050  19.628   7.277  14.408
25626W        W98051  27.978   9.868  14.350
25627W        W98052   6.782  44.393  14.280
25628W        W98053  25.480  36.897   4.787
25629W        W98054   7.750  13.694   3.795
25630W        W98055  42.845  28.654   1.221
25631W        W98056  23.587  27.006   1.915
25632W        W98057  15.153   5.890  14.329
25633W        W98058  16.282  26.488  12.345
25634W        W98059  40.543  42.497   5.662
25635W        W98060  13.159  13.276   1.380
25636W        W98061  14.324  13.612   0.857
25637W        W98062  10.322  11.317   3.857
25638W        W98063  25.060  41.298   4.340
25639W        W98064  10.783  37.846   0.375
25640W        W98065  14.770  26.680  10.080
25641W        W98066   5.413  27.653  10.971
25642W        W98067  11.336  44.782  11.488
25643W        W98068  35.993  23.489  14.477
25644W        W98069  12.306  11.133  13.825
25645W        W98070  10.360  32.917  12.850
25646W        W98071  26.080  36.991   1.425
25647W        W98072   9.307  30.934  14.003
25648W        W98073  26.188  31.917   3.647
25649W        W98074   4.321   3.848  12.551
25650W        W98075  10.695   6.914   3.871
25651W        W98076  39.956   2.302   4.599
25652W        W98077  15.644  27.163   2.864
25653W        W98078  18.699  33.951   2.215
25654W        W98079  30.528  43.341  10.934
25655W        W98080   0.772   7.820  13.485
25656W        W98081  19.628  35.434   3.791
25657W        W98082  16.627   0.322  14.365
25658W        W98083  40.026  32.969   2.685
25659W        W98084  31.073  16.296   9.671
25660W        W98085  32.098  40.834   3.159
25661W        W98086  18.779  19.154  11.409
25662W        W98087  42.932  34.095  14.423
25663W        W98088   4.942  18.727   1.792
25664W        W98089  15.143  41.817   2.880
25665W        W98090   0.809  43.849   4.632
25666W        W98091   8.357  13.190   1.825
25667W        W98092  36.429  28.167   5.087
25668W        W98093   8.323  21.254  13.507
25669W        W98094  43.813  39.391   2.770
25670W        W98095  33.547   7.821  11.459
25671W        W98096  31.515  37.398   0.370
25672W        W98097   4.883  42.884   3.285
25673W        W98098   3.417  41.795  13.428
25674W        W98099  14.160  28.136  12.563
25675W        W98100  15.814   3.720  11.514
25676W        W98101  26.624  38.918  12.979
25677W        W98102  31.974  28.506   0.767
25678W        W98103  39.530   1.973  10.477
25679W        W98104  21.173  38.837  14.343
25680W        W98105  17.732  38.927   1.345
25681W        W98106  11.253   9.781   3.654
25682W        W98107   9.225  25.127  14.888
25683W        W98108  11.710  35.861   3.642
25684W        W98109  38.415  18.231  11.567
25685W        W98110  27.498  18.284  13.823
25686W        W98111   8.327  20.624   2.679
25687W        W98112   6.273  10.222   0.432
25688W        W98113   6.749  27.111  14.514
25689W        W98114   2.869   4.306   2.757
25690W        W98115  36.046   5.721  13.487
25691W        W98116  23.038   4.387   1.792
25692W        W98117  12.703  13.110   0.776
25693W        W98118  36.935  23.156   0.420
25694W        W98119  26.983   5.235  14.032
25695W        W98120  37.414  22.236   1.355
25696W        W98121  43.483  41.909   4.181
25697W        W98122  29.066  20.561  11.032
25698W        W98123  17.142  31.581  13.408
25699W        W98124  15.183  37.518   0.294
25700W        W98125  18.057  10.719  13.813
25701W        W98126   5.828  35.358   4.149
25702W        W98127  30.551  43.982   0.479
25703W        W98128  22.520  42.368  10.473
25704W        W98129  35.068  16.712   0.797
25705W        W98130  17.610   1.839   9.979
25706W        W98131  11.222  42.396   4.715
25707W        W98132   1.887  32.618   2.762
25708W        W98133  32.481  24.180   3.313
25709W        W98134  30.472   4.224   0.436
25710W        W98135  41.002  10.742   0.263
25711W        W98136  25.672   2.842  12.065
25712W        W98137  40.054  41.933  10.543
25713W        W98138  30.964  42.454  10.512
25714W        W98139  14.268   1.478   1.309
25715W        W98140  10.638  33.040  14.307
25716W        W98141  22.210  10.217  14.351
25717W        W98142  38.020   1.732  11.561
25718W        W98143  21.250   5.424  12.033
25719W        W98144   4.255  13.668   0.737
25720W        W98145   9.849  14.728  11.514
25721W        W98146  13.182  24.511   1.405
25722W        W98147  34.436   6.219   1.865
25723W        W98148  44.420  31.483  10.500
25724W        W98149  43.910  44.259  11.534
25725W        W98150   0.465  36.401   2.373
25726W        W98151  11.716  39.359   3.649
25727W        W98152  26.121  12.345  12.019
25728W        W98153   3.926  12.634   3.187
25729W        W98154  18.755   4.863   3.669
25730W        W98155  26.133  39.950  12.971
25731W        W98156   6.752   8.881   4.151
25732W        W98157   4.841  14.589   2.856
25733W        W98158  38.852  32.495   2.308
25734W        W98159  37.537  42.324  13.487
25735W        W98160  25.649   2.790   1.294
25736W        W98161   3.956  34.073   3.281
25737W        W98162   8.673  31.498  14.408
25738W        W98163   4.373  37.429  13.366
25739W        W98164  35.968  35.437   2.313
25740W        W98165   8.741  29.098  11.101
25741W        W98166  33.432  12.258   1.403
25742W        W98167   5.275  15.799   2.821
25743W        W98168   5.418  23.696  11.011
25744W        W98169  30.565   4.887   4.153
25745W        W98170  31.998   4.346  11.898
25746W        W98171  24.650  31.986  14.438
25747W        W98172   9.304  20.115   1.332
25748W        W98173   4.274  38.401   2.327
25749W        W98174  29.091  30.612   2.417
25750W        W98175   9.173  10.691   1.369
25751W        W98176  11.803  34.044  12.531
25752W        W98177  33.122  44.007  13.310
25753W        W98178   1.240  41.878   2.721
25754W        W98179  22.105  34.117  12.924
25755W        W98180  44.468  16.313  14.811
25756W        W98181  10.162  39.379   3.790
25757W        W98182  37.377   1.892  14.320
25758W        W98183  32.633  36.993   2.187
25759W        W98184  24.506  17.162  12.529
25760W        W98185   5.853  40.804   3.325
25761W        W98186  11.304  44.295   4.818
25762W        W98187  21.628  16.806   0.256
25763W        W98188  16.282  18.680   0.353
25764W        W98189  18.054  16.271   0.787
25765W        W98190   9.156   8.249   0.448
25766W        W98191  37.375  35.046  11.535
25767W        W98192  12.696  26.205   1.875
25768W        W98193  29.473   2.227   3.306
25769W        W98194  31.927  38.513  10.415
25770W        W98195  26.674  24.549  10.577
25771W        W98196  42.294  10.695   2.779
25772W        W98197  12.123  29.437  10.597
25773W        W98198  34.997  43.797  11.605
25774W        W98199   6.198  11.699  11.089
25775W        W98200  16.085  44.324   2.790
25776W        W98201  14.213  24.133   5.235
25777W        W98202  21.258  37.398  14.301
25778W        W98203  42.435  26.096  11.381
25779W        W98204  15.129  15.764   0.330
25780W        W98205   6.682  34.900  11.890
25781W        W98206  23.074  26.659  11.073
25782W        W98207  25.051   6.356  12.396
25783W        W98208  33.448  41.469  10.133
25784W        W98209  41.918  16.311   1.337
25785W        W98210   4.408  28.179   1.335
25786W        W98211  17.100  27.987   0.896
25787W        W98212  12.220  33.530   2.872
25788W        W98213  13.824  22.157  10.939
25789W        W98214   3.303  24.206   1.883
25790W        W98215  32.543  19.121  11.448
25791W        W98216  25.672  26.059   3.843
25792W        W98217   0.791   0.448  10.976
25793W        W98218   9.810  41.406  11.963
25794W        W98219  42.452   3.308  10.995
25795W        W98220  29.135  38.836   1.851
25796W        W98221  44.980  38.386  13.988
25797W        W98222  29.170   2.400   1.288
25798W        W98223  31.006   3.355   2.836
25799W        W98224  38.459  11.341   0.740
25800W        W98225  37.559  13.726  14.298
25801W        W98226  31.903  25.636   3.175
25802W        W98227  10.355  42.388   3.189
25803W        W98228  31.947  30.566  11.571
25804W        W98229  23.046  36.077  13.920
25805W        W98230  18.212  19.099   1.807
25806W        W98231  37.555  20.535   3.381
25807W        W98232  36.953  10.791   1.747
25808W        W98233  26.070  22.668  11.018
25809W        W98234  32.136   7.750  13.833
25810W        W98235  27.966  15.609   2.680
25811W        W98236  37.459  21.665   2.183
25812W        W98237  36.850  23.650  10.056
25813W        W98238  25.584  17.606   1.448
25814W        W98239  10.740   1.429   3.681
25815W        W98240  27.539  11.366   4.132
25816W        W98241  14.241  10.836   3.368
25817W        W98242  18.272  17.737   1.847
25818W        W98243  21.027   8.320  13.528
25819W        W98244  30.442  35.886   0.468
25820W        W98245  38.936   4.228  11.991
25821W        W98246  35.888   7.248  13.438
25822W        W98247  40.873  23.160   1.874
25823W        W98248   6.330  31.460  14.502
25824W        W98249  25.634  10.843   3.689
25825W        W98250  13.272  23.075   0.473
25826W        W98251  15.249  19.601  14.771
25827W        W98252  20.596  37.054   0.246
25828W        W98253   8.851  37.561  12.824
25829W        W98254  19.638   0.889  11.032
25830W        W98255  23.683  23.087   1.845
25831W        W98256  10.340  43.923  12.875
25832W        W98257  16.299  11.162   2.703
25833W        W98258  17.221   4.776  13.505
25834W        W98259   8.171  16.237   2.310
25835W        W98260  37.030  30.577  14.345
25836W        W98261  23.240  40.900   3.666
25837W        W98262  43.288  39.388   0.907
25838W        W98263  20.536   7.743   1.783
25839W        W98264  25.044  27.197  12.568
25840W        W98265  20.683  14.198  12.542
25841W        W98266  36.580  26.529   5.264
25842W        W98267  24.069  25.611  12.998
25843W        W98268  37.842  38.871  12.848
25844W        W98269  41.478  30.970  10.526
25845W        W98270  33.526   9.346  13.815
25846W        W98271  22.205  16.636  10.454
25847W        W98272  42.895   5.746  14.285
25848W        W98273   0.797  44.789   4.221
25849W        W98274  13.844  30.454  14.948
25850W        W98275   7.195  25.136  14.297
25851W        W98276  31.081  16.139  11.937
25852W        W98277  30.112  21.099  14.456
25853W        W98278  32.461  22.543  11.865
25854W        W98279  34.925  22.107  13.011
25855W        W98280  43.918  11.342  13.405
25856W        W98281  19.171  39.951  12.085
25857W        W98282  27.627  31.568  14.019
25858W        W98283  25.631  43.299   1.428
25859W        W98284  39.936   2.288   2.791
25860W        W98285  29.123  11.828  11.989
25861W        W98286   6.183   4.815  11.547
25862W        W98287  35.568  27.606   2.321
25863W        W98288  14.595  23.029  13.357
25864W        W98289  21.653   0.985  13.536
25865W        W98290  40.009  31.539   0.934
25866W        W98291   7.376   6.915  12.002
25867W        W98292  14.761  41.504   1.223
25868W        W98293  10.216   2.342  12.570
25869W        W98294  31.101   2.426  11.091
25870W        W98295  32.084  41.786  13.020
25871W        W98296  23.220   1.479   1.278
25872W        W98297  20.238  18.200   3.187
25873W        W98298  22.195  40.826   4.298
25874W        W98299  35.526  30.163  11.575
25875W        W98300   9.247  38.975   4.322
25876W        W98301  29.041  35.872   4.819
25877W        W98302  44.264  23.639   1.412
25878W        W98303   6.861  44.994   0.884
25879W        W98304   9.160  31.947   3.226
25880W        W98305  12.286   8.888  14.911
25881W        W98306  23.667  20.224  13.397
25882W        W98307  11.808  22.208   0.840
25883W        W98308  34.959  33.953  12.867
25884W        W98309  39.555  44.927   5.655
25885W        W98310  27.078  28.677  12.441
25886W        W98311  22.529  16.609  14.836
25887W        W98312  31.553  43.308   0.833
25888W        W98313  27.126  33.616   5.269
25889W        W98314  21.688  35.465  10.917
25890W        W98315  21.701  22.662  13.032
25891W        W98316  19.253  19.140  14.007
25892W        W98317  41.036  25.574   2.806
25893W        W98318  25.537  36.563  12.413
25894W        W98319  20.107  26.498   4.738
25895W        W98320  29.126  34.444   3.248
25896W        W98321   0.822   6.196   5.164
25897W        W98322  10.788  34.043   3.657
25898W        W98323  16.591   5.243  11.376
25899W        W98324   2.844  24.059  10.939
25900W        W98325  19.149  22.235  13.309
25901W        W98326  21.643  30.927  11.393
25902W        W98327   3.382  39.011   5.210
25903W        W98328   2.892  34.474   4.160
25904W        W98329  41.374  18.775   4.161
25905W        W98330  29.538  34.604   2.731
25906W        W98331  24.038  35.438  12.569
25907W        W98332  22.168  15.260  13.432
25908W        W98333   7.175  13.117  12.542
25909W        W98334   1.240  33.936  13.498
25910W        W98335  12.154  16.286  12.408
25911W        W98336  23.580  19.204   1.831
25912W        W98337   1.265   6.733   0.299
25913W        W98338  42.401  26.687  13.905
25914W        W98339  34.067  31.154   3.159
25915W        W98340  30.544  21.541   4.250
25916W        W98341  33.990   0.757   3.285
25917W        W98342   1.871   0.958  12.028
25918W        W98343  11.345  20.126   3.714
25919W        W98344  34.556  34.989  14.785
25920W        W98345  41.832  16.613  11.912
25921W        W98346  14.632  44.880  13.899
25922W        W98347  11.749  35.101   1.934
25923W        W98348  31.581  35.595  12.071
25924W        W98349  23.184  23.712  14.870
25925W        W98350   7.742  30.105   4.735
25926W        W98351  44.490  29.657  12.424
25927W        W98352  36.976  42.411   1.404
25928W        W98353  21.686  18.185   4.798
25929W        W98354  37.883  17.696  12.539
25930W        W98355  26.517  34.921   0.875
25931W        W98356  31.571   2.227  12.869
25932W        W98357  12.809  13.294  13.038
25933W        W98358   3.809  13.285  14.998
25934W        W98359  31.557  27.664  10.556
25935W        W98360  29.582  32.084  13.331
25936W        W98361  10.220  33.397  13.522
25937W        W98362  32.535   4.307   0.310
25938W        W98363  16.098  20.541  14.960
25939W        W98364  34.444  30.014  12.067
25940W        W98365  43.320  10.318   0.860
25941W        W98366  27.578  26.581   4.113
25942W        W98367  29.075  20.116   2.225
25943W        W98368  34.608   4.743   4.727
25944W        W98369  13.302  19.272  14.892
25945W        W98370  32.095  37.417   4.157
25946W        W98371  17.224   5.199   4.663
25947W        W98372   1.839   7.214  11.407
25948W        W98373  32.534  24.628   1.416
25949W        W98374  21.637   7.359  14.025
25950W        W98375  40.382  23.209   0.860
25951W        W98376  14.731  14.774  14.426
25952W        W98377  27.682  24.569  10.927
25953W        W98378  44.906  40.818   3.780
25954W        W98379  39.531   4.937   0.961
25955W        W98380  21.714  44.347   3.849
25956W        W98381   0.371  31.543  12.387
25957W        W98382   7.713  42.399  11.438
25958W        W98383   9.740   7.238  11.032
25959W        W98384  11.209  27.192   3.751
25960W        W98385  11.208  31.608  13.980
25961W        W98386  18.615  29.946  11.115
25962W        W98387   3.712  25.553  11.528
25963W        W98388   3.355  16.758  14.394
25964W        W98389  19.177   7.217   1.928
25965W        W98390  39.445  23.495  13.416
25966W        W98391  30.608   4.273  13.374
25967W        W98392  35.425  42.331   0.253
25968W        W98393  25.683  13.111   3.792
25969W        W98394  24.991  38.834  14.929
25970W        W98395  26.631  34.955   1.764
25971W        W98396  26.067  20.252  11.003
25972W        W98397   4.708  19.594   2.307
25973W        W98398  32.130  37.989  11.610
25974W        W98399  23.630  32.074  11.558
25975W        W98400  28.075  27.973  13.334
25976W        W98401  39.553  16.639   4.727
25977W        W98402  38.367  21.232   2.846
25978W        W98403  31.022  10.235  14.977
25979W        W98404  44.378  35.047   2.786
25980W        W98405  28.455   4.791  14.488
25981W        W98406  31.991  23.199  10.591
25982W        W98407  13.117  22.018  12.992
25983W        W98408  20.203  23.502   1.720
25984W        W98409  36.848  38.058   0.324
25985W        W98410   1.300   3.785  10.408
25986W        W98411  16.193  35.924  13.810
25987W        W98412  38.528  44.483   9.613
25988W        W98413  23.632  25.546   0.256
25989W        W98414  38.942  43.897   1.810
25990W        W98415   8.363   3.717  11.927
25991W        W98416   1.321  16.764  10.988
25992W        W98417  30.620  20.623   3.230
25993W        W98418   4.240  10.697   1.434
25994W        W98419  24.599  36.075  13.368
25995W        W98420  32.594  22.069  13.886
25996W        W98421  35.091   7.241  10.992
25997W        W98422  22.623  19.600   0.408
25998W        W98423  27.191   7.368  11.436
25999W        W98424  27.965  26.652  12.842
26000W        W98425  32.590  14.693  12.347
26001W        W98426  27.012   8.820  13.959
26002W        W98427  40.463   7.821  13.436
26003W        W98428  41.812  42.911   1.320
26004W        W98429  37.373  29.045  10.016
26005W        W98430  43.270  42.343  11.411
26006W        W98431  17.264  43.440   2.288
26007W        W98432  44.870  25.703   2.805
26008W        W98433  40.387  21.636   0.848
26009W        W98434  25.653  40.990  11.126
26010W        W98435   9.207  42.293   0.776
26011W        W98436  16.102  13.637   0.757
26012W        W98437  37.833  27.488   2.231
26013W        W98438   5.369  44.443   3.206
26014W        W98439  41.446   2.777  12.046
26015W        W98440  35.511  44.491   0.440
26016W        W98441  22.661   3.765  10.530
26017W        W98442   2.936  37.005  11.110
26018W        W98443  35.387  18.791  14.416
26019W        W98444   6.344  39.548  10.602
26020W        W98445  11.744  36.993   3.761
26021W        W98446   1.308   8.379   4.135
26022W        W98447  44.379  28.550   1.276
26023W        W98448  22.246  40.995  10.537
26024W        W98449  38.499  13.300   0.473
26025W        W98450  11.211  37.880  14.882
26026W        W98451  12.297   0.935   0.347
26027W        W98452  29.000   4.288   2.360
26028W        W98453   6.317  12.166   3.227
26029W        W98454  26.177  33.034  11.428
26030W        W98455  31.062  40.394  14.789
26031W        W98456   0.408  34.892   1.354
26032W        W98457   6.748  37.964  11.018
26033W        W98458   1.469  41.418  12.363
26034W        W98459  36.988  38.877  11.517
26035W        W98460   7.871  42.969  11.995
26036W        W98461  36.895   2.275   2.856
26037W        W98462  26.700   9.316  13.548
26038W        W98463  26.015  15.100  10.990
26039W        W98464  37.855  36.362  10.498
26040W        W98465  40.951   3.792   3.769
26041W        W98466  32.447  16.146  10.053
26042W        W98467  42.422  10.756  12.012
26043W        W98468  44.377  23.988   1.847
26044W        W98469  40.858  15.772  11.553
26045W        W98470  10.150  28.476  11.581
26046W        W98471   7.835  37.860   0.358
26047W        W98472  19.631  24.634  11.085
26048W        W98473  13.748  26.666  13.536
26049W        W98474   6.871  31.976  14.978
26050W        W98475  15.805  21.020   4.799
26051W        W98476  43.866  26.127   0.817
26052W        W98477  37.916  15.640  14.361
26053W        W98478   5.212   5.319  14.856
26054W        W98479   8.212  36.074   3.662
26055W        W98480  38.502  40.033  10.476
26056W        W98481   8.707  20.051   3.819
26057W        W98482  37.338  21.148  13.383
26058W        W98483  25.169  41.482   1.421
26059W        W98484  39.451  37.453   4.268
26060W        W98485  10.205   9.793  10.633
26061W        W98486  10.840   4.840   3.291
26062W        W98487  15.202   9.853   2.310
26063W        W98488   8.704  42.285  10.459
26064W        W98489  42.336   1.354  14.021
26065W        W98490  23.998  13.237  13.537
26066W        W98491  27.668  28.177  10.889
26067W        W98492  18.180  31.004   0.963
26068W        W98493   8.392  17.627  14.995
26069W        W98494  19.061   3.340  14.940
26070W        W98495  38.492  33.596   4.296
26071W        W98496  15.656  12.239  11.528
26072W        W98497  26.108  40.437  12.464
26073W        W98498  37.894  44.334  11.110
26074W        W98499  23.708   7.669  14.961
26075W        W98500  35.393  38.389  12.383
26076W        W98501  38.029  44.363   2.682
26077W        W98502  12.124  16.757   3.305
26078W        W98503   8.756  35.376   5.175
26079W        W98504   3.327  23.119   2.837
26080W        W98505   2.846   3.243  14.366
26081W        W98506  29.152   1.767  10.978
26082W        W98507  40.929  26.639  13.000
26083W        W98508  24.574   8.341  11.452
26084W        W98509  36.044  35.083   0.914
26085W        W98510  40.824  36.842  12.014
26086W        W98511  41.793   1.740  14.316
26087W        W98512  17.264  36.465   2.306
26088W        W98513  27.503  23.010  12.480
26089W        W98514  28.584   9.685  13.893
26090W        W98515  10.756  28.077  13.025
26091W        W98516   2.273  14.830   1.726
26092W        W98517  32.933   4.224   4.243
26093W        W98518  14.655  40.963   1.813
26094W        W98519  26.011  14.652  13.953
26095W        W98520  14.784  17.218  12.032
26096W        W98521   1.446  29.553  11.599
26097W        W98522   0.810  29.136  11.117
26098W        W98523   5.876  40.318   1.447
26099W        W98524  36.868  34.566   4.296
26100W        W98525  24.637  22.078   0.386
26101W        W98526  39.537   0.871  14.764
26102W        W98527   5.694  44.448   4.116
26103W        W98528  15.716  38.483  10.949
26104W        W98529  14.197  27.124  11.529
26105W        W98530  27.091  21.223  13.819
26106W        W98531   2.822   1.945  12.569
26107W        W98532  29.526  37.068  10.453
26108W        W98533  32.443  44.440   9.964
26109W        W98534  39.882  19.724  12.529
26110W        W98535  34.491   9.708  10.943
26111W        W98536  29.609  13.168  12.922
26112W        W98537   1.860  44.918   0.416
26113W        W98538  34.398   3.735  12.375
26114W        W98539   3.331  41.864   2.869
26115W        W98540  11.147  27.125  10.530
26116W        W98541  32.421   6.229  10.413
26117W        W98542  26.698  29.508  14.980
26118W        W98543   7.772  44.308  10.161
26119W        W98544   1.334  25.688   0.394
26120W        W98545  27.942  18.777   1.695
26121W        W98546   8.856   1.965   4.170
26122W        W98547  24.198  39.502   1.931
26123W        W98548   8.797  11.371   1.359
26124W        W98549  40.956   0.413   4.747
26125W        W98550  37.987  44.888  10.458
26126W        W98551  41.491   6.752  13.975
26127W        W98552  44.346  35.384   2.772
26128W        W98553  27.155  35.912   0.948
26129W        W98554  30.629  36.941   4.337
26130W        W98555  41.376  38.017   1.850
26131W        W98556  18.068  37.414   4.657
26132W        W98557  42.917  24.089  14.412
26133W        W98558   9.213   3.750  13.411
26134W        W98559  24.023  18.257   0.936
26135W        W98560   9.178   8.252  14.776
26136W        W98561  11.147   8.202  12.905
26137W        W98562  30.424  24.187  11.115
26138W        W98563  35.894  22.516   0.464
26139W        W98564  17.170  12.768   0.951
26140W        W98565  31.634  34.557   2.843
26141W        W98566   2.252  20.255  12.393
26142W        W98567   1.263  12.268  12.481
26143W        W98568  13.120   8.897  14.760
26144W        W98569  40.003  34.973   0.440
26145W        W98570  35.061  18.112   1.873
26146W        W98571   3.778  38.439  13.982
26147W        W98572  21.243   9.295  14.461
26148W        W98573   3.822   9.757  11.942
26149W        W98574   2.240  23.504   3.160
26150W        W98575   9.260  16.765  11.125
26151W        W98576  26.637  37.916   1.285
26152W        W98577  41.528   0.791  12.898
26153W        W98578   0.336  16.809  14.914
26154W        W98579  21.170  22.727   2.182
26155W        W98580  23.090  17.791  11.888
26156W        W98581  17.790  23.023  13.396
26157W        W98582   3.414   2.743   0.320
26158W        W98583  19.648  38.412  10.555
26159W        W98584  36.926   8.285  10.982
26160W        W98585  24.043  33.071   2.672
26161W        W98586  30.561  22.126   2.380
26162W        W98587  23.500  10.876  13.337
26163W        W98588   5.845  10.745   2.276
26164W        W98589  23.199  37.357  13.826
26165W        W98590  10.267  14.102  14.408
26166W        W98591  29.959  42.406   1.389
26167W        W98592   3.717  30.525   3.744
26168W        W98593   4.442  40.948   3.164
26169W        W98594  37.355  19.209   0.479
26170W        W98595   4.278  40.432  14.878
26171W        W98596   2.859   1.766   4.353
26172W        W98597  36.951  33.052  14.314
26173W        W98598  19.564   3.955  12.978
26174W        W98599  14.719  42.381  12.006
26175W        W98600  32.549  25.072   2.240
26176W        W98601  32.403  34.923  10.629
26177W        W98602  37.992  13.740   2.771
26178W        W98603  33.405  31.151   1.855
26179W        W98604   5.904   2.945  10.534
26180W        W98605  29.649  24.556   0.460
26181W        W98606  33.970  36.489  11.554
26182W        W98607  24.721   7.714   0.347
26183W        W98608  44.800  12.670   1.407
26184W        W98609  37.995  11.740  11.490
26185W        W98610  17.608  31.621  12.077
26186W        W98611  43.491  27.141  10.459
26187W        W98612  35.099  30.550   2.780
26188W        W98613  23.729  19.695  11.867
26189W        W98614  28.955   4.266  11.437
26190W        W98615  19.139   6.688  12.014
26191W        W98616  21.527  26.133  14.359
26192W        W98617  41.310   9.238  14.453
26193W        W98618   9.150  20.194   2.372
26194W        W98619  15.116   1.841   3.196
26195W        W98620  32.457   0.384  11.582
26196W        W98621  43.295  25.096  11.494
26197W        W98622  42.498  11.142   3.724
26198W        W98623  43.378  28.467   0.250
26199W        W98624   9.709  35.463   0.735
26200W        W98625  10.856   0.910   1.314
26201W        W98626  10.210  17.656   2.217
26202W        W98627  27.673  21.644  11.958
26203W        W98628  10.808  22.549   3.341
26204W        W98629   8.665   8.248   1.238
26205W        W98630  20.268  22.233  12.840
26206W        W98631  23.058  39.958   4.227
26207W        W98632   7.899   8.657   4.772
26208W        W98633   8.299  37.377   1.322
26209W        W98634  37.519  22.646   4.346
26210W        W98635  18.645  11.328  11.007
26211W        W98636  32.551   2.734  13.433
26212W        W98637   5.779  40.878  14.899
26213W        W98638  18.695  17.666  10.528
26214W        W98639  17.757  11.692  13.867
26215W        W98640  34.883  38.543   4.221
26216W        W98641  41.353  17.153   1.348
26217W        W98642  37.905  32.134  10.473
26218W        W98643  17.242  36.416   4.639
26219W        W98644  32.102  25.047   0.838
26220W        W98645  20.200   7.416  14.020
26221W        W98646  21.233   0.934   5.302
26222W        W98647  39.386  41.373   3.368
26223W        W98648  37.337  15.663  13.527
26224W        W98649   1.352  15.704   9.984
26225W        W98650  36.057  39.058  11.128
26226W        W98651  15.133  28.633   4.179
26227W        W98652   3.719  36.467   4.722
26228W        W98653   9.707  19.707  12.872
26229W        W98654  26.530  21.676   3.167
26230W        W98655  30.517  21.222  12.399
26231W        W98656  21.104  38.870   2.876
26232W        W98657  17.154  19.056   0.350
26233W        W98658  27.524  29.092   1.708
26234W        W98659  32.036  11.238  12.924
26235W        W98660   9.852   1.951   0.774
26236W        W98661  14.693  26.967   4.171
26237W        W98662  18.179  30.603   4.346
26238W        W98663  33.039  20.105   3.184
26239W        W98664  41.787  13.126  10.523
26240W        W98665   5.409  43.858  11.098
26241W        W98666  24.222  40.545  11.610
26242W        W98667  11.775  36.927   1.751
26243W        W98668  37.558  34.932   3.675
26244W        W98669   9.669  29.085   2.824
26245W        W98670  17.583   3.830  14.861
26246W        W98671  14.121  10.226  14.307
26247W        W98672   2.862  19.216   2.237
26248W        W98673  27.958   5.250  14.846
26249W        W98674  39.042  20.193   0.952
26250W        W98675  15.179   0.293   4.616
26251W        W98676  22.580  22.657   2.720
26252W        W98677  31.633   8.765   4.822
26253W        W98678  20.239  17.736  13.986
26254W        W98679  24.156  31.142   0.807
26255W        W98680  36.410  10.376   5.115
26256W        W98681   5.377  40.846  14.882
26257W        W98682   5.754  39.413   0.260
26258W        W98683   5.899  42.488   4.657
26259W        W98684  10.718  37.574  14.948
26260W        W98685  30.948  39.059   2.840
26261W        W98686   7.699  41.927   4.647
26262W        W98687   4.238  22.691   0.788
26263W        W98688  15.674  27.514   3.245
26264W        W98689   6.222  44.986   0.385
26265W        W98690  29.464  22.194   1.355
26266W        W98691  28.493  28.551  14.366
26267W        W98692  28.569   5.821  11.072
26268W        W98693  25.060   4.895   5.137
26269W        W98694  20.208  13.725  12.452
26270W        W98695  33.569  10.164   1.872
26271W        W98696  32.607  39.484   4.623
26272W        W98697  32.483  15.201  12.544
26273W        W98698  18.064   8.777  14.383
26274W        W98699  11.729  21.712   0.898
26275W        W98700  41.032   5.326  13.436
26276W        W98701  10.760  26.692  12.394
26277W        W98702  18.675  37.013  11.125
26278W        W98703  36.366  19.735  14.378
26279W        W98704  20.085  28.562   2.326
26280W        W98705  32.921  33.884  11.999
26281W        W98706   5.314  16.230   0.347
26282W        W98707  23.007  39.400   4.780
26283W        W98708   6.389  29.925   3.386
26284W        W98709  15.085  11.206  10.538
26285W        W98710  11.754   5.195   2.753
26286W        W98711  15.097  15.734   0.776
26287W        W98712  24.664  17.662   0.829
26288W        W98713  23.175  13.801   3.789
26289W        W98714  15.711   9.245   3.266
26290W        W98715  25.705  41.531  12.463
26291W        W98716  19.751   3.430  14.801
26292W        W98717  26.012  35.408   4.123
26293W        W98718   9.346   0.881  13.957
26294W        W98719   0.483   7.290   4.658
26295W        W98720  40.054  26.031  14.291
26296W        W98721   8.255  14.151  10.569
26297W        W98722  10.778  39.335  11.388
26298W        W98723  19.104  22.071  11.988
26299W        W98724  10.225  34.888   4.771
26300W        W98725  20.250  41.305  11.481
26301W        W98726  28.588  19.735   2.402
26302W        W98727  18.717  16.610  14.308
26303W        W98728  15.196  35.358   1.301
26304W        W98729   2.231  11.693   1.212
26305W        W98730  11.154  26.653  10.931
26306W        W98731  17.164  31.119   3.349
26307W        W98732  33.496  32.398  12.488
26308W        W98733   6.738   2.860  14.875
26309W        W98734   1.756  14.290   4.763
26310W        W98735  38.939  40.955  14.510
26311W        W98736  10.247  31.625   4.758
26312W        W98737  20.737  32.605  12.575
26313W        W98738  28.653  43.421   2.291
26314W        W98739  34.528  40.916   0.320
26315W        W98740  29.126  36.888   1.710
26316W        W98741   3.888   9.213   3.674
26317W        W98742  30.059   3.727  10.644
26318W        W98743  24.520  33.908  10.622
26319W        W98744  16.247  41.348  13.376
26320W        W98745  18.755  29.591   1.884
26321W        W98746  22.073   9.833   4.700
26322W        W98747  25.008  15.162   1.750
26323W        W98748  19.222  33.974   1.449
26324W        W98749   3.776  15.815  12.415
26325W        W98750   8.790   3.760  14.340
26326W        W98751  28.085  44.907  10.441
26327W        W98752  24.214  38.906   3.293
26328W        W98753  12.675  44.438  13.839
26329W        W98754  10.375  19.217   3.725
26330W        W98755  41.429  41.437   2.796
26331W        W98756  33.093  44.971   4.724
26332W        W98757  23.175  18.146  10.517
26333W        W98758  43.504  30.605   0.918
26334W        W98759  36.461  34.014  12.052
26335W        W98760  33.466  17.191  14.850
26336W        W98761  44.932   6.842  11.407
26337W        W98762  27.618  17.618  14.416
26338W        W98763  19.208  27.992   3.166
26339W        W98764  33.055  37.902   4.336
26340W        W98765  12.129  30.454  12.016
26341W        W98766  25.055  24.216   5.223
26342W        W98767  29.521  12.823   2.215
26343W        W98768   1.737   1.901  14.367
26344W        W98769  24.017   6.380  13.491
26345W        W98770  42.964  11.664  12.553
26346W        W98771   3.247  28.663  11.863
26347W        W98772   0.279  23.644   2.234
26348W        W98773  11.771  32.920  13.893
26349W        W98774  38.877   3.783  12.053
26350W        W98775  17.282  35.876  11.490
26351W        W98776   8.244  19.660   4.215
26352W        W98777  34.504  17.759  12.908
26353W        W98778   3.318  12.761  13.455
26354W        W98779  26.508  10.800   0.370
26355W        W98780   6.212  17.109   3.288
26356W        W98781  31.572  35.035   4.284
26357W        W98782  35.456  13.687   3.661
26358W        W98783   1.732  38.957  10.437
26359W        W98784  13.124  21.661   1.699
26360W        W98785  11.297  14.679  12.028
26361W        W98786  31.588  29.964   2.377
26362W        W98787  40.485  25.531   1.758
26363W        W98788  40.025  10.287   4.603
26364W        W98789  26.979  27.666   4.819
26365W        W98790   0.820  34.055   0.787
26366W        W98791  42.863   8.687  10.047
26367W        W98792  24.495  37.536  11.404
26368W        W98793  10.320  31.906  12.909
26369W        W98794  24.684  31.573  13.343
26370W        W98795  35.494  42.801   3.340
26371W        W98796  30.916  18.255  14.386
26372W        W98797   5.811  41.307   4.714
26373W        W98798   2.784  30.611  12.928
26374W        W98799   5.688  21.163   3.188
26375W        W98800   9.309   1.380   1.873
26376W        W98801   2.723  16.697   1.392
26377W        W98802  43.009  15.603   0.287
26378W        W98803  42.283   1.913  13.359
26379W        W98804   8.265  22.192  12.447
26380W        W98805  31.460  15.287   4.153
26381W        W98806  35.906   6.255  13.310
26382W        W98807  17.116  21.177  12.851
26383W        W98808   0.476   4.732   1.308
26384W        W98809  44.786  15.626  12.515
26385W        W98810   4.228  29.953  14.906
26386W        W98811   8.323  23.512   3.230
26387W        W98812  39.061  11.216  14.447
26388W        W98813  16.629   1.906   3.838
26389W        W98814  40.886   0.365   4.223
26390W        W98815  39.354   6.340   1.907
26391W        W98816  10.758  23.708   0.246
26392W        W98817  32.929   4.302  10.635
26393W        W98818  19.755  19.189  11.995
26394W        W98819   9.284  44.823   3.855
26395W        W98820  38.866  33.976  14.862
26396W        W98821  14.593  21.219   0.261
26397W        W98822  16.118  10.328  13.989
26398W        W98823   2.895   8.267  13.398
26399W        W98824  19.707  21.560   0.413
26400W        W98825  11.744  43.929   2.731
26401W        W98826  15.766  23.598  11.430
26402W        W98827   6.797   7.304   0.884
26403W        W98828  20.743  29.540  12.424
26404W        W98829  14.322   7.401  14.381
26405W        W98830  27.161  16.305   4.736
26406W        W98831  21.660   7.387  12.467
26407W        W98832   8.241   8.734  11.488
26408W        W98833  25.127  16.178   4.166
26409W        W98834   6.367   8.316   2.217
26410W        W98835   5.301   3.418   1.411
26411W        W98836  26.478  31.600  10.007
26412W        W98837  39.314   4.244   0.375
26413W        W98838  18.272  30.598  12.954
26414W        W98839  22.607  12.218  11.937
26415W        W98840   9.695  18.658   0.289
26416W        W98841  22.674   6.210   4.341
26417W        W98842  12.344  31.963  12.435
26418W        W98843  14.831  14.761  11.091
26419W        W98844   8.323  37.074   1.708
26420W        W98845  29.494   2.877   2.227
26421W        W98846  27.146  31.476   3.171
26422W        W98847  31.518  36.473  12.904
26423W        W98848  43.969  36.518   4.221
26424W        W98849  31.574   9.359   1.386
26425W        W98850  22.048   7.849  13.338
26426W        W98851  29.652   9.822  10.969
26427W        W98852  14.723  24.643  11.028
26428W        W98853  31.067  28.641  12.343
26429W        W98854  26.606  35.109   4.185
26430W        W98855  23.187  24.485  11.884
26431W        W98856   9.833  14.256  13.904
26432W        W98857  13.246  38.326  14.876
26433W        W98858  23.163  10.322  11.372
26434W        W98859   8.872  33.927  11.584
26435W        W98860   6.350  21.646   0.782
26436W        W98861  41.948  24.984   5.154
26437W        W98862  12.806  41.791  11.405
26438W        W98863  25.965   4.701   2.848
26439W        W98864  37.402   6.281   5.263
26440W        W98865  18.687  21.138  11.874
26441W        W98866  37.558   2.226  14.478
26442W        W98867  10.739   8.821   2.897
26443W        W98868  40.433  13.817  13.504
26444W        W98869   1.376   1.793   1.915
26445W        W98870  31.950   8.743   1.357
26446W        W98871   8.828  32.567  13.857
26447W        W98872   0.784   9.766  11.530
26448W        W98873  18.740  37.973  11.580
26449W        W98874  13.188  33.094  11.475
26450W        W98875   3.354   0.837  12.483
26451W        W98876  28.981  15.164   2.348
26452W        W98877  25.636  10.266  12.909
26453W        W98878  20.048  39.323   4.693
26454W        W98879   9.309  44.450   1.413
26455W        W98880  27.044   7.801  11.869
26456W        W98881  23.068  21.637  14.937
26457W        W98882   1.267  31.963  14.409
26458W        W98883   4.329  14.254   1.386
26459W        W98884   7.890  35.887  11.873
26460W        W98885   5.880  13.621   2.743
26461W        W98886  42.913  37.519  10.594
26462W        W98887  32.585   9.882   0.352
26463W        W98888  43.841  12.616   1.719
26464W        W98889  11.299  16.178   0.314
26465W        W98890  10.165   5.709  13.514
26466W        W98891   4.288   2.945   0.348
26467W        W98892  14.669  15.238  11.502
26468W        W98893  41.375  31.922   0.242
26469W        W98894  28.058  30.492   9.456
26470W        W98895  32.437  42.429  11.871
26471W        W98896  15.120  40.828  14.451
26472W        W98897  26.603  22.649  11.473
26473W        W98898  11.686  38.886   2.881
26474W        W98899  19.657  26.202   4.785
26475W        W98900  33.527  11.803   4.118
26476W        W98901  27.978  14.141  14.956
26477W        W98902  44.496  36.427   0.756
26478W        W98903   9.348   1.316  13.536
26479W        W98904  22.566  38.374   1.780
26480W        W98905  42.013  18.226   3.385
26481W        W98906  42.395  32.089   4.320
26482W        W98907   5.780  21.554   3.158
26483W        W98908  15.722  13.845   2.675
26484W        W98909  15.673  32.579   3.224
26485W        W98910  22.187  16.783  14.773
26486W        W98911  44.268  21.687   3.282
26487W        W98912   7.357  44.993   1.802
26488W        W98913  19.259  44.798  13.889
26489W        W98914  44.884  19.621   3.234
26490W        W98915  33.023  39.381   4.191
26491W        W98916  38.951   0.851  13.048
26492W        W98917  32.112  27.126   2.338
26493W        W98918  32.983   5.305  13.057
26494W        W98919  10.242  22.144  10.936
26495W        W98920  44.790  15.748  14.872
26496W        W98921  37.023  20.208   3.252
26497W        W98922  30.480  19.258   3.804
26498W        W98923  28.082  16.668   3.347
26499W        W98924  13.201  20.209  10.540
26500W        W98925  31.422  12.757   1.386
26501W        W98926  37.932   7.250   2.216
26502W        W98927  11.362  25.212  10.893
26503W        W98928  15.804  37.580  14.957
26504W        W98929  31.626  21.655   0.279
26505W        W98930   0.908  14.109  14.391
26506W        W98931   1.925  11.347  13.824
26507W        W98932   4.306  44.345  14.411
26508W        W98933  28.008  37.066   4.764
26509W        W98934  42.520   8.230  11.023
26510W        W98935  19.778  34.958  13.404
26511W        W98936  34.868  16.800   4.287
26512W        W98937  27.004  20.127  13.812
26513W        W98938  37.856  19.694  14.440
26514W        W98939  29.918  25.686   1.217
26515W        W98940  39.950  23.059  11.944
26516W        W98941  32.905  44.860  13.506
26517W        W98942   0.338  12.343   4.240
26518W        W98943  32.398  12.330  12.072
26519W        W98944  23.513  21.260   4.682
26520W        W98945  13.776   9.723  11.897
26521W        W98946   2.428   8.693  11.881
26522W        W98947  39.004  32.568   1.396
26523W        W98948   8.311  20.190  11.402
26524W        W98949  33.386   7.282   0.943
26525W        W98950  30.952  42.477   0.789
26526W        W98951  24.111  22.070  13.417
26527W        W98952   0.784  28.549  14.858
26528W        W98953  19.095  12.643  12.551
26529W        W98954  17.146   0.974  10.490
26530W        W98955  18.785  36.940   3.163
26531W        W98956  30.476  18.091  12.414
26532W        W98957  21.121  35.566  10.410
26533W        W98958  10.261  16.621   3.752
26534W        W98959  18.699  43.403   1.730
26535W        W98960  44.990   8.723  10.981
26536W        W98961  34.108  43.773   0.482
26537W        W98962  29.155   6.349   0.831
26538W        W98963  27.650  44.464  10.017
26539W        W98964  23.152  36.385  11.879
26540W        W98965  17.192  12.338  14.290
26541W        W98966   7.301   3.822  12.501
26542W        W98967  36.554   1.966  12.471
26543W        W98968  34.873   6.247  11.501
26544W        W98969   0.471   7.250   0.261
26545W        W98970  18.708  26.067  13.474
26546W        W98971  15.287  15.169  10.513
26547W        W98972  30.529  10.867  13.845
26548W        W98973  41.426  36.884   3.852
26549W        W98974   9.150  34.471   3.810
26550W        W98975  39.466  27.577  12.535
26551W        W98976  39.890  43.509  12.872
26552W        W98977  26.491  17.298  10.983
26553W        W98978   3.365  17.260   0.752
26554W        W98979  28.485  43.453  11.912
26555W        W98980  43.448   2.799   2.739
26556W        W98981   8.226  21.529  12.966
26557W        W98982  20.143  30.443   2.664
26558W        W98983  18.292  31.124  10.411
26559W        W98984  23.208  40.894  13.459
26560W        W98985   5.329  41.035  13.424
26561W        W98986   8.864  44.394  13.852
26562W        W98987   9.391  30.920   0.377
26563W        W98988  30.511  44.365   5.290
26564W        W98989  28.186  36.415   4.185
26565W        W98990  19.553  19.041  14.416
26566W        W98991  21.118   9.156   5.233
26567W        W98992  33.064  12.654   0.766
26568W        W98993   0.370  44.490   1.371
26569W        W98994  21.152  16.802  13.831
26570W        W98995   0.490  42.412   0.773
26571W        W98996  34.493  29.445  13.899
26572W        W98997   0.279   1.743  13.833
26573W        W98998  10.222  21.580   5.086
26574W        W98999   9.877  44.497  10.971
26575W        W99000  22.573  28.438   2.792
26576W        W99001  41.032   3.360   0.879
26577W        W99002  41.463  15.207   4.284
26578W        W99003  40.545  28.098   2.740
26579W        W99004  31.625  35.085  11.018
26580W        W99005  37.396  14.764  12.853
26581W        W99006  20.534  39.034   4.836
26582W        W99007   3.814  43.956  10.973
26583W        W99008   7.864  41.338  12.948
26584W        W99009  36.029  12.318  13.824
26585W        W99010   8.658   9.857   2.796
26586W        W99011  16.098  34.408  14.474
26587W        W99012  28.616  25.045  14.802
26588W        W99013  10.839  24.535   3.168
26589W        W99014  41.324  14.693   4.776
26590W        W99015  40.396  29.049  13.385
26591W        W99016  20.081  21.221   1.338
26592W        W99017  35.436   1.463  14.380
26593W        W99018  41.342  43.003  10.619
26594W        W99019  15.306  18.266  11.088
26595W        W99020   5.904  33.996  13.436
26596W        W99021   0.406  10.171  12.912
26597W        W99022  43.326  19.627  11.993
26598W        W99023   4.382  30.555   1.766
26599W        W99024  25.517  15.191  14.435
26600W        W99025   8.186  37.343   3.217
26601W        W99026   7.706  10.814  14.984
26602W        W99027  18.740  29.102   1.324
26603W        W99028   2.960  14.728  12.356
26604W        W99029  38.510  17.737  13.484
26605W        W99030  43.837  33.625   4.332
26606W        W99031  22.156  12.150   3.743
26607W        W99032  35.087  12.846   1.742
26608W        W99033  40.799  43.483   0.961
26609W        W99034  17.662  12.852   4.741
26610W        W99035  16.570  26.178   1.291
26611W        W99036  25.714  16.705  14.337
26612W        W99037   1.318  35.066   4.280
26613W        W99038  19.698  30.994   0.755
26614W        W99039  38.005  34.571  11.866
26615W        W99040   0.930  40.537   3.692
26616W        W99041  38.442  13.637  13.325
26617W        W99042  37.483   3.253  12.496
26618W        W99043  22.528  44.401  12.479
26619W        W99044  16.603  31.410  13.035
26620W        W99045  25.113   7.844  11.063
26621W        W99046  43.365  43.912  10.901
26622W        W99047  42.492  40.053  12.043
26623W        W99048  18.081  12.637  12.529
26624W        W99049  10.177   0.820  11.547
26625W        W99050  32.135   6.773  14.427
26626W        W99051  13.721  28.149   0.966
26627W        W99052   3.225  38.477  13.806
26628W        W99053  29.455  34.919   2.304
26629W        W99054  19.140  24.664  14.940
26630W        W99055   3.410  38.922   3.864
26631W        W99056  40.805  10.791  10.912
26632W        W99057   3.274  34.987  10.543
26633W        W99058   2.253   0.829   4.630
26634W        W99059   1.871  42.927   2.330
26635W        W99060  41.947   9.846  13.930
26636W        W99061  11.149  14.614   1.310
26637W        W99062   5.865  21.086  10.452
26638W        W99063  23.169  25.049   2.385
26639W        W99064  29.647   0.473  11.539
26640W        W99065   9.265   2.921   4.648
26641W        W99066  28.556  15.695  10.935
26642W        W99067  25.972  36.960   3.351
26643W        W99068   4.406  14.835  13.996
26644W        W99069  19.146   9.234  13.516
26645W        W99070  27.688  22.089   0.462
26646W        W99071  14.238  22.715   0.443
26647W        W99072  32.637  13.809  11.943
26648W        W99073   5.792  11.171  11.581
26649W        W99074   4.721  41.975   2.889
26650W        W99075   9.701  16.748   0.776
26651W        W99076  17.676  37.578  10.628
26652W        W99077  10.741  36.991   1.254
26653W        W99078  25.697  23.569  13.002
26654W        W99079   4.427  21.175   2.304
26655W        W99080   3.354  32.504  10.563
26656W        W99081  26.096  29.550   1.710
26657W        W99082  35.074  12.309  13.798
26658W        W99083  23.998   7.336   0.793
26659W        W99084  27.159  28.483  10.513
26660W        W99085   8.869  19.614   1.336
26661W        W99086  14.209  25.020  11.005
26662W        W99087  44.382  32.449   3.682
26663W        W99088  44.980  26.696   1.750
26664W        W99089   7.284  34.440   2.315
26665W        W99090  17.292  34.010   2.262
26666W        W99091  13.117   1.300   2.893
26667W        W99092  39.521  42.408   1.370
26668W        W99093   5.261   0.381   2.874
26669W        W99094  22.745  42.917   3.149
26670W        W99095  36.523   4.418  13.967
26671W        W99096   5.351  15.614  12.036
26672W        W99097  18.598  29.097   5.735
26673W        W99098  22.215  42.792   0.844
26674W        W99099  24.520  12.283  11.505
26675W        W99100   2.822  38.063   0.879
26676W        W99101  32.067  42.375  11.443
26677W        W99102  19.553  22.204  13.366
26678W        W99103   5.400  31.983   5.297
26679W        W99104  13.295  14.170   3.271
26680W        W99105  41.026  36.996   3.382
26681W        W99106  32.899  36.410  13.387
26682W        W99107  27.632  32.931   0.250
26683W        W99108  21.245  12.240  11.412
26684W        W99109  39.862  25.681   0.269
26685W        W99110  32.896   5.257   2.746
26686W        W99111  43.818  44.456  12.575
26687W        W99112  22.172  37.422  14.897
26688W        W99113  37.552  11.733   3.273
26689W        W99114  33.007  18.274   9.465
26690W        W99115  12.203  23.213   1.284
26691W        W99116  38.847  17.188  11.420
26692W        W99117  20.203  17.087  13.826
26693W        W99118   2.226  36.465   4.219
26694W        W99119   9.887  22.503  11.406
26695W        W99120  31.579  25.001  12.575
26696W        W99121  13.712  21.085   4.811
26697W        W99122  25.086  25.575  11.934
26698W        W99123   2.426   0.759   2.674
26699W        W99124  33.484  27.152  12.561
26700W        W99125  32.084   7.707  12.444
26701W        W99126  26.582  14.283  11.442
26702W        W99127  19.774  32.600   0.754
26703W        W99128  36.511   6.890  13.439
26704W        W99129  25.157  31.072  12.028
26705W        W99130   8.273  35.442  13.381
26706W        W99131  25.103  21.705  10.585
26707W        W99132  10.325  32.421  12.359
26708W        W99133  13.210  40.487   5.163
26709W        W99134  16.104  24.001   4.757
26710W        W99135   5.386  16.264  11.522
26711W        W99136   1.381   4.253  10.979
26712W        W99137   8.249  39.040   2.233
26713W        W99138  25.539   3.834  11.028
26714W        W99139  13.124  11.340  11.113
26715W        W99140  15.185  31.449   4.715
26716W        W99141  31.953   9.220  11.065
26717W        W99142   2.243  37.988  10.543
26718W        W99143  16.182  28.509   0.377
26719W        W99144  33.895   0.375   0.323
26720W        W99145  44.318  39.964  11.910
26721W        W99146   7.856  35.063   4.692
26722W        W99147   4.408  19.193  11.974
26723W        W99148   8.261   1.911   4.169
26724W        W99149  31.459  36.457   3.651
26725W        W99150  24.089   1.289  12.843
26726W        W99151   4.271  41.482  14.462
26727W        W99152  31.583  43.869   0.793
26728W        W99153  13.303  26.078   3.321
26729W        W99154  20.655   2.773  10.619
26730W        W99155  34.041  17.563  12.491
26731W        W99156  16.728   5.364   0.730
26732W        W99157  44.782  33.549  12.037
26733W        W99158   8.863  33.435   9.993
26734W        W99159  40.460   2.777   3.812
26735W        W99160  39.351  39.011   2.665
26736W        W99161   5.874  34.541  13.861
26737W        W99162  23.176  30.088   2.804
26738W        W99163   0.968  42.365  12.567
26739W        W99164  42.928   9.685  12.422
26740W        W99165  17.730  38.427   0.463
26741W        W99166   4.428  37.902  10.914
26742W        W99167  44.291  41.828  14.464
26743W        W99168   2.877   7.179  11.442
26744W        W99169  17.071  32.608   4.154
26745W        W99170  33.532  28.940  14.814
26746W        W99171  23.597  17.782  14.962
26747W        W99172  22.187  38.337   2.821
26748W        W99173  41.482  14.097  12.893
26749W        W99174  38.024  32.527  14.966
26750W        W99175  32.070  16.669  14.833
26751W        W99176  29.587  13.791   0.896
26752W        W99177   4.764  18.107  10.975
26753W        W99178   1.976   7.740   4.321
26754W        W99179  22.154  10.315   0.397
26755W        W99180  38.992  42.923  12.042
26756W        W99181   6.794  43.279   3.775
26757W        W99182  21.239  24.721  11.461
26758W        W99183  35.490  23.029   3.814
26759W        W99184  38.988  30.052   3.860
26760W        W99185  34.005   6.706   3.328
26761W        W99186   1.785  27.192  13.450
26762W        W99187   4.872  33.930  11.875
26763W        W99188  27.945   6.355   2.253
26764W        W99189  22.644  42.360  12.488
26765W        W99190   3.889  21.550  12.825
26766W        W99191   0.826   6.426  14.992
26767W        W99192  21.031  17.135   1.405
26768W        W99193  10.381   2.326   3.784
26769W        W99194  11.304  36.446  12.075
26770W        W99195  10.311  43.827  10.906
26771W        W99196  10.792  34.040  10.617
26772W        W99197   6.220  22.035   1.277
26773W        W99198   5.902  18.075   1.916
26774W        W99199  42.480  36.479   3.816
26775W        W99200  15.724  23.236   0.334
26776W        W99201  25.609  12.330  10.421
26777W        W99202  13.844   6.308   2.731
26778W        W99203  32.099  34.378   1.808
26779W        W99204  43.973  24.050   4.805
26780W        W99205  33.126  12.626  13.793
26781W        W99206   9.713  34.493  13.472
26782W        W99207  12.295  43.398  13.827
26783W        W99208  14.295  26.587  13.517
26784W        W99209  15.816  37.960   3.297
26785W        W99210  39.345  17.627   3.157
26786W        W99211  22.206  19.268  14.859
26787W        W99212  13.153  22.500   4.298
26788W        W99213  10.268  33.954  14.887
26789W        W99214  11.188  34.048  12.426
26790W        W99215   6.739   4.224   4.703
26791W        W99216  10.309   5.827   4.689
26792W        W99217  12.304  43.868   1.893
26793W        W99218   0.849  13.294  12.530
26794W        W99219  41.363  32.032  11.888
26795W        W99220  20.203  28.014  13.953
26796W        W99221  41.346   1.384   3.869
26797W        W99222  40.809  25.616  12.563
26798W        W99223  31.075   5.830   3.678
26799W        W99224  29.619  36.003   0.459
26800W        W99225  15.666   0.468   9.573
26801W        W99226  43.445  32.092   2.383
26802W        W99227   4.436  20.162   1.339
26803W        W99228  26.098  16.256   1.246
26804W        W99229  28.063  44.308  12.362
26805W        W99230  18.677  30.939  10.145
26806W        W99231   2.387  25.206  10.541
26807W        W99232   1.901  30.423   0.834
26808W        W99233  15.153  43.883  11.599
26809W        W99234  29.444  39.436  11.560
26810W        W99235  27.652   5.422   3.663
26811W        W99236  35.598  12.120  11.564
26812W        W99237   3.804  15.793  12.070
26813W        W99238  44.875  34.035   0.404
26814W        W99239   8.874  19.043   4.148
26815W        W99240  17.123   4.255   2.898
26816W        W99241  33.615  41.863   1.818
26817W        W99242  15.701  23.079  11.947
26818W        W99243  38.846  44.492  12.934
26819W        W99244  40.501  40.358   3.776
26820W        W99245  12.731  20.095  12.874
26821W        W99246   7.793  30.649  10.904
26822W        W99247  10.273  17.222  11.385
26823W        W99248  30.519   2.323   2.807
26824W        W99249  14.142  19.099   3.772
26825W        W99250  28.032  29.632   5.113
26826W        W99251   1.255  25.999  14.842
26827W        W99252  28.089  44.858   0.885
26828W        W99253  10.331   7.271   1.327
26829W        W99254   5.425  40.468   1.731
26830W        W99255  11.823  29.153  13.009
26831W        W99256  11.313  11.691  11.553
26832W        W99257  36.553  29.540  11.084
26833W        W99258   2.845   6.345  12.008
26834W        W99259  42.810  44.972   4.200
26835W        W99260   7.722   3.457   4.765
26836W        W99261  37.504   9.837  12.546
26837W        W99262  14.204  26.498   3.860
26838W        W99263  32.561   2.315  10.629
26839W        W99264  13.151   3.813   3.297
26840W        W99265  25.135  38.018   3.214
26841W        W99266  22.744  27.544  13.868
26842W        W99267  19.540  27.532  12.824
26843W        W99268  39.429  15.796   3.727
26844W        W99269  42.492  12.800   0.368
26845W        W99270   8.799  13.246   0.898
26846W        W99271  29.066   2.749   4.114
26847W        W99272  39.046   8.781  12.044
26848W        W99273   0.268   1.796  12.834
26849W        W99274  43.400  24.175   2.857
26850W        W99275  29.091  16.135   2.695
26851W        W99276  31.962  19.267  10.046
26852W        W99277  42.346  14.331   0.438
26853W        W99278  28.959  24.174   1.367
26854W        W99279  18.685  30.478   4.291
26855W        W99280  44.430  12.327   4.136
26856W        W99281  14.638  14.150  11.012
26857W        W99282  40.464  32.941  10.935
26858W        W99283   9.243  19.262  11.934
26859W        W99284   6.813  34.016   0.780
26860W        W99285   4.295   0.371  10.987
26861W        W99286  40.993   4.893  10.477
26862W        W99287  36.027  44.455  14.934
26863W        W99288  18.082  29.989  13.870
26864W        W99289  35.532   1.479  10.519
26865W        W99290  13.804   1.449   1.284
26866W        W99291  37.843  29.136  12.368
26867W        W99292  41.851  40.534   2.894
26868W        W99293  20.153  22.664  12.907
26869W        W99294   5.306  32.999  11.564
26870W        W99295  38.992  24.608   4.274
26871W        W99296   9.763  23.560   1.802
26872W        W99297   8.842  10.868   3.385
26873W        W99298  12.351   5.197  13.344
26874W        W99299   3.730  13.210   3.385
26875W        W99300  42.423  18.653   0.937
26876W        W99301   7.773  35.472   0.289
26877W        W99302  25.090  16.219   4.784
26878W        W99303   5.881  40.433   2.235
26879W        W99304   4.746  34.945  10.480
26880W        W99305   5.738  23.643  13.525
26881W        W99306  18.187  16.098  12.079
26882W        W99307   0.255   2.831  13.515
26883W        W99308  11.276  29.611   2.187
26884W        W99309  38.407  26.105   1.718
26885W        W99310   1.323   8.313  14.999
26886W        W99311  14.630  20.577   2.189
26887W        W99312  30.456   7.335   4.677
26888W        W99313  10.379  27.181  14.385
26889W        W99314  39.870  10.254   4.303
26890W        W99315  11.269  30.014   1.794
26891W        W99316  41.981  32.901   2.798
26892W        W99317  28.477  18.675   4.806
26893W        W99318  10.154   4.302   1.409
26894W        W99319  11.142  17.584   0.392
26895W        W99320  23.003   1.271  14.476
26896W        W99321   7.766   8.713  13.977
26897W        W99322  38.457  16.105   1.239
26898W        W99323  37.848   8.775  13.316
26899W        W99324   3.864  17.759   4.340
26900W        W99325  22.043  16.241  13.057
26901W        W99326  40.882   1.811   3.152
26902W        W99327  41.497   7.398   0.449
26903W        W99328  32.067  32.066   1.853
26904W        W99329  42.963  20.269  14.480
26905W        W99330   7.319  40.827  14.804
26906W        W99331  34.369   9.666  13.890
26907W        W99332  27.988   9.157  13.963
26908W        W99333  24.214  37.872   4.774
26909W        W99334  29.019  36.567   3.645
26910W        W99335   5.872  39.381   2.780
26911W        W99336  18.072  38.002  12.849
26912W        W99337  10.233  27.044   2.661
26913W        W99338  23.580  44.365   3.161
26914W        W99339  41.788   2.395   0.954
26915W        W99340  17.118  17.587  10.576
26916W        W99341  23.665  11.827  13.487
26917W        W99342  15.676  11.641  13.501
26918W        W99343  37.910  35.046   1.794
26919W        W99344  20.594   5.198  11.416
26920W        W99345  13.730  16.135  10.613
26921W        W99346  40.421  15.119  10.528
26922W        W99347  40.807  27.001   2.787
26923W        W99348  16.782  10.153  14.281
26924W        W99349  29.171  34.975  11.080
26925W        W99350  32.490  44.277   0.378
26926W        W99351  14.631  29.578  12.979
26927W        W99352  32.939  34.092  11.525
26928W        W99353   4.821  20.154   0.767
26929W        W99354  17.192  25.646   1.443
26930W        W99355  25.671  14.114  12.921
26931W        W99356  27.110  30.649  10.069
26932W        W99357   5.250  42.003   1.388
26933W        W99358  24.024   1.360   0.884
26934W        W99359  27.089   4.925   3.701
26935W        W99360  36.449  22.663  11.494
26936W        W99361  43.990  24.224  13.897
26937W        W99362   5.751  23.210   1.812
26938W        W99363  31.085  13.621   2.226
26939W        W99364  18.617  12.683  14.432
26940W        W99365  20.578   0.906   0.295
26941W        W99366  12.256   3.281  14.914
26942W        W99367  41.814  26.681  13.049
26943W        W99368  40.875  25.588  11.476
26944W        W99369   0.344   6.330   3.285
26945W        W99370   4.784  17.138   4.770
26946W        W99371  41.814  19.134   1.716
26947W        W99372  36.397  42.478  11.859
26948W        W99373  11.199  42.829  10.145
26949W        W99374  11.715  29.169  11.981
26950W        W99375  26.120  44.805  10.948
26951W        W99376  35.985  27.953   0.254
26952W        W99377   3.889  32.124  13.002
26953W        W99378   7.332  39.385   1.752
26954W        W99379  39.985  21.221   4.271
26955W        W99380  28.936  19.113   4.320
26956W        W99381  29.624   9.812   3.273
26957W        W99382  27.500   9.229  14.837
26958W        W99383  13.303  40.529  10.621
26959W        W99384  34.030  38.023  11.441
26960W        W99385  40.442   7.837  12.026
26961W        W99386   9.366  15.083  10.578
26962W        W99387  21.251  18.152  11.517
26963W        W99388  10.752  34.564  13.543
26964W        W99389  36.516  12.749   2.324
26965W        W99390  31.910  14.128  14.496
26966W        W99391  36.413   8.350   2.721
26967W        W99392  27.145  13.629  13.313
26968W        W99393  41.998  18.288   0.797
26969W        W99394  15.307  21.093  11.998
26970W        W99395  14.746   4.817  12.001
26971W        W99396   8.871   8.752   3.653
26972W        W99397  33.971  14.306   3.298
26973W        W99398  12.147  30.609   2.404
26974W        W99399  13.283  18.763  14.443
26975W        W99400  30.143  10.241   5.259
26976W        W99401  26.185  29.444   1.387
26977W        W99402  36.493  37.399  10.564
26978W        W99403  25.040  19.095   1.269
26979W        W99404  11.294  35.394  14.371
26980W        W99405  13.226  22.667  12.516
26981W        W99406  37.546   8.658  13.830
26982W        W99407  23.707  34.018  13.310
26983W        W99408  39.886   8.197  10.593
26984W        W99409  37.425   1.746  11.423
26985W        W99410  35.947  39.890   4.212
26986W        W99411  25.148  35.068  12.427
26987W        W99412  22.583  41.847  13.845
26988W        W99413  41.922  11.834   1.383
26989W        W99414  27.666   1.759  13.493
26990W        W99415  44.468  20.082  14.476
26991W        W99416  16.174  17.671   4.744
26992W        W99417   8.215   5.207   2.201
26993W        W99418   4.211   7.394   2.216
26994W        W99419  31.113  41.537   0.893
26995W        W99420   7.800   0.396   0.468
26996W        W99421  36.575  33.935   0.450
26997W        W99422  22.657  36.946  14.417
26998W        W99423  30.074  40.000   1.240
26999W        W99424  39.519   4.349   3.169
27000W        W99425   6.688  33.622   2.343
27001W        W99426  40.849   5.767   2.797
27002W        W99427  27.463  42.518   1.427
27003W        W99428  34.456  19.640   2.369
27004W        W99429  28.465  44.476   4.792
27005W        W99430  27.470  15.715   1.849
27006W        W99431  33.018  15.652  14.932
27007W        W99432  32.077  42.884  14.402
27008W        W99433  31.014  22.536  12.426
27009W        W99434  14.793   8.853   4.621
27010W        W99435  19.253  33.519  14.835
27011W        W99436  33.407  26.001   4.264
27012W        W99437  16.756  20.536   1.211
27013W        W99438  29.574  39.342  10.934
27014W        W99439  35.961  31.459   4.160
27015W        W99440   0.392  29.168   2.831
27016W        W99441  15.617  22.732   1.713
27017W        W99442  25.684  22.242   2.747
27018W        W99443  30.027  43.821   1.851
27019W        W99444  11.344  33.518  12.887
27020W        W99445  14.786  21.609  12.874
27021W        W99446  25.160  20.107  11.535
27022W        W99447   9.241  34.872   3.839
27023W        W99448  16.796  23.006  10.606
27024W        W99449   4.777  14.746  11.598
27025W        W99450  19.146  38.992  12.861
27026W        W99451  33.040   5.870  14.428
27027W        W99452   9.266  16.232  12.498
27028W        W99453  30.022  28.624  12.507
27029W        W99454  21.598  31.611   1.890
27030W        W99455  16.606  25.555  11.488
27031W        W99456  26.016  12.839  13.989
27032W        W99457  40.347  31.446  10.557
27033W        W99458  16.290   5.827   3.727
27034W        W99459  21.655  44.261  10.967
27035W        W99460  18.126  36.096   2.327
27036W        W99461  17.068  30.020   2.237
27037W        W99462  18.595  37.388  12.350
27038W        W99463  33.902  43.764   1.416
27039W        W99464  32.588  37.042   1.736
27040W        W99465   4.386  13.148   2.192
27041W        W99466  35.548  36.588  14.365
27042W        W99467  28.457  31.073   2.796
27043W        W99468  28.547  44.431   1.877
27044W        W99469  29.099  39.997  11.111
27045W        W99470   8.312  37.895   2.254
27046W        W99471   6.213  40.977   1.823
27047W        W99472  40.823  27.540  14.003
27048W        W99473   3.928  25.062   3.776
27049W        W99474   5.846  35.921  13.030
27050W        W99475   1.353  22.554  14.801
27051W        W99476  16.765  37.929   0.885
27052W        W99477   4.774  15.822  11.609
27053W        W99478  42.023  40.901  11.012
27054W        W99479  43.767  30.605  12.386
27055W        W99480  43.778  40.844  11.401
27056W        W99481  41.876  29.986  12.883
27057W        W99482  31.604  29.036  10.626
27058W        W99483  22.245  35.881  12.967
27059W        W99484  43.347  39.858   0.811
27060W        W99485  29.956  37.495   3.709
27061W        W99486  40.043   7.416  12.936
27062W        W99487   3.291  27.679  10.542
27063W        W99488  11.709  22.007   4.183
27064W        W99489   1.751  30.513  11.518
27065W        W99490  38.076  20.643   2.866
27066W        W99491  44.952  29.516   2.280
27067W        W99492  35.509  11.795  10.609
27068W        W99493   5.218  25.613  12.342
27069W        W99494   0.381   5.421  10.451
27070W        W99495  29.436  41.016  14.843
27071W        W99496  34.042  35.880  12.925
27072W        W99497  10.689  28.571   2.683
27073W        W99498   7.845  30.560   0.386
27074W        W99499  23.032   5.863  14.806
27075W        W99500  13.343  39.911  11.987
27076W        W99501  36.942  35.972   3.629
27077W        W99502  12.857  24.527   1.349
27078W        W99503  19.177  38.967   3.280
27079W        W99504  15.707   7.735  14.807
27080W        W99505  34.561   3.384   4.779
27081W        W99506  34.369  35.896  12.022
27082W        W99507   7.190  20.604   2.771
27083W        W99508  14.795  30.148  14.932
27084W        W99509  14.096   0.774  14.866
27085W        W99510  40.477  17.563   4.707
27086W        W99511  34.403  40.956   2.205
27087W        W99512  39.966  22.152  13.056
27088W        W99513   8.205   0.297   4.156
27089W        W99514   4.794  29.154  14.786
27090W        W99515  36.550  42.358  13.830
27091W        W99516  18.270  18.058  10.452
27092W        W99517  12.737  32.982  11.993
27093W        W99518  30.006  35.074   3.171
27094W        W99519  18.256  14.206   3.203
27095W        W99520  39.876   3.953  12.500
27096W        W99521  39.955  12.301   1.899
27097W        W99522  43.872  35.892  10.636
27098W        W99523  41.408  38.011   0.829
27099W        W99524  31.473  14.162   4.247
27100W        W99525  39.352  40.494  11.383
27101W        W99526  22.135   3.891  14.470
27102W        W99527   8.225  11.674   4.151
27103W        W99528  21.049  38.899   5.262
27104W        W99529  42.976   4.789   0.918
27105W        W99530   5.798  42.392  10.521
27106W        W99531  28.437   0.960  13.376
27107W        W99532  16.794   7.681  14.494
27108W        W99533  32.896   0.766   4.135
27109W        W99534   6.766  38.930   0.332
27110W        W99535  35.949  11.159  11.092
27111W        W99536  30.947  25.110  13.536
27112W        W99537  15.168   9.276   3.704
27113W        W99538  21.587  24.187   4.629
27114W        W99539   3.327  17.573   0.341
27115W        W99540   4.220  29.576   1.336
27116W        W99541  31.106  44.830   3.740
27117W        W99542  23.047  22.014  12.056
27118W        W99543  14.245  17.623   3.194
27119W        W99544  24.179  42.487  11.049
27120W        W99545   3.797  26.147   3.702
27121W        W99546  43.446   2.458  12.904
27122W        W99547  44.268  39.495  12.857
27123W        W99548   5.416  16.133   3.711
27124W        W99549   6.187  14.138  11.987
27125W        W99550  26.664  29.567   1.769
27126W        W99551  29.657  33.550   0.796
27127W        W99552  31.046   8.187  14.409
27128W        W99553  29.027   5.404  14.857
27129W        W99554  39.390  39.445   1.269
27130W        W99555   4.848   0.925  14.912
27131W        W99556  22.742  43.861   2.778
27132W        W99557  34.578  30.625  10.523
27133W        W99558  10.292  18.164   3.264
27134W        W99559  38.880  33.938   0.822
27135W        W99560   1.396  38.936  13.377
27136W        W99561  29.650   0.449  13.408
27137W        W99562  39.858  30.431  11.026
27138W        W99563  18.077  17.231  11.514
27139W        W99564  28.979  24.180  11.972
27140W        W99565  40.416   2.366  12.029
27141W        W99566  33.481   3.245  12.972
27142W        W99567  12.133   7.773  12.360
27143W        W99568  37.868  40.315   3.249
27144W        W99569  24.031   0.976   5.204
27145W        W99570  37.377  14.306  10.010
27146W        W99571   1.799  30.003   2.362
27147W        W99572  18.727  16.204   4.759
27148W        W99573   5.888   5.240  12.452
27149W        W99574  36.350  23.226  14.492
27150W        W99575  24.661  26.606   2.289
27151W        W99576   9.769   9.866   1.369
27152W        W99577   6.857  43.987  11.895
27153W        W99578  37.872   5.717  14.437
27154W        W99579  12.753  31.147  14.848
27155W        W99580   7.793  35.572   5.287
27156W        W99581  34.571  16.588   3.307
27157W        W99582   6.365   6.213  12.977
27158W        W99583   0.764  41.394  12.852
27159W        W99584  40.342  29.514  12.092
27160W        W99585  28.496   0.898  14.280
27161W        W99586  26.624   0.959  12.960
27162W        W99587  29.456  30.123   4.126
27163W        W99588   2.240  28.152   0.308
27164W        W99589  41.912  16.574   0.401
27165W        W99590  21.222  38.407   0.951
27166W        W99591  18.214  43.445   2.261
27167W        W99592  10.187  19.200   4.798
27168W        W99593  33.463   1.318  12.890
27169W        W99594  16.185  33.393   4.225
27170W        W99595  17.566  24.643   0.306
27171W        W99596   4.284  35.099  11.991
27172W        W99597  24.515  11.659  11.528
27173W        W99598  13.253  28.144   9.955
27174W        W99599  23.054   7.316   5.312
27175W        W99600   8.710  29.073   2.349
27176W        W99601   3.233  23.563  12.420
27177W        W99602  14.334   1.795  13.901
27178W        W99603  33.460  38.524   3.682
27179W        W99604  26.571  24.585  13.393
27180W        W99605   6.330   8.755  14.788
27181W        W99606   5.897  31.110   1.728
27182W        W99607  20.694  40.826  14.278
27183W        W99608  10.332  17.655   1.920
27184W        W99609  22.523   8.309   0.266
27185W        W99610  21.630  25.500   2.850
27186W        W99611  29.592  40.904  11.385
27187W        W99612   9.220  23.677  10.975
27188W        W99613   2.339  40.514   1.248
27189W        W99614   4.915  42.508  11.965
27190W        W99615  17.128  13.109  10.490
27191W        W99616  31.572  28.516   0.927
27192W        W99617  16.791  26.482  13.523
27193W        W99618   9.859  20.644   0.936
27194W        W99619  20.148  44.417   0.925
27195W        W99620  13.825  30.118  11.484
27196W        W99621  34.385  26.563  14.450
27197W        W99622   4.754  16.790  12.529
27198W        W99623  40.932  14.096  12.498
27199W        W99624   7.882  32.616   4.822
27200W        W99625  17.613  10.292  13.373
27201W        W99626  23.561   0.920   4.208
27202W        W99627   9.375   0.393   2.699
27203W        W99628  29.058  24.713   0.252
27204W        W99629  26.100  44.412   4.706
27205W        W99630  21.608  15.158  13.482
27206W        W99631  32.625   7.373  12.510
27207W        W99632   3.390  17.223  12.349
27208W        W99633  16.682  28.570  14.399
27209W        W99634  14.710  27.099   2.704
27210W        W99635  33.036   4.372  13.006
27211W        W99636  39.527   1.457  14.431
27212W        W99637  13.783   1.268  11.068
27213W        W99638   9.222   9.653  10.520
27214W        W99639   5.771  44.930   0.947
27215W        W99640  25.026  26.026  14.380
27216W        W99641   9.801  32.491  11.572
27217W        W99642  11.760  16.746  13.999
27218W        W99643   8.883  12.851   4.711
27219W        W99644   7.888  15.704  13.998
27220W        W99645  37.480  10.241   0.250
27221W        W99646  32.529   2.788  12.069
27222W        W99647  29.534  23.159   0.911
27223W        W99648   7.416  10.185  13.451
27224W        W99649  28.529  21.105  10.596
27225W        W99650  32.527  32.886  10.530
27226W        W99651  19.690  12.758  12.515
27227W        W99652  17.138  22.629   1.800
27228W        W99653   4.387   4.897  13.514
27229W        W99654  21.147   8.704   2.680
27230W        W99655  26.625   9.644  11.441
27231W        W99656  38.909  41.896   1.362
27232W        W99657   1.392  28.956   2.178
27233W        W99658  39.553  35.525   0.319
27234W        W99659  20.231  10.324   1.706
27235W        W99660   9.790  25.680  14.844
27236W        W99661  11.314  18.149   0.256
27237W        W99662  14.791  29.959   4.161
27238W        W99663  16.615  40.857   0.862
27239W        W99664  23.501   5.391  11.492
27240W        W99665  24.068  28.484  14.315
27241W        W99666  32.540  33.478   0.757
27242W        W99667  28.108  43.945   4.327
27243W        W99668  26.493  18.124   3.823
27244W        W99669   7.869  29.141   1.254
27245W        W99670  25.053   1.835  14.914
27246W        W99671  21.586  29.566  14.488
27247W        W99672  10.374  14.095   1.827
27248W        W99673   5.352  30.074  14.504
27249W        W99674  44.340  38.887   4.140
27250W        W99675  34.875   5.401   1.756
27251W        W99676  18.183  10.697  11.015
27252W        W99677  24.221  25.529   1.725
27253W        W99678  40.484  10.695   1.270
27254W        W99679   9.286  42.857  13.912
27255W        W99680  12.198   4.327   1.369
27256W        W99681  41.534   2.869   1.437
27257W        W99682  34.494  12.230  12.500
27258W        W99683   5.857  38.447  11.908
27259W        W99684  28.515  31.533  14.317
27260W        W99685  37.883   0.882  14.492
27261W        W99686  24.603  28.039   0.439
27262W        W99687  43.776  12.719  14.388
27263W        W99688  14.112   6.290  14.775
27264W        W99689  43.767  39.951   2.826
27265W        W99690   4.812  15.189   3.806
27266W        W99691  10.297  42.015   2.757
27267W        W99692  17.618  41.812  13.979
27268W        W99693  34.937  33.121   2.365
27269W        W99694  25.550   8.362  14.472
27270W        W99695  22.242  16.190   0.820
27271W        W99696  24.054   0.400   2.740
27272W        W99697  30.138   0.405  14.291
27273W        W99698  20.581  22.055  12.359
27274W        W99699  40.447  41.840   3.220
27275W        W99700  42.831  28.184   2.186
27276W        W99701   7.329  32.889   1.821
27277W        W99702  22.583  17.188  14.014
27278W        W99703  12.149  17.669   4.733
27279W        W99704  10.725  22.530  13.802
27280W        W99705  21.755  29.514  11.588
27281W        W99706  30.160  23.602   3.241
27282W        W99707  37.082   1.274   0.873
27283W        W99708  16.230  15.122   4.152
27284W        W99709  29.432  34.038   0.308
27285W        W99710   6.216   9.346  13.500
27286W        W99711  12.676   1.462  12.507
27287W        W99712  39.010  21.724  11.605
27288W        W99713  22.161  25.594  10.509
27289W        W99714  24.603  30.508   0.367
27290W        W99715   6.806  36.949   3.284
27291W        W99716  30.654  15.600   3.368
27292W        W99717  12.358  43.374   1.221
27293W        W99718  38.070  28.053  10.139
27294W        W99719  35.446   2.294  13.883
27295W        W99720  40.391  34.530  11.885
27296W        W99721   1.301  10.875  13.545
27297W        W99722  41.006  30.137   2.663
27298W        W99723  33.430  41.462  13.472
27299W        W99724   8.741  14.672   4.256
27300W        W99725  15.295  10.266  12.385
27301W        W99726  39.358  25.135   4.738
27302W        W99727  20.638  24.704  14.973
27303W        W99728  11.624   3.458   0.340
27304W        W99729  33.877  23.644   4.838
27305W        W99730  40.319  10.275   2.214
27306W        W99731  30.932  19.172  14.338
27307W        W99732  39.380  20.231  12.458
27308W        W99733  18.257  27.635   1.291
27309W        W99734  22.241   6.832  14.003
27310W        W99735  35.047  16.807   1.312
27311W        W99736  36.858  16.087  14.873
27312W        W99737  21.024  18.157   1.794
27313W        W99738   2.303   8.786  12.502
27314W        W99739  19.540  27.596   0.465
27315W        W99740   7.381  12.360   0.368
27316W        W99741  37.515  24.078  13.321
27317W        W99742  15.786  27.016   1.780
27318W        W99743  27.123  27.014  14.405
27319W        W99744   3.306  12.280  13.063
27320W        W99745  27.556   5.717  13.051
27321W        W99746  32.586  28.561   3.289
27322W        W99747  24.480  41.454   0.276
27323W        W99748  13.273  31.062   1.222
27324W        W99749  32.457  24.552   1.739
27325W        W99750   9.811  23.717  10.618
27326W        W99751  35.497  39.021  14.862
27327W        W99752  14.659  12.671  11.457
27328W        W99753  24.606  33.943   4.169
27329W        W99754  21.589  39.537   1.838
27330W        W99755  18.215  34.972   2.855
27331W        W99756  39.882  30.138   2.231
27332W        W99757   1.461  40.976   2.350
27333W        W99758  29.955  38.005  10.458
27334W        W99759  30.422   2.958   4.303
27335W        W99760  30.151  17.222   5.169
27336W        W99761   6.856  11.301   0.460
27337W        W99762  36.528  15.748   2.872
27338W        W99763  16.190   4.407  11.379
27339W        W99764  23.168   2.350   2.226
27340W        W99765  22.995  24.084  13.478
27341W        W99766  16.691  44.267  13.455
27342W        W99767  37.891  19.688  11.520
27343W        W99768  41.352  32.433  14.513
27344W        W99769  24.162  27.626   3.269
27345W        W99770  14.788  29.535  14.286
27346W        W99771  20.126   4.755  10.457
27347W        W99772  35.913  44.387   3.334
27348W        W99773   1.802  23.512   3.861
27349W        W99774  44.847   1.891  10.448
27350W        W99775  24.653  12.794  13.430
27351W        W99776  19.270  33.554   0.915
27352W        W99777  32.140  21.550  11.599
27353W        W99778  44.899   0.383  13.872
27354W        W99779  40.899  20.548  13.500
27355W        W99780  21.754  43.855  10.404
27356W        W99781  31.499  42.798  13.026
27357W        W99782  43.387  28.036   2.780
27358W        W99783   3.890   6.851  14.795
27359W        W99784  27.119  43.388   3.342
27360W        W99785  37.511  16.698  10.470
27361W        W99786  11.831  42.527  12.951
27362W        W99787  25.009  30.051  13.337
27363W        W99788  21.204  33.422  10.429
27364W        W99789   1.359  39.482  12.964
27365W        W99790  32.103  11.772  14.975
27366W        W99791  43.378   4.820   1.821
27367W        W99792  18.107  33.983   1.914
27368W        W99793  17.212  43.486  14.999
27369W        W99794   6.697   0.760  13.929
27370W        W99795  24.042   6.847   1.909
27371W        W99796  13.757  20.726  14.322
27372W        W99797  27.088  44.000   4.824
27373W        W99798  25.991   0.421   1.240
27374W        W99799  11.803   0.416   1.760
27375W        W99800  24.700  21.062  11.434
27376W        W99801  34.561   7.243   0.275
27377W        W99802   0.927  36.546  13.427
27378W        W99803   7.354  31.588  14.375
27379W        W99804  36.358  33.915   1.354
27380W        W99805   2.409   7.383   0.736
27381W        W99806  32.561  37.903  13.041
27382W        W99807  34.444  34.488  14.301
27383W        W99808  18.658  17.619  11.562
27384W        W99809  35.938  42.000  13.808
27385W        W99810  29.046  30.425   0.910
27386W        W99811  20.201  15.218   3.783
27387W        W99812  34.013  41.019  13.046
27388W        W99813  38.493  39.473  11.004
27389W        W99814   6.405  25.512   3.670
27390W        W99815  37.364  44.888   0.274
27391W        W99816  10.188  11.793  11.391
27392W        W99817  14.633   6.285  12.440
27393W        W99818   2.312  10.653  13.393
27394W        W99819   8.899  10.302  12.360
27395W        W99820  15.634  28.045  13.542
27396W        W99821  38.396  39.832   4.267
27397W        W99822  38.025  21.532   0.301
27398W        W99823  18.769  29.937   5.088
27399W        W99824  20.545  13.318  14.346
27400W        W99825  22.016  42.463  10.437
27401W        W99826  28.453  44.260   2.669
27402W        W99827  43.328   4.942   0.817
27403W        W99828  12.353  40.867   3.261
27404W        W99829  30.521  25.476   1.784
27405W        W99830   7.229  18.674  14.443
27406W        W99831  11.839  44.947  11.375
27407W        W99832   7.881  32.892   3.738
27408W        W99833   4.337  28.060   4.147
27409W        W99834  43.816  25.176  12.443
27410W        W99835   8.320  10.280   0.794
27411W        W99836  10.791  23.556   4.834
27412W        W99837  34.546   3.451   0.382
27413W        W99838  20.050  13.253  14.383
27414W        W99839  13.785  30.593   3.368
27415W        W99840  37.967   3.445   5.169
27416W        W99841   9.706  17.608  12.570
27417W        W99842  28.097  17.226   0.918
27418W        W99843   0.842  14.200  10.481
27419W        W99844  24.601  17.618  13.038
27420W        W99845  21.525  40.037   3.317
27421W        W99846   3.357  18.066   1.800
27422W        W99847   0.945  12.849   0.900
27423W        W99848  43.491  14.779  11.965
27424W        W99849  25.073  18.175   2.281
27425W        W99850  21.235  12.688  10.910
27426W        W99851  32.021  42.017   2.884
27427W        W99852  31.007  25.165   4.656
27428W        W99853  11.648  41.351  10.410
27429W        W99854   4.760  26.101  12.489
27430W        W99855  27.560  18.113  11.111
27431W        W99856   4.221  22.532   1.339
27432W        W99857  42.479   5.274   0.885
27433W        W99858  33.047  36.916  13.941
27434W        W99859  36.988  24.065  11.025
27435W        W99860   7.356  26.011   0.427
27436W        W99861  22.680   5.408  12.576
27437W        W99862  40.921  37.015  13.906
27438W        W99863  38.068  27.185   4.310
27439W        W99864  33.492  12.634  10.932
27440W        W99865  24.994  30.628   0.436
27441W        W99866  37.062  33.602  12.464
27442W        W99867  19.191  31.412   4.700
27443W        W99868  26.589  39.932   3.309
27444W        W99869  28.979  43.778  14.277
27445W        W99870  43.874   7.289   2.218
27446W        W99871   5.367  24.179  12.404
27447W        W99872  26.635  24.591   4.223
27448W        W99873   9.736  14.655   0.447
27449W        W99874   6.844  37.456  13.533
27450W        W99875  13.223  24.705   2.284
27451W        W99876  16.149   9.169  11.980
27452W        W99877  11.781  34.601   1.732
27453W        W99878  41.423  23.228   4.767
27454W        W99879  35.011  26.109  13.894
27455W        W99880  42.941  29.662   1.298
27456W        W99881  36.548  37.338   1.289
27457W        W99882  41.902  27.036   2.208
27458W        W99883  37.405  12.761  12.044
27459W        W99884  18.104  15.215  12.477
27460W        W99885  18.654   3.941  10.441
27461W        W99886  10.189  13.127   1.916
27462W        W99887  42.855  10.176   3.848
27463W        W99888  22.165  32.098   3.798
27464W        W99889  36.906  28.024  11.929
27465W        W99890  10.785  33.552   2.876
27466W        W99891   0.275  31.941   0.296
27467W        W99892   8.389  31.938   1.922
27468W        W99893  31.616  15.117   2.844
27469W        W99894  28.642  27.179   0.279
27470W        W99895  27.006   2.844   2.813
27471W        W99896  17.170  44.288   3.381
27472W        W99897  19.539  25.605  11.533
27473W        W99898  34.969  14.608  14.810
27474W        W99899  17.203  36.389  12.942
27475W        W99900  42.378  44.834   3.378
27476W        W99901  31.039  28.943  10.129
27477W        W99902  44.765  15.664   4.765
27478W        W99903  30.459   0.369   1.352
27479W        W99904   7.732  10.765  14.280
27480W        W99905  43.845   5.771  13.519
27481W        W99906  31.463  24.647   2.671
27482W        W99907   5.259   7.733   1.856
27483W        W99908  19.278  34.374  12.408
27484W        W99909  22.571  18.654  14.829
27485W        W99910  32.430  36.559  10.539
27486W        W99911  10.277  13.145   3.675
27487W        W99912   6.752  12.235   0.341
27488W        W99913  39.936  30.147   1.266
27489W        W99914  16.569  30.534  11.418
27490W        W99915  32.461  35.891  13.879
27491W        W99916  22.204  12.229  12.358
27492W        W99917   2.344  37.068   0.418
27493W        W99918  44.337  10.366   4.806
27494W        W99919  11.848  23.101   5.236
27495W        W99920  44.920  43.337  14.323
27496W        W99921   9.369  21.176   0.733
27497W        W99922  24.978  41.973  12.513
27498W        W99923   3.307   1.842  10.563
27499W        W99924   1.839  17.261  13.946
27500W        W99925  10.756  22.138   4.833
27501W        W99926  30.480  32.073  10.960
27502W        W99927   2.277  33.449   4.183
27503W        W99928  26.609  11.341   4.704
27504W        W99929   8.240  20.597  11.035
27505W        W99930  11.164  35.942  12.489
27506W        W99931  10.875  35.098  13.828
27507W        W99932   5.324  43.020   1.381
27508W        W99933  35.885  15.150  14.852
27509W        W99934  25.539  27.682   0.827
27510W        W99935  28.060  14.322  12.388
27511W        W99936  13.213  39.830   3.386
27512W        W99937  14.269  33.063  10.892
27513W        W99938   0.820  28.973  14.921
27514W        W99939   0.792   3.895  11.419
27515W        W99940   2.399   9.651  13.994
27516W        W99941  24.178  10.861   5.154
27517W        W99942  29.018  29.489   2.727
27518W        W99943  27.637   2.432   4.752
27519W        W99944  35.939  31.123  14.342
27520W        W99945  19.647   1.856  12.926
27521W        W99946  11.805  36.882   0.475
27522W        W99947  27.128  26.480   3.771
27523W        W99948  27.677   8.250  13.045
27524W        W99949  15.136  35.556   1.807
27525W        W99950  19.584  42.486   3.807
27526W        W99951  36.367  28.560   0.791
27527W        W99952  36.934  43.382  11.913
27528W        W99953  26.075  21.100   0.416
27529W        W99954  27.688  31.055  13.965
27530W        W99955  21.722  34.601   3.155
27531W        W99956  17.603  23.032   0.441
27532W        W99957   9.871   4.402  14.826
27533W        W99958   0.302  33.942  13.367
27534W        W99959  29.942  12.343  13.508
27535W        W99960  42.845  25.179  11.489
27536W        W99961  29.970  30.503   4.698
27537W        W99962   7.743  22.161  12.957
27538W        W99963  34.422  29.172   2.350
27539W        W99964   9.361  27.460  10.412
27540W        W99965  27.949   3.388   2.243
27541W        W99966  19.199  44.331  14.353
27542W        W99967  39.892  12.674   0.404
27543W        W99968  18.261  26.651  12.449
27544W        W99969  24.015  25.006  10.096
27545W        W99970  20.205  26.063   3.191
27546W        W99971  15.153  10.816  10.527
27547W        W99972  29.649  30.490   0.446
27548W        W99973  21.702  44.451  10.156
27549W        W99974  31.977   1.429  10.558
27550W        W99975  12.167   9.177  14.008
27551W        W99976   0.375  34.888  12.874
27552W        W99977  29.619  13.841  11.395
27553W        W99978  37.559  43.494   1.236
27554W        W99979  33.516  15.089  14.859
27555W        W99980   4.797  17.215  12.878
27556W        W99981  23.165  41.462  11.491
27557W        W99982  16.637  30.060  14.764
27558W        W99983  25.047   1.437  11.985
27559W        W99984  32.433  44.889   4.154
27560W        W99985  17.776  43.968  11.079
27561W        W99986  38.044   2.386  13.991
27562W        W99987  15.254   6.211   0.397
27563W        W99988   8.384  18.555  13.548
27564W        W99989  18.561  12.138  12.544
27565W        W99990  23.096   1.483   3.870
27566W        W99991  18.075  27.606  14.978
27567W        W99992  14.698  41.863   1.272
27568W        W99993  34.432  29.483  13.043
27569W        W99994  34.988  40.303  10.485
27570W        W99995  37.900   8.744   1.852
27571W        W99996  33.549  41.436  14.931
27572W        W99997   4.863   9.342   2.810
27573W        W99998  36.445  27.182   2.259
27574W        W99999  16.744  41.429   4.656
27575W        W    0  38.514  24.718   1.924
27576W        W    1  38.007  25.481   3.360
27577W        W    2  31.979   5.413  13.852
27578W        W    3  21.638   1.470   1.237
27579W        W    4   5.786  19.277  10.986
27580W        W    5  18.625   8.173   3.764
27581W        W    6  30.597  27.132   0.370
27582W        W    7   8.785  23.619  14.499
27583W        W    8  44.901  27.452   1.310
27584W        W    9  27.942   5.879   2.817
27585W        W   10  15.683  26.118  10.441
27586W        W   11  10.698   7.345   1.813
27587W        W   12  40.812  23.712   1.844
27588W        W   13  11.706  39.512   1.446
27589W        W   14   6.406  30.102  12.082
27590W        W   15  17.637  32.396   0.875
27591W        W   16  24.976  38.460  13.832
27592W        W   17  37.966  19.181  13.990
27593W        W   18  21.551   5.424  13.899
27594W        W   19   7.178  26.649  14.022
27595W        W   20  27.625   8.161  11.591
27596W        W   21  43.415  26.027   1.222
27597W        W   22   1.745  19.744   4.280
27598W        W   23  21.095  14.829  13.470
27599W        W   24   2.829  24.681  14.029
27600W        W   25  38.531  13.105   4.151
27601W        W   26  23.513   9.373  13.539
27602W        W   27  38.994   4.235   2.410
27603W        W   28  22.059  29.536   1.816
27604W        W   29  35.482  39.844   2.208
27605W        W   30  38.878  36.946  12.484
27606W        W   31  25.163  43.335   3.325
27607W        W   32  34.039  31.963   1.245
27608W        W   33  20.138   9.380   3.161
27609W        W   34  28.061   7.211   0.859
27610W        W   35  31.970  33.019  13.321
27611W        W   36  42.375   7.254   2.886
27612W        W   37   5.325  32.530  12.092
27613W        W   38   5.233  32.053  13.939
27614W        W   39  38.018  12.146   3.792
27615W        W   40  12.320  12.748  10.983
27616W        W   41   0.748  42.313  14.807
27617W        W   42  18.187  32.577  13.977
27618W        W   43   1.369  23.702  14.938
27619W        W   44  21.184  40.321  13.936
27620W        W   45  35.965   5.892  12.451
27621W        W   46  28.559   5.848   2.241
27622W        W   47  18.095  22.093   1.295
27623W        W   48  37.867  34.936   0.962
27624W        W   49  25.185  11.330  13.910
27625W        W   50   2.922  33.911   0.364
27626W        W   51  19.103  38.891  13.978
27627W        W   52  33.015  33.422   0.418
27628W        W   53  27.027   3.768   2.185
27629W        W   54   3.770  40.879   1.914
27630W        W   55  28.010  42.407   1.840
27631W        W   56  36.447  15.587  14.337
27632W        W   57   1.454  29.102   3.706
27633W        W   58  38.381  26.961  13.839
27634W        W   59   7.769  15.226   3.341
27635W        W   60  42.880  43.311  13.510
27636W        W   61   8.694  23.548   1.291
27637W        W   62  29.982  44.303   3.380
27638W        W   63   3.769  41.495  12.411
27639W        W   64  43.868  10.676  12.906
27640W        W   65  25.106  12.328  11.883
27641W        W   66  12.701  27.511  11.977
27642W        W   67  25.131   2.367  11.127
27643W        W   68  24.201  19.758  14.287
27644W        W   69  12.206   7.236  10.918
27645W        W   70  38.975  17.067  10.629
27646W        W   71  17.567   7.313  13.525
27647W        W   72  41.330  24.134   2.818
27648W        W   73  30.418  17.136  12.365
27649W        W   74  22.694  11.693   1.877
27650W        W   75  27.566  19.123   4.122
27651W        W   76  37.577  38.440  12.846
27652W        W   77  30.155  10.860  13.374
27653W        W   78   2.388  18.233  11.023
27654W        W   79   3.760  19.182  14.386
27655W        W   80  13.827   6.849  12.878
27656W        W   81   3.362  43.853   3.267
27657W        W   82  20.726  25.193   0.435
27658W        W   83   4.414  35.861   1.246
27659W        W   84  22.238  14.669  11.519
27660W        W   85  18.132  33.524  14.901
27661W        W   86  23.068   5.380  11.006
27662W        W   87   2.284  15.227   2.197
27663W        W   88  31.569   8.225  12.339
27664W        W   89  31.025  41.989   2.743
27665W        W   90  12.239  20.059   0.409
27666W        W   91  32.024  14.337   1.865
27667W        W   92  30.571  35.549  14.988
27668W        W   93  42.976  19.575   4.263
27669W        W   94  11.685  36.973  14.975
27670W        W   95  29.516  42.848  14.802
27671W        W   96  22.051   4.444   2.292
27672W        W   97  38.852  21.719   3.719
27673W        W   98  14.244  42.443  12.496
27674W        W   99  27.610  14.809   2.806
27675W        W  100  37.507  23.200   4.747
27676W        W  101  44.383  42.013   1.739
27677W        W  102  19.663  35.076  14.437
27678W        W  103   3.762  22.247   1.818
27679W        W  104  30.490  14.782  10.468
27680W        W  105  35.552  12.253   0.863
27681W        W  106   7.176  11.754   0.729
27682W        W  107  24.178  41.894   1.922
27683W        W  108  14.749  28.599  10.954
27684W        W  109  28.161   4.848   4.726
27685W        W  110  32.017  11.725   0.946
27686W        W  111  42.012  32.013   0.422
27687W        W  112  26.158  32.608  14.381
27688W        W  113  31.455  40.322  14.468
27689W        W  114   5.720  29.924  10.970
27690W        W  115  27.687  13.650  13.799
27691W        W  116  22.593  26.957  12.396
27692W        W  117  26.081  19.250   0.440
27693W        W  118  21.147  33.949  13.522
27694W        W  119  27.575  28.949  12.967
27695W        W  120  30.515  43.311  14.462
27696W        W  121  26.167  22.721   2.183
27697W        W  122  20.246   5.736  13.488
27698W        W  123  29.048  39.529  10.531
27699W        W  124  15.217  33.990  14.356
27700W        W  125  31.045  13.227   0.463
27701W        W  126   0.277   3.417   3.345
27702W        W  127   3.351  28.617  10.993
27703W        W  128  32.946   1.357   1.724
27704W        W  129  26.106   2.778   3.203
27705W        W  130  33.527  11.180   1.368
27706W        W  131   0.934   2.770   0.737
27707W        W  132   5.214   8.886   2.237
27708W        W  133  36.965  29.578   2.352
27709W        W  134   1.445  34.494   4.771
27710W        W  135  40.000   8.231  14.875
27711W        W  136  32.102  39.893  14.293
27712W        W  137  31.144  31.100   0.827
27713W        W  138  38.038   6.343  12.551
27714W        W  139  17.098  18.741  10.155
27715W        W  140  10.702  17.142  10.465
27716W        W  141  25.663  35.457  14.340
27717W        W  142  20.133   1.769  13.508
27718W        W  143  24.133  44.867   0.904
27719W        W  144  12.355  12.623   3.163
27720W        W  145  13.233  21.560  10.547
27721W        W  146  37.859  31.531   3.187
27722W        W  147   9.776   1.465  11.560
27723W        W  148  15.652  35.902  14.319
27724W        W  149  11.214  39.969   3.705
27725W        W  150  29.648  11.177   4.278
27726W        W  151  31.574   8.698  11.861
27727W        W  152  19.591  11.782   1.261
27728W        W  153  37.864  15.194   3.341
27729W        W  154  15.098   2.820  14.789
27730W        W  155  37.924   0.897   4.838
27731W        W  156  16.668  30.500  10.478
27732W        W  157  23.495   2.857   3.346
27733W        W  158  20.106  32.131  13.853
27734W        W  159  39.013  26.463   4.117
27735W        W  160   1.871  41.478  12.399
27736W        W  161  10.253  28.131   1.841
27737W        W  162  21.721   8.786  12.366
27738W        W  163  24.553  30.619  11.545
27739W        W  164  39.940  22.999  11.006
27740W        W  165  44.797  32.893   2.789
27741W        W  166  28.458  43.367  10.582
27742W        W  167   2.753  33.511   4.745
27743W        W  168  25.693  14.743  11.556
27744W        W  169  33.496  22.690  13.522
27745W        W  170   2.893  22.197  11.439
27746W        W  171  25.599  26.554   2.347
27747W        W  172  38.069  14.713  11.428
27748W        W  173  26.533   0.463   2.306
27749W        W  174  18.238  16.810   2.335
27750W        W  175  33.616  33.475   0.810
27751W        W  176  11.858  39.961   1.407
27752W        W  177  20.144  12.331   3.712
27753W        W  178  13.351  28.073  13.455
27754W        W  179  20.533  28.442   0.425
27755W        W  180  35.918  37.537  12.569
27756W        W  181   6.211  23.531  11.559
27757W        W  182  22.157  20.112   3.293
27758W        W  183  33.080  41.315   3.183
27759W        W  184   1.367  36.354  11.538
27760W        W  185  21.067   0.921  12.346
27761W        W  186  43.017  35.955   1.262
27762W        W  187   6.291  32.627   0.468
27763W        W  188  22.095  15.260   2.261
27764W        W  189  26.183  40.447   3.670
27765W        W  190  37.850  24.205  12.017
27766W        W  191   7.772  23.108   2.809
27767W        W  192  20.612   9.152   1.728
27768W        W  193  11.756  21.686  13.791
27769W        W  194  42.849  19.124  11.882
27770W        W  195  12.268  11.626  13.882
27771W        W  196  36.428  28.015   4.636
27772W        W  197  20.606  27.968  10.570
27773W        W  198  29.919  29.562  13.037
27774W        W  199  23.718   2.885  14.792
27775W        W  200  18.692   0.254   1.839
27776W        W  201  34.023  43.864   2.294
27777W        W  202  39.964  31.443  12.489
27778W        W  203   7.179   0.945  11.095
27779W        W  204  22.545  27.454  12.567
27780W        W  205  31.462   7.746   3.750
27781W        W  206  14.246   1.251  11.044
27782W        W  207  11.156  30.596  14.996
27783W        W  208  12.213  19.664  14.287
27784W        W  209   7.297  28.990  11.077
27785W        W  210  17.075  12.698   1.777
27786W        W  211  16.203  38.395   0.258
27787W        W  212  36.005  32.072  13.059
27788W        W  213  42.507   5.720   2.251
27789W        W  214  44.361  37.388   5.174
27790W        W  215  42.338  14.224   4.635
27791W        W  216  25.110  35.013  11.901
27792W        W  217   0.767  28.083   2.411
27793W        W  218  20.719  27.688  11.058
27794W        W  219  25.153  26.555   1.292
27795W        W  220  31.482  29.079  12.058
27796W        W  221  26.679   9.676  13.830
27797W        W  222   6.844  38.062   3.159
27798W        W  223   8.258  37.911  11.009
27799W        W  224  37.046  27.025  14.282
27800W        W  225  43.301  31.404   4.639
27801W        W  226  23.008  21.628  12.451
27802W        W  227   2.240  44.823   4.298
27803W        W  228   8.366  20.066  14.814
27804W        W  229  35.472  40.503   4.722
27805W        W  230   9.373  17.287   4.278
27806W        W  231  43.423   4.773   2.414
27807W        W  232  13.144  28.129  12.038
27808W        W  233  43.918   5.717   4.133
27809W        W  234  30.440  41.013   0.902
27810W        W  235   2.277   8.230   3.371
27811W        W  236  41.370  21.149  11.922
27812W        W  237   7.909  30.916  12.380
27813W        W  238   8.280  19.175   3.837
27814W        W  239   2.912  42.482  14.850
27815W        W  240  41.392   3.928  13.047
27816W        W  241  39.485  14.657  12.954
27817W        W  242  31.443  19.666   3.244
27818W        W  243  12.270   5.428  13.060
27819W        W  244  36.875  28.449  10.559
27820W        W  245  36.053  10.263   2.222
27821W        W  246  25.683  23.721   3.738
27822W        W  247  10.860  25.646   3.327
27823W        W  248   0.927  17.165   5.267
27824W        W  249   1.934   2.441   0.468
27825W        W  250  21.076  27.195   2.885
27826W        W  251  31.582  11.680  13.936
27827W        W  252   0.353  39.500  12.826
27828W        W  253   3.297  24.187  13.985
27829W        W  254  13.283  35.400  10.966
27830W        W  255  25.030   1.961  10.486
27831W        W  256   3.260  18.260   4.141
27832W        W  257  12.663  44.480   1.415
27833W        W  258  27.005  15.607  12.983
27834W        W  259  37.011   3.296   0.729
27835W        W  260  29.439  10.374   1.912
27836W        W  261  18.696   5.246  11.998
27837W        W  262  10.184   8.704   3.738
27838W        W  263  41.892   4.333  12.025
27839W        W  264  31.984  41.824   0.255
27840W        W  265  19.739  44.319  14.291
27841W        W  266   2.917  15.720   0.304
27842W        W  267  34.941  32.134  12.909
27843W        W  268  37.990   5.213   2.218
27844W        W  269   5.395  13.628  12.459
27845W        W  270  28.175   3.309  10.971
27846W        W  271  35.497  31.528   0.752
27847W        W  272   2.252  34.379  13.882
27848W        W  273  34.947   5.339  14.335
27849W        W  274  24.625  35.363   3.264
27850W        W  275  28.948  44.776  14.796
27851W        W  276  38.845  38.560  13.486
27852W        W  277   4.866  27.476  11.857
27853W        W  278   2.302  32.886  11.597
27854W        W  279  10.187  34.469  13.395
27855W        W  280   6.793  37.884   9.632
27856W        W  281  22.233  10.756   5.113
27857W        W  282  19.085  16.598  11.094
27858W        W  283   6.222  35.853   0.889
27859W        W  284  34.088  20.091  13.422
27860W        W  285  39.468  29.949   1.778
27861W        W  286  43.495  29.536   4.140
27862W        W  287  33.393  17.648   4.686
27863W        W  288  22.055  44.458   3.248
27864W        W  289  37.902  38.885  11.439
27865W        W  290  25.620   2.938  11.430
27866W        W  291  13.343  40.405  13.928
27867W        W  292  18.234  11.246   2.354
27868W        W  293  40.936  25.173  13.539
27869W        W  294   3.887  40.859   3.173
27870W        W  295  34.060   4.854  13.507
27871W        W  296  12.706  24.571   1.845
27872W        W  297  21.147  38.072  10.455
27873W        W  298  17.591   6.916   1.811
27874W        W  299  41.446   1.825  13.974
27875W        W  300  32.631   8.322   0.831
27876W        W  301  42.024  25.199  13.482
27877W        W  302  31.946  29.000   3.748
27878W        W  303  10.770  20.716   4.328
27879W        W  304  31.907  34.017  11.947
27880W        W  305  35.954  27.001  10.620
27881W        W  306  28.159  24.001   0.834
27882W        W  307  25.159  35.447  10.469
27883W        W  308   1.869  39.530   2.761
27884W        W  309   8.863  44.400   5.147
27885W        W  310  32.568  33.427  12.981
27886W        W  311  28.611   2.303  10.934
27887W        W  312  21.019  23.103  11.116
27888W        W  313  16.766  22.633  11.551
27889W        W  314  38.345  13.846   3.647
27890W        W  315   3.438  27.576  13.487
27891W        W  316  38.381   5.835   2.700
27892W        W  317  21.134  21.237   3.344
27893W        W  318  15.282  41.852  14.443
27894W        W  319  15.798  18.205  13.877
27895W        W  320  21.732  34.104  14.332
27896W        W  321  11.804  28.550   2.183
27897W        W  322   8.298  30.611  14.759
27898W        W  323   0.270   4.735   0.391
27899W        W  324   0.462  13.776  13.016
27900W        W  325   1.889  30.025   1.215
27901W        W  326  39.522  38.916   3.219
27902W        W  327  12.797  14.142  11.017
27903W        W  328   2.958  16.651   3.328
27904W        W  329  17.615  44.851   2.343
27905W        W  330  27.491  22.612   2.702
27906W        W  331   7.196  15.234  11.602
27907W        W  332  31.488   9.283  10.590
27908W        W  333   9.223  31.484   1.709
27909W        W  334   7.276  15.199  14.975
27910W        W  335  29.165  35.558  10.457
27911W        W  336  34.961  13.821  14.362
27912W        W  337   5.431  41.039   1.695
27913W        W  338  21.737  21.208   0.967
27914W        W  339  43.308  10.325   0.283
27915W        W  340   2.303  33.066  13.353
27916W        W  341  11.310  32.447   4.204
27917W        W  342  42.803  37.899  11.013
27918W        W  343   1.800  21.190  13.958
27919W        W  344  35.016  30.590  11.051
27920W        W  345  37.529   1.261   1.287
27921W        W  346  32.015  38.497  12.034
27922W        W  347  11.796  37.553  10.432
27923W        W  348  12.357  24.157   0.930
27924W        W  349  10.264  25.689  11.015
27925W        W  350  11.310  11.632  10.901
27926W        W  351  29.017  36.895   1.452
27927W        W  352  29.477  12.361  13.410
27928W        W  353  42.856  41.825   5.148
27929W        W  354  40.407  40.327   4.660
27930W        W  355  35.951  33.528   5.237
27931W        W  356  15.084   8.769   2.677
27932W        W  357  23.125  14.137  14.492
27933W        W  358  24.575  25.531   2.383
27934W        W  359  10.378  24.518  12.482
27935W        W  360  32.908  24.484   4.211
27936W        W  361  37.373  26.012   0.864
27937W        W  362  13.157  43.418   1.425
27938W        W  363   5.222  19.154  11.518
27939W        W  364  41.320  37.512  14.316
27940W        W  365  16.718  28.959   4.821
27941W        W  366  24.974  19.567   0.925
27942W        W  367  40.981  20.619  14.022
27943W        W  368  27.088  37.932  13.830
27944W        W  369  10.786  35.956   2.352
27945W        W  370   5.204  12.159  13.845
27946W        W  371   9.365   3.344  10.566
27947W        W  372   5.899  22.124   2.890
27948W        W  373  40.325  17.574   3.821
27949W        W  374  24.008   6.383  11.394
27950W        W  375   0.920  14.784  13.519
27951W        W  376  13.315  13.684   1.826
27952W        W  377   8.307  14.277   3.362
27953W        W  378   6.782  28.994   1.279
27954W        W  379  40.524   5.749  12.043
27955W        W  380  14.663   7.325  13.837
27956W        W  381   7.335  39.438  13.495
27957W        W  382  35.037   0.750  13.358
27958W        W  383   0.766  34.608  12.057
27959W        W  384  39.362  44.857   5.293
27960W        W  385  29.966  26.024  11.588
27961W        W  386  36.933  39.550  14.917
27962W        W  387   6.255  44.395   3.642
27963W        W  388  21.062  12.701   1.828
27964W        W  389  30.956  42.485   1.906
27965W        W  390  23.648  27.984   0.760
27966W        W  391  39.874  26.699   2.887
27967W        W  392  40.996  25.555  12.015
27968W        W  393  18.213  10.637   2.819
27969W        W  394  23.658  22.141   1.423
27970W        W  395  43.490  40.907  13.463
27971W        W  396  28.532  10.869   1.220
27972W        W  397  32.095  36.420   1.330
27973W        W  398  33.389  37.874  12.566
27974W        W  399  12.208  38.349  11.122
27975W        W  400  39.486  44.386   3.193
27976W        W  401  26.055  41.923  14.394
27977W        W  402  19.177  28.074  14.362
27978W        W  403  41.435  23.208   2.367
27979W        W  404  36.042  11.740   1.308
27980W        W  405   1.930  21.105   5.140
27981W        W  406  33.903  44.478  12.379
27982W        W  407  27.172  37.457   3.776
27983W        W  408  21.570  42.937   5.145
27984W        W  409   5.276   2.744  13.860
27985W        W  410  10.223  25.023   0.262
27986W        W  411   9.174  38.073  13.905
27987W        W  412   1.369  41.810   4.150
27988W        W  413  39.537  29.499   0.330
27989W        W  414  36.917  39.810  11.994
27990W        W  415  39.470  30.553   0.956
27991W        W  416  44.800  35.520   2.672
27992W        W  417  23.204  38.031   3.841
27993W        W  418  28.596  41.953   0.382
27994W        W  419   7.316  29.583   1.321
27995W        W  420  30.629   9.658  13.926
27996W        W  421  42.948  35.548   0.787
27997W        W  422  33.906  30.633  14.902
27998W        W  423  30.493  27.644  13.799
27999W        W  424   5.310  18.607   0.263
28000W        W  425  28.627  34.586  11.075
28001W        W  426   0.931  28.604  12.520
28002W        W  427  17.556  40.036  14.392
28003W        W  428  38.467  21.121  13.989
28004W        W  429  12.846  26.978  13.932
28005W        W  430  30.539   8.383  11.008
28006W        W  431  19.745   9.376  12.453
28007W        W  432   8.703  35.546  14.979
28008W        W  433  28.172  27.130   0.279
28009W        W  434  12.191   0.834   2.379
28010W        W  435   2.346  44.939  11.922
28011W        W  436   2.403  18.556   0.272
28012W        W  437   9.249  17.300   2.299
28013W        W  438  44.350  35.881   0.404
28014W        W  439  18.248  44.435  13.994
28015W        W  440  36.935  22.612   5.303
28016W        W  441  34.467  27.517  12.849
28017W        W  442  41.349  11.167   1.295
28018W        W  443  37.502   8.326  13.052
28019W        W  444   4.927  11.777   0.293
28020W        W  445  18.289  15.205   0.471
28021W        W  446   6.913   7.861   2.871
28022W        W  447  20.734   7.822   2.882
28023W        W  448  41.034  32.925  13.058
28024W        W  449   6.853   2.231   4.687
28025W        W  450  22.157  28.984  12.560
28026W        W  451  32.040  43.953   3.159
28027W        W  452  44.488  23.672  14.983
28028W        W  453  15.588  42.868  12.354
28029W        W  454  19.682  25.131   4.203
28030W        W  455  12.194  28.573   2.385
28031W        W  456  25.687  21.577  13.420
28032W        W  457  44.999  39.859  12.881
28033W        W  458  22.598  39.445  12.007
28034W        W  459  41.998  37.076  14.405
28035W        W  460  16.677  36.520  14.380
28036W        W  461  26.994  28.149  12.433
28037W        W  462  24.213  25.996  12.878
28038W        W  463  42.974  34.085  12.071
28039W        W  464  12.321  36.022   0.849
28040W        W  465  41.512  18.106  13.898
28041W        W  466  17.187  23.608  12.035
28042W        W  467  15.143  11.750   2.899
28043W        W  468  40.937  26.164   0.772
28044W        W  469  39.016   9.825  11.110
28045W        W  470  32.602  35.468  13.834
28046W        W  471  19.170  34.377   4.235
28047W        W  472  41.023   8.718   5.268
28048W        W  473   4.855  26.542  13.307
28049W        W  474  16.114  40.930  14.427
28050W        W  475  37.348  31.112   2.304
28051W        W  476   7.199   9.352  11.441
28052W        W  477   3.419   5.811   3.165
28053W        W  478  25.074  25.141  14.374
28054W        W  479  41.525  17.556   4.175
28055W        W  480  25.097  32.911  14.784
28056W        W  481  40.337  20.126   1.712
28057W        W  482  18.115  39.500   0.379
28058W        W  483  29.942  37.423   1.705
28059W        W  484  26.146  20.230  13.999
28060W        W  485  22.129  19.117   3.783
28061W        W  486  44.977  21.224  12.955
28062W        W  487  25.185  21.072   4.730
28063W        W  488  36.573  28.578   2.329
28064W        W  489  24.139  20.528   1.275
28065W        W  490  44.421  12.697   1.920
28066W        W  491  16.750  34.505  13.312
28067W        W  492  25.090  13.692   3.245
28068W        W  493   2.828  18.163   0.273
28069W        W  494  32.563  16.194  12.403
28070W        W  495  20.132  18.264   2.234
28071W        W  496  28.632  35.388   2.695
28072W        W  497  12.760  41.000   4.270
28073W        W  498  12.814   5.402   2.370
28074W        W  499  24.030  44.999  11.537
28075W        W  500  30.012  23.632   0.802
28076W        W  501   8.369   9.671  14.352
28077W        W  502  20.230  34.476   0.429
28078W        W  503  36.392  14.799   3.356
28079W        W  504  15.738  28.542  10.637
28080W        W  505  40.890  11.706   2.898
28081W        W  506  24.129   6.917  14.010
28082W        W  507   5.740   1.432  12.555
28083W        W  508  18.576   8.696   3.736
28084W        W  509  36.920  11.694   0.288
28085W        W  510   5.363  26.140   3.223
28086W        W  511  38.902  13.621   0.375
28087W        W  512   4.436  42.350   4.756
28088W        W  513  44.802  22.654   1.212
28089W        W  514  15.103   3.938  12.482
28090W        W  515   0.932  35.073   0.417
28091W        W  516  39.475  20.266  14.405
28092W        W  517  22.144  28.028  11.506
28093W        W  518   8.251  35.939  14.767
28094W        W  519  19.263   8.334   4.825
28095W        W  520  17.145  20.695   2.670
28096W        W  521  40.977  25.042   0.465
28097W        W  522  35.856  42.377  10.930
28098W        W  523  21.202  14.604  14.845
28099W        W  524  10.841   7.674  13.000
28100W        W  525  11.283   4.370   4.143
28101W        W  526  32.559  20.144  13.042
28102W        W  527  38.828  14.619  10.410
28103W        W  528  40.500  39.528   2.387
28104W        W  529   9.222  44.768   0.302
28105W        W  530  35.400  37.576   3.145
28106W        W  531  16.104  31.541  12.501
28107W        W  532  19.720  28.466  11.395
28108W        W  533   7.258  37.347  10.999
28109W        W  534  21.628  42.905   0.897
28110W        W  535   8.395   7.885  13.863
28111W        W  536  37.026   8.310   1.425
28112W        W  537  40.383   6.840   4.630
28113W        W  538  28.963  38.971   2.221
28114W        W  539  38.381  12.138   0.843
28115W        W  540  16.638  26.557  12.954
28116W        W  541  31.552  41.485  10.513
28117W        W  542  39.555  30.608   4.646
28118W        W  543  34.467  31.622   1.219
28119W        W  544  25.620  41.467   5.198
28120W        W  545  27.628  39.388   4.782
28121W        W  546  28.072  14.251   0.731
28122W        W  547  17.261  35.454   4.703
28123W        W  548   8.884   1.783   1.927
28124W        W  549   1.266   8.185   3.858
28125W        W  550  27.591   3.304  13.804
28126W        W  551  43.837   6.245  14.410
28127W        W  552   5.381  18.739  12.383
28128W        W  553  37.924  44.884   2.704
28129W        W  554   5.837  12.163  12.833
28130W        W  555   3.710   3.433   4.724
28131W        W  556  11.703  36.467  12.518
28132W        W  557  39.467  43.863  10.979
28133W        W  558  31.964  30.957   3.639
28134W        W  559  40.005  27.661  10.958
28135W        W  560  19.780  20.171   3.789
28136W        W  561  18.203  26.548  11.371
28137W        W  562  37.551  23.235  13.838
28138W        W  563  38.027  11.679   1.794
28139W        W  564  33.973   6.349  14.836
28140W        W  565   9.838  30.600   1.811
28141W        W  566  23.647  43.896   0.479
28142W        W  567   6.890  37.413   5.783
28143W        W  568  35.414  26.125  11.599
28144W        W  569  27.675   4.226   1.350
28145W        W  570  26.152   3.444  13.798
28146W        W  571  31.947  17.725   3.277
28147W        W  572  24.497   6.918   2.377
28148W        W  573  35.937  16.175  10.998
28149W        W  574  22.175  30.127   2.329
28150W        W  575  10.358  41.412  14.915
28151W        W  576   0.302  33.027   3.205
28152W        W  577   2.903  26.037   1.849
28153W        W  578  10.672  16.174  11.424
28154W        W  579  12.171  27.105   1.278
28155W        W  580  16.274  44.505  13.527
28156W        W  581  36.097  27.449  13.358
28157W        W  582  19.059   7.893   3.841
28158W        W  583  27.622  39.365  13.919
28159W        W  584  20.737   0.368   0.471
28160W        W  585  24.675   1.312   3.705
28161W        W  586  11.837   7.849  14.858
28162W        W  587  18.144  13.318  14.493
28163W        W  588  36.072  16.714   3.255
28164W        W  589  13.270  42.917   2.337
28165W        W  590  37.406   8.189  14.285
28166W        W  591   9.818   5.733   4.641
28167W        W  592   9.257  27.689  12.088
28168W        W  593  11.238   2.773   4.204
28169W        W  594  43.844  22.995  13.040
28170W        W  595  44.330  14.339  10.479
28171W        W  596  27.637  14.291  11.866
28172W        W  597  13.238  11.222  10.641
28173W        W  598  21.670  12.241   2.256
28174W        W  599  23.057  25.638  10.464
28175W        W  600  27.507  27.652   3.184
28176W        W  601  21.029  28.654   1.344
28177W        W  602  11.273  25.000   1.717
28178W        W  603  41.390   0.490  14.883
28179W        W  604  39.540  33.937   2.363
28180W        W  605  10.199  32.006  14.399
28181W        W  606  25.063   3.310  10.082
28182W        W  607   7.716  35.370   4.837
28183W        W  608   3.341  25.708  13.985
28184W        W  609  16.296  43.302   4.771
28185W        W  610   4.831  19.645  10.991
28186W        W  611  16.220   5.748  12.890
28187W        W  612  12.649   8.708  11.064
28188W        W  613  20.110  23.690  14.965
28189W        W  614   1.412  13.205   2.764
28190W        W  615  22.103  14.718  11.951
28191W        W  616  14.628  29.606   5.311
28192W        W  617  26.023  32.018   1.910
28193W        W  618   1.345   8.661  14.851
28194W        W  619  39.542  22.670  14.020
28195W        W  620  17.162  34.087   0.789
28196W        W  621  37.514  41.911  13.943
28197W        W  622  33.533  37.071  13.798
28198W        W  623  17.111  20.640  10.490
28199W        W  624  16.605   6.393   2.840
28200W        W  625  43.765   8.388   2.291
28201W        W  626  12.197  16.710  14.811
28202W        W  627  26.056  14.833   0.917
28203W        W  628  13.296  28.149   3.212
28204W        W  629  36.041  35.501  11.587
28205W        W  630  13.754  21.115   3.805
28206W        W  631   8.232  41.891   1.237
28207W        W  632  14.723  42.500  13.924
28208W        W  633  42.347  15.779   0.777
28209W        W  634   5.743  40.036  10.580
28210W        W  635   1.969   0.384   4.656
28211W        W  636  37.389   5.413  14.821
28212W        W  637   2.373  24.001  11.476
28213W        W  638   9.266  27.607  11.111
28214W        W  639  14.677  12.140   0.315
28215W        W  640  41.341  40.377  12.548
28216W        W  641  34.467  26.504  10.495
28217W        W  642  14.737  18.233   5.225
28218W        W  643  21.545  18.629  11.490
28219W        W  644  31.532  15.154  14.413
28220W        W  645  33.083  13.796  10.631
28221W        W  646  20.144   7.411   5.158
28222W        W  647  39.049   6.285   0.802
28223W        W  648  43.468  24.556  12.839
28224W        W  649  39.447  10.329  12.534
28225W        W  650  16.084   6.715  14.329
28226W        W  651  21.079  30.930  13.493
28227W        W  652   6.393   6.715  14.020
28228W        W  653  16.146   2.425   5.180
28229W        W  654  33.997  35.433  11.567
28230W        W  655  13.620  23.207  11.955
28231W        W  656  38.533  42.472   0.425
28232W        W  657   6.818   9.652  12.024
28233W        W  658  39.914  31.489   3.231
28234W        W  659  20.098  18.733   2.403
28235W        W  660  28.550   6.839   0.967
28236W        W  661  44.299   7.291   1.308
28237W        W  662   8.745  42.397   2.667
28238W        W  663   4.874  43.882  12.943
28239W        W  664  42.983  32.024  12.063
28240W        W  665   9.264  44.856  11.593
28241W        W  666  36.434  15.647  14.949
28242W        W  667  40.959  26.611  11.881
28243W        W  668  20.036  19.725   5.274
28244W        W  669   2.937  25.151  10.515
28245W        W  670   3.317  25.474  11.483
28246W        W  671  15.213  34.881  14.015
28247W        W  672  12.664  39.330   4.269
28248W        W  673  21.625   1.349   4.211
28249W        W  674  12.316  22.653   1.699
28250W        W  675  17.743  28.645   0.813
28251W        W  676  36.922  23.637   2.798
28252W        W  677  43.826  21.610   0.336
28253W        W  678  17.105  32.484  14.979
28254W        W  679   3.885  16.664  12.383
28255W        W  680  43.404  29.547   0.252
28256W        W  681  43.919  10.859  14.444
28257W        W  682  11.713  20.744  12.853
28258W        W  683   2.873   7.674  13.950
28259W        W  684  33.113  38.398  14.786
28260W        W  685  11.660  40.537   4.200
28261W        W  686  34.960  44.383  10.031
28262W        W  687  13.186  35.516   0.804
28263W        W  688  38.535  32.895   2.770
28264W        W  689  40.439  41.955  10.024
28265W        W  690   9.789  42.990   3.329
28266W        W  691  11.809  43.509   1.930
28267W        W  692  41.807  30.632  11.996
28268W        W  693   8.217  34.530  14.795
28269W        W  694  23.190  33.568  10.427
28270W        W  695   2.270  24.678  12.483
28271W        W  696   8.258  42.512   1.386
28272W        W  697   2.867  12.638  13.833
28273W        W  698  32.996  39.435   0.455
28274W        W  699  19.563  27.181   2.901
28275W        W  700   7.675  29.600  10.436
28276W        W  701  15.210   0.853  12.436
28277W        W  702  30.554  16.117  14.898
28278W        W  703  35.965   8.359   2.764
28279W        W  704   5.347  39.812  13.352
28280W        W  705   4.442  25.601   1.338
28281W        W  706  37.869  25.564   2.412
28282W        W  707  30.943   9.753   4.708
28283W        W  708  15.600  37.390  11.935
28284W        W  709  31.119   8.732  10.996
28285W        W  710  27.671  20.759  13.009
28286W        W  711  39.397  27.489  11.958
28287W        W  712  31.520  30.633  12.350
28288W        W  713  32.553  19.554  13.934
28289W        W  714  39.968  11.841  12.972
28290W        W  715  36.882   2.962  12.358
28291W        W  716  32.440  15.295   0.769
28292W        W  717  11.149  26.083  13.417
28293W        W  718  15.686  37.501   3.232
28294W        W  719  15.581  13.318   4.263
28295W        W  720  21.549   1.270  11.462
28296W        W  721   2.429  36.907   4.694
28297W        W  722   6.692  15.186  14.790
28298W        W  723  26.996  19.641   9.948
28299W        W  724  43.930   8.836  14.515
28300W        W  725   7.196  17.287  14.933
28301W        W  726  37.935  43.876   5.706
28302W        W  727  41.915   0.348  10.935
28303W        W  728   2.786  40.534   3.702
28304W        W  729  20.237  34.437  13.810
28305W        W  730  10.170  32.489  12.911
28306W        W  731  13.608  30.562   1.807
28307W        W  732  17.748  28.148   1.931
28308W        W  733  34.414  17.208  13.802
28309W        W  734   7.731  25.472   4.642
28310W        W  735  24.120   0.309   4.293
28311W        W  736  36.872  33.124  12.417
28312W        W  737  10.311  17.179  12.511
28313W        W  738  12.840  18.251  10.442
28314W        W  739  37.542  34.380   2.246
28315W        W  740  13.162  35.547  13.370
28316W        W  741  44.948   9.734   0.267
28317W        W  742  30.004  25.050   3.735
28318W        W  743  17.275   0.775  12.967
28319W        W  744   2.726   7.714   2.202
28320W        W  745  33.925   0.814  12.513
28321W        W  746  16.574  30.601  14.499
28322W        W  747  36.962  11.819   4.608
28323W        W  748  40.024  20.635   0.909
28324W        W  749  22.097  23.694  13.315
28325W        W  750  16.584  19.108  14.924
28326W        W  751  36.409   7.714  14.463
28327W        W  752  10.739  28.170  14.905
28328W        W  753  41.440  25.094  11.948
28329W        W  754  22.648  12.359   3.253
28330W        W  755  27.079  35.041   1.296
28331W        W  756  28.441   3.923  13.825
28332W        W  757   9.359  31.584   2.263
28333W        W  758  22.160  12.203  13.478
28334W        W  759  35.931   9.243  11.117
28335W        W  760  15.087  27.051  14.798
28336W        W  761   9.199  40.355   4.715
28337W        W  762  26.607   7.796   2.881
28338W        W  763  30.059  29.051  11.116
28339W        W  764  28.572  44.385  10.558
28340W        W  765  14.762  31.479  13.980
28341W        W  766  32.610  31.508  11.922
28342W        W  767   0.393  14.757   1.305
28343W        W  768   9.854  42.315   3.781
28344W        W  769  13.696  11.215  10.466
28345W        W  770  15.273   6.834   2.183
28346W        W  771  28.124   7.670  12.885
28347W        W  772  32.931  19.569   1.313
28348W        W  773  20.188  10.736   1.370
28349W        W  774  23.202  17.748   4.650
28350W        W  775  42.417   6.863  12.918
28351W        W  776  43.445  28.623  14.285
28352W        W  777  33.984   4.879  14.377
28353W        W  778  35.955  40.019   0.289
28354W        W  779  10.720   1.954  11.589
28355W        W  780  22.675  10.708   1.295
28356W        W  781  15.592  17.672   4.726
28357W        W  782  13.330  40.443   4.252
28358W        W  783  35.914  10.240  14.957
28359W        W  784  11.177  34.930   3.794
28360W        W  785  36.008   1.473   4.613
28361W        W  786  40.987  28.452  11.443
28362W        W  787  26.162   6.732  13.848
28363W        W  788  15.265  34.006  13.974
28364W        W  789   9.796  25.156  13.534
28365W        W  790  38.856  19.778   0.275
28366W        W  791  13.799  34.458   2.828
28367W        W  792  40.547  27.507   2.194
28368W        W  793  34.998   6.908  11.004
28369W        W  794  27.637  10.650   4.288
28370W        W  795  44.844   8.348  13.423
28371W        W  796  14.255  15.145  14.498
28372W        W  797   6.284  37.524  14.989
28373W        W  798  25.094  40.991  11.077
28374W        W  799   4.389  34.989   0.435
28375W        W  800  30.140  21.040   2.258
28376W        W  801  30.436  39.348  14.953
28377W        W  802  33.456   9.283   3.783
28378W        W  803  32.525  18.720   0.405
28379W        W  804  42.429  32.006  14.877
28380W        W  805  23.994  15.104   2.848
28381W        W  806  31.487   4.862   0.311
28382W        W  807  13.148   5.911  13.006
28383W        W  808   3.726  44.011  12.849
28384W        W  809  21.197  33.130  11.063
28385W        W  810   3.916   6.825  12.512
28386W        W  811  30.069  15.632   4.207
28387W        W  812   0.822   4.357  10.996
28388W        W  813  36.989  41.498   4.790
28389W        W  814   3.379   1.366   1.448
28390W        W  815  30.057  42.391   1.932
28391W        W  816   9.250  27.482  13.938
28392W        W  817  10.284  44.794   4.267
28393W        W  818  33.562  29.105   0.439
28394W        W  819  36.912  34.872  11.086
28395W        W  820  25.500  12.287   2.745
28396W        W  821   7.400  28.472  12.448
28397W        W  822  33.563   0.412   0.246
28398W        W  823  10.827  40.312  12.947
28399W        W  824  28.538   5.372  14.352
28400W        W  825  12.821  27.502   0.767
28401W        W  826  34.885  11.202  10.110
28402W        W  827  28.466  41.350  14.895
28403W        W  828  35.399   9.338  14.872
28404W        W  829  20.671   8.384  14.996
28405W        W  830  39.445  22.513   4.291
28406W        W  831  18.109   6.751  11.953
28407W        W  832  25.160  16.719  11.966
28408W        W  833  17.723  21.238  14.436
28409W        W  834  42.973  10.719   2.210
28410W        W  835  43.804   8.264  13.487
28411W        W  836  29.013   8.691   4.228
28412W        W  837  32.070  13.150  13.812
28413W        W  838  20.268   8.403   1.791
28414W        W  839  37.936  27.578  14.352
28415W        W  840   3.273  16.793  11.080
28416W        W  841  34.975  39.044   2.667
28417W        W  842  30.451  20.719  10.461
28418W        W  843  31.519  38.930   1.910
28419W        W  844  15.191   0.457   1.262
28420W        W  845   0.412  10.824  13.431
28421W        W  846  15.096   7.328   4.764
28422W        W  847  29.532  18.557  14.361
28423W        W  848  14.651  26.547   4.325
28424W        W  849  16.752  19.623   5.096
28425W        W  850  25.705  13.831   0.757
28426W        W  851  37.431   6.784  12.879
28427W        W  852   2.819  14.678  13.323
28428W        W  853  16.221  25.632   0.376
28429W        W  854   4.754   7.189  12.435
28430W        W  855  31.519   3.371   1.845
28431W        W  856  17.257   9.349   1.352
28432W        W  857   5.330  38.452   0.797
28433W        W  858   7.671  25.169   0.349
28434W        W  859  39.053  29.618   4.664
28435W        W  860  25.512  42.998  10.533
28436W        W  861  31.009  26.662  10.490
28437W        W  862  32.024  25.571   1.306
28438W        W  863   1.834  36.379   2.304
28439W        W  864  17.724  25.654   0.738
28440W        W  865  18.555  44.469  12.510
28441W        W  866  22.706  37.532   3.301
28442W        W  867  38.989  20.224   1.320
28443W        W  868  40.041   6.821   0.875
28444W        W  869   8.380  35.537   2.811
28445W        W  870  13.335  24.700  12.959
28446W        W  871  43.885  35.455   0.444
28447W        W  872  30.540  30.129   3.201
28448W        W  873  25.646  20.047  14.770
28449W        W  874  40.050  21.071   2.386
28450W        W  875  22.200   1.407  12.835
28451W        W  876  43.368   6.863  12.061
28452W        W  877   9.668  43.846  11.954
28453W        W  878   7.206  35.949  13.970
28454W        W  879  16.120   8.804  12.469
28455W        W  880  20.618  42.337   1.911
28456W        W  881   2.370  15.303  13.051
28457W        W  882  15.237  13.724  12.491
28458W        W  883  34.378  38.367   1.277
28459W        W  884   9.286  32.053  11.968
28460W        W  885   7.781  44.825   1.272
28461W        W  886  35.908  19.118  13.901
28462W        W  887   4.792  17.610   1.263
28463W        W  888   4.892  33.101  11.904
28464W        W  889  20.265  44.008   3.630
28465W        W  890  33.446  23.581  10.968
28466W        W  891   9.774  30.944  12.970
28467W        W  892  12.644  23.176  14.988
28468W        W  893  14.269  10.326   4.183
28469W        W  894  33.929   8.283  14.006
28470W        W  895  37.948   2.408   4.773
28471W        W  896   7.256  36.362   1.228
28472W        W  897   5.412   1.793   3.174
28473W        W  898  29.023  25.038  10.639
28474W        W  899  38.426  24.663   1.230
28475W        W  900  28.474  20.066   4.239
28476W        W  901  19.124  11.367  11.447
28477W        W  902  42.977  16.794  10.564
28478W        W  903  22.032  11.136  10.991
28479W        W  904  39.376   9.333  12.396
28480W        W  905  10.648   6.707   1.695
28481W        W  906  40.818  27.503  14.342
28482W        W  907  34.614  37.856  10.610
28483W        W  908   4.257  15.769  12.828
28484W        W  909  35.903  32.116   2.388
28485W        W  910   7.206  17.136   3.648
28486W        W  911  36.011   2.939   1.723
28487W        W  912   4.811  41.964   0.897
28488W        W  913  40.965  38.370   2.222
28489W        W  914  22.736  36.476  11.443
28490W        W  915  27.163  28.991   1.879
28491W        W  916   4.856   7.376   2.393
28492W        W  917  19.571   7.357   4.815
28493W        W  918   1.844   5.777   4.139
28494W        W  919  41.016   9.882   0.801
28495W        W  920   2.826  19.129  11.485
28496W        W  921  41.941  28.600  10.632
28497W        W  922  43.397   7.794   0.727
28498W        W  923  23.594   7.192   0.745
28499W        W  924  42.908  20.102   3.297
28500W        W  925  18.246  11.716  11.900
28501W        W  926  43.837  33.051   3.295
28502W        W  927  23.187  35.083   3.224
28503W        W  928   0.891  27.676   1.404
28504W        W  929  40.440   3.415  10.037
28505W        W  930  23.221  34.038  11.020
28506W        W  931  36.095  32.954   4.708
28507W        W  932  25.513  35.857   3.860
28508W        W  933  18.780  32.505   3.686
28509W        W  934  39.824  31.153  12.998
28510W        W  935  25.603   3.432  11.575
28511W        W  936   2.373  11.641   4.246
28512W        W  937  22.574  17.172  10.644
28513W        W  938   6.383   0.354   3.195
28514W        W  939  27.661  35.547   1.314
28515W        W  940  10.824  42.414   3.343
28516W        W  941  30.426  36.471   4.296
28517W        W  942  34.018  21.646  11.402
28518W        W  943  33.586  15.671  10.109
28519W        W  944   9.162  10.788   3.151
28520W        W  945  36.568  44.965   3.739
28521W        W  946  10.217   3.725  14.281
28522W        W  947  25.558  35.367  14.890
28523W        W  948  33.498  36.876  11.951
28524W        W  949  28.134  42.831   1.250
28525W        W  950  39.040  16.174   0.407
28526W        W  951  23.199   2.227  14.367
28527W        W  952  31.037  42.880   0.321
28528W        W  953   7.751  34.372   5.676
28529W        W  954  24.179   9.855   1.931
28530W        W  955  18.144   9.368  14.767
28531W        W  956  17.135  11.193  14.439
28532W        W  957  35.604  20.228  12.046
28533W        W  958   3.430   9.286   4.748
28534W        W  959  25.004  33.013   0.733
28535W        W  960  28.495   3.341  10.459
28536W        W  961  25.653  24.607  12.391
28537W        W  962  27.130  42.381   2.875
28538W        W  963  41.899  23.600   4.184
28539W        W  964  35.494   6.268   1.894
28540W        W  965   5.331   0.420   3.153
28541W        W  966  36.977  17.566  11.484
28542W        W  967  24.978  32.919   4.161
28543W        W  968   3.457   6.716  13.307
28544W        W  969   3.358   9.311   0.826
28545W        W  970   7.756   8.849   4.197
28546W        W  971  20.188  15.741  10.593
28547W        W  972   5.736   6.360   3.701
28548W        W  973   4.379  23.030  11.438
28549W        W  974  14.165  36.423  13.817
28550W        W  975   4.778  13.681   1.415
28551W        W  976  39.405  29.456   3.353
28552W        W  977  17.198  42.977   5.159
28553W        W  978  29.012  29.965  10.595
28554W        W  979  33.064  44.410   0.453
28555W        W  980   3.405  17.151   2.185
28556W        W  981  18.566  24.512   3.209
28557W        W  982   6.305  29.107  12.379
28558W        W  983  16.199  23.503   4.280
28559W        W  984  15.740   6.869  14.026
28560W        W  985  33.406  24.663  12.961
28561W        W  986  44.324  33.533  10.481
28562W        W  987  37.009  19.751   1.226
28563W        W  988   1.859   3.877  13.871
28564W        W  989  40.349  33.517   3.633
28565W        W  990  35.357   3.425  11.613
28566W        W  991  38.494   0.317  12.579
28567W        W  992  27.979  30.504   1.880
28568W        W  993  35.534  39.452  10.586
28569W        W  994  35.458  12.225  13.981
28570W        W  995  40.801  19.584  14.024
28571W        W  996  12.741  17.699  13.419
28572W        W  997  17.698  42.865   2.830
28573W        W  998  31.417  13.778   4.684
28574W        W  999   5.366  14.792   4.129
28575W        W 1000  35.533  10.706   3.375
28576W        W 1001   3.243  30.620  13.484
28577W        W 1002  11.693  16.629   0.915
28578W        W 1003  39.549  43.415  10.498
28579W        W 1004  11.659  44.372  14.927
28580W        W 1005  42.374   4.425   3.773
28581W        W 1006  28.486  12.627  11.056
28582W        W 1007  33.967   0.266   3.667
28583W        W 1008  29.499  31.511  10.451
28584W        W 1009  29.930  20.614  10.961
28585W        W 1010  29.976  36.526  10.445
28586W        W 1011  24.582  33.056   2.320
28587W        W 1012  30.141  29.669  13.328
28588W        W 1013  37.337   5.195   1.738
28589W        W 1014  15.620  36.865   1.436
28590W        W 1015  39.024  11.734   3.156
28591W        W 1016  24.510  42.874  10.429
28592W        W 1017  27.671   5.224   0.479
28593W        W 1018  25.191   3.446  10.988
28594W        W 1019  37.992  34.600   3.334
28595W        W 1020  42.881  24.644  11.451
28596W        W 1021  33.617  37.436  10.571
28597W        W 1022  24.066   0.357   0.388
28598W        W 1023  24.184   7.736  13.841
28599W        W 1024   1.916  24.683   1.884
28600W        W 1025  40.451  25.049  10.431
28601W        W 1026  14.223  22.154  13.058
28602W        W 1027   2.815  27.132  11.571
28603W        W 1028   7.381  40.839  13.866
28604W        W 1029  22.600  24.616  10.431
28605W        W 1030  27.524  10.822   4.606
28606W        W 1031  38.029  32.941   3.806
28607W        W 1032  42.479  39.460   3.187
28608W        W 1033  28.992   9.773  11.011
28609W        W 1034  43.419  34.099  14.350
28610W        W 1035  34.494   6.424  13.995
28611W        W 1036  29.589  39.911  14.823
28612W        W 1037   6.733  14.131  10.463
28613W        W 1038  21.748  43.362  14.992
28614W        W 1039  38.849  44.878   1.393
28615W        W 1040   5.840   0.459  11.998
28616W        W 1041  27.129   8.336   4.758
28617W        W 1042   4.296  23.175  13.931
28618W        W 1043   8.339   7.265  10.416
28619W        W 1044  13.160  16.182  14.800
28620W        W 1045  24.661   8.758  10.535
28621W        W 1046   3.278  35.480  14.304
28622W        W 1047   1.939  20.587   1.331
28623W        W 1048  13.212  25.655  11.920
28624W        W 1049  27.165  22.665   4.605
28625W        W 1050  27.129  30.618  12.461
28626W        W 1051   9.870   9.698   2.754
28627W        W 1052  44.456   3.786  12.095
28628W        W 1053   2.436   1.799   5.103
28629W        W 1054  30.470  22.560   1.887
28630W        W 1055   6.206  12.636  12.531
28631W        W 1056   6.317   3.421   2.313
28632W        W 1057  30.043  35.102   3.733
28633W        W 1058  20.702  36.011   3.291
28634W        W 1059  29.062  20.606   1.931
28635W        W 1060   4.350   3.949  12.917
28636W        W 1061   2.424  36.017  12.571
28637W        W 1062  15.781  16.270  14.305
28638W        W 1063   3.284  29.659   4.660
28639W        W 1064  10.765  31.011   1.342
28640W        W 1065  42.913  44.345   0.942
28641W        W 1066  28.991  37.371  14.930
28642W        W 1067  33.572  23.678   1.317
28643W        W 1068  33.110  44.999  14.277
28644W        W 1069  42.989  20.234   2.225
28645W        W 1070  27.110  14.234  10.908
28646W        W 1071  44.368  33.939   2.735
28647W        W 1072  36.584  41.033  14.937
28648W        W 1073  35.508   3.365  14.010
28649W        W 1074  34.553   1.250  11.863
28650W        W 1075  42.881   6.777  11.466
28651W        W 1076  35.041  28.997   2.744
28652W        W 1077  37.006  37.478   0.846
28653W        W 1078   4.855  37.519   0.320
28654W        W 1079  41.937  10.215  14.842
28655W        W 1080  24.084   5.372   4.734
28656W        W 1081   4.427  43.853   0.846
28657W        W 1082  11.200  20.194  12.462
28658W        W 1083   3.374  39.944  11.911
28659W        W 1084  12.167  14.112   3.190
28660W        W 1085   0.469  39.417   3.690
28661W        W 1086  11.253  19.601  14.357
28662W        W 1087   7.207   8.210   4.737
28663W        W 1088  42.318   7.387  12.844
28664W        W 1089   1.884  24.052   0.943
28665W        W 1090  35.966  35.101  14.840
28666W        W 1091  31.484  36.053  11.886
28667W        W 1092  19.658  37.573   5.175
28668W        W 1093  25.530  10.292  10.102
28669W        W 1094  33.567   1.741   2.708
28670W        W 1095  34.549  13.242   0.920
28671W        W 1096   9.675  21.631   2.723
28672W        W 1097  17.087  14.115  11.025
28673W        W 1098  38.833  20.723  10.895
28674W        W 1099   9.363  27.579   4.683
28675W        W 1100   0.783  18.112  14.823
28676W        W 1101  33.918  20.561   3.705
28677W        W 1102  11.719  38.411  12.937
28678W        W 1103  15.735  28.986  11.590
28679W        W 1104  35.476  38.550   4.759
28680W        W 1105  34.413  15.129   1.358
28681W        W 1106  20.165  16.138  14.279
28682W        W 1107  13.650  35.952  13.437
28683W        W 1108  28.583  36.896   4.355
28684W        W 1109  11.157  17.785   2.785
28685W        W 1110   9.853  19.596  11.003
28686W        W 1111  13.764   2.251   2.671
28687W        W 1112  34.029  39.877   4.638
28688W        W 1113  29.961  18.278  14.496
28689W        W 1114  23.105  25.706   1.238
28690W        W 1115  15.156  34.463   0.271
28691W        W 1116  12.628  26.073   4.828
28692W        W 1117  33.005   0.251   4.289
28693W        W 1118  10.177  40.806   0.472
28694W        W 1119   2.915   4.409  12.857
28695W        W 1120  16.262  14.760   4.342
28696W        W 1121  24.118  19.654  11.589
28697W        W 1122  19.177  16.185  14.966
28698W        W 1123  23.062  14.198  11.901
28699W        W 1124  37.435  14.284  11.957
28700W        W 1125   7.758   6.235   1.734
28701W        W 1126  20.216  14.105   3.349
28702W        W 1127  22.510  18.167   2.892
28703W        W 1128  10.877  17.580   4.291
28704W        W 1129  19.595   5.406   3.855
28705W        W 1130  44.850   0.476   3.168
28706W        W 1131  26.504  24.060  13.505
28707W        W 1132  24.480   4.762   0.423
28708W        W 1133  16.227  43.423   0.471
28709W        W 1134  36.351  15.578  10.528
28710W        W 1135  29.606  43.338  13.870
28711W        W 1136  15.166  36.419  13.061
28712W        W 1137   4.759  39.336  12.935
28713W        W 1138  29.642  10.192   0.883
28714W        W 1139  33.555  34.558   4.773
28715W        W 1140  37.859  17.268  10.478
28716W        W 1141  32.561   6.701  12.902
28717W        W 1142  41.503  36.000   4.267
28718W        W 1143  21.567  10.284   1.324
28719W        W 1144   2.393   3.717  11.933
28720W        W 1145  38.894  44.500  13.860
28721W        W 1146  20.668  19.268   1.296
28722W        W 1147  37.376  21.199   4.732
28723W        W 1148  22.163  16.285  10.421
28724W        W 1149  34.433  34.009   4.149
28725W        W 1150  43.957  15.238   2.187
28726W        W 1151  16.666  42.362  11.967
28727W        W 1152  19.208  29.507   1.393
28728W        W 1153  15.159  12.321  10.568
28729W        W 1154  42.330  41.315   3.863
28730W        W 1155   8.388  35.015   0.741
28731W        W 1156  42.430  44.978  12.891
28732W        W 1157  44.813  34.085   2.328
28733W        W 1158  32.518  34.478   1.716
28734W        W 1159  12.152   5.285   3.343
28735W        W 1160  30.143  22.249   3.327
28736W        W 1161  34.500  24.683  10.570
28737W        W 1162  20.547  28.039   4.663
28738W        W 1163  21.057  11.840   4.155
28739W        W 1164  19.161  22.024   0.726
28740W        W 1165  14.274  41.879  13.797
28741W        W 1166  28.002  32.074   0.270
28742W        W 1167  26.617  41.989  10.508
28743W        W 1168  12.746  33.004   4.247
28744W        W 1169  40.407  22.646  10.951
28745W        W 1170  22.708  34.431   3.732
28746W        W 1171   9.881  33.969  10.918
28747W        W 1172  36.994   1.332  14.002
28748W        W 1173  44.470   0.305   1.859
28749W        W 1174   0.923  22.142   3.690
28750W        W 1175  21.724  39.955   4.343
28751W        W 1176  30.003  10.862   2.814
28752W        W 1177  31.950  13.845   1.399
28753W        W 1178   7.313   3.944   1.732
28754W        W 1179   0.401   6.360  14.457
28755W        W 1180  17.251  34.994   4.835
28756W        W 1181  40.981   5.217   3.663
28757W        W 1182  11.243  15.116   0.842
28758W        W 1183  23.171  39.905  13.934
28759W        W 1184  25.219  25.086  13.028
28760W        W 1185  38.833  30.594  10.000
28761W        W 1186   8.248  16.813   3.649
28762W        W 1187  36.415  44.001  12.975
28763W        W 1188  42.986   9.327  11.585
28764W        W 1189  40.902  43.865  13.410
28765W        W 1190   5.349   4.218  12.377
28766W        W 1191  30.517  35.942  12.523
28767W        W 1192  16.775  24.679  13.822
28768W        W 1193  39.882  33.018  11.600
28769W        W 1194  44.274   8.882  13.518
28770W        W 1195  19.221  26.196   1.261
28771W        W 1196   4.412   6.899  12.935
28772W        W 1197  18.550  27.015  11.392
28773W        W 1198  34.921   3.410  12.973
28774W        W 1199  22.065  41.961   2.292
28775W        W 1200  24.540  33.486  13.059
28776W        W 1201  24.061  37.528  13.001
28777W        W 1202   2.731  30.912   1.883
28778W        W 1203  29.576   7.732   0.914
28779W        W 1204  40.027  18.654  13.414
28780W        W 1205  12.311   6.343   4.687
28781W        W 1206  43.419  40.913  11.964
28782W        W 1207  23.521  22.097  12.903
28783W        W 1208  33.114  25.577   1.233
28784W        W 1209  44.436   5.263  14.434
28785W        W 1210  26.020  40.928  14.820
28786W        W 1211  20.608  19.642   3.719
28787W        W 1212  44.965  16.259  11.946
28788W        W 1213  25.709  13.743   4.140
28789W        W 1214  39.897   3.785  13.949
28790W        W 1215  29.453  24.163  12.493
28791W        W 1216  40.973  31.956   2.882
28792W        W 1217   8.898  16.737  12.008
28793W        W 1218  36.387  11.243  10.493
28794W        W 1219   9.367   1.803  13.332
28795W        W 1220  13.805  17.674   4.651
28796W        W 1221   1.890   2.283   4.252
28797W        W 1222  44.270  11.163  10.536
28798W        W 1223  23.640   8.737  11.604
28799W        W 1224  13.325  12.646  11.590
28800W        W 1225  43.971  14.744  13.832
28801W        W 1226  13.702  13.678   0.449
28802W        W 1227  15.087  29.624  13.978
28803W        W 1228  26.545  44.808   2.323
28804W        W 1229  42.850  39.334  10.950
28805W        W 1230  21.749  28.539   4.301
28806W        W 1231  42.443  39.858  11.045
28807W        W 1232  11.834  36.434  14.804
28808W        W 1233   2.379   1.297  12.440
28809W        W 1234  36.080  30.081   2.211
28810W        W 1235  10.848  36.874   0.912
28811W        W 1236  13.742   5.790  12.894
28812W        W 1237  21.063  42.802  12.406
28813W        W 1238  30.908   5.770  12.954
28814W        W 1239  16.317   0.934  13.357
28815W        W 1240   7.390  36.920  14.970
28816W        W 1241   9.796  43.986  12.358
28817W        W 1242  32.422  26.571   0.729
28818W        W 1243  23.143  42.382  14.361
28819W        W 1244  39.373  15.810  10.556
28820W        W 1245  11.688  14.671   0.893
28821W        W 1246  39.009  27.655   4.671
28822W        W 1247  10.256   8.387   2.400
28823W        W 1248  14.629  28.568  14.828
28824W        W 1249  34.065  30.557   4.229
28825W        W 1250   5.843  11.325   1.873
28826W        W 1251   7.276  12.735  12.402
28827W        W 1252  21.548  20.764  11.127
28828W        W 1253  15.801  12.724   4.270
28829W        W 1254  22.227  36.528  14.882
28830W        W 1255   9.265  42.435   3.206
28831W        W 1256  39.853  19.562  14.815
28832W        W 1257  19.597  40.976  10.992
28833W        W 1258  13.658  36.356  13.470
28834W        W 1259  16.183   4.717  14.911
28835W        W 1260  11.184   1.796   3.726
28836W        W 1261  20.631  10.634   1.364
28837W        W 1262  26.047  21.674  14.842
28838W        W 1263  37.861  10.245   1.213
28839W        W 1264  12.202   7.218   3.176
28840W        W 1265  43.773   9.810   4.812
28841W        W 1266  22.594  27.020   0.428
28842W        W 1267  36.446  26.556  12.461
28843W        W 1268  39.544  23.506   2.809
28844W        W 1269  33.626  33.533  14.346
28845W        W 1270  12.773  22.645  14.426
28846W        W 1271   9.797  33.558   3.287
28847W        W 1272   4.753  18.286  10.545
28848W        W 1273  28.531  31.407  11.926
28849W        W 1274  40.870  40.519   3.641
28850W        W 1275   1.330   5.350   1.899
28851W        W 1276  34.053  33.526  14.362
28852W        W 1277  26.208  21.638   0.360
28853W        W 1278  13.328  14.303   2.898
28854W        W 1279   3.743  28.086   2.208
28855W        W 1280  21.218  21.017   4.778
28856W        W 1281  34.454  38.364   3.712
28857W        W 1282  18.230  32.519   4.178
28858W        W 1283   6.712  33.547  12.505
28859W        W 1284  28.099   2.457   0.752
28860W        W 1285   4.850  11.767   2.226
28861W        W 1286  42.522   0.354   0.891
28862W        W 1287   8.657  16.180   0.421
28863W        W 1288   3.731  32.979  11.991
28864W        W 1289  15.122   0.469  14.890
28865W        W 1290  33.936  27.947  10.964
28866W        W 1291  17.789   6.235   3.838
28867W        W 1292  39.546  35.485   4.259
28868W        W 1293  41.900  14.336  13.529
28869W        W 1294  25.528  13.108  14.293
28870W        W 1295  42.775  28.929  14.394
28871W        W 1296  22.504  44.422   0.953
28872W        W 1297  39.353  17.560  12.482
28873W        W 1298  18.164  37.898   1.810
28874W        W 1299  33.930  27.053   3.763
28875W        W 1300  21.514  18.128   1.932
28876W        W 1301  22.560   7.832   4.198
28877W        W 1302  22.105  35.877   0.451
28878W        W 1303  13.286  34.892  13.478
28879W        W 1304   5.922  15.816   0.824
28880W        W 1305  36.511   3.828  11.060
28881W        W 1306  36.003   3.256  14.790
28882W        W 1307  32.592   7.349   2.734
28883W        W 1308  10.188  31.095  11.999
28884W        W 1309  20.092  32.000  13.491
28885W        W 1310  20.670  30.440  11.567
28886W        W 1311  40.915  39.448   4.771
28887W        W 1312  18.067  26.968   3.844
28888W        W 1313   7.339  20.680  14.870
28889W        W 1314  22.552  40.928   0.482
28890W        W 1315   0.312  21.173   0.257
28891W        W 1316  14.636  32.004  12.988
28892W        W 1317  23.735  41.033  11.452
28893W        W 1318  35.368   2.885   3.712
28894W        W 1319  41.515  38.329  12.383
28895W        W 1320  11.279  28.538  13.942
28896W        W 1321  25.997   6.350  10.530
28897W        W 1322  36.348  21.654   4.714
28898W        W 1323  34.081  27.643   1.276
28899W        W 1324  39.424  20.684  10.548
28900W        W 1325  12.854  41.412  12.425
28901W        W 1326  15.253  16.661  10.604
28902W        W 1327  41.470  10.235   0.862
28903W        W 1328  26.510  36.460   3.380
28904W        W 1329   9.650  16.789   2.679
28905W        W 1330   7.848  40.448   1.401
28906W        W 1331  34.556  23.143  14.355
28907W        W 1332  31.963   8.756   2.845
28908W        W 1333  29.484  40.839   1.334
28909W        W 1334  38.982  24.205   3.740
28910W        W 1335  38.522  28.186   4.648
28911W        W 1336  23.550  23.681   3.823
28912W        W 1337  20.217  35.975   0.471
28913W        W 1338  29.602  18.604   4.647
28914W        W 1339  43.815  42.981  12.864
28915W        W 1340  43.437  36.092   3.178
28916W        W 1341  44.863  29.473   3.158
28917W        W 1342  16.229   2.892   0.377
28918W        W 1343  18.260  25.527  14.396
28919W        W 1344  26.613  19.175   4.700
28920W        W 1345  11.340  31.521   1.320
28921W        W 1346   7.311  16.597   3.798
28922W        W 1347  30.934  33.109  12.852
28923W        W 1348  27.089  23.658  11.866
28924W        W 1349  36.950  43.984  13.826
28925W        W 1350  44.483   6.767  12.437
28926W        W 1351  41.325  17.278   3.166
28927W        W 1352  31.042  13.200   2.700
28928W        W 1353  26.062  21.187  10.430
28929W        W 1354  20.232  31.069  11.976
28930W        W 1355  43.765  27.946  12.866
28931W        W 1356  39.874  10.734   1.779
28932W        W 1357  42.904   3.814  14.356
28933W        W 1358  43.847  10.140   1.297
28934W        W 1359   2.270  19.770   1.367
28935W        W 1360  35.878  33.102  10.444
28936W        W 1361  14.264  33.384  13.854
28937W        W 1362  29.507  28.505  12.851
28938W        W 1363  34.376  42.906  14.783
28939W        W 1364  42.516  27.691  10.506
28940W        W 1365   6.800  36.391   3.833
28941W        W 1366   6.917   3.776   2.329
28942W        W 1367  34.582  42.481  14.997
28943W        W 1368  19.149  18.594  14.398
28944W        W 1369   2.263  13.799   2.201
28945W        W 1370  31.551   4.433  14.968
28946W        W 1371  36.852  25.178   5.588
28947W        W 1372  34.438  18.164  11.094
28948W        W 1373   5.875   6.676   1.341
28949W        W 1374  36.050   8.294  10.548
28950W        W 1375  39.825   1.421  10.636
28951W        W 1376  17.754   4.392   2.745
28952W        W 1377  37.942  13.140  10.434
28953W        W 1378  20.231  23.553  13.949
28954W        W 1379   6.770  11.664   1.324
28955W        W 1380  18.676  28.151  10.891
28956W        W 1381   4.386  43.501  12.517
28957W        W 1382   7.341  40.310   1.778
28958W        W 1383  28.170  41.954  13.343
28959W        W 1384  37.886  41.798  14.932
28960W        W 1385  43.304  27.974   3.258
28961W        W 1386   5.261  35.371   2.419
28962W        W 1387  35.967   7.284   3.216
28963W        W 1388  21.521  40.862  14.455
28964W        W 1389  21.052  36.898   4.274
28965W        W 1390  36.485  18.082  11.436
28966W        W 1391  34.466  12.826  14.391
28967W        W 1392  30.140  36.072  12.461
28968W        W 1393  34.523  13.203  11.441
28969W        W 1394  27.116  29.104   4.761
28970W        W 1395  31.897   3.308   2.400
28971W        W 1396  34.055  22.059   3.733
28972W        W 1397  41.861  34.529  11.587
28973W        W 1398  44.317   8.259   4.197
28974W        W 1399  21.187  43.908  13.800
28975W        W 1400  23.234  44.287   4.315
28976W        W 1401  35.374  24.565   1.335
28977W        W 1402  29.627  20.634   1.277
28978W        W 1403   5.804   8.730   3.164
28979W        W 1404   3.780  10.762  12.836
28980W        W 1405   9.804  33.890  12.965
28981W        W 1406   4.739  43.931  12.047
28982W        W 1407  20.697  13.242   0.429
28983W        W 1408  40.018  29.530   3.718
28984W        W 1409  19.238  10.319   4.215
28985W        W 1410  22.588  10.777  12.061
28986W        W 1411   3.839   2.364  14.005
28987W        W 1412  10.737   2.844  13.373
28988W        W 1413  24.586  17.632   2.290
28989W        W 1414   9.299   2.860   3.854
28990W        W 1415   8.283  11.155  13.911
28991W        W 1416  40.820  28.944   4.766
28992W        W 1417   0.470  22.504  10.465
28993W        W 1418   6.200  21.148  12.543
28994W        W 1419  33.471   6.778   4.310
28995W        W 1420   8.326  33.418   0.355
28996W        W 1421  33.520   1.414  11.478
28997W        W 1422  19.224  31.899  13.923
28998W        W 1423  20.731  25.990   1.261
28999W        W 1424  39.509  13.340   0.315
29000W        W 1425  33.129  16.774  13.354
29001W        W 1426  44.883  18.271  14.370
29002W        W 1427   5.813   0.281   1.214
29003W        W 1428  41.349  18.266   2.891
29004W        W 1429  34.940  17.749  11.892
29005W        W 1430   6.759  31.631  14.894
29006W        W 1431  29.655  19.613   0.870
29007W        W 1432  13.344   1.816  13.957
29008W        W 1433  39.003  37.552   0.868
29009W        W 1434   6.770  15.234  10.580
29010W        W 1435  36.367  31.469  12.394
29011W        W 1436  19.567  10.776   4.138
29012W        W 1437  41.012  32.601  11.083
29013W        W 1438  21.251  24.547   4.189
29014W        W 1439  27.577  38.068   2.765
29015W        W 1440  44.906  37.049  12.860
29016W        W 1441  16.086   1.368   3.701
29017W        W 1442  10.874   3.760   0.413
29018W        W 1443  27.165   4.220  14.993
29019W        W 1444   3.403   9.852  14.505
29020W        W 1445   8.180   1.855  14.029
29021W        W 1446  31.067  42.781  10.916
29022W        W 1447  30.000  17.280  10.618
29023W        W 1448  30.075  12.275   3.776
29024W        W 1449  19.209  20.075  10.519
29025W        W 1450   3.827  44.298  12.963
29026W        W 1451  28.941  16.765  11.507
29027W        W 1452  14.818  12.708   0.846
29028W        W 1453   8.231   9.360   4.247
29029W        W 1454  38.845  37.993   1.240
29030W        W 1455  16.287  28.077  13.859
29031W        W 1456  37.528  39.873  14.802
29032W        W 1457   1.807  19.586   0.951
29033W        W 1458  38.837  35.453  10.406
29034W        W 1459  20.111   3.781  10.914
29035W        W 1460  21.569   5.814  11.486
29036W        W 1461  16.114  18.107   2.705
29037W        W 1462  36.363  36.908  11.411
29038W        W 1463  22.048  43.793   3.737
29039W        W 1464  12.166   3.861   3.857
29040W        W 1465   4.888  24.698  14.954
29041W        W 1466  26.573  21.696  11.004
29042W        W 1467  13.226  30.141  14.433
29043W        W 1468  34.976   9.651   2.373
29044W        W 1469  43.312  39.419   1.364
29045W        W 1470  36.529  34.014   3.206
29046W        W 1471   3.445  37.881  14.415
29047W        W 1472  33.385  23.496  14.831
29048W        W 1473  13.774  20.657  13.518
29049W        W 1474  15.578  10.698  11.874
29050W        W 1475  24.176  42.909   4.154
29051W        W 1476  25.510  20.749   3.853
29052W        W 1477  31.032  35.051  12.366
29053W        W 1478  41.833   6.302  12.434
29054W        W 1479  20.098   9.876   1.243
29055W        W 1480  36.387   9.833   1.754
29056W        W 1481   5.432  26.150   2.262
29057W        W 1482   9.865  38.540   4.722
29058W        W 1483   7.355  27.145   4.718
29059W        W 1484   4.399  44.883   3.376
29060W        W 1485  31.578  24.673  10.611
29061W        W 1486  31.502   7.235  10.938
29062W        W 1487  39.930  38.863  12.514
29063W        W 1488   4.432  21.168   3.859
29064W        W 1489  35.529  43.983   3.257
29065W        W 1490  15.302  35.412  13.951
29066W        W 1491  30.611  19.060   3.160
29067W        W 1492  18.183  14.625  13.967
29068W        W 1493  29.670  12.848   0.376
29069W        W 1494  32.017  40.906  14.803
29070W        W 1495  31.016  43.854  13.439
29071W        W 1496  10.286  33.451  12.838
29072W        W 1497  38.885  29.429   3.799
29073W        W 1498  41.472  23.605   4.833
29074W        W 1499   7.779   1.356  10.511
29075W        W 1500   8.295  44.462  13.983
29076W        W 1501  13.828  28.154  12.934
29077W        W 1502  39.390   1.425   1.885
29078W        W 1503  25.973  30.424  13.808
29079W        W 1504   3.231  17.117  12.906
29080W        W 1505   1.914  31.093  14.285
29081W        W 1506  14.150   2.963   3.237
29082W        W 1507  22.712  20.274  11.576
29083W        W 1508  26.049  38.471  14.839
29084W        W 1509   2.456  37.485   5.299
29085W        W 1510  13.140  29.096   4.745
29086W        W 1511  31.917  42.515   0.780
29087W        W 1512   9.238  34.933  11.566
29088W        W 1513  16.783  20.166   2.725
29089W        W 1514  23.571  11.268   1.277
29090W        W 1515  42.780   1.339  11.126
29091W        W 1516  40.937  15.794   0.383
29092W        W 1517  33.405  12.316  11.412
29093W        W 1518  39.937  40.833   3.159
29094W        W 1519   4.870  34.463  13.828
29095W        W 1520  19.055  36.350   0.786
29096W        W 1521  23.641  26.561  10.626
29097W        W 1522  25.160   8.392  14.417
29098W        W 1523   0.772  23.713  10.023
29099W        W 1524  20.080  17.663  11.036
29100W        W 1525  13.780  18.068   1.755
29101W        W 1526  14.686  10.231   3.328
29102W        W 1527  15.671  34.612   0.458
29103W        W 1528   4.417   2.964  11.112
29104W        W 1529   0.756  21.535   4.276
29105W        W 1530  24.483  14.814   0.402
29106W        W 1531  42.422  29.983  13.460
29107W        W 1532   1.896  26.110   2.406
29108W        W 1533  38.962   5.822  12.563
29109W        W 1534  34.045  11.634  14.375
29110W        W 1535   7.394   6.308   2.397
29111W        W 1536  22.679  41.467  13.404
29112W        W 1537   8.215   1.921   0.802
29113W        W 1538  14.640   1.880  11.569
29114W        W 1539  32.964  23.528  14.482
29115W        W 1540  21.562  26.655  11.426
29116W        W 1541  38.932  32.460  13.398
29117W        W 1542  43.896   7.807   2.706
29118W        W 1543  24.595  26.571   4.775
29119W        W 1544  38.456  38.492   4.636
29120W        W 1545   7.881   9.370  11.451
29121W        W 1546   5.762  25.050  14.899
29122W        W 1547  37.400  36.547   4.616
29123W        W 1548  12.622   9.689   0.860
29124W        W 1549   4.700  42.495   0.470
29125W        W 1550  10.284  30.013  14.511
29126W        W 1551  18.202  29.597   0.812
29127W        W 1552  31.456  24.109   2.380
29128W        W 1553   6.698  44.407   4.325
29129W        W 1554  20.264   7.880   3.655
29130W        W 1555  43.873  12.257  13.518
29131W        W 1556  34.541  21.124  10.625
29132W        W 1557  18.571  21.255   2.831
29133W        W 1558  20.177  32.525   3.744
29134W        W 1559  15.605  18.239  14.377
29135W        W 1560   8.398   6.857  14.793
29136W        W 1561  21.249  13.703  10.943
29137W        W 1562   2.299  31.054  12.529
29138W        W 1563  15.175  34.001  13.531
29139W        W 1564  12.138  37.055   2.762
29140W        W 1565  21.059  43.393  12.479
29141W        W 1566  41.913  21.109  14.868
29142W        W 1567   4.836   9.650  14.927
29143W        W 1568  32.596  19.217   9.570
29144W        W 1569  28.623  35.948   0.869
29145W        W 1570  41.396  39.860  13.791
29146W        W 1571  34.438  32.119  14.396
29147W        W 1572  18.203  36.421  11.465
29148W        W 1573   0.895  15.815  10.446
29149W        W 1574  21.034  29.588   5.269
29150W        W 1575  14.227  42.490   3.343
29151W        W 1576  30.535   1.296  10.565
29152W        W 1577  35.899  23.026  13.011
29153W        W 1578  37.977   5.393  14.816
29154W        W 1579  38.856  23.208  11.396
29155W        W 1580   5.926  38.069  14.774
29156W        W 1581  32.039  17.168  11.925
29157W        W 1582   2.352  28.632  12.839
29158W        W 1583   0.361   7.202   0.934
29159W        W 1584  11.312  10.828   4.605
29160W        W 1585   7.729  26.601   4.307
29161W        W 1586  18.584  28.501   4.124
29162W        W 1587   2.456   4.266   1.271
29163W        W 1588  24.141  33.567   2.298
29164W        W 1589  24.609  24.701   4.140
29165W        W 1590  31.985  16.751   4.612
29166W        W 1591   9.694   6.391   0.799
29167W        W 1592  15.730  40.434   2.228
29168W        W 1593   3.935   1.299   1.835
29169W        W 1594  41.948  19.199   4.210
29170W        W 1595  38.536  21.131  13.037
29171W        W 1596  26.984  17.700  11.547
29172W        W 1597  34.530   5.829  14.852
29173W        W 1598  26.587  13.337  10.931
29174W        W 1599  30.430  25.483   2.301
29175W        W 1600   4.297  23.717  14.771
29176W        W 1601   9.375  10.813  11.067
29177W        W 1602   4.397  12.784  14.343
29178W        W 1603  28.454   0.875  10.541
29179W        W 1604  25.018  12.642  11.554
29180W        W 1605  10.799  37.887   3.807
29181W        W 1606  26.111  30.594  11.456
29182W        W 1607  33.620  11.317  12.355
29183W        W 1608  42.873  39.444   4.668
29184W        W 1609   4.338  20.664   3.777
29185W        W 1610  15.767  42.789   3.347
29186W        W 1611   9.156  39.000   0.929
29187W        W 1612  30.979  34.497   2.361
29188W        W 1613  33.432  21.077   2.213
29189W        W 1614  23.140  27.129   0.403
29190W        W 1615  10.733  14.119  11.511
29191W        W 1616  12.119  27.642   1.357
29192W        W 1617  25.623   0.339   1.383
29193W        W 1618  12.120   2.249  11.068
29194W        W 1619   5.878  21.142  14.023
29195W        W 1620  19.564   0.939   4.739
29196W        W 1621  30.131   7.687  13.521
29197W        W 1622  39.384  12.770   3.776
29198W        W 1623  21.241  27.172  12.983
29199W        W 1624  31.412   5.430   4.800
29200W        W 1625  37.883  12.753  11.094
29201W        W 1626  40.996  33.418   1.768
29202W        W 1627   0.480  35.568  14.321
29203W        W 1628   4.437   2.964   0.757
29204W        W 1629  37.865  36.407  13.476
29205W        W 1630  29.437   3.761  11.902
29206W        W 1631  23.108   9.825   2.837
29207W        W 1632  42.799  13.255   1.408
29208W        W 1633  32.078  22.587   0.914
29209W        W 1634  35.456  22.185  12.973
29210W        W 1635   8.669  17.111   2.819
29211W        W 1636  18.606   9.320  13.906
29212W        W 1637  40.331  43.967  10.018
29213W        W 1638   9.354  26.977  11.059
29214W        W 1639  25.198  35.952   1.845
29215W        W 1640  34.869  18.599  13.036
29216W        W 1641  19.760  37.898   4.609
29217W        W 1642  18.633  16.566  10.538
29218W        W 1643  23.544  16.582  14.962
29219W        W 1644   7.354   6.341   1.443
29220W        W 1645  25.017  43.965  11.938
29221W        W 1646  21.528  27.609  13.982
29222W        W 1647  24.538  21.668   0.937
29223W        W 1648  13.320  25.051   0.351
29224W        W 1649   0.475  25.161   0.768
29225W        W 1650  34.395  30.550  13.839
29226W        W 1651  30.995  11.779  12.427
29227W        W 1652  25.670  21.045  11.857
29228W        W 1653  27.619  41.379  13.882
29229W        W 1654  16.191  24.067  10.442
29230W        W 1655   6.319  15.640  11.563
29231W        W 1656  10.640  25.077   0.939
29232W        W 1657  38.977  28.135  12.443
29233W        W 1658   5.416   6.746   2.292
29234W        W 1659  18.613   1.814   3.797
29235W        W 1660  21.134  33.617   5.269
29236W        W 1661  18.645  39.379  14.336
29237W        W 1662  24.225  31.961  13.470
29238W        W 1663  18.630  31.526   4.784
29239W        W 1664   8.195  11.823   1.746
29240W        W 1665   7.237   0.835   2.811
29241W        W 1666  20.095  16.239  14.935
29242W        W 1667  44.868  42.911   2.846
29243W        W 1668   8.850  11.855  11.961
29244W        W 1669   1.976  14.726  10.621
29245W        W 1670   8.351   6.851  13.382
29246W        W 1671   3.736  40.465   0.343
29247W        W 1672   1.900   4.425  14.795
29248W        W 1673  44.006   0.462  13.974
29249W        W 1674  42.366  25.486  14.486
29250W        W 1675  43.284  41.845   4.757
29251W        W 1676  30.523   4.393   2.376
29252W        W 1677  38.036  38.378   4.783
29253W        W 1678  26.088  39.553   3.852
29254W        W 1679  33.992  16.804  13.880
29255W        W 1680  42.794  32.046  10.971
29256W        W 1681  10.732   6.758  14.319
29257W        W 1682  19.119  25.506  11.115
29258W        W 1683  27.110  14.669   1.715
29259W        W 1684   0.487  23.512  11.523
29260W        W 1685  15.261  17.192  14.983
29261W        W 1686  39.940  10.369   0.935
29262W        W 1687  13.187   8.789   9.962
29263W        W 1688   1.828  35.934  13.454
29264W        W 1689  15.240  40.050   2.779
29265W        W 1690  14.751  23.036  11.970
29266W        W 1691  18.211  18.765  13.442
29267W        W 1692  20.260  43.943   4.721
29268W        W 1693  12.215  33.107   4.690
29269W        W 1694  39.987  36.549   0.739
29270W        W 1695  38.033  42.388  13.403
29271W        W 1696  16.602  29.956   3.268
29272W        W 1697   4.432  10.807   2.781
29273W        W 1698  13.111   9.209  12.366
29274W        W 1699  12.758   9.857   0.443
29275W        W 1700  12.828  41.346  11.554
29276W        W 1701  18.233  33.117   4.342
29277W        W 1702  14.734  25.710  10.485
29278W        W 1703  24.536  19.624  11.395
29279W        W 1704  17.196  27.128  14.006
29280W        W 1705   2.742  25.704   4.191
29281W        W 1706  26.688  29.089   4.649
29282W        W 1707   3.255   4.719  12.368
29283W        W 1708  31.941  30.927  11.490
29284W        W 1709   4.277   7.767  14.798
29285W        W 1710  35.110  23.012  11.443
29286W        W 1711  35.885  36.095   1.709
29287W        W 1712   1.869  34.917   3.174
29288W        W 1713  42.348  26.520  13.496
29289W        W 1714   8.834   8.378  11.380
29290W        W 1715  32.591  21.173   2.390
29291W        W 1716  33.103  44.771   0.775
29292W        W 1717  19.270   6.879   0.399
29293W        W 1718   9.836   4.787   4.736
29294W        W 1719  43.989  37.408   0.837
29295W        W 1720  39.980  23.529   0.405
29296W        W 1721   3.897  26.072  12.969
29297W        W 1722   9.678  36.041   4.778
29298W        W 1723  43.470  20.705  13.946
29299W        W 1724  22.720   7.293   4.337
29300W        W 1725  15.633  39.537  12.491
29301W        W 1726  12.171  25.477  14.957
29302W        W 1727  23.624  36.495  12.554
29303W        W 1728  16.089  16.225   2.298
29304W        W 1729  23.704   6.413  12.832
29305W        W 1730  13.646  26.542  14.482
29306W        W 1731   7.711  30.578   4.656
29307W        W 1732  42.977  19.586   1.861
29308W        W 1733   1.856  13.825  12.401
29309W        W 1734   0.393   3.771  10.455
29310W        W 1735   7.281  33.391   4.691
29311W        W 1736  10.644  11.822   3.348
29312W        W 1737  25.663   3.309  10.044
29313W        W 1738   3.754   4.318  11.030
29314W        W 1739   1.869  36.883   4.329
29315W        W 1740  24.723  30.616  13.876
29316W        W 1741  32.910  26.967   1.254
29317W        W 1742  18.667   1.767   4.631
29318W        W 1743  24.104  27.195   4.169
29319W        W 1744   1.794  41.386   0.331
29320W        W 1745  16.580   8.888  10.639
29321W        W 1746  14.144  10.738   2.293
29322W        W 1747   6.743  22.161  14.422
29323W        W 1748   8.261  29.579   2.895
29324W        W 1749  42.457   1.747  10.411
29325W        W 1750  30.126  33.892  13.358
29326W        W 1751  18.228  34.923  10.520
29327W        W 1752   7.859  32.628   4.173
29328W        W 1753  29.938  36.887  10.433
29329W        W 1754  16.099  13.347   0.845
29330W        W 1755  29.600  14.686  10.918
29331W        W 1756   6.714   5.715   3.224
29332W        W 1757  21.069  11.657   4.809
29333W        W 1758  29.645  37.496   2.244
29334W        W 1759   2.727  10.256   3.652
29335W        W 1760  29.617  26.476  13.809
29336W        W 1761  42.893  30.023   1.409
29337W        W 1762  19.114   0.880   1.862
29338W        W 1763   1.448  39.492   3.238
29339W        W 1764  37.018  29.989   1.421
29340W        W 1765  35.904  42.829  11.563
29341W        W 1766  23.146  14.165   4.768
29342W        W 1767  29.654  21.629   2.243
29343W        W 1768  21.158  15.644  14.304
29344W        W 1769  30.527   0.835  13.835
29345W        W 1770  12.740  30.997  13.313
29346W        W 1771   2.295  16.295  14.303
29347W        W 1772  28.071  24.055   1.851
29348W        W 1773  15.714  43.789   1.764
29349W        W 1774  33.996  16.666  10.499
29350W        W 1775  30.140  23.106  14.413
29351W        W 1776  19.630  21.235  13.000
29352W        W 1777  24.186  39.847   1.852
29353W        W 1778   0.266  31.516   0.358
29354W        W 1779  43.012  28.573   3.707
29355W        W 1780  33.607  36.078   2.713
29356W        W 1781  41.999   7.791  11.582
29357W        W 1782  30.158  43.999  10.631
29358W        W 1783  32.891  32.420   1.397
29359W        W 1784  15.779  39.029   4.812
29360W        W 1785  38.004  32.571   4.229
29361W        W 1786  28.162  32.095  14.807
29362W        W 1787  12.357   0.902  13.056
29363W        W 1788  21.748  22.589   2.670
29364W        W 1789  18.546  28.465  12.421
29365W        W 1790  41.415  31.911   3.769
29366W        W 1791  17.786   3.227   2.884
29367W        W 1792  39.924  29.955   2.699
29368W        W 1793   7.862  22.543  11.571
29369W        W 1794   5.805  36.938  14.305
29370W        W 1795   8.898  29.967  13.960
29371W        W 1796  30.951  31.119   4.273
29372W        W 1797  24.157  34.573  10.603
29373W        W 1798  18.787  10.160   5.249
29374W        W 1799  28.134  39.984  10.129
29375W        W 1800   9.670  38.520  10.490
29376W        W 1801  40.492  38.860  13.836
29377W        W 1802  25.708  23.009   0.873
29378W        W 1803  22.591  39.980   3.734
29379W        W 1804  22.669   8.689   0.442
29380W        W 1805  39.828  43.462  11.938
29381W        W 1806   1.891   4.794   4.138
29382W        W 1807   5.752  30.491  14.488
29383W        W 1808   7.726  31.527  11.379
29384W        W 1809   5.834  23.075  13.525
29385W        W 1810  36.916  17.602   3.341
29386W        W 1811   4.371  37.509   2.196
29387W        W 1812   3.877   9.667  12.996
29388W        W 1813  33.519   2.792  14.395
29389W        W 1814  41.951  29.009   4.253
29390W        W 1815  40.917  43.475   2.290
29391W        W 1816  44.800  32.131   1.712
29392W        W 1817  13.838  28.517  13.404
29393W        W 1818  40.862  24.062  10.423
29394W        W 1819  43.344  17.606  12.901
29395W        W 1820  13.214  34.460   0.740
29396W        W 1821  43.454  15.820   4.176
29397W        W 1822  23.040   4.851   2.325
29398W        W 1823  15.273  42.984   2.379
29399W        W 1824  32.465  19.716   4.328
29400W        W 1825   5.363  21.568   4.179
29401W        W 1826   5.244  35.943   3.379
29402W        W 1827  36.348  28.550   3.330
29403W        W 1828  39.898  21.041   3.658
29404W        W 1829  13.188  17.135   1.862
29405W        W 1830  40.388  30.032   3.332
29406W        W 1831  26.067  43.866  14.359
29407W        W 1832  33.383  22.681  10.595
29408W        W 1833  33.074  24.641  12.529
29409W        W 1834   9.826   0.854  14.997
29410W        W 1835  39.053  33.515   3.636
29411W        W 1836  36.873  10.875  14.970
29412W        W 1837  39.474   5.389   4.663
29413W        W 1838  42.400  42.025   3.201
29414W        W 1839  40.446  23.155   2.706
29415W        W 1840   3.450   5.818  12.844
29416W        W 1841  35.409  43.367  11.983
29417W        W 1842   2.921  26.681  14.008
29418W        W 1843  15.698  10.362   3.266
29419W        W 1844  16.730  16.216  12.495
29420W        W 1845  23.536  19.623  14.486
29421W        W 1846  31.932  26.137   2.818
29422W        W 1847  11.660  20.139   4.692
29423W        W 1848  21.639  39.027  10.507
29424W        W 1849  42.830  22.237  13.841
29425W        W 1850  17.290  14.620   1.702
29426W        W 1851  43.309   8.203  11.557
29427W        W 1852  29.441  25.650  10.558
29428W        W 1853  13.751  19.561  14.480
29429W        W 1854   4.861  38.544  12.967
29430W        W 1855  39.472  38.914  11.543
29431W        W 1856  33.526  38.990   3.808
29432W        W 1857  17.299   2.339   1.722
29433W        W 1858  32.945  22.198   2.720
29434W        W 1859  11.690   2.341  14.416
29435W        W 1860   3.943  22.231   0.857
29436W        W 1861  16.197  30.102  14.510
29437W        W 1862   1.786  16.121   2.259
29438W        W 1863  23.065  35.102  13.488
29439W        W 1864  30.502  20.225  12.866
29440W        W 1865  29.003  21.656  14.911
29441W        W 1866  37.929   5.692  10.941
29442W        W 1867  16.129   4.393   1.262
29443W        W 1868  39.828   4.340   3.384
29444W        W 1869   5.808  39.050  12.450
29445W        W 1870  37.981  25.175   2.777
29446W        W 1871  14.149  26.504  14.457
29447W        W 1872   8.328  34.887  11.889
29448W        W 1873   3.810   7.369   2.731
29449W        W 1874   2.423   9.877   0.247
29450W        W 1875  30.487  34.556  14.445
29451W        W 1876  32.439  11.303  11.088
29452W        W 1877  41.497  11.692   0.280
29453W        W 1878  11.712  26.201  13.023
29454W        W 1879  36.062  25.033   2.704
29455W        W 1880  21.144  18.786  13.958
29456W        W 1881   6.904  15.612   3.721
29457W        W 1882  12.191  10.267  10.610
29458W        W 1883  35.555  24.999   0.335
29459W        W 1884  22.075  41.346   1.331
29460W        W 1885   2.328  23.126   1.824
29461W        W 1886   0.366  21.707   0.395
29462W        W 1887   9.357  37.045   2.211
29463W        W 1888  44.505  15.234   2.396
29464W        W 1889  14.684  27.582   1.211
29465W        W 1890   5.390  17.227   2.275
29466W        W 1891   3.352   5.917  11.925
29467W        W 1892   7.831  41.953  11.859
29468W        W 1893   5.277  15.638  14.866
29469W        W 1894  10.781  38.033   4.795
29470W        W 1895   1.787  18.165   3.316
29471W        W 1896  24.088  29.433  14.316
29472W        W 1897  26.189  37.861   0.791
29473W        W 1898   1.438   7.209  10.578
29474W        W 1899  18.125   5.388   1.883
29475W        W 1900  39.937  15.705  12.946
29476W        W 1901  32.520   1.774  11.504
29477W        W 1902  41.486  42.518  11.476
29478W        W 1903  17.157  39.394  12.437
29479W        W 1904   8.322  42.401  12.965
29480W        W 1905   8.789  17.291   2.404
29481W        W 1906  35.005  38.949   5.282
29482W        W 1907   0.443   0.938  14.292
29483W        W 1908  28.936   3.780   4.737
29484W        W 1909  25.643  11.287   1.869
29485W        W 1910  11.710   9.214  13.878
29486W        W 1911  19.088  39.397   4.298
29487W        W 1912  13.338  14.810  13.398
29488W        W 1913  36.010  38.915   3.287
29489W        W 1914  17.776  19.133  11.446
29490W        W 1915   3.358  28.050   0.271
29491W        W 1916  40.384  18.176   4.675
29492W        W 1917  32.490   8.282  12.859
29493W        W 1918  13.783  31.426   0.354
29494W        W 1919  14.826  26.002   0.321
29495W        W 1920  11.808  33.597  12.533
29496W        W 1921  31.574   0.304   0.271
29497W        W 1922  25.500  22.721   0.370
29498W        W 1923  10.365  27.018  14.964
29499W        W 1924   8.260   7.858   1.876
29500W        W 1925  12.736   3.335   2.293
29501W        W 1926  31.635  26.497   1.211
29502W        W 1927   3.726   7.780  13.333
29503W        W 1928  10.805  41.015  14.461
29504W        W 1929   1.482   9.281  14.348
29505W        W 1930  27.470  20.272   2.781
29506W        W 1931  41.818  11.835   1.741
29507W        W 1932  13.726  32.476   0.929
29508W        W 1933  13.325  26.597   0.314
29509W        W 1934  28.040   5.236  11.931
29510W        W 1935  19.687  31.641   1.327
29511W        W 1936  20.541  37.434   2.210
29512W        W 1937  27.957   9.684   1.914
29513W        W 1938  31.504   0.768   3.347
29514W        W 1939  12.732  43.418   1.737
29515W        W 1940  31.422   6.812   4.221
29516W        W 1941  30.523   2.411   3.723
29517W        W 1942  41.349  12.194   0.479
29518W        W 1943  27.082  44.390  14.931
29519W        W 1944   7.792  19.714   1.426
29520W        W 1945   6.396  25.636  12.858
29521W        W 1946  28.538   5.261   4.221
29522W        W 1947  10.640   7.268  13.961
29523W        W 1948  21.219   8.760  10.430
29524W        W 1949  31.590  22.090  11.094
29525W        W 1950  27.171  33.425   1.835
29526W        W 1951  12.244  28.514  13.997
29527W        W 1952   8.194  39.869   4.818
29528W        W 1953   7.348  34.917   0.433
29529W        W 1954  37.514  13.788  12.989
29530W        W 1955  12.698  18.595  10.583
29531W        W 1956  25.667  27.061  11.861
29532W        W 1957  44.313  30.006   2.892
29533W        W 1958  14.716   3.943   0.843
29534W        W 1959   6.425  14.158   0.773
29535W        W 1960  37.997  39.481  10.924
29536W        W 1961  35.071   6.319  14.826
29537W        W 1962  12.267   8.181   2.289
29538W        W 1963  18.618  18.626   4.208
29539W        W 1964   0.344  36.071   3.272
29540W        W 1965  33.579  28.060   2.271
29541W        W 1966   7.773   5.757   0.906
29542W        W 1967  15.313   4.246   3.647
29543W        W 1968   6.803  19.198   0.428
29544W        W 1969  14.751  38.562   4.345
29545W        W 1970  11.723  23.707  13.408
29546W        W 1971  43.430  32.506  13.499
29547W        W 1972  33.877  25.557  13.024
29548W        W 1973  34.414  20.754   0.396
29549W        W 1974   0.474  35.917  14.498
29550W        W 1975  42.450  25.117  12.978
29551W        W 1976  30.537  29.530   4.712
29552W        W 1977  19.747  37.854   1.355
29553W        W 1978  17.080  30.424  11.944
29554W        W 1979  37.536  35.077  13.414
29555W        W 1980  38.887  16.293   1.875
29556W        W 1981  34.382   2.808   1.838
29557W        W 1982   6.803   3.251   0.347
29558W        W 1983  16.609  35.373  14.829
29559W        W 1984  35.861  41.415   2.863
29560W        W 1985  14.834  36.413   3.145
29561W        W 1986  20.183   6.186   3.325
29562W        W 1987  18.050  13.759  10.567
29563W        W 1988  32.606  10.793  12.535
29564W        W 1989   7.707   3.307  14.972
29565W        W 1990  39.513  42.355   0.898
29566W        W 1991   5.848  41.360  14.965
29567W        W 1992  14.306   9.163   0.789
29568W        W 1993  24.088  36.969  10.957
29569W        W 1994  11.325  18.677   3.686
29570W        W 1995  35.063  36.521   0.276
29571W        W 1996  36.483  10.143   0.380
29572W        W 1997  34.945  16.247  13.824
29573W        W 1998  31.550  25.204  11.001
29574W        W 1999   3.428  22.651   2.741
29575W        W 2000  37.447  10.195  12.982
29576W        W 2001  41.879  16.207  13.472
29577W        W 2002   8.656  10.274  10.493
29578W        W 2003  27.984  15.774   2.391
29579W        W 2004  23.676  12.207   1.393
29580W        W 2005  27.478   1.967  12.863
29581W        W 2006  26.155  16.075   0.928
29582W        W 2007  24.049  12.237  11.501
29583W        W 2008  25.699  25.499  12.082
29584W        W 2009  44.489  16.671   3.344
29585W        W 2010  15.087  41.969   2.370
29586W        W 2011  30.513  40.495   0.738
29587W        W 2012  39.948   5.339  10.440
29588W        W 2013   7.315  38.913  13.929
29589W        W 2014  40.344   2.317   0.462
29590W        W 2015  41.318  21.164   5.085
29591W        W 2016  19.690  17.219  12.011
29592W        W 2017  44.355   6.752   2.900
29593W        W 2018  22.063  10.370   3.668
29594W        W 2019  12.180   0.339   3.333
29595W        W 2020  27.476  41.910   2.709
29596W        W 2021  30.026   0.755  10.510
29597W        W 2022  36.877   7.695  13.356
29598W        W 2023  14.638  27.670  14.321
29599W        W 2024  24.057  30.592  11.577
29600W        W 2025  11.371  39.348   4.116
29601W        W 2026  20.759  34.939  11.031
29602W        W 2027  11.714  44.973  14.982
29603W        W 2028  10.372  20.104  14.418
29604W        W 2029  14.289   7.861   3.706
29605W        W 2030  14.796  20.237   4.175
29606W        W 2031  25.138  40.923   0.809
29607W        W 2032  38.517   0.755   0.753
29608W        W 2033  24.591  36.931   1.343
29609W        W 2034  35.493  18.768  10.631
29610W        W 2035  16.225  41.461   4.790
29611W        W 2036  44.500   8.825  12.065
29612W        W 2037  15.703  44.440  14.001
29613W        W 2038  29.473   5.736  12.548
29614W        W 2039  12.131  17.214   1.712
29615W        W 2040  30.483   4.260  10.627
29616W        W 2041  23.201  11.252  10.530
29617W        W 2042  26.558  30.593  14.430
29618W        W 2043  33.011  41.510  11.898
29619W        W 2044  32.394   3.446   2.346
29620W        W 2045  10.736   1.249   2.352
29621W        W 2046   0.824  36.879  12.934
29622W        W 2047  34.998   5.295   0.477
29623W        W 2048  23.076  25.205  11.418
29624W        W 2049  22.064   2.788   2.391
29625W        W 2050  30.608   4.755  13.341
29626W        W 2051  34.023  31.532   4.191
29627W        W 2052  29.141  12.777  12.055
29628W        W 2053   9.670  13.219   1.852
29629W        W 2054   4.852  36.925  12.388
29630W        W 2055  27.082  21.119   1.797
29631W        W 2056  32.097  26.130  10.569
29632W        W 2057   6.428   7.826   0.323
29633W        W 2058  30.008  12.685  13.921
29634W        W 2059  43.884   1.850   3.762
29635W        W 2060   6.363  28.074  13.907
29636W        W 2061   3.334   6.844   3.764
29637W        W 2062  39.064   3.766   4.762
29638W        W 2063  36.593  34.876  10.585
29639W        W 2064  29.149   4.881   1.224
29640W        W 2065  32.918   7.853  12.990
29641W        W 2066  41.341  35.960  13.450
29642W        W 2067   0.257  31.999  14.816
29643W        W 2068  18.289  41.956  10.634
29644W        W 2069  35.485   2.781  12.496
29645W        W 2070  33.010   7.325  10.418
29646W        W 2071  20.721  28.965   0.323
29647W        W 2072  27.505  32.467   9.617
29648W        W 2073  15.160  26.530   0.770
29649W        W 2074  25.150  36.860   2.348
29650W        W 2075   5.386  40.007  11.555
29651W        W 2076  29.149  16.708  12.868
29652W        W 2077  15.748   6.786  12.095
29653W        W 2078  33.417  20.087  12.942
29654W        W 2079   6.778  37.488   4.684
29655W        W 2080   5.841  10.174   4.317
29656W        W 2081  30.148  27.135   0.873
29657W        W 2082  18.164  15.174   3.787
29658W        W 2083  20.214  32.126  10.484
29659W        W 2084   3.370  15.737  12.561
29660W        W 2085  43.792   2.953   2.757
29661W        W 2086  35.972  22.597  14.857
29662W        W 2087  12.653  40.451   0.367
29663W        W 2088  24.529  34.555   2.780
29664W        W 2089  10.642  36.350   0.437
29665W        W 2090  19.214  39.434  12.889
29666W        W 2091  39.424   7.269  10.920
29667W        W 2092   4.828  41.888   0.285
29668W        W 2093  44.785  16.685   2.371
29669W        W 2094   3.290  42.492  12.043
29670W        W 2095  28.095  24.067  14.001
29671W        W 2096   6.379  24.221  11.520
29672W        W 2097   0.356   0.366  14.809
29673W        W 2098  12.750  10.336   3.766
29674W        W 2099  10.263  21.688   4.339
29675W        W 2100  42.378  37.865  11.085
29676W        W 2101  14.216  24.042   9.992
29677W        W 2102  18.567  14.249   9.986
29678W        W 2103   5.193  21.145   1.906
29679W        W 2104  32.610  20.072  14.897
29680W        W 2105  25.472  42.942   2.376
29681W        W 2106  15.592  14.256   0.898
29682W        W 2107  38.911  35.595  11.035
29683W        W 2108  23.043  11.623   2.415
29684W        W 2109  43.278  29.659   1.744
29685W        W 2110   0.382  22.640   4.698
29686W        W 2111  12.798  24.672  11.031
29687W        W 2112  13.244  16.204   4.157
29688W        W 2113   1.299  31.635   2.844
29689W        W 2114  37.484  19.605   3.160
29690W        W 2115   4.775  31.493  10.147
29691W        W 2116  24.563  11.156  13.307
29692W        W 2117  22.028  12.833  12.508
29693W        W 2118  33.983  26.456  10.529
29694W        W 2119   0.467  38.340   3.861
29695W        W 2120  14.821  39.495   3.827
29696W        W 2121  35.396   7.748  12.979
29697W        W 2122  17.112  19.534  11.574
29698W        W 2123  33.404  37.501   1.702
29699W        W 2124  41.793  25.500   2.273
29700W        W 2125   3.252  10.866   4.281
29701W        W 2126  29.489  31.643  14.768
29702W        W 2127  44.370  16.134  14.381
29703W        W 2128  33.456  43.941   9.971
29704W        W 2129  29.965   0.792  12.425
29705W        W 2130   9.205   9.367   0.771
29706W        W 2131  43.333  41.792   3.761
29707W        W 2132  29.024  31.925   3.778
29708W        W 2133  42.339  14.678   4.248
29709W        W 2134  33.454  18.162   4.753
29710W        W 2135  19.775   2.790   4.253
29711W        W 2136  25.522   3.229   2.828
29712W        W 2137  23.684  22.226  10.418
29713W        W 2138   2.280  31.986   3.783
29714W        W 2139   3.241  16.667   1.268
29715W        W 2140  16.575   6.702   1.922
29716W        W 2141  11.759  17.236  11.548
29717W        W 2142  40.399  10.685  13.472
29718W        W 2143  13.599  23.145  12.422
29719W        W 2144  11.144  29.439  10.573
29720W        W 2145   3.215   7.179   2.228
29721W        W 2146   5.345  35.550  13.946
29722W        W 2147  35.074   0.825  14.787
29723W        W 2148  22.687  40.874   3.680
29724W        W 2149   5.861  16.680  12.539
29725W        W 2150  18.666   8.839  11.924
29726W        W 2151  15.811  33.908  13.966
29727W        W 2152  36.071  23.134  10.127
29728W        W 2153  37.891  38.984   0.302
29729W        W 2154  23.510  42.366   3.769
29730W        W 2155  15.748   3.409   4.241
29731W        W 2156  19.219  40.815  10.645
29732W        W 2157  42.007  44.381  10.146
29733W        W 2158  23.606  14.175  14.817
29734W        W 2159   3.400   5.345  12.860
29735W        W 2160   8.748  38.552  11.127
29736W        W 2161  15.617  32.938   4.205
29737W        W 2162  42.362  15.268   0.967
29738W        W 2163  30.141  26.110  10.529
29739W        W 2164  23.714  24.674  13.929
29740W        W 2165   6.205  20.598   1.852
29741W        W 2166  15.094  20.594  11.956
29742W        W 2167  30.642  32.053  14.493
29743W        W 2168   9.691  44.321  12.002
29744W        W 2169  39.545  30.144  12.531
29745W        W 2170   9.824  22.659  11.021
29746W        W 2171  11.790  37.999   1.324
29747W        W 2172  27.089   3.421  10.905
29748W        W 2173  30.552  11.166  12.515
29749W        W 2174  29.020   5.428  13.418
29750W        W 2175  16.093  40.848  13.045
29751W        W 2176  38.982   5.316   0.926
29752W        W 2177  18.158  23.126  14.809
29753W        W 2178  43.862  34.888   1.283
29754W        W 2179  41.953   6.303   2.378
29755W        W 2180  13.772  42.924  14.950
29756W        W 2181  14.769   8.285  13.863
29757W        W 2182  27.669  26.611   3.376
29758W        W 2183  10.826  38.963  14.813
29759W        W 2184  37.891  27.990  14.412
29760W        W 2185   8.363  25.058   0.914
29761W        W 2186  14.241  13.842   2.291
29762W        W 2187  19.046   3.353   3.733
29763W        W 2188  10.800  22.007   0.385
29764W        W 2189  40.404  36.051  13.876
29765W        W 2190  19.566  43.499  10.460
29766W        W 2191  23.099   5.207  11.542
29767W        W 2192  43.467   8.675   0.754
29768W        W 2193  29.073  29.067   2.348
29769W        W 2194   5.859  28.562   0.281
29770W        W 2195  35.504  26.480  13.992
29771W        W 2196  25.611  35.925  11.404
29772W        W 2197  21.542   8.888  14.358
29773W        W 2198  35.069  39.523  13.517
29774W        W 2199   6.922  44.471   0.341
29775W        W 2200  13.688  43.284   2.706
29776W        W 2201   7.231   7.197  11.378
29777W        W 2202   7.670  37.885   3.826
29778W        W 2203  41.521  19.185  11.105
29779W        W 2204   3.890   2.836   3.844
29780W        W 2205  11.359  24.027  11.494
29781W        W 2206  27.002  26.110  12.945
29782W        W 2207  30.608   5.842  12.995
29783W        W 2208  39.982  38.329  13.893
29784W        W 2209  26.064  13.269  11.531
29785W        W 2210  38.501  32.896   1.357
29786W        W 2211  32.025  26.594  13.959
29787W        W 2212  23.176  14.274   3.214
29788W        W 2213  35.409  13.211  14.363
29789W        W 2214  17.620  26.664   2.225
29790W        W 2215  37.919  35.915   2.311
29791W        W 2216  17.277  14.594   4.756
29792W        W 2217   1.804   0.817   4.324
29793W        W 2218  42.970  13.625   2.403
29794W        W 2219   8.761  15.176  10.638
29795W        W 2220   1.384  43.916   4.298
29796W        W 2221  33.941  25.032  12.899
29797W        W 2222  33.041  39.944   4.252
29798W        W 2223   9.202   8.372   3.632
29799W        W 2224  41.510   0.479  14.451
29800W        W 2225  14.805  28.041  12.073
29801W        W 2226   7.674  21.607   4.157
29802W        W 2227   8.804  43.459   1.912
29803W        W 2228  15.315  24.131   1.286
29804W        W 2229  32.540  13.689  13.852
29805W        W 2230  11.687   4.212  13.016
29806W        W 2231  25.076  31.031   4.673
29807W        W 2232  39.915  28.039  12.399
29808W        W 2233   5.805  20.090   2.235
29809W        W 2234  19.546   5.743   0.747
29810W        W 2235  38.823   5.885  14.817
29811W        W 2236  12.745  25.495   0.422
29812W        W 2237  11.193  34.116  10.584
29813W        W 2238  10.302  13.330   0.815
29814W        W 2239  16.742  38.828  12.037
29815W        W 2240  28.983  32.514   5.565
29816W        W 2241  18.181  41.520   4.661
29817W        W 2242  25.607  18.182   1.229
29818W        W 2243  29.163   0.251  12.008
29819W        W 2244  29.450  35.602   4.834
29820W        W 2245  13.666  30.159   0.419
29821W        W 2246   7.387  13.115   3.758
29822W        W 2247  32.611  10.220   0.379
29823W        W 2248   6.732  21.537   3.770
29824W        W 2249  15.253  35.979  11.038
29825W        W 2250  28.638  14.742  11.046
29826W        W 2251  18.165  43.928  13.490
29827W        W 2252  40.019  25.980   1.233
29828W        W 2253  27.041  11.808  11.935
29829W        W 2254   0.333  40.979   4.214
29830W        W 2255  18.237  14.314   2.665
29831W        W 2256  13.718  25.469  12.046
29832W        W 2257  10.350  42.520   2.289
29833W        W 2258  35.929   3.921  12.526
29834W        W 2259  38.472  29.428  14.977
29835W        W 2260  42.478  42.006   0.429
29836W        W 2261  14.182  28.467   3.656
29837W        W 2262  14.705  25.597  11.095
29838W        W 2263  19.544  13.654   1.765
29839W        W 2264  17.646  39.408  12.000
29840W        W 2265  14.712  13.320   2.277
29841W        W 2266  28.492   5.425   0.809
29842W        W 2267  44.824  18.580   0.298
29843W        W 2268  26.582  34.069   4.337
29844W        W 2269  38.491  41.364   4.681
29845W        W 2270  10.261  40.528  12.892
29846W        W 2271   8.806  38.994  14.909
29847W        W 2272  30.914  29.942   2.256
29848W        W 2273  27.659  42.946  12.956
29849W        W 2274  35.908   3.307  13.928
29850W        W 2275  38.480  29.667   2.249
29851W        W 2276  15.118  12.766  13.370
29852W        W 2277   0.355   8.256   3.363
29853W        W 2278  39.552  13.836   2.753
29854W        W 2279  24.172  13.751   4.606
29855W        W 2280  21.084  12.169   2.759
29856W        W 2281  26.684  41.395   2.297
29857W        W 2282   4.432  19.721   0.351
29858W        W 2283  28.014   6.192  10.161
29859W        W 2284  21.099  30.103   4.713
29860W        W 2285  10.327  11.664   1.341
29861W        W 2286  26.493   0.454  13.929
29862W        W 2287  36.942  38.878  13.378
29863W        W 2288  16.620  11.808  13.874
29864W        W 2289  39.411  22.508  11.392
29865W        W 2290  20.730  35.457   1.866
29866W        W 2291   6.891   5.772   3.649
29867W        W 2292  13.690  22.568   1.831
29868W        W 2293   7.230   8.771   1.707
29869W        W 2294  30.070  26.569   3.777
29870W        W 2295  11.154   6.766   1.789
29871W        W 2296  40.368   5.241  12.012
29872W        W 2297  20.692  17.622   0.282
29873W        W 2298  40.393  41.479  13.440
29874W        W 2299  12.764  39.320  12.869
29875W        W 2300  23.637   2.964   2.263
29876W        W 2301  37.882  19.731   1.317
29877W        W 2302  13.647  34.456  14.343
29878W        W 2303  13.622  36.366   2.751
29879W        W 2304  22.543   4.779   3.797
29880W        W 2305   6.363  15.601   4.277
29881W        W 2306  34.985   7.292   4.116
29882W        W 2307  27.604   2.235  11.124
29883W        W 2308  21.631   7.414  10.407
29884W        W 2309  28.180   1.433  10.612
29885W        W 2310  13.664  20.617  10.540
29886W        W 2311  14.815  42.002  14.877
29887W        W 2312  27.031  32.518  10.057
29888W        W 2313  35.104  25.685   3.784
29889W        W 2314  24.989  35.924   0.785
29890W        W 2315  16.787  12.303  10.901
29891W        W 2316  37.445   7.329  13.037
29892W        W 2317  42.018  23.123  11.058
29893W        W 2318  22.577  16.679  10.161
29894W        W 2319  43.409  35.492  12.834
29895W        W 2320   8.765   2.276   4.819
29896W        W 2321  31.919  30.607  14.284
29897W        W 2322  35.413  44.443   3.721
29898W        W 2323  38.894  18.288  11.578
29899W        W 2324  25.650  14.710   0.809
29900W        W 2325  16.585   8.822   4.708
29901W        W 2326   4.879   7.677   0.311
29902W        W 2327  44.788  28.611   2.826
29903W        W 2328  25.548   6.182   0.921
29904W        W 2329  41.362  10.280  11.891
29905W        W 2330  38.523  18.713   2.781
29906W        W 2331  31.111  38.024  11.437
29907W        W 2332  15.674   3.714   1.420
29908W        W 2333   6.376  12.171  14.445
29909W        W 2334  44.780   0.387   1.340
29910W        W 2335  27.014  10.153   0.856
29911W        W 2336  34.581  28.570  11.508
29912W        W 2337  34.061  41.480   0.917
29913W        W 2338  33.131  13.698   2.793
29914W        W 2339  16.782   6.353  11.044
29915W        W 2340  25.115  44.785  12.050
29916W        W 2341  26.577  30.436  13.037
29917W        W 2342  39.810  16.573  13.438
29918W        W 2343   3.838  37.835   0.945
29919W        W 2344  37.518  25.585  10.128
29920W        W 2345  41.043  34.526  11.510
29921W        W 2346  13.741  29.624   1.406
29922W        W 2347  33.088  29.021   4.735
29923W        W 2348   0.385   4.341   2.667
29924W        W 2349   4.700  10.710   1.314
29925W        W 2350   7.380  35.957  11.874
29926W        W 2351   3.722   7.725   4.180
29927W        W 2352   8.390  11.842   0.401
29928W        W 2353  21.225  17.741  13.314
29929W        W 2354  17.113   7.204   4.669
29930W        W 2355   2.424  13.835   1.888
29931W        W 2356  18.198  31.000   4.313
29932W        W 2357   1.919  24.545  14.857
29933W        W 2358   9.882   7.404  12.973
29934W        W 2359  35.859   9.193   3.184
29935W        W 2360  39.451  40.547  13.545
29936W        W 2361  13.677  20.165  13.986
29937W        W 2362  14.679  39.432  10.494
29938W        W 2363   6.811  36.403  10.550
29939W        W 2364  37.342  44.312  12.476
29940W        W 2365  10.837   7.884  10.636
29941W        W 2366  44.468  33.898   3.866
29942W        W 2367   8.176   9.818  12.071
29943W        W 2368  18.174  32.071   5.185
29944W        W 2369  21.034  28.476  10.993
29945W        W 2370  19.621   1.821  11.030
29946W        W 2371  14.673  26.149  11.047
29947W        W 2372  21.725   5.765  11.936
29948W        W 2373   4.430  43.294  14.401
29949W        W 2374  10.212  40.491   1.362
29950W        W 2375  20.104  10.314   0.763
29951W        W 2376  21.256  17.261   1.797
29952W        W 2377  34.481  24.627   1.304
29953W        W 2378   2.801  12.148  13.532
29954W        W 2379  16.784   3.883   4.149
29955W        W 2380  43.444  34.008   0.420
29956W        W 2381  14.132  42.942   3.256
29957W        W 2382  29.554   8.384   4.168
29958W        W 2383  23.015  30.130  11.465
29959W        W 2384  13.216  24.499   4.773
29960W        W 2385  34.460  40.444   3.294
29961W        W 2386   0.493  18.581   0.928
29962W        W 2387  30.986  34.513  13.050
29963W        W 2388  16.112  29.092   0.454
29964W        W 2389  32.969  17.217  14.016
29965W        W 2390  11.151  13.813  13.929
29966W        W 2391  14.190  35.897  13.021
29967W        W 2392  41.972  35.991  11.014
29968W        W 2393  18.238  37.577   3.677
29969W        W 2394  36.405  26.589  10.600
29970W        W 2395   9.178  14.785  10.459
29971W        W 2396  10.670   3.820  14.284
29972W        W 2397  38.455  37.515   3.282
29973W        W 2398  28.512   2.939  10.536
29974W        W 2399  35.481   7.331   3.344
29975W        W 2400   2.833   8.881   4.279
29976W        W 2401  42.321  38.911   3.253
29977W        W 2402  29.174  20.731  14.963
29978W        W 2403  13.641  37.505   0.482
29979W        W 2404  26.664  43.976  12.437
29980W        W 2405  11.675   0.414  14.828
29981W        W 2406  32.392  33.446   0.261
29982W        W 2407  27.968  27.675   3.834
29983W        W 2408  41.868  38.886   1.287
29984W        W 2409  19.148   6.733   0.794
29985W        W 2410  39.885  16.694   1.410
29986W        W 2411  28.036  19.673   1.887
29987W        W 2412  28.522   1.386  13.960
29988W        W 2413  24.697  25.528   3.678
29989W        W 2414  43.780   5.881   0.419
29990W        W 2415  30.103  25.495   2.401
29991W        W 2416  13.660  13.792  10.553
29992W        W 2417  10.807  12.283   0.754
29993W        W 2418  35.407  39.853   3.278
29994W        W 2419   7.800  24.210  13.312
29995W        W 2420  40.845  18.209   0.776
29996W        W 2421  23.493  24.589   1.902
29997W        W 2422  24.498   9.779  10.027
29998W        W 2423  14.794  20.235   3.202
29999W        W 2424  39.526  35.378   1.418
30000W        W 2425  15.208  32.620   1.747
30001W        W 2426  35.509   5.867   1.796
30002W        W 2427  35.570  19.106  11.393
30003W        W 2428  29.151  10.148   1.425
30004W        W 2429  30.623   4.258   1.765
30005W        W 2430  38.382  16.594   1.747
30006W        W 2431  36.441  23.212   5.081
30007W        W 2432  25.137  21.068   0.873
30008W        W 2433  44.927   3.310  12.419
30009W        W 2434   3.450   4.362   0.844
30010W        W 2435   5.929  14.760  13.369
30011W        W 2436  40.801  10.861  13.839
30012W        W 2437  21.116  12.696  12.371
30013W        W 2438   7.748  32.616  13.345
30014W        W 2439  28.562  24.495   2.813
30015W        W 2440  40.350   9.762   2.787
30016W        W 2441  31.122  25.195  10.577
30017W        W 2442  42.315   8.735  12.059
30018W        W 2443   5.877  24.609  14.504
30019W        W 2444  19.758   4.933   3.737
30020W        W 2445   1.297  20.163   3.327
30021W        W 2446  13.289  37.073   1.828
30022W        W 2447   9.337  16.592  10.640
30023W        W 2448  10.634  35.551   1.266
30024W        W 2449  17.074  34.960   1.916
30025W        W 2450   0.390  15.189  11.902
30026W        W 2451   7.809  37.951   4.352
30027W        W 2452  14.762   1.928   1.824
30028W        W 2453  43.886   5.222   0.795
30029W        W 2454  31.042  36.065  12.980
30030W        W 2455  35.396  13.681   4.349
30031W        W 2456  31.580   5.340   4.208
30032W        W 2457  15.776  37.518  12.845
30033W        W 2458  43.968  29.518  13.869
30034W        W 2459  40.045  38.070   2.249
30035W        W 2460  13.274  43.784  11.461
30036W        W 2461  40.359   1.842   3.348
30037W        W 2462   9.750   0.901   3.162
30038W        W 2463  44.389   3.261  14.014
30039W        W 2464  22.692  36.097  13.345
30040W        W 2465  39.549  29.651   1.443
30041W        W 2466  38.858  42.989  12.908
30042W        W 2467  36.567  43.366  12.902
30043W        W 2468  38.005  23.145  14.989
30044W        W 2469  13.171  18.205  13.916
30045W        W 2470   4.914   0.263  12.992
30046W        W 2471  39.028  24.996  10.097
30047W        W 2472  25.962  16.785   1.320
30048W        W 2473  10.338  31.498  14.352
30049W        W 2474  18.198  32.556  12.518
30050W        W 2475  23.688  37.967   0.749
30051W        W 2476  17.294  42.968   4.608
30052W        W 2477  42.323   5.815   3.859
30053W        W 2478  24.591  26.150   4.212
30054W        W 2479  43.946   9.320  12.470
30055W        W 2480  41.966  33.926   4.172
30056W        W 2481  24.479  32.984   1.384
30057W        W 2482  20.039  42.986  12.035
30058W        W 2483  33.380  31.116  13.888
30059W        W 2484  42.898  37.999   0.361
30060W        W 2485  14.215  24.562  14.275
30061W        W 2486  15.615   6.754  14.892
30062W        W 2487  16.692  15.148   0.797
30063W        W 2488  13.686  39.368  13.985
30064W        W 2489  22.601  26.609  12.398
30065W        W 2490   9.288  41.482  11.059
30066W        W 2491  27.111  38.494   2.766
30067W        W 2492  31.052  15.143  10.426
30068W        W 2493  15.816  13.302   2.389
30069W        W 2494  28.943  16.745   2.740
30070W        W 2495  28.525  25.156   3.799
30071W        W 2496  44.801   1.888  13.515
30072W        W 2497  27.108  25.702   1.216
30073W        W 2498  29.952  17.061   4.833
30074W        W 2499  14.262   8.820  11.093
30075W        W 2500  25.163  30.630  11.502
30076W        W 2501  40.520  43.769  12.374
30077W        W 2502  32.459   5.330  13.545
30078W        W 2503  19.695  19.254   4.184
30079W        W 2504  10.172  30.939  12.581
30080W        W 2505  43.449  37.448   3.211
30081W        W 2506  10.803  13.320  14.925
30082W        W 2507  36.044   2.257   4.268
30083W        W 2508   5.361  25.564  12.863
30084W        W 2509  15.289  17.702  10.595
30085W        W 2510  23.131  25.596  12.388
30086W        W 2511  22.626  18.691   1.777
30087W        W 2512  42.799   2.947   2.216
30088W        W 2513   9.262   3.815  11.958
30089W        W 2514   9.248   5.869   0.833
30090W        W 2515  39.959  40.539   2.214
30091W        W 2516   7.694  25.073  11.105
30092W        W 2517  21.758  34.394  14.927
30093W        W 2518  39.023   1.783   1.871
30094W        W 2519  39.389   3.743   1.367
30095W        W 2520  24.143  36.478  10.929
30096W        W 2521  22.567  39.447  10.497
30097W        W 2522  24.571   0.757   2.854
30098W        W 2523  18.562  39.055  14.341
30099W        W 2524  18.116   3.425   4.176
30100W        W 2525  24.695  17.568   2.856
30101W        W 2526   9.697  20.613  14.447
30102W        W 2527   0.494  11.650  11.862
30103W        W 2528   6.823  36.080   2.405
30104W        W 2529  30.466   7.852   1.389
30105W        W 2530   6.338  10.179  12.079
30106W        W 2531  20.221  21.613   1.912
30107W        W 2532  21.161  11.634   0.432
30108W        W 2533  32.506  30.991   2.379
30109W        W 2534  32.399  24.725   2.733
30110W        W 2535  35.559  40.972  13.027
30111W        W 2536  25.508  27.983  10.889
30112W        W 2537   9.662  35.047  11.102
30113W        W 2538  30.130  22.609   0.425
30114W        W 2539  20.625  31.014  14.395
30115W        W 2540  10.632  20.680  13.441
30116W        W 2541   7.337  15.714  12.882
30117W        W 2542  22.623  43.988  14.995
30118W        W 2543  28.528  30.472   1.860
30119W        W 2544   6.228  27.049  13.483
30120W        W 2545   5.817  43.794   2.675
30121W        W 2546  13.139   0.859   2.684
30122W        W 2547  35.886  13.663  10.484
30123W        W 2548  36.058  37.423   4.801
30124W        W 2549   1.329  15.661   4.331
30125W        W 2550  42.850   5.758   4.258
30126W        W 2551  37.900  16.101  11.589
30127W        W 2552  25.981  40.906   3.868
30128W        W 2553   0.759  39.862  12.393
30129W        W 2554   8.828   1.413   3.270
30130W        W 2555  23.086  33.069  12.574
30131W        W 2556   0.359  28.630  12.002
30132W        W 2557  41.473  44.867   3.716
30133W        W 2558  23.592  16.203   1.755
30134W        W 2559   2.288  34.955   2.721
30135W        W 2560  11.772   2.289   4.678
30136W        W 2561  39.927  35.493   0.419
30137W        W 2562  19.610  20.706   2.806
30138W        W 2563  20.523  33.908  12.384
30139W        W 2564  20.580  12.749   1.350
30140W        W 2565  27.120  37.419  13.983
30141W        W 2566  25.973  35.553  13.410
30142W        W 2567  20.750  14.670  13.366
30143W        W 2568  12.721  37.482   0.483
30144W        W 2569  26.658  31.516  14.827
30145W        W 2570  29.522  25.025   0.463
30146W        W 2571   0.871  31.560   1.720
30147W        W 2572  26.070  25.086  13.929
30148W        W 2573  25.536  20.556  10.945
30149W        W 2574   4.752   6.728  13.820
30150W        W 2575  27.688  42.346  14.443
30151W        W 2576  23.042  38.879  10.582
30152W        W 2577  19.199   6.231  10.422
30153W        W 2578   2.736  10.669  13.533
30154W        W 2579  44.884  11.257   3.775
30155W        W 2580   9.837   7.231   1.698
30156W        W 2581   6.903  42.787  10.588
30157W        W 2582  10.793   9.178  13.803
30158W        W 2583  30.510  37.554   0.310
30159W        W 2584  32.513  26.677   4.146
30160W        W 2585  44.984  11.164   2.717
30161W        W 2586  26.009  24.715   0.752
30162W        W 2587  18.129   3.387  12.364
30163W        W 2588  11.236  14.198   1.766
30164W        W 2589  28.634  36.069  14.871
30165W        W 2590  12.754  34.888  13.888
30166W        W 2591   1.368  26.990   3.217
30167W        W 2592  41.040  23.101  11.995
30168W        W 2593  36.357  31.092   0.864
30169W        W 2594  10.687  28.961  13.960
30170W        W 2595  36.584  33.011   4.302
30171W        W 2596  42.372  14.335   2.736
30172W        W 2597  33.469  44.334  10.112
30173W        W 2598  10.199  19.658   0.355
30174W        W 2599   0.269  26.662  13.799
30175W        W 2600  22.105  44.361   2.225
30176W        W 2601  10.353   2.264   0.765
30177W        W 2602  19.284  23.588  12.564
30178W        W 2603  10.235   6.403  10.436
30179W        W 2604  33.561  14.696   4.742
30180W        W 2605  32.898   0.769   2.344
30181W        W 2606   1.291  16.773  12.414
30182W        W 2607  38.905   5.406   4.175
30183W        W 2608   9.745  21.252   0.732
30184W        W 2609  30.466  38.832   5.313
30185W        W 2610  19.752  22.078   3.818
30186W        W 2611  23.149   4.865  12.974
30187W        W 2612  41.841   3.906   1.295
30188W        W 2613  14.180   3.400   1.775
30189W        W 2614  19.550  28.942   1.368
30190W        W 2615  42.379  12.271   1.385
30191W        W 2616  30.132  16.197  13.391
30192W        W 2617   4.372  11.262  14.856
30193W        W 2618   1.362   3.856   0.483
30194W        W 2619  40.361  10.835   4.222
30195W        W 2620  20.141  32.571  12.552
30196W        W 2621  42.981  44.809   4.777
30197W        W 2622  23.179  11.804   3.631
30198W        W 2623  35.493  37.964   3.869
30199W        W 2624   1.751   2.853   4.335
30200W        W 2625  34.541  28.002   1.260
30201W        W 2626  20.043   0.433   2.706
30202W        W 2627  31.963  40.420   4.305
30203W        W 2628  23.538  25.604  13.516
30204W        W 2629  35.029  13.720   2.791
30205W        W 2630   3.865   3.908  10.426
30206W        W 2631  16.234   8.670   2.375
30207W        W 2632  14.326   4.382  14.292
30208W        W 2633  25.493   0.910   0.380
30209W        W 2634  44.831  30.649  12.467
30210W        W 2635  39.872  44.469  13.483
30211W        W 2636   0.774  31.935  11.555
30212W        W 2637  13.156  11.277   2.789
30213W        W 2638  34.010  12.722   4.711
30214W        W 2639  39.482  43.304  12.539
30215W        W 2640   4.708  31.092   0.737
30216W        W 2641  39.376   8.394   0.796
30217W        W 2642  42.494   8.673   2.828
30218W        W 2643  13.812  36.371  12.084
30219W        W 2644  13.720  41.536  10.562
30220W        W 2645  21.180  39.834  13.858
30221W        W 2646  19.663  25.192  11.932
30222W        W 2647  25.071  32.898  11.501
30223W        W 2648  14.242  41.435   4.610
30224W        W 2649  18.290  27.966   4.750
30225W        W 2650  20.566  18.738   4.694
30226W        W 2651   7.721  12.354  14.953
30227W        W 2652  31.561  18.205   3.807
30228W        W 2653   2.788  22.156   2.203
30229W        W 2654   0.927  37.388   0.249
30230W        W 2655  31.406   5.821   1.869
30231W        W 2656  32.128  29.039   2.275
30232W        W 2657   0.958  10.706   3.379
30233W        W 2658  15.633  14.137  13.474
30234W        W 2659  12.347  39.393   3.864
30235W        W 2660   3.387  26.955  13.043
30236W        W 2661  41.943   1.432   1.849
30237W        W 2662  39.913  30.470  11.967
30238W        W 2663  43.918  22.036  14.884
30239W        W 2664  33.593  11.129   0.471
30240W        W 2665  40.960  34.497  13.830
30241W        W 2666  21.568  26.156   1.292
30242W        W 2667  11.143   7.233  13.802
30243W        W 2668  39.441  28.936  14.827
30244W        W 2669  39.392  27.134   3.362
30245W        W 2670   5.839  18.572   3.227
30246W        W 2671  20.207   3.317  10.409
30247W        W 2672  30.946  41.988   4.226
30248W        W 2673  12.270  43.893  11.081
30249W        W 2674   4.793   9.351  13.990
30250W        W 2675  17.715  24.173  12.532
30251W        W 2676  27.122  18.714   2.209
30252W        W 2677  16.643  25.170  13.849
30253W        W 2678  37.438  23.165  10.626
30254W        W 2679   8.875  40.483   1.246
30255W        W 2680   8.303   1.268  14.938
30256W        W 2681  11.280  22.054   1.441
30257W        W 2682   0.840  21.613   1.782
30258W        W 2683  30.054   0.413   0.962
30259W        W 2684  32.066  18.272  12.484
30260W        W 2685  26.651   3.278  13.867
30261W        W 2686  26.548  31.618   2.249
30262W        W 2687   0.822  10.170   3.300
30263W        W 2688  26.636  22.560   5.226
30264W        W 2689   2.442  43.361   3.264
30265W        W 2690  26.029  16.769  11.001
30266W        W 2691   9.884   3.753  11.954
30267W        W 2692  40.860  37.423  11.593
30268W        W 2693  16.263  25.703  12.541
30269W        W 2694   3.360  44.981   0.327
30270W        W 2695  26.523   9.736  12.452
30271W        W 2696  43.954   6.862  12.922
30272W        W 2697  12.630  10.681   1.910
30273W        W 2698  24.526   9.211  13.384
30274W        W 2699  29.434  42.426  14.319
30275W        W 2700  41.382  10.746  12.407
30276W        W 2701  15.738   7.908   1.435
30277W        W 2702  44.950  42.343  14.933
30278W        W 2703  12.642  27.965  10.549
30279W        W 2704  29.025  21.667   1.869
30280W        W 2705  24.001  43.960  12.376
30281W        W 2706  19.269  25.186  12.456
30282W        W 2707  30.520  19.565  12.562
30283W        W 2708   8.843   8.730  14.973
30284W        W 2709  44.765  32.461  13.965
30285W        W 2710  17.146   1.324  10.044
30286W        W 2711  43.009  13.664   0.731
30287W        W 2712  25.078   2.898   0.483
30288W        W 2713  10.643  37.040  13.919
30289W        W 2714  21.657   3.337  14.853
30290W        W 2715   2.241   6.408   0.729
30291W        W 2716   3.918  20.676  12.839
30292W        W 2717  36.981  29.588   1.336
30293W        W 2718  31.925  42.478  11.897
30294W        W 2719   4.334  12.774  13.367
30295W        W 2720   0.794  43.888   3.633
30296W        W 2721  22.135  22.540   3.293
30297W        W 2722  27.457  31.093  10.439
30298W        W 2723  36.950  24.022   2.689
30299W        W 2724   7.777   0.822  13.453
30300W        W 2725  44.939   4.432   2.685
30301W        W 2726  19.584  28.969   4.282
30302W        W 2727  37.569  25.522   1.340
30303W        W 2728   2.826  33.514   1.428
30304W        W 2729  22.516  33.502  12.339
30305W        W 2730   8.197  43.949   0.433
30306W        W 2731   7.388  23.110  14.310
30307W        W 2732  27.043  13.271   3.343
30308W        W 2733  29.970   0.435   3.332
30309W        W 2734  12.298  32.967  10.520
30310W        W 2735   5.796  34.114  12.012
30311W        W 2736  40.502  21.144  11.555
30312W        W 2737  41.365  33.070  12.975
30313W        W 2738   9.662  18.215  12.926
30314W        W 2739  44.395  14.655  14.331
30315W        W 2740  16.785  42.409   4.156
30316W        W 2741  30.525  23.491  13.490
30317W        W 2742  42.349  30.597  14.860
30318W        W 2743  19.595   2.810   3.178
30319W        W 2744  44.259  36.363   4.147
30320W        W 2745  21.659  14.177  12.414
30321W        W 2746   2.739  38.904  13.817
30322W        W 2747  27.495  12.768  10.447
30323W        W 2748  28.120  12.202  13.871
30324W        W 2749   8.242  30.090   1.368
30325W        W 2750  42.467   4.436  13.452
30326W        W 2751  19.153  25.036  11.937
30327W        W 2752  22.056  16.236  11.375
30328W        W 2753  30.426  20.253   0.379
30329W        W 2754  40.975  13.732  14.960
30330W        W 2755  42.496  26.086  13.542
30331W        W 2756  43.937  12.242   0.454
30332W        W 2757  30.630  10.790  12.839
30333W        W 2758  41.988  39.411   2.716
30334W        W 2759  36.469  27.577  11.489
30335W        W 2760   3.954  10.737  12.389
30336W        W 2761  39.503  32.113   2.317
30337W        W 2762  22.510  36.450   0.244
30338W        W 2763  29.016  25.114  14.309
30339W        W 2764  37.542  31.443  14.424
30340W        W 2765   8.282  33.055  11.478
30341W        W 2766  43.307   9.841  13.534
30342W        W 2767   0.477  39.522   0.287
30343W        W 2768   7.395  18.285  12.067
30344W        W 2769  33.128  15.641   3.303
30345W        W 2770   5.829  43.831  13.370
30346W        W 2771  13.339  10.703  13.427
30347W        W 2772  35.502  33.124   2.784
30348W        W 2773  14.803  26.179   4.637
30349W        W 2774  25.697   3.459   2.354
30350W        W 2775  34.901  36.489   0.789
30351W        W 2776  29.965  42.937   4.338
30352W        W 2777  44.890  11.208  10.461
30353W        W 2778   3.897  17.085  12.465
30354W        W 2779  12.302  16.201   1.273
30355W        W 2780  11.362  37.886   4.638
30356W        W 2781  41.298  34.448  11.050
30357W        W 2782  20.654  39.832  13.884
30358W        W 2783  30.954   1.859  14.426
30359W        W 2784  24.596  23.549   1.355
30360W        W 2785  14.104  38.563  13.346
30361W        W 2786  18.242  18.790  12.088
30362W        W 2787  19.735  26.183   4.176
30363W        W 2788  22.605  44.449  13.383
30364W        W 2789  20.703  43.320   1.306
30365W        W 2790  41.370   9.663   0.869
30366W        W 2791  14.606  40.364   0.796
30367W        W 2792   7.721   5.748   3.294
30368W        W 2793  23.535  13.711   1.408
30369W        W 2794   8.396   8.174  11.036
30370W        W 2795  28.589  30.069   1.866
30371W        W 2796   6.262  13.336   3.664
30372W        W 2797  37.412  15.161   1.899
30373W        W 2798  33.417  20.581  13.893
30374W        W 2799   5.377   5.204  13.929
30375W        W 2800  27.691  32.539   2.766
30376W        W 2801  14.196   1.769   1.349
30377W        W 2802  16.291   8.875  13.996
30378W        W 2803  16.286   7.704   3.841
30379W        W 2804  29.670   6.765   0.300
30380W        W 2805  23.162  31.903  10.944
30381W        W 2806   9.781  41.469   1.294
30382W        W 2807   2.801  26.684   1.891
30383W        W 2808  40.313  31.964   2.270
30384W        W 2809   2.945  31.032  11.038
30385W        W 2810   4.767  36.515  11.403
30386W        W 2811  41.981   9.168  10.929
30387W        W 2812  11.298   9.193  14.445
30388W        W 2813  41.973   2.262  14.375
30389W        W 2814  39.385  15.618  14.004
30390W        W 2815  19.068   5.275   1.441
30391W        W 2816   2.944  36.953  13.824
30392W        W 2817   5.886   0.849   4.697
30393W        W 2818   5.270  17.739  12.899
30394W        W 2819  11.211   0.830   2.256
30395W        W 2820  15.810  22.713  13.476
30396W        W 2821  32.968  43.958  14.778
30397W        W 2822  26.120   8.181   0.756
30398W        W 2823  42.841  11.337   2.233
30399W        W 2824  42.334  42.959   0.816
30400W        W 2825   2.909  27.613   3.182
30401W        W 2826   1.790  11.156  11.600
30402W        W 2827  21.144   7.265  12.864
30403W        W 2828  44.477  29.465  13.031
30404W        W 2829   2.744   2.722  12.942
30405W        W 2830  31.063  28.569   4.158
30406W        W 2831  25.179  15.282  10.942
30407W        W 2832  43.500  40.949  11.078
30408W        W 2833  41.298  29.652  12.958
30409W        W 2834  14.150  26.072   0.362
30410W        W 2835  17.221  25.472  13.814
30411W        W 2836  21.609  30.537   4.662
30412W        W 2837  13.715  38.527   3.250
30413W        W 2838  37.536   8.704   1.763
30414W        W 2839  24.154  19.636  10.957
30415W        W 2840  39.848  15.160   2.741
30416W        W 2841  18.229  15.794  11.058
30417W        W 2842  20.100  36.509  13.965
30418W        W 2843  30.106  18.164   5.674
30419W        W 2844  38.865   7.906  12.859
30420W        W 2845  10.196  15.110  12.873
30421W        W 2846  36.931  16.763  14.026
30422W        W 2847   6.265  13.665   3.709
30423W        W 2848   0.416  39.908  12.540
30424W        W 2849  10.278  40.421  10.589
30425W        W 2850  37.534   0.907   3.696
30426W        W 2851  36.070   6.188   2.760
30427W        W 2852  11.334   0.900  13.796
30428W        W 2853  40.007   6.753  10.434
30429W        W 2854  18.687  18.061  12.905
30430W        W 2855  33.562  32.478  10.440
30431W        W 2856  34.404   9.176   4.780
30432W        W 2857  34.593  13.298  13.516
30433W        W 2858   8.748  11.672  10.984
30434W        W 2859  39.824  25.602   1.397
30435W        W 2860  27.047  31.607  11.034
30436W        W 2861  32.619  44.783  11.942
30437W        W 2862  37.077   2.454  10.487
30438W        W 2863  21.602   1.392   0.964
30439W        W 2864  43.479  43.431  13.463
30440W        W 2865  36.087  18.099   3.825
30441W        W 2866  36.045   1.959  11.994
30442W        W 2867  15.289  10.314  14.293
30443W        W 2868  41.411  41.955  10.445
30444W        W 2869  19.039  29.479  12.073
30445W        W 2870  44.296  20.155  10.641
30446W        W 2871   1.435  34.551  12.981
30447W        W 2872   3.401   3.229  10.571
30448W        W 2873  36.420  19.729   4.661
30449W        W 2874  17.701  40.009   2.305
30450W        W 2875  40.431  23.095  12.514
30451W        W 2876  23.029  23.548   3.258
30452W        W 2877  16.603  18.548  14.387
30453W        W 2878  28.981  24.663  13.917
30454W        W 2879   4.756  40.837  10.632
30455W        W 2880  23.718  12.741  12.904
30456W        W 2881  43.860  42.976   4.729
30457W        W 2882  28.627   4.737  12.519
30458W        W 2883  10.860   2.916   4.271
30459W        W 2884  43.980  44.360  11.894
30460W        W 2885   3.809  34.417  11.568
30461W        W 2886  10.204  33.124   0.825
30462W        W 2887  11.319   1.386   0.358
30463W        W 2888  34.521   4.923   3.250
30464W        W 2889  43.999   9.710   1.802
30465W        W 2890  19.683   4.944  14.852
30466W        W 2891  32.560  38.072   4.659
30467W        W 2892  24.048  21.171  14.302
30468W        W 2893  26.131  12.759   4.793
30469W        W 2894  19.133   5.396   3.319
30470W        W 2895   7.717  10.384   3.689
30471W        W 2896  20.615  17.216  12.965
30472W        W 2897   3.260  43.917   1.905
30473W        W 2898  24.531  40.421  13.493
30474W        W 2899  32.054  44.446  11.923
30475W        W 2900  36.393  34.417   5.193
30476W        W 2901   3.931  32.063  11.017
30477W        W 2902  43.889  33.435   3.223
30478W        W 2903  23.663   1.932  13.331
30479W        W 2904  38.481  31.529  11.040
30480W        W 2905  27.141   0.417   1.914
30481W        W 2906  16.666   1.916   4.680
30482W        W 2907  32.519  31.452   0.775
30483W        W 2908  10.272  41.833  14.491
30484W        W 2909   1.439  19.577  11.590
30485W        W 2910   3.948  18.257  13.528
30486W        W 2911  28.134  12.681  11.010
30487W        W 2912  12.270  26.009  11.577
30488W        W 2913  15.587  28.150   3.287
30489W        W 2914  23.581  27.100  11.555
30490W        W 2915  23.695  26.639  13.951
30491W        W 2916  23.217  12.167  12.831
30492W        W 2917  16.668   6.825   2.887
30493W        W 2918  31.613   8.699   4.292
30494W        W 2919  30.092   0.292   4.178
30495W        W 2920  24.127  19.759  14.808
30496W        W 2921  31.440  39.819   0.951
30497W        W 2922  29.588   6.688  14.852
30498W        W 2923  36.559  41.489   3.782
30499W        W 2924  11.269  44.429   4.131
30500W        W 2925  18.645  40.024  12.533
30501W        W 2926  16.213  21.724  14.350
30502W        W 2927   8.698  15.222  11.955
30503W        W 2928  15.660  15.084  14.385
30504W        W 2929   8.799  40.337  14.973
30505W        W 2930  10.207   4.778  11.004
30506W        W 2931  23.714  41.895   3.237
30507W        W 2932  38.501  13.174  11.448
30508W        W 2933   6.889  39.382  10.542
30509W        W 2934   4.784   1.361   1.302
30510W        W 2935   9.676  32.632   1.696
30511W        W 2936   9.673  40.342   3.303
30512W        W 2937  33.936   2.926  11.374
30513W        W 2938  38.348  44.834  12.520
30514W        W 2939  43.853  22.190   1.703
30515W        W 2940  24.639   9.382  10.423
30516W        W 2941  10.844  33.509  10.052
30517W        W 2942  37.485  26.039  10.567
30518W        W 2943  19.585  13.340  14.852
30519W        W 2944  28.104   3.849   3.741
30520W        W 2945  12.125  19.539   4.814
30521W        W 2946   6.741  12.130  14.441
30522W        W 2947  32.904   9.188  14.501
30523W        W 2948  26.050  18.780  13.441
30524W        W 2949  30.430   9.771  14.465
30525W        W 2950  11.256   0.827  12.558
30526W        W 2951  40.528  40.310  13.355
30527W        W 2952   7.348  15.630   4.681
30528W        W 2953  39.861  26.118  10.889
30529W        W 2954  11.319  18.262   3.166
30530W        W 2955  26.694  11.341  13.883
30531W        W 2956  15.122  26.146  13.992
30532W        W 2957  33.051   0.481  11.401
30533W        W 2958  14.819  34.608   2.804
30534W        W 2959  14.340  19.164   2.761
30535W        W 2960   9.845  15.142   2.337
30536W        W 2961  38.480  17.614  11.497
30537W        W 2962  19.106  38.433  10.610
30538W        W 2963  13.826  43.770   3.730
30539W        W 2964  28.621  25.069   2.841
30540W        W 2965  32.897   3.298   2.786
30541W        W 2966  42.894   2.907  14.371
30542W        W 2967  43.819  29.534  11.947
30543W        W 2968  31.527  27.580   4.309
30544W        W 2969   5.901  29.082   0.452
30545W        W 2970  23.226   8.353   1.450
30546W        W 2971   7.332  21.544   0.245
30547W        W 2972  30.448   4.785   2.231
30548W        W 2973  40.801  38.951   4.722
30549W        W 2974  37.415  23.520  14.844
30550W        W 2975  38.021  25.682  12.081
30551W        W 2976  24.527  15.747   1.446
30552W        W 2977   8.316  23.535  11.076
30553W        W 2978  41.322  28.129  11.453
30554W        W 2979  38.525  22.652   3.859
30555W        W 2980   8.239  21.229  14.767
30556W        W 2981  27.168  10.638  12.955
30557W        W 2982  31.477  33.874   2.831
30558W        W 2983   7.694  13.127   1.435
30559W        W 2984   4.220  11.642   4.221
30560W        W 2985   0.804  23.619  12.829
30561W        W 2986  42.418  28.658   4.692
30562W        W 2987  19.064   6.794   4.736
30563W        W 2988  21.744  31.941  11.080
30564W        W 2989  20.037   2.374  11.903
30565W        W 2990   2.291  34.031   2.290
30566W        W 2991  19.194  14.607  14.804
30567W        W 2992  44.859  19.759   5.306
30568W        W 2993  26.076  35.861   4.836
30569W        W 2994  37.396  42.943   1.924
30570W        W 2995   2.943  22.112   2.745
30571W        W 2996  24.074  39.489  11.958
30572W        W 2997  22.538  13.722  10.535
30573W        W 2998  17.170  44.834   4.795
30574W        W 2999  25.490  33.623   1.244
30575W        W 3000  33.934  33.107   1.405
30576W        W 3001  44.935   3.948   4.752
30577W        W 3002   4.240  10.805  13.840
30578W        W 3003   7.895  17.171   5.169
30579W        W 3004  17.296   0.378   3.831
30580W        W 3005   5.862  23.549  11.487
30581W        W 3006  10.638  38.035  13.321
30582W        W 3007  43.317   4.333  14.873
30583W        W 3008  36.069  31.099   1.412
30584W        W 3009  35.080  29.044   3.305
30585W        W 3010  19.155  16.268  10.892
30586W        W 3011  42.363  43.856  14.332
30587W        W 3012  11.302  37.557  14.383
30588W        W 3013  29.664  43.780   1.281
30589W        W 3014  21.245  39.520  13.864
30590W        W 3015  26.201  22.154  14.936
30591W        W 3016  12.221  22.634  11.982
30592W        W 3017   2.749  13.839  14.278
30593W        W 3018  42.822   2.844   2.841
30594W        W 3019  15.102  18.712   4.652
30595W        W 3020   5.312  36.854   1.217
30596W        W 3021  31.489   4.265   2.305
30597W        W 3022   9.248  22.511   2.192
30598W        W 3023  17.093  15.313  12.055
30599W        W 3024  27.533  26.474  13.497
30600W        W 3025  35.044  36.349  11.882
30601W        W 3026  34.407  30.654   2.346
30602W        W 3027  11.642   3.815  11.498
30603W        W 3028  26.120  26.650  14.883
30604W        W 3029  40.463  42.970   1.906
30605W        W 3030  22.723  22.579   4.657
30606W        W 3031  38.014  16.216   1.217
30607W        W 3032   4.768  27.973   0.401
30608W        W 3033  38.571  10.274   2.329
30609W        W 3034   3.373  22.541   1.847
30610W        W 3035  25.641  11.204  10.628
30611W        W 3036  33.972  40.477  14.860
30612W        W 3037  12.205   0.773   1.368
30613W        W 3038   2.340  26.186  11.493
30614W        W 3039  16.272   8.210   0.311
30615W        W 3040  37.562  42.817   5.260
30616W        W 3041  14.197  20.739  12.972
30617W        W 3042  30.489  16.766  13.921
30618W        W 3043  30.637  19.616  11.536
30619W        W 3044   5.861   8.227   3.153
30620W        W 3045  40.922  41.855  14.774
30621W        W 3046  22.704  39.493  14.348
30622W        W 3047  13.329  16.279  12.971
30623W        W 3048  10.215   4.405  12.952
30624W        W 3049   3.280   0.774   3.850
30625W        W 3050   1.777  37.488   3.267
30626W        W 3051   5.763   3.732   0.381
30627W        W 3052  33.108   6.770   4.169
30628W        W 3053  17.719  22.086  10.437
30629W        W 3054  43.876  43.373   4.694
30630W        W 3055  16.751  18.554  13.915
30631W        W 3056  15.674   9.797  10.044
30632W        W 3057  10.765   4.277   0.454
30633W        W 3058  17.687  22.506   2.898
30634W        W 3059  10.758  39.316  13.362
30635W        W 3060  15.608  29.507   0.400
30636W        W 3061   2.942  32.445  13.022
30637W        W 3062  16.146  36.078   0.414
30638W        W 3063   4.773  13.257  12.992
30639W        W 3064  37.047  18.158  13.901
30640W        W 3065  42.454  17.610  11.436
30641W        W 3066  16.284  34.579  11.604
30642W        W 3067  15.127   4.381   0.452
30643W        W 3068  20.622  29.019  11.900
30644W        W 3069  11.847  26.138  14.892
30645W        W 3070  15.819  17.741   2.222
30646W        W 3071  31.069  16.573  10.918
30647W        W 3072   7.708  15.795  14.940
30648W        W 3073  23.040  24.535  13.875
30649W        W 3074  28.481   3.422  13.828
30650W        W 3075  31.513  20.178  11.557
30651W        W 3076   3.441  31.505  13.517
30652W        W 3077  34.402   6.268  14.497
30653W        W 3078  42.777  21.540   3.722
30654W        W 3079  10.328  43.420  12.402
30655W        W 3080  11.326   5.229   4.825
30656W        W 3081  37.994  38.073  13.544
30657W        W 3082  37.964   6.735  13.869
30658W        W 3083  38.882  12.289   4.774
30659W        W 3084  10.364  33.951   1.421
30660W        W 3085  30.051   9.264   4.702
30661W        W 3086  35.031  38.930  11.920
30662W        W 3087  27.604  14.645  14.956
30663W        W 3088  40.862  42.489  10.597
30664W        W 3089  11.859   4.807   2.222
30665W        W 3090  21.195   4.314   4.332
30666W        W 3091  24.072  34.535  14.872
30667W        W 3092   1.421  11.296  10.414
30668W        W 3093  39.870  19.732  13.530
30669W        W 3094  14.829  19.608  11.501
30670W        W 3095  26.083  31.947  14.309
30671W        W 3096  13.240  10.643  13.911
30672W        W 3097  27.187   3.281   3.276
30673W        W 3098  35.563  18.724  11.874
30674W        W 3099  32.606   3.752  14.974
30675W        W 3100   0.345  15.170  13.892
30676W        W 3101  28.622  25.599  14.811
30677W        W 3102  40.892   2.824  14.861
30678W        W 3103  33.618   4.873  10.996
30679W        W 3104   6.349  14.641   1.807
30680W        W 3105  34.012  37.047  14.286
30681W        W 3106  30.970  12.235   4.283
30682W        W 3107  42.907  13.663  12.444
30683W        W 3108  21.516  14.265  10.911
30684W        W 3109  27.549   2.802  11.474
30685W        W 3110  12.298  19.115  14.838
30686W        W 3111  25.538  36.090  11.037
30687W        W 3112   6.263  33.572   2.894
30688W        W 3113  17.725  35.407   0.953
30689W        W 3114  30.116  32.405   0.760
30690W        W 3115  41.940  23.165  11.897
30691W        W 3116  34.404  14.607   2.368
30692W        W 3117  19.652   7.693   2.373
30693W        W 3118  15.583  19.192  12.368
30694W        W 3119  19.691  15.279   2.806
30695W        W 3120   0.895   0.339  11.431
30696W        W 3121   7.287  22.098   1.881
30697W        W 3122  38.385  23.593  13.987
30698W        W 3123   0.394  12.795   3.851
30699W        W 3124  37.892   4.330   2.842
30700W        W 3125   1.478  25.044  12.939
30701W        W 3126  38.032  20.744   3.662
30702W        W 3127  35.109  10.751  14.021
30703W        W 3128   1.384  30.478   0.299
30704W        W 3129  22.746   7.862  14.931
30705W        W 3130  36.415   5.826   0.316
30706W        W 3131  12.303  40.908   2.181
30707W        W 3132  15.187  44.936  14.406
30708W        W 3133  41.523  42.847   3.748
30709W        W 3134  39.513  15.241  11.431
30710W        W 3135  24.982   6.783  11.900
30711W        W 3136   9.292  21.171  12.920
30712W        W 3137   2.385  36.089  11.565
30713W        W 3138  41.489  10.636  13.466
30714W        W 3139  38.531   3.732  14.959
30715W        W 3140  11.677  11.147  11.397
30716W        W 3141  27.026   5.838   2.859
30717W        W 3142  17.736   4.265  10.552
30718W        W 3143  17.186  14.757  10.902
30719W        W 3144   5.768  30.636  10.639
30720W        W 3145  16.141   4.313  12.952
30721W        W 3146  40.872  25.688   0.880
30722W        W 3147  17.751  26.115  12.977
30723W        W 3148   6.823  41.480   3.850
30724W        W 3149  22.572  10.347  12.433
30725W        W 3150  18.654  37.558   3.193
30726W        W 3151  20.678  41.393   4.283
30727W        W 3152   7.866   5.196   4.221
30728W        W 3153  28.973  31.974  10.448
30729W        W 3154  18.606  17.258  14.856
30730W        W 3155  36.556  10.719  13.358
30731W        W 3156  38.473   4.823   1.447
30732W        W 3157  37.845   7.388  13.434
30733W        W 3158   2.843  39.418  11.543
30734W        W 3159  38.527  25.037  13.502
30735W        W 3160  21.155  35.966  13.436
30736W        W 3161  37.385   3.447   0.935
30737W        W 3162   5.333   4.418  13.401
30738W        W 3163  10.342   1.468   1.437
30739W        W 3164  26.694  28.606   1.868
30740W        W 3165  35.965   5.240   2.305
30741W        W 3166  29.471  15.758   4.787
30742W        W 3167  31.128  44.278  12.468
30743W        W 3168   6.766  23.002   0.844
30744W        W 3169   3.218  25.640   2.312
30745W        W 3170  43.779   6.183   4.833
30746W        W 3171   2.862  39.397  12.922
30747W        W 3172  42.896  32.954   0.337
30748W        W 3173  21.131  42.919   1.857
30749W        W 3174   8.833  16.258  14.456
30750W        W 3175   5.781  23.214  14.344
30751W        W 3176  40.508  34.891  14.350
30752W        W 3177  36.359  33.088  13.353
30753W        W 3178  27.530  30.105   1.334
30754W        W 3179  38.458  12.737   0.380
30755W        W 3180  10.820  16.676  13.504
30756W        W 3181  41.950  13.719  13.476
30757W        W 3182  39.816   9.740  12.437
30758W        W 3183  15.801  11.277  12.879
30759W        W 3184  28.644  36.062   2.199
30760W        W 3185  39.362  20.537  11.963
30761W        W 3186  35.450  12.662   0.832
30762W        W 3187  13.286  27.666  12.898
30763W        W 3188  23.990  38.070  14.791
30764W        W 3189  39.525  12.812   2.858
30765W        W 3190  35.936  23.213   1.445
30766W        W 3191  30.096  14.133  14.857
30767W        W 3192  32.478  31.503   3.375
30768W        W 3193  40.539  11.134  11.875
30769W        W 3194   4.348  17.589   4.325
30770W        W 3195  10.238  28.015  11.973
30771W        W 3196  39.026   6.745  14.515
30772W        W 3197   1.903   3.448   4.309
30773W        W 3198  16.184  22.086   4.252
30774W        W 3199   4.943  37.042   0.727
30775W        W 3200  31.617  24.130   3.668
30776W        W 3201   7.760  34.926   5.318
30777W        W 3202  16.214  16.740   4.239
30778W        W 3203  24.198  27.159  12.020
30779W        W 3204  41.835  27.512   3.378
30780W        W 3205  23.583   9.649   3.237
30781W        W 3206  30.136  32.081   0.457
30782W        W 3207   0.456   6.782   0.874
30783W        W 3208  29.081  43.397  12.893
30784W        W 3209   7.319  32.939   1.257
30785W        W 3210  22.026   6.854   4.325
30786W        W 3211   8.741  30.533  13.038
30787W        W 3212  32.469  35.022  11.590
30788W        W 3213  20.547  27.192   3.281
30789W        W 3214  28.619   9.392  10.617
30790W        W 3215   1.794   6.790  13.358
30791W        W 3216   3.318  43.397   4.291
30792W        W 3217  30.640  30.963   0.856
30793W        W 3218  28.118  41.973   1.800
30794W        W 3219  37.857  37.934  10.591
30795W        W 3220  35.106   8.763  10.074
30796W        W 3221  10.756  14.236   0.926
30797W        W 3222  24.020  43.480   2.267
30798W        W 3223  29.997  20.175  13.333
30799W        W 3224  34.484  44.291   2.717
30800W        W 3225   8.825  20.748   4.290
30801W        W 3226  23.063  24.073  14.961
30802W        W 3227  44.407  21.550  13.999
30803W        W 3228  35.401  19.167  10.976
30804W        W 3229   6.848  39.869  10.537
30805W        W 3230  43.807   5.237   3.255
30806W        W 3231  41.452  44.929   1.331
30807W        W 3232  18.633  29.483   1.275
30808W        W 3233  10.769  40.331  11.004
30809W        W 3234  21.748  27.062  10.939
30810W        W 3235  41.302  18.102  11.036
30811W        W 3236  20.201  41.533  11.013
30812W        W 3237  10.295  14.697  13.007
30813W        W 3238  16.715  19.157   4.699
30814W        W 3239  25.144  30.962  11.519
30815W        W 3240  15.722   4.914  11.605
30816W        W 3241  21.668  25.663   4.175
30817W        W 3242  20.733   9.848   4.642
30818W        W 3243  14.184  26.703  11.010
30819W        W 3244  41.395  38.927  11.121
30820W        W 3245  14.697  37.380  14.290
30821W        W 3246   1.463   9.370   0.917
30822W        W 3247   2.287   7.822  14.374
30823W        W 3248  19.679  32.516  12.033
30824W        W 3249  26.650  17.127   4.817
30825W        W 3250  21.553   2.430   2.775
30826W        W 3251   2.408  41.822   0.409
30827W        W 3252  14.189  20.119   4.768
30828W        W 3253  42.325  32.077   0.922
30829W        W 3254  22.685   3.818  14.351
30830W        W 3255  16.804  26.193  11.044
30831W        W 3256   1.890  17.656  11.439
30832W        W 3257  41.820  38.524   4.266
30833W        W 3258  37.065  10.656   1.353
30834W        W 3259   3.764  14.653   1.343
30835W        W 3260  19.056   4.802   1.718
30836W        W 3261   6.766  20.038   3.630
30837W        W 3262  35.993  27.659   4.761
30838W        W 3263   9.328  16.109  14.887
30839W        W 3264  16.211  14.113   3.266
30840W        W 3265  40.830  33.446   0.793
30841W        W 3266   9.739   7.738  12.444
30842W        W 3267   8.659   7.345  13.964
30843W        W 3268  40.847  38.849   2.717
30844W        W 3269  17.724   0.321   2.882
30845W        W 3270  27.476  35.988  11.511
30846W        W 3271  40.980   8.754   1.293
30847W        W 3272   5.718  36.518  14.343
30848W        W 3273  35.490  16.223  10.893
30849W        W 3274  24.153  25.026  13.999
30850W        W 3275  27.542  29.104  14.464
30851W        W 3276  40.538  11.342   1.716
30852W        W 3277  14.716  32.489   0.857
30853W        W 3278  15.667  14.647   2.751
30854W        W 3279  29.654  13.738  13.986
30855W        W 3280  10.164  29.011   5.098
30856W        W 3281   6.421   1.299   1.836
30857W        W 3282  24.995  41.522  13.060
30858W        W 3283  18.161  38.853   3.155
30859W        W 3284  28.016  39.972  11.531
30860W        W 3285  21.201   3.854  13.481
30861W        W 3286   8.715  40.987   2.179
30862W        W 3287  27.690  18.220  12.551
30863W        W 3288   0.437  36.957  13.031
30864W        W 3289  32.428   1.877  13.410
30865W        W 3290  31.585  39.037  12.465
30866W        W 3291  39.496  33.898  13.806
30867W        W 3292  33.414   5.241  11.589
30868W        W 3293  34.964  19.553   0.793
30869W        W 3294   4.729  30.543  11.526
30870W        W 3295  31.618  13.301  10.559
30871W        W 3296  20.719   9.316   4.198
30872W        W 3297  37.461  43.290   2.341
30873W        W 3298  17.120  19.634   3.346
30874W        W 3299  12.840  37.382  12.487
30875W        W 3300   6.313  37.414   2.732
30876W        W 3301  11.832  41.912   2.337
30877W        W 3302  32.550   8.885  14.860
30878W        W 3303   3.301  32.535   0.766
30879W        W 3304  14.695  39.366  12.505
30880W        W 3305  16.215  38.552  12.356
30881W        W 3306  40.997   1.376   4.664
30882W        W 3307  32.532  23.630   3.297
30883W        W 3308   4.724  28.137  12.898
30884W        W 3309  11.251  42.796   3.819
30885W        W 3310  25.691  21.053   0.278
30886W        W 3311  33.880  14.589  14.833
30887W        W 3312  35.538  16.713   4.257
30888W        W 3313  27.610  26.504  14.013
30889W        W 3314   2.442  14.831   4.641
30890W        W 3315  36.464  33.889   2.213
30891W        W 3316  23.069   2.437  13.322
30892W        W 3317  40.940   6.680   2.899
30893W        W 3318  42.791  24.096   1.347
30894W        W 3319  43.932  26.627  11.042
30895W        W 3320  13.634  27.106   4.117
30896W        W 3321  29.600  36.966   2.743
30897W        W 3322  15.201   1.791  11.084
30898W        W 3323  12.805  39.343  12.578
30899W        W 3324  42.405   1.259   0.475
30900W        W 3325  13.130  23.680   2.411
30901W        W 3326  12.732  11.673  13.812
30902W        W 3327  42.021  36.364  11.481
30903W        W 3328  11.190  42.485  13.498
30904W        W 3329  17.622   8.692  14.930
30905W        W 3330  26.057  39.507   3.184
30906W        W 3331  21.199  42.888   4.817
30907W        W 3332  21.723  41.994   1.829
30908W        W 3333  12.330  16.683   2.707
30909W        W 3334  22.549   5.308  14.805
30910W        W 3335  37.869   4.941   0.881
30911W        W 3336   3.461   7.826   3.259
30912W        W 3337  27.462  14.640   2.180
30913W        W 3338  29.663  14.128  13.441
30914W        W 3339   3.908  10.669  10.446
30915W        W 3340  44.772  12.648  10.487
30916W        W 3341   9.154   8.313  12.934
30917W        W 3342  21.683  24.496  11.438
30918W        W 3343  20.181  20.055  13.347
30919W        W 3344   4.781   9.214   4.633
30920W        W 3345   7.194  27.144  13.026
30921W        W 3346  44.281  28.491  12.919
30922W        W 3347  10.785  16.578  11.427
30923W        W 3348  15.770  15.685   2.880
30924W        W 3349   6.704  20.039   1.384
30925W        W 3350  10.794   0.399  13.824
30926W        W 3351  21.557  24.530   0.874
30927W        W 3352  37.480  32.036   0.858
30928W        W 3353  32.618   4.737   3.820
30929W        W 3354  25.697   6.329   4.256
30930W        W 3355  28.110  22.200   1.408
30931W        W 3356   3.883   6.916  11.563
30932W        W 3357  16.254   6.773  12.878
30933W        W 3358  26.140  41.305   1.806
30934W        W 3359  20.098  16.760   2.837
30935W        W 3360  22.093  17.569   4.353
30936W        W 3361  14.340  26.106  10.545
30937W        W 3362  40.346  22.237  11.441
30938W        W 3363  30.047  20.527  13.537
30939W        W 3364  28.006  34.003  13.896
30940W        W 3365  37.566  42.894   0.357
30941W        W 3366   2.897  36.530  14.769
30942W        W 3367  42.406  31.974  10.457
30943W        W 3368  34.397  10.180  14.913
30944W        W 3369   5.326  30.439   0.403
30945W        W 3370  29.037  18.202  11.978
30946W        W 3371  22.532  40.457  12.553
30947W        W 3372   1.898  25.554   4.662
30948W        W 3373  35.921  24.624  11.574
30949W        W 3374  10.242  21.092   2.839
30950W        W 3375  41.300   5.788  14.926
30951W        W 3376  28.118  32.943   1.275
30952W        W 3377  40.925  18.554   2.209
30953W        W 3378  31.064  34.942   2.674
30954W        W 3379   9.271  16.175  11.579
30955W        W 3380  17.241  41.441   4.182
30956W        W 3381   3.420  33.029   2.196
30957W        W 3382  33.560  41.920   2.178
30958W        W 3383  22.587  40.019  14.329
30959W        W 3384  39.884  37.570   1.703
30960W        W 3385  30.053  14.094   4.159
30961W        W 3386  11.316   2.872  11.072
30962W        W 3387  11.847  28.629  14.792
30963W        W 3388  30.943  37.886  14.763
30964W        W 3389  23.510   4.287   3.808
30965W        W 3390   6.365   2.439  12.461
30966W        W 3391  24.643  29.455  12.456
30967W        W 3392  10.876  35.392  11.492
30968W        W 3393  39.851  20.615   2.223
30969W        W 3394   2.258   6.359  14.332
30970W        W 3395   1.847   2.399  10.951
30971W        W 3396  31.124  39.811  14.493
30972W        W 3397  15.696  40.841   0.394
30973W        W 3398  34.935  25.045   4.718
30974W        W 3399   7.887  39.417   1.710
30975W        W 3400  29.073  17.096  12.524
30976W        W 3401  20.724  13.239   3.839
30977W        W 3402  10.716   8.899  10.604
30978W        W 3403  25.975  39.369   2.194
30979W        W 3404  14.115  13.165  12.013
30980W        W 3405  33.507   0.989   3.235
30981W        W 3406  17.712  26.073  11.908
30982W        W 3407  22.543  37.544   0.939
30983W        W 3408  33.391  10.260   2.740
30984W        W 3409   7.733  10.633  12.094
30985W        W 3410   7.350   2.730  13.477
30986W        W 3411  43.887  14.655   2.888
30987W        W 3412  19.221  21.561   4.152
30988W        W 3413   6.219  43.980   1.894
30989W        W 3414   3.849  22.517  10.564
30990W        W 3415   9.297  15.579  10.031
30991W        W 3416   4.298   0.957  13.795
30992W        W 3417  21.656   9.869  14.311
30993W        W 3418  14.165  14.762   1.259
30994W        W 3419   8.396  42.512   1.761
30995W        W 3420  32.452  23.031  10.595
30996W        W 3421  37.873  20.092  13.953
30997W        W 3422  20.064  20.724   3.813
30998W        W 3423  14.211  44.802   4.354
30999W        W 3424  24.517  14.685   2.829
31000W        W 3425  23.529  11.637  14.447
31001W        W 3426  22.528  10.653  11.396
31002W        W 3427   5.810  27.591  14.309
31003W        W 3428  24.038  31.550  13.416
31004W        W 3429  43.491  14.243   0.460
31005W        W 3430  17.599  15.800  12.511
31006W        W 3431  34.979  12.815   4.180
31007W        W 3432  39.361  13.126  11.445
31008W        W 3433  20.176  10.864   1.700
31009W        W 3434  42.480  40.037   0.252
31010W        W 3435  38.516  14.690  11.983
31011W        W 3436   6.383  26.470  13.792
31012W        W 3437  33.037  15.779  12.869
31013W        W 3438  20.169  44.383  12.353
31014W        W 3439  37.853  40.922   0.390
31015W        W 3440  36.551  40.389   1.698
31016W        W 3441  24.001  26.965  12.862
31017W        W 3442   8.668  30.165   0.930
31018W        W 3443  33.423   2.772   0.800
31019W        W 3444  28.593  23.534  12.022
31020W        W 3445  20.097  21.062  14.894
31021W        W 3446   6.252  42.458   1.286
31022W        W 3447  12.675   8.747   1.843
31023W        W 3448  35.861  44.903   0.260
31024W        W 3449  40.964  27.083  11.547
31025W        W 3450  27.149  35.562  12.496
31026W        W 3451   9.722  10.820   3.807
31027W        W 3452   6.811  38.830   1.390
31028W        W 3453  33.620  32.398   1.719
31029W        W 3454  41.531  34.915  10.419
31030W        W 3455  17.564  33.907   1.877
31031W        W 3456  42.920  22.509  10.483
31032W        W 3457  22.649  40.844   0.730
31033W        W 3458  40.536  44.771  13.473
31034W        W 3459   2.343  36.856  10.638
31035W        W 3460  10.315  24.674  12.858
31036W        W 3461  44.975  25.609   2.256
31037W        W 3462  35.080  26.997  13.344
31038W        W 3463  37.040  26.474   4.729
31039W        W 3464  21.531  19.202  10.958
31040W        W 3465  25.040  32.415   1.703
31041W        W 3466  16.774  37.367   1.824
31042W        W 3467   4.388  14.273  12.878
31043W        W 3468  25.971  33.019  10.968
31044W        W 3469   0.487  37.406   2.357
31045W        W 3470  14.256  42.018   4.748
31046W        W 3471  41.913  27.623   1.268
31047W        W 3472   7.299  25.636   3.264
31048W        W 3473  42.785  30.020   2.358
31049W        W 3474  38.447  39.928  11.864
31050W        W 3475  11.165  41.416   0.468
31051W        W 3476   2.772   7.742   3.151
31052W        W 3477  23.656  30.909  12.825
31053W        W 3478   7.240   3.866   1.402
31054W        W 3479  18.733  30.635   0.339
31055W        W 3480   7.315   6.717  12.506
31056W        W 3481  14.646  43.325  14.917
31057W        W 3482  41.525   5.245   3.863
31058W        W 3483  36.843   7.784  11.122
31059W        W 3484  44.902  38.916   0.788
31060W        W 3485  19.267  29.533  14.460
31061W        W 3486  23.035  15.579   3.254
31062W        W 3487   1.400   2.767  12.577
31063W        W 3488  30.648  24.520  14.791
31064W        W 3489   8.722  24.075   1.334
31065W        W 3490  44.944   2.857  14.887
31066W        W 3491  21.261  10.143  13.939
31067W        W 3492   9.256   0.848  12.084
31068W        W 3493   6.699  21.649   2.746
31069W        W 3494  24.989  31.465   0.802
31070W        W 3495  13.156  43.421   3.657
31071W        W 3496  29.538  38.849  13.371
31072W        W 3497  12.358   4.395   0.262
31073W        W 3498   0.846  38.538   2.394
31074W        W 3499  20.246  15.806   0.342
31075W        W 3500  31.417  15.663  12.580
31076W        W 3501   3.824  30.160   0.916
31077W        W 3502  41.878  42.418   2.232
31078W        W 3503   2.381  44.284  14.283
31079W        W 3504  22.099  26.487   0.774
31080W        W 3505  10.309   2.932   5.291
31081W        W 3506  18.609  18.070  12.391
31082W        W 3507  14.151  31.407   0.808
31083W        W 3508  38.549   7.844  11.511
31084W        W 3509  43.922   6.377  13.813
31085W        W 3510  17.188   9.646   1.248
31086W        W 3511  40.814   9.166  14.308
31087W        W 3512  43.906  24.528  10.909
31088W        W 3513  18.091  16.203  11.045
31089W        W 3514  41.847  18.627  12.390
31090W        W 3515  24.018  14.799   1.447
31091W        W 3516  28.461   9.647  12.410
31092W        W 3517  29.539   8.753  10.936
31093W        W 3518  23.598  17.594   0.385
31094W        W 3519  15.197  32.483  13.365
31095W        W 3520  37.559  28.572   2.733
31096W        W 3521  25.994   0.758  13.916
31097W        W 3522  23.683   2.872  12.841
31098W        W 3523  35.556   8.218   1.804
31099W        W 3524  11.254   2.741   1.215
31100W        W 3525  21.100  20.635   4.330
31101W        W 3526  44.782  25.054   1.269
31102W        W 3527  15.595  23.721  12.842
31103W        W 3528   4.786  37.407  14.774
31104W        W 3529  34.896  31.417  14.461
31105W        W 3530  19.223  37.489   3.240
31106W        W 3531  41.853  44.350   2.724
31107W        W 3532  24.595  26.519   4.125
31108W        W 3533  32.946  17.655  10.132
31109W        W 3534  22.082  28.445  14.392
31110W        W 3535  44.948  37.995   1.259
31111W        W 3536  16.641  16.759   0.344
31112W        W 3537  30.485   7.807   3.753
31113W        W 3538  25.497  37.914   3.256
31114W        W 3539  39.025  22.176  12.442
31115W        W 3540  31.053  41.797   0.963
31116W        W 3541  25.015  21.058  14.436
31117W        W 3542   3.431  41.331   4.240
31118W        W 3543  33.033  12.251  10.491
31119W        W 3544  39.027  36.077   0.325
31120W        W 3545  33.921  10.175  11.978
31121W        W 3546   7.326  19.071   4.152
31122W        W 3547  24.083  11.815  14.306
31123W        W 3548  23.532  24.621  11.952
31124W        W 3549  16.734   4.321  14.452
31125W        W 3550   1.887  24.688  12.349
31126W        W 3551  30.020  20.064   1.404
31127W        W 3552  14.249  12.212  10.569
31128W        W 3553  36.565  25.673   1.315
31129W        W 3554  24.081  24.126  11.431
31130W        W 3555  16.622  10.850  11.896
31131W        W 3556  18.063   0.403  14.980
31132W        W 3557  30.525   0.764   3.796
31133W        W 3558  20.692   6.256  14.011
31134W        W 3559  27.519  14.211   1.407
31135W        W 3560   5.332  16.308   2.215
31136W        W 3561  38.907  19.271   4.818
31137W        W 3562   3.281   6.762  14.930
31138W        W 3563  39.827  11.699  10.472
31139W        W 3564  22.007   8.868  11.962
31140W        W 3565  27.148  15.109   2.810
31141W        W 3566   3.754  40.540  13.415
31142W        W 3567  25.549  38.837  12.420
31143W        W 3568   6.415  40.436  10.416
31144W        W 3569  31.910  26.084   0.949
31145W        W 3570   1.919  37.073  10.455
31146W        W 3571   8.677  19.195   2.752
31147W        W 3572  35.067  30.475   4.247
31148W        W 3573  19.218   1.278   3.328
31149W        W 3574  16.587  31.534   3.749
31150W        W 3575  36.383  44.453   2.868
31151W        W 3576  29.986  42.778  11.878
31152W        W 3577  25.536  25.979   0.893
31153W        W 3578   4.855  40.984   2.416
31154W        W 3579  10.366  10.249   0.265
31155W        W 3580  40.397  28.632  12.039
31156W        W 3581   7.685  17.110   0.451
31157W        W 3582  23.204  41.331   4.817
31158W        W 3583  14.620  31.032  10.895
31159W        W 3584   3.926  12.803  12.832
31160W        W 3585   7.786  30.563  13.025
31161W        W 3586  20.656  10.641  12.415
31162W        W 3587  38.992  26.959   4.708
31163W        W 3588  10.878  26.625   3.645
31164W        W 3589   6.859   9.754   1.292
31165W        W 3590  21.743  40.304   4.705
31166W        W 3591  13.117  32.573  13.934
31167W        W 3592  21.042   3.219  11.576
31168W        W 3593  37.539  22.502   2.307
31169W        W 3594   2.470  21.126   0.424
31170W        W 3595  29.970  43.979  13.841
31171W        W 3596  30.101  31.621   4.320
31172W        W 3597  31.644  43.339   3.154
31173W        W 3598  42.490   9.866   4.136
31174W        W 3599  10.142  22.246   1.744
31175W        W 3600  42.464  30.461   2.696
31176W        W 3601  28.542  12.813   1.822
31177W        W 3602  17.193  10.230   4.320
31178W        W 3603   3.241   6.686  14.311
31179W        W 3604  21.104   7.217   1.274
31180W        W 3605   2.228  26.618   0.832
31181W        W 3606   1.780  32.048  11.950
31182W        W 3607  44.381  32.071   4.816
31183W        W 3608  29.097  35.548  14.918
31184W        W 3609  21.046  20.148   2.417
31185W        W 3610  38.075  35.445  12.396
31186W        W 3611  18.052  36.355  14.846
31187W        W 3612  21.622  18.103   1.305
31188W        W 3613  26.618  10.816  11.090
31189W        W 3614  25.977  11.706  13.328
31190W        W 3615  24.218   1.926   0.319
31191W        W 3616   9.254  12.744  13.355
31192W        W 3617  25.655  18.279  12.861
31193W        W 3618  11.671  31.435  13.999
31194W        W 3619   9.665  18.133   1.309
31195W        W 3620  22.593   6.752   3.352
31196W        W 3621   5.899   1.824   2.894
31197W        W 3622  43.953  13.349  11.995
31198W        W 3623  17.141  32.526   5.583
31199W        W 3624  21.167  31.533   0.415
31200W        W 3625  25.156  10.762   9.674
31201W        W 3626  12.856  11.723   0.801
31202W        W 3627  14.699  17.585  12.937
31203W        W 3628  25.584  20.065   4.653
31204W        W 3629  24.691  38.498   0.895
31205W        W 3630  36.044  13.807  13.532
31206W        W 3631   2.304   7.861   0.474
31207W        W 3632  20.683  20.030  11.601
31208W        W 3633  12.640  34.894  14.502
31209W        W 3634  16.592   3.453  14.486
31210W        W 3635  13.640  10.147   2.418
31211W        W 3636  25.682   4.758  12.838
31212W        W 3637  29.590   2.821   0.426
31213W        W 3638  44.335  11.696  13.328
31214W        W 3639  36.066  11.160   0.256
31215W        W 3640  20.207  41.963   4.704
31216W        W 3641   1.809  22.038  14.293
31217W        W 3642  12.690   2.420  14.346
31218W        W 3643  44.822   6.357   1.775
31219W        W 3644  32.561  38.873   1.740
31220W        W 3645   0.802   5.268   0.435
31221W        W 3646  37.471  30.061   4.668
31222W        W 3647   4.346  28.575  10.895
31223W        W 3648   9.767  13.181  12.580
31224W        W 3649  14.222  31.470   4.749
31225W        W 3650  31.042  29.927  12.989
31226W        W 3651   0.924   7.292  13.033
31227W        W 3652  20.578  11.239   0.935
31228W        W 3653   8.749  27.940  10.974
31229W        W 3654  20.708   2.438  12.509
31230W        W 3655  31.930  31.412  14.487
31231W        W 3656  27.674   5.927  14.915
31232W        W 3657   4.229  28.626   0.409
31233W        W 3658  13.200  38.827  10.454
31234W        W 3659  41.533  28.525  12.926
31235W        W 3660  29.435   1.336   0.479
31236W        W 3661  42.300  38.371   2.241
31237W        W 3662  29.078  28.067   1.427
31238W        W 3663   4.290   1.746   0.795
31239W        W 3664  20.558  38.384   2.348
31240W        W 3665  35.581  41.508   4.317
31241W        W 3666  12.117  44.293  14.941
31242W        W 3667  13.117  42.430  12.958
31243W        W 3668  26.669   7.295   0.403
31244W        W 3669   6.366  35.036  14.974
31245W        W 3670  26.627   0.817  11.015
31246W        W 3671  22.996  40.549  11.054
31247W        W 3672  27.987  26.144   3.301
31248W        W 3673  25.702  19.090  12.934
31249W        W 3674  42.439  17.130   2.867
31250W        W 3675   4.438  35.852  11.592
31251W        W 3676   8.829  37.567  10.571
31252W        W 3677   4.262  28.042  12.021
31253W        W 3678  10.329  44.409  10.941
31254W        W 3679  20.049   5.892  10.507
31255W        W 3680   0.302  34.436  13.855
31256W        W 3681  41.375   8.275  12.014
31257W        W 3682   2.876  22.523  13.538
31258W        W 3683  25.975  23.087   0.455
31259W        W 3684  33.891   9.232  12.955
31260W        W 3685  43.288   9.877  11.587
31261W        W 3686  18.217  20.603  12.383
31262W        W 3687  35.026   8.854   0.264
31263W        W 3688  22.662  33.106  12.072
31264W        W 3689  28.121  41.333  11.414
31265W        W 3690  14.700   2.789  10.411
31266W        W 3691  31.506  39.835   1.864
31267W        W 3692  28.497  33.398   2.901
31268W        W 3693  10.149  28.933  12.339
31269W        W 3694   2.329  29.149   3.868
31270W        W 3695  28.946   6.313  14.296
31271W        W 3696  37.980  44.888   4.628
31272W        W 3697  32.439  40.891   2.184
31273W        W 3698  41.017  19.601  14.971
31274W        W 3699   4.937  25.685   2.390
31275W        W 3700  17.574   8.688  12.525
31276W        W 3701   4.419  11.815   2.319
31277W        W 3702   7.797  29.654   5.094
31278W        W 3703   7.906  30.126   2.814
31279W        W 3704  35.430  44.405   4.612
31280W        W 3705  11.627   3.419   1.436
31281W        W 3706   2.281  24.690  12.980
31282W        W 3707  35.021  29.459  14.380
31283W        W 3708   8.225  13.341   2.251
31284W        W 3709  16.253  25.588  13.943
31285W        W 3710   0.891  21.714   2.345
31286W        W 3711  29.562   6.222   0.784
31287W        W 3712  30.971  42.960  13.506
31288W        W 3713  30.967  39.446   3.195
31289W        W 3714  37.035   7.905  14.022
31290W        W 3715   1.846  13.338   4.296
31291W        W 3716  41.995  43.770  13.846
31292W        W 3717   0.760  39.341   0.822
31293W        W 3718  11.806   9.723   2.241
31294W        W 3719  21.182  19.673   4.804
31295W        W 3720  20.540  27.022  10.542
31296W        W 3721  19.663  39.904  12.387
31297W        W 3722  41.291  31.431  10.957
31298W        W 3723   4.386  43.294  14.968
31299W        W 3724  12.682  15.670   4.280
31300W        W 3725   6.778   8.368  10.456
31301W        W 3726  22.019  36.520   4.253
31302W        W 3727   9.858   1.873   3.246
31303W        W 3728   5.706  13.177   3.769
31304W        W 3729   3.365   1.331   2.891
31305W        W 3730  10.346  44.295   1.701
31306W        W 3731   6.333  20.108   2.832
31307W        W 3732  15.649  44.781   4.139
31308W        W 3733  16.105  17.101  12.843
31309W        W 3734  40.367  24.076   0.382
31310W        W 3735  33.552  44.898   3.732
31311W        W 3736  17.192   7.407  11.002
31312W        W 3737  38.532  33.424   3.816
31313W        W 3738  12.763  29.041   4.647
31314W        W 3739  32.929  32.521  13.416
31315W        W 3740  40.352  41.506  10.076
31316W        W 3741  12.692  13.820  13.341
31317W        W 3742  30.977  27.548   0.446
31318W        W 3743  13.725  24.589  11.034
31319W        W 3744   5.835  44.393  14.312
31320W        W 3745  31.599  42.397   1.840
31321W        W 3746  43.810   1.772   3.367
31322W        W 3747  26.571  36.405  13.890
31323W        W 3748  39.512   7.230   4.133
31324W        W 3749  23.074  30.611   2.329
31325W        W 3750   5.734   2.232   2.887
31326W        W 3751   6.892  34.065   0.253
31327W        W 3752   4.824  23.231  14.434
31328W        W 3753  20.250   7.795   1.765
31329W        W 3754  18.738  28.184   3.336
31330W        W 3755  16.079  38.845  13.497
31331W        W 3756  43.799  19.771   0.281
31332W        W 3757  17.107   3.453   1.403
31333W        W 3758  24.490  21.702   0.257
31334W        W 3759  36.018  43.929  11.571
31335W        W 3760  22.733   5.726  14.914
31336W        W 3761  44.778  10.766  10.968
31337W        W 3762  38.066  10.642  12.048
31338W        W 3763  30.414  42.966   1.344
31339W        W 3764  44.464  33.479   3.705
31340W        W 3765  27.946  19.144   4.821
31341W        W 3766  24.640  19.230   2.710
31342W        W 3767  30.540  44.841   1.328
31343W        W 3768   5.911  39.894   1.269
31344W        W 3769  42.826   6.897  13.936
31345W        W 3770  14.334   6.416  11.398
31346W        W 3771  28.052  32.586  14.803
31347W        W 3772   4.707  36.885  12.915
31348W        W 3773  14.641  24.712   0.353
31349W        W 3774  31.069  22.630  14.893
31350W        W 3775   2.425   9.718   3.163
31351W        W 3776  33.001  32.141  12.857
31352W        W 3777   6.203  12.189   1.798
31353W        W 3778  13.207  39.408   3.742
31354W        W 3779  31.145   0.307  14.325
31355W        W 3780  17.118   3.714  11.600
31356W        W 3781  11.262  25.167   3.321
31357W        W 3782  39.502  32.554   2.300
31358W        W 3783  14.767   6.207   0.309
31359W        W 3784  34.989  31.922   3.250
31360W        W 3785  26.495  23.060   4.309
31361W        W 3786  12.142   7.679   3.166
31362W        W 3787   2.895  14.807   0.282
31363W        W 3788  26.486  22.070  13.509
31364W        W 3789  25.504   1.430  11.873
31365W        W 3790  44.913  35.869   2.741
31366W        W 3791  38.827  13.796  14.480
31367W        W 3792  38.466  26.096  12.087
31368W        W 3793  16.213   7.197   3.787
31369W        W 3794  12.774  10.827   3.685
31370W        W 3795   7.746  14.627   4.817
31371W        W 3796  14.708  27.951  11.127
31372W        W 3797  41.388  12.703   1.771
31373W        W 3798  10.755  37.501   2.204
31374W        W 3799  19.640   5.923  14.289
31375W        W 3800  40.449  36.576  10.498
31376W        W 3801  41.295   5.378   4.162
31377W        W 3802  32.422  30.951  14.432
31378W        W 3803   6.410  15.639  12.476
31379W        W 3804  24.485  35.447   4.205
31380W        W 3805  43.942  22.730  14.886
31381W        W 3806  11.779  27.028  13.457
31382W        W 3807  13.223   0.852   1.396
31383W        W 3808  17.298  30.983  13.802
31384W        W 3809  21.241   7.794  12.067
31385W        W 3810  12.727  29.016   0.842
31386W        W 3811  41.883  15.679   2.248
31387W        W 3812  15.137   6.268   4.697
31388W        W 3813  31.115   6.353  14.991
31389W        W 3814  19.676  38.933   2.197
31390W        W 3815   0.261  28.057   1.852
31391W        W 3816   7.732  42.320  12.389
31392W        W 3817  11.286   4.844  14.403
31393W        W 3818  40.858  10.804   1.873
31394W        W 3819   7.222  15.607   0.455
31395W        W 3820  39.008   1.316  14.502
31396W        W 3821  16.811  13.341   4.217
31397W        W 3822   6.234  22.009  10.902
31398W        W 3823  28.679  35.025   1.327
31399W        W 3824  36.435  14.200   3.802
31400W        W 3825  19.177  17.072  13.047
31401W        W 3826  33.037  31.557  12.937
31402W        W 3827  19.618  33.539   1.804
31403W        W 3828  12.294   9.309  14.397
31404W        W 3829   6.702  43.322  10.423
31405W        W 3830  41.464  44.757  12.518
31406W        W 3831   0.899   5.855   4.603
31407W        W 3832  26.644   4.367  11.013
31408W        W 3833  43.298   2.470  12.532
31409W        W 3834   9.327  41.017  11.605
31410W        W 3835  40.834   7.407   2.311
31411W        W 3836   9.368  29.500   3.170
31412W        W 3837  21.250   9.752   2.788
31413W        W 3838  32.106   8.395   4.189
31414W        W 3839  34.923  23.555   9.641
31415W        W 3840  20.642  16.261   1.876
31416W        W 3841  38.451  10.878  12.376
31417W        W 3842  24.651  31.628  11.553
31418W        W 3843  36.909  33.599  13.430
31419W        W 3844  33.609  12.718   0.779
31420W        W 3845  21.731  16.744  11.551
31421W        W 3846  17.202  16.675  14.821
31422W        W 3847  34.560  39.953   4.814
31423W        W 3848   5.858  30.545  12.916
31424W        W 3849  19.581   9.178   1.803
31425W        W 3850  15.256  42.420  14.326
31426W        W 3851   9.702   6.832  12.473
31427W        W 3852   4.876  26.144   0.274
31428W        W 3853   1.300  20.715   1.433
31429W        W 3854  14.176  42.936   2.827
31430W        W 3855  11.364  13.108  13.545
31431W        W 3856   0.872  40.825   3.344
31432W        W 3857  44.768  29.113  10.887
31433W        W 3858   1.243   4.243   3.354
31434W        W 3859  11.739  44.473   0.399
31435W        W 3860  22.060  29.485   0.966
31436W        W 3861  15.816   6.259  12.020
31437W        W 3862  12.151   2.765  11.066
31438W        W 3863  21.728  39.902  11.458
31439W        W 3864  11.750  36.952  10.591
31440W        W 3865   3.381  10.306   0.943
31441W        W 3866  38.820  25.162   3.730
31442W        W 3867  23.725  38.335   3.189
31443W        W 3868  39.912  25.992   4.750
31444W        W 3869   5.747  41.477   3.694
31445W        W 3870  12.773  22.181   2.870
31446W        W 3871   6.903  41.826  11.458
31447W        W 3872  31.991   7.315   1.250
31448W        W 3873  30.475  29.154  10.591
31449W        W 3874  41.351  19.173  12.856
31450W        W 3875  22.631  38.550   3.226
31451W        W 3876  38.924  19.149   4.152
31452W        W 3877  30.539   5.812   4.614
31453W        W 3878  42.830  39.843   4.143
31454W        W 3879  21.141   6.913  11.057
31455W        W 3880  12.664  17.740  10.584
31456W        W 3881  17.587  12.729  14.905
31457W        W 3882  44.880  27.975  10.407
31458W        W 3883  35.497  39.512  12.571
31459W        W 3884   3.376  44.796  13.421
31460W        W 3885   1.320  28.985  13.805
31461W        W 3886  37.856  35.378  14.498
31462W        W 3887  15.228  34.540  14.437
31463W        W 3888  23.671  18.684   3.827
31464W        W 3889  29.964  21.675  10.496
31465W        W 3890   4.241  16.215   3.282
31466W        W 3891  41.405  29.431   1.773
31467W        W 3892  30.530  34.864   0.759
31468W        W 3893  16.216   9.266  14.029
31469W        W 3894  23.209  17.250   4.655
31470W        W 3895  28.969  18.721   0.302
31471W        W 3896  25.146  13.643  11.091
31472W        W 3897  18.291  25.492  13.019
31473W        W 3898  27.963   9.842  12.411
31474W        W 3899  10.184  31.096   1.262
31475W        W 3900  13.724  18.270   4.722
31476W        W 3901  44.336  24.594  12.971
31477W        W 3902  12.313   7.218  13.323
31478W        W 3903  32.927  33.126   3.303
31479W        W 3904  33.491   7.883  10.562
31480W        W 3905  33.503  11.149  14.428
31481W        W 3906  21.572  33.069  11.534
31482W        W 3907   5.341  17.585   1.849
31483W        W 3908  41.875   8.689  13.013
31484W        W 3909  12.721  29.574  11.431
31485W        W 3910  41.346   5.413  13.859
31486W        W 3911  27.037  10.148   1.316
31487W        W 3912  10.840   8.710   5.128
31488W        W 3913  35.390  23.513   1.259
31489W        W 3914  40.512  27.964   4.833
31490W        W 3915  30.575  22.723   4.176
31491W        W 3916  18.240  21.103  10.131
31492W        W 3917  36.869  43.880   4.762
31493W        W 3918   5.319  41.382  13.957
31494W        W 3919  42.020  39.930  12.860
31495W        W 3920  35.095  44.791   2.903
31496W        W 3921   9.238  36.957   2.705
31497W        W 3922  43.938  44.468   0.296
31498W        W 3923  42.501  16.794   3.643
31499W        W 3924  41.807  18.294  10.898
31500W        W 3925   5.700  39.927   4.339
31501W        W 3926   6.280  25.974   0.409
31502W        W 3927  27.956   5.743  12.949
31503W        W 3928  36.949  27.142  10.636
31504W        W 3929   9.241  33.937   0.949
31505W        W 3930  43.443  39.049  11.528
31506W        W 3931  35.476   7.903  10.583
31507W        W 3932  34.067  13.312  13.331
31508W        W 3933  20.117  43.516   2.244
31509W        W 3934  32.118  21.726  14.343
31510W        W 3935  43.927  27.474  14.852
31511W        W 3936  33.565  13.304   0.731
31512W        W 3937  39.926  11.732   1.909
31513W        W 3938   0.757  28.108  12.040
31514W        W 3939   7.887  25.473  10.927
31515W        W 3940  13.330  35.498  14.931
31516W        W 3941   5.291  36.905  11.886
31517W        W 3942  31.453  16.692  11.070
31518W        W 3943   7.867  15.578   3.229
31519W        W 3944  29.163  32.038   5.139
31520W        W 3945  10.314  14.737  10.631
31521W        W 3946  35.469  11.622  11.973
31522W        W 3947  14.817   0.354  12.561
31523W        W 3948  15.643  38.530  12.557
31524W        W 3949  33.597  37.833   1.295
31525W        W 3950  42.986   3.343  14.887
31526W        W 3951  44.353  35.552   1.883
31527W        W 3952  32.134   3.846  11.376
31528W        W 3953  12.832   5.751  12.558
31529W        W 3954  13.285  17.648   1.251
31530W        W 3955  36.984  10.755   3.638
31531W        W 3956   8.338  12.730   4.738
31532W        W 3957  29.461  13.673  13.446
31533W        W 3958  44.315   0.329  13.475
31534W        W 3959  35.474  16.665  13.502
31535W        W 3960  38.341  26.530   1.892
31536W        W 3961   0.895  12.641   5.236
31537W        W 3962  28.034  10.281  11.580
31538W        W 3963  41.006   6.304   3.662
31539W        W 3964  19.589  42.920   0.331
31540W        W 3965  24.538   1.317   2.849
31541W        W 3966  39.498  16.213  13.306
31542W        W 3967  23.015   4.838   3.241
31543W        W 3968   4.940   7.754   2.322
31544W        W 3969  15.228  22.235   5.264
31545W        W 3970  11.325  44.936   2.790
31546W        W 3971  36.052  22.667   4.249
31547W        W 3972  14.279  14.676  13.986
31548W        W 3973  39.810  44.485  12.030
31549W        W 3974   3.298  16.280  13.506
31550W        W 3975  24.715  25.099   2.895
31551W        W 3976  24.085  42.996   2.219
31552W        W 3977  12.302  41.900   4.318
31553W        W 3978   2.750  11.733   0.370
31554W        W 3979  17.714  27.660   0.477
31555W        W 3980  16.770  17.626   0.741
31556W        W 3981   3.818  34.014   0.355
31557W        W 3982  24.525  26.958  11.511
31558W        W 3983  10.672  37.080  14.446
31559W        W 3984  35.430   6.247   2.667
31560W        W 3985  14.164  19.141  13.347
31561W        W 3986  43.766  40.862   2.386
31562W        W 3987  41.464  38.901  13.807
31563W        W 3988  43.300  42.901  11.903
31564W        W 3989  21.263   2.440  10.504
31565W        W 3990  42.777  42.415  11.908
31566W        W 3991  21.669  16.207   0.751
31567W        W 3992  31.996  29.040  12.403
31568W        W 3993  18.713  27.561   0.339
31569W        W 3994  21.714   0.375  14.297
31570W        W 3995  25.140   8.353   3.842
31571W        W 3996   7.190  40.015   0.271
31572W        W 3997  43.938   7.724   3.716
31573W        W 3998  21.559  34.979  13.400
31574W        W 3999  22.551  28.615   4.678
31575W        W 4000  14.632  20.637   4.770
31576W        W 4001   0.303  24.207   3.838
31577W        W 4002  32.995  25.641  14.389
31578W        W 4003   0.437  38.824   3.246
31579W        W 4004   3.273  12.267  12.417
31580W        W 4005  26.993  40.334   0.333
31581W        W 4006  17.303  42.495   3.790
31582W        W 4007  35.513  29.459   2.743
31583W        W 4008   3.419   6.355  11.582
31584W        W 4009  37.519  41.950  12.440
31585W        W 4010  28.000   8.352   0.797
31586W        W 4011  42.444  30.413  12.467
31587W        W 4012  13.724  26.544  10.490
31588W        W 4013  40.921   1.449   3.665
31589W        W 4014  31.614  10.722  11.495
31590W        W 4015  44.902  14.711   1.242
31591W        W 4016  11.718  36.949  13.841
31592W        W 4017  34.893  12.154  11.524
31593W        W 4018  22.119  13.653   3.360
31594W        W 4019  34.535  31.616  11.950
31595W        W 4020  33.455  42.449   3.249
31596W        W 4021  31.127  13.149   3.644
31597W        W 4022  12.260  35.978   2.231
31598W        W 4023   7.703  31.618  12.847
31599W        W 4024  22.027  11.242   0.910
31600W        W 4025  23.522  23.638  14.320
31601W        W 4026   9.785  27.539   3.717
31602W        W 4027  35.364  42.486  11.484
31603W        W 4028  14.225  11.214  14.963
31604W        W 4029  18.276  38.988  14.388
31605W        W 4030  13.314   4.888  13.961
31606W        W 4031  30.636  13.756  11.449
31607W        W 4032   6.917  17.165   4.664
31608W        W 4033   0.880  21.559   3.290
31609W        W 4034  39.529   8.662   0.810
31610W        W 4035   8.278  28.081  12.990
31611W        W 4036  35.895   2.739  12.056
31612W        W 4037  31.453  25.187   0.294
31613W        W 4038  20.592  27.111   0.745
31614W        W 4039  27.005   2.865  13.515
31615W        W 4040  24.177  43.423  12.350
31616W        W 4041  43.017  13.674   2.786
31617W        W 4042   5.706  42.346   1.793
31618W        W 4043  15.099   7.382   3.772
31619W        W 4044   4.752   0.454  11.888
31620W        W 4045  31.461  18.659  12.883
31621W        W 4046  21.057   1.449   1.878
31622W        W 4047  15.255   5.268  13.367
31623W        W 4048  30.592  24.639   0.931
31624W        W 4049  36.886  42.425  10.591
31625W        W 4050   9.782  29.963  12.475
31626W        W 4051  44.950  26.548   1.223
31627W        W 4052   4.751  42.871   0.336
31628W        W 4053  14.648  25.582   3.639
31629W        W 4054  23.628  43.510   2.250
31630W        W 4055  10.740  42.449   2.706
31631W        W 4056  28.068  19.774  14.505
31632W        W 4057  11.756   4.360   3.682
31633W        W 4058  26.550  44.867  13.964
31634W        W 4059  13.737   0.338   3.333
31635W        W 4060  29.163   3.444   0.836
31636W        W 4061  43.873  34.559  11.422
31637W        W 4062  35.459   1.410  12.511
31638W        W 4063  17.164  21.200   2.736
31639W        W 4064  28.653  12.175   3.217
31640W        W 4065  33.123   0.862  14.309
31641W        W 4066  41.381  14.128   3.824
31642W        W 4067  12.226  25.587  11.573
31643W        W 4068  29.585  35.366   0.825
31644W        W 4069  43.771  22.155  12.950
31645W        W 4070  32.616   4.361   3.844
31646W        W 4071  34.889   4.823   1.338
31647W        W 4072  14.233  39.034  10.549
31648W        W 4073  29.037  11.208  11.493
31649W        W 4074  11.279   2.320  13.422
31650W        W 4075  20.674  24.993   2.385
31651W        W 4076  25.184   0.395  12.562
31652W        W 4077  34.027  30.930  11.529
31653W        W 4078  29.988  29.605  10.991
31654W        W 4079  36.853  40.954  13.404
31655W        W 4080  41.008  32.601   4.731
31656W        W 4081   3.872  12.682  10.546
31657W        W 4082  30.639  33.915   0.841
31658W        W 4083  19.674  25.475   1.421
31659W        W 4084  41.946  18.123  13.309
31660W        W 4085  22.621  34.528   3.262
31661W        W 4086  32.993   6.188   0.884
31662W        W 4087  31.548  32.116   3.230
31663W        W 4088  35.071  31.986  14.799
31664W        W 4089  34.403  16.754  11.941
31665W        W 4090  10.838  29.094  11.992
31666W        W 4091  26.658  34.912  13.418
31667W        W 4092  22.656  32.403  11.990
31668W        W 4093  12.696  21.119  13.409
31669W        W 4094  28.555  36.546   1.413
31670W        W 4095   9.162  43.016  11.995
31671W        W 4096  23.654  41.362  13.325
31672W        W 4097  29.494  11.170  11.594
31673W        W 4098  13.672  33.397   2.368
31674W        W 4099   0.936  24.984  14.417
31675W        W 4100  42.439  16.293   4.833
31676W        W 4101   6.902   0.263   2.894
31677W        W 4102  42.441  15.806   3.256
31678W        W 4103  18.554  36.055  14.377
31679W        W 4104  42.801  16.733  11.116
31680W        W 4105  41.958  18.062  12.389
31681W        W 4106   0.407  18.649  12.903
31682W        W 4107   0.262  11.193  10.586
31683W        W 4108  30.607   3.817  11.875
31684W        W 4109   7.349  28.146   2.815
31685W        W 4110  10.248  10.241  13.817
31686W        W 4111  17.655  29.582  14.281
31687W        W 4112  14.230  24.636  11.897
31688W        W 4113  14.703  39.810   3.688
31689W        W 4114  34.016  11.301   2.790
31690W        W 4115  25.679  42.782   3.295
31691W        W 4116  24.164   4.860  13.934
31692W        W 4117   7.290  38.995   0.800
31693W        W 4118  24.060  20.044  13.000
31694W        W 4119  24.604  28.494   2.319
31695W        W 4120  43.830  32.919  13.968
31696W        W 4121  30.622  12.632   3.770
31697W        W 4122  14.108   9.832   1.882
31698W        W 4123  22.605  31.646  12.843
31699W        W 4124  31.562  29.099   2.186
31700W        W 4125  18.545  28.651   2.316
31701W        W 4126   8.397   8.805  14.812
31702W        W 4127  32.104  29.967   4.269
31703W        W 4128  35.477  31.022  12.879
31704W        W 4129  19.586  44.326   0.299
31705W        W 4130  13.294   3.397  13.415
31706W        W 4131  27.179  12.327   2.674
31707W        W 4132  23.173   7.289  13.339
31708W        W 4133  13.187  17.074   0.850
31709W        W 4134  33.483   2.953   0.276
31710W        W 4135   0.436   5.198   3.192
31711W        W 4136  13.165   8.666   0.911
31712W        W 4137  30.040  13.719  11.856
31713W        W 4138   5.380  34.563  10.468
31714W        W 4139  35.460  25.689  11.965
31715W        W 4140   3.929  10.235  11.935
31716W        W 4141  27.582   4.886   2.237
31717W        W 4142  26.117  44.995  13.492
31718W        W 4143   2.780  41.000   2.414
31719W        W 4144  42.420  31.532  13.547
31720W        W 4145  16.115  35.563  12.558
31721W        W 4146  28.570  11.187   3.174
31722W        W 4147  34.586  30.492   4.227
31723W        W 4148  15.609  34.993  11.104
31724W        W 4149  42.522  20.705   4.627
31725W        W 4150  21.105  31.510  13.020
31726W        W 4151  39.484  38.351  14.955
31727W        W 4152  38.007  23.098   1.363
31728W        W 4153  37.935   9.786  13.327
31729W        W 4154  15.723  43.981  14.776
31730W        W 4155  42.011  11.309  14.789
31731W        W 4156  15.690  29.506  11.897
31732W        W 4157  29.538  23.674   4.240
31733W        W 4158  17.190  32.070   2.287
31734W        W 4159  22.107   6.703  14.963
31735W        W 4160   5.897  21.057  10.915
31736W        W 4161  12.186  36.588  13.992
31737W        W 4162  25.629  12.832  13.954
31738W        W 4163   8.677  44.954  13.439
31739W        W 4164  15.695  15.678   2.233
31740W        W 4165   6.778  20.106   4.250
31741W        W 4166  12.359   4.710  11.881
31742W        W 4167  25.158  35.062  10.472
31743W        W 4168  43.325  31.985   2.712
31744W        W 4169  17.252  41.044   1.810
31745W        W 4170  42.424   8.820  10.439
31746W        W 4171   4.768  39.035  12.945
31747W        W 4172  21.554   7.674   1.735
31748W        W 4173  10.747  12.257  13.512
31749W        W 4174  20.263  14.631  11.963
31750W        W 4175  39.971  38.361   0.730
31751W        W 4176   9.760  26.585  12.949
31752W        W 4177  13.290  21.738  14.510
31753W        W 4178  26.610   5.853   0.394
31754W        W 4179  33.978  35.440  12.415
31755W        W 4180  17.596   6.740  11.497
31756W        W 4181  32.516  30.413   4.799
31757W        W 4182  34.951  21.064   3.360
31758W        W 4183  35.903  14.173  14.300
31759W        W 4184  16.261  35.891  12.396
31760W        W 4185  44.303  24.056  12.947
31761W        W 4186  29.596  24.064  11.967
31762W        W 4187   8.829  40.929  12.488
31763W        W 4188  44.005  12.306   0.756
31764W        W 4189  28.113  29.064   0.884
31765W        W 4190   4.307  41.949   1.386
31766W        W 4191  29.982  40.957  14.787
31767W        W 4192  14.118   9.245   0.255
31768W        W 4193  18.712  42.430   4.657
31769W        W 4194  29.961  29.108   1.699
31770W        W 4195  41.478  44.434  11.408
31771W        W 4196  17.622  27.483   4.691
31772W        W 4197  33.382  41.902   4.690
31773W        W 4198   0.412   9.824  11.484
31774W        W 4199  43.880  28.503   2.816
31775W        W 4200  21.110   7.791   2.222
31776W        W 4201  18.786  38.515  12.887
31777W        W 4202  21.067  36.909   3.814
31778W        W 4203  18.688  28.618  13.493
31779W        W 4204  30.090  34.417  14.424
31780W        W 4205  40.500  26.513   0.269
31781W        W 4206  35.360  44.964   1.330
31782W        W 4207   6.837   0.387  13.530
31783W        W 4208  21.665  13.787  11.935
31784W        W 4209  15.088  14.242  13.993
31785W        W 4210  19.667  10.802  13.400
31786W        W 4211  23.214  40.494   3.209
31787W        W 4212  31.517  22.647   0.908
31788W        W 4213  27.645  37.875  11.935
31789W        W 4214  12.836  16.730   2.695
31790W        W 4215   9.366   6.783   2.320
31791W        W 4216  32.009  34.438  11.053
31792W        W 4217  25.583  42.996  13.034
31793W        W 4218  36.526   0.326   3.654
31794W        W 4219  14.177  10.637  12.835
31795W        W 4220  19.057  29.064  10.954
31796W        W 4221  43.446   4.335   1.431
31797W        W 4222  37.376  38.900   0.325
31798W        W 4223  13.147  43.903  14.865
31799W        W 4224  15.128  32.410   2.282
31800W        W 4225  42.020  27.164  11.595
31801W        W 4226  39.948  40.803   2.181
31802W        W 4227   4.938  15.300   0.276
31803W        W 4228  22.012  13.346   3.805
31804W        W 4229   2.339  22.656   5.219
31805W        W 4230  42.939  39.021   5.184
31806W        W 4231  13.113  22.126  13.987
31807W        W 4232  15.167   9.178   4.243
31808W        W 4233   7.318  21.691  14.778
31809W        W 4234   8.682  32.593   1.405
31810W        W 4235  10.826   3.409  12.384
31811W        W 4236  44.753  37.850  11.479
31812W        W 4237  12.120  29.574  14.401
31813W        W 4238  24.035  16.715  10.939
31814W        W 4239  24.125  35.046  12.366
31815W        W 4240  30.412  38.062   2.804
31816W        W 4241  36.477  31.109   2.235
31817W        W 4242   0.835  19.138   2.354
31818W        W 4243  35.859  38.064  10.944
31819W        W 4244   2.926  38.405  14.884
31820W        W 4245   4.791  12.775   1.394
31821W        W 4246  44.493  41.511   4.148
31822W        W 4247  22.609   6.346  14.880
31823W        W 4248  32.985  36.424  13.032
31824W        W 4249  22.618  18.135  11.068
31825W        W 4250  16.155  16.778   2.750
31826W        W 4251  37.370  40.813  13.891
31827W        W 4252  38.067  34.055   0.809
31828W        W 4253  12.790   7.761  14.332
31829W        W 4254  27.454  11.695  10.893
31830W        W 4255  39.982  15.680   1.807
31831W        W 4256  18.072  10.328   3.646
31832W        W 4257  12.171  29.603   3.637
31833W        W 4258   8.298  17.281  12.012
31834W        W 4259  20.212  43.924   3.327
31835W        W 4260   4.218  43.793   0.477
31836W        W 4261  17.668  26.129   3.247
31837W        W 4262  13.287  25.657   0.934
31838W        W 4263  43.937  18.712  14.823
31839W        W 4264  10.220  39.499  12.415
31840W        W 4265  11.302  35.933   0.436
31841W        W 4266  26.126  10.145   4.168
31842W        W 4267  33.479   6.261  13.056
31843W        W 4268  27.493   9.729  11.610
31844W        W 4269  13.714  21.213   3.364
31845W        W 4270  39.912  34.488  10.440
31846W        W 4271  35.377  21.703  14.422
31847W        W 4272  14.785  29.537   4.181
31848W        W 4273  34.538  31.030   1.447
31849W        W 4274  41.903   5.226   2.788
31850W        W 4275  10.169  30.147   1.902
31851W        W 4276   6.268  18.643  10.075
31852W        W 4277  37.369   2.731   0.741
31853W        W 4278  13.683  13.654  11.377
31854W        W 4279  13.193  37.547   3.720
31855W        W 4280  36.085   4.859  10.617
31856W        W 4281   7.707  27.577  14.491
31857W        W 4282  33.016  36.590  10.585
31858W        W 4283  35.527  28.656   2.846
31859W        W 4284  21.050  30.084   5.114
31860W        W 4285  10.757  42.440   3.767
31861W        W 4286  29.960  38.374  13.498
31862W        W 4287  42.341  42.954  12.952
31863W        W 4288  13.732  24.510  11.599
31864W        W 4289  26.103   2.836  11.963
31865W        W 4290  27.574  26.048   4.610
31866W        W 4291  31.445  18.692   0.876
31867W        W 4292  44.993  13.705  12.418
31868W        W 4293  38.462  41.944   1.742
31869W        W 4294  41.885  29.666   4.176
31870W        W 4295   6.208   5.254   4.344
31871W        W 4296  42.828  23.655  11.091
31872W        W 4297  11.359  33.961   0.871
31873W        W 4298  34.537  39.483   0.460
31874W        W 4299  26.054   1.844  14.307
31875W        W 4300   2.234   5.881   0.408
31876W        W 4301  18.719  23.549  10.944
31877W        W 4302  26.698  21.613  14.299
31878W        W 4303  15.311  40.911  13.415
31879W        W 4304  39.059  32.042  12.548
31880W        W 4305   5.752  36.965  13.811
31881W        W 4306  28.606  27.964   3.383
31882W        W 4307  32.134  26.533  13.052
31883W        W 4308  22.128  31.093   2.759
31884W        W 4309  37.888   4.406  11.119
31885W        W 4310  14.653   6.254  10.898
31886W        W 4311  24.014  40.515  12.387
31887W        W 4312   3.301   2.443   4.611
31888W        W 4313  16.128  16.639  12.010
31889W        W 4314  15.208  18.763  12.438
31890W        W 4315   7.757  25.594  10.530
31891W        W 4316  11.279  31.543   1.738
31892W        W 4317   0.937  10.672  11.569
31893W        W 4318  12.769   6.794   3.709
31894W        W 4319  28.025  36.470  13.796
31895W        W 4320  13.159  16.736  12.890
31896W        W 4321  14.110  29.091   0.437
31897W        W 4322  33.435   3.286  10.414
31898W        W 4323   0.402  28.672  14.405
31899W        W 4324  19.244  37.084   2.330
31900W        W 4325  38.841  12.281   3.346
31901W        W 4326  38.991  37.910   4.178
31902W        W 4327  21.723  17.695   1.908
31903W        W 4328  37.079  40.491   2.341
31904W        W 4329  18.581  33.909  10.640
31905W        W 4330  21.560  42.387  13.315
31906W        W 4331  25.050  41.810   1.372
31907W        W 4332  19.116  42.825   4.191
31908W        W 4333   7.267  22.191  12.895
31909W        W 4334  37.367   9.846   1.289
31910W        W 4335  14.333  24.060   0.465
31911W        W 4336  39.495  11.208   3.261
31912W        W 4337  36.568  42.858   1.730
31913W        W 4338  18.199  41.457   4.256
31914W        W 4339  44.875  23.623   0.483
31915W        W 4340  42.325  10.218  12.001
31916W        W 4341  13.319  44.395   4.747
31917W        W 4342  22.629  12.844  12.878
31918W        W 4343  26.155  24.207   0.474
31919W        W 4344  44.804  31.644   0.378
31920W        W 4345   0.770   7.714   0.360
31921W        W 4346  30.435   9.247  12.362
31922W        W 4347  36.570  37.528   2.380
31923W        W 4348  29.919   5.384   0.875
31924W        W 4349  15.666  30.021  13.899
31925W        W 4350   6.797  17.573  13.041
31926W        W 4351  29.142  21.135   2.217
31927W        W 4352  24.112   5.746   0.772
31928W        W 4353  28.010  33.042  10.596
31929W        W 4354  32.553  26.119   1.366
31930W        W 4355  35.361  42.880  14.953
31931W        W 4356  37.025  11.730  10.979
31932W        W 4357   8.217  39.525   2.723
31933W        W 4358   5.289  44.883   0.740
31934W        W 4359  44.857   3.836  13.407
31935W        W 4360  24.547   6.778  13.351
31936W        W 4361  27.456  21.751  10.524
31937W        W 4362  30.653  22.037   0.403
31938W        W 4363  30.144   5.902  10.448
31939W        W 4364  18.064   4.864  11.875
31940W        W 4365  14.326  44.382   0.481
31941W        W 4366  25.032  19.252   2.892
31942W        W 4367  16.266  39.464   4.743
31943W        W 4368  24.505  41.424  14.836
31944W        W 4369  14.630  33.506  13.799
31945W        W 4370  11.231  27.136   1.861
31946W        W 4371  19.565  41.437   0.409
31947W        W 4372   2.832  36.095   0.883
31948W        W 4373  41.414  27.180   0.896
31949W        W 4374  33.995   2.273   3.776
31950W        W 4375  42.383  21.742   3.804
31951W        W 4376  19.199   1.364  14.878
31952W        W 4377  16.086  16.792  12.829
31953W        W 4378  23.066  12.708  14.278
31954W        W 4379  37.459  10.162   1.934
31955W        W 4380  32.021  19.738  11.459
31956W        W 4381  26.981  22.659  13.999
31957W        W 4382   5.246  22.057   4.301
31958W        W 4383  29.516  12.845  12.942
31959W        W 4384  32.140  38.905   1.720
31960W        W 4385  19.718   7.310   2.813
31961W        W 4386  41.981  29.991   3.634
31962W        W 4387  25.171   3.296  10.412
31963W        W 4388  43.012  25.524   4.197
31964W        W 4389  28.457  37.913   4.155
31965W        W 4390   5.768  13.129   4.252
31966W        W 4391  42.414   7.300  10.466
31967W        W 4392  33.564  28.600   1.820
31968W        W 4393  17.072  42.789  10.004
31969W        W 4394  40.870   9.685  10.471
31970W        W 4395  21.124  43.332   0.913
31971W        W 4396  26.081  31.029   4.663
31972W        W 4397   8.189  35.081   3.175
31973W        W 4398   2.394   1.932   2.744
31974W        W 4399   3.953  20.544  11.467
31975W        W 4400  23.520  19.537   2.839
31976W        W 4401  28.513  14.644  12.940
31977W        W 4402   3.917  33.108  12.935
31978W        W 4403  38.901  15.222  10.987
31979W        W 4404   9.293  21.705  13.893
31980W        W 4405  32.052   3.873  10.640
31981W        W 4406  44.504  41.890  10.645
31982W        W 4407  22.697   3.272   1.929
31983W        W 4408  38.062  16.794  11.080
31984W        W 4409  29.170   3.754   3.808
31985W        W 4410  10.779   9.715   4.783
31986W        W 4411   5.931  17.660  12.996
31987W        W 4412  43.929   9.664  10.971
31988W        W 4413   6.913  34.501  10.597
31989W        W 4414  19.600   2.391  11.908
31990W        W 4415  15.196  34.488  13.344
31991W        W 4416   9.290  33.558  10.564
31992W        W 4417  27.612  31.568  12.400
31993W        W 4418   9.873   4.870   3.261
31994W        W 4419   3.762  17.250   4.632
31995W        W 4420  18.202   4.836   0.427
31996W        W 4421  33.914  34.485   4.228
31997W        W 4422  25.040  15.753   0.775
31998W        W 4423  20.719   0.446  14.766
31999W        W 4424  31.014  40.897   3.740
32000W        W 4425   4.798  31.938  10.644
32001W        W 4426   3.417   6.389   4.823
32002W        W 4427  34.479  26.624   1.387
32003W        W 4428  33.453  31.933   2.182
32004W        W 4429  12.174  14.655   1.838
32005W        W 4430  39.540  15.798  12.529
32006W        W 4431  29.011  30.515  11.398
32007W        W 4432   9.679  24.106   1.874
32008W        W 4433   6.230  28.130  11.869
32009W        W 4434   6.821  39.959   4.292
32010W        W 4435  38.988   3.799  14.032
32011W        W 4436  20.676  40.343   3.192
32012W        W 4437  43.832   6.291   0.777
32013W        W 4438   8.178  37.506  11.085
32014W        W 4439  19.284  31.443   3.760
32015W        W 4440  26.072  27.671   3.824
32016W        W 4441  20.247  38.985   4.184
32017W        W 4442   6.731  25.999  12.891
32018W        W 4443  42.305  30.030   2.894
32019W        W 4444   1.943  22.644   2.290
32020W        W 4445  36.412  40.303   0.875
32021W        W 4446  25.053   2.905  13.923
32022W        W 4447   6.853   7.867  11.381
32023W        W 4448  10.772  15.655  10.953
32024W        W 4449  30.550   1.272  12.049
32025W        W 4450  36.892  11.841  14.349
32026W        W 4451  29.454  42.313  11.856
32027W        W 4452  32.903  36.429   4.795
32028W        W 4453  37.418  20.626  10.916
32029W        W 4454  25.127  10.815  14.400
32030W        W 4455  27.995  36.508  14.914
32031W        W 4456  13.718  22.544   9.993
32032W        W 4457  33.437  24.608   0.461
32033W        W 4458  32.625  33.420  10.958
32034W        W 4459  19.169  20.196  13.798
32035W        W 4460  20.655  31.901  13.001
32036W        W 4461   0.967  32.616   3.285
32037W        W 4462  23.087   5.351   2.370
32038W        W 4463   0.278   9.796  12.978
32039W        W 4464  42.425  40.809   4.737
32040W        W 4465   9.820  28.565  13.973
32041W        W 4466   3.414  42.834  10.529
32042W        W 4467  26.029  23.105  10.439
32043W        W 4468  44.802  30.646   4.684
32044W        W 4469  22.548  16.732   2.841
32045W        W 4470   1.272  38.997  11.899
32046W        W 4471  28.980  29.124  10.433
32047W        W 4472  11.806  30.956  14.303
32048W        W 4473   9.653   7.670  14.509
32049W        W 4474   6.199  23.198  14.406
32050W        W 4475  38.886  40.848   0.333
32051W        W 4476  39.428  15.613  11.590
32052W        W 4477  25.633   8.896  12.037
32053W        W 4478  44.319   6.183   0.289
32054W        W 4479  34.509   9.221  13.385
32055W        W 4480   6.823  33.534   1.443
32056W        W 4481  35.452  38.006   2.181
32057W        W 4482  36.924  40.427  14.464
32058W        W 4483  40.343   7.749   4.794
32059W        W 4484  39.063  16.119   2.756
32060W        W 4485  40.004   4.880   0.331
32061W        W 4486  25.589  24.992   0.410
32062W        W 4487   6.272  30.507   2.802
32063W        W 4488  18.785  23.550  13.057
32064W        W 4489  44.478  24.108   0.420
32065W        W 4490  32.610  43.447   4.645
32066W        W 4491  39.883  42.812  10.962
32067W        W 4492  20.142  36.855   4.824
32068W        W 4493  18.101  12.710  13.538
32069W        W 4494  21.255  31.528  11.909
32070W        W 4495  36.399  40.505  14.897
32071W        W 4496  18.688  26.202  11.495
32072W        W 4497  24.058  16.199  12.826
32073W        W 4498   9.769  12.116  10.911
32074W        W 4499  12.740  26.972  11.915
32075W        W 4500  37.978  18.743  10.976
32076W        W 4501   3.267  29.948  14.316
32077W        W 4502  17.271  28.504  10.645
32078W        W 4503   5.357  10.813   4.782
32079W        W 4504  25.029   5.755  11.521
32080W        W 4505   5.386   5.301   2.828
32081W        W 4506   4.425  35.003  14.347
32082W        W 4507  24.016   4.772  10.419
32083W        W 4508  26.458  32.128   9.448
32084W        W 4509  20.644  31.402  12.575
32085W        W 4510  28.560   5.795   1.449
32086W        W 4511  21.689   5.825   1.748
32087W        W 4512  27.531  24.495   1.248
32088W        W 4513  20.667   8.185   0.821
32089W        W 4514   7.187  32.057  10.468
32090W        W 4515   9.669  24.676   0.380
32091W        W 4516  14.240   6.839  11.437
32092W        W 4517  16.090  13.202  13.018
32093W        W 4518  18.142  17.238   1.412
32094W        W 4519  11.324  20.611   4.787
32095W        W 4520  26.491  19.549   0.305
32096W        W 4521  40.350  39.448   3.831
32097W        W 4522  13.612  38.499   2.881
32098W        W 4523  41.796  32.414  10.976
32099W        W 4524  21.577  23.033  11.440
32100W        W 4525  23.170  10.214   0.255
32101W        W 4526  27.639  32.035  12.462
32102W        W 4527  22.557  31.907   2.692
32103W        W 4528  28.185  21.557   4.256
32104W        W 4529   6.864  39.002   4.647
32105W        W 4530  37.869  12.196   2.185
32106W        W 4531  38.491   2.763   3.664
32107W        W 4532  13.109  43.342  14.873
32108W        W 4533  10.675   8.303   4.749
32109W        W 4534   5.775  30.548   1.355
32110W        W 4535  43.892  16.212  11.049
32111W        W 4536   1.471  38.971   0.454
32112W        W 4537  16.301  11.818  11.872
32113W        W 4538  38.830  41.878  13.945
32114W        W 4539  12.617  18.131  11.033
32115W        W 4540  15.622  21.620  10.426
32116W        W 4541  42.401  42.515  10.959
32117W        W 4542  21.052  41.883   1.390
32118W        W 4543  16.318  42.794   4.308
32119W        W 4544  23.240   2.314   1.863
32120W        W 4545   8.340  23.141   3.795
32121W        W 4546   7.754  16.679  10.440
32122W        W 4547  32.459  10.327   2.731
32123W        W 4548  41.308   5.892  12.038
32124W        W 4549  28.471  32.432  14.020
32125W        W 4550  38.360  31.121  12.986
32126W        W 4551  22.241  33.550   4.208
32127W        W 4552  30.954  40.397   4.822
32128W        W 4553  15.635  37.889   0.830
32129W        W 4554  17.266  35.983   3.238
32130W        W 4555   1.821  21.264   2.690
32131W        W 4556  33.612  10.335   2.197
32132W        W 4557   4.275  34.508  14.018
32133W        W 4558  36.537  44.340  12.397
32134W        W 4559  33.960  22.195  14.285
32135W        W 4560  37.379  20.703  12.502
32136W        W 4561  13.826  22.684   3.777
32137W        W 4562  19.573  44.790  10.529
32138W        W 4563   7.825   1.398  14.388
32139W        W 4564  39.451   3.422   4.747
32140W        W 4565   4.886  12.705   4.741
32141W        W 4566  10.247   1.420   0.472
32142W        W 4567   3.432  18.138  13.857
32143W        W 4568  22.158  40.006  11.011
32144W        W 4569   7.885  44.865   1.722
32145W        W 4570  43.512  14.690  14.887
32146W        W 4571  33.089  43.992  10.950
32147W        W 4572  16.718  43.272   3.246
32148W        W 4573   5.429  39.455   4.643
32149W        W 4574   8.290  34.427  11.077
32150W        W 4575   2.241   9.267   4.204
32151W        W 4576  18.110   3.234  14.327
32152W        W 4577  35.585  10.174  13.498
32153W        W 4578  35.093  14.270   0.791
32154W        W 4579  39.323   6.864  13.488
32155W        W 4580  21.676   5.763   1.403
32156W        W 4581  25.571  41.932   1.253
32157W        W 4582  22.555  11.645  12.846
32158W        W 4583   9.671   6.821  13.438
32159W        W 4584  14.679  15.635   1.803
32160W        W 4585  33.579  20.235   0.448
32161W        W 4586  14.327  33.591   1.370
32162W        W 4587  12.781  21.751  12.554
32163W        W 4588  17.240   0.417  13.382
32164W        W 4589   6.690  23.690   3.674
32165W        W 4590  19.247  32.909  12.903
32166W        W 4591  16.134  30.025   1.918
32167W        W 4592  28.081  30.594  14.284
32168W        W 4593  27.980   0.461  13.809
32169W        W 4594  38.874  27.578   4.228
32170W        W 4595  23.659  13.280  12.344
32171W        W 4596   8.847  33.506  11.881
32172W        W 4597  35.929  19.105   3.852
32173W        W 4598  18.292  26.459   3.726
32174W        W 4599  23.017  28.983   2.781
32175W        W 4600  37.514  17.120   1.273
32176W        W 4601   5.690  42.328  12.979
32177W        W 4602  21.608  44.263   0.744
32178W        W 4603  43.859  14.666   4.255
32179W        W 4604  22.677  25.691   4.351
32180W        W 4605  42.972  38.357  11.124
32181W        W 4606  38.353   3.227  11.453
32182W        W 4607   2.882   4.941   2.900
32183W        W 4608  21.554  44.394   3.245
32184W        W 4609  43.857  16.286  14.353
32185W        W 4610  23.533   6.706   3.695
32186W        W 4611  20.670  29.438  14.806
32187W        W 4612  38.387  19.166   0.477
32188W        W 4613  25.138   5.194  12.371
32189W        W 4614  25.206   8.711   2.370
32190W        W 4615  34.084  43.903   3.728
32191W        W 4616  32.500   7.815   1.416
32192W        W 4617  25.623  33.511  14.489
32193W        W 4618   7.385   0.817   1.240
32194W        W 4619   7.907  41.430   0.816
32195W        W 4620   3.274  18.650   0.885
32196W        W 4621  23.999  14.169  14.945
32197W        W 4622  12.631   2.377  10.546
32198W        W 4623  43.924  17.788   4.261
32199W        W 4624  41.354  19.741  14.471
32200W        W 4625  26.566  30.972   0.320
32201W        W 4626  42.017   0.778  13.518
32202W        W 4627  39.445  43.957  11.932
32203W        W 4628  16.318  31.490   2.290
32204W        W 4629   1.785  26.526  14.396
32205W        W 4630  14.687   5.887   4.745
32206W        W 4631  25.188  28.477   3.682
32207W        W 4632  29.458  39.503  11.920
32208W        W 4633  24.216  38.887   2.737
32209W        W 4634  11.683   0.801   4.152
32210W        W 4635  23.055  35.080  11.947
32211W        W 4636  34.012   9.671   2.255
32212W        W 4637  27.098   0.382   0.432
32213W        W 4638  10.280   0.916   3.311
32214W        W 4639  26.191   1.366   1.279
32215W        W 4640  25.537  26.140  12.861
32216W        W 4641  27.679  22.131  11.893
32217W        W 4642   8.388  27.998   0.908
32218W        W 4643  24.123  19.238  13.977
32219W        W 4644  28.490  39.318  13.820
32220W        W 4645  42.914   7.675   4.719
32221W        W 4646  40.054  38.927   1.916
32222W        W 4647  28.500  36.477   4.784
32223W        W 4648  25.579  24.020   1.410
32224W        W 4649   5.873  26.141  13.888
32225W        W 4650   5.367  21.208   2.384
32226W        W 4651  16.244  22.083   0.892
32227W        W 4652   3.239  27.114   3.374
32228W        W 4653  13.227   2.819   0.410
32229W        W 4654  27.112   8.242   1.728
32230W        W 4655  39.812  16.243   1.383
32231W        W 4656  27.537  37.403  13.379
32232W        W 4657   1.480  17.598   0.393
32233W        W 4658  10.296  28.511   2.741
32234W        W 4659  44.488  26.012  11.411
32235W        W 4660  34.085  14.672   3.828
32236W        W 4661  33.449  23.186  14.505
32237W        W 4662  19.575  33.477   4.193
32238W        W 4663  41.920  36.997  10.457
32239W        W 4664   6.733  30.041  11.514
32240W        W 4665  39.879   0.330   1.788
32241W        W 4666  14.301  31.110   1.840
32242W        W 4667  17.584  23.026  10.643
32243W        W 4668   1.273  27.690  12.928
32244W        W 4669  34.487  43.961  10.930
32245W        W 4670  11.715  24.016  11.584
32246W        W 4671  38.837  43.431   0.891
32247W        W 4672  15.155   0.290  10.966
32248W        W 4673  24.570  19.618  12.449
32249W        W 4674  18.671   5.734   2.757
32250W        W 4675  26.063   5.261   1.213
32251W        W 4676  30.109  26.541  10.471
32252W        W 4677  12.149  29.165   0.726
32253W        W 4678   6.913  42.517   3.259
32254W        W 4679  12.817  29.662   2.718
32255W        W 4680   1.348  36.032  13.319
32256W        W 4681  37.073  27.089   1.255
32257W        W 4682  14.302  13.692   4.739
32258W        W 4683  18.278  30.545   5.151
32259W        W 4684  36.960   1.884  10.639
32260W        W 4685  32.922  19.091   1.862
32261W        W 4686  16.668  34.092   4.635
32262W        W 4687  34.372  37.466  12.887
32263W        W 4688  11.779  11.128  12.534
32264W        W 4689  11.739  18.702  11.587
32265W        W 4690  39.419  26.617   4.780
32266W        W 4691  10.163  23.591   0.388
32267W        W 4692  23.694   3.929  12.872
32268W        W 4693  40.506  39.887   5.184
32269W        W 4694   2.876  28.631  13.008
32270W        W 4695  40.326   1.472  10.951
32271W        W 4696  18.749  28.115   1.786
32272W        W 4697  10.310  39.004  12.855
32273W        W 4698   9.889  16.179   1.423
32274W        W 4699   6.226  21.117   0.354
32275W        W 4700  41.433  25.684   4.298
32276W        W 4701  21.699  33.926  12.950
32277W        W 4702  28.065  23.555   3.864
32278W        W 4703   9.675  33.119   4.319
32279W        W 4704  37.415   4.268   3.870
32280W        W 4705  15.207  21.115   1.321
32281W        W 4706   3.749  36.902  12.056
32282W        W 4707   8.399   6.746   1.841
32283W        W 4708  37.440   6.360  10.985
32284W        W 4709   2.325  29.085   2.883
32285W        W 4710  37.047  30.930  10.581
32286W        W 4711  23.699  11.738  11.477
32287W        W 4712   0.849  14.309  12.091
32288W        W 4713  43.916  16.570   0.808
32289W        W 4714  19.098  10.652   1.261
32290W        W 4715  23.635  36.459  11.479
32291W        W 4716   3.744   2.348   2.765
32292W        W 4717  12.189  24.673   3.776
32293W        W 4718  20.031  13.310  12.572
32294W        W 4719  40.394  13.255   0.732
32295W        W 4720   8.875  44.269   0.741
32296W        W 4721  21.631  40.021  12.540
32297W        W 4722  35.053   4.438  12.530
32298W        W 4723  25.515  44.815  12.554
32299W        W 4724  22.541   6.281   3.715
32300W        W 4725  44.366  27.130   4.609
32301W        W 4726  31.010  41.332  10.021
32302W        W 4727   9.663  31.051  14.843
32303W        W 4728  13.762   1.288  12.967
32304W        W 4729   8.227  16.221  11.855
32305W        W 4730  28.160  29.937  10.608
32306W        W 4731  18.594  44.825   4.254
32307W        W 4732  11.188  19.592  12.467
32308W        W 4733   6.227   4.746   1.442
32309W        W 4734  25.096  26.081  11.506
32310W        W 4735   9.786  22.163   2.265
32311W        W 4736   8.776  38.342  10.558
32312W        W 4737  33.014  30.645   1.337
32313W        W 4738  19.689   3.734   2.811
32314W        W 4739  11.156  38.880  10.486
32315W        W 4740  12.253  33.080  14.384
32316W        W 4741  24.537  14.684  13.054
32317W        W 4742  10.191  38.554  12.040
32318W        W 4743  10.877   2.733   0.318
32319W        W 4744  27.195  40.833  14.467
32320W        W 4745   2.725  19.046   3.691
32321W        W 4746  22.250   7.904   4.122
32322W        W 4747  37.907  30.044   4.658
32323W        W 4748   7.679   2.752   1.918
32324W        W 4749  40.537  27.483   1.925
32325W        W 4750  23.075  11.751   9.993
32326W        W 4751  34.416   7.724  14.440
32327W        W 4752  16.676  14.201   4.610
32328W        W 4753  34.460   1.959  14.954
32329W        W 4754  23.148  39.486   2.877
32330W        W 4755  29.563  15.166   3.850
32331W        W 4756  24.998  14.598  14.842
32332W        W 4757   6.264  33.461   1.445
32333W        W 4758   1.866  33.017   2.336
32334W        W 4759   8.663  20.129   2.761
32335W        W 4760   9.285  34.996   2.880
32336W        W 4761   0.380  11.140  13.803
32337W        W 4762   3.899  30.554  14.978
32338W        W 4763  24.522  13.320  10.971
32339W        W 4764   4.370  15.582   4.282
32340W        W 4765  11.258   6.400  13.919
32341W        W 4766   7.904  44.899  12.389
32342W        W 4767   7.735  11.129  14.845
32343W        W 4768  26.090  39.039   2.366
32344W        W 4769  19.187  19.062  12.495
32345W        W 4770  28.644  39.370   4.694
32346W        W 4771  16.277  40.368  14.849
32347W        W 4772  41.031  42.284   5.769
32348W        W 4773  35.061  42.443  14.979
32349W        W 4774  36.352  14.646  12.070
32350W        W 4775  38.938  42.316   2.228
32351W        W 4776  10.176   5.325  10.566
32352W        W 4777  44.980  12.121  14.875
32353W        W 4778  26.594  13.819   5.128
32354W        W 4779  22.031  18.624  10.412
32355W        W 4780   0.757   9.867  10.937
32356W        W 4781  14.286  27.690  11.552
32357W        W 4782  21.609  30.490  10.426
32358W        W 4783  13.667  24.701   1.843
32359W        W 4784   7.340  17.251   1.264
32360W        W 4785   5.709  25.165  11.914
32361W        W 4786  28.540  36.419  14.951
32362W        W 4787   0.906   3.827  10.457
32363W        W 4788  29.633  24.687   1.904
32364W        W 4789  11.681   9.727  12.069
32365W        W 4790  15.285  11.310  12.063
32366W        W 4791   7.874  19.664  12.974
32367W        W 4792  39.381   0.394   3.344
32368W        W 4793  34.026  25.546   3.785
32369W        W 4794  20.697  39.963   3.704
32370W        W 4795   1.857   9.309  11.934
32371W        W 4796  44.937  21.147  10.563
32372W        W 4797  10.381  18.248  12.824
32373W        W 4798  44.279  21.742  11.503
32374W        W 4799  13.792   0.254   4.236
32375W        W 4800  10.854   9.659  13.035
32376W        W 4801   7.799  38.879  10.568
32377W        W 4802   0.252  19.626   2.212
32378W        W 4803  40.543  32.550  14.946
32379W        W 4804  40.402  43.798  14.498
32380W        W 4805  40.038  34.917   2.236
32381W        W 4806   2.892  11.258   1.343
32382W        W 4807  29.006  15.698   2.898
32383W        W 4808  24.638  38.021  13.852
32384W        W 4809  34.426  16.784  14.490
32385W        W 4810  44.324  21.172   1.735
32386W        W 4811  26.181   5.918   2.720
32387W        W 4812  30.545  34.985   3.631
32388W        W 4813  26.639   9.797   4.690
32389W        W 4814  24.034  19.740   0.278
32390W        W 4815  30.529  35.901   4.621
32391W        W 4816  37.484  43.336  10.562
32392W        W 4817  24.219  44.930   3.826
32393W        W 4818  37.533  28.028   2.677
32394W        W 4819  40.331  21.020  13.337
32395W        W 4820  10.766   1.966  14.353
32396W        W 4821  14.270   6.317   3.721
32397W        W 4822   7.215  34.048  11.040
32398W        W 4823  18.656  34.467   2.717
32399W        W 4824  21.625  18.585   0.478
32400W        W 4825  31.548  43.484  10.441
32401W        W 4826   0.864  41.369   1.818
32402W        W 4827  27.646  18.148   3.720
32403W        W 4828   0.309  41.436   1.336
32404W        W 4829  29.507   3.458   0.785
32405W        W 4830  32.435  30.551  10.427
32406W        W 4831   9.390  19.589   4.176
32407W        W 4832  24.506   7.390  12.392
32408W        W 4833  32.594   0.930   0.344
32409W        W 4834  37.024  40.917   1.694
32410W        W 4835   3.925   9.246  10.562
32411W        W 4836   5.194  19.261   4.755
32412W        W 4837  24.105  30.090  13.353
32413W        W 4838  40.311  11.811   0.934
32414W        W 4839  39.541   9.254  10.599
32415W        W 4840  17.628  24.021   4.258
32416W        W 4841  21.750  42.941   2.894
32417W        W 4842  30.921  40.427   3.814
32418W        W 4843   4.880  34.542   0.832
32419W        W 4844  17.643  37.488  12.569
32420W        W 4845  35.950   5.439   0.369
32421W        W 4846  35.058   8.871   2.361
32422W        W 4847  16.634  15.612   0.875
32423W        W 4848  15.209  20.703  14.972
32424W        W 4849   5.407  23.005   3.720
32425W        W 4850  44.848  27.655   3.202
32426W        W 4851  20.661  37.950   3.283
32427W        W 4852  39.035  33.507  14.015
32428W        W 4853  14.629  22.620   3.190
32429W        W 4854   7.188  14.713   3.846
32430W        W 4855  23.225  40.485  12.996
32431W        W 4856  41.342  32.511  13.843
32432W        W 4857   2.740  37.377   4.178
32433W        W 4858  20.269  36.912   2.713
32434W        W 4859  16.674  16.260   1.303
32435W        W 4860  29.566  33.907  11.073
32436W        W 4861  16.739   3.226  13.998
32437W        W 4862  10.310  27.649   3.306
32438W        W 4863  27.483   5.331  12.501
32439W        W 4864  13.149  32.982  11.872
32440W        W 4865  27.544  21.255   1.797
32441W        W 4866   9.880  19.597  13.885
32442W        W 4867   8.335  40.346   1.393
32443W        W 4868  37.866  12.857  13.062
32444W        W 4869  37.968   2.257  10.476
32445W        W 4870  12.328  26.634   0.900
32446W        W 4871  40.000   6.187  12.978
32447W        W 4872  23.151   2.872   1.432
32448W        W 4873   6.247   5.325   2.879
32449W        W 4874   0.345  31.915   1.354
32450W        W 4875  23.626  27.995   2.869
32451W        W 4876   0.797  24.668   4.250
32452W        W 4877   8.274   6.806  12.348
32453W        W 4878  39.905  39.444   2.734
32454W        W 4879  27.564  31.120   1.865
32455W        W 4880  27.136   7.359   0.384
32456W        W 4881   3.926  37.046  10.476
32457W        W 4882   9.202  38.987  12.466
32458W        W 4883  17.699  19.052  10.939
32459W        W 4884   1.761  35.970   1.413
32460W        W 4885  35.962  31.443  13.039
32461W        W 4886  38.424  12.227  12.513
32462W        W 4887  19.257  10.844   0.418
32463W        W 4888  33.482  29.018  10.034
32464W        W 4889  27.133  43.881  14.303
32465W        W 4890  31.995  22.660   0.263
32466W        W 4891  30.162  15.091   1.769
32467W        W 4892  20.255  21.525   4.787
32468W        W 4893  17.092  27.675  14.489
32469W        W 4894   9.763  36.421  11.511
32470W        W 4895  42.326  12.256   1.916
32471W        W 4896  27.662  31.044   2.718
32472W        W 4897   4.724  44.823  12.929
32473W        W 4898   7.386  43.833  13.894
32474W        W 4899  15.770   7.338   0.388
32475W        W 4900   9.757  11.332   1.415
32476W        W 4901   4.701   2.830  10.067
32477W        W 4902  27.079  40.349   3.746
32478W        W 4903  44.978  42.407   2.332
32479W        W 4904  41.308  36.448   0.770
32480W        W 4905  11.241  34.992  12.405
32481W        W 4906  10.868  19.711   0.800
32482W        W 4907  28.612  15.794   4.614
32483W        W 4908  19.706  39.022   4.820
32484W        W 4909  37.560  41.509  13.313
32485W        W 4910  18.235  31.644   4.300
32486W        W 4911  11.678  42.791   2.875
32487W        W 4912   3.281  26.189   2.184
32488W        W 4913  35.936   3.332   0.325
32489W        W 4914  41.353  32.116   1.895
32490W        W 4915  23.076  36.019  13.427
32491W        W 4916   5.250   0.783  13.055
32492W        W 4917  43.323  25.517   2.407
32493W        W 4918  38.455  37.078   3.765
32494W        W 4919  44.475  20.610  14.845
32495W        W 4920  33.423   2.313   4.748
32496W        W 4921  22.240   7.301   4.285
32497W        W 4922   2.936  20.758  13.338
32498W        W 4923  38.928  21.021  14.999
32499W        W 4924  30.935  38.377  11.072
32500W        W 4925  43.793  17.747   2.335
32501W        W 4926   3.713   7.796  11.125
32502W        W 4927   1.307  33.082   2.719
32503W        W 4928  40.360  11.139  14.788
32504W        W 4929  32.607  36.038   5.284
32505W        W 4930  43.850  37.476   2.763
32506W        W 4931  40.531  32.416  13.417
32507W        W 4932  13.784  16.128  13.821
32508W        W 4933   4.858   9.221  13.042
32509W        W 4934   2.750  35.556   3.635
32510W        W 4935  24.170  30.099  14.949
32511W        W 4936  22.132  39.938   3.720
32512W        W 4937   2.920   7.189  12.562
32513W        W 4938  14.718  26.666   0.958
32514W        W 4939   1.836  24.059  14.019
32515W        W 4940   1.345   4.387  11.571
32516W        W 4941   6.774  29.085  10.528
32517W        W 4942   5.361  41.005   3.318
32518W        W 4943  36.991  12.189   2.745
32519W        W 4944  19.183  33.586   4.666
32520W        W 4945  19.043  44.795  12.017
32521W        W 4946  19.187  21.202  13.396
32522W        W 4947  37.434   8.751   3.177
32523W        W 4948  31.012  24.104   1.314
32524W        W 4949  26.478  29.558   2.787
32525W        W 4950   8.714  32.416   3.777
32526W        W 4951  42.993  27.598  14.353
32527W        W 4952   1.251  29.107  11.390
32528W        W 4953  10.260  21.079  12.360
32529W        W 4954  30.062   8.824  13.529
32530W        W 4955  34.612  18.637  12.018
32531W        W 4956  28.120  36.059   4.232
32532W        W 4957  10.219  25.990   0.764
32533W        W 4958   8.241  27.120  13.974
32534W        W 4959  43.515  43.515   4.612
32535W        W 4960  33.414   4.248  12.388
32536W        W 4961  27.134  33.529   9.992
32537W        W 4962  34.429  24.089   4.824
32538W        W 4963  20.628  39.481  10.969
32539W        W 4964  28.052  16.744   4.233
32540W        W 4965   1.315  27.503  12.033
32541W        W 4966  37.522  16.290  11.499
32542W        W 4967  44.940   0.744  10.933
32543W        W 4968  11.273  43.999   2.668
32544W        W 4969  20.153  28.502  13.374
32545W        W 4970   0.426  36.001  12.939
32546W        W 4971   8.819  32.933   2.212
32547W        W 4972  25.182  10.656   5.271
32548W        W 4973  19.043   5.192  12.449
32549W        W 4974  25.684  20.725  14.002
32550W        W 4975  23.698   6.389  14.932
32551W        W 4976  16.229  29.610   1.925
32552W        W 4977  14.202  24.222  11.998
32553W        W 4978  18.787   4.810  13.438
32554W        W 4979  34.415  42.312  12.018
32555W        W 4980   0.403  33.117   1.834
32556W        W 4981  44.981  23.616  14.989
32557W        W 4982  33.910  27.088  11.470
32558W        W 4983  25.515  31.443   4.615
32559W        W 4984  36.053  20.601   2.695
32560W        W 4985  11.857  30.551   4.747
32561W        W 4986   1.821  16.232   0.304
32562W        W 4987  26.672  11.154  13.457
32563W        W 4988  28.988   9.232  14.850
32564W        W 4989  24.083  41.506   0.371
32565W        W 4990  40.331  15.179  11.517
32566W        W 4991  28.676  25.027  12.963
32567W        W 4992   0.281  30.532  13.951
32568W        W 4993  13.754   8.402  11.535
32569W        W 4994  44.350  28.610   1.723
32570W        W 4995   3.940   7.873   0.823
32571W        W 4996  17.627  33.936  13.435
32572W        W 4997  26.996  24.715  11.031
32573W        W 4998  17.753   4.288  12.956
32574W        W 4999   1.762   5.197  14.355
32575W        W 5000   1.389  22.169  14.378
32576W        W 5001  33.131  24.592   4.760
32577W        W 5002  30.485  37.049  14.789
32578W        W 5003  20.059   8.672  13.347
32579W        W 5004  29.153  11.810  12.446
32580W        W 5005   9.150  27.957   3.156
32581W        W 5006  25.689  37.994   1.372
32582W        W 5007  39.382  39.890   0.903
32583W        W 5008   2.768  42.360  12.870
32584W        W 5009  32.435  17.737   2.218
32585W        W 5010  21.073  23.051  12.859
32586W        W 5011  34.579   0.371  12.508
32587W        W 5012  11.235   7.677   5.081
32588W        W 5013  20.600  18.096   0.938
32589W        W 5014  35.496  31.529  12.546
32590W        W 5015   3.774   7.335   3.250
32591W        W 5016   1.282   4.815   0.444
32592W        W 5017   8.781   0.932   3.749
32593W        W 5018  33.028   2.406  14.357
32594W        W 5019  31.500   2.722   4.613
32595W        W 5020  39.950   5.355   2.358
32596W        W 5021   2.803   7.842  10.448
32597W        W 5022  27.585   9.862   0.348
32598W        W 5023  35.421  29.048   2.379
32599W        W 5024  17.135  23.103   0.867
32600W        W 5025  41.871  32.559   3.252
32601W        W 5026  36.389  23.570  12.893
32602W        W 5027  30.982  33.425  12.009
32603W        W 5028  40.011  33.393  14.311
32604W        W 5029  35.597   5.845  13.995
32605W        W 5030  33.501  27.587   4.784
32606W        W 5031   7.178  32.449  12.950
32607W        W 5032   3.445  16.090  11.013
32608W        W 5033  16.216  20.587  13.899
32609W        W 5034   9.820  11.299  13.494
32610W        W 5035  16.113   9.655  12.918
32611W        W 5036  40.342  34.506   1.721
32612W        W 5037  29.931  23.187  11.027
32613W        W 5038  35.072   7.416  12.043
32614W        W 5039  29.971  32.491  14.007
32615W        W 5040  25.517  39.861   1.929
32616W        W 5041  23.644  36.018   2.894
32617W        W 5042  31.933  23.080   4.608
32618W        W 5043  15.210  33.925  11.597
32619W        W 5044  24.657  44.801   2.722
32620W        W 5045  27.061   9.887  12.428
32621W        W 5046  14.763   2.348  12.412
32622W        W 5047   6.230  34.043   2.222
32623W        W 5048  34.553  28.460   4.628
32624W        W 5049  33.000  41.492  12.417
32625W        W 5050  10.666  41.816   1.741
32626W        W 5051  35.388  20.700  13.826
32627W        W 5052   0.887  20.657   0.376
32628W        W 5053  28.102  24.203   3.273
32629W        W 5054  22.103  15.648   2.876
32630W        W 5055  19.671  20.228   5.095
32631W        W 5056  23.201  19.238   0.890
32632W        W 5057  41.836  15.149  12.487
32633W        W 5058  24.580  43.419   1.891
32634W        W 5059   8.882   8.209   2.396
32635W        W 5060   6.370  20.082   0.940
32636W        W 5061  36.063   4.228   0.299
32637W        W 5062  14.607   9.782   1.431
32638W        W 5063  32.960  12.736   1.432
32639W        W 5064  38.384  35.969  13.030
32640W        W 5065  38.455  25.110   5.134
32641W        W 5066  31.082  16.302   1.328
32642W        W 5067  28.976   3.765   0.826
32643W        W 5068   7.739  31.539   1.218
32644W        W 5069  13.722  22.668  13.894
32645W        W 5070   9.757  40.016  11.069
32646W        W 5071  21.676  42.420   3.176
32647W        W 5072  40.909  20.042   4.718
32648W        W 5073  28.646  17.229  10.478
32649W        W 5074  40.850  13.684   1.726
32650W        W 5075  29.952   8.322   1.364
32651W        W 5076  32.526  36.347  13.523
32652W        W 5077  31.512  29.617  12.076
32653W        W 5078  41.427  24.976   3.769
32654W        W 5079  32.964  38.543  12.546
32655W        W 5080   1.274   1.915   4.803
32656W        W 5081  41.935   7.835   4.322
32657W        W 5082  24.638  26.982  14.782
32658W        W 5083  20.743  39.372  12.884
32659W        W 5084  29.630  37.041   4.764
32660W        W 5085  39.521  19.599   3.186
32661W        W 5086  27.060   2.918  11.103
32662W        W 5087  37.343  14.195   1.707
32663W        W 5088  24.128  31.567  12.976
32664W        W 5089  11.791   8.401   1.419
32665W        W 5090  29.507   2.825   3.812
32666W        W 5091  11.209  11.817   4.157
32667W        W 5092  40.859   7.257   2.812
32668W        W 5093  41.974  12.808  11.872
32669W        W 5094  36.857  22.596  11.444
32670W        W 5095  29.464  14.292  10.522
32671W        W 5096  44.314  16.739   0.832
32672W        W 5097  25.186  29.022   3.863
32673W        W 5098  38.070  15.798   2.293
32674W        W 5099  42.861  13.341  10.446
32675W        W 5100  28.607   1.801   1.911
32676W        W 5101  32.127   9.343   2.743
32677W        W 5102  20.120   6.745   4.652
32678W        W 5103  42.492  13.194   0.288
32679W        W 5104  26.671  12.292   3.153
32680W        W 5105  34.585  11.200   1.280
32681W        W 5106  20.088  13.702   1.431
32682W        W 5107  36.847  41.836  11.414
32683W        W 5108  32.130  33.441   5.162
32684W        W 5109   6.683  13.607  13.946
32685W        W 5110   3.921  27.072   4.336
32686W        W 5111  33.526  38.520  12.463
32687W        W 5112  34.090  19.778   3.708
32688W        W 5113  10.372   6.409   5.732
32689W        W 5114  13.196  20.047  14.800
32690W        W 5115  15.762  20.589   1.878
32691W        W 5116   4.257   3.757   3.663
32692W        W 5117  37.860   6.876   2.214
32693W        W 5118  14.157  37.894   1.223
32694W        W 5119  34.605  39.414  13.355
32695W        W 5120  22.157  19.069  13.498
32696W        W 5121  12.744  16.610  11.497
32697W        W 5122  16.200  34.372   2.840
32698W        W 5123  25.575   6.896  10.610
32699W        W 5124  40.335   3.894  13.541
32700W        W 5125  30.122   6.773   3.710
32701W        W 5126   9.807  32.611  14.335
32702W        W 5127  10.761  22.525  14.772
32703W        W 5128  12.784   7.187   3.156
32704W        W 5129   6.319  12.295  13.440
32705W        W 5130  35.487  30.149   4.289
32706W        W 5131   4.859  28.033  14.027
32707W        W 5132  21.683  23.656  12.827
32708W        W 5133  34.550  33.079   1.931
32709W        W 5134  41.315  22.132  10.630
32710W        W 5135  30.570  40.532  10.613
32711W        W 5136  20.170  39.551   3.839
32712W        W 5137  27.527  21.671   2.832
32713W        W 5138  43.302  15.255  13.438
32714W        W 5139  43.872   9.692   1.347
32715W        W 5140  11.813  27.990   3.180
32716W        W 5141   0.761   1.913  11.521
32717W        W 5142  29.095  43.917  10.406
32718W        W 5143  43.951  41.368   0.944
32719W        W 5144  16.282  39.473  13.998
32720W        W 5145   1.277  44.296  10.445
32721W        W 5146   7.805  12.131  13.846
32722W        W 5147  18.153   4.748   2.823
32723W        W 5148  42.994   1.920   3.851
32724W        W 5149  40.839  16.786  12.882
32725W        W 5150  43.874  28.932  12.555
32726W        W 5151   0.274  14.666  10.495
32727W        W 5152  32.465  39.321  10.643
32728W        W 5153  39.421  14.797   2.834
32729W        W 5154  11.635  34.418   2.903
32730W        W 5155   1.269   8.729   1.733
32731W        W 5156   8.811  26.964   2.822
32732W        W 5157  38.857  29.962  10.484
32733W        W 5158  22.206  35.097   3.162
32734W        W 5159  36.441  16.317   0.407
32735W        W 5160   0.407  36.361   4.692
32736W        W 5161   8.327  38.397  12.409
32737W        W 5162   8.240   3.816   3.332
32738W        W 5163  33.580  26.013  14.474
32739W        W 5164  36.038  18.676  10.913
32740W        W 5165   7.856  33.589   0.327
32741W        W 5166  32.518  42.422  10.913
32742W        W 5167  38.950  32.428  14.457
32743W        W 5168  13.208  38.050   2.350
32744W        W 5169  19.066  42.503  11.435
32745W        W 5170  15.264  38.857  13.011
32746W        W 5171  29.977  38.038   2.332
32747W        W 5172   5.211  37.900   3.205
32748W        W 5173  10.232  41.530  11.070
32749W        W 5174  38.852  12.251   2.202
32750W        W 5175   8.655  13.819  10.413
32751W        W 5176  15.317  19.090   0.857
32752W        W 5177  40.394  31.635  11.589
32753W        W 5178  29.958  13.680   3.215
32754W        W 5179   5.391   4.269   4.229
32755W        W 5180   4.736  38.060  11.401
32756W        W 5181  38.427   4.708   3.288
32757W        W 5182  29.943  21.524   2.740
32758W        W 5183  38.009   3.752  10.946
32759W        W 5184  39.024  41.976   1.785
32760W        W 5185  25.992  20.152   2.409
32761W        W 5186  42.887  44.009   3.731
32762W        W 5187  13.825  16.189  12.410
32763W        W 5188  26.138  21.103   3.792
32764W        W 5189  24.704  19.062  10.925
32765W        W 5190  18.677  38.010  12.840
32766W        W 5191  36.512  16.653   2.311
32767W        W 5192  39.560   3.336   1.772
32768W        W 5193   4.395  11.630  14.304
32769W        W 5194  24.107  31.029   1.331
32770W        W 5195  23.067   4.932  12.417
32771W        W 5196  30.156   3.366   3.761
32772W        W 5197  18.273  10.803   0.730
32773W        W 5198   7.319  29.668   1.788
32774W        W 5199  40.344   1.797  14.874
32775W        W 5200  11.868  27.605   1.245
32776W        W 5201  34.555  14.792  10.957
32777W        W 5202  27.498   3.785   1.212
32778W        W 5203   0.810  34.415   0.406
32779W        W 5204  22.145   4.902  10.605
32780W        W 5205  22.136  11.817  12.516
32781W        W 5206   3.257   8.307  13.344
32782W        W 5207  43.291  40.879  10.623
32783W        W 5208  44.984   1.805   2.735
32784W        W 5209  28.935  12.268   4.135
32785W        W 5210   6.397   5.214   3.858
32786W        W 5211  43.873   3.263   2.887
32787W        W 5212  39.831  27.124   0.329
32788W        W 5213  33.102  16.224  14.836
32789W        W 5214  14.778  32.620   1.393
32790W        W 5215  40.452  16.297  13.350
32791W        W 5216  38.069  39.431   3.778
32792W        W 5217  20.191  43.807   0.379
32793W        W 5218  24.637  27.653  14.302
32794W        W 5219   2.336   3.794  12.857
32795W        W 5220  24.032   9.658  14.512
32796W        W 5221  42.910   6.253  11.376
32797W        W 5222  38.447   4.704   2.662
32798W        W 5223  25.591  14.123   2.743
32799W        W 5224  28.002  20.765  13.885
32800W        W 5225  25.543   0.794   3.275
32801W        W 5226  20.110  21.134  12.078
32802W        W 5227  38.841  42.391  12.954
32803W        W 5228  23.549   5.439  11.900
32804W        W 5229  31.500  38.433   2.826
32805W        W 5230   1.350  24.059   3.262
32806W        W 5231  44.400  44.402  11.393
32807W        W 5232   0.852  26.990  12.469
32808W        W 5233  28.964  12.194  12.012
32809W        W 5234   7.904  14.723  10.515
32810W        W 5235  37.444  36.854  12.377
32811W        W 5236   0.978  25.635  12.990
32812W        W 5237   4.866  12.283   5.156
32813W        W 5238  30.165  33.475  10.407
32814W        W 5239   6.231   2.458   0.360
32815W        W 5240  33.446  40.053   4.662
32816W        W 5241  14.600  39.928  13.410
32817W        W 5242  17.576  15.734  14.764
32818W        W 5243  23.585  13.150   1.261
32819W        W 5244  14.608  26.201   2.236
32820W        W 5245  21.539  42.292  14.893
32821W        W 5246  44.940  31.439   3.385
32822W        W 5247  30.511   6.709  13.965
32823W        W 5248  23.493  16.261   2.870
32824W        W 5249   3.888   2.789  11.607
32825W        W 5250  43.452  19.091  12.024
32826W        W 5251   5.828  16.804  11.006
32827W        W 5252  42.883  23.071  11.002
32828W        W 5253  18.088  29.947   0.959
32829W        W 5254   6.734  19.212  10.912
32830W        W 5255  31.984  39.906  13.449
32831W        W 5256   9.275   6.411   5.108
32832W        W 5257  37.853   5.826  13.382
32833W        W 5258   8.174  44.387  13.368
32834W        W 5259  10.218  21.645   1.711
32835W        W 5260  21.072  26.557  14.938
32836W        W 5261  33.537  26.675   4.748
32837W        W 5262   0.473  41.832   2.349
32838W        W 5263  43.455   2.820  12.967
32839W        W 5264  28.975   5.437  14.324
32840W        W 5265  43.471  22.077   0.266
32841W        W 5266   0.912   4.388   3.757
32842W        W 5267  30.930  21.089  13.017
32843W        W 5268  38.968  40.435   4.213
32844W        W 5269  20.204  12.767   4.172
32845W        W 5270   8.790  27.128   4.786
32846W        W 5271  42.866  27.943   5.099
32847W        W 5272  42.444  12.766   4.748
32848W        W 5273  39.487   0.436   2.872
32849W        W 5274  10.251  23.160  12.553
32850W        W 5275  29.922   8.730   2.272
32851W        W 5276   7.292  38.387   5.222
32852W        W 5277  43.311  30.938   3.335
32853W        W 5278  23.735  13.257  10.489
32854W        W 5279  14.815  21.245  12.925
32855W        W 5280  34.035   5.337   2.359
32856W        W 5281   6.341   4.897   2.837
32857W        W 5282  39.447   4.404   4.172
32858W        W 5283  17.237  37.029  14.764
32859W        W 5284  24.611   9.181  11.949
32860W        W 5285   9.646  36.892   5.277
32861W        W 5286  31.426  13.802  13.864
32862W        W 5287   7.787   4.317  11.609
32863W        W 5288  14.700  14.736  13.533
32864W        W 5289  38.556  31.912  12.867
32865W        W 5290  26.597  25.557   3.684
32866W        W 5291  31.426  34.405   4.292
32867W        W 5292  44.350   5.786  12.396
32868W        W 5293  27.598  32.613   4.127
32869W        W 5294  16.124  34.395   1.430
32870W        W 5295  42.357  14.212   1.383
32871W        W 5296  42.507  40.963  13.401
32872W        W 5297  41.455  14.758   3.148
32873W        W 5298  31.967  36.078   1.215
32874W        W 5299  27.008  19.615  13.517
32875W        W 5300  13.643  40.008  12.969
32876W        W 5301   8.211   8.692   0.331
32877W        W 5302  30.450  32.935   0.942
32878W        W 5303  21.120  41.017   4.660
32879W        W 5304  14.215  32.471   0.817
32880W        W 5305  12.644  43.320  11.379
32881W        W 5306  28.994  29.098  12.344
32882W        W 5307  25.099   8.661  13.322
32883W        W 5308   2.904  17.166  11.982
32884W        W 5309  20.043  18.290  13.905
32885W        W 5310   3.950  38.987  12.455
32886W        W 5311  39.815  30.923   4.174
32887W        W 5312  42.961  18.272   4.174
32888W        W 5313   3.712  24.700  10.634
32889W        W 5314  16.228   7.905  10.521
32890W        W 5315  37.462  20.161  10.924
32891W        W 5316  11.762  18.101  11.592
32892W        W 5317  12.691   9.295  12.482
32893W        W 5318  20.709  31.043   4.335
32894W        W 5319  21.194  24.001   5.241
32895W        W 5320  30.133   7.201  10.496
32896W        W 5321  37.537   3.799  13.514
32897W        W 5322  15.596  42.818   2.698
32898W        W 5323  20.599  40.382  11.609
32899W        W 5324   0.745  15.277   1.808
32900W        W 5325  40.895  11.218  13.354
32901W        W 5326  30.048  19.718  12.414
32902W        W 5327  19.186   6.762  13.847
32903W        W 5328  32.403  41.538  10.605
32904W        W 5329  43.508  39.487  12.506
32905W        W 5330  30.562  20.626  14.823
32906W        W 5331  43.489  19.262   0.911
32907W        W 5332  31.494  24.156   4.353
32908W        W 5333  31.103  33.026  10.423
32909W        W 5334  29.665  17.159  11.917
32910W        W 5335   1.896  20.099   3.719
32911W        W 5336   8.740  18.572  12.341
32912W        W 5337  29.116   9.870   2.714
32913W        W 5338  37.940  20.669  11.003
32914W        W 5339  19.039  40.851  11.080
32915W        W 5340   7.252  25.643  14.371
32916W        W 5341   0.361   2.912  11.559
32917W        W 5342  10.877  10.279   4.821
32918W        W 5343   4.356  33.992  12.521
32919W        W 5344  14.205  37.934  13.417
32920W        W 5345   4.710   7.371   1.234
32921W        W 5346  40.512  14.693  11.437
32922W        W 5347  40.827   6.698  10.607
32923W        W 5348   6.858  44.771  11.585
32924W        W 5349  16.725   2.941  10.573
32925W        W 5350  29.966  21.158  11.987
32926W        W 5351  16.201  14.158   2.692
32927W        W 5352  44.340  27.969   2.380
32928W        W 5353  29.172  37.370  11.501
32929W        W 5354  20.613  33.392   4.328
32930W        W 5355  25.985  42.425   2.389
32931W        W 5356   0.491  15.800   2.178
32932W        W 5357  10.876  28.575  14.768
32933W        W 5358  32.402  28.987   1.807
32934W        W 5359  44.293  36.436   0.418
32935W        W 5360  21.572   6.888   1.809
32936W        W 5361  13.798  32.983   1.886
32937W        W 5362  14.289   2.930  10.633
32938W        W 5363  37.017  24.630  12.469
32939W        W 5364  44.968  37.569   4.725
32940W        W 5365  40.505  41.433   3.779
32941W        W 5366  20.692  10.853  13.956
32942W        W 5367  34.931  13.726  13.449
32943W        W 5368  28.106   3.402   1.810
32944W        W 5369  10.380   5.764   1.349
32945W        W 5370  36.350  40.032   2.680
32946W        W 5371  11.224  10.163   3.657
32947W        W 5372  41.967  25.202   3.174
32948W        W 5373  42.942  18.732   1.330
32949W        W 5374  30.998  24.640  12.083
32950W        W 5375  30.603  22.190   0.774
32951W        W 5376  35.428  10.745   2.671
32952W        W 5377  16.290   0.455  13.818
32953W        W 5378  27.650   0.328  11.546
32954W        W 5379   2.893  31.633  12.975
32955W        W 5380  10.728  37.011   2.318
32956W        W 5381  24.517   6.328   1.853
32957W        W 5382  12.765  17.164  12.956
32958W        W 5383  25.704  12.834  14.410
32959W        W 5384  40.380   5.913   2.813
32960W        W 5385  40.369   5.743  10.604
32961W        W 5386  18.194  24.167  14.833
32962W        W 5387  10.810  21.064  10.547
32963W        W 5388  36.573  30.443  13.471
32964W        W 5389  38.823  19.278   1.427
32965W        W 5390  12.648  32.549   2.739
32966W        W 5391  22.730  26.469  11.386
32967W        W 5392  33.504  39.936   3.630
32968W        W 5393  27.613  24.569  14.435
32969W        W 5394  20.271  24.553   4.249
32970W        W 5395   1.281  18.271  14.002
32971W        W 5396  33.976  29.482  10.474
32972W        W 5397  40.316  19.693  14.392
32973W        W 5398  17.168  33.508  14.001
32974W        W 5399  39.371  43.855   1.780
32975W        W 5400  37.428   4.728   4.680
32976W        W 5401   1.312  32.039   0.810
32977W        W 5402  23.115  30.963  12.846
32978W        W 5403  16.148  22.666  13.547
32979W        W 5404  30.961  25.019   4.297
32980W        W 5405   5.879  10.715  13.876
32981W        W 5406   1.285  36.010  11.535
32982W        W 5407  24.087  17.698  12.536
32983W        W 5408  16.768  17.702   1.874
32984W        W 5409  36.583  36.065  10.468
32985W        W 5410  38.961  15.697  13.374
32986W        W 5411  16.756  16.721  12.945
32987W        W 5412   6.732  15.136   4.753
32988W        W 5413  12.840  12.167  10.982
32989W        W 5414  31.070   8.244   3.834
32990W        W 5415  22.117  43.427   2.746
32991W        W 5416  29.499  16.192  11.103
32992W        W 5417  35.467  24.646   0.428
32993W        W 5418  14.642  44.311   4.662
32994W        W 5419  12.836  23.581  10.637
32995W        W 5420   1.867  14.139   3.686
32996W        W 5421  34.870  20.709  13.982
32997W        W 5422  24.607  43.944  11.411
32998W        W 5423   1.260  36.465   0.265
32999W        W 5424  15.806  27.143   0.470
33000W        W 5425  36.569  31.407   2.848
33001W        W 5426  30.529  28.985  12.956
33002W        W 5427  41.000  41.299   4.688
33003W        W 5428   5.351  33.892  13.974
33004W        W 5429  11.240   4.289  10.411
33005W        W 5430   4.936  13.614   3.861
33006W        W 5431  25.613  16.311   2.760
33007W        W 5432   3.224  38.887   1.910
33008W        W 5433  14.778  14.697   1.731
33009W        W 5434  21.226  38.462  11.856
33010W        W 5435   5.849   2.864   3.334
33011W        W 5436  36.029   5.734   0.812
33012W        W 5437  29.962   5.266  10.643
33013W        W 5438  30.650  37.834   4.235
33014W        W 5439  37.022  39.467  11.041
33015W        W 5440  32.519  19.567  14.295
33016W        W 5441   7.911  35.917   1.768
33017W        W 5442   5.711  21.747   1.868
33018W        W 5443  38.469  21.190   0.376
33019W        W 5444  31.004  33.413   3.870
33020W        W 5445  24.487  18.634   2.745
33021W        W 5446  18.258  22.652  10.613
33022W        W 5447  28.594  40.815   0.260
33023W        W 5448  32.056  35.360   3.762
33024W        W 5449  35.036  17.595   3.292
33025W        W 5450  35.946  20.265  14.762
33026W        W 5451  27.579  33.414   1.900
33027W        W 5452  34.570   1.447  13.024
33028W        W 5453  34.053  38.513  10.409
33029W        W 5454  24.177  28.609   3.732
33030W        W 5455   5.879   0.436   2.853
33031W        W 5456  22.573  31.606  13.822
33032W        W 5457  34.515  42.308  13.308
33033W        W 5458   0.903   1.821   4.833
33034W        W 5459  19.752  21.640   1.714
33035W        W 5460  18.635  36.547  13.493
33036W        W 5461  44.780  32.126   4.309
33037W        W 5462   3.790  43.868   0.257
33038W        W 5463  41.036  17.141   0.772
33039W        W 5464  23.150  42.939  10.466
33040W        W 5465  22.237  21.669  12.001
33041W        W 5466  15.790   1.776   1.234
33042W        W 5467   8.852  28.548   1.764
33043W        W 5468  33.909  23.107   3.747
33044W        W 5469   0.913  30.547  10.556
33045W        W 5470  34.076  11.172  13.451
33046W        W 5471  35.398  13.744   1.291
33047W        W 5472   5.397   5.880  12.977
33048W        W 5473  39.476  38.037   1.809
33049W        W 5474  29.982   3.380  13.901
33050W        W 5475  27.176   5.239   0.416
33051W        W 5476  38.396  13.726  10.976
33052W        W 5477  40.890  41.361   4.241
33053W        W 5478  30.484  44.842  11.100
33054W        W 5479  11.355  19.718   3.756
33055W        W 5480   8.763  18.786  12.040
33056W        W 5481   2.918  13.266  12.465
33057W        W 5482   2.795  31.522  10.485
33058W        W 5483  44.799  27.604  14.918
33059W        W 5484  27.645  44.344   1.346
33060W        W 5485  25.705  22.706   3.152
33061W        W 5486  20.252  31.148  13.896
33062W        W 5487  30.027  18.700   1.882
33063W        W 5488   5.827  33.096   1.721
33064W        W 5489  42.396  17.799  14.847
33065W        W 5490   0.306  21.618   2.805
33066W        W 5491  24.487  42.812   0.349
33067W        W 5492  40.324  35.056  12.537
33068W        W 5493  27.995  41.531   0.857
33069W        W 5494  27.527  25.122  12.084
33070W        W 5495  30.472   2.334  13.357
33071W        W 5496  34.895  39.435  11.535
33072W        W 5497  34.533  40.923   4.616
33073W        W 5498  27.014  37.881  11.047
33074W        W 5499  37.850  34.444  12.831
33075W        W 5500  36.073   7.825   5.258
33076W        W 5501  24.043   0.893  14.361
33077W        W 5502  38.899   1.757  10.437
33078W        W 5503  30.126   4.913  14.430
33079W        W 5504   7.371  23.156   3.864
33080W        W 5505  37.470  43.291  14.852
33081W        W 5506  26.999  21.142   0.322
33082W        W 5507  32.915  41.319  11.424
33083W        W 5508   6.726  15.598   2.339
33084W        W 5509   0.424  17.292  14.457
33085W        W 5510  41.987  22.069   3.323
33086W        W 5511   2.753   8.328  10.443
33087W        W 5512  13.142  11.772   4.684
33088W        W 5513  15.675  17.638  14.388
33089W        W 5514  37.377  24.556   3.803
33090W        W 5515  43.867   3.365   4.326
33091W        W 5516  22.167  35.001   3.761
33092W        W 5517   6.389  42.993  13.970
33093W        W 5518  35.070  31.036  14.856
33094W        W 5519   1.332  44.818  12.933
33095W        W 5520  32.615  23.621  14.940
33096W        W 5521  18.735  26.109  14.766
33097W        W 5522   7.409  20.054  10.419
33098W        W 5523   1.817  44.424   0.315
33099W        W 5524   3.718  38.955  10.492
33100W        W 5525  15.600  20.752   2.853
33101W        W 5526  17.308   2.762  12.428
33102W        W 5527   0.844  16.721  10.440
33103W        W 5528  16.186  20.248   0.267
33104W        W 5529   6.738  28.640   0.381
33105W        W 5530  31.913   9.389   1.812
33106W        W 5531   7.204   3.374   1.403
33107W        W 5532   5.293  43.354  11.386
33108W        W 5533  23.720   3.359   1.701
33109W        W 5534  20.671  26.017  14.946
33110W        W 5535  35.437  42.957   4.827
33111W        W 5536   3.754   7.832  11.426
33112W        W 5537  31.139   1.830   0.272
33113W        W 5538  43.402  13.774   4.250
33114W        W 5539  18.094  41.535  11.900
33115W        W 5540  23.597  19.779  12.954
33116W        W 5541  21.635  36.876   1.848
33117W        W 5542  30.494  42.512  14.775
33118W        W 5543  15.815  35.360   3.289
33119W        W 5544   5.775  29.169  13.367
33120W        W 5545  41.529  23.014  11.032
33121W        W 5546   6.332  32.390  12.345
33122W        W 5547  16.794  35.919  11.475
33123W        W 5548  36.885  22.527   0.433
33124W        W 5549  41.446  40.379  11.009
33125W        W 5550  42.288  29.628  14.457
33126W        W 5551  36.873  18.258  11.999
33127W        W 5552   8.246  32.129   4.254
33128W        W 5553  41.534   3.814  11.581
33129W        W 5554  23.632  13.225  11.099
33130W        W 5555   1.801   4.305   2.279
33131W        W 5556   6.857   5.759   2.291
33132W        W 5557  26.573   2.810   3.184
33133W        W 5558  38.064  15.750  13.869
33134W        W 5559  19.119  19.665   3.661
33135W        W 5560  15.770  16.205  13.819
33136W        W 5561  35.441  23.520  10.430
33137W        W 5562  41.534  12.656  14.488
33138W        W 5563  20.171  25.210   2.710
33139W        W 5564  35.591  14.246  12.936
33140W        W 5565  29.973  10.196   3.227
33141W        W 5566  44.894  28.510   0.875
33142W        W 5567   0.809  37.456   0.951
33143W        W 5568  11.643  32.582   3.794
33144W        W 5569  37.424   3.348   0.282
33145W        W 5570  20.764  43.996   2.347
33146W        W 5571  26.160  21.582   4.603
33147W        W 5572  44.823  13.188  11.927
33148W        W 5573  42.782  41.361   0.284
33149W        W 5574  35.372   8.884  11.404
33150W        W 5575   8.831  17.731   1.724
33151W        W 5576  18.558  15.764   2.374
33152W        W 5577  35.510  37.876  12.389
33153W        W 5578  21.154  38.907  13.045
33154W        W 5579  15.733  12.137  13.419
33155W        W 5580  29.101  32.625  11.492
33156W        W 5581   2.447  24.650   1.414
33157W        W 5582   7.293  36.425   3.323
33158W        W 5583   6.841   7.208  13.849
33159W        W 5584   9.310   1.473   1.387
33160W        W 5585  26.544  33.397   0.396
33161W        W 5586  29.519  32.520  13.850
33162W        W 5587  43.446  25.114  10.099
33163W        W 5588  35.059  36.854  11.910
33164W        W 5589  34.423  29.161   0.860
33165W        W 5590  41.339  42.779   9.499
33166W        W 5591  39.343  12.615   4.164
33167W        W 5592  30.580  24.722   3.690
33168W        W 5593  12.673   3.783   1.785
33169W        W 5594   5.789   9.793  14.963
33170W        W 5595   5.331   9.745  13.388
33171W        W 5596  24.650  29.517   3.277
33172W        W 5597  11.789  39.971  10.625
33173W        W 5598   1.283  31.505  13.884
33174W        W 5599  22.652  34.581  10.946
33175W        W 5600  20.563  22.027  14.836
33176W        W 5601   4.769  14.755  14.364
33177W        W 5602  37.976  27.563   4.685
33178W        W 5603  34.897   3.933  14.371
33179W        W 5604  30.442   2.903   2.258
33180W        W 5605  11.694  21.520   0.444
33181W        W 5606  30.029   6.395   4.825
33182W        W 5607   0.816  20.665   4.281
33183W        W 5608  12.202  17.672   3.363
33184W        W 5609  28.505  34.970  14.009
33185W        W 5610  42.872  19.664  14.467
33186W        W 5611  32.085   9.383  12.073
33187W        W 5612  12.717  19.602  10.521
33188W        W 5613  22.715  25.549   0.917
33189W        W 5614   7.360  16.812   1.831
33190W        W 5615  27.087  11.232   1.893
33191W        W 5616  38.393  26.187  14.373
33192W        W 5617  39.936   5.385   4.215
33193W        W 5618  30.958   0.816   4.794
33194W        W 5619  12.779   1.405   4.700
33195W        W 5620   8.691   2.894   0.757
33196W        W 5621  16.720  11.713  14.426
33197W        W 5622  22.578  40.915   1.400
33198W        W 5623  40.034  16.264   3.744
33199W        W 5624  34.400   1.806  12.420
33200W        W 5625   8.746  42.968   4.729
33201W        W 5626  24.561  18.194   0.246
33202W        W 5627  32.090  29.658   0.411
33203W        W 5628  27.492  12.283  10.452
33204W        W 5629  34.888  37.457  12.930
33205W        W 5630  16.578  14.122  14.502
33206W        W 5631   3.247  29.585   2.229
33207W        W 5632  13.303  40.053   2.759
33208W        W 5633  43.898   5.735  12.912
33209W        W 5634  11.783  42.861   1.358
33210W        W 5635  34.057  11.724   1.920
33211W        W 5636  18.590  26.573  11.983
33212W        W 5637  44.372  17.178  12.348
33213W        W 5638  11.310  15.652   1.899
33214W        W 5639   7.180   4.313   1.356
33215W        W 5640  19.110   3.945   4.218
33216W        W 5641  25.208   1.387  12.396
33217W        W 5642  43.456  14.657   4.138
33218W        W 5643  15.307  41.885  11.075
33219W        W 5644  36.549   4.925  11.597
33220W        W 5645  37.345  24.181   0.341
33221W        W 5646  24.650  26.032   0.266
33222W        W 5647  40.348   8.395   1.761
33223W        W 5648  40.412  25.993  12.067
33224W        W 5649  18.161  31.518   0.466
33225W        W 5650   9.383   7.710   1.415
33226W        W 5651  32.970  43.355   0.785
33227W        W 5652  23.025  25.713   3.338
33228W        W 5653  15.731  21.137   0.464
33229W        W 5654  19.284  21.629   3.762
33230W        W 5655   3.284  39.322  13.394
33231W        W 5656  14.212  25.712  14.940
33232W        W 5657   2.782  15.260   4.164
33233W        W 5658  23.649  19.047  14.913
33234W        W 5659  18.156  37.843   0.819
33235W        W 5660  41.036  32.127   0.442
33236W        W 5661   3.889  43.328   1.910
33237W        W 5662  23.604  23.131   4.655
33238W        W 5663  38.556   2.398  12.451
33239W        W 5664   5.198  35.599   0.786
33240W        W 5665  33.081   2.834   1.251
33241W        W 5666   2.902   8.357   1.934
33242W        W 5667  19.213  39.333  10.559
33243W        W 5668  25.181   0.274   1.834
33244W        W 5669  35.447   9.643   0.938
33245W        W 5670   0.251  32.546  13.979
33246W        W 5671   9.368  24.158  11.897
33247W        W 5672  44.450  10.211   1.713
33248W        W 5673  15.625  19.179  14.031
33249W        W 5674  29.524  14.787  12.566
33250W        W 5675   7.264  41.796  11.928
33251W        W 5676  20.093  41.999  12.455
33252W        W 5677  43.493  10.184   3.688
33253W        W 5678  16.145  19.571  13.925
33254W        W 5679   7.779   6.866  10.429
33255W        W 5680  26.011  40.018   4.690
33256W        W 5681  10.313  33.892   9.993
33257W        W 5682  24.148  26.030  11.951
33258W        W 5683   8.305  39.883  12.529
33259W        W 5684  23.054   8.221   9.589
33260W        W 5685  24.017   8.312   2.248
33261W        W 5686   7.758  30.918  13.312
33262W        W 5687  18.564  40.878  13.814
33263W        W 5688  37.066  28.932  11.484
33264W        W 5689   8.656   5.865   0.346
33265W        W 5690  38.076  39.971  10.563
33266W        W 5691  16.252  32.905   1.694
33267W        W 5692  38.545   4.825  12.938
33268W        W 5693  37.880  32.034   4.156
33269W        W 5694   5.357   2.948  10.998
33270W        W 5695   2.777  29.049   0.810
33271W        W 5696  38.392  25.506  11.925
33272W        W 5697   8.725   1.350  12.072
33273W        W 5698  42.975  34.564   4.829
33274W        W 5699  24.534  12.616   4.817
33275W        W 5700  32.529  24.599   0.472
33276W        W 5701   0.848  22.007   1.868
33277W        W 5702  24.518  17.276   1.394
33278W        W 5703  31.566   3.392   4.147
33279W        W 5704  42.456  41.951  11.011
33280W        W 5705  39.869  20.176   0.415
33281W        W 5706  10.863  27.593  10.510
33282W        W 5707  31.432  38.551   0.928
33283W        W 5708  39.996  11.370   4.768
33284W        W 5709  10.774  13.783  11.864
33285W        W 5710  33.977  44.774   3.842
33286W        W 5711   6.751   2.371  11.406
33287W        W 5712  42.931   8.807   0.861
33288W        W 5713  44.935  20.032  11.921
33289W        W 5714  19.721  33.427  12.568
33290W        W 5715  35.060  38.435  13.952
33291W        W 5716   3.836   9.747  12.355
33292W        W 5717  11.319  19.101  14.994
33293W        W 5718  17.596  20.239   1.238
33294W        W 5719   5.913  16.753  12.841
33295W        W 5720   7.291  23.565  11.053
33296W        W 5721   1.936  31.581   0.726
33297W        W 5722  12.657  24.982   4.235
33298W        W 5723  26.135   4.348  10.437
33299W        W 5724  26.497  21.740  12.580
33300W        W 5725  32.445  28.530   2.842
33301W        W 5726   3.219  44.451   1.262
33302W        W 5727  40.390   2.395   1.403
33303W        W 5728  27.678  39.846  14.981
33304W        W 5729   0.786  24.708  11.583
33305W        W 5730  31.570   2.459   0.478
33306W        W 5731  28.562  22.624  10.969
33307W        W 5732  34.959  41.428  14.304
33308W        W 5733  44.996  29.059  13.943
33309W        W 5734   5.252  37.860  12.448
33310W        W 5735  40.985  26.637   3.240
33311W        W 5736  26.149  20.060   0.277
33312W        W 5737   6.313  30.595  11.096
33313W        W 5738  24.664  39.421   3.219
33314W        W 5739  37.083  17.725   4.300
33315W        W 5740  13.304   3.420   3.823
33316W        W 5741  35.448  34.492  11.928
33317W        W 5742  19.088  29.116   2.261
33318W        W 5743  36.919   1.862   1.313
33319W        W 5744  21.204  27.507   4.342
33320W        W 5745  23.719   4.234   0.337
33321W        W 5746  39.376  33.957  14.437
33322W        W 5747  12.347   7.838  12.917
33323W        W 5748  24.064   5.356  13.824
33324W        W 5749  24.610  11.695  12.981
33325W        W 5750  28.125  37.955  12.483
33326W        W 5751   0.826  10.170   5.104
33327W        W 5752  11.805  23.712  11.978
33328W        W 5753  22.684  38.074   4.117
33329W        W 5754  35.036  22.126  10.581
33330W        W 5755   7.793  35.963   3.654
33331W        W 5756  22.566  14.827   2.690
33332W        W 5757  19.672  31.419  13.492
33333W        W 5758  12.217  25.671   0.304
33334W        W 5759  12.176  43.888  12.012
33335W        W 5760  20.564  25.076  14.797
33336W        W 5761   2.782   9.728  11.074
33337W        W 5762   4.277  39.327   1.449
33338W        W 5763  33.600  19.738   4.164
33339W        W 5764   9.196  15.725   4.797
33340W        W 5765   2.315  14.669   0.764
33341W        W 5766  20.185  14.659  12.577
33342W        W 5767  36.889   2.454   1.758
33343W        W 5768  18.184  18.667  10.583
33344W        W 5769  18.631  10.264  14.798
33345W        W 5770  44.882   4.350  12.028
33346W        W 5771  23.142   1.347  11.079
33347W        W 5772  30.033  12.810  12.430
33348W        W 5773  19.666  40.048   3.736
33349W        W 5774   3.324  36.547  12.923
33350W        W 5775  42.468   5.241   1.925
33351W        W 5776  21.559  25.547  12.967
33352W        W 5777  21.154  21.232   1.353
33353W        W 5778  33.906   7.793   0.841
33354W        W 5779  43.994  17.702  12.846
33355W        W 5780  34.866   4.388  11.410
33356W        W 5781   8.717   0.915   0.751
33357W        W 5782   4.734  10.366   3.656
33358W        W 5783  18.646  36.848  12.846
33359W        W 5784  29.632   1.280   1.833
33360W        W 5785  17.148  37.399  12.442
33361W        W 5786  11.358  36.929   0.848
33362W        W 5787  22.996  27.185   0.900
33363W        W 5788  20.051  28.669   4.188
33364W        W 5789  39.998  10.296  11.882
33365W        W 5790  13.839  22.241  11.378
33366W        W 5791   2.352   8.655  14.016
33367W        W 5792  32.455  27.661   4.313
33368W        W 5793  32.972  40.808   2.342
33369W        W 5794  10.816  42.336   0.378
33370W        W 5795  13.601  19.670  13.971
33371W        W 5796  37.916  43.841  12.505
33372W        W 5797  15.808  41.788   0.337
33373W        W 5798  20.709  25.471  13.835
33374W        W 5799  27.965  43.924  10.618
33375W        W 5800  19.061  16.252   4.155
33376W        W 5801  16.146  37.847  12.565
33377W        W 5802  33.412  32.534   3.731
33378W        W 5803   2.829  42.982  10.486
33379W        W 5804  43.898  33.079  13.364
33380W        W 5805  43.964  17.657   2.817
33381W        W 5806  24.626   9.751  10.909
33382W        W 5807  17.229  10.196  11.389
33383W        W 5808  41.421   9.713  10.537
33384W        W 5809  18.751   7.747  11.408
33385W        W 5810   9.853  32.946  10.441
33386W        W 5811  35.392  33.107  12.083
33387W        W 5812   6.376  42.377   3.192
33388W        W 5813  33.619  24.654  14.467
33389W        W 5814  12.726   3.730   3.254
33390W        W 5815  35.553  26.508  11.523
33391W        W 5816  28.038  33.544  13.506
33392W        W 5817  23.709  18.553   4.806
33393W        W 5818  34.972   9.757  12.403
33394W        W 5819   2.918  16.264  11.505
33395W        W 5820   3.309  43.440  13.844
33396W        W 5821   7.856  40.054  12.356
33397W        W 5822  20.245  42.454   4.620
33398W        W 5823  37.449   5.741  11.993
33399W        W 5824  22.676  17.251  11.965
33400W        W 5825   3.710  35.456   1.919
33401W        W 5826  12.637  40.865   0.924
33402W        W 5827  43.781   7.851   1.743
33403W        W 5828   1.791  23.081  13.983
33404W        W 5829   7.785   9.664   3.269
33405W        W 5830   0.336  26.015  13.811
33406W        W 5831  14.640  21.703   1.451
33407W        W 5832  28.130  24.623  10.937
33408W        W 5833  33.958  15.082   1.710
33409W        W 5834   2.394  28.477  14.417
33410W        W 5835  22.123  41.380  11.897
33411W        W 5836  41.884   2.856   3.334
33412W        W 5837  42.859  11.321   3.636
33413W        W 5838  41.873  43.879   4.237
33414W        W 5839  29.128  23.692  12.522
33415W        W 5840  20.195  39.997  11.416
33416W        W 5841  18.210   0.929   1.299
33417W        W 5842  15.579  33.886   0.375
33418W        W 5843   6.305  29.494   2.790
33419W        W 5844  22.170   0.957   1.847
33420W        W 5845   4.918   8.199  14.993
33421W        W 5846  28.172   8.282  12.897
33422W        W 5847  35.035  41.986  11.119
33423W        W 5848  37.043   4.218   2.373
33424W        W 5849  30.428   7.893  14.828
33425W        W 5850   3.223  11.734   5.082
33426W        W 5851  35.483  36.905  11.440
33427W        W 5852   5.366  25.657   3.788
33428W        W 5853  33.043  29.656   1.407
33429W        W 5854   5.797  28.085  13.528
33430W        W 5855  38.067   9.783   1.704
33431W        W 5856  20.565  42.884  11.607
33432W        W 5857   4.779  17.568   1.926
33433W        W 5858  26.152  31.480   1.800
33434W        W 5859  29.465   8.202  12.934
33435W        W 5860  41.796   6.817   3.822
33436W        W 5861  36.028  26.999  13.943
33437W        W 5862  13.649  14.129  12.463
33438W        W 5863  39.434  21.040   3.720
33439W        W 5864  15.693  30.537   4.687
33440W        W 5865   6.806  24.533   3.371
33441W        W 5866  29.943  32.604  12.848
33442W        W 5867  36.084  22.699  12.859
33443W        W 5868  23.735  39.834  12.961
33444W        W 5869   8.401  13.308   2.786
33445W        W 5870   7.730  13.197  10.924
33446W        W 5871   7.884  36.462  10.963
33447W        W 5872  44.349   2.850   3.178
33448W        W 5873  39.445  41.317  13.396
33449W        W 5874  13.207  38.824  10.078
33450W        W 5875  39.884  22.077   2.824
33451W        W 5876   3.808  25.056   2.864
33452W        W 5877   5.237  15.297  11.939
33453W        W 5878   0.945  29.060  11.576
33454W        W 5879  34.008  39.007   1.750
33455W        W 5880  11.196   4.279   0.933
33456W        W 5881   3.945  20.210  14.001
33457W        W 5882   2.731  24.628  14.992
33458W        W 5883   8.809  19.605   4.728
33459W        W 5884   7.307  39.366   4.119
33460W        W 5885  14.230   2.898  12.347
33461W        W 5886  11.672   1.867  11.922
33462W        W 5887  35.381  41.384   0.948
33463W        W 5888  13.165  42.785  10.958
33464W        W 5889  20.755  22.559   1.719
33465W        W 5890  37.464  14.142   1.445
33466W        W 5891   1.357  36.064   0.338
33467W        W 5892  44.379   1.414  12.555
33468W        W 5893  23.690  27.062  11.995
33469W        W 5894  30.090  11.216  12.066
33470W        W 5895  43.406  11.669  11.007
33471W        W 5896  26.589  32.064   2.286
33472W        W 5897  25.635  26.630   3.295
33473W        W 5898  12.800  18.766  13.382
33474W        W 5899  24.979  41.444   0.749
33475W        W 5900  19.168   3.735  11.421
33476W        W 5901  17.788  27.058   1.744
33477W        W 5902   2.958   3.426  11.913
33478W        W 5903  24.189  18.666   4.317
33479W        W 5904   6.246  30.963   3.309
33480W        W 5905  35.862   7.366   2.378
33481W        W 5906  29.566  39.384  13.896
33482W        W 5907  39.876  32.474  14.960
33483W        W 5908  35.563  38.834  14.433
33484W        W 5909  19.086  43.775   4.140
33485W        W 5910  24.975  32.137   2.664
33486W        W 5911   3.368  28.035  12.908
33487W        W 5912  11.631  21.669   4.654
33488W        W 5913  36.502   5.221   4.344
33489W        W 5914  31.013  30.465  13.027
33490W        W 5915  43.777   4.285  12.911
33491W        W 5916   1.281  14.142   1.747
33492W        W 5917   0.865  29.480   3.198
33493W        W 5918  44.336  38.994   3.838
33494W        W 5919  43.777  23.105  14.814
33495W        W 5920  26.690  38.327  11.459
33496W        W 5921  23.191  40.026   0.937
33497W        W 5922  23.034  20.524   2.325
33498W        W 5923  36.017  14.613  14.895
33499W        W 5924   9.882  33.944   2.402
33500W        W 5925  19.645  37.569  11.987
33501W        W 5926   1.348  29.096   2.807
33502W        W 5927  21.052  28.564  10.572
33503W        W 5928  22.649  25.520  14.977
33504W        W 5929  43.874  13.347   2.303
33505W        W 5930  21.234  23.639   3.654
33506W        W 5931  38.436   2.837  13.483
33507W        W 5932   2.863  40.434  10.904
33508W        W 5933   3.770  13.237   2.846
33509W        W 5934  10.733  36.944   1.892
33510W        W 5935  12.627  16.235   0.359
33511W        W 5936  24.010  11.308   4.818
33512W        W 5937  43.380  20.109   2.269
33513W        W 5938  11.264  32.947   4.152
33514W        W 5939   3.784  41.520  14.766
33515W        W 5940   8.678  33.913  10.585
33516W        W 5941  39.507  26.475  13.435
33517W        W 5942  26.144  26.006   2.275
33518W        W 5943  17.184  21.520   0.442
33519W        W 5944  21.535  38.941   0.390
33520W        W 5945  28.177   4.800  10.117
33521W        W 5946  36.411   8.724   5.287
33522W        W 5947  35.008  20.096  14.816
33523W        W 5948  31.594  44.401   0.757
33524W        W 5949  39.868  30.420  10.498
33525W        W 5950  42.870  11.808  14.892
33526W        W 5951   3.861  23.501   0.825
33527W        W 5952  38.507  40.479  12.527
33528W        W 5953   2.817  25.155  12.869
33529W        W 5954  20.197  33.545   1.444
33530W        W 5955  26.004  17.687   2.777
33531W        W 5956  10.857  30.471   0.262
33532W        W 5957  16.271  41.324  11.865
33533W        W 5958  42.444  33.124  11.581
33534W        W 5959  24.976  32.031  12.934
33535W        W 5960  17.170  37.976  10.640
33536W        W 5961  14.759  20.593  13.979
33537W        W 5962  24.211  16.178  12.445
33538W        W 5963  36.538  30.601   1.832
33539W        W 5964  33.915  14.813   0.858
33540W        W 5965  43.020  23.709   3.161
33541W        W 5966   0.462  30.993  14.960
33542W        W 5967  28.037   1.333  12.011
33543W        W 5968   8.714  30.119   4.742
33544W        W 5969  37.509  10.171   4.759
33545W        W 5970  13.342   2.860  13.993
33546W        W 5971  17.658  32.448   5.756
33547W        W 5972   7.254  18.149  14.941
33548W        W 5973  25.656   8.329  14.950
33549W        W 5974  41.915  43.867  14.806
33550W        W 5975   1.356  35.510  12.006
33551W        W 5976  18.063  29.435  13.935
33552W        W 5977  31.096  40.385  13.803
33553W        W 5978  43.781  23.218  13.452
33554W        W 5979  29.626  40.433   1.913
33555W        W 5980  33.599  28.137   3.679
33556W        W 5981  44.934  39.928   2.413
33557W        W 5982  29.032  22.125  14.399
33558W        W 5983  15.597  19.534   3.348
33559W        W 5984  18.561  37.515   1.333
33560W        W 5985  31.523  29.123   1.366
33561W        W 5986  34.033  36.489   3.639
33562W        W 5987  25.155   4.338   3.360
33563W        W 5988  23.197  39.447  13.483
33564W        W 5989  30.564  30.992   4.780
33565W        W 5990  24.556  44.861   1.399
33566W        W 5991  36.987  26.502   3.187
33567W        W 5992  10.798  34.519   2.417
33568W        W 5993  37.964  41.406  14.930
33569W        W 5994   4.342  37.836  12.387
33570W        W 5995  34.004  14.164  13.471
33571W        W 5996  31.988   0.294  12.443
33572W        W 5997  36.039  18.772   0.349
33573W        W 5998  44.452  15.304   0.422
33574W        W 5999  32.066  30.530  12.540
33575W        W 6000  15.316  13.264   3.167
33576W        W 6001   7.406  23.504   3.845
33577W        W 6002   4.254  44.010  10.501
33578W        W 6003   9.765   2.442   4.307
33579W        W 6004   5.202  40.956  14.473
33580W        W 6005  15.248  18.597  13.507
33581W        W 6006   6.286   3.824  10.405
33582W        W 6007  13.797   9.262   1.749
33583W        W 6008  25.585  20.707   2.815
33584W        W 6009  42.305   5.219  11.514
33585W        W 6010  17.688   3.296  13.820
33586W        W 6011   8.376   2.881   3.761
33587W        W 6012  17.091   4.368  12.860
33588W        W 6013  37.837  23.735  11.488
33589W        W 6014  16.577  36.400  11.377
33590W        W 6015   5.859  24.654   0.915
33591W        W 6016  18.548   5.719   3.254
33592W        W 6017  19.760  23.014  12.922
33593W        W 6018  36.915  30.148   4.326
33594W        W 6019  12.230   3.856  11.016
33595W        W 6020  12.851  13.286  11.121
33596W        W 6021  39.353  31.990   1.758
33597W        W 6022  27.975  23.734   4.632
33598W        W 6023  43.967  18.076  13.438
33599W        W 6024  13.751  41.420  11.905
33600W        W 6025  43.466  42.984  14.490
33601W        W 6026  25.473  18.102  12.347
33602W        W 6027   7.798   7.224   1.350
33603W        W 6028  30.529  23.114  11.106
33604W        W 6029  19.561  15.186   1.722
33605W        W 6030   6.902  28.978  10.935
33606W        W 6031   5.723  18.650  10.456
33607W        W 6032  21.090  13.834  11.598
33608W        W 6033  24.084  28.443   2.223
33609W        W 6034  23.055   5.870   4.236
33610W        W 6035  23.672  24.015  12.096
33611W        W 6036  35.563   7.798   4.152
33612W        W 6037  35.062  22.080   0.470
33613W        W 6038  26.561   3.450  11.495
33614W        W 6039  33.381  12.299   4.639
33615W        W 6040  41.510  27.056  11.901
33616W        W 6041   8.729   2.722  14.806
33617W        W 6042  26.123   0.412   0.469
33618W        W 6043   4.932  39.857  12.007
33619W        W 6044  26.054  41.830   4.321
33620W        W 6045   7.339   3.455   2.824
33621W        W 6046   2.766   7.319   4.219
33622W        W 6047   7.286  22.170   2.325
33623W        W 6048   0.870  12.710  13.494
33624W        W 6049  25.569  33.908  11.607
33625W        W 6050  18.728  36.579  10.927
33626W        W 6051  36.429  11.159   1.724
33627W        W 6052  11.815   7.408   0.881
33628W        W 6053  14.609  33.414   4.139
33629W        W 6054  42.830  13.218  13.464
33630W        W 6055  37.538  33.095   4.783
33631W        W 6056  35.495  19.166  14.409
33632W        W 6057  12.658  15.195   1.350
33633W        W 6058   5.385  20.168   0.750
33634W        W 6059  11.631  25.612  10.001
33635W        W 6060  42.405  38.327   1.708
33636W        W 6061  14.310  30.472  14.457
33637W        W 6062   4.403  37.974  14.949
33638W        W 6063   4.791  17.151   0.377
33639W        W 6064  26.622  19.596   4.318
33640W        W 6065  37.059  30.004  13.324
33641W        W 6066  32.465   3.281  10.910
33642W        W 6067  33.990  44.332   1.733
33643W        W 6068   9.673  39.370  14.938
33644W        W 6069  24.588  30.641   2.195
33645W        W 6070  29.114  11.845  14.016
33646W        W 6071  37.926  10.155  14.439
33647W        W 6072   8.337  17.669   1.898
33648W        W 6073  43.931  26.626  12.061
33649W        W 6074  33.625  23.984   2.663
33650W        W 6075   6.399  24.209   0.404
33651W        W 6076  42.456  19.231   1.218
33652W        W 6077  34.560  40.355  10.526
33653W        W 6078  37.969  23.018   0.829
33654W        W 6079  41.919  12.125  14.013
33655W        W 6080   9.767  37.434  10.546
33656W        W 6081   0.474   9.651   3.685
33657W        W 6082  14.647  25.182   1.813
33658W        W 6083  26.550  11.175  10.602
33659W        W 6084  42.859  30.617  14.987
33660W        W 6085  18.746   0.760   1.253
33661W        W 6086  36.532   1.962   4.729
33662W        W 6087  32.596  26.498   1.353
33663W        W 6088   5.323   2.401  10.551
33664W        W 6089  25.107   4.433  12.939
33665W        W 6090  40.800   6.834   1.870
33666W        W 6091  33.887  25.183  14.909
33667W        W 6092  10.174  38.356  12.893
33668W        W 6093  13.228  42.965   0.777
33669W        W 6094   6.259   1.280  11.396
33670W        W 6095  26.005  11.327  13.487
33671W        W 6096  30.068  15.650   1.748
33672W        W 6097  11.337  40.981  11.406
33673W        W 6098  32.486  11.628  12.534
33674W        W 6099   9.166  17.668   2.390
33675W        W 6100  17.681   5.778   4.261
33676W        W 6101   9.649  32.975  14.987
33677W        W 6102  32.557  29.173   2.282
33678W        W 6103  20.266   0.793  12.402
33679W        W 6104  28.485  31.911  12.348
33680W        W 6105   3.232  11.305  13.497
33681W        W 6106  18.150   7.332   3.659
33682W        W 6107  28.029  18.555  10.981
33683W        W 6108  24.054  44.497  13.962
33684W        W 6109  18.697  14.305  13.860
33685W        W 6110   4.372   0.484   1.212
33686W        W 6111  40.303   7.690  14.902
33687W        W 6112  19.639  38.932  14.514
33688W        W 6113   5.340  26.515   4.754
33689W        W 6114  18.666   7.200   3.356
33690W        W 6115  16.220  26.120   2.747
33691W        W 6116  42.889  44.429  12.572
33692W        W 6117  33.384  32.598  14.283
33693W        W 6118  36.851  13.287   1.211
33694W        W 6119  35.490  36.928   1.404
33695W        W 6120  37.525   4.803   3.809
33696W        W 6121  43.886   3.249   4.684
33697W        W 6122   1.884  34.372   3.170
33698W        W 6123  20.041  26.191  13.863
33699W        W 6124  16.745  22.196  11.465
33700W        W 6125   1.954  32.567   1.855
33701W        W 6126  34.108  25.602  11.876
33702W        W 6127  17.245  34.978  12.008
33703W        W 6128  43.891  11.248   4.348
33704W        W 6129   2.934  44.977  13.990
33705W        W 6130  34.068  39.527   2.258
33706W        W 6131   8.768  15.615  12.443
33707W        W 6132  26.651  28.559   3.377
33708W        W 6133  11.752   7.251  14.010
33709W        W 6134  40.943   5.746   4.655
33710W        W 6135   3.903  37.005  14.834
33711W        W 6136   0.394   1.331   2.246
33712W        W 6137  31.956  21.117  10.497
33713W        W 6138  40.544  15.648  10.892
33714W        W 6139  12.294  43.274  11.460
33715W        W 6140  24.085  21.141  10.576
33716W        W 6141  25.560   3.710  13.825
33717W        W 6142   9.763  44.282   3.313
33718W        W 6143  35.427  26.647  11.857
33719W        W 6144  41.526   9.878   1.351
33720W        W 6145  35.019  12.338   3.340
33721W        W 6146  34.369   3.346  10.968
33722W        W 6147   8.307  23.608   3.740
33723W        W 6148  43.301  18.587   4.270
33724W        W 6149   2.370  15.178   0.338
33725W        W 6150  25.148  14.595  10.942
33726W        W 6151  28.976   5.240   0.391
33727W        W 6152  38.477  15.150   0.480
33728W        W 6153   5.912  19.681  13.319
33729W        W 6154  23.724  31.112   1.232
33730W        W 6155  38.489  18.179   2.213
33731W        W 6156   3.276  15.780   0.928
33732W        W 6157  35.983  31.029   2.283
33733W        W 6158  39.049  24.024  14.917
33734W        W 6159  39.823  13.770   4.287
33735W        W 6160   2.308  30.461   9.976
33736W        W 6161  24.670  40.355   4.354
33737W        W 6162  19.093   8.714   1.226
33738W        W 6163  34.917  18.692   0.958
33739W        W 6164  25.073   6.371  10.436
33740W        W 6165  32.396  41.405   0.914
33741W        W 6166  30.639  25.200   0.854
33742W        W 6167  21.095  32.391  14.496
33743W        W 6168  32.140  44.427   1.785
33744W        W 6169  43.952   1.962  13.460
33745W        W 6170  17.743   9.152   2.687
33746W        W 6171  10.699   4.715  13.395
33747W        W 6172  36.044   8.884  13.876
33748W        W 6173  13.236  37.944  13.424
33749W        W 6174  23.129   1.306   1.814
33750W        W 6175  34.562  43.276   1.426
33751W        W 6176  17.164   6.268  11.395
33752W        W 6177  28.014  11.337   0.437
33753W        W 6178   3.852  29.489  14.897
33754W        W 6179  37.381  31.416   0.428
33755W        W 6180  24.655  10.353  14.459
33756W        W 6181  34.988  15.725   0.472
33757W        W 6182  37.401  40.541   0.942
33758W        W 6183  16.215  37.567   2.211
33759W        W 6184  23.191  38.958   2.226
33760W        W 6185  18.692   3.251  14.786
33761W        W 6186  19.200  32.473   4.169
33762W        W 6187  11.626  27.582  11.406
33763W        W 6188  43.332  40.896  11.500
33764W        W 6189  13.633  36.585   2.410
33765W        W 6190   7.843   0.321   1.444
33766W        W 6191  40.420  35.908  10.896
33767W        W 6192  21.666  26.089  13.388
33768W        W 6193  34.871  39.350   2.217
33769W        W 6194  44.260  31.416   4.826
33770W        W 6195  40.398   3.884  10.435
33771W        W 6196  26.632  20.548   0.398
33772W        W 6197  42.894  12.164   3.760
33773W        W 6198  42.362  17.718   2.364
33774W        W 6199  16.746  33.961  11.567
33775W        W 6200  12.148  17.579  10.559
33776W        W 6201  16.724  10.333  10.582
33777W        W 6202  41.364  30.626   2.848
33778W        W 6203   4.388   9.730  10.899
33779W        W 6204  10.822  24.707  12.555
33780W        W 6205  37.550  10.225  10.552
33781W        W 6206  26.972  19.188   4.354
33782W        W 6207   1.783  24.674  14.335
33783W        W 6208  38.557   9.186  13.471
33784W        W 6209   9.876  27.184   1.367
33785W        W 6210  39.049   8.212  12.372
33786W        W 6211  40.016  38.832   4.735
33787W        W 6212  43.919  37.010   1.766
33788W        W 6213  28.677  24.192  14.483
33789W        W 6214  30.937  21.697   3.787
33790W        W 6215  40.866  30.982   3.278
33791W        W 6216  13.171  34.574  12.950
33792W        W 6217  16.083   4.378   3.218
33793W        W 6218  34.510  24.541   2.874
33794W        W 6219  32.549  22.033   1.336
33795W        W 6220  44.887   5.437   2.863
33796W        W 6221  13.196   1.787   3.346
33797W        W 6222  36.485  36.048   3.218
33798W        W 6223  14.699  35.854   4.785
33799W        W 6224  29.090  18.184   1.756
33800W        W 6225   9.845  12.800   2.710
33801W        W 6226   8.680   1.298   2.205
33802W        W 6227  14.336  13.756   2.722
33803W        W 6228  39.455  21.563   3.166
33804W        W 6229  39.353  42.422   4.190
33805W        W 6230  37.079  40.433  11.493
33806W        W 6231  27.105  11.158  10.495
33807W        W 6232   9.759   5.332  10.964
33808W        W 6233  25.479  44.361  10.137
33809W        W 6234  28.971   6.832   1.702
33810W        W 6235   3.796  39.519  10.938
33811W        W 6236   9.368  25.641  13.934
33812W        W 6237  32.003  10.252   0.296
33813W        W 6238  19.236  27.025   4.616
33814W        W 6239  18.112  27.635  13.936
33815W        W 6240  26.682  42.942   0.886
33816W        W 6241  15.111   7.801   1.243
33817W        W 6242  22.519  35.363   0.869
33818W        W 6243  29.585   5.398  11.855
33819W        W 6244   2.796  32.439  13.516
33820W        W 6245  10.742  29.064  10.573
33821W        W 6246  32.603   5.843  10.894
33822W        W 6247  43.854  22.238   3.845
33823W        W 6248  32.049  42.348  14.776
33824W        W 6249   7.343  41.928  10.467
33825W        W 6250  36.066  28.961   1.292
33826W        W 6251   2.931   8.844  11.040
33827W        W 6252  38.344  43.468   0.294
33828W        W 6253   2.421  16.242  12.945
33829W        W 6254  10.635   0.434   1.794
33830W        W 6255   4.719  34.432   2.194
33831W        W 6256   5.232   2.902   3.702
33832W        W 6257  28.434  20.605  13.306
33833W        W 6258  11.149  21.532   2.721
33834W        W 6259   2.282  36.444   0.332
33835W        W 6260  43.281  27.551  13.360
33836W        W 6261  10.649   7.190   3.340
33837W        W 6262   3.382  20.767   4.314
33838W        W 6263  42.917   1.880   4.820
33839W        W 6264  10.792  21.527  12.048
33840W        W 6265  19.195  22.717   0.348
33841W        W 6266  22.624  11.339   4.704
33842W        W 6267  27.191   7.181  12.420
33843W        W 6268  23.667  30.649   0.937
33844W        W 6269  30.135  23.581  12.862
33845W        W 6270  28.149  22.216  10.106
33846W        W 6271   0.747  26.669   2.290
33847W        W 6272  37.929  24.541  13.997
33848W        W 6273  17.217   2.947  13.453
33849W        W 6274  16.730  35.506   2.200
33850W        W 6275  19.597  36.992  14.903
33851W        W 6276  12.186  12.281   0.759
33852W        W 6277  35.518  10.174  11.611
33853W        W 6278  28.167  44.774   2.742
33854W        W 6279  29.526   6.216  10.440
33855W        W 6280  33.912  36.984  12.491
33856W        W 6281  17.089   1.379   2.831
33857W        W 6282  44.419   1.966  14.855
33858W        W 6283  23.217  39.529   1.817
33859W        W 6284  21.166   4.776   0.429
33860W        W 6285  40.888  27.941  11.870
33861W        W 6286  10.159  32.136   0.363
33862W        W 6287   0.891  34.042   3.667
33863W        W 6288  25.693  20.571   0.836
33864W        W 6289   4.228  17.740   0.347
33865W        W 6290  40.506  35.927   3.705
33866W        W 6291  13.275  40.875   2.678
33867W        W 6292  15.238  19.224   0.323
33868W        W 6293   0.465  25.516   4.194
33869W        W 6294   9.798  44.503  10.428
33870W        W 6295  19.711  18.123  14.877
33871W        W 6296  33.550  40.969   1.408
33872W        W 6297  31.444  40.411   0.409
33873W        W 6298  26.521  25.660  13.528
33874W        W 6299  33.497   1.427   2.672
33875W        W 6300   0.940  24.617   1.703
33876W        W 6301  40.856   0.486   0.457
33877W        W 6302  11.795  27.160  12.859
33878W        W 6303   8.763   2.861   1.790
33879W        W 6304  17.733  29.175   0.883
33880W        W 6305  41.403  42.943   1.449
33881W        W 6306  13.245  30.593   2.295
33882W        W 6307  31.617  30.136  11.457
33883W        W 6308   3.295   4.236   2.783
33884W        W 6309  42.983  28.083  10.987
33885W        W 6310  13.702  33.420   3.669
33886W        W 6311   7.850  15.603   4.776
33887W        W 6312  26.522  43.771   0.769
33888W        W 6313   5.270   0.439  12.393
33889W        W 6314   1.931  32.988  14.294
33890W        W 6315  15.806  16.222  11.508
33891W        W 6316   5.242  34.110   2.715
33892W        W 6317  35.930  17.099  11.105
33893W        W 6318  14.156   4.213  14.015
33894W        W 6319  14.302  33.009   4.296
33895W        W 6320   3.929  19.161  12.439
33896W        W 6321  17.685  39.460  14.298
33897W        W 6322  42.504  18.078   2.245
33898W        W 6323  29.150  36.447  12.401
33899W        W 6324   8.854  38.434  14.320
33900W        W 6325  42.789  41.428   3.791
33901W        W 6326  28.652   5.789   0.397
33902W        W 6327  20.688  37.925   2.846
33903W        W 6328  22.099  36.433  13.396
33904W        W 6329  38.929  43.824  13.489
33905W        W 6330   5.805  29.445   1.854
33906W        W 6331  29.527  15.106  14.353
33907W        W 6332  31.060  15.324  13.814
33908W        W 6333   1.350  19.137  12.978
33909W        W 6334  10.375   7.751   0.861
33910W        W 6335  31.126  39.439   1.925
33911W        W 6336  13.135  31.406   3.301
33912W        W 6337  43.516  44.445  13.938
33913W        W 6338  42.809  19.655  12.416
33914W        W 6339  21.034  28.182   0.340
33915W        W 6340  14.300   1.368   2.284
33916W        W 6341  20.765  12.674   4.598
33917W        W 6342  34.596  43.813  10.534
33918W        W 6343  16.195  34.976  10.569
33919W        W 6344  44.298   5.791   2.319
33920W        W 6345  30.608  41.516   4.267
33921W        W 6346  38.325  32.030   1.707
33922W        W 6347   7.412  22.092   4.213
33923W        W 6348   3.751   8.844   0.260
33924W        W 6349  25.079  43.937   2.807
33925W        W 6350   1.417  24.481   1.770
33926W        W 6351  26.646  29.521  10.466
33927W        W 6352  10.267  24.023   2.697
33928W        W 6353  15.790  32.030   3.191
33929W        W 6354   5.813   3.868  12.981
33930W        W 6355  34.931  24.014  14.852
33931W        W 6356  24.554  39.961  13.890
33932W        W 6357  18.110  22.573   0.388
33933W        W 6358  43.992  30.530   1.694
33934W        W 6359   3.805  12.744   4.623
33935W        W 6360  42.411   8.877   4.346
33936W        W 6361  38.850  14.781  12.544
33937W        W 6362   7.249  42.811  10.971
33938W        W 6363  39.979  31.582  14.458
33939W        W 6364   3.220  19.239  14.917
33940W        W 6365  37.911  28.183  13.898
33941W        W 6366  34.533  19.680   4.699
33942W        W 6367   2.841  14.204   4.730
33943W        W 6368  38.953  40.024   3.718
33944W        W 6369  23.213   9.844   2.299
33945W        W 6370  15.178  26.559  12.909
33946W        W 6371   8.177  20.751  12.549
33947W        W 6372  20.730  16.298  14.814
33948W        W 6373  39.506  43.808   3.828
33949W        W 6374  19.276  31.959   5.154
33950W        W 6375  43.326  42.885  13.966
33951W        W 6376  17.129   1.943   9.623
33952W        W 6377  14.215   4.249  12.557
33953W        W 6378  12.611  13.776   0.894
33954W        W 6379  39.003  30.501   5.303
33955W        W 6380  13.181   3.455   0.291
33956W        W 6381  43.392   9.179  13.869
33957W        W 6382  39.883  22.079  11.395
33958W        W 6383  15.298  27.197   3.795
33959W        W 6384  40.951  11.636   3.384
33960W        W 6385  22.736  33.937   0.768
33961W        W 6386   0.339  40.538   3.739
33962W        W 6387   8.886  11.703  14.431
33963W        W 6388  22.241  32.980  11.000
33964W        W 6389  37.877  21.158   3.676
33965W        W 6390  41.980  19.263   0.834
33966W        W 6391  30.099  14.233   1.278
33967W        W 6392  26.985  23.003   0.286
33968W        W 6393  36.423  23.702   0.896
33969W        W 6394  34.489  32.059   0.825
33970W        W 6395   4.810  19.255   0.835
33971W        W 6396  32.027  36.010   0.961
33972W        W 6397  11.704  20.187  10.403
33973W        W 6398   1.410  37.078  12.054
33974W        W 6399   9.754  16.218   4.315
33975W        W 6400   0.444  44.868   4.603
33976W        W 6401  36.076  28.143  10.933
33977W        W 6402  21.612   5.719   2.196
33978W        W 6403  38.029  33.094   0.760
33979W        W 6404   3.400   6.291   3.825
33980W        W 6405   7.260  13.108  10.526
33981W        W 6406  33.437  19.732   2.877
33982W        W 6407   3.250  27.105   0.799
33983W        W 6408  34.883  41.877   2.193
33984W        W 6409   6.224   8.192   2.875
33985W        W 6410  28.152   0.767   1.759
33986W        W 6411  26.650   6.804  13.431
33987W        W 6412  16.666  33.996   1.909
33988W        W 6413  35.855  16.254   2.803
33989W        W 6414  12.614  37.863   2.785
33990W        W 6415  39.321  25.642  14.295
33991W        W 6416  38.824  41.036   5.291
33992W        W 6417  15.318  13.671  13.962
33993W        W 6418  44.482   3.851   2.263
33994W        W 6419  25.176  31.075  10.430
33995W        W 6420  16.659   5.849  13.910
33996W        W 6421  29.586  30.422   2.301
33997W        W 6422  18.079   5.860   4.301
33998W        W 6423  19.265   6.303  11.420
33999W        W 6424   6.723  37.848   3.658
34000W        W 6425  10.717  44.934   3.835
34001W        W 6426  13.723   0.826   4.259
34002W        W 6427  35.444  41.965   4.187
34003W        W 6428  21.716  32.449  13.315
34004W        W 6429  42.977  15.152   2.261
34005W        W 6430   5.808  11.635   4.134
34006W        W 6431  36.935  26.973   1.870
34007W        W 6432  17.710  20.254  10.610
34008W        W 6433   9.382  20.560  12.433
34009W        W 6434   3.285   0.773   4.605
34010W        W 6435   0.375  32.600   3.634
34011W        W 6436  16.786  32.961  14.819
34012W        W 6437   3.827  37.880   4.193
34013W        W 6438  33.509   0.285  12.466
34014W        W 6439  43.806  11.132  14.478
34015W        W 6440  26.958  15.104   4.153
34016W        W 6441  41.514   8.313   3.380
34017W        W 6442  37.037  14.609   3.358
34018W        W 6443  33.583   9.738  13.797
34019W        W 6444  20.674  32.519  12.941
34020W        W 6445   8.368  29.614   1.394
34021W        W 6446   1.263   1.365   3.684
34022W        W 6447  10.340   5.355  11.946
34023W        W 6448  24.685   6.272  12.069
34024W        W 6449  24.223  43.273  13.463
34025W        W 6450  27.105  36.451   2.251
34026W        W 6451  24.618  35.515   3.870
34027W        W 6452   3.451  30.641   3.747
34028W        W 6453  35.581  14.749  13.039
34029W        W 6454  21.229  34.396   5.231
34030W        W 6455  39.013  26.077   0.381
34031W        W 6456  15.206  32.995  11.923
34032W        W 6457  29.033  29.987  14.502
34033W        W 6458  17.702   4.310  11.592
34034W        W 6459  30.007  41.502  11.942
34035W        W 6460   8.814  31.146   5.125
34036W        W 6461  24.216  28.160  10.564
34037W        W 6462  39.031  26.184  11.953
34038W        W 6463  22.614   9.811   3.345
34039W        W 6464  22.173  23.656  10.628
34040W        W 6465   9.287  19.119  11.017
34041W        W 6466  41.957  36.488   1.390
34042W        W 6467   3.761  42.006  14.338
34043W        W 6468  34.387   3.842   4.692
34044W        W 6469  27.686  26.018  14.462
34045W        W 6470   6.687  42.419   2.400
34046W        W 6471   4.881   2.885  11.436
34047W        W 6472  13.259  26.036   0.333
34048W        W 6473  22.201  36.548   4.801
34049W        W 6474  19.079  42.033  14.880
34050W        W 6475  30.089  31.615   1.702
34051W        W 6476  44.484  42.825  11.398
34052W        W 6477  41.922  28.603  12.512
34053W        W 6478  41.043  39.007  12.965
34054W        W 6479  18.221  32.480   0.424
34055W        W 6480  33.485   3.250   5.116
34056W        W 6481  34.931  18.599   0.459
34057W        W 6482  28.121  40.309   5.288
34058W        W 6483   0.971   3.241   2.816
34059W        W 6484  22.609  17.137  11.489
34060W        W 6485  41.319  40.849   0.962
34061W        W 6486  30.560  16.793  12.941
34062W        W 6487  16.155  30.565   0.765
34063W        W 6488  32.519  30.543   4.135
34064W        W 6489  14.644  40.406   4.758
34065W        W 6490   7.230  24.100  10.508
34066W        W 6491  37.521   6.770   2.289
34067W        W 6492   9.390  17.174   3.149
34068W        W 6493   0.942   4.714  12.929
34069W        W 6494   6.346  16.795  14.024
34070W        W 6495  28.071  40.318  12.031
34071W        W 6496  15.184  40.407  14.330
34072W        W 6497  18.545  33.033   3.255
34073W        W 6498   7.262  44.846   4.747
34074W        W 6499   8.857   2.468  14.842
34075W        W 6500  12.843   6.731  11.577
34076W        W 6501  34.551  33.432   3.350
34077W        W 6502   6.832  36.894   1.845
34078W        W 6503  42.777  17.764  12.440
34079W        W 6504  26.953  30.015  13.915
34080W        W 6505   4.327  34.035  12.837
34081W        W 6506  37.561  26.193  13.500
34082W        W 6507  42.354  19.622   5.211
34083W        W 6508   1.892  24.152   0.295
34084W        W 6509  17.099  15.169  13.495
34085W        W 6510  33.482  43.509  10.507
34086W        W 6511  29.099  28.652  11.387
34087W        W 6512  16.159   1.269  13.451
34088W        W 6513   7.263  30.004  11.436
34089W        W 6514  27.061   5.695  12.046
34090W        W 6515   8.365  21.035   4.344
34091W        W 6516  42.405   5.798   4.774
34092W        W 6517   0.272  24.105   2.406
34093W        W 6518  36.368  25.635   5.133
34094W        W 6519   9.703  20.721   0.434
34095W        W 6520  41.376   3.276  10.626
34096W        W 6521  12.619   8.379  11.881
34097W        W 6522   9.783  41.402  14.842
34098W        W 6523  21.129  44.833  11.373
34099W        W 6524  12.357  12.724   1.697
34100W        W 6525  17.203  24.047   2.877
34101W        W 6526  38.997  32.606  10.525
34102W        W 6527  34.024  33.386  14.031
34103W        W 6528   5.706   0.326   0.468
34104W        W 6529  30.123   2.273   4.289
34105W        W 6530  34.028  39.554   1.920
34106W        W 6531  26.104  19.179   4.230
34107W        W 6532  37.031  42.286   1.904
34108W        W 6533  13.806  29.561  14.951
34109W        W 6534  28.146  26.477  13.529
34110W        W 6535  43.357   1.881   4.609
34111W        W 6536   3.414   7.875   5.082
34112W        W 6537   2.409   7.415  13.343
34113W        W 6538   0.959   4.404   4.781
34114W        W 6539  23.687  34.913   3.268
34115W        W 6540  20.193   2.725  13.321
34116W        W 6541  25.558   2.334   1.421
34117W        W 6542  39.896  44.373   4.304
34118W        W 6543  19.602   0.385  10.954
34119W        W 6544  18.170  35.086   1.273
34120W        W 6545  43.456  41.494   2.342
34121W        W 6546  16.646  13.244  10.928
34122W        W 6547  25.988  22.655  14.386
34123W        W 6548  26.056  29.627   3.868
34124W        W 6549  40.816  10.138   0.439
34125W        W 6550  28.532  18.267   4.192
34126W        W 6551  27.048  19.118  11.406
34127W        W 6552  27.971  43.842  12.533
34128W        W 6553  29.105   3.451  12.018
34129W        W 6554  18.070  42.908  14.409
34130W        W 6555  10.837   6.256   0.381
34131W        W 6556   8.891  31.015  14.847
34132W        W 6557  18.114   6.757   3.815
34133W        W 6558   9.184  13.242  14.298
34134W        W 6559   6.220  40.546  13.314
34135W        W 6560  21.090   7.911  11.406
34136W        W 6561  26.091  24.488   2.728
34137W        W 6562   2.965  28.946  12.901
34138W        W 6563  14.104  38.373   3.201
34139W        W 6564  38.392   3.327   0.252
34140W        W 6565   4.773  11.227   1.730
34141W        W 6566  10.671  34.524   2.662
34142W        W 6567  32.552   6.217  14.814
34143W        W 6568  13.261  13.308  12.864
34144W        W 6569  13.659   3.772   4.214
34145W        W 6570  19.679  38.476  13.542
34146W        W 6571  20.547   9.315   2.813
34147W        W 6572  44.977  42.989   3.251
34148W        W 6573   1.424  33.550   4.620
34149W        W 6574  24.609   6.210  11.388
34150W        W 6575  17.071  28.559   1.787
34151W        W 6576   1.458  40.312  14.981
34152W        W 6577  37.005  32.445  12.050
34153W        W 6578  27.955  38.379   3.168
34154W        W 6579  10.197  34.555   4.325
34155W        W 6580  17.253  41.349   2.183
34156W        W 6581  42.314  14.235   2.314
34157W        W 6582  33.419  10.166  10.149
34158W        W 6583  38.075  40.407  11.586
34159W        W 6584  30.561  28.513   1.371
34160W        W 6585  29.646   4.939   2.386
34161W        W 6586  41.341  42.020  10.930
34162W        W 6587  23.026  29.118  11.478
34163W        W 6588  26.584  37.498  11.529
34164W        W 6589  20.704  36.864   1.385
34165W        W 6590  13.342   4.828   0.403
34166W        W 6591  22.747   5.246   3.337
34167W        W 6592   5.332  29.565   0.829
34168W        W 6593  13.108  30.923  12.832
34169W        W 6594   9.754  36.991  12.015
34170W        W 6595  21.156  41.315   2.734
34171W        W 6596   5.744  42.504  13.954
34172W        W 6597  22.150  39.556   1.853
34173W        W 6598   5.372  44.847   2.224
34174W        W 6599  43.330  29.159   3.348
34175W        W 6600  26.149   1.400  12.355
34176W        W 6601   1.362   7.294  11.418
34177W        W 6602  40.945  16.164  14.350
34178W        W 6603   4.352  14.632   2.840
34179W        W 6604  23.708   4.392   2.799
34180W        W 6605   9.668  19.691  13.321
34181W        W 6606  22.566  34.370   1.415
34182W        W 6607   6.279   9.160  10.503
34183W        W 6608   0.900  28.472   1.340
34184W        W 6609  33.424  30.652  13.865
34185W        W 6610  30.975  26.523  10.111
34186W        W 6611   2.745   9.673   1.218
34187W        W 6612  36.361   9.269  12.061
34188W        W 6613   5.292  29.478   1.295
34189W        W 6614  22.137  28.576   3.372
34190W        W 6615   1.884  15.285  11.423
34191W        W 6616  37.000  19.710   5.201
34192W        W 6617  31.407  31.151   1.221
34193W        W 6618  31.450  43.983  14.786
34194W        W 6619  30.924  35.007  11.514
34195W        W 6620   0.968   4.851   1.785
34196W        W 6621  20.612   1.341   2.667
34197W        W 6622   6.834   8.190   0.430
34198W        W 6623  25.676  26.593   9.932
34199W        W 6624   5.707   0.257  13.911
34200W        W 6625  44.822  27.679   1.728
34201W        W 6626  21.148  39.872   0.475
34202W        W 6627   7.195   4.322  10.444
34203W        W 6628   3.826  17.639   3.700
34204W        W 6629   7.797   8.723   3.227
34205W        W 6630  22.173  30.112  10.514
34206W        W 6631   7.289  24.611   0.368
34207W        W 6632  19.726  36.859   2.714
34208W        W 6633   6.392   1.777   0.804
34209W        W 6634  26.123  10.140   2.211
34210W        W 6635  24.192  31.942   0.845
34211W        W 6636  24.134  28.664   0.450
34212W        W 6637  22.637  21.223   5.312
34213W        W 6638   5.220  20.693   1.399
34214W        W 6639  18.162  16.700   4.765
34215W        W 6640  15.601  32.048   4.337
34216W        W 6641  37.342  40.453   2.352
34217W        W 6642  13.332  35.585   1.710
34218W        W 6643  42.920  38.883   1.410
34219W        W 6644  23.545  38.448  11.437
34220W        W 6645  41.473  26.085   1.262
34221W        W 6646  23.229  11.642  14.453
34222W        W 6647   5.730   8.374  13.474
34223W        W 6648  38.830  11.695  14.357
34224W        W 6649  27.632  11.358  12.339
34225W        W 6650  39.321  41.309   1.842
34226W        W 6651   1.284  14.803  12.967
34227W        W 6652  17.628  36.880  12.888
34228W        W 6653   0.966  44.907   3.779
34229W        W 6654   0.293   2.933  10.606
34230W        W 6655  22.190  25.040   3.851
34231W        W 6656   2.859  43.503   4.798
34232W        W 6657  34.520  39.518  11.010
34233W        W 6658  22.600  31.551   1.843
34234W        W 6659  23.016  31.114  11.043
34235W        W 6660  43.847  25.625  14.979
34236W        W 6661   4.302  12.119  12.095
34237W        W 6662  22.729  14.327  14.025
34238W        W 6663  30.923  37.365  14.951
34239W        W 6664   9.854  29.032   1.417
34240W        W 6665   7.762  11.654  11.496
34241W        W 6666  33.587   1.449   1.806
34242W        W 6667  11.214  41.841  11.572
34243W        W 6668  20.130  20.211  14.898
34244W        W 6669   4.713  14.236  13.790
34245W        W 6670  40.314   1.448   0.757
34246W        W 6671  16.112  39.381   0.474
34247W        W 6672  13.131   8.200   1.422
34248W        W 6673   7.749  17.799   4.272
34249W        W 6674  12.753  35.552  14.961
34250W        W 6675  44.764   5.385  11.454
34251W        W 6676  18.095  39.040   1.933
34252W        W 6677  21.174  39.059   4.149
34253W        W 6678  21.549  42.495  10.434
34254W        W 6679  15.677  35.525  11.390
34255W        W 6680   3.291  30.132  12.972
34256W        W 6681  13.758   2.331  14.906
34257W        W 6682  16.313  35.899  14.315
34258W        W 6683  26.995  24.022  12.355
34259W        W 6684   9.252  38.983  14.464
34260W        W 6685  12.239  20.187   4.835
34261W        W 6686   2.820  30.094  14.505
34262W        W 6687   1.391   7.322  11.068
34263W        W 6688  24.045  39.417  13.857
34264W        W 6689  39.960   9.207  13.867
34265W        W 6690  10.794  26.166  14.836
34266W        W 6691  42.913  29.453   3.224
34267W        W 6692  22.717  11.861  10.151
34268W        W 6693  20.050  26.020   2.278
34269W        W 6694  16.154  40.493  12.533
34270W        W 6695   4.899   3.243   0.392
34271W        W 6696   5.213  25.063  12.486
34272W        W 6697  35.939  26.088  13.920
34273W        W 6698   9.703  38.382  14.330
34274W        W 6699  42.406   4.923  13.358
34275W        W 6700   3.270  17.147   1.913
34276W        W 6701  18.116  28.058   1.247
34277W        W 6702   4.941  21.129   2.712
34278W        W 6703  32.114  12.321  12.390
34279W        W 6704  31.536   8.254  14.834
34280W        W 6705   3.751  16.621   4.833
34281W        W 6706  15.626  25.196   0.881
34282W        W 6707  22.213  20.599  12.525
34283W        W 6708  38.998  43.802  14.907
34284W        W 6709  41.381  38.048   1.328
34285W        W 6710  35.942  43.951   1.698
34286W        W 6711   6.902  23.494  13.963
34287W        W 6712  22.064   6.304  12.573
34288W        W 6713  16.203  28.676   2.805
34289W        W 6714  15.743  31.413  10.604
34290W        W 6715   4.806  10.723   3.258
34291W        W 6716   3.943   4.296   2.861
34292W        W 6717  21.671  32.619   2.670
34293W        W 6718  18.747  14.748  12.002
34294W        W 6719  38.457  12.725   2.829
34295W        W 6720  42.468  18.578   1.755
34296W        W 6721  24.597  42.311   2.826
34297W        W 6722  15.614  20.660  10.976
34298W        W 6723  27.093  16.759  13.036
34299W        W 6724  20.708  42.839  14.947
34300W        W 6725   4.893  27.992   2.347
34301W        W 6726  19.088  40.907   3.322
34302W        W 6727  20.705  19.090   4.187
34303W        W 6728  25.469  29.496  14.998
34304W        W 6729  15.174  33.606  10.483
34305W        W 6730  40.918  32.112  11.104
34306W        W 6731   8.894  18.127  11.095
34307W        W 6732  33.010  12.840  11.373
34308W        W 6733   5.327  34.558   0.888
34309W        W 6734   2.343  44.804  13.823
34310W        W 6735  26.992  34.608  12.394
34311W        W 6736  21.740  22.237   1.807
34312W        W 6737   1.417  15.100  14.792
34313W        W 6738   9.660  34.400  10.547
34314W        W 6739  17.768  36.378  13.486
34315W        W 6740  20.191   8.717   1.241
34316W        W 6741  33.461  17.148   2.272
34317W        W 6742  11.751  29.933  14.982
34318W        W 6743  21.570  12.221   0.879
34319W        W 6744  39.990   1.338  12.861
34320W        W 6745   8.686  30.012  11.948
34321W        W 6746  39.950  22.531  13.476
34322W        W 6747   2.434  17.282  10.088
34323W        W 6748  40.352  37.400   1.324
34324W        W 6749  17.581  40.475  14.004
34325W        W 6750  11.134   7.255   2.327
34326W        W 6751  37.497  20.696   3.754
34327W        W 6752   5.243  39.382  12.356
34328W        W 6753  30.971  18.670  10.048
34329W        W 6754  38.916  35.948  10.621
34330W        W 6755  18.636  40.356  14.021
34331W        W 6756   7.406   2.265   3.693
34332W        W 6757   9.299  21.188   4.642
34333W        W 6758  35.929   7.909  10.896
34334W        W 6759  16.592  19.553  14.337
34335W        W 6760   6.282  40.961  13.058
34336W        W 6761  36.895   6.337   0.446
34337W        W 6762  25.706  24.562   1.884
34338W        W 6763   1.902  20.539   4.223
34339W        W 6764  18.181  30.149   9.539
34340W        W 6765   6.250  15.807   3.733
34341W        W 6766   5.309   6.710  14.850
34342W        W 6767  15.678  17.557   0.802
34343W        W 6768   1.479  13.247   4.798
34344W        W 6769  12.168  37.997  12.359
34345W        W 6770  43.906  31.570  10.533
34346W        W 6771  17.584  10.797  14.394
34347W        W 6772   3.329  41.340  13.063
34348W        W 6773  20.186   1.894   4.219
34349W        W 6774  43.296   8.825  13.043
34350W        W 6775  27.018  11.196   3.221
34351W        W 6776  30.129  39.345   4.218
34352W        W 6777  42.816  27.452  10.557
34353W        W 6778  21.177  32.033  12.984
34354W        W 6779  21.513  18.680  10.899
34355W        W 6780  44.478   4.725   0.961
34356W        W 6781   4.229  30.138   3.285
34357W        W 6782   7.213  12.136  11.971
34358W        W 6783  23.620  14.283   4.636
34359W        W 6784   2.763  11.233  11.960
34360W        W 6785  26.624  32.492   1.916
34361W        W 6786  36.856   2.963   1.310
34362W        W 6787  13.130  29.498  12.854
34363W        W 6788  28.940   2.327   4.676
34364W        W 6789  40.967  44.812   4.141
34365W        W 6790  25.616  27.157   0.882
34366W        W 6791   0.928  42.961  12.540
34367W        W 6792  25.126  19.190  14.463
34368W        W 6793  28.134  36.882   1.365
34369W        W 6794  41.377  28.506  11.017
34370W        W 6795   7.258  42.470   4.173
34371W        W 6796  21.134   8.355   2.862
34372W        W 6797  11.184  39.490  14.471
34373W        W 6798  17.178   0.945   0.456
34374W        W 6799  31.927  24.119  14.821
34375W        W 6800  28.090   8.733  12.911
34376W        W 6801  27.184  41.294   4.325
34377W        W 6802   5.834  19.281  13.861
34378W        W 6803   7.774  39.907   3.857
34379W        W 6804   8.169  16.772   0.259
34380W        W 6805  27.527  43.994   3.832
34381W        W 6806   3.362   9.149  13.974
34382W        W 6807  29.059  30.498   9.665
34383W        W 6808  26.091  32.015  12.423
34384W        W 6809   7.285  33.086   3.367
34385W        W 6810  15.100  41.926   4.804
34386W        W 6811  24.162  34.592  13.316
34387W        W 6812   6.848  38.537   2.329
34388W        W 6813  17.069  31.124  12.956
34389W        W 6814  41.481  26.633  10.591
34390W        W 6815  31.478  28.957  12.897
34391W        W 6816  16.152  33.886  13.903
34392W        W 6817  35.365  33.088   2.339
34393W        W 6818  17.732  20.246  14.847
34394W        W 6819  14.213   3.804  11.978
34395W        W 6820  17.709  13.829  14.510
34396W        W 6821  17.698  32.543   0.255
34397W        W 6822   7.815  28.011   1.897
34398W        W 6823   7.675  40.428  11.603
34399W        W 6824  35.102  12.206  11.857
34400W        W 6825  18.624  33.385  10.630
34401W        W 6826  20.554  37.549  14.958
34402W        W 6827  16.219  20.549   2.221
34403W        W 6828   7.177   9.170  14.478
34404W        W 6829  41.990   4.726   2.887
34405W        W 6830  29.532  44.005  11.892
34406W        W 6831   7.883   9.149  12.567
34407W        W 6832  14.139  14.278   2.318
34408W        W 6833   2.249  22.191   2.271
34409W        W 6834  14.239  44.383  10.449
34410W        W 6835   0.748  18.209   1.217
34411W        W 6836  12.196  13.297   4.600
34412W        W 6837  24.544  19.214  13.958
34413W        W 6838  16.287   8.771   4.333
34414W        W 6839   3.455  30.021   0.286
34415W        W 6840   7.413  33.527  12.360
34416W        W 6841   4.843  20.184  13.032
34417W        W 6842   5.720  26.499  13.822
34418W        W 6843  19.067  43.463   2.801
34419W        W 6844   1.938  37.067  11.047
34420W        W 6845  21.085  35.412  12.518
34421W        W 6846   9.288  35.010   0.460
34422W        W 6847  31.538   8.660   2.811
34423W        W 6848   3.345   3.709  10.632
34424W        W 6849  37.418  27.474  10.984
34425W        W 6850   9.864  32.604  13.796
34426W        W 6851  31.046  41.807   2.220
34427W        W 6852  22.018  16.130   3.155
34428W        W 6853  37.001  30.120  14.387
34429W        W 6854  42.988  35.392  13.388
34430W        W 6855  30.083   2.259  12.898
34431W        W 6856  23.634  29.078  12.426
34432W        W 6857  43.306  28.663  12.489
34433W        W 6858   7.891   4.204  12.973
34434W        W 6859  34.569  43.878   3.283
34435W        W 6860  18.190  15.787   0.271
34436W        W 6861   7.901  14.657   3.187
34437W        W 6862   2.915  10.696   4.214
34438W        W 6863  12.745  12.318  13.325
34439W        W 6864  21.525  30.562   3.635
34440W        W 6865  24.226  44.831  10.584
34441W        W 6866  26.193  16.233   4.197
34442W        W 6867   6.296  20.142   3.645
34443W        W 6868   6.235  31.972   0.424
34444W        W 6869  22.009  27.046   0.280
34445W        W 6870  35.505  41.900   2.366
34446W        W 6871  24.550  22.073  13.406
34447W        W 6872  29.506  12.738  13.839
34448W        W 6873  37.854  21.612   2.349
34449W        W 6874  26.604  44.294   3.771
34450W        W 6875  29.930   4.701   1.842
34451W        W 6876  39.555  30.479  12.075
34452W        W 6877  30.557  11.292   2.279
34453W        W 6878  15.194   3.253  13.504
34454W        W 6879  28.028   1.940  10.524
34455W        W 6880  40.908   5.734   2.295
34456W        W 6881   5.739  31.433  11.579
34457W        W 6882  17.138  42.865  14.953
34458W        W 6883  16.253  25.042  13.004
34459W        W 6884  20.194  44.006  10.459
34460W        W 6885   7.295  31.614  10.409
34461W        W 6886  24.087   4.298   2.379
34462W        W 6887  19.768  27.012   0.390
34463W        W 6888  15.195  44.794   2.215
34464W        W 6889  44.374  24.210  11.049
34465W        W 6890   1.297  16.786   4.720
34466W        W 6891  30.077   3.828   3.259
34467W        W 6892  29.978  17.100   2.804
34468W        W 6893  27.964   0.450  12.494
34469W        W 6894  13.145   2.378  12.944
34470W        W 6895  16.250  13.811   3.744
34471W        W 6896  43.846  12.720   0.440
34472W        W 6897  22.222  21.691  14.427
34473W        W 6898  15.741  29.487  14.970
34474W        W 6899  27.459  18.640   4.199
34475W        W 6900  20.735  30.484   4.637
34476W        W 6901  21.239  26.648  12.468
34477W        W 6902  38.448   7.859   4.175
34478W        W 6903  43.888   3.861   3.836
34479W        W 6904  34.443  16.099  14.333
34480W        W 6905  14.643   1.949  12.065
34481W        W 6906  29.994  31.622   3.779
34482W        W 6907  15.122   9.215  11.976
34483W        W 6908  44.860  39.009  12.051
34484W        W 6909  16.281  30.496   5.282
34485W        W 6910  21.758  11.220   9.559
34486W        W 6911  23.120  36.433  13.978
34487W        W 6912   9.345   0.958   2.702
34488W        W 6913  35.927  11.370  13.907
34489W        W 6914  32.126  18.625   5.105
34490W        W 6915  12.817  23.599  14.275
34491W        W 6916   6.372  22.590  10.071
34492W        W 6917  10.808  43.902   4.235
34493W        W 6918  19.282   4.445  12.340
34494W        W 6919  39.853  15.128   0.283
34495W        W 6920  24.575  32.585   2.310
34496W        W 6921  14.319   3.313   4.758
34497W        W 6922  21.052   0.492   0.422
34498W        W 6923   0.860  12.204   0.446
34499W        W 6924   6.319  43.811  11.438
34500W        W 6925  31.113  29.474  11.578
34501W        W 6926   4.294  19.139   3.183
34502W        W 6927  32.005  16.802   3.834
34503W        W 6928  44.939  15.172   2.350
34504W        W 6929  21.708  43.492   1.375
34505W        W 6930  20.159  11.660   5.115
34506W        W 6931   6.824  39.017   2.295
34507W        W 6932   8.765  22.736   2.754
34508W        W 6933  17.720  31.090   4.142
34509W        W 6934  43.808  44.265  13.335
34510W        W 6935  31.038  13.284   2.402
34511W        W 6936   3.248  39.318   1.344
34512W        W 6937  28.636  30.985  14.876
34513W        W 6938   1.284  43.278   0.375
34514W        W 6939  19.278  30.974  14.390
34515W        W 6940  26.182  20.210   2.843
34516W        W 6941  12.301  41.412   0.931
34517W        W 6942  39.970   6.905   3.303
34518W        W 6943  39.466   3.924  10.597
34519W        W 6944   0.412   5.747  13.924
34520W        W 6945  16.569  41.862  13.006
34521W        W 6946   9.830   1.408   1.405
34522W        W 6947   7.319  41.394   1.748
34523W        W 6948  14.827  11.186   3.827
34524W        W 6949  14.702  20.051  12.939
34525W        W 6950  39.377  12.725   0.418
34526W        W 6951  20.731  13.351   2.214
34527W        W 6952   8.668  18.587   3.209
34528W        W 6953  11.793  16.092   3.847
34529W        W 6954  44.397  13.819  13.354
34530W        W 6955  33.041  33.552   1.902
34531W        W 6956  29.010   2.871  13.316
34532W        W 6957  24.674   3.791   2.687
34533W        W 6958  14.289   2.872   3.781
34534W        W 6959   7.718   9.854  10.641
34535W        W 6960  11.862  24.631  14.987
34536W        W 6961  17.145   1.841   5.782
34537W        W 6962  24.058  37.452  13.805
34538W        W 6963  15.234  30.078   1.329
34539W        W 6964  22.620  33.493  13.513
34540W        W 6965   0.880  15.089  14.871
34541W        W 6966  30.623   3.323  13.481
34542W        W 6967   1.397  38.058  11.883
34543W        W 6968   1.880  11.244   2.346
34544W        W 6969  28.092   9.340   5.157
34545W        W 6970   3.759   9.299   3.232
34546W        W 6971  28.002  39.058   0.729
34547W        W 6972  16.612  29.946   4.657
34548W        W 6973  19.536  22.739   0.459
34549W        W 6974  28.176  23.549  13.960
34550W        W 6975  13.742   9.224  14.330
34551W        W 6976  37.915  21.580   3.694
34552W        W 6977  19.578  32.552  14.882
34553W        W 6978  27.677  15.299  12.414
34554W        W 6979  20.675   1.459  14.859
34555W        W 6980  33.547  28.130  12.902
34556W        W 6981   0.890  24.027  14.932
34557W        W 6982  41.806  10.837   1.818
34558W        W 6983   7.193  29.619   4.758
34559W        W 6984  33.010  24.205  14.899
34560W        W 6985  34.484   2.250  14.801
34561W        W 6986   5.408  32.472  14.791
34562W        W 6987  16.719  32.401  14.857
34563W        W 6988  35.914   7.342  13.009
34564W        W 6989  32.606  11.181  11.492
34565W        W 6990   3.390  17.581   4.238
34566W        W 6991   0.275  33.954  11.374
34567W        W 6992  39.505  19.722  12.964
34568W        W 6993  38.882  17.680  14.848
34569W        W 6994  19.621  33.890   3.335
34570W        W 6995  35.392  23.205  14.809
34571W        W 6996   0.831   0.964   0.259
34572W        W 6997  17.122  37.349   4.719
34573W        W 6998  12.182  40.807  12.419
34574W        W 6999  17.588  14.788  13.004
34575W        W 7000  36.887   3.305   1.928
34576W        W 7001  33.991  38.020  10.629
34577W        W 7002  19.691  38.549  11.534
34578W        W 7003   7.861  23.509  14.393
34579W        W 7004  29.625   9.341   4.641
34580W        W 7005  13.837  44.944  12.537
34581W        W 7006  12.619  11.675   4.650
34582W        W 7007  22.127  13.729  10.616
34583W        W 7008  40.920  13.620   3.639
34584W        W 7009  12.709  10.747  13.983
34585W        W 7010   3.736   3.265  13.521
34586W        W 7011  24.499   4.318   4.668
34587W        W 7012  28.634  33.070  13.960
34588W        W 7013  26.962   2.425  11.550
34589W        W 7014  29.058  40.867  10.938
34590W        W 7015  26.520  17.270   2.336
34591W        W 7016  27.466  21.059  13.456
34592W        W 7017  11.629  32.081   1.222
34593W        W 7018  39.854  13.238  13.434
34594W        W 7019  21.248   7.724   1.428
34595W        W 7020  29.478  40.533   4.219
34596W        W 7021   7.372  11.642   3.746
34597W        W 7022  38.062  26.504  11.062
34598W        W 7023  37.077  32.623  14.810
34599W        W 7024   9.840  38.510   3.828
34600W        W 7025  16.609  33.047   1.856
34601W        W 7026  35.599  43.491   0.824
34602W        W 7027  17.157  31.618  11.991
34603W        W 7028  17.181  13.346   0.937
34604W        W 7029  33.480  35.885   1.728
34605W        W 7030  16.748  41.345  13.937
34606W        W 7031   3.765   2.752  10.625
34607W        W 7032  26.041  42.370  12.827
34608W        W 7033   8.699  24.493   1.242
34609W        W 7034   5.869  43.969   4.725
34610W        W 7035  30.499  37.857   2.201
34611W        W 7036   9.304  29.537  11.887
34612W        W 7037  13.133  25.501   4.780
34613W        W 7038   8.694  25.152  13.918
34614W        W 7039  24.540  39.924  11.129
34615W        W 7040  27.682  16.691  12.956
34616W        W 7041  34.583  15.160   4.324
34617W        W 7042  31.030  30.590   3.737
34618W        W 7043  28.015  10.362  11.895
34619W        W 7044   9.158   1.923  12.868
34620W        W 7045  32.615  16.634  14.945
34621W        W 7046  42.420   0.294  10.611
34622W        W 7047  27.143  14.652  12.915
34623W        W 7048  28.084  28.676  13.837
34624W        W 7049  36.396   4.941   3.811
34625W        W 7050  17.608  29.563  12.989
34626W        W 7051  10.372   9.663  11.507
34627W        W 7052  42.914   0.860  13.926
34628W        W 7053   7.388  23.111   0.946
34629W        W 7054  28.635  28.517  12.050
34630W        W 7055   7.269  27.155  11.602
34631W        W 7056  24.011   2.312  11.538
34632W        W 7057  37.875  43.332  12.433
34633W        W 7058  42.401  41.820  13.315
34634W        W 7059  21.246  31.088  12.945
34635W        W 7060  25.578  28.553  10.452
34636W        W 7061  14.303   2.954  13.852
34637W        W 7062   5.698  13.133  11.450
34638W        W 7063   0.860  42.952  11.606
34639W        W 7064  12.233   2.938   0.770
34640W        W 7065  38.946   9.386  10.956
34641W        W 7066  30.962   0.440   2.277
34642W        W 7067  28.457   7.708   1.296
34643W        W 7068  15.298   1.949  13.466
34644W        W 7069   1.929  16.750   1.742
34645W        W 7070  14.218  38.929  10.887
34646W        W 7071   2.369  17.179  12.831
34647W        W 7072  12.692  43.288  13.372
34648W        W 7073  24.528  22.690  13.374
34649W        W 7074  13.248  37.025   0.880
34650W        W 7075   1.887  27.118  12.089
34651W        W 7076  39.025  26.462   2.779
34652W        W 7077  18.719  42.325  11.530
34653W        W 7078  15.611   0.494   2.822
34654W        W 7079  27.449  41.473  10.487
34655W        W 7080  36.468  19.537   5.099
34656W        W 7081  39.043  10.294  14.489
34657W        W 7082  38.463   8.165  14.436
34658W        W 7083   0.381  35.982  14.901
34659W        W 7084  41.522  19.610   1.446
34660W        W 7085  36.922  28.002   2.818
34661W        W 7086   7.314  42.294   4.723
34662W        W 7087  14.739  27.080  14.355
34663W        W 7088  21.210  20.184  14.317
34664W        W 7089   4.393  29.967  13.547
34665W        W 7090  27.637  39.934  14.396
34666W        W 7091   0.393  28.556   3.861
34667W        W 7092  39.339  34.905   4.625
34668W        W 7093  21.059  14.208   4.267
34669W        W 7094  40.528  24.695  11.391
34670W        W 7095  20.593  39.971  14.916
34671W        W 7096   4.352  32.418   1.818
34672W        W 7097  24.481  27.563  13.992
34673W        W 7098   3.901  34.397   1.239
34674W        W 7099  23.595  35.003  13.333
34675W        W 7100  28.647  14.250  12.860
34676W        W 7101  16.580  40.982   4.661
34677W        W 7102   2.325  24.051  10.929
34678W        W 7103  30.010  22.740   0.876
34679W        W 7104   3.448  29.994   4.690
34680W        W 7105  28.097  26.005   4.241
34681W        W 7106  32.415  18.620   2.689
34682W        W 7107   1.845  18.073  12.356
34683W        W 7108   7.176   1.862  11.474
34684W        W 7109  25.054  39.025   2.726
34685W        W 7110  10.782  27.948  11.971
34686W        W 7111  17.586   6.919   2.379
34687W        W 7112  29.536   0.360   3.824
34688W        W 7113  25.175   0.431   4.802
34689W        W 7114  11.237  41.858   4.227
34690W        W 7115   0.259  35.436   3.839
34691W        W 7116  16.622  12.165  10.561
34692W        W 7117  27.187  19.682  14.515
34693W        W 7118  11.638  10.330   0.390
34694W        W 7119  36.078  16.767   4.347
34695W        W 7120  10.250  35.435   3.270
34696W        W 7121  11.642   8.692   0.937
34697W        W 7122  14.762  12.272   4.252
34698W        W 7123  24.199  23.721  11.556
34699W        W 7124  23.127   7.722   3.214
34700W        W 7125  37.996   4.270  13.849
34701W        W 7126  42.848  16.268   4.298
34702W        W 7127  20.531  42.859  14.277
34703W        W 7128   0.965  36.410   2.240
34704W        W 7129  36.457  38.514   1.709
34705W        W 7130  15.705  14.792   1.284
34706W        W 7131   8.825  13.287  12.942
34707W        W 7132   4.720   5.828  11.956
34708W        W 7133   2.469  37.940  11.539
34709W        W 7134   4.875  26.609  14.027
34710W        W 7135   7.697  15.682  10.136
34711W        W 7136  18.169  34.430  13.818
34712W        W 7137   0.804   4.247   0.394
34713W        W 7138  11.348   0.310  14.860
34714W        W 7139  13.344   9.327   4.332
34715W        W 7140  34.505  28.091  11.589
34716W        W 7141  20.538  33.382   1.774
34717W        W 7142  34.442  25.702  14.920
34718W        W 7143  36.526  16.807   3.155
34719W        W 7144  30.080   1.955  11.603
34720W        W 7145   5.377   5.734  14.509
34721W        W 7146  20.175  20.108   2.755
34722W        W 7147   9.282   1.266  10.416
34723W        W 7148  30.139  42.012   2.893
34724W        W 7149  32.968  41.928   4.299
34725W        W 7150   4.342  16.201  12.433
34726W        W 7151  11.132  25.075  11.464
34727W        W 7152  25.128  36.857  10.592
34728W        W 7153  24.151  34.863   1.320
34729W        W 7154  13.706  13.313   0.857
34730W        W 7155  42.480  38.540   0.296
34731W        W 7156   5.869  26.541   2.864
34732W        W 7157  19.225  38.452  13.883
34733W        W 7158  15.251   0.788   5.160
34734W        W 7159  17.210  37.071  11.118
34735W        W 7160  20.582  17.257  11.876
34736W        W 7161  12.726  33.073  14.287
34737W        W 7162   5.861   3.827  11.599
34738W        W 7163  27.545  24.048   3.264
34739W        W 7164  20.724   0.831   4.741
34740W        W 7165  40.846  30.568   2.266
34741W        W 7166   9.279  43.346   4.679
34742W        W 7167   0.981  30.537   4.230
34743W        W 7168  29.628  27.172  13.348
34744W        W 7169  10.237  30.526  10.016
34745W        W 7170  40.813  18.675  11.377
34746W        W 7171  19.221   2.747   2.284
34747W        W 7172  38.946  42.391  14.365
34748W        W 7173  44.949   9.280  13.993
34749W        W 7174   2.284  36.002  10.119
34750W        W 7175  18.126  39.883   2.736
34751W        W 7176  16.693  26.036  14.963
34752W        W 7177  15.798   4.364   1.395
34753W        W 7178  34.480  20.734  13.797
34754W        W 7179  40.454   8.807  10.086
34755W        W 7180   8.833  39.361  11.880
34756W        W 7181  41.412  40.869   0.409
34757W        W 7182  31.486  16.099  14.772
34758W        W 7183  30.504  25.657   0.800
34759W        W 7184  37.338  32.127  11.078
34760W        W 7185  23.588  37.547   4.299
34761W        W 7186  25.709   6.266  13.426
34762W        W 7187  33.920  19.200   2.753
34763W        W 7188  39.885   6.351  12.445
34764W        W 7189  17.796  19.737   4.744
34765W        W 7190  43.454  35.377  12.515
34766W        W 7191  13.120  36.586   0.748
34767W        W 7192  29.433  41.334  11.502
34768W        W 7193  37.489   4.445   2.762
34769W        W 7194   8.713  36.537   4.677
34770W        W 7195   8.270  40.317   4.195
34771W        W 7196  26.662  30.516  11.518
34772W        W 7197   3.910   4.446  14.295
34773W        W 7198  10.228  33.446   1.387
34774W        W 7199  44.912  17.132  14.940
34775W        W 7200   5.775   2.437   1.357
34776W        W 7201  26.982  11.238   1.265
34777W        W 7202  20.143  12.344  10.901
34778W        W 7203  37.470  40.834  11.883
34779W        W 7204   7.312  28.098   0.766
34780W        W 7205  22.501   0.926   4.735
34781W        W 7206  20.127  28.084   1.387
34782W        W 7207  43.831  32.006   2.286
34783W        W 7208  23.187  16.165   2.840
34784W        W 7209  35.978  27.518   1.265
34785W        W 7210  26.655   9.857  11.996
34786W        W 7211  30.532  34.488  14.968
34787W        W 7212  37.539  41.470   3.174
34788W        W 7213  37.541  14.168   3.633
34789W        W 7214   2.749  43.834  12.579
34790W        W 7215   5.270  34.053  12.843
34791W        W 7216  41.349  42.994  12.894
34792W        W 7217   4.922   6.333   1.330
34793W        W 7218  37.961  28.998   4.831
34794W        W 7219  13.227  39.332  10.895
34795W        W 7220  32.133  27.165   0.852
34796W        W 7221  24.653  33.907  14.483
34797W        W 7222  13.149  43.846   2.290
34798W        W 7223  15.286   7.813   4.346
34799W        W 7224  14.145   7.777  10.491
34800W        W 7225  36.072   0.786   3.268
34801W        W 7226  44.259  19.589  14.319
34802W        W 7227  43.997  32.418   2.197
34803W        W 7228   2.451  25.568   3.630
34804W        W 7229  21.678  30.632  12.977
34805W        W 7230  34.612   9.248   3.844
34806W        W 7231   0.444  15.675  12.523
34807W        W 7232  31.138  32.580  13.536
34808W        W 7233  25.059   7.731  14.788
34809W        W 7234  40.990   2.932   1.447
34810W        W 7235   9.296  33.118   3.811
34811W        W 7236  25.710   4.777  13.983
34812W        W 7237  24.538  34.602  11.028
34813W        W 7238  39.054  14.328   2.739
34814W        W 7239  42.843   7.829  12.437
34815W        W 7240  39.440  23.041  14.345
34816W        W 7241  44.915  43.839  10.536
34817W        W 7242  37.917  14.100   0.842
34818W        W 7243   8.889  41.411  12.445
34819W        W 7244  16.275  25.130   1.344
34820W        W 7245   6.424   8.739   4.621
34821W        W 7246  13.732  37.383  12.060
34822W        W 7247  22.736  25.633  10.911
34823W        W 7248  24.034   2.742   3.296
34824W        W 7249  37.083   5.196  10.457
34825W        W 7250  10.256  25.699   3.747
34826W        W 7251  38.454  44.838  14.286
34827W        W 7252  29.669  13.702  10.991
34828W        W 7253  32.031  29.949  12.895
34829W        W 7254  14.335  12.699  14.000
34830W        W 7255  14.782  25.098  13.485
34831W        W 7256  43.867  39.876   3.354
34832W        W 7257   3.307  28.058  12.087
34833W        W 7258  23.207  19.096   2.233
34834W        W 7259   9.268  37.345  13.528
34835W        W 7260  15.675   8.735   3.279
34836W        W 7261  12.693  14.793  12.423
34837W        W 7262  40.538  34.451  10.114
34838W        W 7263  35.497  34.512   2.850
34839W        W 7264  15.609  43.307  11.954
34840W        W 7265  28.438  23.169  12.965
34841W        W 7266  38.462  23.077   1.885
34842W        W 7267  36.546  18.627   3.156
34843W        W 7268   1.796  10.303  13.398
34844W        W 7269   1.272  44.870  12.552
34845W        W 7270   8.881   0.895  11.431
34846W        W 7271  40.418  33.506   4.812
34847W        W 7272  11.861  32.470   1.870
34848W        W 7273  43.305  27.587   0.777
34849W        W 7274  17.113  21.571   4.352
34850W        W 7275  15.229   7.209  10.427
34851W        W 7276  22.996   9.341   1.356
34852W        W 7277  21.650  31.144   4.824
34853W        W 7278  23.691   7.884   1.711
34854W        W 7279  34.044   3.370  11.542
34855W        W 7280  33.573  31.489  12.072
34856W        W 7281  18.597  15.820  14.944
34857W        W 7282  15.612  37.011   1.757
34858W        W 7283  19.277  28.175  12.898
34859W        W 7284  38.067  38.461  13.979
34860W        W 7285   5.918  19.662   0.384
34861W        W 7286   8.350  12.720   3.190
34862W        W 7287   9.795  16.142  11.944
34863W        W 7288  18.619   7.284  13.825
34864W        W 7289   2.312   7.832   2.738
34865W        W 7290  17.244  16.808  13.962
34866W        W 7291  42.512   0.744  14.861
34867W        W 7292  34.895   5.230   4.699
34868W        W 7293   5.410  23.524  12.047
34869W        W 7294  41.319  13.792  10.476
34870W        W 7295  28.518   5.299   2.256
34871W        W 7296  38.838  42.892   3.259
34872W        W 7297  11.757  43.442   2.752
34873W        W 7298  23.173   2.880   2.819
34874W        W 7299  39.974   7.229  10.550
34875W        W 7300   4.795  27.091  13.337
34876W        W 7301  15.685  42.002  12.405
34877W        W 7302  39.483  25.598   0.730
34878W        W 7303  44.371  42.293  12.572
34879W        W 7304  21.754  19.693   0.308
34880W        W 7305  19.596  34.507  14.353
34881W        W 7306  32.533  44.949  12.366
34882W        W 7307  41.530  19.183   4.665
34883W        W 7308  30.930  33.892  11.098
34884W        W 7309   5.783  34.116   0.813
34885W        W 7310  39.922  41.387   4.277
34886W        W 7311  35.105  11.150  13.822
34887W        W 7312   4.305  13.759  12.535
34888W        W 7313   7.293  39.917   0.932
34889W        W 7314  30.576  34.535  12.442
34890W        W 7315  20.557   1.877   2.315
34891W        W 7316   4.934   4.260  11.940
34892W        W 7317  28.641  23.047   2.269
34893W        W 7318  13.749   2.345   3.215
34894W        W 7319  24.639  18.148   1.872
34895W        W 7320  13.283  15.703  11.558
34896W        W 7321  16.602  34.440  12.850
34897W        W 7322  25.210  13.238   1.397
34898W        W 7323  23.236  41.324   2.776
34899W        W 7324  24.623  27.686  11.033
34900W        W 7325  37.398   4.835  13.931
34901W        W 7326  27.552  24.106   4.811
34902W        W 7327  41.792  13.602   1.448
34903W        W 7328   2.350  13.254  14.920
34904W        W 7329  39.932  25.138   5.278
34905W        W 7330   8.779  29.978  14.926
34906W        W 7331   0.970  35.949  10.547
34907W        W 7332  37.477  19.070  11.949
34908W        W 7333  38.014  15.148  11.584
34909W        W 7334  44.839  37.886  12.418
34910W        W 7335  43.955  39.440  10.544
34911W        W 7336  13.650  17.724  13.389
34912W        W 7337  39.547  39.362   4.290
34913W        W 7338  22.078  24.077  10.404
34914W        W 7339   1.894  27.476   3.759
34915W        W 7340  25.584   5.933   3.687
34916W        W 7341  10.877  20.063   3.181
34917W        W 7342   7.908  39.546   2.243
34918W        W 7343  16.144  40.031   5.274
34919W        W 7344  35.492  25.003   3.710
34920W        W 7345  31.081  15.284   2.747
34921W        W 7346  34.912  20.643  12.855
34922W        W 7347  19.178  44.370   2.831
34923W        W 7348   2.754   2.301  11.551
34924W        W 7349   5.899  14.780  14.783
34925W        W 7350   5.426   0.444  14.776
34926W        W 7351  27.550  40.331  12.945
34927W        W 7352  13.821  38.984  11.012
34928W        W 7353   3.239  19.194   3.322
34929W        W 7354  41.426  25.018   1.344
34930W        W 7355  18.240  14.639  13.501
34931W        W 7356  14.290  14.768  13.367
34932W        W 7357  23.572  24.485   3.644
34933W        W 7358  25.601  10.710   4.257
34934W        W 7359  24.706  11.267   3.204
34935W        W 7360  20.564   5.239  12.879
34936W        W 7361   0.877  29.502  12.486
34937W        W 7362  30.586  17.578   0.891
34938W        W 7363  36.482   9.668  13.501
34939W        W 7364  37.460  19.763  10.004
34940W        W 7365  44.805  24.150  14.763
34941W        W 7366  19.143  18.209   1.302
34942W        W 7367   8.241   2.950  14.014
34943W        W 7368  30.606   7.270   1.374
34944W        W 7369  18.281   8.323   4.683
34945W        W 7370  34.115  34.013   1.923
34946W        W 7371  14.775  37.949   0.770
34947W        W 7372   6.238  37.336   3.640
34948W        W 7373   3.747  31.578   4.733
34949W        W 7374  39.849  15.600   1.253
34950W        W 7375  24.484  24.217   1.217
34951W        W 7376  17.724  38.869  12.580
34952W        W 7377  19.613  41.879  14.873
34953W        W 7378  16.587  19.152  14.446
34954W        W 7379  11.341  20.662  13.454
34955W        W 7380   9.889  26.017   1.356
34956W        W 7381  16.256  26.183  10.484
34957W        W 7382   0.359  34.613   2.893
34958W        W 7383  35.953  16.084   1.907
34959W        W 7384  15.603  13.140   3.838
34960W        W 7385   1.862  33.083   0.280
34961W        W 7386  43.971  27.036  11.507
34962W        W 7387   2.427  39.555   4.633
34963W        W 7388  19.213  17.143  11.896
34964W        W 7389   1.806  37.835  11.900
34965W        W 7390  44.881  31.994  11.567
34966W        W 7391  31.623  11.330  13.059
34967W        W 7392  41.917  15.188  14.905
34968W        W 7393  23.067  40.021  11.978
34969W        W 7394  15.133   3.414   1.894
34970W        W 7395  33.024  35.103   4.712
34971W        W 7396   7.688  30.507   1.258
34972W        W 7397  12.177   8.696   4.647
34973W        W 7398  13.632  15.741   3.674
34974W        W 7399   9.328  23.701  11.939
34975W        W 7400  33.912  43.332  12.445
34976W        W 7401  24.014  15.213  13.029
34977W        W 7402  30.003   9.185  11.591
34978W        W 7403  23.624  39.341  13.520
34979W        W 7404  35.925   9.186   2.746
34980W        W 7405  21.527   9.224  10.559
34981W        W 7406  30.989  41.326  11.495
34982W        W 7407  25.655   6.741   3.266
34983W        W 7408  20.135   4.311  13.513
34984W        W 7409  41.489  22.523   0.417
34985W        W 7410   7.212   3.798  10.610
34986W        W 7411  27.051  13.702  11.878
34987W        W 7412  27.941  27.664  11.960
34988W        W 7413  11.713   6.298   1.411
34989W        W 7414  42.295  44.912   1.330
34990W        W 7415   9.379  24.208  13.894
34991W        W 7416   3.711  12.790  14.313
34992W        W 7417  12.670  19.054  11.959
34993W        W 7418  37.480  35.507   0.421
34994W        W 7419  40.801  17.199   0.349
34995W        W 7420  18.655  19.128  11.978
34996W        W 7421  34.411   4.270   2.322
34997W        W 7422  23.140  29.049  12.485
34998W        W 7423  41.296   2.469   1.273
34999W        W 7424   3.254  28.107   4.307
35000W        W 7425  14.117  14.734   0.769
35001W        W 7426  34.986  11.635  11.925
35002W        W 7427  22.737  37.002   0.738
35003W        W 7428   3.769  11.283  10.989
35004W        W 7429  33.074  17.234   0.296
35005W        W 7430   6.848  15.767   2.663
35006W        W 7431  14.819  20.212  13.817
35007W        W 7432  34.586  23.490  13.812
35008W        W 7433  11.656  20.044  12.522
35009W        W 7434  24.096  40.824   2.867
35010W        W 7435  25.673  15.709  12.045
35011W        W 7436   5.306   5.729   1.866
35012W        W 7437  32.123  28.436  13.517
35013W        W 7438  40.536  23.044  11.975
35014W        W 7439  29.642  42.846   2.415
35015W        W 7440   5.830   6.888   2.288
35016W        W 7441  12.197   0.349   0.909
35017W        W 7442  44.955  34.011   4.696
35018W        W 7443  22.662  19.100   4.349
35019W        W 7444  38.542  43.384   4.774
35020W        W 7445  10.180  26.046   4.352
35021W        W 7446  15.732  31.036   3.342
35022W        W 7447  32.534  37.960  14.822
35023W        W 7448  17.720  11.741  12.844
35024W        W 7449   4.915  29.434  14.880
35025W        W 7450  25.596  38.975   4.640
35026W        W 7451  35.956  37.079  13.502
35027W        W 7452   4.282  12.263   4.232
35028W        W 7453  18.263  39.551   3.227
35029W        W 7454  25.484   7.322   4.269
35030W        W 7455  22.037  13.767   2.342
35031W        W 7456  17.176  41.393   5.200
35032W        W 7457   2.802  37.033  12.933
35033W        W 7458  44.006  19.068   2.238
35034W        W 7459  26.600   8.232   3.664
35035W        W 7460   7.781  31.433   3.684
35036W        W 7461  39.437  28.155  13.468
35037W        W 7462  31.099  11.848  12.085
35038W        W 7463   5.430  17.785   0.278
35039W        W 7464  19.125  34.022   2.714
35040W        W 7465  36.948  31.587   0.787
35041W        W 7466  41.037  13.725   4.342
35042W        W 7467  32.562  27.153   1.720
35043W        W 7468  17.611   4.388   4.747
35044W        W 7469   9.229  17.578   1.775
35045W        W 7470  10.649  32.140   3.260
35046W        W 7471  42.456  27.954  11.439
35047W        W 7472  12.182  16.636   2.218
35048W        W 7473  25.007  38.852   4.624
35049W        W 7474  23.046  31.520  13.038
35050W        W 7475  26.029  20.721  10.521
35051W        W 7476  15.129  34.068   1.249
35052W        W 7477  40.527  28.486   0.402
35053W        W 7478  35.458   8.735  12.404
35054W        W 7479  34.511  22.152  11.485
35055W        W 7480  36.962  36.974   4.266
35056W        W 7481   0.381   4.755   0.811
35057W        W 7482  33.045   9.746  13.477
35058W        W 7483  28.114  13.331   3.778
35059W        W 7484  39.403   6.857   2.312
35060W        W 7485  34.375  33.949  11.460
35061W        W 7486  12.616  24.714   4.299
35062W        W 7487  12.843  31.051  11.420
35063W        W 7488   3.260  39.996  12.437
35064W        W 7489  13.814  23.685  13.504
35065W        W 7490  22.666  38.430   2.704
35066W        W 7491  14.769  11.287  10.971
35067W        W 7492  25.492  39.338  12.432
35068W        W 7493  43.506  11.729  13.004
35069W        W 7494  33.875  35.887   3.290
35070W        W 7495  30.029  30.962  10.483
35071W        W 7496  22.721  18.595  10.530
35072W        W 7497  25.091  38.849  10.614
35073W        W 7498  26.502   9.729   2.844
35074W        W 7499  14.686  38.472   2.722
35075W        W 7500  13.652   0.834  13.899
35076W        W 7501  19.160  27.451   0.419
35077W        W 7502  21.151  15.772   0.474
35078W        W 7503  21.731   6.370   0.349
35079W        W 7504  43.391  26.117   2.403
35080W        W 7505  28.477  26.077  14.799
35081W        W 7506  22.177  32.050  11.376
35082W        W 7507  36.903   5.811  13.983
35083W        W 7508  35.028  21.234   2.395
35084W        W 7509   7.736  11.790   1.904
35085W        W 7510  33.953  43.431  14.314
35086W        W 7511  29.645  17.189   0.797
35087W        W 7512  20.128  18.570  11.521
35088W        W 7513  10.279  30.536   4.135
35089W        W 7514  34.919  25.025  10.126
35090W        W 7515  40.909   8.215   4.203
35091W        W 7516  14.295  37.923   2.184
35092W        W 7517  26.555  13.794  14.352
35093W        W 7518  28.167  38.396   4.355
35094W        W 7519   0.413  31.028  14.394
35095W        W 7520  19.236  34.870   2.314
35096W        W 7521  28.564   9.869  11.944
35097W        W 7522   0.793  37.565  12.489
35098W        W 7523   4.368  39.366  11.577
35099W        W 7524   9.786  29.107  12.906
35100W        W 7525  37.850  20.031  13.055
35101W        W 7526  34.868  11.826  12.477
35102W        W 7527  17.800   0.860  14.956
35103W        W 7528  38.473  16.255  12.342
35104W        W 7529  33.553  29.536   2.759
35105W        W 7530  19.762  16.258   3.338
35106W        W 7531  33.936  15.235   0.414
35107W        W 7532  44.876  29.606   1.319
35108W        W 7533   8.307  37.436   2.662
35109W        W 7534  24.577  23.624  13.383
35110W        W 7535  38.852  19.130   0.303
35111W        W 7536  30.147  44.368  14.335
35112W        W 7537   9.871  36.926  14.493
35113W        W 7538   9.868   1.238  14.361
35114W        W 7539  40.996   9.791   3.165
35115W        W 7540  35.890  42.372   0.347
35116W        W 7541  25.106  21.042   4.249
35117W        W 7542   1.752  42.339   4.767
35118W        W 7543  14.780  41.426  13.994
35119W        W 7544   0.829   8.785  13.920
35120W        W 7545   6.384  26.603   9.993
35121W        W 7546  31.927  30.565  10.603
35122W        W 7547  21.685  13.615   3.666
35123W        W 7548   3.895  30.138   2.700
35124W        W 7549  30.126  20.529   0.338
35125W        W 7550  35.417  13.753  12.983
35126W        W 7551  35.045  17.720   0.439
35127W        W 7552  22.709  34.419   2.304
35128W        W 7553  18.108   3.872  12.412
35129W        W 7554  19.756  26.515   3.732
35130W        W 7555  16.103  44.337   1.261
35131W        W 7556  38.325  26.191  12.830
35132W        W 7557   9.278   0.328   4.728
35133W        W 7558  25.606  27.582   1.812
35134W        W 7559  43.490  34.506   0.456
35135W        W 7560  30.066  41.433  11.055
35136W        W 7561  42.326  11.364   3.360
35137W        W 7562   3.717  33.593  14.463
35138W        W 7563  14.259  30.011  12.913
35139W        W 7564   6.336  42.997  14.981
35140W        W 7565   0.870  23.082   3.181
35141W        W 7566   1.910   3.770   1.841
35142W        W 7567   4.813  15.815   3.701
35143W        W 7568  26.158   2.898   0.788
35144W        W 7569  19.208  15.187  12.054
35145W        W 7570  28.655  28.000  12.569
35146W        W 7571   4.800   6.338   4.324
35147W        W 7572  36.942  18.703  10.632
35148W        W 7573  14.832  19.210   0.734
35149W        W 7574  19.061  26.700   1.873
35150W        W 7575  43.887  43.840  10.586
35151W        W 7576  10.250  10.336   5.148
35152W        W 7577  39.371  23.094  11.421
35153W        W 7578   9.861  34.591   2.776
35154W        W 7579  36.547   5.260  14.431
35155W        W 7580  25.975  40.906   1.226
35156W        W 7581   5.774  10.314  11.947
35157W        W 7582   3.834  39.061   2.329
35158W        W 7583  27.496   1.943   4.305
35159W        W 7584   0.439  43.436   4.318
35160W        W 7585  19.269   1.783   1.372
35161W        W 7586  30.068  42.795   2.326
35162W        W 7587  39.948  28.445   0.391
35163W        W 7588  13.614  31.978   4.705
35164W        W 7589   1.822  24.585   4.343
35165W        W 7590  40.054  42.957  11.567
35166W        W 7591  22.250  31.424  14.299
35167W        W 7592  27.643  29.987  14.838
35168W        W 7593  29.122  28.130   4.646
35169W        W 7594  12.855  28.000  12.505
35170W        W 7595  32.925  39.894   2.855
35171W        W 7596  17.253   6.252   4.179
35172W        W 7597  12.198  24.498   0.335
35173W        W 7598  25.473  23.627  12.417
35174W        W 7599  25.612   9.773   4.766
35175W        W 7600  41.404  44.783   4.172
35176W        W 7601  24.663   1.974   2.744
35177W        W 7602  24.518   7.372   2.809
35178W        W 7603  38.865   0.434   3.849
35179W        W 7604  33.452  18.152   1.712
35180W        W 7605  12.350  38.971  12.401
35181W        W 7606   8.300  35.855   0.401
35182W        W 7607  19.658  40.385   3.163
35183W        W 7608  10.656  22.168  11.937
35184W        W 7609  20.546  29.632  13.352
35185W        W 7610  33.394  30.597   3.225
35186W        W 7611  16.642  11.236   3.784
35187W        W 7612   4.945  28.662  12.503
35188W        W 7613  30.645  40.853   0.358
35189W        W 7614  44.435  25.687   2.353
35190W        W 7615  37.467  35.576   0.742
35191W        W 7616  36.880  24.725  10.097
35192W        W 7617  19.124  14.320   0.884
35193W        W 7618   4.285  33.120  13.972
35194W        W 7619  18.785  44.265  14.794
35195W        W 7620  41.429   4.267   0.844
35196W        W 7621  15.195   8.258   2.228
35197W        W 7622  40.970   3.844  11.917
35198W        W 7623  22.085  19.555   4.663
35199W        W 7624  42.797  34.915  12.872
35200W        W 7625  36.869  22.136   2.305
35201W        W 7626  38.326  31.982  13.490
35202W        W 7627  32.085  36.008  14.351
35203W        W 7628  17.248  13.134   3.182
35204W        W 7629  16.132  40.421   3.187
35205W        W 7630  23.530  15.629  13.348
35206W        W 7631  16.645  26.497  14.961
35207W        W 7632  39.817  12.195   2.816
35208W        W 7633  26.501  24.555  14.995
35209W        W 7634  31.940  38.051   2.770
35210W        W 7635  14.617   7.710  13.054
35211W        W 7636  13.313   9.350  13.405
35212W        W 7637  18.700  41.357  12.900
35213W        W 7638  10.250   3.319  10.129
35214W        W 7639  42.947  40.314  13.044
35215W        W 7640   9.248   5.328  11.039
35216W        W 7641  24.113  42.858   2.833
35217W        W 7642  24.680  23.145   3.382
35218W        W 7643  29.920  43.783  11.927
35219W        W 7644  29.143   6.731   4.741
35220W        W 7645  28.453  30.099  13.006
35221W        W 7646  27.093   6.328  10.602
35222W        W 7647  14.107  41.909   3.287
35223W        W 7648   5.214  17.180   3.241
35224W        W 7649  25.137  43.943   0.905
35225W        W 7650  36.980  12.831   2.861
35226W        W 7651  40.901  24.004  11.419
35227W        W 7652  24.701  28.619  14.356
35228W        W 7653  28.557  33.941   2.349
35229W        W 7654   8.316  26.517  14.387
35230W        W 7655  21.561  18.763   3.839
35231W        W 7656  31.441  34.533   1.817
35232W        W 7657  18.782  21.566   0.419
35233W        W 7658  23.111  29.576   2.246
35234W        W 7659   1.276  39.525   2.673
35235W        W 7660  26.696  16.147   0.778
35236W        W 7661  39.929   2.827  11.125
35237W        W 7662  31.076  42.915  14.870
35238W        W 7663   7.820  17.649   0.309
35239W        W 7664  33.876  23.553  13.332
35240W        W 7665  20.213  17.574   1.255
35241W        W 7666  28.141   8.360   4.687
35242W        W 7667  14.789  25.990   0.834
35243W        W 7668  16.281  44.782  11.044
35244W        W 7669  41.357  41.831   4.787
35245W        W 7670  39.423  17.081   1.764
35246W        W 7671  18.109   9.158  10.636
35247W        W 7672  37.413  27.130  11.504
35248W        W 7673  36.864  20.721  10.489
35249W        W 7674  40.329  26.128  12.979
35250W        W 7675  17.079  38.054  13.016
35251W        W 7676  37.451   6.384   1.887
35252W        W 7677  36.544  19.598  11.114
35253W        W 7678   4.439  43.430  13.818
35254W        W 7679  23.680  15.308   1.797
35255W        W 7680  20.087  41.403   1.412
35256W        W 7681  37.541   2.935  14.462
35257W        W 7682  32.932  19.703   0.924
35258W        W 7683  33.126  34.443   4.666
35259W        W 7684  28.176  28.506  10.483
35260W        W 7685  28.152  41.429   1.836
35261W        W 7686  18.050  20.080   2.395
35262W        W 7687  13.211  39.991   0.787
35263W        W 7688  14.190  18.062   0.893
35264W        W 7689   7.332  42.349  13.937
35265W        W 7690  11.260  19.094   1.381
35266W        W 7691  28.952   3.779  12.414
35267W        W 7692  32.563  12.622   4.270
35268W        W 7693  14.222  43.497   2.313
35269W        W 7694   9.190   8.375  11.125
35270W        W 7695  39.022  16.197  14.373
35271W        W 7696   1.951  41.824  11.608
35272W        W 7697  27.995  39.846  10.475
35273W        W 7698  24.124   9.878  11.092
35274W        W 7699  16.283  23.672   3.195
35275W        W 7700   7.837  20.692   0.927
35276W        W 7701   7.757   6.872   3.860
35277W        W 7702  16.311  38.841   9.991
35278W        W 7703  31.439  36.431  12.460
35279W        W 7704  33.915   4.866   2.377
35280W        W 7705  43.483  21.686  13.310
35281W        W 7706   1.436  39.992  11.029
35282W        W 7707  18.142  39.333  10.923
35283W        W 7708  43.795  29.031   3.155
35284W        W 7709   0.448   3.322  11.866
35285W        W 7710  39.969  31.469  11.901
35286W        W 7711  37.896   2.789   4.341
35287W        W 7712  27.952  12.209  13.379
35288W        W 7713  13.644  27.518  12.410
35289W        W 7714  25.067  36.455  13.363
35290W        W 7715  12.212  22.224   9.489
35291W        W 7716  25.532  27.457   3.195
35292W        W 7717  36.457  37.914  10.572
35293W        W 7718  13.334  16.580   2.342
35294W        W 7719  33.071  17.732  14.357
35295W        W 7720  25.601  37.401  12.354
35296W        W 7721  30.130   2.770  13.515
35297W        W 7722  12.753   4.439   0.916
35298W        W 7723  38.004  37.425  14.866
35299W        W 7724   5.691   2.794  14.354
35300W        W 7725  22.196  38.825   3.825
35301W        W 7726  40.863  29.032   3.268
35302W        W 7727  23.559   7.289   0.469
35303W        W 7728  43.855  26.476  14.026
35304W        W 7729  29.176  35.960   3.279
35305W        W 7730  30.128   7.681  13.973
35306W        W 7731   3.904  23.193   0.363
35307W        W 7732  33.883  27.069  10.964
35308W        W 7733  14.189  20.072   1.372
35309W        W 7734  30.056   6.808  14.885
35310W        W 7735  20.271   9.391  13.819
35311W        W 7736  24.974  22.093   4.597
35312W        W 7737  16.233  26.687   2.195
35313W        W 7738  27.961  22.999  11.565
35314W        W 7739  26.191  44.963  12.523
35315W        W 7740  28.437  30.140  10.987
35316W        W 7741  30.136   1.473  11.470
35317W        W 7742   1.446   3.282  10.644
35318W        W 7743  19.139  39.007   1.862
35319W        W 7744  11.766  39.053   4.268
35320W        W 7745  37.911   5.343  11.033
35321W        W 7746  12.354   4.910   0.850
35322W        W 7747  27.007   4.797  14.472
35323W        W 7748   5.243  36.516  13.046
35324W        W 7749   0.888  36.990   0.474
35325W        W 7750   6.912  41.349   4.241
35326W        W 7751   1.899  20.148   1.721
35327W        W 7752  19.163  28.018   3.633
35328W        W 7753  13.622  17.218  13.357
35329W        W 7754  43.986   1.448   3.204
35330W        W 7755  25.020  26.617  14.766
35331W        W 7756   4.405  32.978  14.876
35332W        W 7757   8.189  28.591   0.795
35333W        W 7758   4.276  14.175   1.711
35334W        W 7759  33.565   9.194  12.909
35335W        W 7760  35.461  35.936  12.525
35336W        W 7761  21.606   4.433  12.832
35337W        W 7762  21.113  20.579   2.733
35338W        W 7763   7.748  41.932   0.432
35339W        W 7764  22.151  19.589   1.867
35340W        W 7765  28.640  16.754   0.767
35341W        W 7766  23.691  33.975   2.185
35342W        W 7767  35.526  43.825   1.855
35343W        W 7768  31.121  31.955   1.303
35344W        W 7769  21.074   8.195  11.920
35345W        W 7770  10.284  41.034   4.149
35346W        W 7771  24.978  10.374   0.937
35347W        W 7772  26.475   4.402  13.932
35348W        W 7773  40.009   2.939  12.997
35349W        W 7774  40.333  39.906  11.500
35350W        W 7775  13.738  17.220  10.938
35351W        W 7776   5.787   8.289   4.679
35352W        W 7777  27.661  43.786   4.692
35353W        W 7778  26.062   9.659  12.411
35354W        W 7779  29.929  43.943  11.401
35355W        W 7780  33.040  19.616  12.048
35356W        W 7781   6.816  27.017   1.407
35357W        W 7782  19.213  31.992   0.254
35358W        W 7783  11.804  38.493   2.294
35359W        W 7784  37.886   3.886   1.833
35360W        W 7785  12.335  27.654   1.717
35361W        W 7786   5.857  36.475  10.137
35362W        W 7787  38.906   5.835   4.260
35363W        W 7788   1.266  21.230   4.341
35364W        W 7789  24.998  40.399   3.360
35365W        W 7790   6.421   1.475   3.634
35366W        W 7791  42.815  33.549  14.280
35367W        W 7792  42.838   5.207  13.981
35368W        W 7793  35.497  15.707  10.040
35369W        W 7794  29.468   9.231   3.719
35370W        W 7795  28.510   6.210   3.708
35371W        W 7796   0.750   3.301  14.426
35372W        W 7797  43.962  18.605   3.847
35373W        W 7798  34.516  28.103   1.721
35374W        W 7799  38.909  22.242  13.794
35375W        W 7800  14.816  21.215   1.332
35376W        W 7801  44.936  15.589   3.167
35377W        W 7802  14.207  32.920  13.885
35378W        W 7803  22.189  16.168  14.965
35379W        W 7804  25.713  23.094   1.273
35380W        W 7805  30.081  39.971   3.789
35381W        W 7806  23.071   3.228   4.187
35382W        W 7807   1.367  32.972  11.578
35383W        W 7808   2.900  10.350   1.348
35384W        W 7809  16.229  41.982  14.875
35385W        W 7810   6.914   3.805  11.546
35386W        W 7811  28.502  13.213  11.477
35387W        W 7812  43.440  40.391  12.038
35388W        W 7813  13.308  12.728  13.025
35389W        W 7814  10.303  24.614   2.680
35390W        W 7815  10.374  10.683   3.856
35391W        W 7816  24.539  12.294  10.906
35392W        W 7817  42.822   7.823  13.995
35393W        W 7818  27.557  41.912  12.549
35394W        W 7819  35.550  18.645  12.573
35395W        W 7820   8.343   1.252  13.407
35396W        W 7821  32.099  27.491  11.101
35397W        W 7822  32.604  36.523  12.356
35398W        W 7823  10.361  15.619   4.116
35399W        W 7824  44.476  34.506   0.931
35400W        W 7825  16.657  41.313  11.389
35401W        W 7826   4.766  36.990  13.971
35402W        W 7827  41.893   0.803   4.628
35403W        W 7828  14.726  15.670  12.841
35404W        W 7829   9.242  34.873   0.820
35405W        W 7830   5.353  11.259   4.139
35406W        W 7831   2.889  34.525  10.477
35407W        W 7832  15.090  12.208   1.357
35408W        W 7833  43.318  17.740   2.240
35409W        W 7834  12.648  15.765  11.870
35410W        W 7835  20.210  44.320  11.412
35411W        W 7836  18.759  18.651  14.787
35412W        W 7837   8.841  20.078   1.706
35413W        W 7838  18.263  35.582   3.745
35414W        W 7839  27.113  34.062   3.699
35415W        W 7840  37.569  29.435  12.957
35416W        W 7841  30.592  18.149  13.970
35417W        W 7842  19.126  22.011  12.468
35418W        W 7843  38.939  31.114   3.645
35419W        W 7844  10.779   0.981  12.829
35420W        W 7845  27.464  37.961  13.057
35421W        W 7846  29.469  25.558  12.048
35422W        W 7847  18.683  27.090  13.022
35423W        W 7848   8.713  14.679   1.773
35424W        W 7849  35.900  25.505   1.919
35425W        W 7850  14.202  14.112  11.864
35426W        W 7851   6.192   5.870  12.894
35427W        W 7852  27.600  20.525   4.116
35428W        W 7853  42.964   1.842  10.009
35429W        W 7854  31.428   6.679   0.409
35430W        W 7855  40.866  13.316  14.904
35431W        W 7856  26.073  25.528  14.827
35432W        W 7857   5.820  20.596  11.074
35433W        W 7858  36.848  23.604  13.910
35434W        W 7859  12.215  23.620   9.677
35435W        W 7860  12.248  12.724  11.539
35436W        W 7861   3.287  30.928  14.376
35437W        W 7862  12.219   0.399   2.308
35438W        W 7863  26.006  24.655  14.277
35439W        W 7864  13.126   2.248  13.357
35440W        W 7865  34.410  24.108   0.923
35441W        W 7866   6.804  25.157  10.556
35442W        W 7867  22.709  33.579   4.158
35443W        W 7868  44.400   8.380  13.866
35444W        W 7869   2.918   8.780  12.373
35445W        W 7870  28.110  36.438  11.075
35446W        W 7871  15.316   3.908  14.931
35447W        W 7872  29.034  19.118   4.627
35448W        W 7873   5.850   4.793   3.819
35449W        W 7874   5.893   5.914   4.198
35450W        W 7875  13.753   0.476   4.675
35451W        W 7876  19.214  16.710  10.619
35452W        W 7877  30.038  16.572   1.384
35453W        W 7878  11.343  10.728  13.495
35454W        W 7879  40.971   4.854   3.160
35455W        W 7880  34.112  43.864  13.002
35456W        W 7881  27.624  34.505  12.881
35457W        W 7882  29.537  40.394  13.916
35458W        W 7883  16.303  40.397  10.888
35459W        W 7884  14.195  11.211  12.040
35460W        W 7885  25.636  17.119  13.896
35461W        W 7886  28.463  27.672   4.161
35462W        W 7887  42.299  34.470   4.695
35463W        W 7888   2.913  21.214   3.816
35464W        W 7889   1.434  10.304   0.832
35465W        W 7890  44.470   3.438   1.769
35466W        W 7891  44.857   0.856   1.832
35467W        W 7892  34.448   1.883   3.799
35468W        W 7893  34.996  39.853   2.403
35469W        W 7894  32.959  40.906   3.338
35470W        W 7895  23.040  42.336   2.873
35471W        W 7896   8.878  15.324  14.365
35472W        W 7897   9.202   4.817  13.311
35473W        W 7898   8.290  24.001  11.121
35474W        W 7899  43.299  32.584  10.410
35475W        W 7900  35.584  17.710   0.381
35476W        W 7901   5.233  18.183   2.759
35477W        W 7902   6.705   5.765  14.297
35478W        W 7903  41.526  25.008   0.398
35479W        W 7904  31.001  29.447  14.439
35480W        W 7905  17.221  21.029   3.738
35481W        W 7906  15.629   9.792   2.208
35482W        W 7907  35.598   8.837   1.302
35483W        W 7908  15.258  39.889  11.998
35484W        W 7909   6.355  21.733  11.104
35485W        W 7910   6.207   1.393  13.430
35486W        W 7911  10.268   3.726   2.868
35487W        W 7912  36.894  15.306  13.315
35488W        W 7913  30.940  32.989   0.886
35489W        W 7914  38.824  39.461   4.199
35490W        W 7915  15.190  33.577  12.086
35491W        W 7916   6.292  36.848   0.253
35492W        W 7917   5.800   8.859   1.837
35493W        W 7918  29.007   7.383  11.486
35494W        W 7919  34.477   5.892   4.809
35495W        W 7920  37.480  27.521   0.243
35496W        W 7921  43.326  12.644  13.937
35497W        W 7922  39.876  39.056  13.962
35498W        W 7923  13.247  36.361  10.902
35499W        W 7924  29.580  38.974  14.385
35500W        W 7925   8.745  13.237  11.522
35501W        W 7926   3.441  16.810   0.385
35502W        W 7927  32.626   5.903  11.504
35503W        W 7928   0.452   3.823   4.131
35504W        W 7929   2.804  17.207  11.440
35505W        W 7930  42.953   0.284  12.037
35506W        W 7931  25.692  33.079  12.043
35507W        W 7932   2.233  22.746  10.584
35508W        W 7933   5.753  11.214  13.548
35509W        W 7934   5.396  23.650  11.471
35510W        W 7935  29.044   9.805   4.219
35511W        W 7936  24.055  34.519   2.808
35512W        W 7937   6.321  33.401  14.477
35513W        W 7938  26.961  35.929   0.351
35514W        W 7939  12.222  35.602  13.006
35515W        W 7940  35.561  23.075   4.282
35516W        W 7941  28.617  24.192   0.803
35517W        W 7942  30.494  20.660   1.422
35518W        W 7943  43.449  34.581   1.790
35519W        W 7944   8.853   0.751  10.961
35520W        W 7945  38.995  22.083   4.231
35521W        W 7946  27.084  31.915   5.292
35522W        W 7947  43.855  21.214  12.979
35523W        W 7948  19.133  13.192   0.422
35524W        W 7949  24.568  32.515  13.921
35525W        W 7950  43.015  39.028   0.387
35526W        W 7951   2.942   7.379  13.795
35527W        W 7952  19.261  40.340   2.738
35528W        W 7953   7.681  31.124  13.889
35529W        W 7954   0.817  42.426  11.986
35530W        W 7955  36.900  37.052   2.732
35531W        W 7956  21.260  13.148  12.386
35532W        W 7957   9.847  23.698   3.284
35533W        W 7958  25.478   2.897  13.886
35534W        W 7959  10.346  44.776  12.569
35535W        W 7960  31.642  15.672  10.551
35536W        W 7961   3.219  19.084   1.269
35537W        W 7962   1.949  19.721   4.679
35538W        W 7963  37.466   9.859  14.434
35539W        W 7964  11.310  36.996  14.422
35540W        W 7965  28.596  20.245  11.410
35541W        W 7966  12.725  38.480   4.772
35542W        W 7967  38.969   6.806  11.385
35543W        W 7968  18.765  41.311  14.492
35544W        W 7969  32.599   1.799   4.166
35545W        W 7970  12.818  13.173  13.898
35546W        W 7971  17.277   7.805  14.958
35547W        W 7972  22.639  34.386  14.027
35548W        W 7973  22.111  13.345   1.315
35549W        W 7974   3.237   2.737   4.836
35550W        W 7975  40.489   8.282  14.510
35551W        W 7976  20.579  42.466  13.898
35552W        W 7977  20.576  20.652  12.343
35553W        W 7978  12.316   5.813  13.315
35554W        W 7979  12.178   7.410   0.290
35555W        W 7980  29.026   2.314  10.483
35556W        W 7981  20.665  31.603  10.504
35557W        W 7982   9.168  41.947  12.521
35558W        W 7983   3.760   1.753  13.386
35559W        W 7984  18.692  11.846  12.003
35560W        W 7985   2.947  17.738   0.899
35561W        W 7986  35.039  10.165   3.256
35562W        W 7987  37.458  39.484  13.391
35563W        W 7988  21.703  26.995  12.355
35564W        W 7989   5.724  18.574   0.318
35565W        W 7990   4.773  11.835  12.372
35566W        W 7991  29.597  40.908   1.903
35567W        W 7992  37.839  12.318  11.505
35568W        W 7993  34.605  26.606   0.265
35569W        W 7994  26.132  37.533   0.278
35570W        W 7995  38.019   5.917  12.898
35571W        W 7996  27.077  39.007  13.467
35572W        W 7997  23.674  40.855   2.736
35573W        W 7998  18.082  21.172  13.057
35574W        W 7999   9.740  13.119   4.833
35575W        W 8000  11.345  42.292  10.940
35576W        W 8001  32.091   8.784  14.809
35577W        W 8002   9.806  31.532   3.699
35578W        W 8003  24.599  13.176  10.543
35579W        W 8004  38.819  26.082  13.348
35580W        W 8005  27.038  21.217  11.088
35581W        W 8006   9.276  23.107   3.719
35582W        W 8007  33.945  11.334  12.945
35583W        W 8008   8.369  27.100   3.861
35584W        W 8009  28.593  15.624  14.293
35585W        W 8010  31.901  39.954  10.893
35586W        W 8011  44.906  22.072  10.476
35587W        W 8012  10.854   3.817  12.530
35588W        W 8013  43.406   5.223   4.734
35589W        W 8014   7.760  19.082  11.608
35590W        W 8015  10.308  15.807  13.330
35591W        W 8016   6.324  31.051  11.932
35592W        W 8017  41.496  35.075   2.413
35593W        W 8018  26.482  19.107   0.249
35594W        W 8019  10.270   2.430  11.414
35595W        W 8020   4.807  23.056   5.108
35596W        W 8021  33.005  10.305   0.818
35597W        W 8022  28.521  30.159   2.201
35598W        W 8023  44.459  43.943   3.175
35599W        W 8024  10.679  39.439  10.464
35600W        W 8025  42.384   6.813   2.307
35601W        W 8026  17.645  30.948   3.171
35602W        W 8027  14.142  34.006  10.929
35603W        W 8028  38.057  23.633  14.876
35604W        W 8029  42.293   1.425  13.546
35605W        W 8030  24.110  15.156   3.321
35606W        W 8031  15.293  37.057   1.906
35607W        W 8032  29.426  42.376   3.834
35608W        W 8033  31.094  27.024   1.695
35609W        W 8034   4.384   9.382  11.004
35610W        W 8035   4.282   5.747  14.834
35611W        W 8036   5.729  29.569  14.838
35612W        W 8037   5.878  18.647  12.983
35613W        W 8038  10.154  37.467   4.324
35614W        W 8039  27.032  44.825  14.320
35615W        W 8040  16.657  38.847   3.818
35616W        W 8041   2.810  44.342  11.551
35617W        W 8042   3.359   0.387   4.258
35618W        W 8043  30.476   2.906  11.431
35619W        W 8044   3.747  11.726  11.896
35620W        W 8045  25.509  17.151  13.352
35621W        W 8046   0.934  40.510  11.947
35622W        W 8047   6.788  28.610  13.411
35623W        W 8048  23.505   3.772  11.988
35624W        W 8049  34.444   6.821  12.476
35625W        W 8050  24.521  34.903  11.890
35626W        W 8051  43.871   3.320   0.889
35627W        W 8052   0.308   6.863  12.880
35628W        W 8053  28.505   0.948   1.865
35629W        W 8054   0.764   5.853  12.049
35630W        W 8055  30.516  23.687  12.930
35631W        W 8056   0.786  23.679   2.273
35632W        W 8057  27.033  14.661  14.330
35633W        W 8058  39.028  33.563   5.308
35634W        W 8059   1.833  22.110   4.612
35635W        W 8060  14.124  14.198   1.234
35636W        W 8061   3.432  24.613   4.669
35637W        W 8062  32.083  22.621   5.155
35638W        W 8063  13.683  33.476   0.743
35639W        W 8064   1.974  20.063  10.926
35640W        W 8065   9.360  30.139   2.241
35641W        W 8066  37.345   6.799  11.962
35642W        W 8067  31.592  41.874  11.558
35643W        W 8068  28.002  23.709  14.279
35644W        W 8069  39.915  21.130   3.210
35645W        W 8070  42.008   5.919   1.395
35646W        W 8071   2.243   3.394  10.468
35647W        W 8072  32.589  39.890  12.954
35648W        W 8073  35.080   3.455   2.360
35649W        W 8074   0.441  43.490  10.453
35650W        W 8075   8.898   9.843  13.375
35651W        W 8076   2.937  42.841   3.753
35652W        W 8077  30.595  11.192  14.463
35653W        W 8078  34.896  27.666   4.814
35654W        W 8079  10.283  27.126   0.940
35655W        W 8080  41.536  41.367   1.864
35656W        W 8081  32.127  11.217  11.994
35657W        W 8082  24.601  34.998   3.647
35658W        W 8083  18.088  42.876   4.200
35659W        W 8084  29.990  10.374   0.833
35660W        W 8085  12.611   5.261   4.221
35661W        W 8086  30.132  35.363  11.008
35662W        W 8087   0.332  29.170  13.492
35663W        W 8088  34.953   9.869   3.205
35664W        W 8089  42.897  37.859  12.073
35665W        W 8090  41.419  10.154   2.840
35666W        W 8091  34.951  41.536   1.288
35667W        W 8092  23.708  29.469   0.430
35668W        W 8093  18.230  12.314  13.927
35669W        W 8094  43.879  31.983  10.990
35670W        W 8095   2.771  26.120  13.916
35671W        W 8096   6.403  18.149  13.437
35672W        W 8097  35.586   9.188   3.238
35673W        W 8098  35.060   8.858  14.852
35674W        W 8099   8.774  22.181   4.715
35675W        W 8100  38.922  25.499   2.219
35676W        W 8101   1.867  15.755  13.535
35677W        W 8102  11.171  34.407   4.713
35678W        W 8103  19.547  28.553   0.291
35679W        W 8104  36.431  23.566   3.202
35680W        W 8105   8.891  17.135   3.665
35681W        W 8106  22.605  25.079   3.260
35682W        W 8107  31.507  10.830  11.948
35683W        W 8108  37.358   0.855  10.581
35684W        W 8109  41.450   6.725  11.982
35685W        W 8110  34.570  14.639  14.947
35686W        W 8111   9.185  12.669  12.367
35687W        W 8112  26.136  17.213  13.908
35688W        W 8113   9.210   2.347  10.561
35689W        W 8114   1.935  15.670   4.290
35690W        W 8115  27.467   6.333   1.863
35691W        W 8116   3.773  42.874   0.818
35692W        W 8117   0.832  31.004  12.871
35693W        W 8118  28.953  41.866  11.083
35694W        W 8119   6.242  21.602   4.204
35695W        W 8120  28.099  26.007   1.232
35696W        W 8121   7.813  22.727   0.378
35697W        W 8122  41.524   6.743   1.312
35698W        W 8123   2.447  42.491  11.403
35699W        W 8124  23.216  21.540  11.024
35700W        W 8125  29.997   7.747  11.542
35701W        W 8126  22.670  25.190  12.407
35702W        W 8127  39.883   8.241  11.481
35703W        W 8128   5.830  20.184  13.039
35704W        W 8129   5.855   4.775   1.406
35705W        W 8130  38.025  31.418   4.311
35706W        W 8131  19.761  30.941  10.405
35707W        W 8132  23.651  15.167  13.043
35708W        W 8133  17.652   5.340  14.324
35709W        W 8134  35.069  43.356  11.028
35710W        W 8135  19.760  24.010   0.438
35711W        W 8136   9.282  43.450  12.893
35712W        W 8137  44.408   3.799   2.791
35713W        W 8138   5.347  28.149  12.092
35714W        W 8139   9.758  28.041   2.807
35715W        W 8140   1.396  26.976   2.766
35716W        W 8141  43.823   6.329  13.429
35717W        W 8142  23.106  12.741   0.416
35718W        W 8143  28.542  28.168   1.761
35719W        W 8144  20.544   3.806   0.324
35720W        W 8145  26.593  12.812   1.930
35721W        W 8146  32.507   5.345  10.456
35722W        W 8147  29.152  37.942   3.212
35723W        W 8148   3.923  25.149   2.242
35724W        W 8149  21.224   2.797  13.039
35725W        W 8150  17.107  44.259  14.950
35726W        W 8151  22.588  12.614   3.630
35727W        W 8152   1.290   9.804   4.300
35728W        W 8153  24.022  10.295   3.231
35729W        W 8154  17.246  22.569  12.444
35730W        W 8155  28.583  32.917  12.072
35731W        W 8156  10.870  40.468  10.555
35732W        W 8157  42.385  41.919  12.394
35733W        W 8158   8.766  11.199  12.477
35734W        W 8159  10.288  30.598   0.910
35735W        W 8160  39.452  29.570  12.963
35736W        W 8161  19.229   1.859   3.863
35737W        W 8162   6.299   1.895   3.207
35738W        W 8163   0.402   8.772   9.955
35739W        W 8164  44.354   6.271   5.188
35740W        W 8165   6.324   6.325   2.258
35741W        W 8166   5.707  43.272  14.920
35742W        W 8167  44.326  22.037   0.738
35743W        W 8168  24.495  38.462   4.702
35744W        W 8169   4.365  19.041  12.971
35745W        W 8170  17.670   2.243   9.655
35746W        W 8171  33.380   5.329  10.146
35747W        W 8172  27.539  27.579  14.838
35748W        W 8173   5.261   6.305  13.898
35749W        W 8174  21.559  12.362   1.762
35750W        W 8175  12.827  23.643   5.098
35751W        W 8176  27.539  42.877   4.642
35752W        W 8177   0.914   3.727   3.689
35753W        W 8178   6.683   8.900  12.480
35754W        W 8179  34.882   2.911   3.367
35755W        W 8180  24.069  13.618   0.310
35756W        W 8181  18.629  26.610   1.404
35757W        W 8182  42.408   6.274   1.332
35758W        W 8183  40.910  41.910  12.069
35759W        W 8184  32.547  23.002  12.404
35760W        W 8185  43.774   4.727   2.415
35761W        W 8186   0.952  25.098   4.774
35762W        W 8187  15.202   0.426   0.888
35763W        W 8188  12.620  31.583   0.766
35764W        W 8189  39.992  23.682  12.416
35765W        W 8190   5.711  31.441   4.129
35766W        W 8191  24.020  14.181  12.996
35767W        W 8192  38.001  16.642   0.416
35768W        W 8193  41.309  17.579  12.462
35769W        W 8194   2.937  43.290   2.283
35770W        W 8195  31.468  39.461   2.195
35771W        W 8196  37.968  28.988  14.350
35772W        W 8197  26.072   9.354   0.760
35773W        W 8198  36.934  28.614  11.525
35774W        W 8199  26.462  38.415  14.908
35775W        W 8200  26.464   8.271   2.877
35776W        W 8201   4.350  30.513  14.769
35777W        W 8202  19.696  22.613   3.169
35778W        W 8203  40.951  14.754  11.959
35779W        W 8204  13.699  33.976   3.175
35780W        W 8205  41.538  28.942   4.620
35781W        W 8206   8.775  18.173   2.311
35782W        W 8207  25.201  19.068  11.123
35783W        W 8208  28.145  24.505  14.885
35784W        W 8209  37.051  32.104   2.800
35785W        W 8210  16.586   8.877   1.292
35786W        W 8211  29.563  37.980  14.385
35787W        W 8212  24.583  19.570   2.406
35788W        W 8213  33.427  21.106   2.746
35789W        W 8214   9.393  22.674  11.458
35790W        W 8215  26.128  26.608   1.244
35791W        W 8216  12.612   4.215   2.707
35792W        W 8217  12.122  12.814  12.456
35793W        W 8218   2.895  22.708  13.972
35794W        W 8219  17.154  35.984  14.929
35795W        W 8220   5.816  11.318   1.411
35796W        W 8221  16.622  34.944  10.513
35797W        W 8222   8.382  18.056   3.231
35798W        W 8223   6.679  31.913   3.199
35799W        W 8224  22.013  44.908   4.758
35800W        W 8225  10.684  24.575  11.417
35801W        W 8226  30.094   0.441   4.806
35802W        W 8227  24.722  40.930  11.999
35803W        W 8228  14.328  39.318  13.319
35804W        W 8229  39.435  38.535  13.317
35805W        W 8230   3.711  19.754  12.063
35806W        W 8231  24.510  40.410  12.979
35807W        W 8232  18.183  42.831   1.825
35808W        W 8233   5.703  16.786   0.471
35809W        W 8234  10.841  42.866  14.767
35810W        W 8235  31.018  20.057   1.802
35811W        W 8236  32.489  38.000   4.343
35812W        W 8237  41.464   7.742  14.513
35813W        W 8238   2.384  26.594   0.294
35814W        W 8239  31.542  30.525   2.814
35815W        W 8240   5.309  39.021   4.813
35816W        W 8241   8.326  42.442  11.526
35817W        W 8242  37.080  35.391   3.229
35818W        W 8243   6.865  18.143  12.971
35819W        W 8244  30.581  37.552  11.870
35820W        W 8245   7.179  19.252   3.714
35821W        W 8246   5.402  11.720  14.896
35822W        W 8247  33.493  41.841   3.697
35823W        W 8248  12.643  21.546   4.139
35824W        W 8249   0.269   5.850   0.869
35825W        W 8250  33.058  24.158   0.935
35826W        W 8251  44.975   4.320   3.862
35827W        W 8252  11.628  17.199  10.069
35828W        W 8253  15.701  36.971   4.229
35829W        W 8254  33.527  13.623   3.375
35830W        W 8255  30.039  14.260  10.932
35831W        W 8256  32.509  15.320   3.706
35832W        W 8257  42.963   4.424  12.947
35833W        W 8258  32.605  27.058  13.845
35834W        W 8259  22.631  44.494   3.356
35835W        W 8260  36.088  35.447   3.216
35836W        W 8261  31.406  38.979  10.604
35837W        W 8262  39.058  33.384  13.332
35838W        W 8263  25.112  34.569  12.409
35839W        W 8264  15.121  23.118   2.777
35840W        W 8265  15.175  31.461   1.297
35841W        W 8266  31.621  40.040   2.289
35842W        W 8267  30.086  28.556   3.792
35843W        W 8268  42.282  36.070   1.832
35844W        W 8269  27.993  13.615   4.662
35845W        W 8270  37.055   0.901  10.635
35846W        W 8271  27.019  12.821  12.410
35847W        W 8272  30.164   0.861  13.815
35848W        W 8273  29.940  19.245  10.898
35849W        W 8274  28.033  43.820   2.370
35850W        W 8275  35.023  32.573  12.497
35851W        W 8276  26.085  13.815  12.858
35852W        W 8277  32.519  27.616  12.049
35853W        W 8278  43.975  23.542   3.809
35854W        W 8279   0.876  42.442  10.926
35855W        W 8280  20.093   4.385  10.599
35856W        W 8281   1.780   0.470   0.745
35857W        W 8282   7.199  18.293   1.907
35858W        W 8283  31.932  35.463   5.306
35859W        W 8284  15.126  23.645  13.032
35860W        W 8285  16.140  21.046  14.459
35861W        W 8286  28.955   7.380  12.041
35862W        W 8287  44.864  17.703  10.560
35863W        W 8288  34.991  42.447  14.489
35864W        W 8289  22.565   2.385  14.010
35865W        W 8290  16.138  30.986  13.948
35866W        W 8291  10.790  32.471  14.852
35867W        W 8292   0.335   2.346  14.330
35868W        W 8293  10.338  13.719  13.379
35869W        W 8294   8.795  44.901  14.799
35870W        W 8295   1.892  42.435   1.276
35871W        W 8296  32.048   0.961   0.379
35872W        W 8297  14.325  24.060   4.184
35873W        W 8298   9.658  29.062   3.383
35874W        W 8299  15.253   4.335   1.916
35875W        W 8300  43.815  19.554  13.388
35876W        W 8301  24.510   9.761  12.399
35877W        W 8302  30.613  16.744  11.096
35878W        W 8303   8.360  22.686  13.426
35879W        W 8304   1.774  10.312  10.910
35880W        W 8305   1.763  12.666  10.547
35881W        W 8306  20.052  19.577  13.509
35882W        W 8307  31.616  28.107  12.922
35883W        W 8308  39.399  41.982   1.715
35884W        W 8309  12.196   9.227   0.745
35885W        W 8310  43.904   8.705  13.944
35886W        W 8311  36.459  16.800   0.737
35887W        W 8312  27.055  11.264  14.820
35888W        W 8313  28.953  22.088  11.867
35889W        W 8314  28.012   6.364  10.490
35890W        W 8315   3.458  14.115  12.914
35891W        W 8316  27.118  30.652   2.257
35892W        W 8317  39.509  21.220  11.007
35893W        W 8318  41.537  15.775   1.806
35894W        W 8319  44.298   6.289   1.702
35895W        W 8320  34.033  25.554   2.373
35896W        W 8321   7.321  39.553   3.214
35897W        W 8322   4.410  35.110   0.929
35898W        W 8323  23.082  28.102   1.908
35899W        W 8324  32.586  29.148   5.178
35900W        W 8325  34.544  22.199   3.651
35901W        W 8326  19.124  43.492   4.183
35902W        W 8327   5.304  15.324   4.128
35903W        W 8328  34.953  44.847  14.498
35904W        W 8329  12.205  31.522   0.738
35905W        W 8330  42.411   4.815  14.917
35906W        W 8331   7.412  18.651  14.911
35907W        W 8332  38.831  17.210  14.427
35908W        W 8333  13.215  42.979   1.330
35909W        W 8334  36.982  36.090   2.346
35910W        W 8335  40.412  14.288   2.334
35911W        W 8336   5.411  39.399  14.880
35912W        W 8337  24.062  36.886   2.349
35913W        W 8338  38.967  38.937  12.884
35914W        W 8339  14.299  27.627  14.322
35915W        W 8340  17.703  12.318   1.826
35916W        W 8341  15.789  26.536   2.212
35917W        W 8342  18.562  13.206   1.290
35918W        W 8343  24.627  30.953  11.590
35919W        W 8344  12.185  31.128   4.794
35920W        W 8345  13.146  42.359   0.273
35921W        W 8346  32.616  40.853   0.340
35922W        W 8347  22.031  10.684   3.386
35923W        W 8348  32.990   4.806   0.746
35924W        W 8349  30.446  37.832   3.205
35925W        W 8350  24.489  20.690   1.798
35926W        W 8351  14.639  39.869   0.817
35927W        W 8352  21.181  10.710  13.416
35928W        W 8353  29.118  39.904  13.372
35929W        W 8354   2.953  40.923   2.896
35930W        W 8355   7.281  38.529  10.948
35931W        W 8356  42.873  15.154  14.433
35932W        W 8357  39.060  34.499  11.879
35933W        W 8358  41.898  44.328   0.277
35934W        W 8359   3.931  35.366  13.338
35935W        W 8360  24.635  39.556  13.537
35936W        W 8361  38.874  24.125  12.096
35937W        W 8362  15.138  24.600   2.775
35938W        W 8363  38.927   4.379  10.542
35939W        W 8364  25.686  37.907  10.491
35940W        W 8365   5.248  10.705   4.307
35941W        W 8366  38.937  10.723  14.487
35942W        W 8367  21.711   0.278   3.678
35943W        W 8368  40.866  38.038  11.070
35944W        W 8369  42.433  18.133   2.784
35945W        W 8370  25.026  31.087  14.944
35946W        W 8371  19.272  21.659  11.071
35947W        W 8372  42.933   3.291   1.834
35948W        W 8373  41.002  38.859   2.289
35949W        W 8374  18.092  42.415   4.280
35950W        W 8375   3.239   2.236   5.168
35951W        W 8376  32.602   5.889   2.769
35952W        W 8377  29.947   7.871  10.504
35953W        W 8378  40.335  39.949  14.848
35954W        W 8379  41.422   8.381   4.672
35955W        W 8380  28.129  18.757   4.314
35956W        W 8381   2.725  38.426   1.903
35957W        W 8382  25.482   1.738   0.728
35958W        W 8383  19.546   0.795   3.779
35959W        W 8384   9.723  31.137   3.209
35960W        W 8385   6.821  18.253  13.991
35961W        W 8386  24.104  18.680  11.106
35962W        W 8387  18.223  25.174  11.610
35963W        W 8388  35.550  33.465   1.416
35964W        W 8389  24.981  24.225   0.898
35965W        W 8390  21.593   9.354   2.183
35966W        W 8391  32.018   1.870   4.199
35967W        W 8392  40.498  19.256  14.901
35968W        W 8393  42.376  44.848  13.860
35969W        W 8394  43.796   1.373  13.920
35970W        W 8395   6.789  28.053  10.986
35971W        W 8396   2.770   8.311  12.986
35972W        W 8397  32.122  22.690   3.178
35973W        W 8398  20.200  35.898   3.819
35974W        W 8399  19.118  18.227  13.019
35975W        W 8400  43.375  11.638   9.944
35976W        W 8401  13.295   1.259  14.016
35977W        W 8402   8.728  26.994   2.296
35978W        W 8403  32.424  33.546   4.197
35979W        W 8404  16.805  11.803  11.488
35980W        W 8405  39.812  44.927  11.458
35981W        W 8406  39.449   8.704   2.370
35982W        W 8407  37.945   1.748  14.323
35983W        W 8408  16.700  41.974   2.900
35984W        W 8409  21.649  32.979   4.352
35985W        W 8410   5.753  24.121  10.940
35986W        W 8411   9.273  44.263  14.994
35987W        W 8412  11.164   7.233   4.199
35988W        W 8413  41.013   0.962  13.882
35989W        W 8414  12.202  31.454   2.827
35990W        W 8415  44.338  41.469  11.611
35991W        W 8416  12.355  21.698   2.772
35992W        W 8417  39.855  11.290   3.205
35993W        W 8418  36.572   2.833   2.798
35994W        W 8419  19.717  28.597   4.721
35995W        W 8420  27.135  10.698   0.288
35996W        W 8421  29.027   4.763   4.779
35997W        W 8422   4.712   5.726   3.257
35998W        W 8423  41.439  29.104  13.448
35999W        W 8424  31.629  12.270   1.279
36000W        W 8425  41.907  37.051   1.745
36001W        W 8426  21.748  35.564   4.650
36002W        W 8427  19.132   5.206  14.994
36003W        W 8428  37.871  42.837  12.053
36004W        W 8429  28.530   0.769  10.925
36005W        W 8430  14.644   2.288   1.424
36006W        W 8431  14.645  33.501  10.632
36007W        W 8432   5.780  12.213  12.577
36008W        W 8433  11.256  28.456  14.942
36009W        W 8434  14.324  37.352   2.675
36010W        W 8435  37.844  44.889  12.389
36011W        W 8436  11.793  12.331  14.387
36012W        W 8437   6.844  28.099   3.353
36013W        W 8438  43.381   7.781  12.072
36014W        W 8439  19.682  10.768  12.996
36015W        W 8440  43.838  39.425   0.742
36016W        W 8441  16.734   4.413  11.429
36017W        W 8442  36.499  41.396  13.796
36018W        W 8443   5.259  15.126  13.792
36019W        W 8444  31.508   0.861   3.641
36020W        W 8445  38.510  10.817   1.820
36021W        W 8446  24.229  12.829   4.267
36022W        W 8447  21.120  21.142  11.024
36023W        W 8448  25.615  24.659  11.474
36024W        W 8449  43.315  43.298  11.973
36025W        W 8450  44.899  26.206   2.242
36026W        W 8451  39.964  23.571   4.329
36027W        W 8452  13.628  24.581   1.375
36028W        W 8453  36.502   0.902   2.834
36029W        W 8454  16.099  21.205   0.293
36030W        W 8455  31.101  34.512  10.131
36031W        W 8456  21.564  28.676   3.630
36032W        W 8457  36.976  30.587  10.473
36033W        W 8458   2.389  39.557   0.381
36034W        W 8459  15.156  15.159  14.287
36035W        W 8460  17.764  15.218  12.399
36036W        W 8461   6.216   3.901  12.914
36037W        W 8462  17.293  17.104   4.134
36038W        W 8463   1.872  25.569  13.026
36039W        W 8464  28.619  19.612  13.870
36040W        W 8465  40.799  31.564   2.753
36041W        W 8466   9.242  14.643   3.694
36042W        W 8467  27.152  35.104  14.457
36043W        W 8468  40.508  41.011  12.481
36044W        W 8469  38.381   1.261  14.781
36045W        W 8470   1.786   9.693  11.548
36046W        W 8471   0.336  26.106  10.544
36047W        W 8472  13.797  15.271  13.427
36048W        W 8473  43.307  31.431   4.239
36049W        W 8474   6.288  27.011  12.376
36050W        W 8475  37.516  34.973  12.473
36051W        W 8476  33.409  38.430  11.473
36052W        W 8477  17.152  27.944   1.342
36053W        W 8478   4.287   8.326  11.010
36054W        W 8479   3.922   3.889   3.739
36055W        W 8480  22.630  34.945   0.326
36056W        W 8481  14.730  30.152   2.687
36057W        W 8482   6.692  32.109  12.866
36058W        W 8483  20.652  15.819  12.992
36059W        W 8484   7.197  18.268  12.381
36060W        W 8485  22.091  32.470  14.299
36061W        W 8486  22.175  19.158  11.985
36062W        W 8487  14.258  27.091  14.328
36063W        W 8488  33.610  21.137  12.035
36064W        W 8489  10.751   1.358   2.762
36065W        W 8490  19.068   3.820  13.524
36066W        W 8491   3.947   3.397   1.845
36067W        W 8492  33.594  42.922  13.371
36068W        W 8493   1.850   7.892  12.837
36069W        W 8494   3.408  25.480  12.400
36070W        W 8495  26.114  17.238  11.477
36071W        W 8496  30.651  36.454   1.321
36072W        W 8497  26.034  43.975   0.280
36073W        W 8498  24.092   3.220   2.702
36074W        W 8499  12.351  40.814   4.802
36075W        W 8500  18.563  38.919  13.845
36076W        W 8501   8.298  30.014   0.936
36077W        W 8502   3.804   4.218   4.272
36078W        W 8503   1.290   1.868  12.496
36079W        W 8504  33.543   4.346   3.856
36080W        W 8505   6.394  32.930   2.831
36081W        W 8506  44.797  24.980  11.533
36082W        W 8507   9.149   6.767  11.973
36083W        W 8508  39.413  31.971  11.886
36084W        W 8509  44.861  29.135   4.798
36085W        W 8510   0.286  36.905  11.999
36086W        W 8511  15.241  18.706   1.257
36087W        W 8512   1.815   9.295  12.566
36088W        W 8513  37.965  21.191  13.885
36089W        W 8514  25.618  37.937  10.958
36090W        W 8515  22.735  40.895   3.212
36091W        W 8516  18.172  40.830  14.007
36092W        W 8517  41.864  33.923   1.700
36093W        W 8518  12.740  43.516   4.734
36094W        W 8519  22.510   4.244   2.750
36095W        W 8520  30.460  37.389   4.748
36096W        W 8521  29.175   6.811   4.322
36097W        W 8522  21.554  42.998   3.223
36098W        W 8523  19.761  43.887  10.902
36099W        W 8524  28.561  38.073  11.988
36100W        W 8525  30.022  13.676  10.625
36101W        W 8526  26.661   0.403  12.857
36102W        W 8527  29.073  30.554  13.937
36103W        W 8528  17.705  14.337  11.987
36104W        W 8529  21.612  19.707   0.736
36105W        W 8530  42.373   4.901  11.488
36106W        W 8531   1.278   2.245   4.163
36107W        W 8532  40.496  22.604   0.962
36108W        W 8533  38.538  33.063  13.981
36109W        W 8534  26.567  12.221  13.814
36110W        W 8535  22.744  42.938   0.265
36111W        W 8536  29.466  40.357   3.805
36112W        W 8537  37.465  37.909  11.585
36113W        W 8538   3.854   6.414   3.751
36114W        W 8539  39.884  12.675   2.806
36115W        W 8540  42.939  33.527  14.874
36116W        W 8541   3.295  32.142   9.937
36117W        W 8542  35.567  41.980   0.325
36118W        W 8543   0.902  25.480  11.957
36119W        W 8544   7.903  37.911   2.716
36120W        W 8545  29.430  20.123  13.926
36121W        W 8546  18.088  18.577   0.874
36122W        W 8547   8.333  26.052  12.520
36123W        W 8548  35.577  21.103   2.789
36124W        W 8549  14.749   7.330  14.299
36125W        W 8550  34.452  29.028   2.875
36126W        W 8551  16.669  29.440   4.134
36127W        W 8552  43.907  21.689  12.348
36128W        W 8553  43.840  38.471   4.285
36129W        W 8554  40.342  30.117   2.861
36130W        W 8555  38.415  37.581  11.481
36131W        W 8556  21.180  13.832  12.351
36132W        W 8557  42.301  42.441  12.365
36133W        W 8558  36.567  13.629   1.810
36134W        W 8559   9.378  33.029   4.771
36135W        W 8560  36.468   4.282  14.485
36136W        W 8561  29.507  29.925   0.840
36137W        W 8562  43.400  28.067  13.023
36138W        W 8563   7.702   2.403   3.180
36139W        W 8564  32.448   1.268  11.993
36140W        W 8565  30.998  31.428  13.931
36141W        W 8566  23.185  41.936   3.364
36142W        W 8567  26.652   0.777  11.502
36143W        W 8568   5.870  44.942  10.916
36144W        W 8569  25.596  13.617   1.779
36145W        W 8570  34.370  26.146  13.896
36146W        W 8571  35.866  12.854   3.384
36147W        W 8572   0.357  10.705   1.810
36148W        W 8573  18.648  22.056   2.215
36149W        W 8574  37.835   8.714   2.312
36150W        W 8575   0.899  26.097   2.709
36151W        W 8576  15.581  10.316   4.246
36152W        W 8577  38.969   6.391  10.083
36153W        W 8578  28.158   5.769   0.777
36154W        W 8579   2.766  43.317   2.701
36155W        W 8580  42.935   8.345  13.432
36156W        W 8581  14.116  16.252  14.759
36157W        W 8582  30.088  34.603   2.276
36158W        W 8583  38.971  17.561  10.569
36159W        W 8584   7.786  31.456   3.162
36160W        W 8585  23.123  38.493   4.646
36161W        W 8586  16.177  31.486   2.772
36162W        W 8587  37.835  36.940  12.557
36163W        W 8588   8.826  42.879  13.930
36164W        W 8589   7.840  39.879   4.685
36165W        W 8590  29.097   6.385   1.860
36166W        W 8591  15.687  37.927   4.182
36167W        W 8592  28.954  28.548   0.475
36168W        W 8593  16.265  40.443  10.459
36169W        W 8594  36.549  17.687  12.952
36170W        W 8595  41.483  44.292   2.286
36171W        W 8596   8.755  13.323   4.124
36172W        W 8597  26.472  31.603   1.899
36173W        W 8598  38.457  37.348   2.691
36174W        W 8599   7.818  33.123   1.825
36175W        W 8600  17.287   2.804  12.095
36176W        W 8601  34.379  21.580  10.526
36177W        W 8602  35.484  17.609  13.507
36178W        W 8603  25.043  11.648   1.784
36179W        W 8604  13.815  12.159  13.365
36180W        W 8605  19.055  33.620  11.041
36181W        W 8606  40.412  15.760   4.795
36182W        W 8607  34.899  34.115  11.447
36183W        W 8608   7.827   6.895  12.878
36184W        W 8609   4.221  19.610  11.945
36185W        W 8610  32.521  33.923  12.440
36186W        W 8611   9.218  39.350  11.510
36187W        W 8612  36.505  36.000  11.494
36188W        W 8613  34.931  42.289   0.767
36189W        W 8614  15.805  37.913   5.118
36190W        W 8615  36.031  37.065  12.340
36191W        W 8616  25.114  36.376   3.340
36192W        W 8617  22.047   5.318  14.813
36193W        W 8618  33.445  34.496  11.373
36194W        W 8619  38.353  35.106   2.720
36195W        W 8620  24.990  29.442  12.980
36196W        W 8621  41.936  10.143  12.074
36197W        W 8622   2.420  37.060  11.102
36198W        W 8623  30.051  29.519   4.681
36199W        W 8624  23.605  18.767   2.355
36200W        W 8625   1.462  30.926  12.054
36201W        W 8626  12.645  16.799   4.138
36202W        W 8627  31.480  31.484  11.964
36203W        W 8628  21.241   3.749   1.408
36204W        W 8629   1.483  15.821   2.830
36205W        W 8630  25.051  39.813  12.972
36206W        W 8631  23.569  26.034   4.307
36207W        W 8632  22.175  16.649  14.494
36208W        W 8633  10.659  31.470   0.389
36209W        W 8634  14.693   9.690  12.072
36210W        W 8635  36.458  30.563   0.274
36211W        W 8636   1.790  13.130  14.379
36212W        W 8637  22.537   6.348   3.258
36213W        W 8638   5.289  36.963  11.018
36214W        W 8639  38.014  20.633   4.221
36215W        W 8640   1.859  39.451  13.006
36216W        W 8641   6.208  39.429   0.877
36217W        W 8642  10.239   9.783  14.907
36218W        W 8643  17.253   8.379   1.334
36219W        W 8644   8.250  39.504  12.056
36220W        W 8645  41.012  34.920   3.651
36221W        W 8646  36.016  23.521  14.962
36222W        W 8647   6.903  26.608   3.804
36223W        W 8648   4.254  22.641  12.867
36224W        W 8649  21.068  39.412   2.188
36225W        W 8650   0.775  33.447   0.272
36226W        W 8651  14.796   2.961   0.439
36227W        W 8652  32.007  36.574   3.168
36228W        W 8653   4.246   0.760  10.971
36229W        W 8654   9.645  36.921  11.546
36230W        W 8655   9.382  15.202  14.279
36231W        W 8656  26.588  28.525  13.035
36232W        W 8657  34.610  24.565   0.729
36233W        W 8658  17.299  40.470  12.957
36234W        W 8659  21.599   6.816   1.365
36235W        W 8660  22.555  44.856   2.733
36236W        W 8661  39.336  37.080  14.010
36237W        W 8662  16.567  34.954   3.653
36238W        W 8663  23.671  43.835  12.884
36239W        W 8664  36.353  25.967   4.349
36240W        W 8665  28.981  39.928   1.418
36241W        W 8666  35.909   9.874  12.894
36242W        W 8667   9.270   5.931  12.445
36243W        W 8668  26.035  18.707  11.057
36244W        W 8669  33.519   5.212   2.664
36245W        W 8670  16.253  37.046  11.428
36246W        W 8671  21.225  24.119   1.226
36247W        W 8672  16.713  24.531   3.732
36248W        W 8673  38.998  41.427  13.429
36249W        W 8674   8.823  25.124   0.334
36250W        W 8675  27.088  44.893   3.798
36251W        W 8676  30.493  23.232   2.667
36252W        W 8677  35.498  40.906   2.890
36253W        W 8678  19.259   3.307   4.278
36254W        W 8679  19.640  10.322   0.933
36255W        W 8680   5.233  10.793  13.934
36256W        W 8681  41.318  26.052   4.195
36257W        W 8682  19.267  40.335  13.910
36258W        W 8683  23.655  21.537   4.193
36259W        W 8684   5.235  34.928   2.394
36260W        W 8685   4.844  33.586  14.344
36261W        W 8686  38.494  28.053  10.535
36262W        W 8687  38.045  20.050   3.708
36263W        W 8688   9.814   2.942  13.884
36264W        W 8689  10.848  19.719  14.906
36265W        W 8690  26.975  17.160  11.382
36266W        W 8691  26.504  26.035  14.986
36267W        W 8692   3.721   3.748  13.310
36268W        W 8693  36.079  32.048  11.540
36269W        W 8694  41.833  38.001   4.821
36270W        W 8695   4.733   6.214   2.750
36271W        W 8696   8.317  38.974  12.470
36272W        W 8697  44.357   4.366  10.891
36273W        W 8698  18.174  34.010  10.479
36274W        W 8699  44.471  16.139  10.981
36275W        W 8700  44.765  22.130   2.249
36276W        W 8701  34.937  13.132  12.028
36277W        W 8702  11.771  22.625   9.926
36278W        W 8703  20.257  40.872  13.344
36279W        W 8704   4.424  18.266  14.402
36280W        W 8705  13.695  23.666   3.212
36281W        W 8706   6.393   3.229   3.350
36282W        W 8707   4.267   0.904   4.697
36283W        W 8708  41.355  32.594  14.793
36284W        W 8709  37.441  32.517  12.985
36285W        W 8710  42.866   0.441   3.634
36286W        W 8711   0.820   8.754  13.341
36287W        W 8712  26.982  42.890  12.865
36288W        W 8713  35.920  41.512   0.745
36289W        W 8714   2.276   4.853   0.287
36290W        W 8715  36.005   5.397  13.349
36291W        W 8716   9.312  38.348   2.360
36292W        W 8717  22.721  22.211  11.600
36293W        W 8718  17.603  24.555  14.435
36294W        W 8719   2.321  28.556   4.301
36295W        W 8720   6.227  22.734  13.835
36296W        W 8721  17.566   2.750   5.690
36297W        W 8722   0.836  12.160   4.214
36298W        W 8723  17.158  44.918   2.252
36299W        W 8724  37.560  43.986   1.324
36300W        W 8725   4.846  31.958   4.249
36301W        W 8726  32.406  19.704   0.295
36302W        W 8727  12.321   3.380   3.319
36303W        W 8728   1.963  11.313  13.020
36304W        W 8729   6.250  42.522   2.344
36305W        W 8730  40.976   1.262  14.904
36306W        W 8731  17.215   0.256   1.877
36307W        W 8732  30.461  13.750   0.836
36308W        W 8733  42.795  20.227   3.661
36309W        W 8734   1.772  29.057  12.064
36310W        W 8735  38.900  33.596   2.686
36311W        W 8736  28.131  28.032   4.668
36312W        W 8737  43.889  21.057  10.450
36313W        W 8738  29.457   8.746   0.450
36314W        W 8739  41.379  32.592  13.319
36315W        W 8740  38.417  29.460   3.671
36316W        W 8741   4.274  25.026   3.372
36317W        W 8742  35.937  43.329   4.116
36318W        W 8743  43.856  19.238  13.472
36319W        W 8744  28.124  40.958  11.905
36320W        W 8745  30.010  15.685  12.948
36321W        W 8746  29.972  37.509  14.287
36322W        W 8747  33.947  44.447   4.697
36323W        W 8748  16.812  41.799  12.018
36324W        W 8749   2.331   1.268  14.480
36325W        W 8750   5.385  38.019   0.761
36326W        W 8751  32.932  20.692   1.821
36327W        W 8752  30.991  16.210  10.439
36328W        W 8753  32.609   9.870  13.471
36329W        W 8754  16.725   2.966  13.316
36330W        W 8755  24.649  21.019   5.195
36331W        W 8756  19.141  25.077   1.882
36332W        W 8757  18.772   4.304  14.511
36333W        W 8758   9.371   3.826  10.520
36334W        W 8759  40.868  32.938   3.704
36335W        W 8760   1.881  13.771   4.724
36336W        W 8761  40.530  17.118  14.338
36337W        W 8762   3.363  35.939  11.087
36338W        W 8763  27.687  36.843   0.393
36339W        W 8764  16.639  12.799  10.470
36340W        W 8765   9.793   6.319   0.476
36341W        W 8766  14.804  30.418   5.141
36342W        W 8767  35.545  10.359   1.369
36343W        W 8768  30.636  40.314  13.967
36344W        W 8769  14.205   3.419  11.395
36345W        W 8770   4.792   1.373  14.010
36346W        W 8771  28.165  40.957  14.766
36347W        W 8772  12.323   6.237   4.306
36348W        W 8773   3.874  14.300   2.252
36349W        W 8774  25.204   8.318   2.828
36350W        W 8775  28.057   8.317   1.386
36351W        W 8776  22.230  30.541  13.475
36352W        W 8777  28.959  40.013   0.901
36353W        W 8778  41.292  44.471   0.446
36354W        W 8779  37.863  29.578   2.406
36355W        W 8780  24.207  35.101   0.877
36356W        W 8781  17.152   6.831   0.401
36357W        W 8782  15.261  12.172   2.412
36358W        W 8783   9.271   9.295  13.476
36359W        W 8784  36.043  35.077   3.198
36360W        W 8785   4.364   7.675   1.923
36361W        W 8786  28.469   7.259   0.249
36362W        W 8787  18.251  32.909   3.327
36363W        W 8788   8.753  19.248  12.381
36364W        W 8789   5.388  37.452   2.741
36365W        W 8790   2.865   6.847   2.776
36366W        W 8791   5.747  12.266   0.817
36367W        W 8792  35.878  36.085  13.499
36368W        W 8793  41.965  36.438  13.430
36369W        W 8794   4.386   5.717   4.284
36370W        W 8795   1.809  27.102   1.264
36371W        W 8796  37.901  17.762  10.964
36372W        W 8797   8.385  41.494   1.279
36373W        W 8798  23.570  39.408  14.419
36374W        W 8799   8.282  30.574   2.668
36375W        W 8800  12.621  11.204  13.064
36376W        W 8801  44.299  27.459   3.751
36377W        W 8802   6.406  36.969  14.895
36378W        W 8803  44.451  31.031   1.356
36379W        W 8804  23.989  41.331  10.060
36380W        W 8805  31.648   5.851   3.200
36381W        W 8806  18.063  30.113  11.371
36382W        W 8807   7.750  25.005   4.228
36383W        W 8808   4.929  44.345  11.020
36384W        W 8809  14.140  34.934  11.534
36385W        W 8810  37.982  33.621  14.789
36386W        W 8811  14.240   0.964   0.380
36387W        W 8812  29.480  41.038   4.662
36388W        W 8813  32.962  28.605   1.231
36389W        W 8814  24.221  10.746  14.015
36390W        W 8815  36.516  31.917  10.456
36391W        W 8816  20.739  18.285   2.208
36392W        W 8817  18.194  10.636   3.150
36393W        W 8818  10.222  28.530   2.237
36394W        W 8819   9.693   8.233   4.837
36395W        W 8820  38.936  41.831   2.674
36396W        W 8821  30.156   3.860  12.912
36397W        W 8822  31.924   9.160  14.319
36398W        W 8823  21.251  44.491  13.421
36399W        W 8824  35.036  24.590  13.827
36400W        W 8825  15.637   5.256   2.690
36401W        W 8826  11.854  13.222  13.808
36402W        W 8827  18.213  22.568   3.292
36403W        W 8828  31.925  14.129   0.341
36404W        W 8829  15.728   1.845  12.094
36405W        W 8830  18.589   8.379   4.169
36406W        W 8831  36.935  29.139  11.123
36407W        W 8832   6.225  15.783   2.200
36408W        W 8833  33.994   6.793  11.989
36409W        W 8834  23.652  11.264   1.753
36410W        W 8835  25.500   8.321   3.869
36411W        W 8836  16.276  21.721   4.121
36412W        W 8837   5.314   3.819   3.301
36413W        W 8838  36.393  13.630  12.048
36414W        W 8839  25.040  30.912   2.216
36415W        W 8840  38.327  12.652  11.487
36416W        W 8841  18.633  20.563   2.416
36417W        W 8842  26.677  40.355  11.961
36418W        W 8843  43.813  18.079   0.843
36419W        W 8844  31.614  15.642  14.968
36420W        W 8845  30.417  17.567   1.761
36421W        W 8846  38.327   9.802   4.310
36422W        W 8847  22.605  17.586   3.202
36423W        W 8848  15.165  16.698  10.903
36424W        W 8849  29.928  20.101   3.721
36425W        W 8850  36.892  33.431  14.362
36426W        W 8851  34.886  15.301  11.918
36427W        W 8852  29.655  18.201  13.041
36428W        W 8853   8.264  44.835  13.508
36429W        W 8854   2.365  27.050  13.407
36430W        W 8855  43.425  36.384  13.854
36431W        W 8856  16.727  35.026  11.862
36432W        W 8857  15.087  32.955   4.814
36433W        W 8858   6.225  39.957  12.992
36434W        W 8859  30.992  33.521   2.826
36435W        W 8860  13.137  37.886   0.373
36436W        W 8861  25.646  30.127  12.538
36437W        W 8862  37.939  31.942  12.420
36438W        W 8863  32.488  34.398  12.374
36439W        W 8864  13.803  21.746   0.898
36440W        W 8865  24.479  41.027  10.496
36441W        W 8866  34.604  25.630  13.854
36442W        W 8867  23.601   0.802   1.414
36443W        W 8868  28.019   0.960   1.256
36444W        W 8869  38.397  44.973  14.929
36445W        W 8870  22.027  41.798  11.408
36446W        W 8871   7.882  29.984   3.862
36447W        W 8872  15.279  39.340   3.173
36448W        W 8873   5.830  10.207   3.643
36449W        W 8874   9.391   9.255   3.827
36450W        W 8875  41.533  25.576   1.398
36451W        W 8876  44.422  37.871  14.385
36452W        W 8877  20.766   7.833   4.825
36453W        W 8878   3.426  19.258  12.403
36454W        W 8879  13.786  21.029  13.863
36455W        W 8880  22.568  38.376  10.609
36456W        W 8881  31.922  19.227   1.878
36457W        W 8882  10.295  18.189  11.086
36458W        W 8883  12.744  15.683   2.232
36459W        W 8884   8.820  13.599  13.355
36460W        W 8885   3.846  28.603   4.163
36461W        W 8886  37.435   7.889   3.367
36462W        W 8887   0.281  25.690  12.541
36463W        W 8888   5.262  15.620   0.277
36464W        W 8889  33.568  15.745  12.091
36465W        W 8890  22.656   7.274  12.431
36466W        W 8891  29.530   7.803  10.501
36467W        W 8892  25.577  27.179  10.586
36468W        W 8893  37.886  38.351   1.341
36469W        W 8894  28.476  43.339   0.753
36470W        W 8895  39.476  27.126  14.011
36471W        W 8896  21.146  33.969   2.186
36472W        W 8897  10.373  27.625  11.108
36473W        W 8898  22.683  29.978  14.808
36474W        W 8899  34.099   1.473  14.320
36475W        W 8900  14.743  15.180   2.684
36476W        W 8901   3.433  13.342   1.702
36477W        W 8902  13.652   7.739  14.346
36478W        W 8903  15.724  11.714  13.960
36479W        W 8904  30.989  25.470   2.673
36480W        W 8905  41.949  18.076  12.938
36481W        W 8906  15.702  28.479  13.792
36482W        W 8907   8.191  17.095  12.846
36483W        W 8908  21.729  18.708  12.994
36484W        W 8909  42.948   8.388   0.355
36485W        W 8910  13.186  13.711  12.857
36486W        W 8911  10.780   0.296  12.493
36487W        W 8912  30.601  32.551   4.645
36488W        W 8913  39.365  26.960  14.946
36489W        W 8914  14.101  20.101   1.876
36490W        W 8915  14.692  37.410  14.873
36491W        W 8916  31.950  25.640   2.786
36492W        W 8917  24.108  15.735   4.795
36493W        W 8918   7.309  16.297  14.984
36494W        W 8919  36.533  15.727   1.353
36495W        W 8920  40.829  10.725   4.204
36496W        W 8921  30.530   1.476   0.806
36497W        W 8922  14.601  33.578  13.545
36498W        W 8923  21.757  25.064   0.846
36499W        W 8924  27.992  36.842  11.994
36500W        W 8925   2.245  20.057   2.695
36501W        W 8926  32.050   0.257   1.860
36502W        W 8927  23.653  13.830   4.753
36503W        W 8928  16.237  25.074  14.992
36504W        W 8929  13.176  44.001   4.148
36505W        W 8930  42.486   7.325   2.384
36506W        W 8931   3.831  44.301   2.246
36507W        W 8932  37.048  27.107  14.823
36508W        W 8933  15.734   2.746  12.007
36509W        W 8934  36.023  26.015   0.344
36510W        W 8935  16.796  29.950   9.949
36511W        W 8936  44.997  25.060   4.750
36512W        W 8937  18.775  12.144  11.099
36513W        W 8938  34.987  13.726  14.815
36514W        W 8939  32.073  41.997   1.739
36515W        W 8940  24.121   9.342  12.425
36516W        W 8941   6.699  12.650   2.397
36517W        W 8942  34.032   8.828   0.885
36518W        W 8943  35.586  18.242   4.167
36519W        W 8944   6.685  43.969  10.594
36520W        W 8945  35.022  12.786   9.985
36521W        W 8946   9.796  31.457  12.017
36522W        W 8947  24.637  17.751  13.530
36523W        W 8948  16.725  29.469   3.347
36524W        W 8949   2.880  27.549   2.729
36525W        W 8950  24.030   8.846  13.801
36526W        W 8951  12.670   3.799  14.469
36527W        W 8952   3.389   1.252  12.977
36528W        W 8953  24.712   5.927  14.772
36529W        W 8954  33.500  35.468   3.770
36530W        W 8955  31.022   9.343   4.627
36531W        W 8956  16.291  43.843   4.227
36532W        W 8957  20.609   4.860   4.256
36533W        W 8958  23.548   5.419  13.795
36534W        W 8959  19.597  44.437   5.108
36535W        W 8960  37.390  28.952  10.916
36536W        W 8961  42.859  44.330   1.418
36537W        W 8962  33.917  15.696   3.242
36538W        W 8963  14.207  29.036  12.421
36539W        W 8964  16.236  13.131  10.953
36540W        W 8965  34.398  29.449   1.291
36541W        W 8966   9.174  24.560  10.474
36542W        W 8967  44.271  16.196  13.353
36543W        W 8968  39.422   7.853   2.885
36544W        W 8969  21.102  35.417  10.893
36545W        W 8970  28.552  30.442  11.059
36546W        W 8971  29.151  20.058  14.324
36547W        W 8972  39.890  21.132  10.504
36548W        W 8973  26.200  17.249  13.412
36549W        W 8974  43.271  41.921   3.274
36550W        W 8975  42.952  35.425  11.530
36551W        W 8976  28.951   8.390   1.872
36552W        W 8977  19.258   5.793  13.362
36553W        W 8978  43.899  18.631   3.260
36554W        W 8979  25.656   0.470  10.929
36555W        W 8980  30.161  40.026   2.794
36556W        W 8981  37.882  41.974  10.518
36557W        W 8982  27.623  40.436   3.711
36558W        W 8983  40.327  37.393  12.040
36559W        W 8984  17.178  38.355   2.669
36560W        W 8985  25.620   3.309  14.030
36561W        W 8986  37.525   0.765   0.796
36562W        W 8987   6.360   5.708  11.104
36563W        W 8988   4.865  29.459  11.924
36564W        W 8989  17.606   0.893   5.291
36565W        W 8990  24.501  13.143  12.051
36566W        W 8991   9.718   4.313  12.856
36567W        W 8992   8.246  19.590  11.036
36568W        W 8993  37.403  16.234  13.468
36569W        W 8994  38.015  21.693  14.923
36570W        W 8995  36.555  13.830  12.438
36571W        W 8996   1.405  34.456   4.196
36572W        W 8997  10.841  17.670  12.526
36573W        W 8998  38.527  43.377  14.435
36574W        W 8999  43.840  36.869   3.819
36575W        W 9000  44.475  16.781   2.195
36576W        W 9001  44.470  14.298  13.872
36577W        W 9002  21.253  30.116   0.453
36578W        W 9003  23.229  32.491  12.873
36579W        W 9004  42.436   3.425   0.356
36580W        W 9005  27.451  28.647  13.312
36581W        W 9006   2.816  14.682   4.190
36582W        W 9007   7.874   4.245   4.742
36583W        W 9008  17.237  18.662   5.195
36584W        W 9009  41.421  38.043  12.035
36585W        W 9010  44.263  41.966  12.984
36586W        W 9011  37.001  17.102   1.222
36587W        W 9012  11.296  19.646  14.948
36588W        W 9013  28.522  20.559  13.965
36589W        W 9014  38.546  17.744   1.871
36590W        W 9015  38.485  43.382   1.240
36591W        W 9016  17.619  15.258  13.931
36592W        W 9017  18.198  16.725   3.812
36593W        W 9018  39.527  43.484  11.585
36594W        W 9019  16.302  38.999   0.916
36595W        W 9020  28.532   2.785   2.777
36596W        W 9021  42.362  26.569   4.631
36597W        W 9022   2.828   0.902   3.166
36598W        W 9023  21.619  21.696   4.186
36599W        W 9024  42.938  14.621  13.463
36600W        W 9025  34.113  21.017  11.064
36601W        W 9026  31.037   3.921   3.312
36602W        W 9027  33.470  26.662  14.993
36603W        W 9028  40.419  23.650   3.170
36604W        W 9029  33.497  16.654   2.313
36605W        W 9030  36.551  41.798  12.069
36606W        W 9031  20.659   2.776  13.974
36607W        W 9032   6.737  17.107  12.057
36608W        W 9033  42.006  38.048   3.355
36609W        W 9034   3.433  25.637   0.815
36610W        W 9035  10.333   9.188   4.661
36611W        W 9036  22.713  18.681   2.235
36612W        W 9037  30.481   2.339   0.359
36613W        W 9038   4.346  15.130  13.857
36614W        W 9039  14.246   9.772  12.496
36615W        W 9040  31.988  21.123  11.482
36616W        W 9041  14.240  44.876   3.291
36617W        W 9042   2.377   0.805  11.404
36618W        W 9043  39.418  33.578  14.280
36619W        W 9044  27.155   5.426   1.892
36620W        W 9045  26.632  25.979   3.207
36621W        W 9046   9.732  41.409  13.518
36622W        W 9047   7.371   4.266  12.535
36623W        W 9048  19.081  43.824  14.971
36624W        W 9049  38.897  19.604   0.784
36625W        W 9050  44.818  36.467  11.526
36626W        W 9051   4.766  20.234  11.877
36627W        W 9052  21.171  30.560  10.530
36628W        W 9053  22.184  15.718  14.792
36629W        W 9054  17.291  34.443  14.809
36630W        W 9055  12.820  28.498  11.441
36631W        W 9056  12.738  19.739   3.150
36632W        W 9057   8.167   9.171   0.802
36633W        W 9058  17.061  24.142   2.252
36634W        W 9059  36.998  22.179   3.386
36635W        W 9060  42.785  24.099   1.902
36636W        W 9061  24.104   6.763   1.233
36637W        W 9062  41.951  34.515   2.353
36638W        W 9063  43.342  19.235  14.985
36639W        W 9064  17.193  26.098  13.915
36640W        W 9065  43.846  32.948  12.904
36641W        W 9066  31.141   4.723   2.690
36642W        W 9067  42.013  43.343   4.280
36643W        W 9068  22.218  41.985  11.953
36644W        W 9069  11.667  24.167   2.811
36645W        W 9070   4.265  42.021   4.775
36646W        W 9071   7.225   4.728   2.212
36647W        W 9072  29.063  14.175   3.277
36648W        W 9073  36.397   4.887  14.388
36649W        W 9074  31.622  15.717   4.650
36650W        W 9075  28.595  40.929  10.986
36651W        W 9076   9.182  22.212   3.668
36652W        W 9077  18.240  19.636  11.452
36653W        W 9078   2.304  30.535   1.293
36654W        W 9079  33.463  19.663  10.019
36655W        W 9080  13.769  26.952  12.410
36656W        W 9081   7.193  10.658  10.409
36657W        W 9082  25.125  27.993   3.244
36658W        W 9083   7.686  25.539   0.839
36659W        W 9084  12.347  28.186  14.454
36660W        W 9085  44.387  21.740   2.665
36661W        W 9086   1.774  41.533   3.632
36662W        W 9087  10.166  30.989  10.535
36663W        W 9088  29.972  25.565   0.788
36664W        W 9089  37.345  16.253   2.218
36665W        W 9090  40.913   8.402  13.344
36666W        W 9091  30.934  32.124   4.685
36667W        W 9092  35.506  42.471   3.369
36668W        W 9093  21.213  40.912   1.774
36669W        W 9094  38.847  23.994  11.081
36670W        W 9095  35.373   5.826  10.527
36671W        W 9096  42.955  10.199  11.115
36672W        W 9097  35.369  30.575   4.622
36673W        W 9098  11.788   4.815   0.847
36674W        W 9099  41.034  24.482   3.230
36675W        W 9100   0.911  37.989   4.116
36676W        W 9101  42.488  44.002  13.063
36677W        W 9102   7.215  18.185  11.408
36678W        W 9103   6.697   7.687   3.668
36679W        W 9104  34.532  29.970   1.862
36680W        W 9105  34.554  12.210  10.538
36681W        W 9106  35.892   7.801  13.334
36682W        W 9107  30.953  17.152   4.826
36683W        W 9108  15.713  24.489  11.057
36684W        W 9109  30.929  22.556  13.502
36685W        W 9110  22.514  33.446  14.960
36686W        W 9111  33.390  34.506   2.893
36687W        W 9112  19.174  26.680  14.485
36688W        W 9113  17.269  22.236  13.042
36689W        W 9114  26.632  18.109   1.281
36690W        W 9115  22.738  32.478  13.385
36691W        W 9116  30.508  36.878  12.884
36692W        W 9117  35.419  27.515   3.783
36693W        W 9118  14.168  16.689  11.959
36694W        W 9119  43.470  13.795  10.471
36695W        W 9120  23.525  40.503  10.971
36696W        W 9121  17.086  28.169   3.385
36697W        W 9122   3.890  39.459   4.314
36698W        W 9123   2.962   4.900   3.300
36699W        W 9124  29.433  12.186   1.705
36700W        W 9125  38.335  41.328  14.839
36701W        W 9126  11.170  11.834   2.379
36702W        W 9127  42.789  24.135  10.599
36703W        W 9128  40.471  21.640  10.958
36704W        W 9129  34.452  20.597  12.002
36705W        W 9130  41.817  23.047   2.178
36706W        W 9131  34.521  41.475   4.663
36707W        W 9132  14.243  29.641  14.379
36708W        W 9133  14.726  26.042   2.676
36709W        W 9134  44.273  26.119   0.245
36710W        W 9135  27.674  39.873  13.935
36711W        W 9136  40.967  43.836   2.398
36712W        W 9137  13.170   7.394   1.893
36713W        W 9138  43.358  31.091   0.827
36714W        W 9139  44.306  34.406  11.522
36715W        W 9140  35.065  41.845  12.544
36716W        W 9141  16.129  35.597   4.758
36717W        W 9142   2.236  24.186  10.420
36718W        W 9143   4.800  44.329   0.798
36719W        W 9144  28.545   9.161  12.944
36720W        W 9145  11.134  35.449   0.913
36721W        W 9146  27.518   6.681  14.813
36722W        W 9147  43.492  30.135  10.499
36723W        W 9148  23.135  10.145  13.532
36724W        W 9149  31.609  26.655  12.877
36725W        W 9150   0.769  11.848  11.971
36726W        W 9151  32.079   5.338   4.319
36727W        W 9152  29.016  26.044   1.319
36728W        W 9153  20.573  39.355  12.041
36729W        W 9154   1.772  10.292   1.223
36730W        W 9155  35.545  39.487  12.863
36731W        W 9156  42.509   6.218  12.075
36732W        W 9157  42.293  41.354   1.786
36733W        W 9158  13.308  17.578   0.956
36734W        W 9159  37.347  30.414   3.216
36735W        W 9160  11.656  11.779   3.148
36736W        W 9161  25.081  29.563   5.314
36737W        W 9162  34.036  26.586  14.366
36738W        W 9163  10.271  24.503  11.875
36739W        W 9164   1.803   2.961  11.601
36740W        W 9165  23.174   4.931  14.760
36741W        W 9166  43.397  14.235   3.718
36742W        W 9167  31.405  35.857   1.318
36743W        W 9168   8.678  21.597  11.591
36744W        W 9169  41.787  30.434  14.860
36745W        W 9170  16.709   9.832   3.805
36746W        W 9171  26.099  38.326   0.274
36747W        W 9172  16.170  42.321  12.564
36748W        W 9173  18.572   0.417   1.244
36749W        W 9174  19.639   2.343  12.826
36750W        W 9175  18.092  22.591   4.222
36751W        W 9176  20.539  12.169  12.968
36752W        W 9177  22.647  20.702   3.191
36753W        W 9178  27.622  34.055  14.382
36754W        W 9179  43.392  43.864  13.846
36755W        W 9180  39.838  31.053  12.020
36756W        W 9181  25.060  10.320  14.016
36757W        W 9182   1.819   6.725   2.219
36758W        W 9183  25.192  24.723  12.420
36759W        W 9184  34.478  25.679   2.192
36760W        W 9185   5.370   8.211  10.913
36761W        W 9186  27.994  35.422   1.754
36762W        W 9187  23.526   1.765  13.997
36763W        W 9188  33.606  39.328  14.382
36764W        W 9189   9.731  25.595   3.313
36765W        W 9190   4.345  15.690  13.866
36766W        W 9191  10.208   4.354   4.771
36767W        W 9192  44.921  35.582  13.548
36768W        W 9193  19.650  22.054   3.315
36769W        W 9194  24.675  24.977  11.445
36770W        W 9195  39.394  36.564  13.450
36771W        W 9196   3.820   1.750   3.670
36772W        W 9197   1.425  32.632   4.723
36773W        W 9198   0.429  27.520  10.483
36774W        W 9199  39.898  21.217  11.986
36775W        W 9200   9.746  38.041  12.545
36776W        W 9201  40.898  13.716   2.813
36777W        W 9202   1.406  26.545   2.780
36778W        W 9203   5.335   3.397   0.883
36779W        W 9204  29.069  13.242  13.932
36780W        W 9205  10.757  41.980  10.471
36781W        W 9206  16.141  27.195  11.952
36782W        W 9207  35.067  10.294   0.865
36783W        W 9208  42.952  27.612  10.119
36784W        W 9209  26.619   6.836   0.935
36785W        W 9210  28.128  22.071  12.853
36786W        W 9211  44.919  17.158  12.434
36787W        W 9212  36.466   6.841   3.833
36788W        W 9213   1.963  36.530   1.392
36789W        W 9214   2.453  12.353   1.717
36790W        W 9215  38.930  10.182  11.905
36791W        W 9216  27.632  18.640  14.948
36792W        W 9217  35.101  35.977   2.418
36793W        W 9218  18.705  41.034   3.206
36794W        W 9219  12.194   0.917   4.184
36795W        W 9220   7.404  43.280  13.058
36796W        W 9221  13.753  33.621   4.622
36797W        W 9222  29.935  15.106   3.757
36798W        W 9223  34.536  23.496   0.476
36799W        W 9224  17.639  30.552  10.119
36800W        W 9225  31.138   8.895   0.299
36801W        W 9226   4.930   2.339   2.730
36802W        W 9227  16.577  36.556  14.892
36803W        W 9228  39.948  42.509  12.075
36804W        W 9229  28.152  14.110  10.605
36805W        W 9230  39.548  36.519   1.368
36806W        W 9231  14.598  26.590   3.189
36807W        W 9232  29.509  14.188  12.980
36808W        W 9233  16.279   5.237  13.526
36809W        W 9234  35.869  14.274  11.021
36810W        W 9235  23.712  26.534   1.896
36811W        W 9236  30.629   2.743   2.816
36812W        W 9237  24.660   0.889  10.442
36813W        W 9238  35.564  27.134   4.656
36814W        W 9239  31.136  10.676  12.030
36815W        W 9240  12.148   6.889  13.340
36816W        W 9241  19.699  22.605  12.986
36817W        W 9242  26.670   3.216   1.711
36818W        W 9243  30.933  13.754  14.282
36819W        W 9244  11.149  30.619  11.082
36820W        W 9245  28.530  17.611   3.753
36821W        W 9246  21.757   0.968   2.207
36822W        W 9247   7.779  41.021   1.319
36823W        W 9248  42.492  29.980  11.023
36824W        W 9249   1.296  17.685  12.049
36825W        W 9250   8.192   4.734  14.917
36826W        W 9251  18.747  41.917   0.784
36827W        W 9252   0.273  28.937   4.162
36828W        W 9253   1.467  40.384  12.470
36829W        W 9254  23.170  17.165   2.378
36830W        W 9255   0.312  40.465   2.821
36831W        W 9256  30.152  39.858  14.394
36832W        W 9257  10.325   8.284   9.937
36833W        W 9258   8.879  23.096   4.627
36834W        W 9259  36.357  15.133  12.571
36835W        W 9260  28.581  18.772  13.930
36836W        W 9261  37.383  14.125  11.600
36837W        W 9262  38.372  21.055   3.319
36838W        W 9263   0.399  21.641   3.361
36839W        W 9264  38.547  29.651  11.536
36840W        W 9265  29.481  32.524  12.457
36841W        W 9266  33.383  22.607   3.343
36842W        W 9267  14.115  39.424  12.090
36843W        W 9268   0.438  38.052   2.774
36844W        W 9269   7.843  15.278  14.335
36845W        W 9270   1.818  42.948  11.455
36846W        W 9271   2.850   3.281   0.781
36847W        W 9272  10.664  35.504  14.381
36848W        W 9273  11.278  34.413  12.381
36849W        W 9274  42.024  33.581  11.864
36850W        W 9275  23.132   3.869   1.931
36851W        W 9276   9.256  21.098   4.244
36852W        W 9277  40.015  40.974  10.956
36853W        W 9278  30.040  11.367  12.866
36854W        W 9279   4.712   9.652   1.380
36855W        W 9280   1.398   6.691   2.228
36856W        W 9281  27.043  15.271  13.885
36857W        W 9282  26.180  33.905   1.334
36858W        W 9283  12.735  44.989  13.050
36859W        W 9284   0.478  17.657   3.732
36860W        W 9285  42.964  35.556   3.244
36861W        W 9286  17.621  27.976  12.867
36862W        W 9287  11.849  28.636   1.215
36863W        W 9288  30.450  29.650   3.254
36864W        W 9289  24.994  14.126  14.862
36865W        W 9290  22.579  38.393  13.393
36866W        W 9291  16.793  39.368  13.380
36867W        W 9292  22.607  14.183   2.722
36868W        W 9293  36.931  31.535   0.469
36869W        W 9294  10.173   3.777  10.442
36870W        W 9295  39.991  21.112  14.397
36871W        W 9296   2.742  19.065   3.228
36872W        W 9297   6.303   3.440  13.930
36873W        W 9298  20.538   0.883  11.993
36874W        W 9299  41.534  32.453  11.410
36875W        W 9300  28.668  28.112   0.301
36876W        W 9301  30.529   2.327  12.976
36877W        W 9302  15.320  30.569  10.597
36878W        W 9303  10.852  15.620  13.922
36879W        W 9304  19.226  30.959   4.231
36880W        W 9305  38.048  30.994  14.349
36881W        W 9306  33.969  27.952   0.801
36882W        W 9307  38.941  28.474  14.470
36883W        W 9308  24.076  33.617  10.066
36884W        W 9309  35.385  20.155  14.940
36885W        W 9310  12.297  35.482   2.677
36886W        W 9311  35.911  23.153   3.710
36887W        W 9312  39.549  23.045   1.910
36888W        W 9313  21.113  29.160  14.809
36889W        W 9314  18.666  38.853   3.153
36890W        W 9315  25.708  35.043   0.297
36891W        W 9316  12.121  27.504  14.861
36892W        W 9317  41.385   3.294  14.346
36893W        W 9318  32.579   2.458   0.853
36894W        W 9319   3.736  25.566   3.347
36895W        W 9320  11.785  34.518   1.278
36896W        W 9321   3.951  33.496  11.428
36897W        W 9322  12.291  39.962   2.832
36898W        W 9323  15.618  28.087   3.868
36899W        W 9324  39.013  41.962   0.957
36900W        W 9325  32.058   5.332  11.018
36901W        W 9326  24.725   9.223   3.735
36902W        W 9327  42.921  36.964  13.862
36903W        W 9328  36.404  15.594  13.452
36904W        W 9329  42.988  26.589   0.402
36905W        W 9330   7.790   3.904  12.400
36906W        W 9331  17.735  36.938  13.376
36907W        W 9332  20.647  36.548  12.407
36908W        W 9333  32.057  21.196   4.328
36909W        W 9334  25.003  27.446  14.880
36910W        W 9335  31.531   7.670   4.302
36911W        W 9336  35.916  24.227   1.267
36912W        W 9337  24.176  14.671  11.946
36913W        W 9338  18.078  40.456  14.919
36914W        W 9339  23.561  30.142  13.501
36915W        W 9340  14.325  33.093   1.772
36916W        W 9341  43.823   9.695  10.583
36917W        W 9342  33.386   8.706  10.157
36918W        W 9343  33.381  37.897  11.521
36919W        W 9344   8.179  43.399   3.706
36920W        W 9345  38.022  12.734  12.055
36921W        W 9346  29.974  42.410   3.643
36922W        W 9347   6.909  10.831   4.267
36923W        W 9348   7.758  28.172  11.968
36924W        W 9349   8.869  34.115   0.269
36925W        W 9350   7.666  26.689  14.320
36926W        W 9351  40.494  42.836  14.950
36927W        W 9352  21.063  31.498  10.476
36928W        W 9353  14.277  36.548   2.391
36929W        W 9354  15.305  23.999  10.160
36930W        W 9355  36.871  21.146  12.453
36931W        W 9356  34.440  33.620   4.129
36932W        W 9357   3.419  30.510  13.790
36933W        W 9358  41.421  28.650   2.375
36934W        W 9359  31.538  40.387   0.907
36935W        W 9360  10.708  29.455  12.376
36936W        W 9361   3.320  37.577  14.432
36937W        W 9362  24.660   0.889   3.751
36938W        W 9363  29.601  27.640   1.825
36939W        W 9364  24.098  13.648   0.868
36940W        W 9365  41.922  44.912  10.929
36941W        W 9366  32.586  26.004  12.855
36942W        W 9367  42.383  29.623   1.927
36943W        W 9368  34.092  29.490   3.727
36944W        W 9369  44.862  13.760   1.444
36945W        W 9370   9.223   0.461  14.963
36946W        W 9371  14.736  13.731  14.855
36947W        W 9372  26.020  18.623   4.758
36948W        W 9373  42.783   2.423   3.217
36949W        W 9374   7.254  37.048  13.030
36950W        W 9375  18.270  26.109  12.523
36951W        W 9376  28.587   6.749  10.551
36952W        W 9377  10.237  23.074  14.357
36953W        W 9378  13.602  36.581  12.577
36954W        W 9379  32.398  44.395   3.170
36955W        W 9380   9.738  36.995  12.412
36956W        W 9381  27.533  21.261   4.238
36957W        W 9382  34.932  24.137   1.288
36958W        W 9383  26.641  24.185   0.740
36959W        W 9384  40.919   4.325  14.804
36960W        W 9385  18.055  11.703  14.011
36961W        W 9386   9.178  26.560   2.391
36962W        W 9387   6.686   0.753   0.737
36963W        W 9388  31.979  32.986   1.902
36964W        W 9389   7.716  24.179  10.592
36965W        W 9390  39.526  12.656   2.238
36966W        W 9391  14.750  29.529  12.429
36967W        W 9392   8.402  39.440  11.490
36968W        W 9393  14.638  28.177  10.117
36969W        W 9394  31.477  16.713   3.861
36970W        W 9395  20.133  13.713  12.866
36971W        W 9396  13.279   8.364  10.915
36972W        W 9397  19.231  19.611  14.976
36973W        W 9398  11.740  42.419  14.965
36974W        W 9399  38.568  36.470  11.482
36975W        W 9400  41.371  18.145   0.463
36976W        W 9401  40.367  22.214  10.920
36977W        W 9402   1.447  19.069   3.793
36978W        W 9403  23.055  33.938   3.805
36979W        W 9404  29.578  28.936  12.512
36980W        W 9405  30.634  13.226  14.931
36981W        W 9406  27.625  30.564   1.329
36982W        W 9407  18.263  24.670  12.565
36983W        W 9408   9.751   2.276   2.699
36984W        W 9409  35.539  29.971   0.749
36985W        W 9410   5.787  42.795  11.527
36986W        W 9411  18.640  38.353  12.530
36987W        W 9412  18.123  41.960  13.033
36988W        W 9413   0.944  41.030   1.899
36989W        W 9414  18.143   9.337  11.403
36990W        W 9415  31.537   7.822   3.175
36991W        W 9416  11.236   0.768   0.302
36992W        W 9417  31.576  44.493  11.432
36993W        W 9418  32.423  43.965  13.915
36994W        W 9419  11.623  25.158  10.903
36995W        W 9420   3.909  28.464   2.849
36996W        W 9421  15.759  11.263   3.198
36997W        W 9422  41.992  26.074   3.263
36998W        W 9423  21.175  28.124  11.392
36999W        W 9424   2.249   4.927  11.503
37000W        W 9425  32.975  40.331  11.533
37001W        W 9426  43.288  28.139   0.242
37002W        W 9427  38.989  34.068  12.440
37003W        W 9428  38.919   6.395   3.383
37004W        W 9429  13.701   7.311   3.265
37005W        W 9430  37.417  22.216   2.232
37006W        W 9431  10.781  26.976   4.311
37007W        W 9432  24.122  31.528   2.897
37008W        W 9433   6.276   2.819  12.577
37009W        W 9434  36.899  15.752   4.826
37010W        W 9435  41.418   8.711  13.889
37011W        W 9436  36.527   1.432  11.442
37012W        W 9437   2.752  15.734   4.194
37013W        W 9438  14.187   5.807   3.666
37014W        W 9439  30.571  37.382   1.427
37015W        W 9440  41.301  31.944  13.391
37016W        W 9441  21.104  17.739   4.772
37017W        W 9442  11.788   2.842  13.881
37018W        W 9443  15.200  37.411   2.253
37019W        W 9444   8.193  17.564  11.953
37020W        W 9445  42.900  31.100  13.841
37021W        W 9446  28.082  14.628   2.250
37022W        W 9447  41.486  21.065  11.443
37023W        W 9448  14.606  16.140   1.726
37024W        W 9449  34.039  13.234  10.566
37025W        W 9450  38.438  17.192   1.442
37026W        W 9451  13.191   4.726   4.636
37027W        W 9452   7.909  17.756   2.770
37028W        W 9453  10.167  33.490  14.987
37029W        W 9454   5.315  42.995  12.973
37030W        W 9455  37.477   3.837  14.000
37031W        W 9456  16.099  29.445   2.272
37032W        W 9457  42.000  20.101   2.414
37033W        W 9458  28.086  21.713   2.398
37034W        W 9459  39.826  26.063   1.802
37035W        W 9460  22.628  42.889   2.664
37036W        W 9461  23.103   0.896   0.300
37037W        W 9462  40.821  10.743  11.917
37038W        W 9463  36.923   3.350  11.492
37039W        W 9464  29.566  12.290  10.554
37040W        W 9465  31.109   6.305   2.678
37041W        W 9466  18.678  30.012   9.935
37042W        W 9467  28.013  28.967   4.810
37043W        W 9468  43.874  19.090  14.880
37044W        W 9469   4.441  32.119  11.541
37045W        W 9470  33.956  16.075  11.883
37046W        W 9471  12.150   2.405   3.369
37047W        W 9472  24.676  14.336   1.698
37048W        W 9473  21.054  37.079   2.852
37049W        W 9474  18.114  11.625  14.847
37050W        W 9475  18.086   7.787  13.944
37051W        W 9476  38.514  10.836   4.827
37052W        W 9477   9.719  20.182  14.298
37053W        W 9478  13.789   7.693  13.984
37054W        W 9479  18.768  29.923  11.464
37055W        W 9480  35.053  24.589   2.766
37056W        W 9481  20.208   0.837   1.916
37057W        W 9482   8.308   5.916  14.885
37058W        W 9483  31.644  13.308  14.823
37059W        W 9484  24.028  41.798   0.747
37060W        W 9485  18.597  14.695   3.343
37061W        W 9486  27.178  43.367   0.780
37062W        W 9487  40.488  19.112  12.890
37063W        W 9488   8.251  25.169   3.711
37064W        W 9489  34.059  19.267   1.899
37065W        W 9490  36.084  30.152  11.061
37066W        W 9491  41.529  33.406  13.039
37067W        W 9492  38.571  16.122   1.868
37068W        W 9493   8.338  20.200   2.760
37069W        W 9494   3.377  22.036  14.449
37070W        W 9495   3.894  21.710  13.508
37071W        W 9496   7.870   1.834   5.084
37072W        W 9497   6.702   2.868  12.986
37073W        W 9498  36.092  19.631   4.118
37074W        W 9499  19.171   6.680   3.222
37075W        W 9500   8.195  23.181   3.281
37076W        W 9501   5.930  23.697   2.685
37077W        W 9502  27.059  18.164  14.405
37078W        W 9503  21.542  30.152  10.533
37079W        W 9504   8.889  44.933   3.703
37080W        W 9505   0.313  39.555   3.210
37081W        W 9506  43.422   2.418   2.740
37082W        W 9507  30.568  19.194  11.946
37083W        W 9508  16.312  29.601  14.911
37084W        W 9509   4.432  24.624  13.830
37085W        W 9510  36.991  44.004   0.953
37086W        W 9511  38.996  37.426   4.239
37087W        W 9512  43.391   2.883  11.516
37088W        W 9513   9.180  20.578   0.325
37089W        W 9514  26.122   3.835  11.458
37090W        W 9515  30.009  20.207  11.061
37091W        W 9516  15.665  22.668   0.268
37092W        W 9517  28.036  35.895   0.322
37093W        W 9518  18.284  10.736  13.436
37094W        W 9519   4.881   3.881   5.155
37095W        W 9520  42.812  10.732  14.469
37096W        W 9521   0.367  14.728   3.655
37097W        W 9522  23.628  30.435  10.911
37098W        W 9523  40.544   9.150   2.199
37099W        W 9524  18.142  40.456  12.001
37100W        W 9525   8.706  22.231  10.638
37101W        W 9526  40.496  24.063  13.844
37102W        W 9527  23.727  18.764  14.291
37103W        W 9528  14.653  43.944   4.791
37104W        W 9529   2.426  40.808   2.708
37105W        W 9530  29.067  12.185  13.318
37106W        W 9531  26.568   7.666   2.391
37107W        W 9532   1.398  33.981  14.910
37108W        W 9533  14.325   8.667   2.756
37109W        W 9534  30.041   5.428  12.090
37110W        W 9535  42.778  35.472  14.290
37111W        W 9536   6.202  29.439   4.811
37112W        W 9537  26.077  31.123   5.566
37113W        W 9538  11.363  38.941   0.922
37114W        W 9539  39.024  43.477   4.789
37115W        W 9540  38.876  22.631  12.941
37116W        W 9541  11.724  31.568   2.830
37117W        W 9542   6.394  42.483  10.511
37118W        W 9543   3.812  23.239  11.086
37119W        W 9544   5.718  26.960   2.675
37120W        W 9545  20.763  23.624   0.782
37121W        W 9546  20.033  18.689  12.565
37122W        W 9547   7.410  27.972  12.552
37123W        W 9548  16.140   9.734  12.491
37124W        W 9549  34.888   4.308   3.651
37125W        W 9550  15.707  35.498   5.158
37126W        W 9551  30.926  19.625  11.535
37127W        W 9552  40.961  18.248   1.891
37128W        W 9553  16.138  38.567   4.173
37129W        W 9554   6.784  37.004  13.327
37130W        W 9555  29.145  27.574  10.887
37131W        W 9556  15.179  14.793   0.413
37132W        W 9557   6.187  18.265  12.064
37133W        W 9558  28.543  35.504   2.273
37134W        W 9559   0.964  31.126   3.746
37135W        W 9560   6.683   1.802   1.395
37136W        W 9561  42.905   1.360   0.890
37137W        W 9562  26.641  24.990   3.220
37138W        W 9563  14.172  15.682   2.841
37139W        W 9564  33.591  42.870  11.931
37140W        W 9565  33.453  40.392   1.337
37141W        W 9566  38.987  36.486   4.754
37142W        W 9567   9.705   9.232  11.947
37143W        W 9568  28.654  27.992  14.445
37144W        W 9569  41.956   8.739   0.809
37145W        W 9570  37.889  31.510  13.806
37146W        W 9571  37.534   8.657   1.385
37147W        W 9572   8.834   4.218   1.330
37148W        W 9573  26.515  26.692  10.593
37149W        W 9574  37.491   9.661   4.257
37150W        W 9575  39.056  23.623   1.910
37151W        W 9576  18.271  27.038   2.900
37152W        W 9577  33.480   5.778  10.514
37153W        W 9578   9.849  29.523   2.788
37154W        W 9579  33.059  18.569   5.165
37155W        W 9580  10.215  39.017  10.643
37156W        W 9581  32.076  35.537   4.717
37157W        W 9582  44.330  35.492   3.214
37158W        W 9583   0.810  23.676  13.992
37159W        W 9584  44.469  32.121   2.185
37160W        W 9585   7.752   6.203   0.917
37161W        W 9586  41.925  14.184   3.194
37162W        W 9587   1.767  27.514  14.385
37163W        W 9588  34.451  30.039  11.472
37164W        W 9589  30.011  10.864   3.193
37165W        W 9590  19.609   8.338  14.775
37166W        W 9591  35.476  41.325   1.805
37167W        W 9592  35.368  31.555   4.613
37168W        W 9593  16.709  34.022  10.990
37169W        W 9594   6.829  37.043  10.103
37170W        W 9595  36.463   3.742  14.787
37171W        W 9596   0.953  17.142  13.425
37172W        W 9597   4.800  21.726   0.838
37173W        W 9598  13.140  36.069   5.264
37174W        W 9599  37.027   6.781   1.773
37175W        W 9600   0.402  31.099  13.341
37176W        W 9601  32.907  23.233  13.452
37177W        W 9602  24.552  35.883  13.804
37178W        W 9603   4.333  20.103   1.917
37179W        W 9604   0.402  30.963   2.249
37180W        W 9605  32.402  12.624  12.898
37181W        W 9606   9.703  43.965   1.383
37182W        W 9607  21.676  43.960  12.565
37183W        W 9608  44.305  31.072  11.558
37184W        W 9609  15.640   4.789  14.962
37185W        W 9610  17.733  23.240   0.767
37186W        W 9611  36.419  11.811  13.433
37187W        W 9612  34.539   5.420   1.880
37188W        W 9613  23.080   3.377  14.852
37189W        W 9614  33.382  14.756  13.977
37190W        W 9615  40.342  35.536  12.465
37191W        W 9616  36.964   9.767   2.286
37192W        W 9617  41.496  34.474  12.966
37193W        W 9618  15.807  16.301   3.852
37194W        W 9619  11.734  27.015  10.568
37195W        W 9620  12.827  38.036  13.432
37196W        W 9621   6.311  10.827   3.661
37197W        W 9622  32.087   3.412   3.858
37198W        W 9623  16.268  26.691   4.605
37199W        W 9624  42.881   6.414   3.314
37200W        W 9625  26.661  36.467   3.797
37201W        W 9626  32.099  42.344  11.127
37202W        W 9627   1.413  10.795  12.922
37203W        W 9628  11.372   0.316  12.526
37204W        W 9629   3.418  13.303  14.963
37205W        W 9630  11.371  42.373   3.841
37206W        W 9631  16.739  38.961  13.375
37207W        W 9632  39.445  12.320  11.482
37208W        W 9633   4.702  36.066  12.834
37209W        W 9634  22.063  34.099   4.337
37210W        W 9635  38.355  18.569  10.453
37211W        W 9636  32.401   8.356   4.211
37212W        W 9637   1.424  21.590  14.947
37213W        W 9638  10.718   2.966  11.020
37214W        W 9639   4.426  44.490  13.993
37215W        W 9640  43.796  19.095  13.940
37216W        W 9641  10.236  20.533  11.471
37217W        W 9642  35.393  12.291   0.355
37218W        W 9643  20.763  42.991   1.211
37219W        W 9644  27.102  26.051  14.327
37220W        W 9645   3.875  32.433  14.494
37221W        W 9646  36.356  20.201  13.993
37222W        W 9647   4.822  16.702   2.803
37223W        W 9648   3.279   8.227  10.639
37224W        W 9649  29.132  14.616   0.352
37225W        W 9650   9.267  26.576   4.601
37226W        W 9651  35.468  29.096  12.436
37227W        W 9652  22.137  27.567  12.824
37228W        W 9653   4.818  29.920   3.148
37229W        W 9654  24.550  36.511   0.319
37230W        W 9655  23.542  38.052  14.483
37231W        W 9656  10.861  40.006   4.804
37232W        W 9657  33.593   8.685   3.649
37233W        W 9658  15.756  32.631   2.785
37234W        W 9659  21.082  11.765   3.360
37235W        W 9660  12.180  22.150   3.854
37236W        W 9661  34.031  26.136  13.471
37237W        W 9662  42.284  37.962   3.746
37238W        W 9663  25.093  17.650  12.989
37239W        W 9664  15.689  42.335  10.072
37240W        W 9665  10.637  39.047  10.122
37241W        W 9666  22.583  28.631  13.987
37242W        W 9667  16.638   1.859  12.980
37243W        W 9668  44.419  33.586  12.843
37244W        W 9669  24.177   4.869   2.884
37245W        W 9670  43.974   3.765   0.260
37246W        W 9671  27.516  28.123   1.826
37247W        W 9672  29.089   7.253   0.475
37248W        W 9673  28.611  39.812   4.819
37249W        W 9674  40.528   3.817   3.764
37250W        W 9675   4.251  37.540   3.835
37251W        W 9676  10.305  30.065  11.007
37252W        W 9677  11.265  10.165  11.611
37253W        W 9678  33.450   6.291   2.857
37254W        W 9679  11.225  20.151   2.275
37255W        W 9680  38.930  26.604   1.695
37256W        W 9681  29.469  35.449   4.346
37257W        W 9682  19.707  21.163  13.861
37258W        W 9683  12.193  41.521  12.828
37259W        W 9684  22.670   9.337  14.970
37260W        W 9685  42.485  39.965   0.889
37261W        W 9686  25.694  36.864   3.646
37262W        W 9687  28.021  13.621  12.939
37263W        W 9688   1.817  21.632  13.433
37264W        W 9689  39.414   8.840   4.116
37265W        W 9690  28.501  35.368  12.475
37266W        W 9691  10.368  36.055   2.868
37267W        W 9692   6.742  29.101   2.758
37268W        W 9693  37.993   6.831  14.491
37269W        W 9694  19.737  21.178   0.880
37270W        W 9695   2.443  11.803  10.055
37271W        W 9696  43.465  18.252  11.973
37272W        W 9697  30.978   7.822   2.894
37273W        W 9698  44.291  35.101   0.730
37274W        W 9699  43.855  36.400   3.832
37275W        W 9700   5.255  11.306  14.016
37276W        W 9701  20.127  32.954  11.398
37277W        W 9702  22.098  37.952  12.971
37278W        W 9703  19.718  39.982  13.462
37279W        W 9704  42.938   7.215  12.567
37280W        W 9705   5.795  35.965  14.426
37281W        W 9706  25.107   5.247   0.821
37282W        W 9707  25.116  19.748  13.874
37283W        W 9708  31.596  32.037   1.846
37284W        W 9709  40.438  28.092   1.826
37285W        W 9710  20.229  15.795   5.240
37286W        W 9711  10.375   9.845   3.665
37287W        W 9712   7.769  18.104   4.791
37288W        W 9713  29.997   1.947   0.482
37289W        W 9714   0.256  17.598  12.506
37290W        W 9715  21.026  43.375   4.690
37291W        W 9716  22.176  31.536   1.828
37292W        W 9717   7.828   6.750   9.581
37293W        W 9718  38.035  10.364   3.188
37294W        W 9719  11.204  18.154  12.529
37295W        W 9720   9.741  13.757   2.789
37296W        W 9721   0.878   5.378  11.096
37297W        W 9722  18.684   5.892  11.476
37298W        W 9723  32.395  33.112   3.236
37299W        W 9724  33.875  31.606   0.356
37300W        W 9725  35.496  27.977   3.185
37301W        W 9726   7.300  12.286  11.478
37302W        W 9727  33.887  34.453   2.717
37303W        W 9728  19.086   9.237  12.509
37304W        W 9729  37.917  41.935  11.057
37305W        W 9730   1.909  30.046  14.424
37306W        W 9731  41.337  23.998  11.987
37307W        W 9732   8.745  23.174   1.780
37308W        W 9733   8.322  42.858  13.914
37309W        W 9734  13.145  20.678   2.775
37310W        W 9735  31.544  13.607  12.404
37311W        W 9736  10.343   2.805  11.560
37312W        W 9737  28.929  31.137  12.503
37313W        W 9738  16.776  16.655  14.462
37314W        W 9739  22.650  14.227   0.251
37315W        W 9740  10.246   3.255  11.451
37316W        W 9741   3.241  10.738   0.897
37317W        W 9742   2.852  24.208   2.332
37318W        W 9743  13.234  36.538  13.906
37319W        W 9744  40.957  23.218   3.186
37320W        W 9745  37.980  37.085  13.520
37321W        W 9746  13.733  23.150  10.078
37322W        W 9747   5.208  25.089  12.980
37323W        W 9748  21.158  35.065  14.426
37324W        W 9749   6.365  24.007  12.510
37325W        W 9750  28.616  12.823  11.525
37326W        W 9751  26.574  40.322  14.459
37327W        W 9752  18.183   8.234  12.410
37328W        W 9753  19.215  41.504  10.632
37329W        W 9754  36.981   5.277  14.894
37330W        W 9755  38.060  32.981  12.902
37331W        W 9756  13.256  12.778  10.024
37332W        W 9757  22.252   7.407   3.241
37333W        W 9758  31.065  42.448  12.464
37334W        W 9759   4.439  18.737   1.827
37335W        W 9760  21.732  33.434  10.151
37336W        W 9761  19.551  28.984   3.676
37337W        W 9762  40.841  39.986   3.223
37338W        W 9763  43.284   2.756   4.748
37339W        W 9764   8.317   4.403   4.624
37340W        W 9765  37.945   4.807  14.018
37341W        W 9766  40.934  13.791   0.933
37342W        W 9767  38.531  29.004  11.553
37343W        W 9768   5.771  44.838  12.454
37344W        W 9769  43.271  34.088  12.858
37345W        W 9770  43.960  38.048  12.422
37346W        W 9771  18.714  24.623   3.789
37347W        W 9772  28.487  38.845   1.891
37348W        W 9773   8.663  44.377  12.454
37349W        W 9774  38.361   6.806  13.825
37350W        W 9775  39.334  31.466  11.519
37351W        W 9776   8.838  25.625  10.458
37352W        W 9777  15.164  39.510   3.844
37353W        W 9778  22.141   2.882  13.440
37354W        W 9779   6.425  19.753   1.907
37355W        W 9780  32.443  15.702   1.841
37356W        W 9781   3.812  30.621  11.980
37357W        W 9782  35.579  40.805   4.163
37358W        W 9783  39.821  16.795   2.846
37359W        W 9784  28.438   9.274  14.902
37360W        W 9785  15.761  27.121  14.499
37361W        W 9786  18.745   9.776  13.358
37362W        W 9787  34.954   8.808   4.259
37363W        W 9788  25.700  13.633  14.992
37364W        W 9789  13.604  34.953  11.959
37365W        W 9790   6.377  27.112  11.969
37366W        W 9791  30.542  24.171  14.994
37367W        W 9792   5.839   0.841  11.866
37368W        W 9793  37.950  17.568   4.647
37369W        W 9794  39.815   0.369   0.435
37370W        W 9795  29.573  16.095   0.274
37371W        W 9796  10.266  40.367   2.347
37372W        W 9797   1.901  28.636   4.801
37373W        W 9798  29.086  28.518   4.771
37374W        W 9799   4.928   8.298   1.328
37375W        W 9800   0.310  16.642   1.760
37376W        W 9801  22.571  27.542  11.560
37377W        W 9802   9.771   3.393  11.108
37378W        W 9803  26.026  42.785   0.337
37379W        W 9804  34.078  26.149  14.437
37380W        W 9805   8.747   5.295   1.221
37381W        W 9806  39.478   7.897  11.865
37382W        W 9807  29.080   0.780   1.300
37383W        W 9808  20.719  36.070   2.349
37384W        W 9809  15.255  26.134   0.469
37385W        W 9810   7.188   4.766  14.514
37386W        W 9811  18.741  22.009   3.778
37387W        W 9812  38.527  13.295   0.845
37388W        W 9813  43.957  28.460  10.958
37389W        W 9814   3.259  26.628   0.950
37390W        W 9815  17.714  31.999  13.517
37391W        W 9816  12.356  20.163  10.511
37392W        W 9817  23.657  38.562   0.356
37393W        W 9818   3.887  10.730   3.805
37394W        W 9819  39.447   4.300   3.832
37395W        W 9820   9.354  27.035   4.188
37396W        W 9821  17.555  42.028   4.183
37397W        W 9822  43.421   7.847   4.151
37398W        W 9823  43.015  32.092  13.545
37399W        W 9824  25.676  12.731   4.660
37400W        W 9825   8.793  19.093  13.388
37401W        W 9826   8.180  30.979  13.381
37402W        W 9827  15.116  44.341  12.408
37403W        W 9828  39.419  37.057  14.299
37404W        W 9829  13.160  34.902  10.995
37405W        W 9830  43.513  44.836  10.993
37406W        W 9831  30.554  34.973  13.489
37407W        W 9832   2.761  14.325  11.472
37408W        W 9833  15.146  33.039   4.114
37409W        W 9834  13.248  40.440   0.746
37410W        W 9835   6.369  31.443   2.418
37411W        W 9836  16.683   1.477  10.900
37412W        W 9837   1.468  28.453   2.741
37413W        W 9838  30.485  12.286  13.016
37414W        W 9839  34.370  17.751   4.830
37415W        W 9840  15.695  21.125  14.983
37416W        W 9841  32.630  28.480  11.992
37417W        W 9842   3.224   5.813  10.602
37418W        W 9843  25.116   1.858   2.250
37419W        W 9844   0.755  21.143  13.016
37420W        W 9845  23.594  10.679   5.667
37421W        W 9846  23.052  21.717  14.312
37422W        W 9847   6.235  23.206   2.763
37423W        W 9848  12.169  35.398  13.841
37424W        W 9849  15.669  33.041   3.248
37425W        W 9850  14.753  24.134   1.798
37426W        W 9851   0.923  16.609   1.729
37427W        W 9852  12.209   1.373   1.284
37428W        W 9853  31.950  23.103  12.086
37429W        W 9854  12.231  28.509   4.720
37430W        W 9855  13.840  22.536   3.179
37431W        W 9856   0.489  14.325  14.383
37432W        W 9857  41.833  36.436  11.998
37433W        W 9858  26.060   7.243  13.375
37434W        W 9859   1.483  37.340  14.827
37435W        W 9860  28.045  12.124   3.168
37436W        W 9861  16.639  27.138  14.819
37437W        W 9862  39.958  37.463  12.471
37438W        W 9863   4.894  15.223   0.747
37439W        W 9864  10.693  40.334  14.406
37440W        W 9865  35.101  29.016  14.789
37441W        W 9866  38.995  38.363   4.214
37442W        W 9867  27.012  35.104  12.068
37443W        W 9868  20.553   7.884  13.048
37444W        W 9869  29.963   3.326  12.533
37445W        W 9870  19.093  16.228   3.666
37446W        W 9871   5.397  15.294  10.547
37447W        W 9872   3.361  20.216   1.744
37448W        W 9873  28.036  32.521   1.758
37449W        W 9874  30.414  31.515  12.520
37450W        W 9875  19.136  17.677   2.345
37451W        W 9876  31.469  20.640  14.500
37452W        W 9877   3.870  20.652   1.798
37453W        W 9878  21.711  22.617   3.768
37454W        W 9879  18.606  25.087   0.302
37455W        W 9880  17.567  23.069   4.798
37456W        W 9881  40.854  35.373   4.253
37457W        W 9882  39.510  20.681   4.673
37458W        W 9883  18.783  24.033  12.078
37459W        W 9884  19.223  24.074   1.407
37460W        W 9885  35.966   9.269  12.006
37461W        W 9886  34.063  25.050   4.117
37462W        W 9887  14.251  18.285   9.949
37463W        W 9888  35.941  11.339   1.852
37464W        W 9889  11.644  19.606   1.339
37465W        W 9890  44.501  30.426  11.942
37466W        W 9891  25.493  43.859  10.543
37467W        W 9892   0.963  40.404  10.513
37468W        W 9893  31.983   8.310   0.381
37469W        W 9894  28.466  21.631   1.442
37470W        W 9895  22.030  17.247  10.907
37471W        W 9896  10.676  11.757   0.783
37472W        W 9897  14.186  31.113   4.246
37473W        W 9898   4.813   5.266   5.250
37474W        W 9899   5.836  32.994  14.020
37475W        W 9900  17.256  40.037   4.338
37476W        W 9901  16.615  30.111  12.875
37477W        W 9902   9.296  33.456  12.035
37478W        W 9903  11.216  40.941   2.179
37479W        W 9904   6.199  31.019   3.768
37480W        W 9905  41.300   5.388   2.342
37481W        W 9906  15.215  42.468  12.900
37482W        W 9907  42.864   6.403   3.768
37483W        W 9908   8.162  15.701  14.787
37484W        W 9909  20.235  29.552   1.711
37485W        W 9910   9.389  28.002   0.376
37486W        W 9911   0.276  18.647  14.334
37487W        W 9912  17.099   3.409  11.474
37488W        W 9913   9.710  42.949  13.352
37489W        W 9914   1.936  38.073  14.477
37490W        W 9915  26.520  19.111   0.931
37491W        W 9916  16.154  27.664   4.159
37492W        W 9917   8.797  18.724  11.077
37493W        W 9918   4.268  17.100   3.254
37494W        W 9919  40.532  16.588  10.987
37495W        W 9920  32.451  14.819  12.065
37496W        W 9921  43.814   8.746  12.439
37497W        W 9922   6.838  14.185  12.885
37498W        W 9923  22.514   0.975  13.315
37499W        W 9924  40.349  13.154  11.060
37500W        W 9925  32.997  42.406   4.186
37501W        W 9926  34.942  20.212   4.137
37502W        W 9927   8.827  30.596  10.496
37503W        W 9928  14.599   0.987  11.892
37504W        W 9929  31.929  33.018   2.393
37505W        W 9930  10.774   5.332   4.754
37506W        W 9931   6.704  20.632   4.228
37507W        W 9932   8.247  30.099  11.075
37508W        W 9933   8.247  16.693  12.424
37509W        W 9934  34.539   6.747   4.319
37510W        W 9935   6.892  34.999  13.480
37511W        W 9936  40.040  12.230   3.282
37512W        W 9937  32.063  34.006  14.002
37513W        W 9938   7.750   8.775  12.955
37514W        W 9939   7.260   0.475   3.824
37515W        W 9940  13.286  29.080  12.397
37516W        W 9941  40.963  25.057  10.490
37517W        W 9942   6.370  10.303   5.203
37518W        W 9943  12.203   6.425   2.709
37519W        W 9944  20.234  37.049  11.968
37520W        W 9945  23.642  43.351   3.646
37521W        W 9946  35.862  20.763  14.325
37522W        W 9947  44.265  23.990  13.377
37523W        W 9948  39.454   0.387   1.397
37524W        W 9949  26.052  40.028   3.384
37525W        W 9950  41.390  42.923   4.649
37526W        W 9951  30.643  44.443  12.422
37527W        W 9952  41.351  11.720  13.333
37528W        W 9953  41.330  10.690   1.228
37529W        W 9954  13.214  24.032   1.713
37530W        W 9955   4.735  16.190  14.469
37531W        W 9956  37.504  36.385  14.327
37532W        W 9957  20.557  17.147   2.814
37533W        W 9958  25.502  30.423  10.436
37534W        W 9959  40.308  16.629  14.880
37535W        W 9960  31.115  30.475   1.366
37536W        W 9961  42.000  44.844  12.359
37537W        W 9962   6.769  10.384   4.128
37538W        W 9963  18.259  11.244  13.471
37539W        W 9964  22.136  29.165   3.308
37540W        W 9965  35.470  30.566  11.883
37541W        W 9966  40.840  21.512   3.332
37542W        W 9967  42.985   0.972  14.790
37543W        W 9968  34.078   7.310  13.471
37544W        W 9969   6.281   7.837   0.831
37545W        W 9970  11.631  37.427  13.435
37546W        W 9971  22.186  31.594   2.319
37547W        W 9972   7.355  38.564   3.788
37548W        W 9973  30.907  42.281   4.207
37549W        W 9974  38.571   6.824   1.412
37550W        W 9975  30.139  26.010   1.861
37551W        W 9976  28.160   4.277   0.394
37552W        W 9977  41.432  24.054   1.902
37553W        W 9978  39.513   9.824  10.890
37554W        W 9979  22.017  26.982  12.052
37555W        W 9980  25.177  17.233   1.878
37556W        W 9981   0.931  35.547  13.544
37557W        W 9982  34.058   3.258  13.386
37558W        W 9983  23.118  30.593   1.353
37559W        W 9984   8.784  30.542   3.240
37560W        W 9985   3.407  13.132   3.173
37561W        W 9986  42.503  13.174  12.070
37562W        W 9987   6.368  23.557  14.516
37563W        W 9988  30.451  24.504   0.322
37564W        W 9989  42.338  17.180   0.304
37565W        W 9990   2.259  30.414  10.969
37566W        W 9991  26.618  29.511  13.929
37567W        W 9992   5.219   8.395   0.823
37568W        W 9993  42.330  19.620  14.303
37569W        W 9994   7.806  10.303   1.282
37570W        W 9995  38.980  24.982   0.354
37571W        W 9996  22.733   3.745   0.253
37572W        W 9997  20.173  25.680  10.632
37573W        W 9998   5.690  28.628  11.984
37574W        W 9999  33.603  15.207   3.826
37575W        W10000  32.593  19.598  10.478
37576W        W10001   6.311   2.234  13.806
37577W        W10002  35.580  28.094  11.542
37578W        W10003  32.993  29.491  12.051
37579W        W10004  43.376  26.062  10.510
37580W        W10005  25.070  12.228   3.680
37581W        W10006  33.129  30.909  11.552
37582W        W10007  30.434  16.723   2.307
37583W        W10008  44.889  44.371   0.942
37584W        W10009   8.182  24.661   1.432
37585W        W10010   8.820   8.164   1.739
37586W        W10011  23.687  17.212   3.263
37587W        W10012  19.749   4.929   3.279
37588W        W10013  44.424   4.700  13.546
37589W        W10014  23.205  23.997  14.505
37590W        W10015  11.330  15.307  14.863
37591W        W10016  13.159  21.193   0.807
37592W        W10017  31.428  38.451  12.066
37593W        W10018  44.340  43.945   4.739
37594W        W10019  24.130  34.040   2.812
37595W        W10020  32.896  39.986  13.427
37596W        W10021  16.762  34.411  11.489
37597W        W10022   1.931  25.109  12.461
37598W        W10023  20.109  17.153   1.223
37599W        W10024  22.746  22.721   5.269
37600W        W10025  33.981  26.101   4.752
37601W        W10026  14.246  42.513   4.737
37602W        W10027  42.325  28.985  13.802
37603W        W10028  28.945  14.253  11.026
37604W        W10029  43.344  38.032  14.846
37605W        W10030   4.886  15.230  14.953
37606W        W10031  12.186  22.723  14.371
37607W        W10032   6.842  19.580   1.698
37608W        W10033   2.964   1.270  14.968
37609W        W10034  28.181  12.206  10.064
37610W        W10035  27.102  31.464   1.915
37611W        W10036  13.623  19.211  14.427
37612W        W10037   1.814  12.641   0.955
37613W        W10038  41.811  34.461  10.470
37614W        W10039  24.197  14.248  13.906
37615W        W10040   5.815  21.544  13.923
37616W        W10041  43.949  17.677  11.037
37617W        W10042  37.480  18.721   4.730
37618W        W10043  31.904  32.041  10.072
37619W        W10044   5.903  35.367   3.383
37620W        W10045  42.875   0.840  13.514
37621W        W10046  35.388  35.103  11.472
37622W        W10047  11.238  40.860   4.744
37623W        W10048  27.105  30.130  14.297
37624W        W10049  29.667  23.152  10.903
37625W        W10050  28.663   9.265   0.253
37626W        W10051  31.594  11.358   1.747
37627W        W10052  14.251  33.963   4.261
37628W        W10053   0.983  35.060  13.337
37629W        W10054  39.454  22.660  12.473
37630W        W10055  34.498  37.392  11.112
37631W        W10056  29.172  26.989  12.946
37632W        W10057   6.741  18.686  11.886
37633W        W10058  31.089  35.536  14.462
37634W        W10059  16.748  41.038  14.915
37635W        W10060  22.233   2.764  14.449
37636W        W10061  33.903  19.660   3.336
37637W        W10062  18.647  37.073  10.443
37638W        W10063  15.252   0.962  12.979
37639W        W10064  26.587  22.711  13.963
37640W        W10065  10.205  16.694   0.415
37641W        W10066  29.503  16.220  12.076
37642W        W10067  19.090  11.657   1.403
37643W        W10068  13.736  40.934   1.815
37644W        W10069  13.662   1.391  12.517
37645W        W10070  11.257   8.720  11.970
37646W        W10071   2.298  22.660   4.699
37647W        W10072  15.682  24.190   1.382
37648W        W10073  19.740   4.266  12.025
37649W        W10074   9.701   9.809  13.957
37650W        W10075  36.887  39.909   1.703
37651W        W10076  24.684  29.025   1.766
37652W        W10077   8.337  38.392   9.648
37653W        W10078   6.794  32.888   1.787
37654W        W10079  11.734   6.339   0.378
37655W        W10080  17.188  12.766  11.375
37656W        W10081  26.203  11.696  14.491
37657W        W10082  11.850   4.874  11.606
37658W        W10083   0.955  36.414   0.301
37659W        W10084   1.382   1.805  12.014
37660W        W10085   4.401  28.664   4.194
37661W        W10086  22.215  10.672   3.842
37662W        W10087  42.023   4.944  13.456
37663W        W10088  13.784  39.977   2.259
37664W        W10089  35.895  10.697  12.930
37665W        W10090  22.558   2.731   4.234
37666W        W10091  40.877  12.345   0.915
37667W        W10092  33.044  13.270   3.708
37668W        W10093  16.157  27.002   4.738
37669W        W10094  40.488  18.668   4.615
37670W        W10095  10.193  18.764   3.658
37671W        W10096   9.156   4.376  12.509
37672W        W10097  16.193  29.028  10.512
37673W        W10098  13.735   5.882  10.532
37674W        W10099  29.501  20.132  14.860
37675W        W10100  29.941  10.788  12.051
37676W        W10101   3.917  19.630  12.994
37677W        W10102  37.548  18.626  13.977
37678W        W10103   2.734  18.668  14.866
37679W        W10104  39.829  15.220   1.772
37680W        W10105  24.173  26.466  12.992
37681W        W10106   7.227  36.585   4.760
37682W        W10107  41.966   6.271  11.091
37683W        W10108  24.033   7.385   9.925
37684W        W10109  21.166  13.638   3.865
37685W        W10110  29.974  12.210  11.381
37686W        W10111  29.664  10.357  10.589
37687W        W10112  16.140  15.596  14.008
37688W        W10113  44.461  39.404  12.372
37689W        W10114  30.025   3.459   2.325
37690W        W10115  34.905   6.416   3.183
37691W        W10116  42.849   4.423  10.934
37692W        W10117  15.277  17.731  14.787
37693W        W10118  19.690  25.126  13.025
37694W        W10119  33.460  23.074   4.349
37695W        W10120   0.797   4.276  14.799
37696W        W10121  21.195  21.183  10.415
37697W        W10122  13.732  19.178  11.868
37698W        W10123  27.059  21.123   3.687
37699W        W10124   6.414  30.564   0.958
37700W        W10125   9.847  33.105  11.385
37701W        W10126  33.508  20.622   4.761
37702W        W10127  10.649   1.241   0.334
37703W        W10128  20.081  19.598  12.346
37704W        W10129   8.181  27.179  13.380
37705W        W10130  29.112  32.424   1.427
37706W        W10131  13.140  41.355   3.250
37707W        W10132   7.246   2.260  14.867
37708W        W10133  28.522  36.936  12.015
37709W        W10134   8.205   5.338   0.845
37710W        W10135  18.224   0.358   3.759
37711W        W10136  40.384  33.104   0.406
37712W        W10137  12.766  38.518   2.411
37713W        W10138  33.082  25.218   2.392
37714W        W10139  25.495  31.089   2.720
37715W        W10140  27.029  16.274   3.735
37716W        W10141  37.433  43.999  13.022
37717W        W10142  32.896  40.312  12.946
37718W        W10143   6.228  28.665   2.278
37719W        W10144  27.005   0.940   1.882
37720W        W10145   9.646   9.326  13.000
37721W        W10146  26.566   4.282   3.798
37722W        W10147  35.875  33.132   0.275
37723W        W10148   2.280  17.724   2.215
37724W        W10149  23.048  30.602  11.072
37725W        W10150  33.420   5.293  14.018
37726W        W10151  37.338  44.273  10.972
37727W        W10152  14.719  30.533  10.645
37728W        W10153  21.033   0.946   2.872
37729W        W10154  37.424   8.327  14.790
37730W        W10155  13.720  24.032   5.303
37731W        W10156  28.072  18.220  12.019
37732W        W10157   4.841  38.487  12.455
37733W        W10158  44.996  17.202   2.856
37734W        W10159   8.794  43.806   0.845
37735W        W10160  23.716  25.027   1.887
37736W        W10161  21.068  44.280  13.000
37737W        W10162  27.543  38.906   3.245
37738W        W10163  31.472  29.933  11.863
37739W        W10164   8.832   4.294   3.306
37740W        W10165   9.171  43.965   3.770
37741W        W10166   3.220  19.650  10.917
37742W        W10167   0.340   5.390   1.921
37743W        W10168   3.304   2.760  10.972
37744W        W10169   2.778   9.743   4.672
37745W        W10170  12.138  35.425   4.180
37746W        W10171  13.747  31.971   2.221
37747W        W10172  42.860  20.721   3.153
37748W        W10173  22.637  34.062  14.375
37749W        W10174  19.266  25.964   2.368
37750W        W10175  31.510  19.041   5.763
37751W        W10176  43.432   1.940  13.863
37752W        W10177  35.507   3.417  13.518
37753W        W10178  17.624  36.966  13.894
37754W        W10179  42.975  42.408  13.544
37755W        W10180  20.224   2.280  10.967
37756W        W10181  27.004  23.511   4.268
37757W        W10182  35.856  44.991  13.877
37758W        W10183  38.517  31.084  10.985
37759W        W10184  18.247   5.728  12.037
37760W        W10185  42.527  20.079  11.019
37761W        W10186   7.395  31.974  12.411
37762W        W10187   7.354  10.324   2.313
37763W        W10188  40.933   6.249  11.920
37764W        W10189  36.888  41.806  11.876
37765W        W10190  18.745   9.684  13.922
37766W        W10191  13.224   7.866  14.447
37767W        W10192  44.758   9.335  11.106
37768W        W10193  39.838  43.345   4.810
37769W        W10194  23.641  25.526   4.689
37770W        W10195  22.106   0.828   2.182
37771W        W10196  39.968  27.491   3.377
37772W        W10197  17.649   0.421   4.242
37773W        W10198   3.813  11.682   3.650
37774W        W10199  21.186  41.355  11.024
37775W        W10200  43.428  31.987   4.834
37776W        W10201   1.386  31.059  14.284
37777W        W10202  11.287  24.014   2.290
37778W        W10203  24.221  42.337  14.301
37779W        W10204  35.495  36.485   2.865
37780W        W10205   5.723  25.188  12.537
37781W        W10206   0.799   7.770   5.145
37782W        W10207  26.046  34.979  11.494
37783W        W10208  40.923  36.357  12.015
37784W        W10209  30.605  35.380  11.433
37785W        W10210  42.484   4.416  11.917
37786W        W10211  41.921   9.202  11.957
37787W        W10212  40.340  37.405   2.199
37788W        W10213   9.651   8.363  10.629
37789W        W10214   0.955  26.207   3.354
37790W        W10215  29.498  24.030   4.603
37791W        W10216  24.491  10.838  10.031
37792W        W10217  21.085  18.578  13.480
37793W        W10218   4.254   1.952   3.680
37794W        W10219  36.505  29.958   3.688
37795W        W10220   5.283  35.371   0.262
37796W        W10221  22.721   3.756  11.874
37797W        W10222  37.855  16.137   2.829
37798W        W10223   6.247   6.256  10.082
37799W        W10224   4.743  34.071  14.501
37800W        W10225   8.876  18.613  13.984
37801W        W10226  17.661  12.819   2.399
37802W        W10227  13.148  39.063   0.743
37803W        W10228  30.536  34.564   4.312
37804W        W10229  33.954  32.969   0.837
37805W        W10230  34.604   6.201   1.391
37806W        W10231  28.582  31.124  10.435
37807W        W10232  10.788  33.561  14.775
37808W        W10233  26.975  20.080   3.342
37809W        W10234  13.838  34.437  13.002
37810W        W10235   6.330  12.191   3.839
37811W        W10236  12.855  21.144  13.877
37812W        W10237   7.408   0.405   0.449
37813W        W10238  25.694  19.651   5.120
37814W        W10239  10.710  14.785  11.413
37815W        W10240  20.591  33.978  10.461
37816W        W10241  40.439  30.460   3.655
37817W        W10242   8.320  28.558   1.829
37818W        W10243  30.008  19.739   4.689
37819W        W10244   6.847  16.319  14.467
37820W        W10245  17.716  12.733   4.211
37821W        W10246  24.025  37.363  10.082
37822W        W10247  38.473  25.633   4.715
37823W        W10248  44.430  31.946   3.716
37824W        W10249  26.552   1.462  14.863
37825W        W10250   8.164  11.629  12.396
37826W        W10251   4.324  37.897   4.301
37827W        W10252   9.354  10.807  14.952
37828W        W10253   6.801  39.883   1.694
37829W        W10254   3.827  13.242  11.383
37830W        W10255  31.440  23.509   2.775
37831W        W10256  38.841   3.328  10.106
37832W        W10257   4.729  25.646  11.085
37833W        W10258  26.461   3.828  11.924
37834W        W10259   3.398  28.012   2.275
37835W        W10260  13.201  16.733  12.060
37836W        W10261  29.953  29.095  10.513
37837W        W10262  41.427  40.815  12.925
37838W        W10263  23.549  18.286   4.801
37839W        W10264  22.567  31.029  11.996
37840W        W10265  14.715   4.719   1.440
37841W        W10266  41.033  29.425   2.305
37842W        W10267   2.260  31.092  14.410
37843W        W10268   7.880  18.248   0.427
37844W        W10269  25.027   2.444   5.213
37845W        W10270  41.380  42.935  13.996
37846W        W10271   4.944  33.529  11.567
37847W        W10272  31.609  27.478  11.557
37848W        W10273   6.725   3.746   0.844
37849W        W10274  41.422  27.549   0.339
37850W        W10275  16.219  16.784  10.949
37851W        W10276   0.820  18.250  11.484
37852W        W10277  33.111   3.813   2.746
37853W        W10278  37.008  36.857   0.400
37854W        W10279  28.486  24.521   4.759
37855W        W10280  15.607  34.372   0.883
37856W        W10281  31.966  23.993   1.317
37857W        W10282  13.655   0.908  12.859
37858W        W10283  16.693  24.007   2.827
37859W        W10284  21.139  26.184   0.824
37860W        W10285  32.025  31.503  10.484
37861W        W10286  40.313  23.559   4.781
37862W        W10287  42.793  31.003   1.315
37863W        W10288  29.448  24.628  14.322
37864W        W10289   9.373  15.193  11.003
37865W        W10290   0.888  25.470   1.216
37866W        W10291  18.168  31.091  14.369
37867W        W10292   8.355  19.746  11.453
37868W        W10293  29.625  14.633   3.744
37869W        W10294   8.745  33.017  10.915
37870W        W10295  16.581   6.348  12.827
37871W        W10296  42.003   4.216  10.443
37872W        W10297   7.750   6.853   4.788
37873W        W10298  42.409   3.896  13.820
37874W        W10299  43.951  31.431   4.709
37875W        W10300  17.258  31.634   3.380
37876W        W10301   9.710  23.717   2.301
37877W        W10302  41.793   1.913  11.549
37878W        W10303   1.941  35.981   0.381
37879W        W10304  17.225  20.655  10.902
37880W        W10305  29.650  26.080   3.355
37881W        W10306  44.292  15.243  10.494
37882W        W10307  28.514   6.187   1.756
37883W        W10308  44.911  22.633   4.346
37884W        W10309  21.705  13.185   1.806
37885W        W10310  40.472  21.072  10.024
37886W        W10311  12.812  31.419  10.521
37887W        W10312  13.199  28.483  10.961
37888W        W10313  44.409  25.566   0.740
37889W        W10314  33.581   9.351  14.493
37890W        W10315  17.200  31.142  11.880
37891W        W10316  31.515   2.941   1.815
37892W        W10317   3.364  10.380  13.320
37893W        W10318  10.710  22.649   9.974
37894W        W10319  43.971  20.253   2.252
37895W        W10320  19.058  20.158  13.386
37896W        W10321  27.645  15.317  11.867
37897W        W10322  25.139  11.220   2.764
37898W        W10323  30.082  22.053  14.389
37899W        W10324  31.998   6.314  14.475
37900W        W10325  31.066  43.410  13.827
37901W        W10326  40.549  13.148   1.714
37902W        W10327  44.968  12.293   3.349
37903W        W10328  41.379  13.674   3.217
37904W        W10329  23.056  34.465  14.785
37905W        W10330  41.385  18.255   1.308
37906W        W10331  19.050  20.642  10.932
37907W        W10332  37.023  23.992   3.810
37908W        W10333  26.489  24.484   2.817
37909W        W10334  26.033  28.021   3.777
37910W        W10335   3.789  44.381  10.625
37911W        W10336   0.822  21.157   3.378
37912W        W10337  17.236  16.268   3.174
37913W        W10338  36.528  21.621   1.897
37914W        W10339  19.691  26.498   4.202
37915W        W10340  42.316  15.582   1.399
37916W        W10341  23.509  32.484  13.992
37917W        W10342  14.811  37.954   4.701
37918W        W10343  22.535  44.813   4.234
37919W        W10344   6.244  19.740  11.989
37920W        W10345  19.680   3.361   2.799
37921W        W10346  14.705  13.228  13.906
37922W        W10347  11.318  15.180   2.859
37923W        W10348  18.065  32.604  14.828
37924W        W10349  21.019  25.667  14.344
37925W        W10350  43.940   1.435   2.305
37926W        W10351  30.574  15.742  10.414
37927W        W10352  15.693  22.070  14.852
37928W        W10353  42.849   9.644   2.239
37929W        W10354  44.755  31.440  10.503
37930W        W10355  31.602  43.898  10.602
37931W        W10356  37.979  24.100   4.237
37932W        W10357  28.463  37.424   0.944
37933W        W10358  40.860  41.993  12.450
37934W        W10359  23.492   7.766  12.876
37935W        W10360  41.464  34.095  10.468
37936W        W10361   6.833  17.708   3.305
37937W        W10362  39.914   9.846   3.300
37938W        W10363  40.367  38.945  10.637
37939W        W10364   3.258  17.282   3.835
37940W        W10365  10.648  19.138  11.512
37941W        W10366  34.487  11.628   4.242
37942W        W10367   6.851   1.429   1.388
37943W        W10368  23.543  14.690  14.811
37944W        W10369  18.101   4.412   3.860
37945W        W10370  24.099  42.779  14.285
37946W        W10371  33.077   4.246   4.717
37947W        W10372  41.018  27.160   3.753
37948W        W10373  39.889  26.508  11.393
37949W        W10374  29.641  40.345   3.152
37950W        W10375  43.350   1.785  11.478
37951W        W10376  39.952  17.657  14.334
37952W        W10377  35.032  20.056  12.894
37953W        W10378  34.079  20.194  11.104
37954W        W10379  24.215  18.205  10.430
37955W        W10380  28.972  30.931   2.768
37956W        W10381  27.174   6.765  14.995
37957W        W10382  43.949  41.803  10.444
37958W        W10383  38.974  23.524   0.254
37959W        W10384  27.070  26.486   1.416
37960W        W10385  28.159  30.503  13.441
37961W        W10386   6.332  17.798   4.818
37962W        W10387  37.438  26.966  11.897
37963W        W10388  30.452  17.194  11.964
37964W        W10389  30.929  27.466   3.862
37965W        W10390  34.536  14.723   1.872
37966W        W10391  16.583  29.044  13.383
37967W        W10392  26.658   8.845  12.448
37968W        W10393  38.024  33.011   1.884
37969W        W10394   5.404  43.910  11.945
37970W        W10395  33.517  19.612  13.338
37971W        W10396   0.486  10.697  13.976
37972W        W10397  43.471  37.565  11.495
37973W        W10398  25.651  38.382  10.640
37974W        W10399  41.805  38.033  10.617
37975W        W10400  12.279  39.985   3.639
37976W        W10401  31.633  36.946   3.847
37977W        W10402  29.977  25.634   1.870
37978W        W10403  27.607  36.418  14.481
37979W        W10404  14.827  16.708  13.822
37980W        W10405   9.760  12.615  11.496
37981W        W10406  34.401  11.282   3.700
37982W        W10407  40.523   0.821   0.481
37983W        W10408  22.701  25.529  10.624
37984W        W10409  38.492   0.419  12.065
37985W        W10410  36.850  40.827   3.815
37986W        W10411  42.963  17.263   0.828
37987W        W10412  32.410   0.967  13.483
37988W        W10413  31.015  34.549  10.981
37989W        W10414  27.617  17.763  10.622
37990W        W10415  33.974  21.218  14.385
37991W        W10416  21.735  28.123   2.321
37992W        W10417  14.791   9.300   3.831
37993W        W10418  36.979  12.274  11.489
37994W        W10419  32.022  16.225   1.829
37995W        W10420  15.200  29.523  10.525
37996W        W10421  15.782  15.654   1.797
37997W        W10422  17.065   1.966   4.679
37998W        W10423  21.620   2.917  13.432
37999W        W10424  32.991  15.683  13.343
38000W        W10425  44.466   2.869  13.357
38001W        W10426   6.922  29.480  12.438
38002W        W10427  20.270   3.898  11.499
38003W        W10428   3.954  23.187  13.006
38004W        W10429  30.494  20.662   2.712
38005W        W10430  36.374  20.187  10.509
38006W        W10431  17.674  42.478   1.327
38007W        W10432  12.648  34.492   3.158
38008W        W10433   6.389  20.151   4.208
38009W        W10434  12.712  14.262   3.851
38010W        W10435  37.469  31.490  12.575
38011W        W10436  10.800  40.406   1.738
38012W        W10437  36.968  25.575   0.363
38013W        W10438  12.285  27.169  11.443
38014W        W10439  15.159  38.882   4.760
38015W        W10440  28.621  40.452  12.953
38016W        W10441  20.232  31.466   1.271
38017W        W10442  10.659  37.962  11.422
38018W        W10443  25.591   7.866   4.299
38019W        W10444   6.219  29.117   1.327
38020W        W10445  41.948  11.802  11.552
38021W        W10446  24.065  28.050   4.787
38022W        W10447  38.999  26.132  10.963
38023W        W10448  29.156   6.689  12.883
38024W        W10449  41.992  32.137  12.571
38025W        W10450  16.670  15.307   0.332
38026W        W10451  13.234  22.106   2.874
38027W        W10452  24.566  29.578  10.970
38028W        W10453  21.731  33.920   0.478
38029W        W10454  14.634   7.333  11.489
38030W        W10455  11.144   0.322  14.491
38031W        W10456   7.250  17.577   0.801
38032W        W10457  16.119  42.910  14.504
38033W        W10458   7.827  27.516  10.559
38034W        W10459   7.402  24.036   4.253
38035W        W10460  33.459  15.125   3.385
38036W        W10461  30.591  26.146  13.349
38037W        W10462  31.495  40.389  14.954
38038W        W10463  35.587  36.039   3.743
38039W        W10464  13.745  13.791  11.965
38040W        W10465  44.003   5.915   0.886
38041W        W10466  24.621  41.963   4.736
38042W        W10467  43.014  42.826  11.472
38043W        W10468  24.691  24.140   4.138
38044W        W10469  18.749   9.390   0.857
38045W        W10470  27.191  34.551  14.811
38046W        W10471   7.704  34.419   0.267
38047W        W10472  14.184  31.021  13.470
38048W        W10473   2.436  28.492  12.505
38049W        W10474  36.586  33.904  13.817
38050W        W10475   0.397  29.062  10.509
38051W        W10476  11.693  43.794   0.942
38052W        W10477  33.395  12.287   3.694
38053W        W10478  20.632  20.657   4.638
38054W        W10479  12.857  28.082   3.283
38055W        W10480   4.869  35.949  10.563
38056W        W10481  37.532  31.640   4.726
38057W        W10482  39.525   6.683   3.800
38058W        W10483  28.997   2.340  13.046
38059W        W10484   4.881  30.503  10.137
38060W        W10485  40.800  22.174  11.011
38061W        W10486  37.875  19.118   4.230
38062W        W10487  41.913  40.800  12.563
38063W        W10488  31.618  18.131   1.895
38064W        W10489  43.345  32.126   3.317
38065W        W10490  18.670  37.932  13.462
38066W        W10491   6.257  39.395   2.237
38067W        W10492   5.389  18.704   4.130
38068W        W10493  35.593  19.592  10.626
38069W        W10494   1.744  31.028  13.802
38070W        W10495   8.291  23.659  11.403
38071W        W10496  44.427  20.133   3.299
38072W        W10497   3.931  28.622   0.811
38073W        W10498  21.725  33.040  11.099
38074W        W10499   3.294  35.462   4.809
38075W        W10500  31.929  41.341  10.158
38076W        W10501  33.490  31.432   1.747
38077W        W10502  38.472   1.381  13.309
38078W        W10503  42.417   9.265  12.902
38079W        W10504  10.819   1.746   3.832
38080W        W10505  22.058  22.141   0.243
38081W        W10506  41.885  17.796   0.317
38082W        W10507   6.808  37.968  12.945
38083W        W10508  22.523  13.663  11.967
38084W        W10509   0.864  35.904  12.476
38085W        W10510  12.281  36.917  12.093
38086W        W10511   9.889  38.963  12.466
38087W        W10512  35.514  26.150  12.448
38088W        W10513  28.112  35.983   1.897
38089W        W10514  20.212  11.743   4.355
38090W        W10515  30.104  36.593   3.751
38091W        W10516   3.796  22.017  13.953
38092W        W10517  16.253   9.652   0.266
38093W        W10518   0.427  15.230   4.642
38094W        W10519   6.797  26.673  13.953
38095W        W10520  24.205   1.310  11.003
38096W        W10521   9.792   6.359  13.895
38097W        W10522  44.284  35.525   2.343
38098W        W10523  12.303  12.174  14.989
38099W        W10524  13.151  20.548   4.622
38100W        W10525  43.801  25.566   4.187
38101W        W10526   7.668  36.093  12.578
38102W        W10527  27.996  22.730   0.943
38103W        W10528   0.832   3.423   0.382
38104W        W10529  13.251   0.273  11.906
38105W        W10530  38.057  28.455   2.680
38106W        W10531  21.723  27.091  14.936
38107W        W10532  35.487   6.335   3.774
38108W        W10533  13.648  36.974  11.450
38109W        W10534   0.348   6.193   0.481
38110W        W10535   9.834  43.360   0.945
38111W        W10536  20.733  19.752  13.410
38112W        W10537  23.636  20.114  13.041
38113W        W10538  41.942  14.761  12.500
38114W        W10539  25.623   5.356   1.902
38115W        W10540  21.032  11.264   3.265
38116W        W10541  34.552   0.893  12.413
38117W        W10542  16.303  33.968  14.778
38118W        W10543  33.598  22.222   3.241
38119W        W10544  19.632  41.374  13.035
38120W        W10545   9.680  12.156   3.743
38121W        W10546  40.537   4.731   2.378
38122W        W10547   4.738  27.562   2.271
38123W        W10548   8.763   4.431   1.753
38124W        W10549   0.873  34.997   3.152
38125W        W10550  31.916   7.172  10.103
38126W        W10551  17.671   0.476  12.572
38127W        W10552  17.652  31.102  13.426
38128W        W10553  34.401   5.278   3.720
38129W        W10554   6.366  37.496   3.267
38130W        W10555  37.988  41.525   4.730
38131W        W10556  27.118  37.909   2.382
38132W        W10557  29.624  15.206  12.075
38133W        W10558   1.818  34.426   1.413
38134W        W10559   8.841   2.389   1.884
38135W        W10560  41.507   4.862   4.226
38136W        W10561   9.266  14.658  13.822
38137W        W10562  24.089  10.677  14.979
38138W        W10563  12.739   6.753   4.130
38139W        W10564   7.874  34.510   1.451
38140W        W10565  31.554  40.865  14.014
38141W        W10566   7.403  18.673   3.375
38142W        W10567  28.596  35.068  14.506
38143W        W10568  19.710  32.104  12.430
38144W        W10569  13.825  36.982   4.231
38145W        W10570  10.666  27.132  11.465
38146W        W10571   1.816  34.050   0.966
38147W        W10572  31.567  27.940   2.875
38148W        W10573  42.965  27.099   3.354
38149W        W10574  32.529  34.402  13.497
38150W        W10575  27.082   2.814   4.734
38151W        W10576  30.970  32.563   3.868
38152W        W10577  34.992  34.392  13.393
38153W        W10578  16.157  14.738  12.545
38154W        W10579  28.939   5.933  10.921
38155W        W10580  36.857  33.580   3.342
38156W        W10581   1.794  27.059  14.804
38157W        W10582   6.840  24.076   0.801
38158W        W10583  34.477   8.860   2.680
38159W        W10584  27.066  36.878   3.243
38160W        W10585   2.935  33.466  11.999
38161W        W10586  20.199  15.781   0.846
38162W        W10587   6.389  32.978  10.415
38163W        W10588  22.598   6.736   1.741
38164W        W10589  34.385  18.785   3.794
38165W        W10590  26.158  13.116   2.796
38166W        W10591  29.651  25.044   3.690
38167W        W10592  21.131   2.902   3.711
38168W        W10593  15.716  36.411   2.314
38169W        W10594  42.383  29.070  11.562
38170W        W10595  37.925   0.755   2.725
38171W        W10596  20.606   5.785  11.864
38172W        W10597  12.279  16.703  13.548
38173W        W10598  29.448   5.308  10.620
38174W        W10599  27.666  20.051   0.926
38175W        W10600  44.416   1.944   0.265
38176W        W10601  12.208   9.720  12.035
38177W        W10602  13.661  31.093  14.009
38178W        W10603  22.646  14.664  13.921
38179W        W10604  22.564  26.463   1.330
38180W        W10605  35.559  32.966  11.594
38181W        W10606  23.702  30.127   4.177
38182W        W10607  38.972  22.104  14.835
38183W        W10608  37.873  39.387   4.689
38184W        W10609  28.534  41.012   4.734
38185W        W10610  16.281  35.888   3.369
38186W        W10611  16.174  12.819  13.317
38187W        W10612  22.572   0.283   4.287
38188W        W10613  19.049  17.187   3.149
38189W        W10614  12.183  35.558   1.390
38190W        W10615  12.782  10.688   2.795
38191W        W10616   9.883   6.844  10.122
38192W        W10617  43.387  12.211  13.919
38193W        W10618  29.008  37.369   4.264
38194W        W10619   1.913  37.063   1.419
38195W        W10620  30.643  23.169   1.913
38196W        W10621  19.645  21.252   1.394
38197W        W10622  34.529  30.908  12.508
38198W        W10623  27.946  12.129   0.293
38199W        W10624  42.485  20.735   3.248
38200W        W10625   2.873  37.955   3.692
38201W        W10626  19.713  29.169  11.464
38202W        W10627  15.133  37.541  14.878
38203W        W10628   8.844  23.553   2.353
38204W        W10629  21.209  14.695  10.578
38205W        W10630  23.540   0.401  13.467
38206W        W10631  39.445  18.169   3.219
38207W        W10632  40.947   3.906   1.826
38208W        W10633  10.191  33.999  13.492
38209W        W10634  32.959   2.962  13.841
38210W        W10635  28.152  36.584  11.442
38211W        W10636  37.981  10.784   2.257
38212W        W10637  16.103   0.311   4.293
38213W        W10638  18.248  27.460  12.448
38214W        W10639  37.380  13.747   2.903
38215W        W10640  31.648  25.500   2.798
38216W        W10641  13.803  39.898   3.386
38217W        W10642   6.690  35.962  10.465
38218W        W10643  26.526   3.256  13.529
38219W        W10644  29.057  20.089  10.908
38220W        W10645  13.624  26.133   2.764
38221W        W10646  38.013  41.480  10.993
38222W        W10647  10.191  40.527   5.089
38223W        W10648  42.415  16.679   4.231
38224W        W10649  13.254   3.763  12.082
38225W        W10650  38.889   7.809  13.991
38226W        W10651  34.940   9.814  14.359
38227W        W10652  40.821  11.703   3.838
38228W        W10653  40.966   9.661   1.283
38229W        W10654  27.683  37.507   2.403
38230W        W10655  44.478  35.422   4.724
38231W        W10656  14.313  37.455   1.896
38232W        W10657  44.379  20.254   0.298
38233W        W10658  25.667  31.455   1.224
38234W        W10659  37.846  32.481   0.811
38235W        W10660   3.830  16.771   3.732
38236W        W10661  38.510  14.334  13.482
38237W        W10662  23.222  27.655   1.248
38238W        W10663  26.458  41.538  13.063
38239W        W10664   5.734   0.436  10.938
38240W        W10665  33.006   5.291  11.577
38241W        W10666   8.836  27.540  12.522
38242W        W10667  10.253  33.490   2.673
38243W        W10668  16.700   9.278  14.471
38244W        W10669  32.068  43.366   0.262
38245W        W10670  22.189  10.749   1.806
38246W        W10671  24.143  12.810   1.764
38247W        W10672   3.452  38.364   0.961
38248W        W10673  17.164  20.188  10.424
38249W        W10674  16.773   6.761   2.355
38250W        W10675  20.145  35.458   2.684
38251W        W10676  18.636   3.753   0.431
38252W        W10677  16.153  41.535  14.882
38253W        W10678  31.144  27.154   4.706
38254W        W10679  10.319   1.818   9.950
38255W        W10680  29.645  24.194  12.948
38256W        W10681  17.789   2.867   5.219
38257W        W10682  14.227  14.294  10.949
38258W        W10683  24.551  25.526   0.745
38259W        W10684  39.352  20.192  13.823
38260W        W10685   1.460  25.988  13.032
38261W        W10686   5.385  15.773  13.968
38262W        W10687  40.460  42.934  12.997
38263W        W10688  10.689  42.869  12.895
38264W        W10689  41.392  38.389   2.375
38265W        W10690  16.159  38.440  14.929
38266W        W10691   9.174  31.503  13.809
38267W        W10692  42.421  20.617   0.770
38268W        W10693   3.860  29.077  14.785
38269W        W10694  21.678   6.376   1.409
38270W        W10695  23.546  43.397  13.881
38271W        W10696   5.841   3.874  14.834
38272W        W10697   1.460  10.788   0.345
38273W        W10698  19.232  39.841   2.404
38274W        W10699  16.615  19.141   4.320
38275W        W10700  26.174   4.321   3.632
38276W        W10701   1.380  40.008   4.345
38277W        W10702  36.564  38.536  13.496
38278W        W10703  23.182  30.422  10.410
38279W        W10704   5.872  36.417  13.446
38280W        W10705   4.322  31.954   4.677
38281W        W10706  41.374  41.043  13.367
38282W        W10707  21.590  22.020  11.093
38283W        W10708   1.874  15.818   0.243
38284W        W10709  32.489   0.920   3.742
38285W        W10710   1.349  43.460   3.163
38286W        W10711  24.632  38.355   3.787
38287W        W10712  27.968  21.531   1.280
38288W        W10713  20.619  19.239  13.348
38289W        W10714  42.385  37.944  13.449
38290W        W10715  42.823  30.475  11.576
38291W        W10716  14.214   6.248   1.758
38292W        W10717  19.633  34.476   0.942
38293W        W10718  13.610  26.632   1.867
38294W        W10719   9.293   8.838  14.821
38295W        W10720  18.140  44.800  11.522
38296W        W10721  32.989  35.025  10.959
38297W        W10722  32.904  40.041  14.784
38298W        W10723  39.036  43.432   3.347
38299W        W10724  13.671  26.177  12.899
38300W        W10725  11.693  16.318   2.335
38301W        W10726  23.516  40.306   0.760
38302W        W10727  11.153  41.442  14.793
38303W        W10728  33.953  16.697   3.147
38304W        W10729  41.865  14.157   0.420
38305W        W10730  43.802  14.626  13.395
38306W        W10731  13.242   0.748  11.043
38307W        W10732   2.389  25.690  13.473
38308W        W10733  43.497  16.800  13.544
38309W        W10734  29.132  11.257  12.980
38310W        W10735   0.315  21.654  14.772
38311W        W10736  35.980  23.528   3.353
38312W        W10737  40.386  18.676   1.881
38313W        W10738  27.056  13.616   2.744
38314W        W10739   9.153  30.077   0.957
38315W        W10740   9.787  37.523   0.286
38316W        W10741  42.914  43.857   1.413
38317W        W10742  23.683  15.692  12.840
38318W        W10743  18.724  43.323   1.432
38319W        W10744  16.699  20.091   0.902
38320W        W10745  24.080  21.618  10.432
38321W        W10746  20.037   7.213   0.384
38322W        W10747   8.365  12.686  10.529
38323W        W10748  16.570  33.917   1.408
38324W        W10749  39.532   4.811  14.811
38325W        W10750  35.052  14.740  12.380
38326W        W10751  20.636  37.551  10.435
38327W        W10752  40.357  17.767  11.509
38328W        W10753  38.963  41.383  12.391
38329W        W10754  11.777  42.469   3.331
38330W        W10755  28.108   6.677  14.308
38331W        W10756  30.646   3.371  13.987
38332W        W10757  21.663  18.730   4.184
38333W        W10758   0.935  10.862  12.880
38334W        W10759  24.654   1.946  10.982
38335W        W10760  20.523  42.803   3.753
38336W        W10761  40.343  15.711   5.253
38337W        W10762  18.567  14.635   1.321
38338W        W10763  36.859  20.056   2.343
38339W        W10764  32.494   0.366  12.963
38340W        W10765  42.851  10.334  11.412
38341W        W10766  32.908  10.341  11.988
38342W        W10767  38.844   1.906   2.202
38343W        W10768  40.365  35.939  13.347
38344W        W10769  33.013  26.683  10.896
38345W        W10770  22.172  39.990   4.261
38346W        W10771  22.110  40.534   1.436
38347W        W10772   6.299  32.520   3.799
38348W        W10773  40.514   4.375   4.619
38349W        W10774  26.666  30.591  13.829
38350W        W10775  28.970  23.214  11.000
38351W        W10776  12.769   1.784   1.879
38352W        W10777  23.182  31.568   4.290
38353W        W10778  17.756  11.360  11.951
38354W        W10779   7.243  18.744  11.508
38355W        W10780  41.391   7.394   3.354
38356W        W10781  23.138  34.554  11.539
38357W        W10782  41.798  44.444   1.840
38358W        W10783  40.461  21.543  13.336
38359W        W10784   9.247  30.603   2.185
38360W        W10785  30.619  44.344  11.941
38361W        W10786  44.777  25.542  12.533
38362W        W10787  35.465  17.304   3.784
38363W        W10788  17.186  22.070  10.408
38364W        W10789  35.060   1.828   1.716
38365W        W10790   6.842  27.656   1.304
38366W        W10791  10.790  30.935  13.440
38367W        W10792  12.673   1.819  11.072
38368W        W10793  26.065  37.482   1.880
38369W        W10794  16.622   2.330  13.832
38370W        W10795  21.160  25.138  11.986
38371W        W10796  31.504  16.613   1.262
38372W        W10797  36.452   0.248  14.413
38373W        W10798  34.377   1.478  14.473
38374W        W10799  26.977  21.093  11.590
38375W        W10800  25.595   6.350   0.314
38376W        W10801  11.802  12.772   3.806
38377W        W10802  35.473  31.062   3.198
38378W        W10803  16.117  31.896  11.487
38379W        W10804  13.260  30.149  13.054
38380W        W10805  23.209   4.899  11.990
38381W        W10806  19.680  36.503  11.111
38382W        W10807  34.521  33.103  13.818
38383W        W10808   9.291  13.672  11.456
38384W        W10809  13.677   0.423  14.016
38385W        W10810  30.434  44.976  11.972
38386W        W10811   9.673  40.866   0.737
38387W        W10812  26.984   5.689  13.905
38388W        W10813  41.513  33.947   3.152
38389W        W10814  23.663   0.298   3.825
38390W        W10815  34.939   4.306   0.804
38391W        W10816  32.983  18.619   1.794
38392W        W10817   7.316  33.554   1.361
38393W        W10818  43.450  30.562  10.093
38394W        W10819  44.425  23.051   1.330
38395W        W10820  25.058  39.845  12.558
38396W        W10821  11.366  23.715   4.752
38397W        W10822  24.008   1.776   4.329
38398W        W10823  42.030  25.522  10.905
38399W        W10824  32.390  10.142  10.965
38400W        W10825  37.425  12.278   4.123
38401W        W10826  33.385   4.760  12.469
38402W        W10827   4.328  23.161   0.277
38403W        W10828   6.407  14.116  10.555
38404W        W10829  15.152  44.348   0.909
38405W        W10830   8.402  16.683   2.254
38406W        W10831  26.685  28.093   3.251
38407W        W10832  29.541   0.860  10.972
38408W        W10833  21.091   5.257  10.993
38409W        W10834   0.794  31.453  10.967
38410W        W10835  36.361   2.757   0.343
38411W        W10836  14.325  24.228   1.212
38412W        W10837  20.154  38.468   3.657
38413W        W10838  43.476  34.032  11.489
38414W        W10839  43.443  34.980  14.946
38415W        W10840  10.195   6.274   2.188
38416W        W10841  41.340  13.193   2.330
38417W        W10842  42.916  27.054  13.027
38418W        W10843  35.915  42.005  10.509
38419W        W10844   2.372  18.268   4.341
38420W        W10845   9.236  38.965   3.719
38421W        W10846  32.991  35.368   0.327
38422W        W10847   6.702  34.521   2.182
38423W        W10848  24.680  11.759   3.254
38424W        W10849   0.290  44.472   4.153
38425W        W10850  39.386  10.261   3.644
38426W        W10851   8.245  21.045  11.099
38427W        W10852  29.502  26.035  10.484
38428W        W10853  28.444  23.194  14.776
38429W        W10854  20.751   7.699  10.563
38430W        W10855  21.065  36.455   3.767
38431W        W10856  43.902   3.933  13.965
38432W        W10857  13.117   4.943  10.467
38433W        W10858  38.960  44.799   4.144
38434W        W10859  35.372   3.812  10.510
38435W        W10860  27.968  39.836   4.326
38436W        W10861   1.738  18.268  14.949
38437W        W10862  17.249  25.498  14.972
38438W        W10863  37.533  15.221   4.274
38439W        W10864   9.203  26.116  14.842
38440W        W10865  21.708  12.345   2.776
38441W        W10866   7.277   1.893   3.212
38442W        W10867  41.497  27.055   2.407
38443W        W10868  28.137  40.489  11.444
38444W        W10869  30.047   8.845  12.516
38445W        W10870  41.490   6.710  12.863
38446W        W10871  11.214  13.599   4.353
38447W        W10872  28.946  23.014   3.386
38448W        W10873  33.622  34.581  14.789
38449W        W10874   1.272   3.821   1.317
38450W        W10875   6.303  37.522   0.899
38451W        W10876  22.683  35.489  11.915
38452W        W10877  17.068  23.678  13.910
38453W        W10878  29.115  28.468   2.841
38454W        W10879  36.372  26.135   3.715
38455W        W10880  35.048  14.739   1.219
38456W        W10881   3.874  19.143  12.977
38457W        W10882  25.117  18.237   1.903
38458W        W10883  18.603   3.910   2.753
38459W        W10884  25.018  20.262  13.457
38460W        W10885  23.609  23.539   4.838
38461W        W10886  29.170  38.569   4.739
38462W        W10887   2.873   6.714   1.837
38463W        W10888  23.195  27.161  13.518
38464W        W10889  20.065  17.576  13.515
38465W        W10890  29.038  42.422   0.884
38466W        W10891  13.717  40.412  11.984
38467W        W10892   6.348  33.533   9.952
38468W        W10893   1.917   4.249  12.987
38469W        W10894  27.519  24.222  12.846
38470W        W10895  38.821   6.274  10.641
38471W        W10896  44.843  42.867  14.303
38472W        W10897   0.984   9.731   0.435
38473W        W10898  26.012  37.342  13.949
38474W        W10899   6.226   0.869  14.511
38475W        W10900  19.728  21.696  11.913
38476W        W10901   6.406  11.194  14.849
38477W        W10902  37.573  25.022  11.925
38478W        W10903  30.596   1.320   2.210
38479W        W10904  37.438  38.925   3.683
38480W        W10905  16.596  10.670   0.789
38481W        W10906   4.386  14.120   4.822
38482W        W10907  27.948  33.060  14.775
38483W        W10908  21.535  23.651  11.505
38484W        W10909  31.474  16.713   3.273
38485W        W10910   7.179  32.065   5.114
38486W        W10911  42.470  38.036   2.759
38487W        W10912  17.728  32.605  14.835
38488W        W10913   2.823   3.834  14.760
38489W        W10914  40.516  35.479  12.940
38490W        W10915   2.785  23.722   0.245
38491W        W10916   6.379  30.096   2.216
38492W        W10917  17.124   9.739   4.234
38493W        W10918  15.307   1.277  11.564
38494W        W10919  29.509  11.132  14.460
38495W        W10920   1.964  44.955  10.501
38496W        W10921  20.575   6.351  13.368
38497W        W10922  23.551  38.828   4.344
38498W        W10923  27.024  35.957   4.199
38499W        W10924  24.684   1.753  13.493
38500W        W10925  30.089  34.037  12.909
38501W        W10926  19.539  34.543  12.070
38502W        W10927  11.749  26.605   2.332
38503W        W10928  17.121  41.816   1.269
38504W        W10929  15.775  28.543  13.334
38505W        W10930  26.670  28.457   3.850
38506W        W10931  44.797  12.172   0.285
38507W        W10932  43.987  31.007  14.901
38508W        W10933  10.729  20.153  11.388
38509W        W10934  40.920  42.843  12.918
38510W        W10935  15.181  20.563   1.262
38511W        W10936   0.329  15.660  10.629
38512W        W10937  18.598  27.042   2.216
38513W        W10938  43.976   8.316  11.866
38514W        W10939  16.208   0.385   2.716
38515W        W10940   9.164  39.985   1.337
38516W        W10941  37.446  27.073   2.687
38517W        W10942  37.471  11.178  12.363
38518W        W10943  30.426  19.606   4.804
38519W        W10944  40.054  31.515  13.938
38520W        W10945  18.232   1.286  13.413
38521W        W10946  32.981  24.664   2.391
38522W        W10947   5.715  38.533   3.300
38523W        W10948  23.580  12.199   1.808
38524W        W10949  14.156  11.741  13.030
38525W        W10950   8.830  22.747   4.758
38526W        W10951  40.541   9.284   3.642
38527W        W10952   7.210  15.701   0.775
38528W        W10953   9.810  31.117  13.837
38529W        W10954  25.154   2.462  13.405
38530W        W10955  18.144  20.651  13.979
38531W        W10956  37.380  22.696  11.948
38532W        W10957  17.288  42.791   0.953
38533W        W10958   7.871   5.210  10.992
38534W        W10959  29.969  24.131   3.859
38535W        W10960  29.653  28.956  10.005
38536W        W10961  30.069  41.384   2.312
38537W        W10962  33.555  14.777  13.467
38538W        W10963   7.696  38.934   5.268
38539W        W10964   6.784   1.444  12.994
38540W        W10965  41.470  23.523  14.828
38541W        W10966  33.054  42.961  11.490
38542W        W10967  21.527   2.878   3.176
38543W        W10968  32.000  25.094  11.877
38544W        W10969   1.821  10.323  14.838
38545W        W10970  30.994  19.571   4.136
38546W        W10971  40.357  15.240   3.168
38547W        W10972  30.477  38.828   1.342
38548W        W10973  10.295  10.668   1.915
38549W        W10974  31.954  27.951  12.576
38550W        W10975  16.625  43.900  12.453
38551W        W10976  34.384  36.011   0.793
38552W        W10977  24.536  41.799  12.465
38553W        W10978  18.245  13.695   0.859
38554W        W10979  41.851  43.434   5.082
38555W        W10980  17.667  19.246  12.040
38556W        W10981  39.404  13.655   4.314
38557W        W10982  39.348   8.398   4.799
38558W        W10983  35.504  10.305   2.181
38559W        W10984   6.716  14.245   1.404
38560W        W10985  11.202  27.539  11.976
38561W        W10986  31.141  32.004   0.281
38562W        W10987  16.623   6.352   3.317
38563W        W10988   9.281  18.068   3.792
38564W        W10989  34.970  44.787   1.743
38565W        W10990   2.857  32.100  12.564
38566W        W10991  32.133  12.623  12.391
38567W        W10992  12.246  42.340  12.088
38568W        W10993   2.783   3.807   1.241
38569W        W10994  29.944   6.256   0.393
38570W        W10995  38.937  27.655  11.967
38571W        W10996  23.220  10.295  13.830
38572W        W10997  13.343   4.301   4.751
38573W        W10998  32.986  11.277   0.249
38574W        W10999  43.440   9.191  10.584
38575W        W11000  10.766   8.793  14.924
38576W        W11001  35.056  23.086   3.762
38577W        W11002   9.733  29.100  14.363
38578W        W11003  37.942  15.585   1.841
38579W        W11004   1.781  12.239   1.902
38580W        W11005  44.869  15.779  10.416
38581W        W11006  19.558  17.700   4.766
38582W        W11007  27.963  25.575   1.297
38583W        W11008  22.582   3.256  13.807
38584W        W11009  34.408   7.701  13.857
38585W        W11010  40.013  29.627  14.959
38586W        W11011  27.527  23.663  13.042
38587W        W11012  26.091  16.142   0.257
38588W        W11013  30.056  37.515   2.674
38589W        W11014  18.166  29.486  14.786
38590W        W11015  22.054  28.594  13.444
38591W        W11016  36.521  37.482   3.669
38592W        W11017   9.240  26.578  10.544
38593W        W11018  19.594   7.846   0.475
38594W        W11019  15.270  17.112   3.735
38595W        W11020   8.279  23.545  13.810
38596W        W11021  38.975   0.903  13.396
38597W        W11022  35.859   6.922   4.306
38598W        W11023   2.464  36.498   2.274
38599W        W11024  34.406  36.086  14.889
38600W        W11025  14.679  28.604  13.880
38601W        W11026  14.811  18.616   4.632
38602W        W11027  37.387  42.389   4.788
38603W        W11028  32.019   0.340  11.115
38604W        W11029  40.928  38.410   3.295
38605W        W11030  41.903   2.902   2.869
38606W        W11031   3.896  15.120  10.623
38607W        W11032   5.925  31.998  12.964
38608W        W11033  34.426  21.118   9.937
38609W        W11034   0.814  39.037   0.470
38610W        W11035   5.352  29.519  12.449
38611W        W11036  33.391   2.286   1.873
38612W        W11037  40.835  14.650  12.834
38613W        W11038   1.757  15.109  11.893
38614W        W11039  11.803  16.750  14.858
38615W        W11040  30.930  14.789  12.879
38616W        W11041   1.740  10.760   1.223
38617W        W11042   4.373  20.581  12.028
38618W        W11043  19.268  14.633   1.344
38619W        W11044   6.795   0.377  12.849
38620W        W11045  37.943   5.418   4.223
38621W        W11046   1.784  35.381   4.195
38622W        W11047   9.860   1.863  14.349
38623W        W11048  10.357   6.403  13.022
38624W        W11049  43.965  40.443  12.979
38625W        W11050  21.598  12.198  14.770
38626W        W11051  25.175  36.568  11.534
38627W        W11052  35.560   9.860   4.810
38628W        W11053  43.790  12.766   2.715
38629W        W11054  33.902   4.309   3.290
38630W        W11055  22.661   6.679  13.508
38631W        W11056  19.670  42.372   1.211
38632W        W11057  44.951  11.685  12.469
38633W        W11058  22.151  28.995   4.654
38634W        W11059  27.971  38.965  10.119
38635W        W11060  21.618  10.711   1.273
38636W        W11061  38.980  36.096   2.181
38637W        W11062  40.852  16.608   3.645
38638W        W11063  44.841  38.403   2.899
38639W        W11064  13.652  42.311  12.937
38640W        W11065   4.930  40.402  12.875
38641W        W11066  25.690   4.209   4.288
38642W        W11067  38.501  41.423  13.375
38643W        W11068  28.091  29.969  12.851
38644W        W11069  42.517  15.173   1.762
38645W        W11070  24.560  44.968   0.939
38646W        W11071  18.743  42.404   3.257
38647W        W11072  36.482  23.166   3.806
38648W        W11073   3.929  44.905  13.803
38649W        W11074  16.700   0.869   2.244
38650W        W11075  18.568  14.606  14.004
38651W        W11076  11.315  44.311  12.881
38652W        W11077  31.549  19.617   0.812
38653W        W11078   5.932  14.628   4.785
38654W        W11079  29.483  40.047  11.601
38655W        W11080  12.686   5.764   1.807
38656W        W11081  19.537  16.794   3.833
38657W        W11082  36.412  42.922   3.641
38658W        W11083   8.733  24.558   4.797
38659W        W11084  38.396  31.415  13.873
38660W        W11085  21.202  41.481  14.968
38661W        W11086  43.946   0.266  14.790
38662W        W11087  19.257   8.402  11.910
38663W        W11088  18.706  39.516   1.698
38664W        W11089  12.155  38.462  14.759
38665W        W11090  35.425  20.164  12.363
38666W        W11091  44.992   6.755   3.160
38667W        W11092  25.618  13.340  14.990
38668W        W11093  14.263  34.875   5.122
38669W        W11094  40.347   8.209   1.423
38670W        W11095  43.427  36.426   2.820
38671W        W11096  23.733   5.301   1.332
38672W        W11097   0.325  13.636  11.950
38673W        W11098  25.058  41.449  11.923
38674W        W11099  26.108   0.423   2.879
38675W        W11100  20.644  20.183   3.689
38676W        W11101   8.326  39.478   2.289
38677W        W11102  30.477   0.954   0.433
38678W        W11103  34.439   8.349   1.419
38679W        W11104  38.884  19.543  12.854
38680W        W11105  23.517   8.303   3.661
38681W        W11106  20.162  23.073  13.803
38682W        W11107  13.813  25.519   9.933
38683W        W11108   8.192  23.585   1.396
38684W        W11109   7.850   0.353  13.806
38685W        W11110  29.922   8.678  11.077
38686W        W11111  30.045  13.746  13.419
38687W        W11112  23.725  14.752   1.723
38688W        W11113  26.157   6.860   0.427
38689W        W11114  33.909  36.035   4.674
38690W        W11115  36.930  22.026  10.618
38691W        W11116  30.577  11.176  11.413
38692W        W11117   5.924  35.505   3.784
38693W        W11118  22.562  25.040   0.251
38694W        W11119  29.131  41.509  12.514
38695W        W11120   2.896  29.628   3.246
38696W        W11121  22.599  25.139   2.358
38697W        W11122  34.041  19.257  10.640
38698W        W11123  27.512  17.783   2.743
38699W        W11124  40.372  14.097   3.330
38700W        W11125   1.890  40.545   2.276
38701W        W11126  11.651  33.876  13.528
38702W        W11127  30.081   2.356  11.372
38703W        W11128   4.288  19.626  14.817
38704W        W11129  13.765  23.492   4.207
38705W        W11130  21.637  29.572  12.954
38706W        W11131  14.694   8.883   3.242
38707W        W11132  33.986  10.142  10.910
38708W        W11133   8.821  18.267   1.829
38709W        W11134  17.740  39.551   0.962
38710W        W11135  29.456  15.268  11.065
38711W        W11136   2.798   5.763   1.332
38712W        W11137  23.054  44.781  13.949
38713W        W11138  13.828  19.549  10.492
38714W        W11139  38.049  17.163   0.469
38715W        W11140  10.827   5.815  10.123
38716W        W11141   6.720   5.329  14.834
38717W        W11142  30.015  38.406  12.547
38718W        W11143   6.810  28.006   1.726
38719W        W11144   5.876  43.822  12.932
38720W        W11145  43.960   1.376   2.704
38721W        W11146  21.030   7.225  11.598
38722W        W11147  16.141   6.285  12.076
38723W        W11148  28.438   8.657  10.895
38724W        W11149   9.264  15.174   2.299
38725W        W11150  10.699   6.316  14.928
38726W        W11151   2.877  34.560   3.815
38727W        W11152  43.317  23.998   4.301
38728W        W11153   0.767  43.323   4.329
38729W        W11154  32.492  43.322  13.458
38730W        W11155  24.547  38.029  12.079
38731W        W11156  43.764   4.319   3.722
38732W        W11157  30.428  14.186  13.960
38733W        W11158  23.143  34.454   4.812
38734W        W11159  21.046  17.150  11.384
38735W        W11160  22.571  40.938   4.300
38736W        W11161  17.075  35.009   4.171
38737W        W11162   4.841  16.183  12.922
38738W        W11163   5.376  12.306   1.448
38739W        W11164  21.182  29.534   2.737
38740W        W11165   5.697   4.423  11.002
38741W        W11166   7.355  13.834   0.943
38742W        W11167  17.168  25.531  11.861
38743W        W11168  12.791  28.472  14.432
38744W        W11169  10.144  25.967  13.456
38745W        W11170  20.123  25.497   2.683
38746W        W11171   0.839   5.732   4.139
38747W        W11172  22.118  32.886   2.402
38748W        W11173  43.324  30.427  14.297
38749W        W11174  17.626  15.155   4.749
38750W        W11175  44.912  18.675  12.837
38751W        W11176  20.183  16.804  10.532
38752W        W11177  41.919  43.462  12.010
38753W        W11178  26.479  31.473   2.890
38754W        W11179   2.303  21.556  12.534
38755W        W11180  16.078  14.751   0.330
38756W        W11181  11.642  37.515  10.083
38757W        W11182  20.585   2.447  14.983
38758W        W11183  14.322  30.005  14.361
38759W        W11184  43.014   2.799  11.454
38760W        W11185  44.366  25.022   2.877
38761W        W11186  44.289  27.152  14.896
38762W        W11187   1.348  43.274   1.777
38763W        W11188   1.405  12.764  14.488
38764W        W11189  36.370   1.916  10.915
38765W        W11190   2.336  20.181   2.390
38766W        W11191  13.694   2.913  10.629
38767W        W11192   8.312   5.921  13.860
38768W        W11193  37.066  32.134  10.637
38769W        W11194  12.816   3.879   1.354
38770W        W11195  20.754  13.787  12.026
38771W        W11196  12.826  23.208   1.838
38772W        W11197  35.506  20.673   1.860
38773W        W11198   9.858  26.029   2.393
38774W        W11199  36.528  18.096  14.331
38775W        W11200  24.223  29.567   0.283
38776W        W11201  31.139  22.232  13.390
38777W        W11202  44.319  23.145   4.650
38778W        W11203   0.313  31.039  12.986
38779W        W11204   5.325  42.955   3.320
38780W        W11205  37.033   4.431  12.437
38781W        W11206  37.966  28.080  12.030
38782W        W11207  14.145  22.084   3.187
38783W        W11208  35.522  20.045  10.578
38784W        W11209  31.436  32.490   3.751
38785W        W11210  23.204   0.485   4.816
38786W        W11211  25.030   0.918   4.293
38787W        W11212   4.286  31.402   0.906
38788W        W11213   8.168  18.622  12.829
38789W        W11214   3.432  19.742  14.817
38790W        W11215  34.919  34.106  11.099
38791W        W11216  22.137   9.723   3.854
38792W        W11217  43.293  10.141  12.880
38793W        W11218  21.126  37.521  12.960
38794W        W11219  13.310  30.438   5.294
38795W        W11220  16.778  29.142   2.666
38796W        W11221  42.358   7.377   4.306
38797W        W11222  30.499  13.629   2.756
38798W        W11223  10.640  39.382  12.395
38799W        W11224  27.626  13.603   1.919
38800W        W11225   8.285  38.928   0.878
38801W        W11226  25.644  37.416  11.091
38802W        W11227   9.258   9.859  13.849
38803W        W11228  12.273  40.410  12.931
38804W        W11229  37.855  36.460  11.070
38805W        W11230  33.985  17.264  11.005
38806W        W11231  12.756  22.671   9.973
38807W        W11232   3.736   6.685  13.418
38808W        W11233  17.630  37.418   4.136
38809W        W11234  41.042  39.862  11.943
38810W        W11235  28.589  18.594   2.281
38811W        W11236  28.979  15.164   4.130
38812W        W11237  21.224   8.871   4.156
38813W        W11238  26.191  34.019   0.902
38814W        W11239  43.973   8.692   0.324
38815W        W11240   3.347  11.682  14.411
38816W        W11241  12.731   6.855   2.379
38817W        W11242  36.560  37.450   1.721
38818W        W11243  11.652  38.508   3.791
38819W        W11244  31.032  43.475   2.191
38820W        W11245  18.591  44.438  13.497
38821W        W11246  12.180  22.013   0.948
38822W        W11247  28.522  18.607   4.183
38823W        W11248  19.614  20.591  10.522
38824W        W11249   3.304  16.246   0.817
38825W        W11250  17.747  14.212   4.181
38826W        W11251  21.181  20.259  10.472
38827W        W11252   5.225  21.631   2.896
38828W        W11253  15.247  38.925  13.876
38829W        W11254   3.713  27.106  10.958
38830W        W11255   7.363  34.013   1.275
38831W        W11256  21.190  10.322   1.380
38832W        W11257  14.792  42.001  11.583
38833W        W11258  25.156   7.782  11.890
38834W        W11259  27.187   5.233   3.273
38835W        W11260  31.958  44.309   1.353
38836W        W11261  43.937  36.020   0.246
38837W        W11262  31.997  13.702   4.130
38838W        W11263   6.710   7.270   4.663
38839W        W11264  25.982  31.511  13.843
38840W        W11265  40.408  39.836   0.307
38841W        W11266  14.758  10.875  11.589
38842W        W11267  38.899  12.619  10.432
38843W        W11268  10.272  39.940   1.889
38844W        W11269   7.333  35.982  14.492
38845W        W11270  11.304  17.671   4.159
38846W        W11271  27.053  10.219   1.871
38847W        W11272   7.704  10.195  12.550
38848W        W11273   4.335   2.925  11.888
38849W        W11274  20.124  31.938  12.392
38850W        W11275  43.929   1.480  12.989
38851W        W11276   6.736  34.443   0.412
38852W        W11277   4.442  39.339  12.088
38853W        W11278   6.257  21.716  12.043
38854W        W11279  33.989  10.246   0.947
38855W        W11280   8.887  25.707  12.410
38856W        W11281   3.308   9.297   2.328
38857W        W11282  41.840  17.164  13.013
38858W        W11283  11.800  16.090   0.853
38859W        W11284  28.583  15.189   3.172
38860W        W11285   8.889   8.845   2.759
38861W        W11286  37.412  29.657  13.871
38862W        W11287  31.550   1.349  14.466
38863W        W11288  32.116  14.275  10.096
38864W        W11289  21.239  17.114   5.195
38865W        W11290  19.562  16.167   2.246
38866W        W11291  24.010   1.933   2.384
38867W        W11292  15.213  44.945  11.074
38868W        W11293  27.945   2.429  13.973
38869W        W11294  40.356   4.788  10.104
38870W        W11295  19.121   8.755  10.968
38871W        W11296  19.158   1.301  10.439
38872W        W11297  30.462  18.123  10.427
38873W        W11298  40.537  30.576  12.033
38874W        W11299  29.523  18.109   2.187
38875W        W11300  40.428  17.632  11.127
38876W        W11301   3.894  20.766   2.866
38877W        W11302   6.864  28.586  14.401
38878W        W11303  41.531  44.390  14.391
38879W        W11304   5.339  22.209  10.480
38880W        W11305  29.113  26.136  11.928
38881W        W11306   0.345  43.485  11.566
38882W        W11307  11.823  31.472  10.631
38883W        W11308  44.421   7.401  11.546
38884W        W11309   9.877  31.002  10.461
38885W        W11310  11.653  11.140  10.549
38886W        W11311   4.805  43.497  14.814
38887W        W11312  11.763  28.547  10.505
38888W        W11313   7.338  31.644   2.215
38889W        W11314  32.925  20.147  11.889
38890W        W11315   7.364   1.384  12.493
38891W        W11316  10.280   1.828   2.817
38892W        W11317  18.573   1.746   2.255
38893W        W11318  43.906  13.122   2.895
38894W        W11319  21.680  43.302   3.856
38895W        W11320  34.058  33.494   4.176
38896W        W11321  34.594  20.661  13.508
38897W        W11322  23.666  24.546   0.771
38898W        W11323  10.680   9.686   1.383
38899W        W11324  31.478  12.121  13.494
38900W        W11325   2.456  12.822  10.030
38901W        W11326  32.004   3.310  12.525
38902W        W11327   6.303  37.052   3.697
38903W        W11328  11.646  20.725   1.417
38904W        W11329  41.904  40.039   3.765
38905W        W11330  15.178   5.434   0.387
38906W        W11331  19.193   4.380   0.248
38907W        W11332  28.567  11.163   4.201
38908W        W11333  37.998  43.345   5.650
38909W        W11334  37.886  44.758   1.362
38910W        W11335   3.353   6.771   0.429
38911W        W11336  28.041  41.472   2.207
38912W        W11337   7.278  26.513   2.418
38913W        W11338   3.850  42.024   4.208
38914W        W11339   2.935  43.828  12.928
38915W        W11340   5.737  20.133  12.460
38916W        W11341  21.095   4.303   1.245
38917W        W11342  33.533  30.954   0.771
38918W        W11343   7.250  33.447  12.981
38919W        W11344  16.740   8.200   3.808
38920W        W11345  11.643  39.429  11.433
38921W        W11346  13.174   6.815  13.949
38922W        W11347  13.343  20.615   1.856
38923W        W11348  16.278   0.819  10.572
38924W        W11349  25.099  23.542   2.874
38925W        W11350  39.865  40.365  14.969
38926W        W11351  14.147   6.232   2.249
38927W        W11352  41.919  21.550  13.854
38928W        W11353  25.683  16.199  11.557
38929W        W11354  31.645  16.708   0.906
38930W        W11355  33.887   7.255  14.298
38931W        W11356   9.156  34.465   0.414
38932W        W11357  38.889  18.204  14.941
38933W        W11358  35.394   6.238  14.314
38934W        W11359  33.114  26.102  13.405
38935W        W11360  20.107   7.244   4.803
38936W        W11361  30.461   8.843   0.301
38937W        W11362  36.076  11.757   4.210
38938W        W11363   5.267  11.164  14.910
38939W        W11364  36.086  44.420   0.367
38940W        W11365  43.368  40.406  13.007
38941W        W11366  28.946  12.844   3.745
38942W        W11367  24.611  14.626  14.318
38943W        W11368  26.098  13.657  12.521
38944W        W11369  19.693  44.368   3.778
38945W        W11370  22.615  22.163   4.805
38946W        W11371  34.025  21.558   1.875
38947W        W11372   6.870  43.375  14.002
38948W        W11373  43.822   4.750  11.887
38949W        W11374   9.204  27.595  12.917
38950W        W11375  15.604  29.594   3.310
38951W        W11376  43.932  16.287   2.723
38952W        W11377  41.335  20.090  10.490
38953W        W11378  10.799  16.113  12.968
38954W        W11379  29.042  44.977   1.711
38955W        W11380  44.386  22.643   0.939
38956W        W11381   0.978  29.544   2.217
38957W        W11382  25.137  31.953  13.432
38958W        W11383   9.219  25.151   0.797
38959W        W11384  10.746  25.976   3.164
38960W        W11385   3.818  15.638  10.548
38961W        W11386  42.381   0.779   2.828
38962W        W11387   2.280  34.577  12.488
38963W        W11388  15.784  10.687   3.745
38964W        W11389   2.725  35.387   3.338
38965W        W11390  18.767  11.143   2.240
38966W        W11391  44.933  44.000   0.739
38967W        W11392  14.720  20.654   1.811
38968W        W11393  20.700   9.237  10.619
38969W        W11394  13.740  44.908   3.185
38970W        W11395  23.124  32.529   4.727
38971W        W11396  43.916  37.447  11.443
38972W        W11397  42.813  40.518  10.913
38973W        W11398   8.244   3.426  14.321
38974W        W11399   8.833  26.530   3.249
38975W        W11400   2.736   7.749   0.372
38976W        W11401   7.729  34.555  14.987
38977W        W11402  24.068   9.714   1.407
38978W        W11403  16.135   7.772  10.920
38979W        W11404   6.890  16.655   3.639
38980W        W11405  19.759  24.507   4.773
38981W        W11406  31.445   4.726   1.364
38982W        W11407   9.774   9.181   2.840
38983W        W11408  31.469  12.612  14.505
38984W        W11409  32.445   7.853  11.435
38985W        W11410   2.340  43.771  12.486
38986W        W11411  41.962  27.555  14.876
38987W        W11412  31.013  17.596   0.948
38988W        W11413   2.247   7.312   0.284
38989W        W11414   9.831  11.132  11.489
38990W        W11415  21.057   6.306   1.825
38991W        W11416  20.152   0.388  14.322
38992W        W11417   7.258  41.523  10.546
38993W        W11418  26.628  21.698   0.247
38994W        W11419  11.210  24.026  12.426
38995W        W11420  34.005  35.940  11.090
38996W        W11421   2.757  43.434   3.644
38997W        W11422  44.864  10.647  14.300
38998W        W11423  11.784   9.178  14.329
38999W        W11424  39.843  29.958   3.720
39000W        W11425   2.903  12.697  10.446
39001W        W11426  36.562  27.595   4.757
39002W        W11427  19.239   2.908  11.438
39003W        W11428  39.884  36.458  13.428
39004W        W11429  37.922  25.965   3.805
39005W        W11430  39.319  12.249  12.964
39006W        W11431  22.687  31.090  11.125
39007W        W11432  24.686  19.587  13.423
39008W        W11433  22.047  35.952  10.999
39009W        W11434  28.179  43.820  13.389
39010W        W11435  35.424  21.188   4.779
39011W        W11436  42.950  21.198  13.469
39012W        W11437  29.610  26.975  14.345
39013W        W11438  35.994  24.610   1.802
39014W        W11439  37.865  37.500   3.870
39015W        W11440  21.653  15.788   0.280
39016W        W11441  28.951  23.089  13.968
39017W        W11442   1.737   7.710  11.081
39018W        W11443  42.903  25.181   0.306
39019W        W11444   9.156  36.533  10.154
39020W        W11445  34.949  29.540  11.396
39021W        W11446  41.517   9.747   2.793
39022W        W11447  31.926  23.032  14.464
39023W        W11448  13.219   6.837   0.739
39024W        W11449  27.137   1.946  12.059
39025W        W11450  16.745  28.605   1.862
39026W        W11451   3.733   5.848  14.899
39027W        W11452  13.657  14.316  12.016
39028W        W11453  36.006  33.086   2.241
39029W        W11454   8.228  41.858   2.794
39030W        W11455  23.164  23.557  10.420
39031W        W11456  20.149   1.375  13.891
39032W        W11457  40.014  29.145   3.266
39033W        W11458  25.585  37.346  11.960
39034W        W11459  33.013  34.090  12.580
39035W        W11460  34.386  30.088  10.535
39036W        W11461   4.885  18.286  11.864
39037W        W11462  28.576  31.064   3.317
39038W        W11463  37.905  26.484   0.266
39039W        W11464   3.312   2.441   1.770
39040W        W11465   6.220  33.120   1.784
39041W        W11466   3.434  15.813   4.279
39042W        W11467   6.265  10.179  10.118
39043W        W11468  31.536  14.111  11.063
39044W        W11469  44.894  23.222  13.001
39045W        W11470  31.510  19.222   2.808
39046W        W11471  38.900  42.777   3.714
39047W        W11472   9.277  30.146   2.835
39048W        W11473  12.168  39.329   0.812
39049W        W11474  38.483  20.525   1.798
39050W        W11475   0.407  15.119  14.803
39051W        W11476  11.768  17.767  14.952
39052W        W11477  28.606  10.766  10.457
39053W        W11478  14.164  15.276  12.474
39054W        W11479  43.434  12.731  10.941
39055W        W11480  28.562  37.045  14.871
39056W        W11481  28.941  33.391   2.323
39057W        W11482  40.399   3.388  13.390
39058W        W11483   0.895  22.213   4.258
39059W        W11484  34.435  14.747  10.542
39060W        W11485  20.028   2.369   4.683
39061W        W11486  20.543  21.614   4.299
39062W        W11487   5.401  38.941  13.366
39063W        W11488  43.282  35.502  14.297
39064W        W11489   9.302  17.141  10.020
39065W        W11490  24.562  31.487  12.572
39066W        W11491   4.286  16.726  14.345
39067W        W11492   4.212  35.376   1.248
39068W        W11493  37.940  35.922  11.863
39069W        W11494  18.164  36.058   0.440
39070W        W11495   2.233  21.697  11.896
39071W        W11496   0.966  16.812   2.765
39072W        W11497  37.837  26.488  13.468
39073W        W11498  38.911  14.737   3.710
39074W        W11499  37.979   8.255   3.215
39075W        W11500  22.231  15.124  14.384
39076W        W11501  14.258  13.645   3.655
39077W        W11502  18.133  30.105   1.294
39078W        W11503  37.512  19.108  14.284
39079W        W11504   2.852  15.761  14.377
39080W        W11505  11.628  19.259  11.586
39081W        W11506  13.806  23.597   0.433
39082W        W11507  24.072   5.424  13.386
39083W        W11508   9.371  31.039  12.539
39084W        W11509  27.943  37.575   5.158
39085W        W11510  26.070  39.482  13.971
39086W        W11511  32.888  14.788  13.999
39087W        W11512  13.280  20.650  10.910
39088W        W11513  25.474  24.566  14.366
39089W        W11514   2.261  10.259  14.326
39090W        W11515   5.356  19.272  14.004
39091W        W11516   9.244   0.289  14.394
39092W        W11517  30.051  13.253   1.243
39093W        W11518  25.587  40.484  10.525
39094W        W11519  23.189  40.051  14.816
39095W        W11520   3.344  36.528   1.418
39096W        W11521  40.451   6.800   0.358
39097W        W11522  14.258  21.602  11.004
39098W        W11523  24.620   6.189   3.338
39099W        W11524  11.168  43.968   4.143
39100W        W11525  27.944  40.522   4.196
39101W        W11526   0.793   8.255   2.664
39102W        W11527  23.551  39.028  14.998
39103W        W11528   6.714   6.895   2.716
39104W        W11529  16.622  10.327   1.750
39105W        W11530  21.052  34.497   3.805
39106W        W11531   7.841   9.759   0.368
39107W        W11532  41.482   5.760   0.954
39108W        W11533   8.739  14.700  14.333
39109W        W11534  43.344  28.651  10.548
39110W        W11535   8.799   7.181  11.860
39111W        W11536  38.509  40.466   3.270
39112W        W11537  23.715   7.847  10.433
39113W        W11538  19.631  26.488   3.333
39114W        W11539   8.386  20.686   4.320
39115W        W11540  14.184  23.619   0.466
39116W        W11541  25.220   5.356   2.379
39117W        W11542  14.773  10.873   2.825
39118W        W11543  40.466   5.414   3.845
39119W        W11544   1.321  13.614   2.731
39120W        W11545  26.108   6.203  13.439
39121W        W11546  10.196   5.404  14.915
39122W        W11547  24.217   3.712   3.679
39123W        W11548   6.207   5.316   1.787
39124W        W11549  34.481   2.436  11.983
39125W        W11550  11.850  43.438   3.254
39126W        W11551  37.580  29.576   3.830
39127W        W11552  10.677  20.201   0.330
39128W        W11553  36.489  15.151   2.752
39129W        W11554  30.502  14.243   3.667
39130W        W11555   3.414   4.722   3.377
39131W        W11556  10.271  12.802  13.408
39132W        W11557  37.577  36.560   3.651
39133W        W11558  29.571  22.720  12.011
39134W        W11559  38.009   7.886   4.301
39135W        W11560  31.084  37.015   4.771
39136W        W11561  26.035  20.073  12.509
39137W        W11562   2.248  25.648  13.892
39138W        W11563  26.556   4.825   1.360
39139W        W11564  10.177  41.841  12.882
39140W        W11565  16.240  30.430  10.637
39141W        W11566  42.285   1.470   1.773
39142W        W11567  27.481  28.989  13.966
39143W        W11568   2.877   8.717   4.614
39144W        W11569   7.252  40.312  10.948
39145W        W11570   2.723  24.647   4.775
39146W        W11571  39.958  28.944  14.428
39147W        W11572  44.481   7.345  10.005
39148W        W11573  31.929  43.488  12.996
39149W        W11574  15.249  39.347  14.350
39150W        W11575  43.862  36.372  13.875
39151W        W11576  10.826  34.389   3.327
39152W        W11577  26.143   0.790  14.970
39153W        W11578  17.626  38.334   2.372
39154W        W11579  18.176   5.300  10.572
39155W        W11580   9.709  20.029  12.078
39156W        W11581  10.150  20.207  12.915
39157W        W11582  15.086  11.640  11.552
39158W        W11583  14.318   2.842  12.897
39159W        W11584  21.145  14.255  14.788
39160W        W11585  28.575  44.321  12.523
39161W        W11586  16.611  20.673  14.771
39162W        W11587  35.585  40.909  11.489
39163W        W11588  20.745  36.363  14.314
39164W        W11589  15.647  41.523  11.954
39165W        W11590  41.013  12.651  13.803
39166W        W11591  44.503  30.108  12.069
39167W        W11592  40.340   5.408   3.315
39168W        W11593  41.802  30.643   1.779
39169W        W11594  23.726  22.545   0.810
39170W        W11595  20.070   6.306   4.239
39171W        W11596  30.115  26.666  12.440
39172W        W11597  21.027  32.134  12.036
39173W        W11598  28.645  29.523   4.258
39174W        W11599   1.412  30.631  13.994
39175W        W11600  34.985   7.346  12.553
39176W        W11601  23.576   1.276   2.320
39177W        W11602  21.520  11.689   1.306
39178W        W11603  10.722  21.755  14.012
39179W        W11604  19.613  39.839  10.621
39180W        W11605  43.411  35.903   4.630
39181W        W11606  28.615  17.707   0.808
39182W        W11607  32.885   1.856   3.239
39183W        W11608  35.502   4.423  14.879
39184W        W11609  11.714  14.150  13.479
39185W        W11610  31.459   7.886  13.408
39186W        W11611  22.556  29.593   3.848
39187W        W11612   2.448   8.259   2.411
39188W        W11613   1.745  34.959   0.892
39189W        W11614  32.435  33.995  10.905
39190W        W11615  38.994  43.461  11.862
39191W        W11616  18.549  26.010  12.367
39192W        W11617   6.281  28.986  10.013
39193W        W11618  12.716   9.283   5.139
39194W        W11619  21.541  44.842   3.760
39195W        W11620  42.925  41.314  13.008
39196W        W11621   9.385  12.169  11.383
39197W        W11622  44.259  32.594   1.373
39198W        W11623  33.084  27.591   2.765
39199W        W11624   9.303  21.229   2.212
39200W        W11625  44.272  34.066   3.307
39201W        W11626  36.999  39.387   4.125
39202W        W11627  43.871   7.909  13.858
39203W        W11628  18.202  23.988   3.291
39204W        W11629  26.552   7.263   0.863
39205W        W11630  22.734  10.149  11.607
39206W        W11631   8.336  35.908  13.425
39207W        W11632  22.999  28.629  11.009
39208W        W11633  30.947   6.259   3.280
39209W        W11634  11.277  37.864   2.819
39210W        W11635   8.822   1.376  14.414
39211W        W11636   8.269  21.526  11.467
39212W        W11637   7.672   7.868  12.547
39213W        W11638   5.328  28.105   2.301
39214W        W11639   1.819  39.384   3.303
39215W        W11640  28.990  22.196  13.806
39216W        W11641   8.771  34.529  11.051
39217W        W11642  27.500  17.102   1.880
39218W        W11643  37.967  32.904  11.518
39219W        W11644  22.245  18.152   3.789
39220W        W11645   3.316  31.996   1.216
39221W        W11646  43.451  28.169   4.705
39222W        W11647   3.282  18.258   1.236
39223W        W11648   5.426   1.783   0.877
39224W        W11649  36.485  41.885  14.491
39225W        W11650  19.764  17.194   3.371
39226W        W11651  35.098  17.183  14.854
39227W        W11652  12.211  14.812   0.901
39228W        W11653  15.758   8.188   3.332
39229W        W11654  35.500   5.291   4.802
39230W        W11655   0.375  14.116   3.309
39231W        W11656  16.313  39.461  12.483
39232W        W11657  33.088  18.110  14.500
39233W        W11658   9.647  21.137   2.679
39234W        W11659  43.325  30.010   4.342
39235W        W11660   7.867  33.020  12.418
39236W        W11661  25.678   8.875  14.937
39237W        W11662  33.968  11.353  11.570
39238W        W11663   3.720  32.557   2.805
39239W        W11664  36.950  16.682  14.450
39240W        W11665  37.373   3.274   4.809
39241W        W11666  22.133  25.075  14.959
39242W        W11667   7.763  10.760  12.484
39243W        W11668  39.355  18.245   1.778
39244W        W11669   2.298   1.904   3.308
39245W        W11670   8.342  13.315  11.869
39246W        W11671  43.996  25.624  14.368
39247W        W11672  18.286  16.293   3.814
39248W        W11673  40.389  44.988  14.855
39249W        W11674  12.844  29.540  12.358
39250W        W11675  36.003   8.238  11.963
39251W        W11676   5.383  24.108  13.948
39252W        W11677  34.595  16.270  14.799
39253W        W11678  44.989   8.166   0.448
39254W        W11679   4.215  11.674  12.911
39255W        W11680  24.589  42.935  11.406
39256W        W11681  32.423  21.738  10.490
39257W        W11682   8.817  38.859  13.961
39258W        W11683  40.445   0.457  11.490
39259W        W11684  26.697  24.519  11.536
39260W        W11685   3.856  33.611   3.308
39261W        W11686  10.282  40.799  13.045
39262W        W11687  14.752  14.127   1.263
39263W        W11688  20.098   9.676  12.355
39264W        W11689  44.925  18.202   4.244
39265W        W11690   0.808  26.131  11.117
39266W        W11691   1.426  37.041   4.830
39267W        W11692  40.456  37.064  10.996
39268W        W11693  14.158  43.769  13.528
39269W        W11694  41.933  16.579   1.846
39270W        W11695  12.272  44.822  14.944
39271W        W11696   8.275   5.300  10.602
39272W        W11697  35.560   6.755  10.929
39273W        W11698  27.997  30.106   4.705
39274W        W11699  44.459  13.308   5.268
39275W        W11700   7.687  27.607   4.609
39276W        W11701  27.084   3.721  14.427
39277W        W11702  16.185   6.763  13.965
39278W        W11703  10.319  40.965   1.233
39279W        W11704   1.759  22.625   4.751
39280W        W11705   5.261  12.149  12.839
39281W        W11706  38.863   0.468  11.916
39282W        W11707  32.407  11.369   2.415
39283W        W11708  41.007  36.587  13.467
39284W        W11709  17.756  10.728   0.369
39285W        W11710   4.851  18.687  11.535
39286W        W11711  42.294  31.002  13.055
39287W        W11712  37.387  35.972   4.340
39288W        W11713  42.343  25.500   2.368
39289W        W11714  13.684  17.280   0.372
39290W        W11715   8.712  14.185   3.789
39291W        W11716  38.932  43.797  11.432
39292W        W11717  26.006   1.895  14.861
39293W        W11718  30.446   7.842   2.763
39294W        W11719   5.871   2.420  14.805
39295W        W11720  37.059   1.284  10.523
39296W        W11721   8.734  26.188  11.091
39297W        W11722   8.808   9.711  12.886
39298W        W11723  41.792  27.604   4.307
39299W        W11724  20.525  18.690   4.249
39300W        W11725  17.677  40.957   0.287
39301W        W11726  14.287  11.335   3.833
39302W        W11727  41.383  30.476   4.639
39303W        W11728   6.778  32.886   4.274
39304W        W11729  37.559  30.638   4.140
39305W        W11730  39.844  12.140   2.295
39306W        W11731   8.851  19.710   0.807
39307W        W11732  27.467   5.843  12.052
39308W        W11733   8.224  14.175  11.910
39309W        W11734  31.922  41.793  12.476
39310W        W11735  29.553  14.761   1.390
39311W        W11736  38.947  40.852   2.279
39312W        W11737   8.853  44.379  13.468
39313W        W11738  25.507  42.397  14.967
39314W        W11739  39.314  43.271   2.220
39315W        W11740  24.074   2.302  13.498
39316W        W11741  42.905  37.902   4.825
39317W        W11742  25.665   2.440   2.178
39318W        W11743  12.296  12.305  10.639
39319W        W11744   9.847  16.097   1.726
39320W        W11745  33.565  17.622  13.878
39321W        W11746  28.098  21.155  11.613
39322W        W11747  39.429   6.767  11.532
39323W        W11748  13.680  10.745   4.290
39324W        W11749  27.651  26.602   2.213
39325W        W11750  18.092  14.598  11.006
39326W        W11751   3.806  19.132   4.199
39327W        W11752  27.559  36.028  13.995
39328W        W11753   4.370  26.550   0.317
39329W        W11754  26.665  31.455   4.827
39330W        W11755  35.055   4.833  12.552
39331W        W11756  38.384  18.748  10.913
39332W        W11757   8.879   8.856   3.210
39333W        W11758   6.207  10.866  14.868
39334W        W11759  40.391   7.775   0.846
39335W        W11760   8.310  33.413  13.045
39336W        W11761   0.796  15.627   2.212
39337W        W11762  31.001   7.299   1.330
39338W        W11763  17.667   9.268   0.843
39339W        W11764  29.086  13.134   4.307
39340W        W11765   8.860  17.198   0.739
39341W        W11766  13.703  37.934  14.798
39342W        W11767   4.845  15.809   1.884
39343W        W11768  35.385  24.003   5.593
39344W        W11769  15.733  25.568   1.284
39345W        W11770  34.453  34.441   0.301
39346W        W11771  11.804  38.993   4.824
39347W        W11772  12.696  26.118  13.057
39348W        W11773  27.103  27.144   3.699
39349W        W11774  14.296  11.653  11.497
39350W        W11775  14.251  24.707   2.850
39351W        W11776  39.891  32.486   0.367
39352W        W11777  27.006  31.461  14.473
39353W        W11778   9.344  26.649   1.318
39354W        W11779  21.165  37.896  12.543
39355W        W11780   9.702   5.417  11.541
39356W        W11781  20.751   7.187   2.695
39357W        W11782  44.884  12.657  13.342
39358W        W11783  30.581  18.244  14.315
39359W        W11784   0.900  41.970   3.319
39360W        W11785  16.706  15.710  12.577
39361W        W11786   4.435  10.872  12.362
39362W        W11787  32.465   6.738  11.938
39363W        W11788  38.847  11.279  10.144
39364W        W11789  41.531  22.162   0.344
39365W        W11790  23.668  23.118  13.969
39366W        W11791   5.725  30.493   4.295
39367W        W11792  38.920  31.612  14.922
39368W        W11793  10.307  44.432   0.458
39369W        W11794   0.784  14.647  10.417
39370W        W11795   6.744  22.062   1.818
39371W        W11796   9.236  25.995   3.677
39372W        W11797  36.518  35.105  13.506
39373W        W11798  20.129  26.142   3.656
39374W        W11799   1.782  29.172   1.242
39375W        W11800  19.763  38.403   3.704
39376W        W11801  44.897  20.556  12.024
39377W        W11802  27.145  41.822   3.660
39378W        W11803   5.335   5.885  10.960
39379W        W11804  38.523  37.437   4.703
39380W        W11805  30.516   2.341   4.780
39381W        W11806   8.403  21.079  14.003
39382W        W11807  25.632  32.033  13.874
39383W        W11808  27.093   1.257   1.423
39384W        W11809  28.108  25.980   9.954
39385W        W11810   2.732  40.316  13.442
39386W        W11811  24.103  42.875  11.480
39387W        W11812  37.850  28.624  11.566
39388W        W11813  12.752  29.441  11.007
39389W        W11814   8.782  38.905   4.268
39390W        W11815  39.492  37.556   3.205
39391W        W11816  18.692  17.731   4.808
39392W        W11817   2.876  26.115   0.323
39393W        W11818  41.490  33.487   0.312
39394W        W11819  37.507  18.250   1.722
39395W        W11820  44.489  31.483   0.923
39396W        W11821  36.390  26.025   2.265
39397W        W11822  27.589   4.837   3.148
39398W        W11823   7.696  12.248   1.778
39399W        W11824  42.827  25.502   0.935
39400W        W11825  34.377  14.094  13.935
39401W        W11826   0.315  24.506  11.079
39402W        W11827   6.780   2.852  10.548
39403W        W11828  37.400  40.414   0.479
39404W        W11829  20.049   6.731  10.898
39405W        W11830   3.416  13.320   2.330
39406W        W11831  29.050  14.764  11.877
39407W        W11832   9.860  20.703  10.564
39408W        W11833  38.900  13.750   2.845
39409W        W11834   1.920  30.068   0.876
39410W        W11835   0.771  33.490  14.793
39411W        W11836  13.277   5.273  10.979
39412W        W11837  12.192  19.648  10.908
39413W        W11838  44.278  12.668  12.874
39414W        W11839  21.666  32.898  13.527
39415W        W11840  18.133  44.756   4.187
39416W        W11841  23.576  31.428   1.745
39417W        W11842   4.241  19.203   0.776
39418W        W11843  38.441   5.788  14.405
39419W        W11844  33.502   2.255  12.411
39420W        W11845   5.209  25.497   0.311
39421W        W11846   9.216  13.819  11.958
39422W        W11847  13.837  26.092  13.528
39423W        W11848   0.452   9.762  13.481
39424W        W11849  42.510   0.328  13.322
39425W        W11850   1.368  23.094   1.279
39426W        W11851   3.922  36.384   1.912
39427W        W11852  35.403  19.040   2.357
39428W        W11853   0.764  31.112  13.423
39429W        W11854   8.792  28.932  14.848
39430W        W11855  42.831  27.530  13.897
39431W        W11856  38.526  30.099   1.758
39432W        W11857   1.963   2.950   0.393
39433W        W11858  22.024  38.894   2.181
39434W        W11859  24.058  40.533  13.440
39435W        W11860  43.473  38.545   3.683
39436W        W11861  11.787  44.403  10.911
39437W        W11862  19.607  36.941   1.273
39438W        W11863  29.483   3.435  14.787
39439W        W11864  39.420  15.297  13.990
39440W        W11865  21.576  10.259  13.968
39441W        W11866  23.115  28.060  14.858
39442W        W11867  36.021  24.048   3.315
39443W        W11868   8.265   2.798   1.755
39444W        W11869  10.818   9.218   9.561
39445W        W11870   7.813  20.167  10.546
39446W        W11871  38.896  14.793  10.990
39447W        W11872  32.584  30.970   0.286
39448W        W11873  12.178  23.129   5.219
39449W        W11874  43.810  35.505  11.574
39450W        W11875   6.299  30.467   3.215
39451W        W11876   0.357  13.215   4.173
39452W        W11877  36.447  22.251  13.884
39453W        W11878   2.307  18.131   3.333
39454W        W11879  16.716  24.650  12.028
39455W        W11880  24.026  31.929  14.953
39456W        W11881  36.860   8.711  13.370
39457W        W11882  31.565  10.281   0.843
39458W        W11883  28.014  16.140  12.417
39459W        W11884  35.990  41.933   3.754
39460W        W11885  20.723  11.659   4.120
39461W        W11886  10.691  10.286  14.030
39462W        W11887  35.570  34.411  13.462
39463W        W11888  26.972  18.105   3.722
39464W        W11889  44.397  20.069  13.410
39465W        W11890  31.504   0.421  11.898
39466W        W11891   1.892  28.101  13.461
39467W        W11892  34.954  29.664  10.454
39468W        W11893  17.560  26.517   4.263
39469W        W11894  42.394  26.189   2.674
39470W        W11895  10.380   0.249   2.419
39471W        W11896  31.996  36.468  13.867
39472W        W11897  15.247  26.999   0.892
39473W        W11898  20.669  42.387  11.986
39474W        W11899  31.487   7.878   1.750
39475W        W11900   6.745  14.643  14.310
39476W        W11901  25.596  23.149   1.880
39477W        W11902   2.424  10.355   2.829
39478W        W11903  39.936  16.197   2.367
39479W        W11904  44.399  17.633  13.035
39480W        W11905  32.983  42.893   4.117
39481W        W11906  34.018   6.702  12.501
39482W        W11907  10.791  20.661  14.894
39483W        W11908  42.873  31.548   4.632
39484W        W11909  43.015  38.461  14.967
39485W        W11910  26.126  43.877  12.825
39486W        W11911  26.165  13.817   1.451
39487W        W11912   6.321  16.079  13.836
39488W        W11913  16.688   6.751  14.494
39489W        W11914  40.412   2.417   1.885
39490W        W11915   6.276   2.257   3.719
39491W        W11916  31.559  14.108   3.870
39492W        W11917  37.966  15.691  11.565
39493W        W11918  36.953  28.935  12.973
39494W        W11919  16.729  31.546   3.246
39495W        W11920   6.214  23.234   1.745
39496W        W11921  44.886  35.035  13.468
39497W        W11922  10.792  30.979   0.243
39498W        W11923   4.716  29.562  12.483
39499W        W11924  12.831  42.520   0.249
39500W        W11925   6.336  42.919   0.853
39501W        W11926  36.873  12.646   1.226
39502W        W11927   6.233  23.063   4.282
39503W        W11928  37.552   4.798   5.202
39504W        W11929   9.758   0.916   4.810
39505W        W11930   7.840  37.043  12.513
39506W        W11931  42.470  42.359  14.797
39507W        W11932  28.144  10.829   1.712
39508W        W11933  39.374   9.824   2.765
39509W        W11934  28.642  16.750  12.015
39510W        W11935  40.379  19.700  13.363
39511W        W11936  30.486   3.948   3.656
39512W        W11937   4.934  40.831   0.956
39513W        W11938  35.911   6.258  12.942
39514W        W11939  19.072  19.079  10.582
39515W        W11940  27.517  18.103   3.384
39516W        W11941   3.768  16.134  14.513
39517W        W11942  30.946  12.824   3.825
39518W        W11943  22.704   6.805   4.183
39519W        W11944  15.628   6.184  10.558
39520W        W11945  39.998   2.248   3.221
39521W        W11946  39.873   9.673   0.868
39522W        W11947  23.126  18.078  11.413
39523W        W11948   9.192  41.931   3.694
39524W        W11949  39.503  24.669   0.361
39525W        W11950  30.082  17.730   4.335
39526W        W11951  37.547  14.315  14.875
39527W        W11952  26.698  13.142   4.667
39528W        W11953  13.750  32.628  12.488
39529W        W11954  37.883   2.417   1.806
39530W        W11955   5.861  32.611   3.315
39531W        W11956  43.283  30.096  13.325
39532W        W11957  31.597  43.823   4.282
39533W        W11958  22.693   3.800   4.789
39534W        W11959  36.466  27.680   0.894
39535W        W11960  35.583  21.560   4.235
39536W        W11961  36.922  22.680   5.593
39537W        W11962  23.149   3.294   1.355
39538W        W11963  20.751  28.027  13.016
39539W        W11964  37.466   1.389   4.258
39540W        W11965   1.419  32.025   3.349
39541W        W11966  27.581  26.607   1.797
39542W        W11967   2.964  17.595   3.257
39543W        W11968   2.388  27.946  12.940
39544W        W11969   1.345  30.488  10.492
39545W        W11970  35.023  11.835  10.911
39546W        W11971  15.629  25.085  11.061
39547W        W11972  33.441  10.637  10.555
39548W        W11973  34.028  12.258  12.563
39549W        W11974  32.052  23.497   1.242
39550W        W11975  36.586  43.303  14.926
39551W        W11976  39.537  26.102  12.520
39552W        W11977   7.905  16.603   0.271
39553W        W11978  21.556  13.618  12.365
39554W        W11979  23.033   7.746  13.021
39555W        W11980  31.591  31.920   4.674
39556W        W11981  13.675  15.719   3.262
39557W        W11982   0.875  28.653   3.699
39558W        W11983  43.349   5.766   4.283
39559W        W11984   9.860  35.394  12.479
39560W        W11985  22.622   1.837   1.360
39561W        W11986  20.602   4.262   1.788
39562W        W11987   0.970  24.530   0.866
39563W        W11988  17.131  21.743  12.976
39564W        W11989  24.201  30.644   3.339
39565W        W11990  33.421  33.021   0.891
39566W        W11991   8.866  34.941   2.759
39567W        W11992  32.559   0.922  10.492
39568W        W11993  15.197   8.844   3.632
39569W        W11994  17.198  29.985  12.541
39570W        W11995   3.313   0.292   3.208
39571W        W11996  37.871  25.168   5.175
39572W        W11997  27.982  32.437   2.232
39573W        W11998   0.256  12.216  12.015
39574W        W11999  11.657  13.255   2.896
39575W        W12000  35.489   0.446   3.766
39576W        W12001  15.113   9.742   1.301
39577W        W12002  44.266   2.300  14.004
39578W        W12003  30.605  12.646  10.944
39579W        W12004  13.699  38.482   4.731
39580W        W12005  36.002  23.152  14.354
39581W        W12006  21.092  21.085  13.791
39582W        W12007  28.178  38.069  13.539
39583W        W12008  37.569  17.270  11.919
39584W        W12009  14.311  25.566   0.476
39585W        W12010  32.546  37.517   4.741
39586W        W12011  35.105  31.621   3.362
39587W        W12012   8.871  22.184  13.902
39588W        W12013   5.369  18.122  13.438
39589W        W12014  33.912  38.943  14.977
39590W        W12015  25.525  27.996  12.026
39591W        W12016  19.182  34.925   4.746
39592W        W12017  32.992   7.829   4.753
39593W        W12018  39.526   6.830  12.471
39594W        W12019  20.056   3.282   1.268
39595W        W12020  25.563  30.502   2.681
39596W        W12021  41.793  18.141  13.967
39597W        W12022  30.487  18.187   3.240
39598W        W12023  13.294  12.272   4.276
39599W        W12024  11.673  12.711  10.106
39600W        W12025  30.604   3.915   4.820
39601W        W12026  33.526  36.433  14.895
39602W        W12027  26.156  19.115   4.700
39603W        W12028  41.489  10.758  11.517
39604W        W12029  42.404   3.301   0.759
39605W        W12030  17.599  36.090  12.454
39606W        W12031  29.522  39.916   2.838
39607W        W12032  25.205  41.340   0.409
39608W        W12033   4.363  20.215   3.684
39609W        W12034  31.584  31.539  12.825
39610W        W12035  22.019   5.296   2.252
39611W        W12036  11.716  13.728   0.771
39612W        W12037  32.885  28.115   1.302
39613W        W12038  18.716  44.786   1.696
39614W        W12039  40.915  27.569  11.014
39615W        W12040   8.720  31.026   1.742
39616W        W12041  11.277  43.010   2.747
39617W        W12042   3.743  11.677   0.392
39618W        W12043  34.591  23.565   3.275
39619W        W12044  12.231  40.417   0.440
39620W        W12045  37.480  10.333  14.958
39621W        W12046   0.290  27.147   0.758
39622W        W12047  44.370  32.957   2.284
39623W        W12048  33.045  40.807  12.969
39624W        W12049  15.589  20.618   3.187
39625W        W12050   3.930  14.826   3.743
39626W        W12051  41.323  10.229   0.343
39627W        W12052  44.827  21.099  12.441
39628W        W12053  35.536   2.416  12.580
39629W        W12054  16.619  34.101  12.984
39630W        W12055  27.992  27.489  14.981
39631W        W12056   8.888   2.752  10.637
39632W        W12057  36.545  19.283  11.112
39633W        W12058  41.461   8.313   1.832
39634W        W12059   0.955   3.413  10.963
39635W        W12060  33.888   3.341   4.314
39636W        W12061  17.181  20.598  13.498
39637W        W12062  31.626  18.168   5.190
39638W        W12063   8.744   7.192   0.480
39639W        W12064  30.532  25.064  12.345
39640W        W12065  13.721  44.788  12.056
39641W        W12066  14.767  41.820   1.934
39642W        W12067  10.202   3.758   3.855
39643W        W12068   4.244  18.641   0.476
39644W        W12069  19.699  17.723  14.008
39645W        W12070  44.469  22.596   4.671
39646W        W12071  30.964   6.848   2.858
39647W        W12072  10.373  40.456   1.786
39648W        W12073  17.070  36.856   4.233
39649W        W12074  25.532  31.648  12.881
39650W        W12075  28.523  43.945   2.757
39651W        W12076  19.177   8.362   0.945
39652W        W12077  40.431  12.773  12.993
39653W        W12078  17.302   7.713  14.432
39654W        W12079  26.161  23.501  11.485
39655W        W12080  31.907  11.844  12.013
39656W        W12081  30.915  43.764   2.896
39657W        W12082  17.126  14.708  11.950
39658W        W12083   5.321  14.733   2.251
39659W        W12084  35.498  21.711  12.055
39660W        W12085  28.121   6.705  13.315
39661W        W12086  41.038  36.575   2.261
39662W        W12087  32.887  12.124  12.015
39663W        W12088  44.011   7.238   0.771
39664W        W12089  22.700  22.717  13.827
39665W        W12090  10.176  29.978  13.799
39666W        W12091  12.753  28.038  14.377
39667W        W12092  36.588  33.048   3.196
39668W        W12093   8.769  22.669   1.721
39669W        W12094  30.659  41.916  12.488
39670W        W12095  12.780   2.858   4.736
39671W        W12096  41.468  23.984  11.061
39672W        W12097  10.305  18.281   1.904
39673W        W12098  12.135  10.227   2.214
39674W        W12099  43.883  31.150   3.680
39675W        W12100  36.384  37.024   0.257
39676W        W12101   5.406  13.108  14.331
39677W        W12102  18.669  33.092  11.382
39678W        W12103  10.147  35.079   2.734
39679W        W12104  25.569  21.097  12.458
39680W        W12105   7.403  44.264  12.437
39681W        W12106  27.446  13.303  13.339
39682W        W12107  33.976   1.786  13.060
39683W        W12108  37.400  11.752  10.599
39684W        W12109   2.235  39.886  10.592
39685W        W12110  40.491  44.966   0.277
39686W        W12111  33.980  18.098   2.293
39687W        W12112  39.343  35.415   2.290
39688W        W12113  37.394  11.770  12.387
39689W        W12114  39.833  17.747   2.796
39690W        W12115  11.751  32.586  12.091
39691W        W12116  39.497   1.773   1.876
39692W        W12117   6.241   6.896   4.282
39693W        W12118  32.042  38.362   1.280
39694W        W12119  20.669  28.152  11.535
39695W        W12120  32.588  17.609   0.742
39696W        W12121  39.030  42.987  11.610
39697W        W12122   6.733  19.641   3.226
39698W        W12123   1.869  23.026   2.802
39699W        W12124  14.633  21.710   2.412
39700W        W12125  25.494  34.373   1.397
39701W        W12126  36.451   6.832   4.137
39702W        W12127  10.632  39.333  13.970
39703W        W12128   1.816  39.343  10.532
39704W        W12129   2.308  31.538   4.726
39705W        W12130   1.340  15.769   0.843
39706W        W12131  11.814  26.981  14.313
39707W        W12132  16.117  31.971   4.602
39708W        W12133  42.804  33.456  11.536
39709W        W12134   4.371   1.433   0.476
39710W        W12135  11.168  32.916   2.261
39711W        W12136  27.471  18.619   2.267
39712W        W12137  27.192   8.719   2.697
39713W        W12138   7.309  25.686   2.267
39714W        W12139  17.667  13.277   3.335
39715W        W12140   8.174  11.814  12.986
39716W        W12141  24.708   9.321   4.832
39717W        W12142  30.151  22.569   1.815
39718W        W12143   5.438  34.974   1.419
39719W        W12144  30.934   9.339   4.272
39720W        W12145  25.525  29.938   3.812
39721W        W12146  36.551  24.582   3.264
39722W        W12147  16.734  30.113   2.863
39723W        W12148  37.362  30.908  13.016
39724W        W12149  44.951   7.381  13.530
39725W        W12150  20.535  21.018   0.921
39726W        W12151  17.235  37.384  13.362
39727W        W12152  42.471  30.129  12.853
39728W        W12153  37.535  43.297  11.416
39729W        W12154  37.479  20.545  14.820
39730W        W12155  39.883  28.934  12.983
39731W        W12156  25.551   9.340  11.461
39732W        W12157  31.931  41.012   2.895
39733W        W12158   6.906  23.210   2.713
39734W        W12159  36.556  32.899   2.704
39735W        W12160   4.324   5.372  13.482
39736W        W12161  43.390  38.501   1.878
39737W        W12162  42.353   9.342  14.468
39738W        W12163  25.627  20.091  12.925
39739W        W12164  27.615   2.941  10.986
39740W        W12165   5.839  43.923  12.058
39741W        W12166  41.470  42.380   3.688
39742W        W12167  10.668   3.253  12.949
39743W        W12168   9.866  37.520  11.987
39744W        W12169  44.299  17.136  14.381
39745W        W12170  19.048  10.288  12.912
39746W        W12171  32.490  19.047   0.777
39747W        W12172   6.284  14.138  13.479
39748W        W12173   6.331  35.869  14.983
39749W        W12174  21.099   7.801   4.816
39750W        W12175  16.173  10.799  11.540
39751W        W12176   0.479  38.419   3.159
39752W        W12177  27.580  26.148   0.917
39753W        W12178   7.352  18.791   0.921
39754W        W12179   3.912   7.733   1.836
39755W        W12180  35.049  26.120   3.146
39756W        W12181   1.829  41.920  11.003
39757W        W12182   1.890  32.064  11.077
39758W        W12183   4.365  37.401  11.028
39759W        W12184   3.419  15.619   2.339
39760W        W12185   4.933  40.051   3.237
39761W        W12186   2.741  12.771   0.766
39762W        W12187  26.037  21.045  14.022
39763W        W12188  40.027  14.209   3.342
39764W        W12189  30.052  17.747  12.391
39765W        W12190  22.669  17.266   0.366
39766W        W12191  35.534  17.694  10.899
39767W        W12192  32.460  11.146  11.859
39768W        W12193   0.260   7.790   3.340
39769W        W12194  33.408  20.617   4.343
39770W        W12195   1.469   8.663  11.937
39771W        W12196  11.637  36.979   0.832
39772W        W12197  25.539  20.207  13.471
39773W        W12198  41.847   6.716   2.802
39774W        W12199  29.433  34.580   0.451
39775W        W12200  14.260  42.019  11.947
39776W        W12201  19.731   8.726   4.613
39777W        W12202  14.726   8.867  11.528
39778W        W12203  25.694   5.823  13.470
39779W        W12204  14.214   5.375   0.361
39780W        W12205  38.961  35.094  14.906
39781W        W12206  27.571  27.542   1.302
39782W        W12207  27.655  26.544  13.003
39783W        W12208  36.086  42.462  10.581
39784W        W12209  42.952  42.482  13.904
39785W        W12210   9.649  32.074  14.820
39786W        W12211  24.483  24.083  10.553
39787W        W12212  29.658  26.177  13.943
39788W        W12213  33.594  21.755   3.816
39789W        W12214  23.683  24.070   2.214
39790W        W12215  10.821  10.347   2.257
39791W        W12216  22.200   2.248  11.580
39792W        W12217   4.421  34.885  14.758
39793W        W12218  39.841  18.785  11.524
39794W        W12219  23.636   6.863   1.267
39795W        W12220  38.888  11.200   0.860
39796W        W12221  18.687  11.837  12.845
39797W        W12222   4.715  19.734   2.681
39798W        W12223  43.012  20.170  12.888
39799W        W12224  36.579  35.602  13.311
39800W        W12225  36.464  28.023   0.736
39801W        W12226   9.362  37.434  12.497
39802W        W12227  13.631  23.655  12.517
39803W        W12228   3.295  44.768   0.921
39804W        W12229  39.432  43.387  13.361
39805W        W12230  22.682  37.913  12.020
39806W        W12231  14.607  32.961   0.796
39807W        W12232  15.744  40.016   1.339
39808W        W12233   6.186  17.298  14.478
39809W        W12234  25.968  28.622   1.840
39810W        W12235   4.752  18.294  13.340
39811W        W12236  28.509   2.463   3.808
39812W        W12237   1.336  12.331   3.790
39813W        W12238  22.070  19.213   4.711
39814W        W12239  29.150  12.295  14.828
39815W        W12240  20.111   8.314   0.942
39816W        W12241  11.337   5.787  12.458
39817W        W12242  31.560  43.457   3.780
39818W        W12243  33.031  27.994  11.869
39819W        W12244   7.878  21.087   1.293
39820W        W12245   0.873  27.458  10.961
39821W        W12246  28.083  11.197  10.923
39822W        W12247  21.522  21.518   0.759
39823W        W12248  34.901  20.726  14.948
39824W        W12249  12.789  11.732   2.695
39825W        W12250  42.868  32.921  10.464
39826W        W12251  23.100  18.677  13.447
39827W        W12252  10.323   2.461   3.215
39828W        W12253  23.114  40.414   0.394
39829W        W12254  21.198  34.874  12.541
39830W        W12255  29.940  14.635   4.205
39831W        W12256  19.639  34.875   1.784
39832W        W12257  18.055  14.656  10.463
39833W        W12258   8.830  40.506   0.321
39834W        W12259  11.354  38.384  13.471
39835W        W12260  10.308  42.992  13.793
39836W        W12261  24.994  15.736  10.083
39837W        W12262   6.215  24.613  13.808
39838W        W12263  29.649  32.414   5.191
39839W        W12264   4.729  22.602  10.960
39840W        W12265   5.244   9.733   0.370
39841W        W12266  25.187  17.167   0.881
39842W        W12267  37.085  14.129   2.822
39843W        W12268  40.474  21.246  11.864
39844W        W12269  28.038   5.247   3.288
39845W        W12270  19.283  44.973  14.988
39846W        W12271  24.533  43.313  13.510
39847W        W12272   3.723  27.050   2.714
39848W        W12273  25.623  30.992  10.892
39849W        W12274  20.766  41.895  10.982
39850W        W12275   6.378  24.209  14.995
39851W        W12276   9.377  27.068  14.987
39852W        W12277  13.682  33.939   2.835
39853W        W12278  18.613  24.230  14.508
39854W        W12279  33.430  36.046  10.478
39855W        W12280  14.794  24.556   5.106
39856W        W12281   8.178  37.490  12.882
39857W        W12282  30.015  19.252   3.668
39858W        W12283  11.849  44.901  10.411
39859W        W12284   5.753   0.749   2.183
39860W        W12285  33.030  16.782  13.933
39861W        W12286   5.832  15.158   4.699
39862W        W12287  14.171   6.223   4.157
39863W        W12288  19.192  26.151  12.345
39864W        W12289  31.959  40.806   1.276
39865W        W12290   3.946  37.921  12.974
39866W        W12291  18.683  25.176  10.560
39867W        W12292  33.987  19.736   1.296
39868W        W12293  41.462  36.438  10.951
39869W        W12294  30.451  35.020   4.283
39870W        W12295  14.320  38.855   0.403
39871W        W12296  25.013  22.152   2.272
39872W        W12297  15.279  10.717   1.916
39873W        W12298  24.123   1.269   1.234
39874W        W12299  29.155  25.600   3.836
39875W        W12300   8.846  41.304   3.150
39876W        W12301  40.447   9.300   1.725
39877W        W12302  42.860  18.604   4.728
39878W        W12303  42.836  39.388   1.802
39879W        W12304   2.784  41.308   4.268
39880W        W12305  38.018  25.478  13.993
39881W        W12306   0.347  32.578  11.587
39882W        W12307  27.595   4.314  14.807
39883W        W12308  17.697   2.308   0.262
39884W        W12309   5.819   5.729   1.237
39885W        W12310   9.703  41.831  13.854
39886W        W12311  19.779  25.525  12.505
39887W        W12312  20.075  15.188  10.956
39888W        W12313  25.647  43.471  12.385
39889W        W12314  15.095  26.142   1.736
39890W        W12315  21.523   9.205  11.396
39891W        W12316   8.725  15.613  13.963
39892W        W12317  27.086   7.677   4.672
39893W        W12318  22.502  26.133   3.209
39894W        W12319  34.386  16.196   3.225
39895W        W12320  19.232  28.007   0.837
39896W        W12321  34.890  32.892   2.688
39897W        W12322  19.085   2.902   4.632
39898W        W12323   9.201  22.181   2.250
39899W        W12324  34.000  18.176  14.765
39900W        W12325   5.206  19.590  11.108
39901W        W12326  21.592  24.564   4.828
39902W        W12327   4.842  25.643   1.435
39903W        W12328   9.759  39.420   3.290
39904W        W12329  34.097  30.030   2.282
39905W        W12330   4.317  31.952   3.719
39906W        W12331  13.753   9.205  13.863
39907W        W12332  44.004  15.093  11.899
39908W        W12333   4.936   3.751  10.968
39909W        W12334  34.013  21.096  12.390
39910W        W12335  38.922  25.536   5.208
39911W        W12336  33.037  38.557  10.463
39912W        W12337  11.301   2.421  11.021
39913W        W12338  44.387  37.504  14.498
39914W        W12339  20.603  15.201   0.738
39915W        W12340  31.039  29.602   2.893
39916W        W12341  42.426  25.591  11.072
39917W        W12342  21.020  28.068   5.124
39918W        W12343  23.715  40.501  14.506
39919W        W12344  44.771  17.101  14.311
39920W        W12345  43.986  12.272  12.878
39921W        W12346  32.588  41.974   0.844
39922W        W12347  26.626   5.262   1.401
39923W        W12348  12.158  10.355  11.392
39924W        W12349  13.243  24.570   1.919
39925W        W12350  38.038  18.747   0.826
39926W        W12351  27.678  36.932  11.407
39927W        W12352  30.043  30.038   4.312
39928W        W12353   5.422  20.032  10.598
39929W        W12354  36.011   8.237   2.298
39930W        W12355   4.903  14.218  14.848
39931W        W12356  28.533  26.562   3.275
39932W        W12357   1.328  29.507   2.303
39933W        W12358   9.767  30.486   4.636
39934W        W12359  31.474  29.137  14.476
39935W        W12360  17.211  19.273   3.654
39936W        W12361  17.223  13.645   1.815
39937W        W12362  25.071   3.828  11.928
39938W        W12363  27.037  16.771  14.927
39939W        W12364  13.771  33.465  12.851
39940W        W12365   1.919   5.285   3.656
39941W        W12366  18.651  33.035   5.093
39942W        W12367  13.636  14.186  11.537
39943W        W12368   8.683  24.977   3.665
39944W        W12369  44.897   3.294  13.484
39945W        W12370  11.703  35.541   1.831
39946W        W12371   8.701   3.305  13.891
39947W        W12372  44.880  41.344  11.600
39948W        W12373  14.610   4.810  12.358
39949W        W12374  25.062  10.876   2.323
39950W        W12375  22.010   4.363   4.153
39951W        W12376  34.573   5.246  10.638
39952W        W12377  36.508  34.401   4.167
39953W        W12378  16.711  17.203  10.642
39954W        W12379  17.563   7.173   2.899
39955W        W12380   5.211  20.137   3.638
39956W        W12381  13.753  14.828   4.605
39957W        W12382  12.259  16.101  14.364
39958W        W12383  27.941  28.640  12.559
39959W        W12384   4.344  42.846  14.019
39960W        W12385  33.450   8.722  12.868
39961W        W12386  17.721  37.985  11.550
39962W        W12387  26.953  26.476   4.254
39963W        W12388  13.116  39.895   0.453
39964W        W12389  10.282   4.787   4.701
39965W        W12390  29.099   5.309  10.538
39966W        W12391  20.759  38.945  10.635
39967W        W12392   3.397  37.951   4.700
39968W        W12393   8.796  12.777  12.529
39969W        W12394  14.711   0.787  13.965
39970W        W12395  10.819  26.163  10.958
39971W        W12396  36.560  21.208  14.868
39972W        W12397  10.383  17.267   1.721
39973W        W12398  33.576  31.090   4.117
39974W        W12399  24.991  24.010  14.291
39975W        W12400   8.744  44.377  10.509
39976W        W12401  42.023  23.499   1.843
39977W        W12402  20.767  34.525  12.516
39978W        W12403  13.173   1.370   2.343
39979W        W12404  33.617  26.037   3.712
39980W        W12405  24.573  39.861   4.267
39981W        W12406  37.415  17.139  14.845
39982W        W12407   6.894  36.951  12.533
39983W        W12408  30.527   5.923  14.951
39984W        W12409  42.867  43.333   3.180
39985W        W12410  27.457  43.787   1.232
39986W        W12411  22.648  19.761  13.544
39987W        W12412   1.251  41.929  10.998
39988W        W12413   0.828  43.880  12.578
39989W        W12414   2.852  36.912  13.533
39990W        W12415  43.500   8.301  12.925
39991W        W12416  34.417  12.655   1.766
39992W        W12417  12.344  19.052  10.468
39993W        W12418   0.797   4.749  13.877
39994W        W12419  22.514  12.684   0.864
39995W        W12420  11.719  32.041   4.675
39996W        W12421   8.809  21.674   4.307
39997W        W12422   6.357  15.657  14.336
39998W        W12423  19.238  32.016   3.710
39999W        W12424  20.189  12.134  12.420
40000W        W12425  21.044  43.937  12.385
40001W        W12426  42.945  26.583   2.892
40002W        W12427  39.493  40.941   3.759
40003W        W12428   5.702  43.932  13.996
40004W        W12429  41.511  26.194   0.836
40005W        W12430  44.940   7.235  11.555
40006W        W12431   2.430  37.544  14.442
40007W        W12432  12.834  12.628   2.901
40008W        W12433   6.804   7.791   1.894
40009W        W12434   9.690  10.322  14.826
40010W        W12435  39.322  36.051   4.737
40011W        W12436  44.949   8.306   1.738
40012W        W12437  39.884  12.144  12.080
40013W        W12438  12.309   1.972  14.448
40014W        W12439  24.014  25.532   1.446
40015W        W12440  36.491  30.619   1.394
40016W        W12441  44.303  10.641   2.818
40017W        W12442  33.055   0.461   1.907
40018W        W12443   1.350  16.110   4.194
40019W        W12444  13.314  22.034   1.372
40020W        W12445  37.066   5.713  12.096
40021W        W12446  42.957  38.954   4.232
40022W        W12447  18.778  33.556   1.903
40023W        W12448  41.502  17.744   0.730
40024W        W12449  37.085  25.103   4.675
40025W        W12450  28.647   1.894   0.900
40026W        W12451   9.263  12.848   3.856
40027W        W12452   6.196  27.621  10.510
40028W        W12453  30.092  22.208  14.861
40029W        W12454  15.771  23.078  11.509
40030W        W12455  34.071  41.498   2.900
40031W        W12456  28.013  42.813  10.068
40032W        W12457  42.946   1.334  11.501
40033W        W12458  27.650   2.472  14.299
40034W        W12459  41.928  14.207  11.885
40035W        W12460  10.825  20.236  13.915
40036W        W12461  17.584  44.871   4.123
40037W        W12462  20.766   0.307   0.884
40038W        W12463  15.167  23.667  13.922
40039W        W12464  20.739   8.322   1.696
40040W        W12465  35.593  35.935   3.240
40041W        W12466  18.573   0.885  12.873
40042W        W12467  31.053   5.865  10.415
40043W        W12468  30.040  40.834   2.705
40044W        W12469  14.153  10.645   1.425
40045W        W12470  28.000  21.712   2.750
40046W        W12471  36.574  39.538  14.873
40047W        W12472  33.488  27.000   0.300
40048W        W12473  23.111  34.537   4.219
40049W        W12474  17.097   8.319  10.964
40050W        W12475  28.627  12.707  14.814
40051W        W12476   2.235   8.876  11.597
40052W        W12477  26.056  38.017   4.816
40053W        W12478  13.740  11.656  12.009
40054W        W12479  39.500  38.919   9.925
40055W        W12480  26.170  19.775   2.381
40056W        W12481   3.389  42.402   3.692
40057W        W12482  33.898   2.431  14.822
40058W        W12483  28.153  28.966  13.337
40059W        W12484  17.158  25.963   0.304
40060W        W12485   6.685  24.134   4.307
40061W        W12486   4.787  15.144   3.247
40062W        W12487  13.165  37.367   9.975
40063W        W12488   8.735  20.058   5.197
40064W        W12489  23.004   9.276   2.859
40065W        W12490   4.812  32.588  14.416
40066W        W12491  34.490  16.663   3.713
40067W        W12492   0.393  24.131  12.976
40068W        W12493  31.991   5.691  14.875
40069W        W12494  13.728  27.135  11.960
40070W        W12495  29.102  25.489   0.281
40071W        W12496   6.338  20.588   4.220
40072W        W12497  28.973  13.744   4.785
40073W        W12498  16.791  23.512  10.425
40074W        W12499   1.826   6.753  11.494
40075W        W12500  37.477  10.665   1.403
40076W        W12501  33.600  22.018   1.886
40077W        W12502   4.799   1.394   3.667
40078W        W12503   3.912  24.041   4.283
40079W        W12504  37.027  44.436   1.867
40080W        W12505   5.284  29.648  10.620
40081W        W12506  38.829  25.207  11.873
40082W        W12507   9.773  30.938   4.114
40083W        W12508  23.153  24.059  12.042
40084W        W12509  24.549   6.751   0.471
40085W        W12510   7.386  15.201   2.727
40086W        W12511  15.116  11.323  11.498
40087W        W12512  23.670  38.418   1.429
40088W        W12513  34.023  30.005  11.588
40089W        W12514   0.351   9.283  12.448
40090W        W12515  42.857   9.705   1.330
40091W        W12516  39.336  36.413   3.327
40092W        W12517  21.680  22.212  12.382
40093W        W12518   6.894  19.250   2.226
40094W        W12519  12.260  15.258   2.663
40095W        W12520  32.543   1.908   1.777
40096W        W12521  25.978  16.619  14.328
40097W        W12522  28.474  13.746  10.973
40098W        W12523   5.396  25.508  13.431
40099W        W12524   8.704  34.448   0.267
40100W        W12525  44.925  24.004  12.826
40101W        W12526  39.857  39.381   4.315
40102W        W12527  42.983  28.449   0.427
40103W        W12528  28.559  16.227   3.720
40104W        W12529  36.061  15.744   4.611
40105W        W12530  39.841  19.246  14.511
40106W        W12531  40.544  43.468   0.438
40107W        W12532  38.366  31.526  12.531
40108W        W12533  31.580  15.224   3.702
40109W        W12534  31.454  15.319   0.845
40110W        W12535  10.329  38.859   2.800
40111W        W12536   9.224  26.120  10.440
40112W        W12537  31.642  21.027   2.289
40113W        W12538  23.678  42.857  14.304
40114W        W12539   9.836  31.131   0.851
40115W        W12540  42.857  17.593   4.696
40116W        W12541   3.389  29.508   5.138
40117W        W12542  41.966  10.138  10.097
40118W        W12543  14.241  30.953  13.830
40119W        W12544  26.117   3.262   0.753
40120W        W12545   1.247  15.301  14.444
40121W        W12546   1.975   0.754   0.740
40122W        W12547  15.216   9.207  14.001
40123W        W12548  23.215  12.261  10.485
40124W        W12549  20.765  24.510  14.303
40125W        W12550   6.361  12.363   4.218
40126W        W12551  38.066  39.912  14.468
40127W        W12552  27.059  20.071   0.839
40128W        W12553  43.908  36.000  12.455
40129W        W12554  39.928  25.550   3.238
40130W        W12555  28.540  39.978   4.258
40131W        W12556  34.397  26.034  10.970
40132W        W12557  43.411  31.152   2.865
40133W        W12558  39.052  10.813  12.070
40134W        W12559  27.486  37.502   0.484
40135W        W12560  10.203  16.626  10.446
40136W        W12561  18.210   3.221   3.778
40137W        W12562  12.241  37.521  14.999
40138W        W12563  18.268  37.559   4.135
40139W        W12564   8.767  39.407   3.297
40140W        W12565  29.051   0.451  14.417
40141W        W12566  35.993  38.993  13.984
40142W        W12567   2.875  10.732   0.302
40143W        W12568  37.407  25.105  10.632
40144W        W12569   5.908  28.607  13.941
40145W        W12570  22.090  43.828  12.887
40146W        W12571  26.012  12.123  13.902
40147W        W12572  30.507  26.083  12.045
40148W        W12573  42.363  11.160   1.359
40149W        W12574   8.753  30.987   2.341
40150W        W12575  30.586   7.294   4.136
40151W        W12576  25.159   9.366  14.924
40152W        W12577   7.896   9.184  13.483
40153W        W12578  37.409   7.784  14.785
40154W        W12579  34.433  25.049  14.503
40155W        W12580  16.124  39.351  12.995
40156W        W12581  19.155  31.004  13.530
40157W        W12582  42.861  17.100  14.818
40158W        W12583  25.652  25.006   0.822
40159W        W12584  16.667  14.729  13.054
40160W        W12585   1.760   5.395  11.453
40161W        W12586  41.323  27.989  12.908
40162W        W12587  25.092  34.525  14.864
40163W        W12588  23.638   9.695   9.925
40164W        W12589  35.014  29.979  14.987
40165W        W12590  43.469  39.385  14.827
40166W        W12591  40.368  20.036   4.210
40167W        W12592  29.144  19.224   0.425
40168W        W12593  27.023   1.965   4.332
40169W        W12594   0.316  28.616  13.056
40170W        W12595  14.291  26.015   1.217
40171W        W12596  23.727  30.596  14.401
40172W        W12597  20.669  35.489  12.862
40173W        W12598  31.999   4.864  14.017
40174W        W12599  20.684  36.959  14.847
40175W        W12600  36.886  10.687   2.845
40176W        W12601  28.498  21.084  11.422
40177W        W12602   2.368  27.135   3.708
40178W        W12603   5.322  20.121  14.417
40179W        W12604  35.067   7.372  13.436
40180W        W12605   4.857  44.775   4.322
40181W        W12606  25.999  11.323   1.223
40182W        W12607  29.613  11.728  10.534
40183W        W12608  22.631  20.264   1.228
40184W        W12609  44.813  39.961  12.428
40185W        W12610   2.935   2.929  11.985
40186W        W12611  32.136  31.976   3.288
40187W        W12612  32.401  25.138   3.352
40188W        W12613  22.566   8.338   1.900
40189W        W12614  19.159  15.713   2.191
40190W        W12615   5.819   3.762   4.723
40191W        W12616  12.168  42.383   1.269
40192W        W12617  40.872  17.230  13.387
40193W        W12618   3.927  11.709   4.746
40194W        W12619   5.695  17.301  14.767
40195W        W12620   2.765  20.230  10.537
40196W        W12621  40.815   3.411   3.252
40197W        W12622  27.107  30.071   2.772
40198W        W12623  26.692  19.629  11.483
40199W        W12624   7.707  28.670  10.579
40200W        W12625  37.509  13.266   0.779
40201W        W12626  34.915   5.201  13.525
40202W        W12627  24.639  32.612   4.191
40203W        W12628  13.125  19.634   5.159
40204W        W12629  23.214   8.366   3.785
40205W        W12630  44.407  21.030  14.383
40206W        W12631  10.741  22.033  12.572
40207W        W12632  25.568  34.890   2.732
40208W        W12633  21.220   6.804  14.870
40209W        W12634  33.090  40.395   0.866
40210W        W12635   1.750  15.730   0.869
40211W        W12636   1.267  37.582  10.929
40212W        W12637  42.809  25.963  10.638
40213W        W12638  13.311  30.105   2.846
40214W        W12639  35.067  34.903  10.642
40215W        W12640  33.618   6.257   0.798
40216W        W12641  26.659  14.134  11.000
40217W        W12642  29.087  33.457   9.921
40218W        W12643  22.108   1.258  13.517
40219W        W12644  26.194  19.747  12.383
40220W        W12645  26.043  21.755   3.693
40221W        W12646  10.827  34.984   0.313
40222W        W12647  23.605  34.975   4.226
40223W        W12648  36.568  30.579   2.210
40224W        W12649  15.162  13.242  11.041
40225W        W12650  40.309  23.627  12.036
40226W        W12651  19.222  14.264  10.519
40227W        W12652  27.510   6.899   3.779
40228W        W12653  18.694  16.241   0.458
40229W        W12654  24.184  32.495  12.377
40230W        W12655   5.326  18.148   0.330
40231W        W12656  13.812   7.346   4.780
40232W        W12657  43.892   6.705   4.170
40233W        W12658  27.017  19.079  12.061
40234W        W12659  11.348  38.501   4.700
40235W        W12660   2.851  33.438   4.113
40236W        W12661  19.039   8.272   1.447
40237W        W12662  38.345   9.311  14.446
40238W        W12663  36.851  34.068  11.431
40239W        W12664   9.282  26.583   3.761
40240W        W12665   8.847  12.180  11.883
40241W        W12666  25.194  17.260  14.761
40242W        W12667  39.897  27.643  14.358
40243W        W12668  19.623  18.562   2.324
40244W        W12669  31.423  29.641  14.905
40245W        W12670  44.264  37.004  10.420
40246W        W12671  13.820  37.899  12.083
40247W        W12672  12.282  12.828  14.883
40248W        W12673  26.638  37.532  10.614
40249W        W12674   9.712  18.194   2.897
40250W        W12675  28.580  26.544   4.696
40251W        W12676  19.196  29.001  12.093
40252W        W12677  43.785  41.349   1.343
40253W        W12678  30.120  14.756  13.447
40254W        W12679   1.860  32.598  12.438
40255W        W12680  33.497   9.298   0.731
40256W        W12681   5.865  17.591  11.469
40257W        W12682  36.555  23.591  10.531
40258W        W12683  22.536  32.888  12.424
40259W        W12684  38.394  31.008  14.297
40260W        W12685  14.664  22.169  12.578
40261W        W12686  14.778  44.260   3.288
40262W        W12687  41.311  23.089   1.339
40263W        W12688  15.155  30.651   3.800
40264W        W12689  20.143  42.429  11.941
40265W        W12690  15.111  26.107   4.708
40266W        W12691  17.252  37.336  11.510
40267W        W12692  42.493  36.488  12.055
40268W        W12693   8.367   2.883   1.215
40269W        W12694  12.786  42.428  12.547
40270W        W12695  29.438  32.467   4.674
40271W        W12696  26.503  30.478   1.920
40272W        W12697  11.795  28.118   1.829
40273W        W12698  34.480  15.713   3.740
40274W        W12699  30.006   8.787  12.886
40275W        W12700   0.361   1.825  13.335
40276W        W12701   0.855  23.655   0.377
40277W        W12702  29.449  20.523  14.433
40278W        W12703  32.512  11.830  14.393
40279W        W12704   8.691  28.500   4.278
40280W        W12705  18.244  21.127   1.362
40281W        W12706  36.578  33.566  14.343
40282W        W12707   5.225   8.229  13.503
40283W        W12708  21.158  17.277   3.265
40284W        W12709   3.853  35.380  10.411
40285W        W12710  43.935  42.292   1.398
40286W        W12711  17.083  21.644   1.849
40287W        W12712  31.628   9.729   3.305
40288W        W12713  29.458  32.957   1.834
40289W        W12714   9.303  29.956  12.872
40290W        W12715  44.905  26.118   2.790
40291W        W12716  18.155  29.636  14.406
40292W        W12717  44.338  26.186   0.784
40293W        W12718   8.225  11.283  12.860
40294W        W12719   5.923  28.436   3.641
40295W        W12720  42.297  21.666  13.828
40296W        W12721  32.588  29.463  12.346
40297W        W12722  14.634  43.771  11.503
40298W        W12723  29.494  29.515  13.831
40299W        W12724  14.596  35.402   4.665
40300W        W12725   9.696  38.567   0.451
40301W        W12726  43.359  44.483   4.708
40302W        W12727   1.400   5.689   3.361
40303W        W12728  43.857  22.086   4.780
40304W        W12729  21.168  33.522  12.910
40305W        W12730  34.501  38.025  11.529
40306W        W12731  41.854  17.761  14.318
40307W        W12732  36.907  10.214   4.330
40308W        W12733   5.773  36.095   4.681
40309W        W12734  37.056  18.097   1.870
40310W        W12735  15.581  10.160   2.738
40311W        W12736  12.191  13.788   2.693
40312W        W12737  21.727  11.624  13.994
40313W        W12738  31.019  16.625  12.499
40314W        W12739  15.611   5.342  10.610
40315W        W12740  39.973  23.670   2.753
40316W        W12741  37.568  34.043  11.386
40317W        W12742  30.612  11.708   2.768
40318W        W12743   9.290  28.667  14.332
40319W        W12744   8.254  30.127   1.782
40320W        W12745  37.425   0.918   5.252
40321W        W12746  24.064  27.600   2.823
40322W        W12747  38.940   6.721  12.568
40323W        W12748  16.616  15.089   3.165
40324W        W12749  15.732  23.728   3.168
40325W        W12750  24.126  16.797   0.331
40326W        W12751  33.989  27.501  11.423
40327W        W12752  39.409  33.501  14.979
40328W        W12753  17.649  14.301   3.739
40329W        W12754  29.945  22.505  11.584
40330W        W12755  30.931   1.387  11.902
40331W        W12756  29.013   5.722  13.515
40332W        W12757  18.157  32.404   1.851
40333W        W12758  14.144   8.881  12.460
40334W        W12759  10.830  20.082   0.906
40335W        W12760  32.459   9.874   4.303
40336W        W12761  21.678  44.404  12.942
40337W        W12762  28.957  36.523  12.956
40338W        W12763  14.257  37.483  14.449
40339W        W12764  29.582  39.920  12.853
40340W        W12765  41.856  33.044   2.279
40341W        W12766  16.278  42.510   0.391
40342W        W12767  16.235   2.397  11.425
40343W        W12768  32.587   7.232  14.381
40344W        W12769  30.970   3.237  13.340
40345W        W12770   8.384  31.583   2.709
40346W        W12771  20.769  31.595  12.033
40347W        W12772  16.647  12.764   0.959
40348W        W12773  43.771   6.231  10.563
40349W        W12774   8.725  37.958   3.848
40350W        W12775   7.878   2.280   1.442
40351W        W12776  37.917   5.369  14.427
40352W        W12777  42.833  41.933  11.039
40353W        W12778  24.630   2.852  11.528
40354W        W12779  39.486  40.412   2.325
40355W        W12780  19.725  32.916  13.989
40356W        W12781   5.853  38.892   4.688
40357W        W12782  40.469  43.846  11.509
40358W        W12783  10.827   4.944   4.608
40359W        W12784  22.077  39.026   1.897
40360W        W12785  42.936  26.067   1.390
40361W        W12786  37.004  14.628  10.517
40362W        W12787  38.441   1.804  13.825
40363W        W12788   0.748  20.116   2.325
40364W        W12789  24.680   4.223  10.966
40365W        W12790  18.588   6.725  12.514
40366W        W12791  37.460  34.881  14.276
40367W        W12792  37.860  24.107  13.470
40368W        W12793   9.889   5.718   1.228
40369W        W12794  15.684  29.444   1.352
40370W        W12795  18.739  11.798   3.861
40371W        W12796   9.721  33.010   0.903
40372W        W12797   6.185  33.477  10.645
40373W        W12798  27.455   4.752  13.979
40374W        W12799  22.733   8.272   2.843
40375W        W12800  40.817   2.333   4.719
40376W        W12801  30.085  20.612   2.689
40377W        W12802   0.935  33.584  12.061
40378W        W12803  14.613  21.610  13.884
40379W        W12804  16.661   4.303  14.940
40380W        W12805   3.415  12.711   3.841
40381W        W12806  44.925   4.726   3.346
40382W        W12807   2.395  44.282   0.243
40383W        W12808  34.502   0.940   3.738
40384W        W12809  18.188  20.152  11.860
40385W        W12810   9.748  33.110   3.338
40386W        W12811  28.659   5.368  10.455
40387W        W12812  18.219  33.918   4.651
40388W        W12813  42.927  37.930   1.219
40389W        W12814  26.157  39.834   3.855
40390W        W12815  24.070  42.450  12.046
40391W        W12816  33.953   9.814  14.504
40392W        W12817  30.116  30.947  13.002
40393W        W12818  43.310  27.011  11.560
40394W        W12819  39.497  40.966   1.876
40395W        W12820  11.196  18.591   1.383
40396W        W12821   8.866   4.239  14.962
40397W        W12822   2.888  29.519   0.887
40398W        W12823  14.792  34.490   0.744
40399W        W12824  38.978  14.806  12.067
40400W        W12825   0.967  19.058  11.600
40401W        W12826  42.431  43.364   3.300
40402W        W12827  34.528  27.501  10.429
40403W        W12828  40.878  18.619  13.333
40404W        W12829  10.147  32.506   3.174
40405W        W12830  25.187  26.605   2.199
40406W        W12831   1.776   0.404   2.712
40407W        W12832  25.021   0.758  13.442
40408W        W12833  15.133  44.791  12.898
40409W        W12834  26.959   7.698  12.941
40410W        W12835  25.046   0.339  12.082
40411W        W12836   5.340  43.321  10.534
40412W        W12837  25.997  34.453  12.858
40413W        W12838  36.871   3.378  14.472
40414W        W12839  15.177  44.859   4.162
40415W        W12840  37.921  30.518  10.628
40416W        W12841  29.629  27.650  13.805
40417W        W12842  30.414  31.930  11.485
40418W        W12843  30.451  31.584   0.953
40419W        W12844  27.525  19.573   3.242
40420W        W12845  26.476  26.032  10.420
40421W        W12846  27.622  41.529   0.859
40422W        W12847  12.670  22.230   0.463
40423W        W12848  43.841  23.996  12.850
40424W        W12849  41.527   8.265   1.283
40425W        W12850  25.512  26.590   1.757
40426W        W12851  29.453  20.122   3.327
40427W        W12852   0.488  27.002   4.718
40428W        W12853  40.453  38.033  13.817
40429W        W12854  21.531  40.506   4.253
40430W        W12855  43.338  23.162   2.830
40431W        W12856   2.293  43.884  10.583
40432W        W12857  37.549  32.127  14.876
40433W        W12858  43.885  34.414   1.753
40434W        W12859  20.675  20.706   0.890
40435W        W12860  33.539  20.086  13.886
40436W        W12861  11.811  37.987   1.824
40437W        W12862  42.972  12.295   2.375
40438W        W12863   8.656  39.066   1.386
40439W        W12864  11.215   2.277   3.154
40440W        W12865  26.592   3.401   2.321
40441W        W12866  30.956  30.602   4.152
40442W        W12867  33.000  39.386  11.591
40443W        W12868   6.352   9.692   4.274
40444W        W12869  42.822  23.693   4.260
40445W        W12870  28.466  28.493   2.356
40446W        W12871  22.205  16.147   3.812
40447W        W12872  42.947   8.753  11.115
40448W        W12873  29.594  40.328  11.892
40449W        W12874  40.378  33.497   0.281
40450W        W12875  35.917  32.527   0.379
40451W        W12876  22.103  28.092   3.227
40452W        W12877   4.727  24.099   5.163
40453W        W12878   2.854  26.208  14.969
40454W        W12879   0.770  17.645  13.793
40455W        W12880  19.545   6.413  14.984
40456W        W12881  21.248  15.155   5.314
40457W        W12882   3.873  27.675   1.441
40458W        W12883  13.171   4.389  14.906
40459W        W12884  35.854   3.450   3.690
40460W        W12885  28.508  40.472   0.456
40461W        W12886   1.437   6.687  14.865
40462W        W12887  14.208  44.435   3.313
40463W        W12888  27.135  38.488  12.435
40464W        W12889   1.394   8.819  14.388
40465W        W12890   9.732  26.603  13.307
40466W        W12891  43.991  43.376  13.320
40467W        W12892  40.469  20.158   0.315
40468W        W12893   5.714  42.828   2.293
40469W        W12894  19.163  17.761  11.881
40470W        W12895  35.040  24.088  11.435
40471W        W12896  12.274  38.426  13.930
40472W        W12897  17.266  27.087   0.962
40473W        W12898  18.175  14.226  12.422
40474W        W12899  32.431  32.098  14.831
40475W        W12900   8.188  32.637   2.188
40476W        W12901  20.188  31.612   3.715
40477W        W12902   6.389  39.542   0.299
40478W        W12903   4.776  43.981   1.225
40479W        W12904  19.752  21.599   1.289
40480W        W12905  38.958  14.192  12.069
40481W        W12906  37.895   4.376  11.878
40482W        W12907  23.217  36.963   2.812
40483W        W12908  37.540   3.234  10.423
40484W        W12909   3.370   4.852  14.438
40485W        W12910   5.730  10.741  11.447
40486W        W12911  28.490  44.329  14.866
40487W        W12912   4.913  16.758   1.303
40488W        W12913  28.029  23.532  13.442
40489W        W12914  21.044   3.772   5.101
40490W        W12915  23.689  41.514  14.420
40491W        W12916  18.242  39.960   4.239
40492W        W12917  40.385   6.683  10.638
40493W        W12918   0.870   3.879  14.027
40494W        W12919  26.116   1.957  12.397
40495W        W12920  32.047  15.313  12.837
40496W        W12921  13.264   7.347  10.533
40497W        W12922  22.692  28.649  11.053
40498W        W12923   3.307  25.107   1.274
40499W        W12924  22.029   3.364   4.222
40500W        W12925  11.856  44.934   0.301
40501W        W12926   2.842  33.413   2.365
40502W        W12927   1.449  42.335  11.402
40503W        W12928   7.392   6.229   4.801
40504W        W12929  20.180  14.312  14.926
40505W        W12930   2.791  22.056  13.979
40506W        W12931  25.014  25.572  14.474
40507W        W12932  14.160  35.889   0.288
40508W        W12933   0.435  23.074   3.178
40509W        W12934  25.034  15.808   2.752
40510W        W12935  35.868   4.274   4.826
40511W        W12936  13.173   2.967   2.230
40512W        W12937  38.376   4.216   3.355
40513W        W12938  42.890   8.322   1.889
40514W        W12939   0.394  32.557  13.417
40515W        W12940   8.888  36.094  10.503
40516W        W12941  22.010  26.201  11.544
40517W        W12942  37.382  39.418  13.054
40518W        W12943  44.756   9.197  12.379
40519W        W12944  24.155  34.048   3.274
40520W        W12945  34.996   9.394   3.719
40521W        W12946  20.628   2.301   3.641
40522W        W12947  18.747   0.883  13.527
40523W        W12948   8.184  14.336   3.823
40524W        W12949  13.718  23.182   4.681
40525W        W12950   0.478   4.786  11.470
40526W        W12951  39.873  30.069   4.125
40527W        W12952  25.543  13.656  11.492
40528W        W12953  24.693   4.804  14.438
40529W        W12954  17.748  25.111   1.889
40530W        W12955   4.213  12.803  11.917
40531W        W12956  23.079  32.598   2.344
40532W        W12957  31.464  12.143  14.977
40533W        W12958  33.044  11.692   3.268
40534W        W12959  32.951  14.264  12.380
40535W        W12960  12.336  19.767  13.053
40536W        W12961  34.468   4.213  14.469
40537W        W12962   5.398   3.218  14.920
40538W        W12963  44.972  34.509  11.081
40539W        W12964  11.283   1.751  12.841
40540W        W12965   8.327  34.458   2.720
40541W        W12966  35.393  29.082  13.823
40542W        W12967  18.264  35.052   4.162
40543W        W12968  35.550  41.496  11.386
40544W        W12969  16.175  31.943  10.608
40545W        W12970   9.745  22.186  12.917
40546W        W12971   5.352  10.278  14.786
40547W        W12972   1.962   0.460   3.810
40548W        W12973  27.651  12.839   2.838
40549W        W12974   0.396  41.433  13.328
40550W        W12975   0.788   2.877  12.931
40551W        W12976  27.194   9.173   2.386
40552W        W12977  42.873  26.126   4.627
40553W        W12978  24.220  18.116   0.259
40554W        W12979  19.273  11.849   4.744
40555W        W12980  11.305  13.604   3.699
40556W        W12981   0.838  31.057  14.479
40557W        W12982  37.358  26.636  11.957
40558W        W12983  18.594   5.306  13.547
40559W        W12984  21.653  36.874   2.696
40560W        W12985  31.938  19.257   3.147
40561W        W12986  41.525   6.191  14.784
40562W        W12987  44.932  24.555   4.719
40563W        W12988  23.729   2.947   0.288
40564W        W12989  28.981  39.817   4.209
40565W        W12990   7.364  26.161  12.087
40566W        W12991   5.746  18.628   4.611
40567W        W12992   8.272   8.189   0.310
40568W        W12993  40.323  12.826  14.493
40569W        W12994  19.625  22.997   1.402
40570W        W12995  26.128  26.080  11.062
40571W        W12996  37.417  10.205  12.567
40572W        W12997  11.335  44.347  11.609
40573W        W12998  27.958  38.020  11.390
40574W        W12999   0.907   9.149  11.024
40575W        W13000  10.826  11.837  11.373
40576W        W13001  31.115  25.147   5.119
40577W        W13002  24.205  43.938   3.269
40578W        W13003  39.345  24.100  11.578
40579W        W13004  30.422   3.900  14.504
40580W        W13005   1.425  44.899   2.882
40581W        W13006  21.094  24.107  11.567
40582W        W13007  40.354  26.484  12.411
40583W        W13008  17.237   1.882  12.432
40584W        W13009  20.699  13.719   1.369
40585W        W13010  42.305  39.020  11.897
40586W        W13011  11.652  26.598   0.755
40587W        W13012  27.021   7.743   3.274
40588W        W13013  44.864  16.718  14.439
40589W        W13014  43.485   0.321   1.863
40590W        W13015  27.626  23.999  11.097
40591W        W13016  31.944  33.438  14.959
40592W        W13017  43.814  34.409   2.727
40593W        W13018   1.350  40.457   4.235
40594W        W13019  42.031  32.468   3.653
40595W        W13020  32.586  14.113  14.022
40596W        W13021  20.613   9.819  13.496
40597W        W13022  37.851  33.072  10.566
40598W        W13023  27.955  11.203   3.335
40599W        W13024  17.599  21.581   3.659
40600W        W13025   5.759  34.450   0.760
40601W        W13026  35.532  26.606  13.312
40602W        W13027  37.361   9.205  13.857
40603W        W13028  29.519   9.845  10.424
40604W        W13029  27.990  16.139   1.437
40605W        W13030  34.878  11.337  10.488
40606W        W13031   1.435   1.742   3.368
40607W        W13032  21.740  15.647  12.956
40608W        W13033  39.932  44.822  13.311
40609W        W13034   1.771  43.483  14.337
40610W        W13035  23.577   5.871   2.727
40611W        W13036  20.229  35.926  13.061
40612W        W13037  36.440  44.354  14.397
40613W        W13038  12.130  36.981   0.748
40614W        W13039  10.769  21.561   0.916
40615W        W13040  33.107  28.577  10.421
40616W        W13041  44.997  30.618  14.019
40617W        W13042  42.858  30.121  12.382
40618W        W13043   0.785   1.413  12.532
40619W        W13044  34.027  16.257   3.369
40620W        W13045  21.019  27.573  11.032
40621W        W13046   7.387  22.639  11.977
40622W        W13047  39.874  17.708   1.381
40623W        W13048  40.883  33.058   3.304
40624W        W13049  15.205  44.817  12.519
40625W        W13050  19.649   6.287  13.471
40626W        W13051   9.200  37.841  13.355
40627W        W13052  21.214  25.161  13.968
40628W        W13053  10.279  43.308   4.787
40629W        W13054  35.931  40.835   0.944
40630W        W13055  44.377   1.281   4.252
40631W        W13056  32.027  41.448  14.476
40632W        W13057  29.475  26.700   4.203
40633W        W13058  21.592   2.343   2.256
40634W        W13059  28.170  20.050  10.902
40635W        W13060  14.801  15.191   1.761
40636W        W13061  19.094  44.930   2.785
40637W        W13062  38.896  33.421   0.899
40638W        W13063  20.067  11.831   0.395
40639W        W13064  12.132  12.314  11.588
40640W        W13065  43.436  43.392  14.758
40641W        W13066   9.648  42.455  14.803
40642W        W13067  39.352  31.039  13.475
40643W        W13068   5.216  43.395  12.551
40644W        W13069   3.321   2.964  12.435
40645W        W13070  27.121   1.816   2.822
40646W        W13071  20.172  35.950  14.368
40647W        W13072   0.887  36.888  11.407
40648W        W13073   9.825   8.293  12.387
40649W        W13074   9.672  28.150   1.421
40650W        W13075  39.472  38.495   1.416
40651W        W13076  25.681   1.847  10.643
40652W        W13077   2.311  33.947  12.991
40653W        W13078  33.482  43.881  11.013
40654W        W13079  24.602  16.606  14.410
40655W        W13080   6.338   4.436  11.608
40656W        W13081  26.575  39.046  13.986
40657W        W13082   1.779   0.850  14.509
40658W        W13083  28.012   3.905  12.969
40659W        W13084   8.687  19.644  12.982
40660W        W13085  41.971  34.559  12.430
40661W        W13086  37.016   6.680  11.559
40662W        W13087  27.573  37.966   1.451
40663W        W13088  19.602  39.906  14.427
40664W        W13089  41.420  12.149  12.401
40665W        W13090  20.061  22.543   1.353
40666W        W13091  12.288  28.663  10.519
40667W        W13092  25.651   5.873  13.029
40668W        W13093  23.006  25.100  10.422
40669W        W13094  41.845   4.891  14.811
40670W        W13095  16.629  38.024   4.834
40671W        W13096  36.874  15.117   2.775
40672W        W13097  13.198  11.671  14.465
40673W        W13098  17.759   6.182  10.989
40674W        W13099  28.182  42.340   3.176
40675W        W13100  13.294   5.348   2.197
40676W        W13101   9.358  18.681   4.167
40677W        W13102  22.155   9.154   0.924
40678W        W13103   8.341   7.805  11.543
40679W        W13104   4.796  37.555   1.783
40680W        W13105  38.827  15.120   3.263
40681W        W13106  20.560  40.501   0.380
40682W        W13107  39.844  39.904  14.407
40683W        W13108  32.886   6.771   0.955
40684W        W13109  20.657  10.297   4.168
40685W        W13110  44.830  12.765  13.816
40686W        W13111  25.039  18.214  13.922
40687W        W13112  22.019  34.993  10.552
40688W        W13113  32.578  33.424  14.420
40689W        W13114  42.479  42.981  11.493
40690W        W13115  13.703  16.806   1.435
40691W        W13116   4.240   7.222  12.364
40692W        W13117  44.322  17.649   1.359
40693W        W13118   1.839   1.397   2.305
40694W        W13119  35.917   1.843   3.315
40695W        W13120  34.955  38.825   1.393
40696W        W13121  28.064   2.240   2.669
40697W        W13122  32.508  43.909   2.835
40698W        W13123  14.636  41.438  10.995
40699W        W13124  43.845  30.112   3.332
40700W        W13125   6.818  13.662   1.739
40701W        W13126   0.907  41.899   0.243
40702W        W13127  38.008  26.008   1.891
40703W        W13128  29.163  11.855   0.893
40704W        W13129  43.304  16.307  14.759
40705W        W13130  13.186  27.091   1.222
40706W        W13131  13.663  29.517  13.011
40707W        W13132  33.131   2.434  12.546
40708W        W13133  14.315  19.215  13.032
40709W        W13134  22.057  16.143   4.269
40710W        W13135  15.190  44.791   0.371
40711W        W13136  29.100   5.280   3.284
40712W        W13137  42.423  40.813  11.055
40713W        W13138  40.409  12.257  14.996
40714W        W13139   1.945  27.946   2.900
40715W        W13140   1.761  32.399   3.697
40716W        W13141  37.512  13.236   4.176
40717W        W13142  34.867  19.255  14.945
40718W        W13143  10.801  15.101   3.221
40719W        W13144  42.297  10.366  10.511
40720W        W13145   2.759  31.110  11.923
40721W        W13146  28.177  33.468  14.275
40722W        W13147   4.812  20.619  13.047
40723W        W13148  30.919  21.052   2.303
40724W        W13149  31.060  36.412   1.927
40725W        W13150  37.348  11.634   4.610
40726W        W13151  44.754  39.416   3.362
40727W        W13152  20.662  42.295  10.508
40728W        W13153  39.995  37.474   3.229
40729W        W13154   1.949  16.583  12.836
40730W        W13155  23.714   5.394   4.218
40731W        W13156   1.745  24.194   1.786
40732W        W13157  42.924  26.660  12.062
40733W        W13158  30.094  31.624   1.280
40734W        W13159   4.858  32.042   1.846
40735W        W13160  33.546  28.536   1.305
40736W        W13161  39.934  42.338   2.854
40737W        W13162  31.979  38.984   0.457
40738W        W13163  43.270  29.932  12.513
40739W        W13164  24.090   9.760  11.548
40740W        W13165  20.274   0.441   3.790
40741W        W13166  12.269  39.931   0.442
40742W        W13167  32.612  29.982   2.876
40743W        W13168  11.132  26.043  14.299
40744W        W13169  17.695  10.799  13.421
40745W        W13170  18.148  44.944  10.110
40746W        W13171  44.898  38.903   3.684
40747W        W13172  35.872  23.998  14.784
40748W        W13173   2.438  29.539   1.359
40749W        W13174  19.715  42.937  10.908
40750W        W13175  12.183   1.813   4.207
40751W        W13176   2.938  41.524   3.810
40752W        W13177  41.847  18.599   1.878
40753W        W13178  19.666   2.898  13.319
40754W        W13179   0.466  30.579   1.365
40755W        W13180   9.261  27.548  12.366
40756W        W13181   7.712  18.583  10.555
40757W        W13182  23.702  34.932  10.996
40758W        W13183  23.666  30.421   3.192
40759W        W13184  31.448  23.228  11.528
40760W        W13185  17.743   0.825   1.257
40761W        W13186  16.200  44.427  11.609
40762W        W13187  37.561   5.263  11.439
40763W        W13188  44.465  23.593  11.914
40764W        W13189  13.337   7.172  11.585
40765W        W13190  29.592   4.874  11.606
40766W        W13191  24.538  38.060  12.862
40767W        W13192  30.156  21.566   2.268
40768W        W13193  27.624  35.365  11.071
40769W        W13194  21.247   4.365   5.286
40770W        W13195  38.450  23.241   3.154
40771W        W13196  26.587  35.078   3.757
40772W        W13197  14.308   5.414   1.913
40773W        W13198  18.254  26.122  11.436
40774W        W13199  11.207  26.624   1.694
40775W        W13200  36.413  18.050   1.791
40776W        W13201  23.565  41.378  11.016
40777W        W13202  35.024   8.287   4.120
40778W        W13203  17.782  38.833   4.708
40779W        W13204   0.293  18.051   4.640
40780W        W13205  29.520  25.497   2.334
40781W        W13206   5.753  26.630  14.773
40782W        W13207  16.649  33.547  12.392
40783W        W13208  10.235  43.364  11.396
40784W        W13209  35.047  39.513  12.941
40785W        W13210  22.250   8.286   2.727
40786W        W13211  40.484  20.716  11.499
40787W        W13212  39.835  29.542  12.365
40788W        W13213  32.988   0.804  12.431
40789W        W13214   0.852  11.668   1.905
40790W        W13215  26.002  18.290   2.695
40791W        W13216  29.070  41.315   2.897
40792W        W13217   1.279  28.495  14.823
40793W        W13218  36.039  36.094  13.038
40794W        W13219  15.741  29.544   2.371
40795W        W13220  29.598  22.590  10.131
40796W        W13221  36.033  27.154   2.396
40797W        W13222  38.450   2.919   4.712
40798W        W13223  38.361  10.733  11.567
40799W        W13224  27.973  18.229   2.219
40800W        W13225  30.453  13.173  13.383
40801W        W13226  31.459  34.596  13.947
40802W        W13227  21.025  33.613   2.218
40803W        W13228  31.482  30.941  13.333
40804W        W13229   3.912  39.420  13.005
40805W        W13230  44.004  27.600   2.307
40806W        W13231  18.187   7.307  12.393
40807W        W13232  30.100  40.922  10.445
40808W        W13233  12.239  22.181   2.839
40809W        W13234  35.429  11.348  14.800
40810W        W13235  24.215  29.960  11.866
40811W        W13236  25.136  24.084   3.327
40812W        W13237   8.358  21.732   3.337
40813W        W13238  44.796   7.704   3.368
40814W        W13239   3.887  22.695  12.895
40815W        W13240  35.448  30.063  10.532
40816W        W13241  27.027   6.895  12.017
40817W        W13242  38.917  15.220   0.828
40818W        W13243   7.185  10.208  14.333
40819W        W13244   3.269  27.476   0.884
40820W        W13245  17.139  29.558  13.963
40821W        W13246  37.426  26.021  12.093
40822W        W13247  28.551  24.681  11.458
40823W        W13248  26.535  32.597   0.830
40824W        W13249  43.912   6.343   1.278
40825W        W13250  30.564  13.292  11.104
40826W        W13251   4.902  39.824   4.247
40827W        W13252  37.555  27.016  14.024
40828W        W13253  13.824   0.951  12.083
40829W        W13254  11.269  22.570  14.764
40830W        W13255  22.132  16.079  11.991
40831W        W13256  42.929  21.121   5.137
40832W        W13257  33.525  43.891  10.582
40833W        W13258   5.358  28.968   3.192
40834W        W13259  21.236   5.292  14.426
40835W        W13260  35.507  10.344  12.039
40836W        W13261  10.795  12.324   2.902
40837W        W13262  31.405  34.954   0.732
40838W        W13263  33.579  28.507  11.882
40839W        W13264   8.707  32.059   2.285
40840W        W13265  42.926  30.926  11.528
40841W        W13266  21.171  30.144   3.671
40842W        W13267  28.661  42.417  12.946
40843W        W13268   1.957  25.151   1.214
40844W        W13269  20.713  17.087   4.350
40845W        W13270   8.308  14.635  14.792
40846W        W13271  19.279  38.355  11.886
40847W        W13272  10.797  43.316   4.306
40848W        W13273  11.692  44.769  12.374
40849W        W13274  21.216   9.653   5.565
40850W        W13275  42.388  35.498   3.799
40851W        W13276   5.288  41.351  14.888
40852W        W13277  42.833   5.782   1.424
40853W        W13278  14.175   5.218  12.394
40854W        W13279  23.020  39.030   2.863
40855W        W13280  29.437  20.706   3.295
40856W        W13281  35.432  36.841   0.733
40857W        W13282  40.866  40.504  13.973
40858W        W13283   3.934  43.277  11.047
40859W        W13284  32.502  18.266  10.642
40860W        W13285  38.372  31.044  14.865
40861W        W13286  11.852  27.470  12.022
40862W        W13287  19.743   8.199   0.250
40863W        W13288  34.488  13.246   4.307
40864W        W13289  25.528  40.538  12.050
40865W        W13290  12.685  36.942  10.478
40866W        W13291  15.667  40.856  11.918
40867W        W13292  10.878  24.607   4.822
40868W        W13293  39.833   3.286   4.288
40869W        W13294  39.043  15.603  14.964
40870W        W13295  18.177   0.265  13.917
40871W        W13296   1.339  17.284  10.424
40872W        W13297   8.264  37.558  13.437
40873W        W13298   0.906   6.872  13.307
40874W        W13299   4.233  28.573   1.907
40875W        W13300  15.747   8.335   0.272
40876W        W13301  43.838  36.561  11.451
40877W        W13302   8.231  44.466   1.262
40878W        W13303  33.984  37.018   1.919
40879W        W13304  18.761  44.309   9.996
40880W        W13305  38.058   1.389  12.827
40881W        W13306  22.013   6.770   2.751
40882W        W13307  22.597   6.817  13.984
40883W        W13308  43.412  20.252  12.517
40884W        W13309  41.974  17.721  13.411
40885W        W13310  43.814  34.914   1.805
40886W        W13311  15.165  31.453  12.368
40887W        W13312   4.353  35.523   2.710
40888W        W13313  24.173  32.013  10.484
40889W        W13314  17.239  20.596   0.844
40890W        W13315  38.338  23.003   0.405
40891W        W13316  32.945  28.562  14.354
40892W        W13317  31.536   5.226  13.959
40893W        W13318   8.272  24.050  12.458
40894W        W13319  20.663  18.258  12.434
40895W        W13320   0.275  11.265  11.951
40896W        W13321  36.491  11.831  10.511
40897W        W13322  40.832  30.620   1.434
40898W        W13323  32.120  36.411  11.582
40899W        W13324   1.352  35.013   0.951
40900W        W13325  26.168  21.040   0.733
40901W        W13326  10.251  21.519  14.915
40902W        W13327  37.076  35.387  12.460
40903W        W13328   7.330  32.463   4.205
40904W        W13329  25.994  33.964   0.298
40905W        W13330  30.592  24.714  12.546
40906W        W13331   0.835   1.946   9.939
40907W        W13332   9.372  43.013   0.386
40908W        W13333   4.823  11.744   2.687
40909W        W13334  37.031  14.609  13.489
40910W        W13335  23.160   3.918   0.418
40911W        W13336  23.643  12.788   0.255
40912W        W13337  21.521  11.281   0.377
40913W        W13338  30.567  43.888   2.180
40914W        W13339  30.003  39.040  12.406
40915W        W13340  11.345  31.937   1.877
40916W        W13341  15.791  26.665  10.892
40917W        W13342  10.752  12.801   3.154
40918W        W13343  13.697  39.315   0.728
40919W        W13344   9.231  20.083   3.207
40920W        W13345   3.724   2.334   2.349
40921W        W13346  14.744  41.421   0.332
40922W        W13347  21.716  28.180   4.834
40923W        W13348  24.706  10.327  10.490
40924W        W13349  12.121  33.503  13.869
40925W        W13350  18.697  29.011  14.316
40926W        W13351   3.252   8.812   2.752
40927W        W13352  35.908   6.914   2.225
40928W        W13353  22.127   9.331  11.454
40929W        W13354  23.026  35.064   0.428
40930W        W13355  14.720   1.913   4.241
40931W        W13356  34.995  20.262  13.360
40932W        W13357  27.128  30.073  12.379
40933W        W13358  34.609  41.520  13.459
40934W        W13359  35.580   5.779  11.541
40935W        W13360  17.767  40.990   0.762
40936W        W13361   5.906  15.269  11.053
40937W        W13362  18.080  21.602   3.353
40938W        W13363  44.003   1.278  14.339
40939W        W13364  35.430  38.364   3.202
40940W        W13365  44.415   5.333   1.272
40941W        W13366  16.136  42.947   2.335
40942W        W13367   0.971  23.022  14.448
40943W        W13368  31.946  44.483  14.430
40944W        W13369  16.584  20.101   2.281
40945W        W13370  22.036  22.250   1.332
40946W        W13371  35.484  15.256  11.014
40947W        W13372  43.433   9.262   4.306
40948W        W13373  36.541  11.647   2.210
40949W        W13374   9.771   6.402  14.832
40950W        W13375  39.469  42.999  12.378
40951W        W13376  19.073   4.271  14.892
40952W        W13377  25.504   0.452  13.481
40953W        W13378  12.638   8.874   3.311
40954W        W13379  18.120  21.670  12.094
40955W        W13380   4.352  43.307   3.828
40956W        W13381   7.267  16.173   0.927
40957W        W13382  12.344  27.521   0.767
40958W        W13383  44.962   1.332  14.321
40959W        W13384  13.660   5.863   2.888
40960W        W13385  10.681  30.000  12.524
40961W        W13386   7.774   6.315  13.922
40962W        W13387  23.048   8.792  10.593
40963W        W13388  37.411   9.832   0.402
40964W        W13389  40.887  42.285   1.302
40965W        W13390   8.848   5.779   9.522
40966W        W13391  12.295  44.780   2.844
40967W        W13392  34.570  44.392  14.863
40968W        W13393  26.626  40.008   2.377
40969W        W13394  28.536   4.778   3.377
40970W        W13395  16.165  39.540  14.458
40971W        W13396  25.644  19.633   0.284
40972W        W13397  12.166   9.789   2.897
40973W        W13398  31.109  16.681   5.587
40974W        W13399  10.337  14.221  13.322
40975W        W13400  22.707  43.487  10.583
40976W        W13401  27.484  35.863   4.194
40977W        W13402  33.488  42.828  10.109
40978W        W13403   3.426  34.600  11.075
40979W        W13404  30.641  41.811  14.348
40980W        W13405  41.854  35.386  14.499
40981W        W13406  33.075  41.401   3.851
40982W        W13407  23.039  23.664   4.271
40983W        W13408  34.897  12.781   3.305
40984W        W13409  44.303   7.390   5.259
40985W        W13410  10.838   6.781  12.567
40986W        W13411  34.086  11.336   4.175
40987W        W13412  19.168   1.931   1.870
40988W        W13413  34.040   8.250   0.965
40989W        W13414   3.949  30.574  12.489
40990W        W13415   2.868  18.788  13.400
40991W        W13416  38.417   2.936  14.511
40992W        W13417  15.701  23.572  13.437
40993W        W13418  21.120  24.209   0.739
40994W        W13419  33.881  18.742  11.384
40995W        W13420  15.097  34.911  11.024
40996W        W13421  20.052   9.304   1.447
40997W        W13422  16.206  44.401  14.020
40998W        W13423  27.495  20.225  10.961
40999W        W13424  17.252  29.952   1.793
41000W        W13425  19.755  37.871  13.341
41001W        W13426  15.281  30.150   2.255
41002W        W13427  12.681  15.618  12.498
41003W        W13428  13.809  26.661   1.218
41004W        W13429  28.512  14.194   2.186
41005W        W13430  42.793  37.037   4.732
41006W        W13431  44.943  12.123  11.036
41007W        W13432   0.493  20.670  13.455
41008W        W13433  28.453  14.650  10.597
41009W        W13434  42.958   6.386   5.118
41010W        W13435  22.612  43.864  13.886
41011W        W13436  34.529  10.748   1.752
41012W        W13437  18.611  39.063   3.672
41013W        W13438  20.143   9.305   2.865
41014W        W13439  22.697   9.676   2.361
41015W        W13440  37.459  12.253  13.005
41016W        W13441  28.554  16.685  13.795
41017W        W13442   0.384  27.607  12.363
41018W        W13443  33.924  41.866   1.727
41019W        W13444  32.496  24.019   2.294
41020W        W13445   0.951  14.647  14.328
41021W        W13446  35.858  35.994   2.847
41022W        W13447   1.803  11.632  12.445
41023W        W13448   8.228  33.123   3.385
41024W        W13449  20.273   5.847   3.808
41025W        W13450  25.509  33.451   0.436
41026W        W13451   6.308   9.800   0.442
41027W        W13452  43.366  15.712  11.592
41028W        W13453  25.073  44.268  12.396
41029W        W13454  40.053  14.773   2.683
41030W        W13455   2.399  37.576   0.369
41031W        W13456  14.221  18.561   5.143
41032W        W13457   4.394   5.360  11.935
41033W        W13458  41.932  31.629  11.959
41034W        W13459  35.944  10.251  10.611
41035W        W13460   7.266   6.775  11.574
41036W        W13461  37.394  25.045   3.359
41037W        W13462  28.641  20.677  11.513
41038W        W13463  35.058   5.907   0.867
41039W        W13464  34.520  11.805   0.341
41040W        W13465  39.972  24.509   0.274
41041W        W13466   7.774   0.254   4.207
41042W        W13467  13.745  17.643   3.768
41043W        W13468  31.419  15.747   0.847
41044W        W13469  42.939  42.791  13.465
41045W        W13470  21.043  10.146   3.149
41046W        W13471  12.268  33.436   1.242
41047W        W13472   9.220   0.911   4.114
41048W        W13473  14.666  43.421   0.464
41049W        W13474  26.543  26.059  12.034
41050W        W13475  23.199   0.756   2.345
41051W        W13476  30.414  41.862   0.440
41052W        W13477  22.528  33.558   5.109
41053W        W13478   7.909  36.459   3.775
41054W        W13479  38.419  27.113  10.625
41055W        W13480  36.385   1.815  12.981
41056W        W13481  19.684  20.634   2.328
41057W        W13482  20.679  23.175  11.984
41058W        W13483  24.203  14.158   3.173
41059W        W13484  35.922   2.916   2.343
41060W        W13485  38.333  26.093  11.597
41061W        W13486  27.058  24.197  14.469
41062W        W13487  23.510  20.083  13.971
41063W        W13488  12.816  34.004  11.910
41064W        W13489  39.532  36.416  14.937
41065W        W13490  22.535  43.298   0.261
41066W        W13491  30.026  12.133  14.808
41067W        W13492  29.502  21.719  13.424
41068W        W13493  14.630  12.152   2.872
41069W        W13494  30.476  28.532   3.249
41070W        W13495  28.559  36.566  12.868
41071W        W13496  28.948  16.192  14.937
41072W        W13497  25.551  28.649  11.935
41073W        W13498  33.594  25.987   0.404
41074W        W13499  14.736  38.954   1.285
41075W        W13500   1.894   9.666   4.737
41076W        W13501  17.172   7.223  13.353
41077W        W13502  25.984  33.113   2.307
41078W        W13503   6.259  17.669   0.445
41079W        W13504  23.535  13.139  12.877
41080W        W13505  30.992  26.667  14.446
41081W        W13506   8.265   7.211   2.694
41082W        W13507  43.812  20.186  10.516
41083W        W13508  36.906  42.334  13.826
41084W        W13509  27.593  13.811  14.775
41085W        W13510  39.913  31.991   0.344
41086W        W13511  37.548   9.737  12.974
41087W        W13512  41.452   7.372  11.054
41088W        W13513  12.762  18.618   4.239
41089W        W13514  30.450  16.259  13.904
41090W        W13515  11.216  29.437   3.358
41091W        W13516  33.883  27.548  12.564
41092W        W13517  38.569  27.142   4.180
41093W        W13518  34.974  27.579  11.382
41094W        W13519   3.833  20.235   2.827
41095W        W13520  14.756  43.903  10.432
41096W        W13521   1.845  41.440   3.187
41097W        W13522  34.426  24.600   4.187
41098W        W13523   1.970  17.237   4.311
41099W        W13524  12.795   4.377  12.433
41100W        W13525  29.662   9.195  11.494
41101W        W13526   5.875  43.317  12.927
41102W        W13527   5.326  20.231   1.298
41103W        W13528   5.924   8.870  12.958
41104W        W13529  26.157  31.586   2.409
41105W        W13530   4.315  33.620   3.734
41106W        W13531  25.042  42.455  13.338
41107W        W13532  26.191   9.265   2.792
41108W        W13533  21.692  39.398   3.278
41109W        W13534  32.020  22.121   0.826
41110W        W13535  17.214  20.764   3.331
41111W        W13536  42.862  17.558   0.846
41112W        W13537   3.899   0.446  14.302
41113W        W13538   5.819  34.597  11.932
41114W        W13539  20.605  24.706   2.410
41115W        W13540  38.441  37.951  13.027
41116W        W13541   5.245  11.648  12.912
41117W        W13542  27.140  19.222  13.884
41118W        W13543  25.565  36.864  14.329
41119W        W13544   3.883  11.277   3.801
41120W        W13545  16.590  33.599   3.278
41121W        W13546  36.888  29.620   3.189
41122W        W13547  39.045  25.600  13.531
41123W        W13548  25.198   5.743  12.564
41124W        W13549  13.825   3.252  13.844
41125W        W13550  12.748   7.837   4.802
41126W        W13551  33.990  32.901   2.288
41127W        W13552  14.232  18.618  10.423
41128W        W13553  32.529  29.435   2.348
41129W        W13554  39.048  29.602  10.624
41130W        W13555  15.099   6.311  12.541
41131W        W13556  32.136  29.938  10.462
41132W        W13557   1.812   2.741   2.680
41133W        W13558  26.587  27.487   1.267
41134W        W13559  31.621   3.730  11.068
41135W        W13560  32.977  20.255  14.453
41136W        W13561  24.107  30.916   0.358
41137W        W13562  12.771  12.670  12.865
41138W        W13563  25.621  15.262   2.204
41139W        W13564  35.401  15.621  12.511
41140W        W13565  20.098  43.465  14.285
41141W        W13566  24.670  30.096   3.833
41142W        W13567  15.109   7.288   3.367
41143W        W13568  26.482  18.057  14.763
41144W        W13569  39.920  30.045  13.047
41145W        W13570  27.019  16.686   3.687
41146W        W13571  44.494  12.300  14.399
41147W        W13572  23.126  12.292   3.242
41148W        W13573   0.914  34.109  10.580
41149W        W13574   5.324  20.107   1.770
41150W        W13575  43.300  30.485  13.860
41151W        W13576  34.576  19.202   0.892
41152W        W13577  41.377  16.688  14.985
41153W        W13578  26.150   6.273  12.372
41154W        W13579  40.876  33.495  13.310
41155W        W13580  25.650  15.768  11.105
41156W        W13581  42.029  28.050  12.006
41157W        W13582  12.689  41.919   3.860
41158W        W13583  24.040  13.810   1.848
41159W        W13584  12.852  18.557   3.352
41160W        W13585  40.543  26.041   4.777
41161W        W13586  36.397  18.114  14.897
41162W        W13587   3.893  34.877  12.026
41163W        W13588   2.392  27.561   0.852
41164W        W13589  11.310   5.829   0.323
41165W        W13590  35.058  36.927   3.378
41166W        W13591  13.599  44.010   4.627
41167W        W13592  21.180  29.664  14.494
41168W        W13593  18.708  29.007   4.612
41169W        W13594  31.453  18.096  14.901
41170W        W13595  42.924  14.758  13.919
41171W        W13596  42.006  35.603   4.242
41172W        W13597   8.312   2.248   0.873
41173W        W13598  37.341  11.823   1.267
41174W        W13599  21.184   6.792   2.854
41175W        W13600  17.769  22.542   1.876
41176W        W13601  37.497  34.516   0.809
41177W        W13602  35.565  40.370   1.387
41178W        W13603  19.733  35.390   0.338
41179W        W13604  38.880  21.538   1.764
41180W        W13605  14.174   1.941  10.419
41181W        W13606  13.785  42.362  11.386
41182W        W13607   4.817  36.492   3.352
41183W        W13608  17.072  42.496   3.312
41184W        W13609  10.741   2.382  13.456
41185W        W13610  25.115   3.888  10.589
41186W        W13611  29.148  34.543  14.460
41187W        W13612  22.648  33.973  11.910
41188W        W13613  32.922   4.295  10.970
41189W        W13614  12.847  26.570   1.403
41190W        W13615  19.240  17.069   2.824
41191W        W13616  37.341  15.194   1.258
41192W        W13617  39.526   8.708   0.291
41193W        W13618  36.910  10.879   4.348
41194W        W13619   5.886   7.253  13.792
41195W        W13620  20.197  33.447   0.326
41196W        W13621  19.247  17.606   0.362
41197W        W13622  43.966  42.793   1.389
41198W        W13623  10.192   6.811  11.599
41199W        W13624  32.402  39.926   2.338
41200W        W13625   1.969  33.974   2.288
41201W        W13626   3.296  27.631   0.254
41202W        W13627  33.989  28.068  13.356
41203W        W13628  22.654  42.375  11.566
41204W        W13629  25.643   6.322  10.974
41205W        W13630  15.699  18.647  11.413
41206W        W13631  20.602  15.186   3.686
41207W        W13632  32.541  37.990  13.369
41208W        W13633  36.960  10.871  14.297
41209W        W13634  38.531   0.782   3.859
41210W        W13635  11.249  37.472  12.832
41211W        W13636  41.314  42.020   5.105
41212W        W13637  29.512  13.178   2.787
41213W        W13638  25.639  25.984  13.948
41214W        W13639  38.561  41.376   1.888
41215W        W13640   2.852  39.369   0.914
41216W        W13641   9.804  43.904   1.843
41217W        W13642  39.980  37.363  12.990
41218W        W13643  44.974  33.423   2.672
41219W        W13644   3.876  25.688   2.362
41220W        W13645  42.373  13.602   0.836
41221W        W13646  25.215  14.236  10.119
41222W        W13647  39.545  30.570  11.422
41223W        W13648  18.270  29.628  12.365
41224W        W13649  39.837  13.829   0.800
41225W        W13650  35.398  16.658  13.863
41226W        W13651  16.657  34.077   0.367
41227W        W13652  30.576  15.678   1.786
41228W        W13653  12.345  26.951  14.988
41229W        W13654  38.560   4.239  14.470
41230W        W13655  38.025  37.963   4.775
41231W        W13656   5.337  18.150   2.346
41232W        W13657   4.789  17.303  14.491
41233W        W13658  36.510  41.808  14.812
41234W        W13659  10.237  24.671   1.382
41235W        W13660  25.048  33.129  14.422
41236W        W13661  43.929   2.851  13.520
41237W        W13662  27.592  13.762  12.005
41238W        W13663   0.342   8.380   2.394
41239W        W13664  28.561  41.414  11.010
41240W        W13665  26.203  30.633   1.829
41241W        W13666  24.002  25.204  11.559
41242W        W13667  35.010   7.194   1.821
41243W        W13668  41.443  30.624   3.181
41244W        W13669   4.251  43.456  13.371
41245W        W13670  23.635  33.522  12.913
41246W        W13671  27.981   9.227   3.643
41247W        W13672  43.818  21.132  10.903
41248W        W13673  43.893  43.012   0.761
41249W        W13674   4.323  31.628  10.560
41250W        W13675  28.994  38.832   0.880
41251W        W13676  17.687  34.583   3.174
41252W        W13677   8.246  37.495  11.482
41253W        W13678  17.258   8.681   2.412
41254W        W13679  37.560  16.681   1.898
41255W        W13680  23.146   5.840  12.881
41256W        W13681  10.198  16.203  12.073
41257W        W13682  31.617  43.792  14.396
41258W        W13683  34.388  26.012   3.348
41259W        W13684  35.014  34.534  10.951
41260W        W13685  17.603  18.252  10.531
41261W        W13686  28.435  31.902   9.992
41262W        W13687  22.011  10.271  12.918
41263W        W13688  37.430  34.120  12.411
41264W        W13689  39.546  36.493  10.945
41265W        W13690  15.661   4.321   2.303
41266W        W13691  15.585  38.437  12.964
41267W        W13692   6.901  32.125  13.486
41268W        W13693  44.877  40.878  13.930
41269W        W13694  44.891   9.759   2.295
41270W        W13695   7.858  39.897   0.733
41271W        W13696  35.887  40.391   0.843
41272W        W13697  35.998  38.417  10.547
41273W        W13698  26.077  17.705  11.438
41274W        W13699  41.035  28.006   4.651
41275W        W13700  31.997   0.333   1.236
41276W        W13701   3.310   5.220  13.950
41277W        W13702  16.662  32.084   3.153
41278W        W13703   2.789   9.266  10.602
41279W        W13704  34.019  38.924   9.948
41280W        W13705   1.272   3.830   3.692
41281W        W13706  12.695  19.121   0.792
41282W        W13707   9.789   5.246   0.754
41283W        W13708  17.094  35.440   1.449
41284W        W13709   5.376  16.286  12.411
41285W        W13710  25.109  14.640  11.914
41286W        W13711  11.144  14.782   3.308
41287W        W13712   5.334  14.195  10.513
41288W        W13713  10.818  14.179   4.324
41289W        W13714  32.108  23.605   2.734
41290W        W13715  12.737  26.604  13.372
41291W        W13716  14.273  44.817   0.763
41292W        W13717  42.949  16.235  11.997
41293W        W13718  15.582  24.672   4.606
41294W        W13719  39.982  28.678   3.383
41295W        W13720  24.671  42.312  11.913
41296W        W13721  23.592   0.279  10.540
41297W        W13722  44.938   5.407   2.284
41298W        W13723  32.544  27.990  13.897
41299W        W13724  26.140   6.264   2.217
41300W        W13725  30.158   1.314   0.474
41301W        W13726  37.532  37.431  13.039
41302W        W13727  43.017  14.754   0.927
41303W        W13728   5.405  19.179  11.995
41304W        W13729  25.510  20.556  10.439
41305W        W13730  30.459  17.233   1.400
41306W        W13731  28.181  10.805  10.507
41307W        W13732  28.438  18.118  13.535
41308W        W13733  29.646  19.201   3.791
41309W        W13734   3.779  27.047   2.292
41310W        W13735  21.250  44.358   5.226
41311W        W13736  17.586  34.962  12.088
41312W        W13737   0.898   8.401  12.455
41313W        W13738  25.972  30.556  11.037
41314W        W13739  14.727  33.114   2.364
41315W        W13740  39.407  35.425   2.734
41316W        W13741  37.066  19.279   0.732
41317W        W13742  11.642  18.295  12.429
41318W        W13743   2.274  31.625   1.274
41319W        W13744   2.323  20.119  11.884
41320W        W13745   1.407  38.019  12.908
41321W        W13746  26.082  27.016   0.800
41322W        W13747  17.741  14.699  13.337
41323W        W13748  10.278  34.070   4.646
41324W        W13749  26.559  30.533  10.033
41325W        W13750  12.618   1.271   0.253
41326W        W13751  21.152   7.235   2.323
41327W        W13752   4.827  24.631  12.400
41328W        W13753  19.259   6.841  14.893
41329W        W13754  20.226  24.131  11.496
41330W        W13755  35.020  40.983  11.481
41331W        W13756  41.468  13.804  10.937
41332W        W13757  39.346  17.256  13.812
41333W        W13758   4.276  40.834   3.773
41334W        W13759  38.563  15.778   3.321
41335W        W13760  12.152  34.569  13.914
41336W        W13761  36.066  41.885   1.450
41337W        W13762   2.904  24.558  13.510
41338W        W13763  18.580   1.746  14.413
41339W        W13764  29.514   6.201  13.802
41340W        W13765  18.604  31.547   9.970
41341W        W13766  34.435   5.768   3.254
41342W        W13767   6.773  33.490   3.737
41343W        W13768  29.618  37.964   4.212
41344W        W13769   7.293  30.495  14.865
41345W        W13770   5.809  18.142   3.716
41346W        W13771  29.011  20.072  12.875
41347W        W13772  22.218  27.464   1.443
41348W        W13773  15.776  31.536  11.876
41349W        W13774  20.237   2.798   3.345
41350W        W13775  14.256  29.486   4.248
41351W        W13776  26.485   7.899  10.630
41352W        W13777   6.412   8.358  14.478
41353W        W13778  13.704   1.300   2.359
41354W        W13779  16.305   4.806   3.183
41355W        W13780   1.879  34.066  10.473
41356W        W13781  36.016  37.842   4.159
41357W        W13782  14.121  20.555   2.676
41358W        W13783  31.912  28.015  14.026
41359W        W13784   6.792   7.673   1.257
41360W        W13785   1.944  35.559  11.868
41361W        W13786  14.236  19.091   1.767
41362W        W13787  32.928  26.483   0.805
41363W        W13788  36.468  24.559  11.510
41364W        W13789  10.303  28.033   0.865
41365W        W13790  43.829   6.853   3.339
41366W        W13791  16.105   2.450  14.973
41367W        W13792   7.876   4.741  11.941
41368W        W13793  20.249   7.237  10.146
41369W        W13794  12.217  40.447  12.491
41370W        W13795  25.708  30.110   1.790
41371W        W13796  21.750   5.313  11.456
41372W        W13797  19.069  14.169  13.355
41373W        W13798   1.734  37.397  14.461
41374W        W13799  17.187   5.406  12.883
41375W        W13800  22.131  14.191   4.713
41376W        W13801  19.227  21.061  12.996
41377W        W13802  39.022  39.822   1.430
41378W        W13803  24.182  19.715   2.404
41379W        W13804  17.753  32.580   4.797
41380W        W13805  10.704   7.868   3.146
41381W        W13806  34.087   5.909  12.416
41382W        W13807  28.024  39.052  11.466
41383W        W13808  13.737  28.493  11.509
41384W        W13809  43.871  14.742  14.409
41385W        W13810  38.445  42.449  13.375
41386W        W13811  20.678  30.151   3.863
41387W        W13812  41.830  22.612  10.033
41388W        W13813  41.366   9.214   2.898
41389W        W13814  12.831  28.560  12.913
41390W        W13815  38.917   6.700  11.026
41391W        W13816  14.613   8.790   1.267
41392W        W13817  44.443  19.092   1.723
41393W        W13818  14.809  26.695  13.475
41394W        W13819  42.811   1.887  12.963
41395W        W13820  14.688  39.919   2.836
41396W        W13821   9.205   3.890  13.945
41397W        W13822  18.127  13.723   1.378
41398W        W13823   5.706  35.583   2.212
41399W        W13824   0.902  13.301   1.445
41400W        W13825  30.560  30.641  13.032
41401W        W13826  17.200  12.856  12.048
41402W        W13827   1.811   4.382   3.294
41403W        W13828   2.827  13.654   2.762
41404W        W13829  35.396  18.072  10.532
41405W        W13830  43.948  37.875  14.912
41406W        W13831  23.659  24.634  11.110
41407W        W13832  13.328  13.838   3.642
41408W        W13833  16.143  31.420   0.312
41409W        W13834  43.510   7.768   1.306
41410W        W13835  19.572  39.380  13.860
41411W        W13836   0.314   0.954   3.150
41412W        W13837  16.215  26.532  14.500
41413W        W13838  11.832  40.465   1.782
41414W        W13839  23.202  11.767  13.965
41415W        W13840  36.489  11.276  14.909
41416W        W13841   2.324  14.188  14.793
41417W        W13842  27.102  25.531  10.548
41418W        W13843  10.356   4.916  13.955
41419W        W13844  14.784  21.644   0.480
41420W        W13845  19.203  44.396  12.974
41421W        W13846  27.691  38.352  10.960
41422W        W13847  44.945  41.967  13.352
41423W        W13848  39.937  24.605  14.365
41424W        W13849  20.630   8.828   3.671
41425W        W13850  10.675  40.434  13.810
41426W        W13851  19.225   5.436  10.924
41427W        W13852  32.534  39.842   2.895
41428W        W13853   3.444  25.706   5.187
41429W        W13854  17.211  16.103   2.671
41430W        W13855  37.356  23.542   0.357
41431W        W13856   1.896   7.693  12.013
41432W        W13857  28.953  17.740   3.740
41433W        W13858   6.253  32.995  11.064
41434W        W13859  44.267   6.234   2.208
41435W        W13860   3.427  37.856   1.856
41436W        W13861   3.401  11.847   0.302
41437W        W13862  15.241  19.665  11.476
41438W        W13863  35.475  12.135  12.868
41439W        W13864  44.842  29.654  11.909
41440W        W13865  44.008  36.011  11.477
41441W        W13866  18.067  32.902   1.256
41442W        W13867  25.117   5.706   2.393
41443W        W13868  38.396  42.807   3.233
41444W        W13869  16.248  38.871   4.617
41445W        W13870  21.752  22.164  12.047
41446W        W13871   5.890   9.252  14.992
41447W        W13872  22.194  11.298   5.732
41448W        W13873  17.661   8.697   0.840
41449W        W13874   8.758  21.527  13.440
41450W        W13875  39.011   9.255  12.869
41451W        W13876  34.378  32.056  10.975
41452W        W13877   2.470  27.614   4.319
41453W        W13878  10.775  41.434   1.406
41454W        W13879  10.702  26.620   0.900
41455W        W13880   7.853  44.891   0.792
41456W        W13881   9.373  44.772   1.901
41457W        W13882  33.947  44.933  12.034
41458W        W13883   7.294  16.281  10.916
41459W        W13884  15.654  22.189   3.792
41460W        W13885  29.923  38.836  12.967
41461W        W13886   0.316  40.432  12.868
41462W        W13887  31.037  35.861   2.193
41463W        W13888  40.498   1.826  12.842
41464W        W13889  38.505  38.346   0.814
41465W        W13890   2.283   9.220  12.941
41466W        W13891   4.898  36.403   4.325
41467W        W13892   9.279  28.051   2.362
41468W        W13893  14.205  34.513   1.809
41469W        W13894  30.987   9.659   4.293
41470W        W13895  19.656  38.485   1.723
41471W        W13896  20.640  30.931  12.038
41472W        W13897  35.900  35.854   1.266
41473W        W13898  42.819  34.900   2.312
41474W        W13899  35.917  11.252   3.229
41475W        W13900  25.178  17.758  10.487
41476W        W13901   0.330   5.697   2.417
41477W        W13902  21.675   5.423   2.738
41478W        W13903   5.283   0.460  11.103
41479W        W13904   9.677  28.986   0.753
41480W        W13905  24.186   8.883  10.412
41481W        W13906  29.058   0.756   4.189
41482W        W13907  19.067  29.979   5.237
41483W        W13908  33.512  22.675   2.764
41484W        W13909  32.041  17.179   4.197
41485W        W13910  30.460  24.706   1.884
41486W        W13911  42.351   7.327  12.346
41487W        W13912  11.179  11.185  11.881
41488W        W13913  36.476  43.831   3.634
41489W        W13914  22.523   0.454  10.991
41490W        W13915   4.391  16.796   0.787
41491W        W13916   4.331  33.514  11.910
41492W        W13917  28.961  16.792   0.379
41493W        W13918  34.884   4.255  12.951
41494W        W13919  31.555   8.789  12.915
41495W        W13920   3.266  34.480  11.393
41496W        W13921  36.955  36.356   1.425
41497W        W13922  29.433  41.896   3.183
41498W        W13923   6.785  34.504  14.014
41499W        W13924  41.502   1.970  12.345
41500W        W13925  39.015  14.155  14.514
41501W        W13926  18.168  43.768  13.968
41502W        W13927  16.142  22.162  10.566
41503W        W13928  19.601   9.198   0.749
41504W        W13929  24.195   3.955  11.061
41505W        W13930  39.917  34.593   3.232
41506W        W13931   3.315  21.038   2.763
41507W        W13932  43.792   8.316   2.746
41508W        W13933  36.390  23.062   1.446
41509W        W13934  11.342  30.485   1.848
41510W        W13935  30.433  32.121   0.342
41511W        W13936   4.769  10.289   5.194
41512W        W13937   5.378   8.718  11.080
41513W        W13938  15.086  38.983   1.929
41514W        W13939   9.156  40.492   3.802
41515W        W13940  33.403  16.206  11.125
41516W        W13941  20.747   5.279  13.820
41517W        W13942  33.403  25.520  12.084
41518W        W13943   3.841   9.321   2.240
41519W        W13944   6.402   4.757  14.781
41520W        W13945  31.901  43.963  14.002
41521W        W13946  16.614  25.637  12.440
41522W        W13947   8.741   2.252  14.341
41523W        W13948  14.289  11.715   1.302
41524W        W13949  13.131  42.909  13.329
41525W        W13950  36.529  23.539  14.360
41526W        W13951  25.635  24.172  12.954
41527W        W13952   4.862  42.298  13.425
41528W        W13953  12.336  34.037   3.632
41529W        W13954  35.907  33.094   0.776
41530W        W13955  13.108  43.916   4.790
41531W        W13956   8.865   6.884  11.060
41532W        W13957  34.476  32.481   3.188
41533W        W13958  26.601  17.787  10.435
41534W        W13959  34.120  14.151   0.408
41535W        W13960   2.721  27.159   2.234
41536W        W13961  17.136   9.711  14.384
41537W        W13962   9.345   7.770  12.405
41538W        W13963  32.499  44.990   3.706
41539W        W13964  26.461  17.242   1.750
41540W        W13965  28.435  12.650  10.618
41541W        W13966  40.390   7.780  10.560
41542W        W13967  43.811  32.459   4.331
41543W        W13968  44.449  32.020   5.213
41544W        W13969  21.515  36.460  11.908
41545W        W13970  15.691   3.736  13.378
41546W        W13971  27.659   3.748   4.748
41547W        W13972   6.340  39.417  12.519
41548W        W13973   0.949  11.349   1.283
41549W        W13974   8.274  19.126  10.923
41550W        W13975  33.130  23.027  12.859
41551W        W13976  27.005  39.048   0.474
41552W        W13977  15.707  42.352   2.899
41553W        W13978  25.638  17.183   4.129
41554W        W13979  33.114  25.973   4.682
41555W        W13980  13.801  10.366  10.953
41556W        W13981  39.380  18.573   4.289
41557W        W13982   6.347  27.527  12.056
41558W        W13983   0.274  31.589  12.006
41559W        W13984  44.797  24.565  13.052
41560W        W13985  17.293  42.825  13.796
41561W        W13986  10.224  16.109  10.455
41562W        W13987  31.594  42.482  11.420
41563W        W13988  17.114  22.220  14.964
41564W        W13989  39.864   1.375  14.798
41565W        W13990  10.798  25.678   1.338
41566W        W13991   3.767  36.070  13.003
41567W        W13992  34.116  40.031  10.983
41568W        W13993  33.399  42.495  10.952
41569W        W13994  21.656   8.354   0.444
41570W        W13995  38.937  11.238   2.788
41571W        W13996  18.279  22.630  13.911
41572W        W13997  10.153   5.863   1.935
41573W        W13998  25.097  40.964   4.268
41574W        W13999   3.435  28.651  12.941
41575W        W14000  13.341  37.962  14.315
41576W        W14001  21.679  31.940   2.271
41577W        W14002  14.724  39.032   2.715
41578W        W14003  33.893   5.710   2.749
41579W        W14004  16.619   7.881  14.904
41580W        W14005  35.504  42.031   1.933
41581W        W14006  13.812  44.304  10.591
41582W        W14007  10.694   8.269   0.872
41583W        W14008  34.993  15.678   1.697
41584W        W14009  17.140  19.210  11.098
41585W        W14010  25.123   9.176   4.248
41586W        W14011  39.430   0.293  12.085
41587W        W14012  27.073  38.034   3.279
41588W        W14013  39.865   1.299   4.668
41589W        W14014  19.134  12.122  11.041
41590W        W14015  42.463  25.469   4.714
41591W        W14016  30.137  12.745  11.970
41592W        W14017  34.547  26.546  12.462
41593W        W14018  11.182  39.547   0.376
41594W        W14019  27.557   7.384  12.496
41595W        W14020  34.466   4.941  14.881
41596W        W14021  23.513  19.642   2.192
41597W        W14022  33.408  21.231  10.595
41598W        W14023  19.549  30.488   5.102
41599W        W14024  24.533  43.009   4.237
41600W        W14025   7.708  31.030   2.340
41601W        W14026   4.761   1.426   0.470
41602W        W14027  38.873   6.407   4.276
41603W        W14028  33.501   4.270   3.325
41604W        W14029  40.866  25.530   3.207
41605W        W14030  32.937  16.264   1.773
41606W        W14031   5.218  39.894   1.380
41607W        W14032  24.676   3.415   1.889
41608W        W14033  39.317  10.173  14.393
41609W        W14034  22.534   4.345  14.769
41610W        W14035  32.977  37.874   2.834
41611W        W14036  16.584  17.103  12.468
41612W        W14037  38.011  31.022   4.729
41613W        W14038   6.191  17.622  13.428
41614W        W14039  25.029  43.927   4.125
41615W        W14040  13.264   6.219  12.061
41616W        W14041  20.108  19.199  12.867
41617W        W14042  17.273  34.565  12.489
41618W        W14043  32.910  27.572  13.964
41619W        W14044  13.309  34.090   1.428
41620W        W14045  42.862  38.894   3.840
41621W        W14046  14.171  34.610   0.381
41622W        W14047  13.107  22.505   2.259
41623W        W14048  30.955  17.692  11.951
41624W        W14049  34.915   4.771   0.245
41625W        W14050  36.496  27.638   2.411
41626W        W14051  31.967  23.639   4.710
41627W        W14052  42.372  29.161   0.912
41628W        W14053  19.246  22.104   2.213
41629W        W14054  30.521   8.676  12.396
41630W        W14055  16.077  43.913   3.710
41631W        W14056  42.448  26.507  10.969
41632W        W14057  17.118   9.281  12.365
41633W        W14058  19.239  29.653  12.921
41634W        W14059  34.501  41.037  13.968
41635W        W14060  25.529  17.680   1.788
41636W        W14061   7.203  42.862   0.249
41637W        W14062  32.635  13.163  14.497
41638W        W14063   4.787  12.704  12.002
41639W        W14064  43.421  35.969  10.530
41640W        W14065   5.334  34.429  14.934
41641W        W14066   0.851   6.740  11.030
41642W        W14067  14.677   2.903  12.339
41643W        W14068  18.639  42.319   0.267
41644W        W14069  44.945  33.566   3.741
41645W        W14070  32.515   1.862   2.360
41646W        W14071  16.810   2.290   1.703
41647W        W14072  14.737  36.900   2.213
41648W        W14073   4.784  18.213   3.310
41649W        W14074  28.627  44.303  14.324
41650W        W14075   4.270   1.953   3.337
41651W        W14076   4.914  30.915  13.984
41652W        W14077   0.958  40.870  12.369
41653W        W14078  34.396  31.897  10.608
41654W        W14079  13.781   0.286  14.305
41655W        W14080   1.275  43.392  11.561
41656W        W14081   8.374  10.763   0.951
41657W        W14082  21.706  25.058   0.265
41658W        W14083  19.195  28.448   0.806
41659W        W14084  37.564  40.919  12.361
41660W        W14085   5.199   8.695  12.346
41661W        W14086  29.927  43.442   0.280
41662W        W14087  40.972  42.017   0.844
41663W        W14088   5.414  18.296  13.860
41664W        W14089  26.035   2.743   1.796
41665W        W14090  20.641  14.589  10.523
41666W        W14091  39.472  13.258   0.778
41667W        W14092  29.551  41.935  12.353
41668W        W14093  30.521  43.480   2.183
41669W        W14094  36.389  29.662  12.047
41670W        W14095  36.415  18.260   5.258
41671W        W14096  16.625  13.297   2.764
41672W        W14097  31.492  22.617  13.800
41673W        W14098  40.900  42.340  12.470
41674W        W14099  26.080   9.744  12.014
41675W        W14100  44.894  12.663  14.803
41676W        W14101  10.730  43.865   2.796
41677W        W14102  34.556  34.518  12.562
41678W        W14103  36.083   2.785  14.963
41679W        W14104  24.021  10.276  13.835
41680W        W14105  38.863   5.349   4.686
41681W        W14106   4.874   0.442  13.795
41682W        W14107  32.972  32.550   2.309
41683W        W14108   5.816  32.424   1.863
41684W        W14109  13.327  38.344  10.977
41685W        W14110  13.765  39.870  14.355
41686W        W14111   6.722  17.300   2.246
41687W        W14112   1.796  31.416  11.938
41688W        W14113   8.311  10.374   1.425
41689W        W14114   3.800   3.355   2.812
41690W        W14115  36.052   0.931   5.264
41691W        W14116  43.778  34.033   2.333
41692W        W14117  27.942  41.817  11.114
41693W        W14118  15.729  20.568  14.498
41694W        W14119  14.133  43.006   0.275
41695W        W14120  38.342   0.931  11.389
41696W        W14121  43.436  28.058  13.819
41697W        W14122  40.807   4.708   4.686
41698W        W14123  24.218  18.131  13.392
41699W        W14124  20.038  12.805  14.441
41700W        W14125  26.129  25.548   3.844
41701W        W14126  26.699   5.691  10.441
41702W        W14127  12.772  44.957  10.905
41703W        W14128  31.901  41.786   2.280
41704W        W14129  39.526  25.046  14.878
41705W        W14130  20.088  11.856   1.829
41706W        W14131   9.350  30.437   1.695
41707W        W14132  26.951  10.165  10.622
41708W        W14133  31.929  24.138  11.992
41709W        W14134  43.841  30.985   4.733
41710W        W14135   6.317  38.061  12.986
41711W        W14136  26.174  15.308   3.784
41712W        W14137   0.448  38.473  10.974
41713W        W14138  41.950  25.119  11.394
41714W        W14139  24.670   5.828  10.521
41715W        W14140  12.351  34.044   0.740
41716W        W14141   2.397  10.849   4.229
41717W        W14142  25.068  17.120   4.273
41718W        W14143  25.625  17.576   0.849
41719W        W14144  25.108  15.228  13.984
41720W        W14145  31.540  17.165   9.949
41721W        W14146  35.568   1.786  12.553
41722W        W14147  27.157   4.373  13.856
41723W        W14148  37.871   8.324  12.949
41724W        W14149  31.514  19.103   0.447
41725W        W14150  24.668  16.076   4.233
41726W        W14151   0.749  34.401  11.452
41727W        W14152  14.744  20.761  12.888
41728W        W14153   8.330  29.952   4.180
41729W        W14154  35.519  42.775  13.987
41730W        W14155  28.063  26.702   4.266
41731W        W14156  26.206  42.481  11.892
41732W        W14157  32.964  19.663  10.994
41733W        W14158  12.212  29.028  10.463
41734W        W14159  44.000   6.889   4.802
41735W        W14160  42.942  35.949   3.278
41736W        W14161   7.390   3.299  11.475
41737W        W14162  23.618   1.927   0.267
41738W        W14163   6.723   6.321   4.817
41739W        W14164  15.250  13.725   0.433
41740W        W14165  22.723  26.639   1.789
41741W        W14166   5.223  28.007  10.892
41742W        W14167  17.761  44.485   0.734
41743W        W14168  29.636   6.854  10.888
41744W        W14169  16.315  29.998  13.996
41745W        W14170   5.223  22.655  13.976
41746W        W14171   3.386  15.163   1.717
41747W        W14172  37.511  38.880  12.382
41748W        W14173   9.258   7.300  10.443
41749W        W14174  33.511   4.706   1.714
41750W        W14175  22.689  13.752  11.521
41751W        W14176  17.713  37.352  11.402
41752W        W14177  27.041  15.259   2.401
41753W        W14178  43.410  24.211  10.625
41754W        W14179  42.334  20.267   0.817
41755W        W14180   1.842  34.587  10.505
41756W        W14181  25.472  19.667   2.368
41757W        W14182  18.588  37.832  10.632
41758W        W14183  19.764  31.488   4.146
41759W        W14184  13.113  27.497  14.846
41760W        W14185  32.094  26.188   3.251
41761W        W14186   0.820  18.632  11.881
41762W        W14187  40.829   3.944  12.353
41763W        W14188   4.928   0.334   3.257
41764W        W14189  35.907  35.502   4.268
41765W        W14190   7.737  24.016   0.741
41766W        W14191  35.460  35.033   4.733
41767W        W14192  11.760  28.086   3.770
41768W        W14193   9.158  14.340   0.799
41769W        W14194   4.270  27.090  13.998
41770W        W14195  29.536  26.595   3.743
41771W        W14196  13.639  32.912  10.612
41772W        W14197   0.787  35.522   0.819
41773W        W14198   0.419  12.741  12.382
41774W        W14199  22.113  11.299  13.446
41775W        W14200  21.057  25.483   1.312
41776W        W14201  31.562  38.964   2.706
41777W        W14202  15.679   1.772   5.255
41778W        W14203  32.553  11.812  11.874
41779W        W14204  19.697  27.487  11.914
41780W        W14205  28.971  42.978   4.672
41781W        W14206  20.195  25.591   0.917
41782W        W14207  10.780  33.002  10.468
41783W        W14208  13.148   6.731  10.560
41784W        W14209  30.934  10.823  11.504
41785W        W14210  26.109  38.467   1.816
41786W        W14211  25.498   7.356  13.813
41787W        W14212  25.543  11.817   4.144
41788W        W14213   1.882  26.067   3.789
41789W        W14214   6.295  34.881  13.880
41790W        W14215  43.339  33.093   0.960
41791W        W14216  28.473  10.754   3.222
41792W        W14217  23.621  43.983   1.392
41793W        W14218  44.850  40.545   4.206
41794W        W14219  24.483   4.761   3.761
41795W        W14220  22.174  38.457   1.866
41796W        W14221  38.839  38.016  14.964
41797W        W14222  44.446   4.932   3.640
41798W        W14223  14.617  11.210   4.611
41799W        W14224  39.901  26.052  11.946
41800W        W14225  28.649  12.189   0.310
41801W        W14226  22.187  20.237   1.726
41802W        W14227  29.547  19.082   3.252
41803W        W14228  33.593  32.635   0.394
41804W        W14229   6.679  17.656  13.401
41805W        W14230   2.233  10.769  14.794
41806W        W14231  27.949  35.554  13.001
41807W        W14232  26.111  41.435  12.834
41808W        W14233   7.840  22.716  13.967
41809W        W14234  22.671  13.284  13.922
41810W        W14235   3.883  44.378   2.735
41811W        W14236  11.786  32.126   3.350
41812W        W14237  27.189  43.801   0.862
41813W        W14238   7.212  36.975   1.882
41814W        W14239   3.787   6.246  11.112
41815W        W14240  16.235  41.517   2.839
41816W        W14241  18.099  20.198   4.656
41817W        W14242  41.391  32.564  10.913
41818W        W14243  10.213  26.684  14.383
41819W        W14244  18.258  10.328  14.385
41820W        W14245  18.250  34.874   4.787
41821W        W14246   7.788  14.660   2.800
41822W        W14247  18.144   0.396  14.369
41823W        W14248  21.666  21.038   1.828
41824W        W14249   3.225   6.748   3.283
41825W        W14250  44.384  42.328   2.772
41826W        W14251  17.195  14.143   0.850
41827W        W14252  39.877  13.757  14.339
41828W        W14253  42.909  36.449  14.368
41829W        W14254  12.313   8.749   0.479
41830W        W14255  28.599  31.639   2.254
41831W        W14256   0.788  39.886   4.718
41832W        W14257  44.885  38.403   2.289
41833W        W14258  21.756  23.020   2.671
41834W        W14259  31.430  31.564  14.317
41835W        W14260   6.922  14.237   1.930
41836W        W14261  38.443  10.715   3.714
41837W        W14262  10.326  15.212   2.379
41838W        W14263  41.441  43.509   9.623
41839W        W14264   7.670   2.322  10.967
41840W        W14265  28.001  16.187  14.828
41841W        W14266  21.740  13.248  13.912
41842W        W14267   5.254  11.367  11.856
41843W        W14268  42.491  32.631  13.430
41844W        W14269  28.562  29.527   0.349
41845W        W14270   9.266  37.055  13.460
41846W        W14271   2.790   5.882  14.882
41847W        W14272  44.915  23.196  13.882
41848W        W14273  25.633   4.913  14.762
41849W        W14274   1.371  26.552   4.667
41850W        W14275   8.238  17.673   2.287
41851W        W14276  43.453   1.263  11.439
41852W        W14277  40.509  33.047   0.951
41853W        W14278  39.987  20.150   3.240
41854W        W14279  17.780  12.798   3.290
41855W        W14280  15.611  39.423  12.930
41856W        W14281  20.570  39.316   1.388
41857W        W14282  39.066   5.310  10.636
41858W        W14283  15.274   8.365  13.433
41859W        W14284   9.856  35.957   4.338
41860W        W14285  27.645  11.351  10.434
41861W        W14286  37.068  11.776   3.316
41862W        W14287  35.056  12.726  13.478
41863W        W14288  44.835  16.752  12.992
41864W        W14289   7.847   1.787   3.808
41865W        W14290  26.493  29.933   2.204
41866W        W14291  28.477  14.124   2.840
41867W        W14292   7.402  11.728   2.714
41868W        W14293   2.406   7.908   1.397
41869W        W14294  28.483   8.817  11.532
41870W        W14295  34.104  16.708   1.733
41871W        W14296  21.167  34.595  12.356
41872W        W14297  37.579   7.727   4.615
41873W        W14298  33.952  16.640   1.283
41874W        W14299  19.283  25.030   0.830
41875W        W14300  21.649  32.120  12.929
41876W        W14301  42.783  40.981  13.531
41877W        W14302  29.655  29.129  11.492
41878W        W14303  24.536  28.639   1.264
41879W        W14304  19.245  13.233   2.278
41880W        W14305   8.835  21.634   0.890
41881W        W14306  43.001  42.434   4.317
41882W        W14307  12.613  26.058  14.996
41883W        W14308  39.949  15.656  14.402
41884W        W14309  35.878   3.297   0.728
41885W        W14310   8.655  31.526  13.456
41886W        W14311   2.439  41.340   1.697
41887W        W14312  18.698  39.326  12.959
41888W        W14313  18.753   8.343   4.606
41889W        W14314  37.889  23.662   2.209
41890W        W14315   0.933   3.880  13.317
41891W        W14316  22.073   1.893  10.466
41892W        W14317  27.615  14.655   1.859
41893W        W14318  13.315  20.571   3.363
41894W        W14319  29.024   7.331  14.468
41895W        W14320   8.741  33.970  13.009
41896W        W14321   4.255  37.942   2.756
41897W        W14322  32.510  10.317  14.875
41898W        W14323   2.752  37.340  12.526
41899W        W14324  29.068  34.922   4.670
41900W        W14325  12.211  33.530   3.315
41901W        W14326  20.186  34.368   3.228
41902W        W14327  19.269  44.417  13.959
41903W        W14328   3.735   4.809  13.307
41904W        W14329  20.069  24.190   3.679
41905W        W14330  19.641  22.213  11.570
41906W        W14331  32.498  28.057   3.766
41907W        W14332  21.624  11.780   3.763
41908W        W14333  24.121  40.845  10.916
41909W        W14334   0.792  29.004  11.873
41910W        W14335  19.682  19.244  12.902
41911W        W14336   7.205  13.753  14.279
41912W        W14337  42.301  21.053   2.727
41913W        W14338  13.628  20.759  14.761
41914W        W14339   0.888  32.509   1.369
41915W        W14340  30.928   8.692   1.722
41916W        W14341  23.605  44.416   2.238
41917W        W14342  27.115  12.857   0.799
41918W        W14343   6.686  26.149  11.966
41919W        W14344  25.186  43.830  10.976
41920W        W14345   5.796  38.378   0.409
41921W        W14346  33.431  20.678   2.885
41922W        W14347  14.191  40.500   4.678
41923W        W14348  17.175  42.483   2.862
41924W        W14349  15.715   9.179  12.979
41925W        W14350  10.830  15.721  14.428
41926W        W14351  19.761  16.260   4.156
41927W        W14352   8.163  24.632   3.674
41928W        W14353  19.159  29.947   1.313
41929W        W14354   5.373  15.303   1.733
41930W        W14355  15.135   4.264  12.982
41931W        W14356  24.620  15.675  13.410
41932W        W14357  28.517  24.543  12.435
41933W        W14358  30.489  28.540  12.466
41934W        W14359  39.387  12.689  13.444
41935W        W14360   1.450  11.781  11.865
41936W        W14361  36.365  19.075  13.438
41937W        W14362  22.503  11.827  14.476
41938W        W14363  42.803  10.219  14.338
41939W        W14364  28.170  44.995   2.254
41940W        W14365  41.500  39.537  12.841
41941W        W14366  17.654  24.156   0.320
41942W        W14367  42.425   9.282   4.201
41943W        W14368  42.836  20.086   1.222
41944W        W14369  34.488  38.424  14.869
41945W        W14370  22.605  30.482  10.506
41946W        W14371  32.636   1.239   4.238
41947W        W14372  22.629  36.031  14.445
41948W        W14373  34.430  18.586   4.691
41949W        W14374  14.702   9.865   4.147
41950W        W14375  26.066  27.684  12.391
41951W        W14376  21.592  33.549  12.547
41952W        W14377  38.846  16.795   1.787
41953W        W14378  17.799  37.993   0.944
41954W        W14379  32.963  11.681   2.272
41955W        W14380  25.987   5.258   2.408
41956W        W14381  35.075  37.892   4.796
41957W        W14382  40.972  44.487   4.129
41958W        W14383  31.071   3.383   5.265
41959W        W14384  13.769  24.600   9.508
41960W        W14385   7.385  44.774  12.557
41961W        W14386  44.875  17.721  11.894
41962W        W14387  18.571  18.627  12.489
41963W        W14388  26.697  36.995  10.985
41964W        W14389  39.358  17.740   2.233
41965W        W14390  28.930  25.713   1.349
41966W        W14391  40.378  19.552   0.252
41967W        W14392  37.458  32.495  13.318
41968W        W14393  18.200  34.115   2.309
41969W        W14394  17.092  22.608  11.015
41970W        W14395   5.330  26.518  12.089
41971W        W14396   8.309   5.875  10.049
41972W        W14397  29.622   4.757  10.490
41973W        W14398   7.824  30.635   0.826
41974W        W14399  44.329   6.241   1.216
41975W        W14400  26.107  15.103   4.182
41976W        W14401   2.243  14.252   0.926
41977W        W14402  10.308  20.548  11.075
41978W        W14403  43.852  18.639  10.559
41979W        W14404  24.214  44.481  14.838
41980W        W14405  38.919  28.152   2.375
41981W        W14406   2.227  38.030  11.016
41982W        W14407  33.446  17.612   2.351
41983W        W14408  36.042   1.482   3.381
41984W        W14409  17.252  40.992  12.580
41985W        W14410  27.187  17.790   4.787
41986W        W14411  33.051  19.164  11.885
41987W        W14412  16.131  37.021   1.257
41988W        W14413  34.612  24.147   2.671
41989W        W14414  40.963  15.200   2.769
41990W        W14415  43.431  13.785   2.284
41991W        W14416  17.161  44.472   3.660
41992W        W14417  28.092  42.318   4.816
41993W        W14418  14.634   9.663  12.390
41994W        W14419  12.826  41.801  11.906
41995W        W14420  32.016  27.078   4.698
41996W        W14421  23.684  18.693  13.050
41997W        W14422  42.918  29.543  10.624
41998W        W14423  15.664  26.183  13.452
41999W        W14424   5.723  39.439  12.014
42000W        W14425  37.003   3.460   4.283
42001W        W14426  17.175  25.583  10.933
42002W        W14427  43.514  19.148   2.261
42003W        W14428   4.845  34.949   4.809
42004W        W14429  23.523  15.759   3.368
42005W        W14430  32.562  12.144   4.347
42006W        W14431  25.579  21.526   1.850
42007W        W14432  33.081  28.145   2.326
42008W        W14433   6.343  32.036  14.791
42009W        W14434  26.984   7.335  14.842
42010W        W14435   8.860  24.009   4.598
42011W        W14436   2.465   2.273   1.822
42012W        W14437  14.662  13.158  11.024
42013W        W14438  15.270  27.544  14.324
42014W        W14439  38.001  42.031   2.797
42015W        W14440   9.271  28.026   9.996
42016W        W14441  15.173  20.611   3.259
42017W        W14442   4.292  25.487   1.903
42018W        W14443  29.664  10.215   2.899
42019W        W14444  29.951  26.557  11.558
42020W        W14445  42.914  38.925  12.033
42021W        W14446  31.068   4.931   3.257
42022W        W14447  17.089  27.150  10.480
42023W        W14448  22.633  44.398  10.434
42024W        W14449   3.851  40.458   1.719
42025W        W14450  22.157  31.974   1.240
42026W        W14451  15.644  40.412   4.296
42027W        W14452  10.307  23.050   3.189
42028W        W14453  14.240  19.078   3.246
42029W        W14454  18.229  15.194  11.999
42030W        W14455   9.264  30.527  14.992
42031W        W14456   4.257   8.252  13.028
42032W        W14457   6.794   0.914  12.886
42033W        W14458  33.565  41.336  10.923
42034W        W14459  39.444  44.902  11.972
42035W        W14460  38.031  18.685  14.420
42036W        W14461  40.884  34.872   1.265
42037W        W14462  27.595  31.451   1.867
42038W        W14463  44.790  41.020  14.399
42039W        W14464  29.563  42.396  13.535
42040W        W14465   6.843   0.324   1.831
42041W        W14466  34.556  21.181   3.315
42042W        W14467  10.669  26.055   1.343
42043W        W14468  15.196  37.851   4.281
42044W        W14469  36.002  14.807  14.399
42045W        W14470  18.698  38.363   4.775
42046W        W14471   4.757  22.560   0.747
42047W        W14472  42.808  35.596  14.775
42048W        W14473  35.860  36.409   1.774
42049W        W14474   1.778  20.181   1.213
42050W        W14475  18.214  17.187  12.342
42051W        W14476  43.436  24.590   1.359
42052W        W14477  43.828  29.094   0.920
42053W        W14478  14.642  16.752  14.950
42054W        W14479  28.450  42.327   4.260
42055W        W14480  39.406   6.783  12.006
42056W        W14481  23.202  19.668   4.674
42057W        W14482  15.160  39.908   4.637
42058W        W14483  10.178  34.560  11.471
42059W        W14484  11.236  15.107   4.135
42060W        W14485  22.243   2.734   0.314
42061W        W14486   1.344  10.817  12.576
42062W        W14487  15.158  43.812  10.643
42063W        W14488  26.641  23.617  10.538
42064W        W14489  15.312  22.096   5.759
42065W        W14490  40.999  33.879   2.415
42066W        W14491  29.024  35.380   4.604
42067W        W14492  21.698  27.621  11.073
42068W        W14493  28.639  14.157   1.427
42069W        W14494  13.764  32.610   1.337
42070W        W14495  23.711   1.794  11.501
42071W        W14496  10.177  28.604  10.621
42072W        W14497   2.877  32.911   0.363
42073W        W14498   5.374  27.624  13.929
42074W        W14499  10.306  37.968   0.865
42075W        W14500   6.776  14.129   3.183
42076W        W14501  42.011   0.810   0.438
42077W        W14502  30.161  27.135   2.686
42078W        W14503  22.544  40.907   4.809
42079W        W14504  34.476   1.957   3.244
42080W        W14505   2.377  25.178  10.894
42081W        W14506  40.003  20.265  13.986
42082W        W14507   8.316  13.785   2.690
42083W        W14508  43.817  25.609  13.437
42084W        W14509  13.667  37.997   1.409
42085W        W14510  12.714   0.438  12.043
42086W        W14511  20.252   4.702   9.947
42087W        W14512   5.267  23.669   0.960
42088W        W14513   7.321  28.982  12.428
42089W        W14514  19.671   9.687   4.270
42090W        W14515  13.206  24.162  14.483
42091W        W14516  32.543   0.913   2.873
42092W        W14517   3.903  15.603   0.349
42093W        W14518  42.348  18.757  12.015
42094W        W14519  34.549  18.154  12.014
42095W        W14520  40.813  21.110  11.565
42096W        W14521   9.757   3.816   2.233
42097W        W14522  30.508  26.971   2.823
42098W        W14523  37.509  23.202  14.366
42099W        W14524  44.318  28.941   4.798
42100W        W14525  20.107  23.205  14.507
42101W        W14526  44.482  16.164  10.473
42102W        W14527  11.298  14.171   5.120
42103W        W14528  29.544  36.055  12.042
42104W        W14529  25.080   2.964   4.306
42105W        W14530   0.406  16.100   3.194
42106W        W14531  13.675  19.649   2.189
42107W        W14532  23.560  18.290   3.334
42108W        W14533  33.610  22.705   1.820
42109W        W14534  20.738  37.922   4.340
42110W        W14535   7.370   5.699  13.503
42111W        W14536  28.545  24.685  13.795
42112W        W14537  20.103   6.322  14.308
42113W        W14538  22.017  17.584  14.983
42114W        W14539  35.890  42.801   0.940
42115W        W14540  10.385  29.464   2.705
42116W        W14541  36.387  24.102   2.381
42117W        W14542  15.607  37.084  14.869
42118W        W14543  38.377   3.900  13.823
42119W        W14544   5.827  31.424  12.990
42120W        W14545  15.098  19.067   1.431
42121W        W14546   4.872  40.549   0.412
42122W        W14547  20.567  40.542  13.484
42123W        W14548  22.101  10.160   2.874
42124W        W14549   3.780  24.504   1.442
42125W        W14550  36.416  37.492  11.038
42126W        W14551  44.823  24.227   0.248
42127W        W14552  29.626  40.304  10.637
42128W        W14553  23.577   5.281  12.529
42129W        W14554  29.000   5.734   0.925
42130W        W14555  27.582  14.666   0.798
42131W        W14556  12.362  19.733  10.622
42132W        W14557  30.522  41.498  12.020
42133W        W14558  40.393  32.623  14.366
42134W        W14559   8.821  32.995   0.934
42135W        W14560  39.438   9.214  14.356
42136W        W14561  44.388  42.303  11.547
42137W        W14562  26.590  36.081  10.550
42138W        W14563   5.811  27.031  11.567
42139W        W14564  11.226  27.944  13.530
42140W        W14565  29.582  32.082   0.329
42141W        W14566  18.589  12.801  12.051
42142W        W14567  30.423   5.707   3.316
42143W        W14568  26.490  29.933  14.358
42144W        W14569   3.273  37.512  10.582
42145W        W14570   5.906  26.658  12.434
42146W        W14571   4.238  31.021  12.561
42147W        W14572  19.236  15.290  10.988
42148W        W14573  20.694  27.954  10.923
42149W        W14574   2.381  28.965   0.768
42150W        W14575  31.621  27.988   0.389
42151W        W14576  28.099   6.264  14.801
42152W        W14577  25.090  29.445  11.951
42153W        W14578  12.724  30.535   4.838
42154W        W14579   7.666  32.044   1.338
42155W        W14580  28.504  38.480  10.598
42156W        W14581  30.025   6.268  13.822
42157W        W14582  29.624  29.615   4.224
42158W        W14583  19.156  24.139   4.655
42159W        W14584  14.129  21.065   1.726
42160W        W14585  43.826   3.291  13.420
42161W        W14586  41.401  31.608   0.419
42162W        W14587  18.243  25.601  11.031
42163W        W14588   3.786  12.170   3.767
42164W        W14589  29.515  35.528  14.508
42165W        W14590  41.918  26.041   2.751
42166W        W14591  25.488   5.776  11.374
42167W        W14592  28.471  10.241  13.009
42168W        W14593  40.393  38.970   1.306
42169W        W14594  31.915  20.641  10.482
42170W        W14595   1.424  13.674  12.916
42171W        W14596  39.374   8.842  12.405
42172W        W14597  27.446  32.025  13.497
42173W        W14598  30.928  42.319  13.393
42174W        W14599  11.371   4.854  12.533
42175W        W14600   0.819  36.446   3.653
42176W        W14601  24.172  41.999   4.290
42177W        W14602  17.619  38.023   2.196
42178W        W14603  12.228  15.655   0.406
42179W        W14604  18.626  24.616  14.009
42180W        W14605  26.480  32.471  12.084
42181W        W14606  30.596  11.704  11.011
42182W        W14607  12.347   0.936   4.729
42183W        W14608   6.293  36.533  11.877
42184W        W14609  42.358  27.669  12.555
42185W        W14610   4.405  31.050  11.492
42186W        W14611  41.391  39.826  11.540
42187W        W14612  10.653   5.813   2.753
42188W        W14613  15.737  11.831  14.413
42189W        W14614  33.941  14.745   4.223
42190W        W14615  21.025   8.203   4.280
42191W        W14616  16.187  13.172  12.551
42192W        W14617  38.363  26.613  13.484
42193W        W14618  15.181  35.853  12.433
42194W        W14619   9.226   7.409  10.059
42195W        W14620  36.408   1.355  13.955
42196W        W14621  23.039   8.274   4.699
42197W        W14622  17.200  38.372  14.476
42198W        W14623  39.913  27.068  13.544
42199W        W14624  21.574  25.665  12.447
42200W        W14625  39.555   8.838   5.248
42201W        W14626  16.166  18.787  14.354
42202W        W14627  27.679  41.463   1.922
42203W        W14628  42.825  43.378   3.812
42204W        W14629   8.785  41.968   4.352
42205W        W14630  33.515  14.218   1.424
42206W        W14631  44.835  31.410   1.771
42207W        W14632  24.197  23.506   2.767
42208W        W14633   3.711  11.626  14.002
42209W        W14634  30.983  25.964   3.378
42210W        W14635  31.585   0.387   0.930
42211W        W14636  27.087  41.377   1.303
42212W        W14637   5.355  33.550  12.890
42213W        W14638  41.346  12.689  10.551
42214W        W14639  30.627  33.895  11.942
42215W        W14640   2.949  30.070   2.345
42216W        W14641  23.998  32.899   1.812
42217W        W14642  31.454  41.934   0.916
42218W        W14643   4.870  34.454   5.228
42219W        W14644   7.359  41.787  11.047
42220W        W14645   0.374  22.505   1.327
42221W        W14646  10.674  14.318  10.968
42222W        W14647  19.261   2.421  12.910
42223W        W14648   4.435  10.327  14.796
42224W        W14649  29.054  26.556  13.826
42225W        W14650   0.875  15.170   4.660
42226W        W14651  28.578   9.390  12.364
42227W        W14652   0.293  23.646   4.633
42228W        W14653  36.994  30.151   0.769
42229W        W14654  23.135   2.289   1.359
42230W        W14655  21.257  43.503   3.848
42231W        W14656  36.577   8.360   3.791
42232W        W14657  17.259  35.089   3.213
42233W        W14658  25.189   4.228   3.636
42234W        W14659   0.464   1.827  10.419
42235W        W14660   4.882  17.780  14.810
42236W        W14661  38.067  39.840   2.342
42237W        W14662   7.671  10.856   4.740
42238W        W14663  17.134  15.650  10.581
42239W        W14664  19.536   6.763   4.180
42240W        W14665  32.486  12.201   1.907
42241W        W14666   4.205  41.903   2.258
42242W        W14667  11.856  13.794   4.828
42243W        W14668  17.261  29.105   2.891
42244W        W14669   3.298  41.308  14.868
42245W        W14670  28.649  34.533  13.499
42246W        W14671  17.292  44.817   0.855
42247W        W14672  12.776  30.099   1.301
42248W        W14673  37.060  44.799   0.882
42249W        W14674  38.531  26.669  14.349
42250W        W14675   7.382   7.388   5.247
42251W        W14676  40.507  20.258   4.806
42252W        W14677   8.209  40.483  10.585
42253W        W14678  11.145  38.480   3.710
42254W        W14679  13.702  42.327   4.693
42255W        W14680   8.394  42.916   3.784
42256W        W14681   2.855   0.299  12.070
42257W        W14682  15.689   2.892   1.704
42258W        W14683  28.090  36.567   0.901
42259W        W14684  34.541  30.962  14.431
42260W        W14685  33.073  29.928   2.396
42261W        W14686  19.172  31.924   3.352
42262W        W14687   9.379  25.601  11.119
42263W        W14688   0.480   1.428   3.685
42264W        W14689  11.765  12.703   1.704
42265W        W14690  38.033  21.744   1.929
42266W        W14691  32.026   8.313   3.725
42267W        W14692  38.354  20.036   4.259
42268W        W14693  22.234  29.460  13.888
42269W        W14694  43.898  37.911  13.424
42270W        W14695   0.461  34.430   2.369
42271W        W14696  37.911   2.857   2.210
42272W        W14697  28.548  15.816   0.762
42273W        W14698  35.868  31.042  10.902
42274W        W14699  20.054  40.419   4.338
42275W        W14700  14.270  12.310  12.475
42276W        W14701   3.770  19.253   0.300
42277W        W14702  32.571  30.043  14.314
42278W        W14703  11.197  42.915   4.195
42279W        W14704   5.210  13.817   4.653
42280W        W14705  32.119  37.548   2.687
42281W        W14706   1.352  12.753  11.443
42282W        W14707  12.183  13.146  14.445
42283W        W14708  19.254   9.344   3.197
42284W        W14709  42.438  28.177  14.997
42285W        W14710  27.995   6.756   3.698
42286W        W14711  22.708  37.493   4.721
42287W        W14712  42.984  26.080   2.387
42288W        W14713  44.856  28.121  13.893
42289W        W14714  41.324  23.038  11.379
42290W        W14715   1.370   4.265  11.993
42291W        W14716  29.004  30.928   3.166
42292W        W14717  36.920  20.566  11.011
42293W        W14718  44.265  41.992  13.932
42294W        W14719   4.811  40.026  12.548
42295W        W14720  22.610  17.756  11.047
42296W        W14721  10.838  13.304  13.910
42297W        W14722  27.561  13.815   1.431
42298W        W14723  33.913   0.450  14.026
42299W        W14724  42.786  11.348  10.897
42300W        W14725  16.685  15.792   2.364
42301W        W14726  40.474  23.690  12.882
42302W        W14727  19.760  40.958  12.038
42303W        W14728   5.700  30.013   1.812
42304W        W14729  34.499  27.607  12.390
42305W        W14730  13.812   6.910   2.846
42306W        W14731   8.298  15.286   2.784
42307W        W14732  34.998  15.657   0.810
42308W        W14733  27.014   0.460   2.690
42309W        W14734  33.956   0.828  11.591
42310W        W14735  39.944  12.709   3.346
42311W        W14736   3.251  33.928  14.386
42312W        W14737  13.599  19.608  14.884
42313W        W14738  42.004  41.395   3.763
42314W        W14739  42.493  24.487  14.424
42315W        W14740  41.952  25.567   3.783
42316W        W14741  43.972  26.061  11.972
42317W        W14742  44.331  25.535  11.381
42318W        W14743   2.940  30.639   4.829
42319W        W14744  33.006  35.021  14.802
42320W        W14745  39.024  40.015  14.297
42321W        W14746  34.868  28.599   3.748
42322W        W14747  11.638  25.552  12.843
42323W        W14748   9.250  35.600  10.142
42324W        W14749  19.561   1.371   1.784
42325W        W14750   3.314  15.195  11.412
42326W        W14751  30.577  13.669   2.359
42327W        W14752  44.763  42.819  13.013
42328W        W14753  20.221  15.653  11.088
42329W        W14754  21.591  27.063   3.800
42330W        W14755  25.177  24.618   2.294
42331W        W14756  16.286   4.243  13.830
42332W        W14757  16.766  16.128   2.371
42333W        W14758   5.376  26.058   1.297
42334W        W14759   9.326   7.363   2.218
42335W        W14760  25.524  35.871  12.861
42336W        W14761  16.200  10.235  12.871
42337W        W14762  37.369  29.610  11.381
42338W        W14763   9.395  22.148  10.522
42339W        W14764  16.264  16.250   0.483
42340W        W14765  24.147  20.118   3.815
42341W        W14766  13.720   9.193  12.404
42342W        W14767  13.197  37.046   1.359
42343W        W14768  21.749   2.362  13.483
42344W        W14769  26.198   6.875   1.212
42345W        W14770  26.982  39.829  11.063
42346W        W14771  36.042   0.352   1.280
42347W        W14772   3.861  27.182   3.750
42348W        W14773  15.662   2.919   1.242
42349W        W14774   7.702  18.283  13.799
42350W        W14775  29.463  23.720   0.866
42351W        W14776  21.101  43.935   0.412
42352W        W14777   8.383  42.315  10.957
42353W        W14778   7.861  22.688   2.361
42354W        W14779  14.767   6.686  10.914
42355W        W14780  15.266   5.752   3.801
42356W        W14781  35.380  39.847  11.612
42357W        W14782  32.445  41.524   1.908
42358W        W14783  21.668   2.873  14.798
42359W        W14784  16.300  12.643  12.395
42360W        W14785  37.444  11.362  12.938
42361W        W14786  32.920  31.082   3.870
42362W        W14787  39.318  44.449   0.788
42363W        W14788  37.889  36.461   0.949
42364W        W14789  14.226  37.017  12.475
42365W        W14790  31.150   4.747  11.518
42366W        W14791  36.527  23.166  10.525
42367W        W14792  35.363  17.178  10.549
42368W        W14793  39.480  32.516  11.601
42369W        W14794  19.555  42.308   2.315
42370W        W14795  12.634  10.674   0.831
42371W        W14796  23.621  35.036  12.068
42372W        W14797  39.526  13.766   3.846
42373W        W14798  37.856  22.251   1.894
42374W        W14799   4.838  33.967  10.406
42375W        W14800   9.178  38.549   4.145
42376W        W14801  36.928  33.957   1.822
42377W        W14802   1.873  27.471   4.149
42378W        W14803  27.086  19.540   1.292
42379W        W14804  35.358  28.571  13.532
42380W        W14805  14.765  35.397   2.784
42381W        W14806  18.237  22.645   1.889
42382W        W14807  15.749  37.975   2.818
42383W        W14808  43.474  30.608   3.702
42384W        W14809  18.723  33.087   2.733
42385W        W14810  11.750  23.541   2.182
42386W        W14811   6.737   1.387  12.018
42387W        W14812  28.953  33.108   1.350
42388W        W14813  18.553  14.603  13.535
42389W        W14814  22.689  37.562  13.923
42390W        W14815  32.518  11.246   1.747
42391W        W14816  11.712  12.159   2.302
42392W        W14817  18.265  35.478  10.933
42393W        W14818   5.252  30.616   2.297
42394W        W14819  23.636   1.265  12.074
42395W        W14820  26.632  25.620   1.744
42396W        W14821  37.013  15.153   3.199
42397W        W14822  42.779   6.915  13.513
42398W        W14823  36.481  38.935  14.358
42399W        W14824  22.232  37.027   2.669
42400W        W14825  25.706   1.937  14.416
42401W        W14826  36.425  41.375  12.887
42402W        W14827   6.699  38.509  14.840
42403W        W14828  22.669  43.808   4.685
42404W        W14829  31.034  13.797  13.317
42405W        W14830   6.284   0.295   4.254
42406W        W14831  18.297  34.965  12.840
42407W        W14832  22.703   0.264  13.823
42408W        W14833  44.370  34.477  10.544
42409W        W14834  35.907  15.704  11.889
42410W        W14835  40.808  25.673  13.979
42411W        W14836   3.913  14.191   5.114
42412W        W14837  33.036  31.002  11.112
42413W        W14838  41.532  32.952  10.946
42414W        W14839  37.552   1.482   0.805
42415W        W14840   4.436  39.406   0.819
42416W        W14841  21.520  40.888   0.359
42417W        W14842  21.050  31.502  11.569
42418W        W14843  12.317  24.595  10.036
42419W        W14844  40.409   1.846   4.123
42420W        W14845  16.727  31.569   1.258
42421W        W14846   7.675  27.684   1.415
42422W        W14847  43.939  17.289   1.820
42423W        W14848   8.220  31.452  12.568
42424W        W14849  26.134  27.559   0.396
42425W        W14850  25.675   6.210  14.436
42426W        W14851   9.327  18.673   4.746
42427W        W14852   2.358  35.482  13.063
42428W        W14853  23.122  25.103   3.683
42429W        W14854  40.038   8.770   2.688
42430W        W14855  36.566  12.817   4.815
42431W        W14856  39.849   9.715  13.333
42432W        W14857  18.560  33.953  11.525
42433W        W14858  34.884  44.852   2.355
42434W        W14859  17.591  31.087  11.407
42435W        W14860  25.123  13.610  11.372
42436W        W14861  36.932  39.437  13.478
42437W        W14862  27.654  16.235  10.915
42438W        W14863   3.740  37.063   1.747
42439W        W14864  28.618   0.916  11.913
42440W        W14865   5.761   1.752  11.865
42441W        W14866  41.436  44.830   5.789
42442W        W14867  40.037  11.782  12.024
42443W        W14868  27.654   0.313  14.510
42444W        W14869  28.648  23.089  11.948
42445W        W14870  34.609  36.943  12.075
42446W        W14871  40.397  19.177   4.704
42447W        W14872  13.165   6.908  13.420
42448W        W14873   0.937  22.515  11.100
42449W        W14874  18.074  33.622  11.105
42450W        W14875   0.411  14.696   0.829
42451W        W14876  43.856  31.919  12.984
42452W        W14877  31.918   2.249  10.931
42453W        W14878  13.656   4.383   1.447
42454W        W14879  19.657  42.970   2.280
42455W        W14880  16.781  30.021  12.534
42456W        W14881  14.725  33.525   1.823
42457W        W14882  30.983  38.934   4.741
42458W        W14883  21.730   4.306  13.846
42459W        W14884  35.939  19.704  14.917
42460W        W14885   6.744  17.736  13.916
42461W        W14886   7.808   6.901  13.316
42462W        W14887  32.912  10.283   2.799
42463W        W14888  39.021  43.447   4.310
42464W        W14889   3.892  17.621   1.359
42465W        W14890  30.655   6.234   3.214
42466W        W14891   0.306   4.884  14.425
42467W        W14892  36.587  39.841  14.436
42468W        W14893  30.165   4.761  10.931
42469W        W14894  33.548  32.931  12.396
42470W        W14895  11.275  11.172   4.181
42471W        W14896  17.594   1.295   4.114
42472W        W14897  33.593  23.008  11.554
42473W        W14898  23.044  22.679  13.537
42474W        W14899  10.200  16.223   1.215
42475W        W14900  22.172  37.438  12.930
42476W        W14901  11.371   7.287   0.765
42477W        W14902  23.608   0.467   1.708
42478W        W14903  18.627  17.160  11.522
42479W        W14904  39.063  42.461  10.000
42480W        W14905  19.265   1.870  10.508
42481W        W14906  35.603  17.219  12.047
42482W        W14907  12.621  37.841   3.760
42483W        W14908  11.838  20.585  11.610
42484W        W14909   1.431  12.662  12.564
42485W        W14910  28.002  24.637   1.882
42486W        W14911   3.899  28.978   2.679
42487W        W14912  16.160  32.464  13.925
42488W        W14913  11.774  14.709  13.898
42489W        W14914  24.197   6.848  13.511
42490W        W14915   5.734  26.051   1.825
42491W        W14916  26.464  34.450  14.480
42492W        W14917  29.162  31.994  14.981
42493W        W14918  43.466   2.332   4.342
42494W        W14919   6.885  39.952  10.999
42495W        W14920  13.295   8.319   3.262
42496W        W14921  27.050  41.883  12.540
42497W        W14922  35.037  31.031  10.544
42498W        W14923  14.621  23.639  11.864
42499W        W14924   4.259  35.462  12.569
42500W        W14925  27.470  14.177  14.982
42501W        W14926  35.083  35.081  13.972
42502W        W14927  13.602  10.282  14.482
42503W        W14928  25.105  43.425  14.860
42504W        W14929  41.044  40.370  14.440
42505W        W14930  17.285  32.545  13.863
42506W        W14931  28.069   7.835  14.451
42507W        W14932  12.775  28.095   0.904
42508W        W14933  43.772  32.909   3.866
42509W        W14934  32.397  39.011  11.095
42510W        W14935  31.102  10.180  10.982
42511W        W14936   3.343   7.777  14.849
42512W        W14937  19.665  41.519   3.334
42513W        W14938  22.597  15.249  14.491
42514W        W14939  16.086  44.402   0.862
42515W        W14940  11.677  12.692  14.347
42516W        W14941   0.808  21.207   3.855
42517W        W14942  19.602   5.741  14.837
42518W        W14943  22.500  44.309   4.801
42519W        W14944  33.023  16.079  11.416
42520W        W14945   8.287   7.361   4.729
42521W        W14946   2.271  15.707   3.198
42522W        W14947  17.584  13.335  12.352
42523W        W14948  43.466  35.423   0.363
42524W        W14949  36.562   5.855  14.862
42525W        W14950  14.746  20.088   4.782
42526W        W14951  40.910   2.354   2.208
42527W        W14952   6.722  25.079  12.458
42528W        W14953  19.681  31.146   5.252
42529W        W14954  14.181  30.054   2.180
42530W        W14955   6.270  26.991   3.849
42531W        W14956  12.160   5.296   0.276
42532W        W14957  13.680  32.583   1.710
42533W        W14958   3.455  40.322  11.408
42534W        W14959  15.180   2.371   2.687
42535W        W14960  14.813  18.265   2.285
42536W        W14961  42.910  43.802   0.737
42537W        W14962  43.953  29.970  11.955
42538W        W14963  40.384  24.553   4.150
42539W        W14964  15.691  14.641   0.429
42540W        W14965  43.781  38.994  11.599
42541W        W14966   2.236   7.824  10.634
42542W        W14967  38.458   7.208   4.790
42543W        W14968  22.018  31.592  13.953
42544W        W14969   9.862  28.071  12.875
42545W        W14970  28.157  37.959  14.935
42546W        W14971   1.402   1.802   1.269
42547W        W14972  41.395  11.744  12.989
42548W        W14973  26.496  11.675   2.274
42549W        W14974  39.841   8.700  11.878
42550W        W14975   7.338   0.480  13.507
42551W        W14976  38.571  25.150  14.311
42552W        W14977   3.451  23.113  10.895
42553W        W14978  44.306  14.338   1.911
42554W        W14979   9.214  29.966   4.605
42555W        W14980  27.146  18.611  14.005
42556W        W14981   6.279  31.926   0.933
42557W        W14982  32.556   8.810   1.817
42558W        W14983  29.614  13.143  11.078
42559W        W14984  28.053  40.926  12.864
42560W        W14985  17.609  20.586   2.296
42561W        W14986  38.557   9.800  14.307
42562W        W14987   6.824   1.880  12.078
42563W        W14988   5.703  31.908   4.749
42564W        W14989  32.080  19.561   0.457
42565W        W14990   5.892   5.432  10.623
42566W        W14991   8.170  43.003   1.702
42567W        W14992  39.403  28.447  14.376
42568W        W14993   1.864  26.013  11.546
42569W        W14994  19.580   9.251   1.220
42570W        W14995  39.512  38.071   4.139
42571W        W14996   5.857  27.087   0.864
42572W        W14997  25.218  33.968  10.984
42573W        W14998  41.821  23.514  10.472
42574W        W14999  11.638  31.525   3.646
42575W        W15000  25.514  12.653   5.148
42576W        W15001  14.790  14.151   2.820
42577W        W15002  34.014  34.017   3.365
42578W        W15003  25.216  20.253   0.912
42579W        W15004   6.691   7.908   0.776
42580W        W15005  44.393  40.430  12.903
42581W        W15006  33.586  40.023   0.374
42582W        W15007   9.182  25.178  10.027
42583W        W15008  12.769  28.082  12.834
42584W        W15009  33.597  18.150  14.813
42585W        W15010  33.978  26.659  14.947
42586W        W15011   4.746  43.418   2.691
42587W        W15012  20.165  41.467   0.307
42588W        W15013   1.295   3.235  13.480
42589W        W15014  23.073  33.077  11.459
42590W        W15015  21.554   9.823   4.776
42591W        W15016  31.403  28.608  10.915
42592W        W15017  39.873  14.235   2.287
42593W        W15018  38.954  28.596  12.985
42594W        W15019  13.601  42.318  14.495
42595W        W15020  35.465  42.430  14.020
42596W        W15021   0.777  29.175   1.424
42597W        W15022  44.876  16.716  10.618
42598W        W15023  28.019  34.374  10.441
42599W        W15024  13.272  24.161   9.942
42600W        W15025  39.439  31.518  12.962
42601W        W15026   5.439  10.245   0.301
42602W        W15027  25.493  31.952   2.705
42603W        W15028  13.347  22.515   1.710
42604W        W15029  43.312  13.199  10.546
42605W        W15030  24.687  39.911   1.242
42606W        W15031   2.848   9.887  14.959
42607W        W15032  41.531  14.719  11.557
42608W        W15033   6.890  14.793   4.250
42609W        W15034  43.875  30.004  13.862
42610W        W15035  18.169  23.117   0.850
42611W        W15036   1.476  30.612  13.446
42612W        W15037  23.605  33.100   4.642
42613W        W15038  24.129  44.829   0.323
42614W        W15039  16.191  44.933   2.840
42615W        W15040   3.233   3.856  14.001
42616W        W15041   1.900  14.787  13.958
42617W        W15042  40.319  31.415   2.197
42618W        W15043  23.650   1.852  12.399
42619W        W15044  12.837  24.152   3.252
42620W        W15045  30.972  38.908   1.270
42621W        W15046  33.876   1.393  10.936
42622W        W15047  33.019  34.509   2.680
42623W        W15048  40.851  39.030  14.404
42624W        W15049  28.635   7.758  10.602
42625W        W15050  38.533  34.899  13.948
42626W        W15051  38.432  36.376  10.997
42627W        W15052  41.300   9.236   3.229
42628W        W15053  32.065  27.081   4.264
42629W        W15054  44.791   9.309  12.036
42630W        W15055  16.273  28.135   0.854
42631W        W15056  13.815  29.646   1.800
42632W        W15057   1.890  16.682  10.508
42633W        W15058  13.757   0.769  14.916
42634W        W15059  29.017   9.391   4.117
42635W        W15060  25.545   4.436  14.334
42636W        W15061   9.885  31.994   1.432
42637W        W15062  22.123  29.468  13.398
42638W        W15063  40.338   5.833  14.974
42639W        W15064   6.350   2.321   1.913
42640W        W15065  11.358  30.996   1.281
42641W        W15066  27.624   8.843  11.914
42642W        W15067   7.846  35.083  10.497
42643W        W15068  29.608  21.563   2.747
42644W        W15069  10.859   6.361  11.004
42645W        W15070  23.510  44.453   3.787
42646W        W15071   9.683  34.951   3.854
42647W        W15072   3.274  16.080   3.251
42648W        W15073   6.908   2.919  14.466
42649W        W15074  23.657  24.584  14.388
42650W        W15075  15.196  37.855  10.978
42651W        W15076  19.780   4.710   2.320
42652W        W15077  35.968   8.892   4.191
42653W        W15078  18.627  30.146   3.716
42654W        W15079  41.787  34.110  13.396
42655W        W15080  23.015  35.928  12.921
42656W        W15081  34.438  25.575   1.338
42657W        W15082   4.809  12.258   3.652
42658W        W15083  22.583  34.423  11.491
42659W        W15084  43.514  19.131   1.804
42660W        W15085   5.762  41.967  13.017
42661W        W15086   4.718   3.309  11.004
42662W        W15087   3.329  36.864   4.145
42663W        W15088   5.890  39.378   1.414
42664W        W15089  27.456  26.671  12.547
42665W        W15090  36.413   5.383  11.542
42666W        W15091  33.515  29.505   3.802
42667W        W15092  17.110   7.308   4.217
42668W        W15093  34.467   5.764   3.808
42669W        W15094  41.803  13.739  10.428
42670W        W15095  10.151   0.473  12.556
42671W        W15096  16.582  36.935  11.091
42672W        W15097  22.553  18.143  12.079
42673W        W15098  41.987   9.221  13.445
42674W        W15099  43.400  24.081  11.533
42675W        W15100  39.898  23.686  14.859
42676W        W15101  44.801  42.413   2.856
42677W        W15102  18.602  23.588  11.971
42678W        W15103  28.530  42.412  12.446
42679W        W15104  41.434   9.210   2.403
42680W        W15105  32.003  29.535   4.345
42681W        W15106  13.183  31.591  14.812
42682W        W15107   8.162  21.156  11.538
42683W        W15108  44.976   0.351   1.879
42684W        W15109  17.723  16.669   3.314
42685W        W15110  16.805  20.043   4.651
42686W        W15111  38.938  18.191   3.161
42687W        W15112  32.952  29.107   2.193
42688W        W15113   2.816  26.057  11.920
42689W        W15114  41.997  24.208   4.348
42690W        W15115   4.419   8.682  12.485
42691W        W15116   8.344  16.202  14.774
42692W        W15117  31.051  18.093   1.355
42693W        W15118  26.112  20.679   0.334
42694W        W15119   7.256  41.447  11.430
42695W        W15120  25.142  31.592  11.612
42696W        W15121  37.373  20.074   3.284
42697W        W15122  14.206  29.957  13.539
42698W        W15123  38.337  40.039   1.899
42699W        W15124  42.517  37.577   4.796
42700W        W15125  23.504  22.106  13.880
42701W        W15126  21.655   6.900   2.741
42702W        W15127   6.806  28.494  14.790
42703W        W15128  18.699   7.819  11.038
42704W        W15129  43.296   1.734  14.398
42705W        W15130  12.785  24.227   1.437
42706W        W15131  44.381  26.666  12.487
42707W        W15132  19.661  34.093   3.778
42708W        W15133  28.478  15.185   2.216
42709W        W15134  16.629  12.631   4.336
42710W        W15135   8.663  42.467   1.873
42711W        W15136  22.731   3.232  12.497
42712W        W15137  14.239  26.603   0.426
42713W        W15138  14.133  14.677  14.373
42714W        W15139  14.767  16.119   2.399
42715W        W15140   3.273  28.499   4.726
42716W        W15141  18.214  37.848   3.150
42717W        W15142  32.985  20.751  11.574
42718W        W15143  11.324  14.272   2.413
42719W        W15144   3.801  33.045   4.258
42720W        W15145  10.644  35.467  14.002
42721W        W15146  38.985  18.761   4.781
42722W        W15147  38.858  19.572  10.893
42723W        W15148   8.214  23.195   4.605
42724W        W15149  31.638   4.295  12.835
42725W        W15150  22.670  44.876   3.299
42726W        W15151   8.354   1.944  12.942
42727W        W15152   0.822  10.869   3.644
42728W        W15153  35.539  23.132   2.383
42729W        W15154  26.980  33.093   3.734
42730W        W15155  16.268  29.143   4.187
42731W        W15156   8.329  34.489   4.258
42732W        W15157  25.028  25.586   3.763
42733W        W15158  12.194  40.812   4.327
42734W        W15159  23.101  17.210   0.379
42735W        W15160  18.172  31.613  13.999
42736W        W15161  34.113  14.589   4.654
42737W        W15162  43.806  18.595  13.806
42738W        W15163  13.770  43.322  12.469
42739W        W15164   0.812  33.483  12.404
42740W        W15165   9.682  27.163  10.895
42741W        W15166  44.491   4.316  12.909
42742W        W15167  38.525  28.522   1.799
42743W        W15168  42.906  31.926   1.328
42744W        W15169  40.334  35.877  14.447
42745W        W15170  32.414  19.081  14.855
42746W        W15171  42.423   9.810   2.813
42747W        W15172  39.043  16.259  13.944
42748W        W15173  22.246  36.865   3.758
42749W        W15174  19.614  17.125   4.303
42750W        W15175  42.791  41.919   2.234
42751W        W15176  38.025  21.694  12.430
42752W        W15177  40.504  24.494  11.076
42753W        W15178  43.790   0.834   4.232
42754W        W15179  39.329   8.226   2.263
42755W        W15180  42.909  27.545  10.984
42756W        W15181  22.583   1.303   2.265
42757W        W15182  14.612   5.703  14.302
42758W        W15183  14.663  12.182   2.382
42759W        W15184  23.073  18.205   4.164
42760W        W15185  42.527  37.338   0.932
42761W        W15186  27.104  41.458  14.999
42762W        W15187  13.241   0.332   1.785
42763W        W15188   1.455  13.639  14.283
42764W        W15189  41.352  13.615  11.469
42765W        W15190  11.730   2.409  13.895
42766W        W15191  15.294   4.270  14.283
42767W        W15192  28.187  43.831  13.945
42768W        W15193  36.082   5.419  14.994
42769W        W15194   4.828  40.491   5.322
42770W        W15195  13.293  44.764   0.297
42771W        W15196   2.778   4.209  11.969
42772W        W15197  38.005  44.478  14.905
42773W        W15198  29.517   8.738   1.368
42774W        W15199  41.418  34.404   0.935
42775W        W15200  11.162  20.154   1.772
42776W        W15201   3.736   4.727  14.331
42777W        W15202  15.245  14.308  13.428
42778W        W15203  31.003  35.887   4.303
42779W        W15204  36.932   4.857  11.390
42780W        W15205  25.060  23.992   1.917
42781W        W15206   5.215  37.380   2.283
42782W        W15207  43.383   0.905   1.445
42783W        W15208  27.480  17.748  10.918
42784W        W15209  23.161  36.014   3.856
42785W        W15210  42.341   1.738   3.742
42786W        W15211  29.549   6.810   1.830
42787W        W15212  26.635   6.266  14.345
42788W        W15213  25.005   0.974  10.502
42789W        W15214  38.441   3.230   1.217
42790W        W15215  27.532  24.593   4.318
42791W        W15216  29.984  10.656  10.567
42792W        W15217  24.675  28.975   0.837
42793W        W15218  32.894  38.976   4.265
42794W        W15219  12.147  34.368  14.945
42795W        W15220  40.049   4.833   2.900
42796W        W15221  28.675  39.460  11.542
42797W        W15222  42.877   5.335   1.342
42798W        W15223  36.511  36.565  11.116
42799W        W15224  28.591  13.259  13.315
42800W        W15225  11.841   0.962  12.440
42801W        W15226  33.999  15.307  11.562
42802W        W15227  31.421  14.337  11.873
42803W        W15228  19.259  40.515  13.369
42804W        W15229  32.077  25.200   4.183
42805W        W15230  25.641  37.082  12.039
42806W        W15231   8.733  38.377  13.447
42807W        W15232  42.339  23.490  14.444
42808W        W15233  41.787   6.269  11.415
42809W        W15234  16.305  33.435  13.975
42810W        W15235  16.695  41.019   3.816
42811W        W15236  28.515  44.842   4.246
42812W        W15237  21.744  29.443   1.364
42813W        W15238  28.009   7.355   1.786
42814W        W15239  10.808  27.546  11.550
42815W        W15240  22.599   7.736   0.929
42816W        W15241  14.617  28.170   4.276
42817W        W15242  13.626  28.936  14.966
42818W        W15243  29.487  36.092  12.375
42819W        W15244  13.204  34.042   4.204
42820W        W15245  36.991  43.968   0.361
42821W        W15246   5.260   9.289   4.286
42822W        W15247  35.571  28.160   4.646
42823W        W15248  29.922  13.192   4.181
42824W        W15249  24.119  13.195   4.143
42825W        W15250  32.081  22.660  13.523
42826W        W15251  36.974  20.600   3.149
42827W        W15252  16.642  44.968   0.417
42828W        W15253  15.276  30.432  13.390
42829W        W15254  23.153  23.996  10.992
42830W        W15255  23.510  36.587   1.707
42831W        W15256   4.875  34.457  11.976
42832W        W15257  39.012   8.276  11.532
42833W        W15258   0.916  24.525  12.548
42834W        W15259  33.998  15.256   0.893
42835W        W15260  35.925  43.876   0.769
42836W        W15261   1.971  22.509  13.926
42837W        W15262  29.978  37.546  11.567
42838W        W15263  34.568  22.223  13.831
42839W        W15264  37.897  13.299   1.790
42840W        W15265  11.226   5.198   1.442
42841W        W15266  22.195   1.271   2.206
42842W        W15267   8.732  28.976  12.886
42843W        W15268  43.765   0.897  11.394
42844W        W15269  29.646  25.152  11.022
42845W        W15270   3.288  38.443   0.453
42846W        W15271  27.956  39.979  13.907
42847W        W15272  39.377  42.947  11.117
42848W        W15273  19.603   2.860   4.678
42849W        W15274  21.672   0.895   0.385
42850W        W15275  31.588  33.879  14.784
42851W        W15276  37.556  43.946   3.147
42852W        W15277  25.212  17.225   0.310
42853W        W15278  12.197   5.929   1.252
42854W        W15279  30.929  29.655  13.546
42855W        W15280  26.159  15.580   4.785
42856W        W15281   7.280  28.578   0.302
42857W        W15282  19.159   6.373   2.811
42858W        W15283  30.453   7.712  12.958
42859W        W15284   1.480  31.927  11.124
42860W        W15285   2.378  17.588  12.861
42861W        W15286  27.481  44.818  10.527
42862W        W15287  16.691  30.578   1.801
42863W        W15288  14.642  34.997   3.282
42864W        W15289  43.854  43.490  12.357
42865W        W15290  41.422  28.131  12.049
42866W        W15291  41.987  37.983   0.395
42867W        W15292  32.988  42.829   3.745
42868W        W15293  24.024  41.995   1.277
42869W        W15294  28.957  44.779   1.289
42870W        W15295   2.959  41.294  11.538
42871W        W15296  43.835  28.582   4.649
42872W        W15297  36.865  32.395  13.860
42873W        W15298  36.095  40.538   4.719
42874W        W15299  30.470  25.009   2.329
42875W        W15300  30.463  25.967   0.767
42876W        W15301  32.103   4.747   1.824
42877W        W15302  40.490  30.044  11.482
42878W        W15303  27.571  14.643  12.452
42879W        W15304  34.929  34.008   1.255
42880W        W15305   0.450  21.691   0.792
42881W        W15306  38.404   0.766  11.941
42882W        W15307  39.474   2.404  12.566
42883W        W15308  27.529  24.136  14.032
42884W        W15309  25.631  31.032   4.781
42885W        W15310  12.345  39.942  14.021
42886W        W15311   0.877  39.479   4.328
42887W        W15312  39.459  17.802  14.505
42888W        W15313  15.806  21.250  12.837
42889W        W15314  30.998   6.707   4.189
42890W        W15315  20.087   9.155  11.968
42891W        W15316   3.448  38.016  14.863
42892W        W15317  31.562   1.745  11.470
42893W        W15318  39.844   3.713   3.334
42894W        W15319  16.648  35.030   2.706
42895W        W15320  30.548  27.633   2.237
42896W        W15321  29.525   8.870  14.422
42897W        W15322  27.552   7.771   2.883
42898W        W15323  18.553  44.489   3.758
42899W        W15324   2.722  33.939   2.247
42900W        W15325  20.662  33.440   2.228
42901W        W15326  42.819  15.763  11.013
42902W        W15327  13.312   2.229   0.880
42903W        W15328  16.208  40.332  14.384
42904W        W15329  36.362  15.633   4.174
42905W        W15330   7.182   5.816  11.062
42906W        W15331  40.486  22.067  14.344
42907W        W15332  14.195   3.778   1.379
42908W        W15333  24.678  18.197   2.815
42909W        W15334   9.727  40.886   3.295
42910W        W15335  23.157  22.227   0.414
42911W        W15336   3.335  33.975   4.274
42912W        W15337  37.055  43.813  10.912
42913W        W15338  43.945   3.442  11.435
42914W        W15339   5.317  32.930   2.322
42915W        W15340   8.318  22.150  10.463
42916W        W15341  22.581  21.571   2.321
42917W        W15342  29.553   9.271   1.357
42918W        W15343  23.727  11.200   4.746
42919W        W15344   8.250  35.358   4.671
42920W        W15345   9.184  34.397  12.914
42921W        W15346  40.519   6.396   5.156
42922W        W15347   2.338  42.793   9.993
42923W        W15348   5.272  18.679  13.979
42924W        W15349   7.349  40.345   2.354
42925W        W15350   4.773  20.562   0.926
42926W        W15351  34.465  41.961  11.119
42927W        W15352  38.938  26.031  14.414
42928W        W15353  23.054   2.452  13.902
42929W        W15354  36.461   8.687  12.375
42930W        W15355  40.893  29.996   2.349
42931W        W15356   3.242  10.157   3.381
42932W        W15357  17.121  12.788   2.864
42933W        W15358  41.316   9.299   4.736
42934W        W15359   8.735  37.029  14.803
42935W        W15360   2.822  13.345   1.216
42936W        W15361   2.797  24.991  12.048
42937W        W15362  43.271  13.611   3.763
42938W        W15363  30.948   4.275   2.198
42939W        W15364  25.632  32.926   4.606
42940W        W15365  21.753  27.624  11.520
42941W        W15366  19.570  31.968  10.101
42942W        W15367  24.543  14.765   4.114
42943W        W15368  33.446  23.666  13.032
42944W        W15369   4.929   4.769  13.493
42945W        W15370  33.085  20.146   3.669
42946W        W15371  29.013   4.851  11.995
42947W        W15372  12.146   5.299   1.311
42948W        W15373  36.510  17.771   2.716
42949W        W15374  39.888  14.591   4.826
42950W        W15375  33.108  41.930   0.898
42951W        W15376  15.310  13.216   2.834
42952W        W15377  18.555  24.661   2.786
42953W        W15378  41.993  10.771   0.860
42954W        W15379  37.892   3.920   1.371
42955W        W15380   5.401  26.633   1.338
42956W        W15381  35.511  36.526   2.294
42957W        W15382  10.232  36.510   2.695
42958W        W15383  30.627  10.245   1.400
42959W        W15384  21.677  31.524   4.331
42960W        W15385  35.856  20.240  12.832
42961W        W15386  24.514  32.047  13.031
42962W        W15387  38.923   0.402  12.983
42963W        W15388  30.007  29.617  11.887
42964W        W15389  15.188  43.372  13.338
42965W        W15390   3.803   0.423  11.587
42966W        W15391  33.061  13.682   3.188
42967W        W15392  16.192  43.473  13.413
42968W        W15393  36.358   9.382   2.253
42969W        W15394  18.101   4.945   4.691
42970W        W15395  32.929   0.800  12.832
42971W        W15396  32.500  10.781  11.909
42972W        W15397  31.056  44.872  13.400
42973W        W15398   8.719   4.725  12.573
42974W        W15399  29.581  30.042   1.714
42975W        W15400   8.227  27.692  12.974
42976W        W15401   5.323  35.494  11.880
42977W        W15402  43.898  39.021   2.755
42978W        W15403   6.363  35.939  11.919
42979W        W15404  32.505  31.906   0.854
42980W        W15405   2.407  23.528  11.377
42981W        W15406  41.528  32.568   4.142
42982W        W15407  42.954  25.985  14.878
42983W        W15408  36.970  24.624  11.946
42984W        W15409  20.595  26.068  12.007
42985W        W15410  31.640  23.583  13.831
42986W        W15411  12.142  15.682  12.887
42987W        W15412  38.879  38.443  11.480
42988W        W15413   8.283   7.192  12.008
42989W        W15414  43.765  27.543   4.716
42990W        W15415  23.581   9.176  13.949
42991W        W15416  34.614  10.374  13.919
42992W        W15417  43.310   6.337  10.475
42993W        W15418  34.498  34.945  12.909
42994W        W15419  11.366  43.490  13.876
42995W        W15420  10.806  42.915   1.763
42996W        W15421   9.153  40.549  11.068
42997W        W15422   3.269  33.041  12.537
42998W        W15423  26.600   2.326  13.947
42999W        W15424  22.025  18.736  13.973
43000W        W15425   3.431  15.305  12.508
43001W        W15426  21.651  15.279   4.324
43002W        W15427  26.621   4.369  13.460
43003W        W15428  11.855   5.909   3.283
43004W        W15429  33.120   1.458  11.911
43005W        W15430  18.648  41.532  13.388
43006W        W15431  21.722  10.868   0.862
43007W        W15432  32.392   4.228  13.022
43008W        W15433  25.219  29.086  13.445
43009W        W15434   5.229  44.383   0.401
43010W        W15435  44.269  44.370   4.163
43011W        W15436  30.597  42.434   1.904
43012W        W15437  12.785  39.412  13.944
43013W        W15438  13.794   6.746   3.240
43014W        W15439  32.073  42.868  12.974
43015W        W15440  14.784   6.832  12.579
43016W        W15441  38.525  13.633  14.025
43017W        W15442  28.033  33.600   1.706
43018W        W15443  28.071  42.935   5.312
43019W        W15444   6.340  40.490  11.047
43020W        W15445  18.674  27.958   2.893
43021W        W15446  12.710  25.535  10.947
43022W        W15447  31.506   2.891   0.480
43023W        W15448  19.259   6.320  12.845
43024W        W15449   6.400  10.846   4.155
43025W        W15450  10.856   4.264  12.894
43026W        W15451  32.138  16.596   1.218
43027W        W15452  32.106  16.773  10.072
43028W        W15453  16.593  27.508  13.896
43029W        W15454  15.232  17.795   3.171
43030W        W15455  41.326  29.467   2.664
43031W        W15456  42.883  14.180  13.516
43032W        W15457  36.977  18.575  12.038
43033W        W15458  12.852  17.598  14.944
43034W        W15459  28.070  35.852  11.478
43035W        W15460  11.751  32.566   0.915
43036W        W15461  37.989  16.238  14.293
43037W        W15462  24.179  32.074   3.720
43038W        W15463   4.928   6.412  14.452
43039W        W15464   1.965  26.496   3.230
43040W        W15465   7.889  36.446   4.649
43041W        W15466  17.244  43.483  12.916
43042W        W15467  31.967  34.081   2.411
43043W        W15468  30.145  40.838  11.871
43044W        W15469  27.031   3.456  11.462
43045W        W15470  19.575  25.627   3.291
43046W        W15471  41.504  30.514   2.199
43047W        W15472  34.539  22.517  13.855
43048W        W15473  25.179   5.774  11.934
43049W        W15474  37.524  11.142  11.080
43050W        W15475  33.560  40.974  14.432
43051W        W15476  18.644  33.034  14.477
43052W        W15477   6.777  29.160   0.271
43053W        W15478  22.102  30.005  11.869
43054W        W15479  21.155   5.871  13.055
43055W        W15480  42.929  28.629  13.489
43056W        W15481  21.176   9.339   1.389
43057W        W15482  25.199   6.320   2.251
43058W        W15483  28.005  36.563   2.869
43059W        W15484  21.099   4.812   2.343
43060W        W15485  37.534   3.835   5.187
43061W        W15486  14.774  28.933  10.523
43062W        W15487  22.515  30.908   3.833
43063W        W15488  25.594  33.511  14.928
43064W        W15489  38.415   4.333  13.415
43065W        W15490  39.502  17.185   1.215
43066W        W15491   9.852   6.711  13.950
43067W        W15492  11.280  26.635   2.786
43068W        W15493  19.750  37.389   1.440
43069W        W15494  16.772   4.274   4.339
43070W        W15495   6.279  29.630   2.260
43071W        W15496  17.277  40.924   2.272
43072W        W15497  31.115   2.338  14.005
43073W        W15498  16.201  17.776  14.509
43074W        W15499   7.236  28.042   3.222
43075W        W15500  29.041  38.430  12.501
43076W        W15501  40.901  31.982   1.363
43077W        W15502  34.121  28.933   4.695
43078W        W15503  16.229  26.667   0.859
43079W        W15504  40.318  13.146   3.703
43080W        W15505  33.882  36.943   0.898
43081W        W15506  39.372  19.283   0.731
43082W        W15507  37.379  21.255  11.915
43083W        W15508  16.751  43.943  11.552
43084W        W15509  31.081   3.811   0.370
43085W        W15510  12.771   6.283  12.952
43086W        W15511  11.651  37.876   2.677
43087W        W15512  32.978  38.950   0.292
43088W        W15513   3.873   9.850  13.979
43089W        W15514  36.390  44.355   3.762
43090W        W15515  14.191  25.128  12.854
43091W        W15516  10.673  42.422  11.017
43092W        W15517   7.254   1.453  14.791
43093W        W15518   9.713  10.303  14.485
43094W        W15519   7.870  24.085  11.584
43095W        W15520  37.487   0.476  14.850
43096W        W15521   0.751   4.820   0.373
43097W        W15522   0.946  12.660   2.382
43098W        W15523  24.976   2.338  12.386
43099W        W15524   8.679   1.967  11.451
43100W        W15525   7.708  38.334   0.430
43101W        W15526   6.299  22.744   3.654
43102W        W15527  13.629  13.776  13.402
43103W        W15528  38.405   3.833   4.781
43104W        W15529  31.017  33.914   0.341
43105W        W15530  40.460  32.470   3.870
43106W        W15531  36.952  44.878   3.308
43107W        W15532  43.816  15.177   1.451
43108W        W15533  42.995  44.499   5.181
43109W        W15534  11.654  16.233  11.113
43110W        W15535  25.477  16.244  10.579
43111W        W15536  40.475  11.745  11.605
43112W        W15537  40.498  13.604  10.599
43113W        W15538  27.523  35.887   4.827
43114W        W15539  27.535  23.186  13.048
43115W        W15540   2.819  27.141  10.634
43116W        W15541  16.687  33.097  11.895
43117W        W15542  25.056  41.037  10.453
43118W        W15543   2.908   6.208   2.416
43119W        W15544   2.754  38.478  12.562
43120W        W15545   0.340  39.397  11.453
43121W        W15546  12.259   3.829  14.856
43122W        W15547  32.590  19.230   5.638
43123W        W15548  37.986  39.881  12.949
43124W        W15549  33.597   6.842  11.536
43125W        W15550  24.663   0.381  12.872
43126W        W15551  17.259   6.814  12.095
43127W        W15552  24.136  43.789  13.972
43128W        W15553  12.324  35.047  13.334
43129W        W15554  33.069  42.514   3.687
43130W        W15555  21.667  12.205  12.006
43131W        W15556  14.607  31.948  14.955
43132W        W15557  37.465  35.367   3.801
43133W        W15558   2.262  14.283  11.102
43134W        W15559  35.551   0.352  11.940
43135W        W15560  23.221   9.774  11.440
43136W        W15561  32.624  28.565  12.510
43137W        W15562  39.396  28.976   0.471
43138W        W15563  35.999   6.796  11.471
43139W        W15564   5.348  42.422  11.387
43140W        W15565  28.441  30.081  12.370
43141W        W15566  40.834  28.938  14.369
43142W        W15567   0.779   5.915  14.461
43143W        W15568  21.562  18.198  10.507
43144W        W15569   7.218  14.797   4.323
43145W        W15570   8.178   7.782  11.884
43146W        W15571  19.554  14.757   0.437
43147W        W15572  12.229  23.167  14.446
43148W        W15573  28.532  17.713   1.822
43149W        W15574  43.924  16.164   1.704
43150W        W15575  10.841  12.619  11.459
43151W        W15576   5.916  33.549  12.838
43152W        W15577  23.990  37.446   3.385
43153W        W15578   0.430   6.903   1.915
43154W        W15579  37.903  35.394   2.858
43155W        W15580   7.319   5.423   4.602
43156W        W15581   2.448  14.659  12.949
43157W        W15582  17.729  24.558   0.945
43158W        W15583  39.868  42.824   9.926
43159W        W15584  10.167  34.977  13.032
43160W        W15585  10.220  43.495  13.061
43161W        W15586  16.157  12.659   3.199
43162W        W15587  32.568   8.298  11.436
43163W        W15588  17.714  30.914   2.826
43164W        W15589  16.640   6.378  11.379
43165W        W15590  13.688  19.648   0.800
43166W        W15591  11.344  42.281   1.414
43167W        W15592   6.889  26.583   5.107
43168W        W15593  33.546  23.183   4.771
43169W        W15594  20.763   2.938   1.422
43170W        W15595  44.870  18.572   1.215
43171W        W15596  24.613  11.724   1.710
43172W        W15597  44.326  36.963  10.973
43173W        W15598  26.120  37.853   1.829
43174W        W15599  13.667  37.529  14.286
43175W        W15600  33.500  28.972  13.386
43176W        W15601  16.239   3.728  12.539
43177W        W15602  33.526  35.447  10.540
43178W        W15603  21.174  29.609  10.926
43179W        W15604  42.514  30.073  14.002
43180W        W15605  18.627  43.455   4.693
43181W        W15606  15.329  18.154   0.859
43182W        W15607  10.816  33.533   0.324
43183W        W15608  17.146  10.684   2.349
43184W        W15609  19.196  21.166  10.590
43185W        W15610  37.505  39.988  12.392
43186W        W15611  26.024  40.811   2.676
43187W        W15612  34.439  41.536   2.732
43188W        W15613   8.807  38.907  12.977
43189W        W15614  42.288  37.389  10.629
43190W        W15615  20.663   5.277  10.888
43191W        W15616  29.560  28.164  12.530
43192W        W15617  26.549  35.588   2.377
43193W        W15618  31.605  23.001  10.425
43194W        W15619   0.345  12.742  11.476
43195W        W15620  18.070  27.676   0.923
43196W        W15621  21.202  26.517  13.357
43197W        W15622   0.777  22.172   0.892
43198W        W15623  25.583   3.449  10.967
43199W        W15624   9.149  17.092  14.921
43200W        W15625  31.474  42.023  12.067
43201W        W15626  43.384  22.526   2.379
43202W        W15627   8.293  15.282  13.818
43203W        W15628   2.786  39.994  12.967
43204W        W15629  19.714  31.148  13.439
43205W        W15630   3.761  14.763   4.715
43206W        W15631  22.180  15.280   1.730
43207W        W15632  19.198  24.048  13.845
43208W        W15633  25.150  20.062   2.357
43209W        W15634   0.390  26.545  11.431
43210W        W15635  20.047  21.225   3.654
43211W        W15636  25.631  10.245  10.614
43212W        W15637  35.030  40.423  11.579
43213W        W15638  17.280  14.273   0.362
43214W        W15639  41.865  43.802   3.168
43215W        W15640  35.593  34.903  14.437
43216W        W15641  43.870  38.885  12.374
43217W        W15642  21.180   3.828  10.511
43218W        W15643  36.914  18.292  14.369
43219W        W15644  26.607  27.483  14.509
43220W        W15645  22.525  28.006  13.401
43221W        W15646   8.184  32.438  10.557
43222W        W15647  22.191  30.159   2.792
43223W        W15648  21.200  12.848  12.019
43224W        W15649  43.270  23.213  12.384
43225W        W15650   2.418  33.411  12.077
43226W        W15651  26.202   7.865   0.838
43227W        W15652  23.647  37.479  11.545
43228W        W15653  41.475   7.232   2.287
43229W        W15654   4.228   1.415   1.286
43230W        W15655  42.281  28.470  14.827
43231W        W15656   3.926  36.047   3.687
43232W        W15657  23.082  21.189   0.420
43233W        W15658   3.429  39.485  12.037
43234W        W15659  41.842  34.098  12.564
43235W        W15660   3.783  17.640  14.439
43236W        W15661  27.512  22.667  11.529
43237W        W15662  26.625  12.275  12.890
43238W        W15663  32.516  16.808  12.388
43239W        W15664  26.640  40.387  12.831
43240W        W15665   8.321  20.103   0.294
43241W        W15666  40.340  40.388  14.992
43242W        W15667   0.743   3.940   1.722
43243W        W15668  26.491  25.099   1.237
43244W        W15669   8.215  11.246  12.359
43245W        W15670  40.002  44.914   4.268
43246W        W15671  22.606  20.626  13.494
43247W        W15672  28.581  13.250   4.335
43248W        W15673  22.589  21.539  13.842
43249W        W15674   1.890   7.871  14.997
43250W        W15675  30.608  12.359  13.404
43251W        W15676  19.244   6.734  13.351
43252W        W15677  43.831  14.709   3.774
43253W        W15678  39.514  41.031  13.043
43254W        W15679  16.722  23.029  14.342
43255W        W15680  28.497  15.733  11.901
43256W        W15681   9.165  30.528   0.807
43257W        W15682   6.284  22.669  12.362
43258W        W15683  39.061   5.778  10.947
43259W        W15684   2.322  24.499   2.807
43260W        W15685  36.019  35.426   1.438
43261W        W15686  44.925  21.633  12.050
43262W        W15687   8.742  38.040  14.921
43263W        W15688  13.647  33.443   3.162
43264W        W15689  43.289  28.507  12.087
43265W        W15690  23.007  16.096  14.329
43266W        W15691  21.097   3.259   0.880
43267W        W15692   0.885   9.330   0.373
43268W        W15693  27.683  43.997  12.457
43269W        W15694  17.284  30.015   9.923
43270W        W15695  43.476  34.907   0.921
43271W        W15696  32.405   1.257   0.448
43272W        W15697  19.718  10.751  10.544
43273W        W15698   9.888  22.147  14.016
43274W        W15699  43.390  33.512   1.265
43275W        W15700  29.056  12.351   3.761
43276W        W15701   6.765  16.755   1.342
43277W        W15702  23.554  30.459  12.956
43278W        W15703  21.049  25.088  10.080
43279W        W15704  23.536  41.405   3.239
43280W        W15705  19.104   9.364   0.279
43281W        W15706  13.150   9.387  13.862
43282W        W15707  11.851  15.687   3.827
43283W        W15708   6.313   2.774   3.678
43284W        W15709   6.288  39.501  12.091
43285W        W15710  38.325  11.336  10.564
43286W        W15711  20.560  23.058   2.881
43287W        W15712  14.802  21.165  14.367
43288W        W15713  33.906  18.140  11.452
43289W        W15714  12.141  25.171  13.953
43290W        W15715  12.139   0.756  13.830
43291W        W15716   7.787  30.017  10.422
43292W        W15717  32.019  32.477   0.414
43293W        W15718  22.695   5.846  11.026
43294W        W15719  24.559  11.222  14.414
43295W        W15720  27.999  34.516  13.815
43296W        W15721  42.020   6.743   0.362
43297W        W15722  34.995   7.316  14.826
43298W        W15723  43.960  28.146  13.926
43299W        W15724   7.252  22.058   1.314
43300W        W15725  36.019   9.712  14.277
43301W        W15726  24.188   3.923  14.422
43302W        W15727  37.438  26.688   0.834
43303W        W15728  27.100  21.758   3.804
43304W        W15729  10.663   3.424   1.421
43305W        W15730  18.704   9.826  14.831
43306W        W15731  27.149  13.165  12.574
43307W        W15732  26.020   9.344  13.532
43308W        W15733  41.016  31.124   1.880
43309W        W15734  10.191  13.652   2.235
43310W        W15735   4.263   8.310   2.663
43311W        W15736  32.427   9.670   2.413
43312W        W15737  34.882  19.184   2.894
43313W        W15738  44.826   0.827   0.802
43314W        W15739   3.898   5.876   2.252
43315W        W15740  13.603  43.774   1.806
43316W        W15741  42.350  29.489  11.910
43317W        W15742  14.786   3.302   1.424
43318W        W15743  44.287  13.231  13.805
43319W        W15744  24.205   0.916  13.046
43320W        W15745  26.603  14.193   1.795
43321W        W15746  16.692  41.040   1.870
43322W        W15747  39.030  13.327  13.955
43323W        W15748  43.431  10.781   3.262
43324W        W15749  18.748   8.259   0.448
43325W        W15750  41.864  38.491  13.892
43326W        W15751  26.619  13.706   0.883
43327W        W15752  38.521  30.610   1.889
43328W        W15753  10.277  17.702  14.798
43329W        W15754  38.326  36.389  12.367
43330W        W15755  26.171  10.832  14.438
43331W        W15756  35.096  16.199   2.215
43332W        W15757   8.291   4.286   0.448
43333W        W15758  30.518  28.071  12.070
43334W        W15759  35.091  42.453  11.419
43335W        W15760  33.089  20.696  12.507
43336W        W15761  20.672  19.074  10.583
43337W        W15762  38.938  40.374  14.297
43338W        W15763   1.316   5.387   4.687
43339W        W15764  13.202  15.158  12.979
43340W        W15765   0.934  29.161  13.916
43341W        W15766   7.875  40.968  12.905
43342W        W15767  21.701  28.674  14.314
43343W        W15768  25.628  34.987  14.806
43344W        W15769  14.762  41.955   2.392
43345W        W15770  37.349  42.332   1.385
43346W        W15771  10.669  14.682  12.093
43347W        W15772  24.123  43.000   0.879
43348W        W15773  17.672   5.928  10.943
43349W        W15774   6.897   8.186   1.901
43350W        W15775  18.250  24.516  11.432
43351W        W15776  35.962   4.761  13.515
43352W        W15777  26.689  28.669  10.463
43353W        W15778  33.923  38.414   2.702
43354W        W15779  21.199  30.513   3.738
43355W        W15780   6.899  38.570   0.943
43356W        W15781  24.547  20.579  11.556
43357W        W15782  31.907  20.241   4.621
43358W        W15783   2.898  28.604   0.349
43359W        W15784  40.003   4.917   1.299
43360W        W15785  36.842   4.236   4.274
43361W        W15786  29.538  17.614   0.728
43362W        W15787  39.834  19.167  13.895
43363W        W15788  38.429  11.789   4.242
43364W        W15789  24.103  25.220   2.849
43365W        W15790  12.803  15.088   4.837
43366W        W15791  11.251  37.393  10.644
43367W        W15792   1.852  40.917  12.343
43368W        W15793  16.092  35.475   0.765
43369W        W15794  20.146  25.044  13.831
43370W        W15795  37.983  37.022  12.875
43371W        W15796  29.035  17.141   2.809
43372W        W15797  28.154  18.243  10.969
43373W        W15798  28.121  42.377   3.730
43374W        W15799  11.358  11.372   0.332
43375W        W15800  29.081  27.051  11.485
43376W        W15801  33.506  30.479   3.698
43377W        W15802  41.833  29.483  11.488
43378W        W15803  32.410  32.944   4.680
43379W        W15804  14.613  14.336   1.899
43380W        W15805  24.151  42.781  14.955
43381W        W15806  36.513  20.648   3.649
43382W        W15807  30.930  28.565  11.092
43383W        W15808   1.430  11.326   4.804
43384W        W15809  24.207   7.328  12.010
43385W        W15810  37.082  26.004   5.655
43386W        W15811  14.252  21.739  11.563
43387W        W15812  23.661  40.924   1.853
43388W        W15813  34.415  31.522   1.862
43389W        W15814  12.329  30.006  13.544
43390W        W15815  17.188  35.454  14.910
43391W        W15816  25.515  17.178  12.967
43392W        W15817   8.397  20.699   3.849
43393W        W15818  32.964  19.266   5.194
43394W        W15819  10.151  20.740  10.549
43395W        W15820   3.752   9.814   0.876
43396W        W15821  31.920  17.284  13.897
43397W        W15822  31.094  22.510  10.929
43398W        W15823  35.484  28.466   0.726
43399W        W15824   8.282  15.766   3.147
43400W        W15825  44.983  16.217   3.199
43401W        W15826  42.481  36.079  11.477
43402W        W15827  27.564  16.191   3.786
43403W        W15828   6.415   0.294  12.027
43404W        W15829  38.495  28.590  14.030
43405W        W15830  31.896  42.386   4.268
43406W        W15831  42.919  42.903   3.756
43407W        W15832  15.775  17.670  11.857
43408W        W15833  17.783  15.228   3.850
43409W        W15834  26.535  31.458  14.453
43410W        W15835  44.278  16.761  12.033
43411W        W15836  11.680   3.411   2.306
43412W        W15837  23.223   6.810   1.808
43413W        W15838  30.561   0.894   0.927
43414W        W15839   6.852  12.635  13.519
43415W        W15840   7.872  19.190  10.996
43416W        W15841  20.753   4.233   4.678
43417W        W15842  18.221  17.173   3.797
43418W        W15843  11.156  24.019   0.830
43419W        W15844  14.328  14.797   4.772
43420W        W15845  25.024  42.309   0.446
43421W        W15846  16.161  13.206  14.458
43422W        W15847  29.445  41.403  11.084
43423W        W15848   4.934   9.292  11.496
43424W        W15849  32.048   4.906   4.182
43425W        W15850  22.998  30.474  13.904
43426W        W15851  44.483  17.571  13.908
43427W        W15852  41.028  44.388   0.812
43428W        W15853  44.429  22.162  13.992
43429W        W15854  28.467  32.900  12.450
43430W        W15855  10.278  35.942   3.348
43431W        W15856   5.338   6.219   1.291
43432W        W15857  10.753  21.066   2.702
43433W        W15858  27.145  12.359   2.211
43434W        W15859  20.640   1.945  13.511
43435W        W15860  21.614  35.389   2.270
43436W        W15861  31.604  14.816  13.383
43437W        W15862  25.966  32.985  10.572
43438W        W15863   1.917   1.443  10.448
43439W        W15864   4.907  11.168  14.951
43440W        W15865   6.900  17.248   1.436
43441W        W15866  14.642  26.465  12.870
43442W        W15867  31.612  43.988   1.760
43443W        W15868  24.693  23.230  13.332
43444W        W15869   2.324   1.932  13.976
43445W        W15870  26.142  19.620   0.760
43446W        W15871  41.806  10.750   3.307
43447W        W15872  15.160  39.364  13.014
43448W        W15873  23.564  21.567  12.019
43449W        W15874  19.594   4.722  12.977
43450W        W15875   9.859   6.291  12.940
43451W        W15876   1.286  43.345   1.286
43452W        W15877  13.788   8.742   1.815
43453W        W15878  43.897  33.423  14.450
43454W        W15879  35.076   8.662  14.482
43455W        W15880   0.429  38.976  13.878
43456W        W15881  27.159   9.652  13.307
43457W        W15882  31.565  19.041  14.398
43458W        W15883  21.143  41.477  12.378
43459W        W15884  40.053  38.950  14.418
43460W        W15885   4.838  30.435   5.082
43461W        W15886  27.568  25.095  13.477
43462W        W15887  24.981  38.049  12.559
43463W        W15888  15.650  43.510   1.865
43464W        W15889  23.182  40.488  13.350
43465W        W15890  36.423  29.934   2.273
43466W        W15891  23.585   4.355  12.465
43467W        W15892  42.789  10.317   1.284
43468W        W15893   5.805   0.251  14.452
43469W        W15894  37.069  24.104   1.228
43470W        W15895  39.899   8.392   4.254
43471W        W15896  21.260   2.371   1.313
43472W        W15897  13.834   6.399  12.978
43473W        W15898  31.986  26.023   4.206
43474W        W15899   4.411   9.650  12.058
43475W        W15900  25.712  25.169   4.710
43476W        W15901  19.129  38.386   3.294
43477W        W15902   8.351   9.218   2.193
43478W        W15903  29.157  10.293   2.192
43479W        W15904  34.873  37.455  13.833
43480W        W15905  12.754  29.560  14.375
43481W        W15906   5.367   1.475   1.397
43482W        W15907  19.153  28.944  11.567
43483W        W15908  20.088  24.498   2.844
43484W        W15909  26.589  19.674  10.922
43485W        W15910   2.831  17.287  10.996
43486W        W15911  16.196  27.583   3.862
43487W        W15912   5.264  25.136   0.364
43488W        W15913   6.703  34.004   4.810
43489W        W15914  21.685   0.898  10.587
43490W        W15915  22.720  26.651   3.822
43491W        W15916  33.580  35.872   3.785
43492W        W15917  22.082   3.240   3.282
43493W        W15918  11.700  33.438   2.858
43494W        W15919  15.787   8.768  11.551
43495W        W15920  38.392  44.943  13.868
43496W        W15921  37.577  41.297  12.872
43497W        W15922  10.722  20.091  14.951
43498W        W15923  36.357  39.533  10.445
43499W        W15924  22.995   3.262  11.482
43500W        W15925  41.378  20.251   3.382
43501W        W15926  26.581  15.110  10.010
43502W        W15927  20.730  42.302   3.258
43503W        W15928  30.016  34.437   3.220
43504W        W15929  18.294  29.486   4.827
43505W        W15930  20.228  28.993   2.897
43506W        W15931  14.223  12.159   2.838
43507W        W15932  22.193   3.391  11.864
43508W        W15933  27.688  40.347  14.840
43509W        W15934  21.114  12.840   4.317
43510W        W15935   1.842  10.799   4.265
43511W        W15936   3.356  29.437  12.359
43512W        W15937  12.631  30.105  12.413
43513W        W15938  37.833   4.905   3.819
43514W        W15939  24.076   5.729   1.917
43515W        W15940  23.011   9.153  10.603
43516W        W15941  36.401  20.639  14.323
43517W        W15942  37.410  28.641   3.253
43518W        W15943   2.443   3.278   3.774
43519W        W15944  32.555  25.214  11.556
43520W        W15945  18.752   8.761   4.277
43521W        W15946   8.872  28.143   0.440
43522W        W15947  37.395   4.344   0.334
43523W        W15948  38.055  37.943   2.407
43524W        W15949  32.562  31.549   4.281
43525W        W15950  29.016  31.613  11.597
43526W        W15951  37.081  29.473  13.021
43527W        W15952  37.368   0.329  13.982
43528W        W15953  43.928  38.428  13.836
43529W        W15954  13.606  21.191  14.466
43530W        W15955  12.228   9.644  13.035
43531W        W15956  12.181  36.980   2.301
43532W        W15957  35.602  11.640  13.488
43533W        W15958  16.758   2.883  11.453
43534W        W15959  11.197  39.889  12.944
43535W        W15960  26.603  42.972  13.818
43536W        W15961  38.827  35.909  14.777
43537W        W15962  41.844  27.987  13.830
43538W        W15963  18.201  25.196   4.256
43539W        W15964  40.904  23.199  14.873
43540W        W15965  19.120  34.111  14.291
43541W        W15966  32.442  39.887   3.248
43542W        W15967  26.172  33.394  12.362
43543W        W15968   8.785  38.546  13.063
43544W        W15969  25.672  25.470  12.843
43545W        W15970  37.448  38.496   1.805
43546W        W15971  39.978   3.805   4.785
43547W        W15972  39.830  30.572   3.376
43548W        W15973  31.565  14.303   1.748
43549W        W15974  40.385   6.847  14.370
43550W        W15975   1.452  14.286   4.837
43551W        W15976  16.154  17.261   4.123
43552W        W15977   7.719  22.102  14.388
43553W        W15978  21.037  10.663  12.463
43554W        W15979  24.696   9.829   2.220
43555W        W15980  42.895  42.283   4.791
43556W        W15981  35.430   2.831   3.367
43557W        W15982  15.658  23.631   5.741
43558W        W15983  29.559  32.095   0.900
43559W        W15984  26.021  13.823   2.867
43560W        W15985  28.465  32.115   4.651
43561W        W15986  31.517  20.052   1.368
43562W        W15987  37.521  41.527   0.261
43563W        W15988  36.083  36.388  12.005
43564W        W15989  28.512  18.598  14.498
43565W        W15990   4.319  30.014   2.842
43566W        W15991  12.697   6.318   2.759
43567W        W15992  33.052  36.993  11.919
43568W        W15993   2.450  31.927  10.581
43569W        W15994   6.414  17.689  11.573
43570W        W15995  14.227  20.244   4.178
43571W        W15996  41.814  35.377  13.369
43572W        W15997  32.544  34.481  13.883
43573W        W15998  24.549   3.809   3.295
43574W        W15999  35.089   4.768  10.472
43575W        W16000  31.903   7.718  14.469
43576W        W16001   5.901  19.125  14.298
43577W        W16002  22.188  11.351  11.567
43578W        W16003  20.197  10.815  13.493
43579W        W16004   1.851  35.470   2.202
43580W        W16005  13.686  15.713  12.929
43581W        W16006   0.356  36.033   0.733
43582W        W16007  31.012   6.249   1.310
43583W        W16008  18.215   7.358   0.837
43584W        W16009  31.987  15.747  11.433
43585W        W16010  32.537  42.461   3.318
43586W        W16011  21.645  35.039  10.414
43587W        W16012  18.271   2.318  13.002
43588W        W16013   5.869  22.632  13.864
43589W        W16014  14.633  39.496  11.408
43590W        W16015  16.578  28.534  11.421
43591W        W16016  24.660  15.589  12.458
43592W        W16017  39.885  22.166  12.073
43593W        W16018  16.698   9.345  11.447
43594W        W16019  23.493  28.453   1.900
43595W        W16020  34.470   7.788  11.492
43596W        W16021  29.498  15.697  10.405
43597W        W16022  29.569  14.645   0.874
43598W        W16023   4.725   2.929  11.955
43599W        W16024  44.263  29.039  12.457
43600W        W16025   2.363  13.261  13.960
43601W        W16026  33.461  11.373  11.858
43602W        W16027   7.357  13.311   0.767
43603W        W16028  35.389   6.266   0.448
43604W        W16029   7.700  12.819  11.923
43605W        W16030  10.803  23.692  12.985
43606W        W16031  17.150  43.780  10.943
43607W        W16032  35.458  38.927  10.890
43608W        W16033  23.627  39.902   2.704
43609W        W16034   2.854  33.434  12.573
43610W        W16035  35.988  21.029  13.365
43611W        W16036  11.857  39.052   1.861
43612W        W16037  36.864  17.701  11.863
43613W        W16038  36.521   3.457   4.786
43614W        W16039   4.219  16.310   0.353
43615W        W16040  11.251  10.691  12.499
43616W        W16041  38.025   1.804   1.328
43617W        W16042  24.990  17.258  13.517
43618W        W16043  12.216  18.120   4.743
43619W        W16044  18.193  43.887  14.931
43620W        W16045  25.524  19.249  10.503
43621W        W16046  38.898  29.622  13.942
43622W        W16047   6.188  12.733   1.724
43623W        W16048  22.614  42.849   4.165
43624W        W16049   6.913   5.212   1.393
43625W        W16050  40.362  26.697   9.938
43626W        W16051  12.228  22.629  12.987
43627W        W16052  20.688  35.566   1.389
43628W        W16053  30.601   7.327  14.312
43629W        W16054  30.914  24.592   1.853
43630W        W16055  16.309  15.601   3.262
43631W        W16056   2.313  29.588  13.370
43632W        W16057   6.678   3.739   0.298
43633W        W16058  26.540  33.059  14.435
43634W        W16059   2.454  14.830   3.195
43635W        W16060  42.283  24.679   1.365
43636W        W16061  24.641  17.170  13.439
43637W        W16062  18.685  15.266   0.929
43638W        W16063  34.918  29.165   1.895
43639W        W16064   3.246  30.553  11.552
43640W        W16065  34.089  40.011  13.012
43641W        W16066   4.846   7.231   0.343
43642W        W16067  34.070  11.820   0.297
43643W        W16068   8.821   0.275   2.718
43644W        W16069   9.374   3.419   5.244
43645W        W16070  33.009  34.566  12.067
43646W        W16071   1.254  18.698  13.463
43647W        W16072  21.098   6.808   3.331
43648W        W16073  12.222   2.258   3.770
43649W        W16074  20.740  30.974   1.930
43650W        W16075   8.845  27.053  12.848
43651W        W16076   5.395  11.719   1.396
43652W        W16077  40.853  42.525   5.218
43653W        W16078   1.835  33.032   3.772
43654W        W16079  44.389  15.249  11.564
43655W        W16080  18.105  33.052  12.973
43656W        W16081   7.757  36.468   3.334
43657W        W16082  24.597  17.758   0.404
43658W        W16083  16.609  39.369   0.959
43659W        W16084   6.769  10.248  13.335
43660W        W16085  16.718  35.966  11.934
43661W        W16086  35.400  23.996   1.901
43662W        W16087  41.837  24.520   3.331
43663W        W16088  13.286   4.838  10.937
43664W        W16089  40.401  42.872   2.308
43665W        W16090  22.090  13.125   2.787
43666W        W16091  44.374   4.298   4.695
43667W        W16092  23.594  25.220  11.427
43668W        W16093  12.231  19.553  12.065
43669W        W16094   8.399  12.355   2.852
43670W        W16095  14.628  42.871  13.852
43671W        W16096   4.343  32.612  10.927
43672W        W16097  11.632  10.684   0.882
43673W        W16098  26.530  27.122  12.489
43674W        W16099  18.691  29.627  12.979
43675W        W16100  24.073  39.013  14.317
43676W        W16101   2.242  36.414   1.762
43677W        W16102  24.505   7.723  13.406
43678W        W16103  26.595  34.490  12.978
43679W        W16104  17.197  17.574   3.248
43680W        W16105  27.002  31.447   0.827
43681W        W16106  21.142  40.003   0.950
43682W        W16107  13.814   4.796   0.266
43683W        W16108  15.248  29.461  12.425
43684W        W16109  34.483  40.412  12.581
43685W        W16110   4.273  22.079   4.687
43686W        W16111  37.081  29.578  10.560
43687W        W16112  42.493  36.384  13.533
43688W        W16113  37.841  36.449   2.367
43689W        W16114  38.955  44.776  13.998
43690W        W16115   1.464   6.415  11.042
43691W        W16116  37.450  30.526  14.767
43692W        W16117  41.848  28.997   1.291
43693W        W16118  23.593   3.236  12.558
43694W        W16119  10.278  36.478  12.996
43695W        W16120  20.603  29.172   1.317
43696W        W16121  11.274  21.228  10.043
43697W        W16122  28.956  40.423  12.356
43698W        W16123  24.518  19.227   4.739
43699W        W16124  15.205   2.399   2.329
43700W        W16125   3.951  40.534   4.743
43701W        W16126  16.147  34.590   4.301
43702W        W16127  39.943  16.690  14.506
43703W        W16128  20.703  23.660   4.625
43704W        W16129  31.955  21.054   0.797
43705W        W16130   9.229  20.757   1.795
43706W        W16131  34.889  24.212  11.090
43707W        W16132  36.460  10.199  10.917
43708W        W16133  38.433  11.206  11.094
43709W        W16134  17.736  14.809   2.900
43710W        W16135  31.540  34.870  13.936
43711W        W16136  35.483  20.068   4.718
43712W        W16137  21.645   8.796  10.614
43713W        W16138  10.384  40.370  14.310
43714W        W16139   2.821   3.334   4.773
43715W        W16140  20.158  14.632  11.060
43716W        W16141  43.909  32.971  11.025
43717W        W16142   5.824  27.159   3.760
43718W        W16143   1.289   7.212   4.733
43719W        W16144  14.627  27.034   3.768
43720W        W16145  27.182  41.936  14.949
43721W        W16146  17.284   2.277   3.349
43722W        W16147  20.697  29.463   2.273
43723W        W16148   0.949  14.630   4.622
43724W        W16149  38.827  11.338   4.699
43725W        W16150  12.332  43.348  14.511
43726W        W16151   1.353  17.730  11.415
43727W        W16152  38.366   4.764   2.212
43728W        W16153   3.918  44.958  12.854
43729W        W16154  44.932  13.689  10.438
43730W        W16155  25.996   1.369  13.438
43731W        W16156  18.166  35.946   3.331
43732W        W16157  34.114   9.871   3.210
43733W        W16158  14.665  37.338   0.317
43734W        W16159  38.928  32.903  13.385
43735W        W16160   1.862   8.270   3.807
43736W        W16161  20.200  13.782   2.774
43737W        W16162  10.674  19.667  13.987
43738W        W16163  26.514   7.890  13.353
43739W        W16164  22.708  41.355  11.488
43740W        W16165  26.160  15.716   1.825
43741W        W16166  15.633  11.805   3.669
43742W        W16167   5.690   1.818  12.525
43743W        W16168  44.346  42.997   3.838
43744W        W16169  17.588   1.957  10.616
43745W        W16170  28.579   9.308  14.382
43746W        W16171  19.099  18.277   0.359
43747W        W16172  38.056   6.740  13.514
43748W        W16173  31.049   0.269   4.178
43749W        W16174  29.580   0.435  13.795
43750W        W16175  21.547   8.893  13.903
43751W        W16176  24.498  33.972  11.515
43752W        W16177  14.672  21.192   4.315
43753W        W16178  29.439  17.704   4.134
43754W        W16179  27.514   3.851   3.633
43755W        W16180  35.882   4.808   9.955
43756W        W16181  17.717   6.186   0.259
43757W        W16182  29.628  18.631   2.389
43758W        W16183  34.504  25.173  13.799
43759W        W16184   0.435   4.712   4.232
43760W        W16185  15.328   2.928   4.648
43761W        W16186  29.924  38.385  11.967
43762W        W16187  13.238  32.626   1.261
43763W        W16188  17.645  41.955   3.721
43764W        W16189  31.409  37.353  12.826
43765W        W16190  36.938   3.355   2.678
43766W        W16191  42.851  26.027  11.431
43767W        W16192  31.136  10.153  12.903
43768W        W16193  43.864  33.446  13.877
43769W        W16194  25.174   2.835  10.966
43770W        W16195  43.479  15.140  11.494
43771W        W16196   3.908  31.462  12.442
43772W        W16197  31.981  11.799  13.387
43773W        W16198  19.627  43.478  12.495
43774W        W16199  18.628  31.116  12.855
43775W        W16200  27.472  22.157  14.978
43776W        W16201  17.249  43.286  12.466
43777W        W16202  31.435  11.805  11.443
43778W        W16203   2.289  28.549  13.859
43779W        W16204   6.337  40.867   0.336
43780W        W16205  35.952  39.812   0.766
43781W        W16206  15.116   6.335  12.851
43782W        W16207  29.158   7.718  13.432
43783W        W16208  32.945  36.943  10.617
43784W        W16209  32.923  17.642   2.247
43785W        W16210  11.315  24.218   1.330
43786W        W16211  30.959  16.720  13.328
43787W        W16212  43.838   6.899  13.877
43788W        W16213  29.495  18.704   3.708
43789W        W16214  14.214  20.767  14.987
43790W        W16215  14.615  21.686   0.821
43791W        W16216  12.251  11.676   2.353
43792W        W16217  41.528  26.203   3.716
43793W        W16218  19.735  15.786   1.227
43794W        W16219  38.336  43.335   2.244
43795W        W16220  42.335  25.502   0.443
43796W        W16221  38.041  42.916  11.038
43797W        W16222   6.698  28.964   4.644
43798W        W16223  13.686  43.495   3.204
43799W        W16224  13.782  13.262   4.113
43800W        W16225  19.609  16.227   1.314
43801W        W16226  23.111  35.928   0.931
43802W        W16227  16.249  37.929   1.735
43803W        W16228  38.334  22.026   3.231
43804W        W16229  21.215  22.589   3.190
43805W        W16230  14.177  20.090  11.029
43806W        W16231  16.592  20.117   3.151
43807W        W16232   9.376  13.691  13.399
43808W        W16233  43.005  24.694  13.940
43809W        W16234  39.881  35.598   4.310
43810W        W16235  39.872  19.186   2.394
43811W        W16236   5.828   8.294   0.917
43812W        W16237   1.831  11.868  12.091
43813W        W16238  20.593  31.929   2.413
43814W        W16239  37.480  26.614   3.862
43815W        W16240  24.224  37.517   4.123
43816W        W16241  10.323  36.415  10.568
43817W        W16242  38.945  26.565  14.011
43818W        W16243  36.854  24.499   5.182
43819W        W16244  19.174  14.628  11.535
43820W        W16245  12.797  23.234   3.631
43821W        W16246   8.701  22.017  13.408
43822W        W16247  39.039  27.991  10.921
43823W        W16248  21.600  18.058   3.222
43824W        W16249  21.030  43.440   0.342
43825W        W16250  15.328  36.403  14.016
43826W        W16251  27.508  35.073  13.902
43827W        W16252   7.328  37.569   3.686
43828W        W16253  24.169  36.484   2.381
43829W        W16254  31.105  35.900  11.963
43830W        W16255  43.881  43.883   4.748
43831W        W16256  14.294   2.389   5.252
43832W        W16257  21.257   4.298  10.076
43833W        W16258  33.436  21.631  13.953
43834W        W16259   1.906  35.878  12.346
43835W        W16260  29.613  28.672   3.217
43836W        W16261  27.968  29.089  13.021
43837W        W16262  31.602   5.420   1.268
43838W        W16263  10.726  17.567   0.251
43839W        W16264   1.429  27.591   2.807
43840W        W16265  27.465  10.632   0.880
43841W        W16266  21.682  39.840  13.900
43842W        W16267  42.472  34.595  11.063
43843W        W16268  14.301  17.620   0.944
43844W        W16269  42.004  33.614  13.942
43845W        W16270  20.570  23.498  10.427
43846W        W16271  23.499  35.448   4.678
43847W        W16272  41.293  40.526   3.696
43848W        W16273  10.820  19.726  13.373
43849W        W16274   5.429  23.134  12.019
43850W        W16275  14.719  21.202  11.054
43851W        W16276  11.296  23.081   3.636
43852W        W16277   4.430  17.669   3.800
43853W        W16278  35.494  43.498  10.579
43854W        W16279  21.018  24.101   0.456
43855W        W16280  10.875   0.323  14.362
43856W        W16281   9.832  16.172  11.416
43857W        W16282  36.064   5.786  14.491
43858W        W16283  30.112  14.783  12.570
43859W        W16284  23.182   4.391   0.941
43860W        W16285  38.059  20.067  11.104
43861W        W16286  24.178  16.278  14.815
43862W        W16287  37.939   9.385  14.849
43863W        W16288  42.525  31.089  14.306
43864W        W16289  30.515  24.547  11.606
43865W        W16290  32.436  18.693   3.288
43866W        W16291  13.178  25.704  12.576
43867W        W16292  34.512  26.999   4.669
43868W        W16293  35.052  14.797   2.231
43869W        W16294  12.615  32.115  12.904
43870W        W16295  35.911  44.806  14.507
43871W        W16296  32.577  11.210  14.326
43872W        W16297  16.169   8.324  11.505
43873W        W16298  37.367  43.433   9.975
43874W        W16299   8.735  17.243  13.363
43875W        W16300   7.795  37.963  10.916
43876W        W16301  34.046  11.852   1.307
43877W        W16302  40.401  20.256   2.690
43878W        W16303  40.382   8.871  13.007
43879W        W16304   5.883  44.940   1.793
43880W        W16305  36.094  28.100  10.577
43881W        W16306  15.262  17.066  12.375
43882W        W16307  25.688   9.369  13.510
43883W        W16308  32.957   1.338  12.999
43884W        W16309   1.796  29.457   2.764
43885W        W16310  30.446  42.964   3.238
43886W        W16311  10.700  20.178  13.386
43887W        W16312  31.148  38.497   0.299
43888W        W16313  12.251  10.821   0.787
43889W        W16314  16.102  13.242   4.213
43890W        W16315  27.611  44.432   0.362
43891W        W16316  10.839  11.247   3.156
43892W        W16317  30.634  13.284   5.241
43893W        W16318  40.541  29.173   4.270
43894W        W16319  25.197  17.614   1.343
43895W        W16320  11.134   3.370   4.759
43896W        W16321  15.649  43.785  12.998
43897W        W16322  24.035   8.842   3.232
43898W        W16323   3.247   7.702   0.459
43899W        W16324  29.173  26.992   2.382
43900W        W16325  42.929   8.737   3.159
43901W        W16326  16.648  39.405  14.399
43902W        W16327  37.391  20.559  13.900
43903W        W16328   7.905  13.184   2.865
43904W        W16329  34.888  21.119   3.867
43905W        W16330  40.457  43.492  12.837
43906W        W16331   7.876   4.395  14.876
43907W        W16332  38.023   6.190  11.610
43908W        W16333  44.872   8.860   3.241
43909W        W16334  38.901   5.283   0.247
43910W        W16335   7.741  12.188  10.641
43911W        W16336  33.535  12.274  10.430
43912W        W16337  38.455  17.151   3.728
43913W        W16338  37.580   6.866  12.477
43914W        W16339  33.103  21.174  11.019
43915W        W16340  25.178  23.529   0.841
43916W        W16341   8.228  19.092  13.802
43917W        W16342   1.806  32.565   2.223
43918W        W16343  19.160  35.947  10.453
43919W        W16344  35.061  25.670   2.224
43920W        W16345  15.089   2.857  14.441
43921W        W16346   6.426   4.937   2.181
43922W        W16347  38.427  42.792   0.824
43923W        W16348   2.838  26.647   0.392
43924W        W16349  22.589   6.803  10.888
43925W        W16350  11.341  40.995   0.254
43926W        W16351  30.109  11.781  14.477
43927W        W16352  43.773  16.735   1.708
43928W        W16353  37.061  35.050   1.920
43929W        W16354   9.328   3.432   1.361
43930W        W16355  19.763  44.995  11.414
43931W        W16356  24.127  39.454  13.064
43932W        W16357  42.375  29.585   2.818
43933W        W16358  25.539  10.371   4.261
43934W        W16359   2.927  29.552   3.805
43935W        W16360   4.269  39.891   3.230
43936W        W16361  18.214  42.011   3.822
43937W        W16362   4.422  43.378   2.670
43938W        W16363  39.329  32.485  12.991
43939W        W16364  25.493  14.251  14.798
43940W        W16365  20.191  25.515  10.975
43941W        W16366  39.335  26.572  12.930
43942W        W16367   6.871  28.626   4.677
43943W        W16368   7.803  21.545   3.320
43944W        W16369   3.744  44.438   1.826
43945W        W16370  32.450  31.956  11.441
43946W        W16371  43.768  41.392   3.184
43947W        W16372  26.634  26.116  11.465
43948W        W16373  32.101  23.489  11.060
43949W        W16374  22.037   6.243   4.234
43950W        W16375  16.777  33.965  14.480
43951W        W16376   5.744  15.578  11.500
43952W        W16377  32.634  20.640  11.026
43953W        W16378  13.753  27.621   2.673
43954W        W16379   3.939  17.577  13.984
43955W        W16380  38.914  43.516  10.914
43956W        W16381  22.501  22.056  14.822
43957W        W16382  28.931  13.713   0.257
43958W        W16383  27.603  30.450   2.252
43959W        W16384  37.966  37.495  10.442
43960W        W16385  14.774  14.329   4.163
43961W        W16386  32.492  13.236  11.381
43962W        W16387  41.908  42.884  10.595
43963W        W16388  36.473  11.329  11.127
43964W        W16389  22.090  25.120   4.226
43965W        W16390  43.002  20.227  14.943
43966W        W16391   2.359  22.601  14.961
43967W        W16392  27.960   3.353   3.835
43968W        W16393  36.507   7.673   2.412
43969W        W16394   2.859  17.131  12.837
43970W        W16395   5.387  14.809  13.005
43971W        W16396  39.453   2.764   3.368
43972W        W16397  36.004  29.441   0.358
43973W        W16398   0.780  25.589  14.768
43974W        W16399  28.036  34.377   3.735
43975W        W16400   4.824  21.253  11.605
43976W        W16401  17.640  18.226  11.092
43977W        W16402  12.342  31.898  11.879
43978W        W16403  43.426   3.415   3.738
43979W        W16404  24.605  23.998   4.642
43980W        W16405  34.612  19.132   4.176
43981W        W16406   3.226  33.058   4.347
43982W        W16407  29.649  13.826  12.482
43983W        W16408  13.603  41.944   3.249
43984W        W16409  27.118  25.679   0.377
43985W        W16410  11.248  39.815   3.199
43986W        W16411  19.542  41.901   4.654
43987W        W16412  33.040  44.347  13.858
43988W        W16413   7.692  20.055  12.880
43989W        W16414  37.476  25.033   3.721
43990W        W16415  17.216  30.561   1.223
43991W        W16416  20.549  32.988   2.807
43992W        W16417   5.930  33.444   4.139
43993W        W16418  39.822   6.236   3.805
43994W        W16419  32.597  42.835   1.303
43995W        W16420  28.094   3.847   4.128
43996W        W16421   0.965  17.306   3.856
43997W        W16422  17.177  27.121  14.804
43998W        W16423  43.430   4.277   4.670
43999W        W16424  34.370  37.380   2.368
44000W        W16425  24.059  41.439  12.949
44001W        W16426   4.879  30.936  14.400
44002W        W16427  41.527  44.284   3.754
44003W        W16428   2.929  29.149   3.828
44004W        W16429  19.236  38.054  12.025
44005W        W16430  44.377  26.138  13.342
44006W        W16431  12.615  37.874  10.410
44007W        W16432  15.665  22.210  12.077
44008W        W16433  21.253  24.609  14.409
44009W        W16434   2.299  44.928   0.791
44010W        W16435  43.771   1.435   1.844
44011W        W16436  43.470  36.860   4.782
44012W        W16437  14.262   2.415  12.084
44013W        W16438  25.699  30.651   1.863
44014W        W16439   1.291  20.250  12.968
44015W        W16440  16.631  34.532  14.300
44016W        W16441  34.591  25.604  12.826
44017W        W16442  31.121  30.945   2.815
44018W        W16443  44.920   9.190  14.941
44019W        W16444  12.674  43.366  13.937
44020W        W16445   2.293   0.866  14.471
44021W        W16446  19.670  30.461  10.633
44022W        W16447  32.039  23.543  13.507
44023W        W16448   7.403  44.766  14.998
44024W        W16449  19.758  28.009  13.914
44025W        W16450   3.317  31.054  11.395
44026W        W16451  24.022  21.571   2.354
44027W        W16452   3.256  36.449  13.309
44028W        W16453  12.789  24.725  12.420
44029W        W16454  34.433   3.350   4.276
44030W        W16455  13.626  31.072   3.776
44031W        W16456  36.019  25.000   4.256
44032W        W16457  39.456   9.316   0.748
44033W        W16458  33.936  24.007   2.670
44034W        W16459  30.505  32.530  13.061
44035W        W16460  25.585  32.455   0.888
44036W        W16461  25.023   3.322   1.745
44037W        W16462  17.685   5.900   1.733
44038W        W16463  20.595  28.606  11.086
44039W        W16464  39.347  17.715   1.763
44040W        W16465   1.341   8.716  13.804
44041W        W16466  36.539  23.640   9.983
44042W        W16467   9.396  23.038  13.025
44043W        W16468  19.048  35.410   2.236
44044W        W16469  43.970  29.973   1.239
44045W        W16470  31.120  15.774  11.528
44046W        W16471  29.590  36.875  14.308
44047W        W16472  36.551  35.506   0.843
44048W        W16473  36.447  44.308   0.834
44049W        W16474  22.650  31.604  11.933
44050W        W16475  14.666  34.994  12.353
44051W        W16476  25.974  25.499   3.161
44052W        W16477  35.573   0.422  12.366
44053W        W16478  12.777   1.334  13.815
44054W        W16479  25.470  28.942  14.975
44055W        W16480  38.883  20.676   1.409
44056W        W16481  20.043   4.272  11.531
44057W        W16482   0.943  41.931   4.299
44058W        W16483  13.265  10.211  10.419
44059W        W16484  38.964   9.645   0.877
44060W        W16485   3.909  35.471   4.696
44061W        W16486  43.497   2.894  11.895
44062W        W16487   0.905  26.525  13.931
44063W        W16488  42.427  31.041   3.790
44064W        W16489   6.279  18.742  12.089
44065W        W16490   5.438  18.700  12.973
44066W        W16491  10.212  25.052  12.906
44067W        W16492  24.184  25.073  12.480
44068W        W16493  36.068  37.882   3.771
44069W        W16494  34.988  27.509   2.716
44070W        W16495  18.154  41.344   0.402
44071W        W16496  30.507  17.101   2.196
44072W        W16497  23.499  34.550  14.888
44073W        W16498  15.094  35.587  13.453
44074W        W16499  38.903  18.228   4.197
44075W        W16500  15.220  30.454  11.613
44076W        W16501  16.312  28.950  14.929
44077W        W16502  34.966   3.448   2.667
44078W        W16503  16.685  23.171  12.515
44079W        W16504   4.241   8.823  11.496
44080W        W16505  32.549  33.963  13.020
44081W        W16506   2.360  19.644   5.210
44082W        W16507  15.643  15.091   1.716
44083W        W16508   7.219  15.244   0.256
44084W        W16509  24.078  10.275   1.870
44085W        W16510   0.416  44.298  12.012
44086W        W16511  14.223  30.992   5.103
44087W        W16512  31.139  34.070  14.910
44088W        W16513   3.907  41.327  13.040
44089W        W16514  28.091  33.520  12.432
44090W        W16515  43.795   9.387   1.356
44091W        W16516   3.945  22.647  12.053
44092W        W16517  29.489  11.325   2.267
44093W        W16518  31.977  17.717   2.732
44094W        W16519  27.567  15.098   4.148
44095W        W16520  30.601  11.680  13.829
44096W        W16521  12.634  18.547   0.894
44097W        W16522  37.468  15.772   0.323
44098W        W16523   8.339  39.952  14.904
44099W        W16524  43.018  31.033   3.709
44100W        W16525  17.244  32.009  10.490
44101W        W16526   3.744  12.252  10.954
44102W        W16527   5.223  31.441  14.935
44103W        W16528   6.829  16.636  14.378
44104W        W16529  42.791  27.467   3.856
44105W        W16530   2.283   6.772  14.387
44106W        W16531  34.507  35.402  10.900
44107W        W16532   7.674  44.472   3.339
44108W        W16533  21.696  18.154   2.830
44109W        W16534  42.390  17.705  10.519
44110W        W16535  13.133  23.685   1.925
44111W        W16536  11.747  12.736  13.414
44112W        W16537  40.917  26.596  14.382
44113W        W16538  40.506  30.605  14.982
44114W        W16539  26.661  18.251   4.122
44115W        W16540   5.231  24.621   1.776
44116W        W16541  22.228  13.833   1.384
44117W        W16542   8.761  30.980  13.835
44118W        W16543  21.244  43.312   2.306
44119W        W16544   8.831  40.948   4.641
44120W        W16545  43.395  33.015   1.860
44121W        W16546   6.332  43.389  13.315
44122W        W16547  27.499  33.990   0.353
44123W        W16548  24.012  28.483  11.028
44124W        W16549  32.096  36.948   3.854
44125W        W16550  11.828   7.732   2.253
44126W        W16551  38.388   3.229  13.413
44127W        W16552  13.345  24.215   2.400
44128W        W16553   1.242  23.636  13.047
44129W        W16554  13.164  43.331  12.047
44130W        W16555   1.445   4.350  14.409
44131W        W16556  42.969  22.602  13.862
44132W        W16557  13.677  40.463   2.796
44133W        W16558   7.732  20.154   3.323
44134W        W16559   6.721   2.832   0.898
44135W        W16560   1.908  22.535  12.452
44136W        W16561  15.604   7.321   4.809
44137W        W16562  42.363  12.328   3.701
44138W        W16563  26.471  21.228  14.962
44139W        W16564  43.941  42.031  12.561
44140W        W16565  35.014  16.204   1.893
44141W        W16566  42.930   6.194   4.335
44142W        W16567  15.687  25.983  14.482
44143W        W16568  38.499  28.449  14.497
44144W        W16569  23.185  40.327  10.491
44145W        W16570  14.792   2.327  11.929
44146W        W16571  30.439  20.154   1.849
44147W        W16572  44.951  10.780  12.389
44148W        W16573  22.645  42.478   0.337
44149W        W16574   1.364  20.261   0.743
44150W        W16575  18.762   1.356  10.437
44151W        W16576   3.787  41.327  11.885
44152W        W16577  26.001  31.146  13.933
44153W        W16578  32.468  35.424  14.898
44154W        W16579  29.157  42.900  13.047
44155W        W16580  31.468  39.528  14.847
44156W        W16581  10.711   9.161   3.746
44157W        W16582  21.192  42.852  13.003
44158W        W16583  28.102  27.485   0.450
44159W        W16584  16.274  13.721   2.880
44160W        W16585  29.497  17.639  12.549
44161W        W16586  15.639  38.381   3.663
44162W        W16587  20.568  29.099   0.763
44163W        W16588  20.040   0.934   9.995
44164W        W16589  10.286  25.567   2.856
44165W        W16590  32.635  25.628   2.366
44166W        W16591   7.754  25.019   2.864
44167W        W16592   1.898   7.408   4.143
44168W        W16593  40.916  24.688  13.856
44169W        W16594  40.435  29.525   2.230
44170W        W16595  28.642  33.086   9.979
44171W        W16596  31.096  21.619  10.473
44172W        W16597  29.171  32.033   2.301
44173W        W16598  42.487   5.360   1.279
44174W        W16599   6.200  21.567  10.519
44175W        W16600   2.825  12.286  13.885
44176W        W16601  19.054  42.447  11.011
44177W        W16602  22.028  29.004  12.829
44178W        W16603  40.876  21.123   4.275
44179W        W16604   9.380  18.688  14.276
44180W        W16605  24.063   9.322   3.369
44181W        W16606  35.545  21.570   0.446
44182W        W16607  43.396  14.222   3.362
44183W        W16608  33.130  19.260   0.878
44184W        W16609  24.105  16.247   2.369
44185W        W16610  26.674  19.219  11.396
44186W        W16611   9.811  20.738   1.430
44187W        W16612   1.974  43.924  10.912
44188W        W16613  12.616   9.336   4.242
44189W        W16614   7.272   8.356  11.444
44190W        W16615  24.536  22.549   0.951
44191W        W16616  43.815  37.424  11.857
44192W        W16617  29.476  40.812   3.865
44193W        W16618  13.845  43.326   1.334
44194W        W16619   5.360  34.988   2.756
44195W        W16620  18.715  42.010   2.349
44196W        W16621   9.283   1.377   3.663
44197W        W16622   9.259  41.399  13.447
44198W        W16623  43.316   4.293  14.295
44199W        W16624   5.398  16.745  13.979
44200W        W16625  27.121  32.985   0.385
44201W        W16626  21.231   1.256   1.295
44202W        W16627  29.925  28.091   1.914
44203W        W16628   9.870  29.426   4.722
44204W        W16629  24.034  37.037  13.947
44205W        W16630   8.345  39.416  13.939
44206W        W16631   8.205  39.370   4.185
44207W        W16632   6.818  40.433   2.274
44208W        W16633  19.132  13.661  14.498
44209W        W16634   8.206   0.904   1.312
44210W        W16635  36.538  40.807  12.949
44211W        W16636  41.854   2.407   1.930
44212W        W16637  26.532  24.102   3.810
44213W        W16638  34.402  44.887  14.971
44214W        W16639   2.422   2.814   0.282
44215W        W16640   6.711  44.384   3.214
44216W        W16641  38.339  35.373  11.977
44217W        W16642  27.540  21.719  13.921
44218W        W16643  38.958   1.294  12.960
44219W        W16644  25.139  13.211  14.319
44220W        W16645  31.458   2.743   1.441
44221W        W16646   4.931  16.762  13.905
44222W        W16647   3.819  28.646   4.740
44223W        W16648  36.489  35.021  11.947
44224W        W16649  33.442  33.455  12.904
44225W        W16650  29.666  35.510   2.210
44226W        W16651  25.557  17.645  14.383
44227W        W16652  27.137   9.191   0.773
44228W        W16653  13.711  29.664  10.594
44229W        W16654  11.147  42.957   1.782
44230W        W16655  37.458  40.433  10.952
44231W        W16656  18.064  30.628   0.423
44232W        W16657  20.158  18.148  11.477
44233W        W16658  17.168   0.877   2.845
44234W        W16659  36.576  18.054   9.982
44235W        W16660   5.804  11.221  12.917
44236W        W16661  36.021  38.545  13.913
44237W        W16662  37.018  12.681  13.824
44238W        W16663  29.515  35.057   4.737
44239W        W16664  42.855  24.172   2.816
44240W        W16665  11.270  37.905   3.196
44241W        W16666  39.872  13.718  12.030
44242W        W16667   1.480  30.422  10.990
44243W        W16668   0.345  42.863   3.724
44244W        W16669  44.772  23.109   0.328
44245W        W16670  29.061  21.655  13.045
44246W        W16671  29.144  44.794  12.954
44247W        W16672   8.710  42.419   4.817
44248W        W16673   2.404  41.453   0.833
44249W        W16674  39.397  22.566   2.190
44250W        W16675  14.101   8.184  13.505
44251W        W16676   8.792   8.353   0.897
44252W        W16677   1.408  29.642   2.695
44253W        W16678  15.773  27.619  10.008
44254W        W16679  29.546   6.313  13.332
44255W        W16680  29.032  33.575   0.854
44256W        W16681  41.807  31.047  14.985
44257W        W16682  26.107  10.246  14.308
44258W        W16683  12.179   4.937  13.844
44259W        W16684  41.920  40.438  10.599
44260W        W16685  43.766  22.658   1.870
44261W        W16686  20.704  14.595   0.886
44262W        W16687  26.082  22.999  11.459
44263W        W16688  15.589  34.604   4.291
44264W        W16689   5.420   9.645  13.848
44265W        W16690  23.665  41.796  11.487
44266W        W16691  44.434  23.234  14.812
44267W        W16692  27.148   5.276  10.971
44268W        W16693  14.103   3.313   3.187
44269W        W16694  14.238  31.928  13.026
44270W        W16695   3.934  31.109   0.768
44271W        W16696   7.694  35.976  14.351
44272W        W16697  27.111  24.213   1.283
44273W        W16698  44.373  34.953  13.912
44274W        W16699  31.602  15.721   5.150
44275W        W16700  23.623  12.255   0.946
44276W        W16701  27.626  41.505   4.816
44277W        W16702   2.869  13.223   4.192
44278W        W16703   0.742  44.796   4.786
44279W        W16704   8.164  36.517   3.703
44280W        W16705  35.497   9.739  12.962
44281W        W16706  26.113  35.062   1.917
44282W        W16707  37.047  41.309   2.243
44283W        W16708   0.855   8.307  11.922
44284W        W16709   9.280   8.810   3.333
44285W        W16710  23.564  40.498   3.249
44286W        W16711   8.855  37.367   9.930
44287W        W16712  13.227   5.909  11.106
44288W        W16713   9.663  22.634  13.346
44289W        W16714  16.271  14.675   1.257
44290W        W16715  39.331  26.973   4.633
44291W        W16716  35.397  34.455  14.025
44292W        W16717  34.429  39.010   3.837
44293W        W16718   4.899  27.087  10.897
44294W        W16719   4.821  24.180   2.754
44295W        W16720  28.480  23.045   3.685
44296W        W16721  18.781  39.871  10.601
44297W        W16722  33.565  38.909   2.676
44298W        W16723   5.380  27.638   2.883
44299W        W16724   4.915   1.765  11.567
44300W        W16725  44.990  41.529   2.354
44301W        W16726  10.746  10.356  10.574
44302W        W16727  40.375   1.876  12.460
44303W        W16728  15.256  31.120   0.468
44304W        W16729   7.699  42.406   4.151
44305W        W16730  38.873  36.066  11.124
44306W        W16731  30.599  20.713  11.560
44307W        W16732  11.225  21.737  13.977
44308W        W16733  18.248  24.202  12.941
44309W        W16734   3.803  40.903  13.430
44310W        W16735  10.777  21.144  11.009
44311W        W16736  33.488  26.169  14.971
44312W        W16737  16.709  41.853   0.443
44313W        W16738  40.002  42.866   5.230
44314W        W16739  33.107  38.998   1.314
44315W        W16740  39.500  19.764   1.278
44316W        W16741   1.913  12.218   2.720
44317W        W16742   5.816  23.558   0.264
44318W        W16743  25.177  13.302  14.794
44319W        W16744   2.742  31.100  14.488
44320W        W16745  28.515  12.182  11.095
44321W        W16746   6.920   1.280   0.877
44322W        W16747  38.075  36.590  12.927
44323W        W16748   2.471  20.548  11.582
44324W        W16749  27.987  25.505  11.011
44325W        W16750  22.016   9.685  11.543
44326W        W16751   1.951   5.891  14.413
44327W        W16752  26.533   1.923   1.769
44328W        W16753  20.581  18.119   3.775
44329W        W16754  14.746  31.524  14.345
44330W        W16755  33.071  44.503  14.469
44331W        W16756  15.122  16.189  13.312
44332W        W16757  37.849   5.794  12.519
44333W        W16758   0.959   4.352   3.315
44334W        W16759  27.958  21.077   0.451
44335W        W16760  12.240  23.020   2.190
44336W        W16761  12.280  15.173  13.827
44337W        W16762  38.939  27.088  11.868
44338W        W16763  29.951  22.508  13.533
44339W        W16764  32.513  10.314  11.442
44340W        W16765  13.712  20.192  10.520
44341W        W16766  35.105  15.759  11.532
44342W        W16767  35.961  18.103   2.743
44343W        W16768  16.308  36.874   3.665
44344W        W16769  36.380   2.861  14.957
44345W        W16770  25.638   5.893  10.636
44346W        W16771  28.622  40.992   0.768
44347W        W16772   2.456  31.984   4.278
44348W        W16773  17.682   5.434  11.037
44349W        W16774  16.637  40.992   0.455
44350W        W16775  16.694  26.680   4.290
44351W        W16776  19.272  43.510  11.423
44352W        W16777   9.232   2.270   0.283
44353W        W16778  33.579  24.013  11.411
44354W        W16779  18.791  33.010  10.623
44355W        W16780  21.048  24.610   0.244
44356W        W16781   8.661  12.845   4.329
44357W        W16782  24.681  29.987  14.906
44358W        W16783  31.474  22.140  14.482
44359W        W16784  13.209  28.639  14.304
44360W        W16785  20.582  27.008  12.559
44361W        W16786  26.649  42.383  11.104
44362W        W16787  19.548   2.443  13.873
44363W        W16788   9.660  42.864  14.474
44364W        W16789  24.988  44.309   3.361
44365W        W16790   5.802   3.412  14.402
44366W        W16791  11.231  28.551  10.947
44367W        W16792  27.983  30.624   0.316
44368W        W16793   2.890  36.049  13.489
44369W        W16794  11.172  36.376   1.747
44370W        W16795   0.424  13.201  13.923
44371W        W16796   2.428   8.718  10.956
44372W        W16797  43.317  13.105  14.888
44373W        W16798  11.187  16.291  14.996
44374W        W16799  23.009   1.886   1.222
44375W        W16800  11.837  44.361  13.838
44376W        W16801  40.482  11.660   0.258
44377W        W16802  31.547   1.802  13.349
44378W        W16803  43.795  20.696  11.004
44379W        W16804  27.474  23.575  12.432
44380W        W16805  25.551  13.304  13.407
44381W        W16806  30.143  42.820   0.425
44382W        W16807  30.447   9.856   1.256
44383W        W16808  21.194  10.177  12.060
44384W        W16809  43.773  28.624   0.766
44385W        W16810  32.531  36.513   3.752
44386W        W16811   4.728  38.508  13.955
44387W        W16812   1.351   2.228  13.470
44388W        W16813  40.856  20.250  12.000
44389W        W16814   3.904  34.441   2.800
44390W        W16815  38.567  42.865   5.696
44391W        W16816  41.962  19.101   3.665
44392W        W16817  11.836  23.154  13.415
44393W        W16818  15.742  25.142  14.453
44394W        W16819   0.817  42.778   3.716
44395W        W16820  29.623  27.100  10.598
44396W        W16821  26.535  17.667   3.797
44397W        W16822  42.414  24.615   1.912
44398W        W16823  26.482   7.770   1.434
44399W        W16824   5.349   8.311   2.295
44400W        W16825  34.104  39.512   4.695
44401W        W16826  16.232  38.054   0.823
44402W        W16827  33.996  33.029   3.343
44403W        W16828  15.089   2.268  11.562
44404W        W16829  15.749  41.374  10.913
44405W        W16830  34.106  12.319   3.212
44406W        W16831  44.271  34.988   4.701
44407W        W16832  31.914  37.901   4.131
44408W        W16833  25.656  28.010   4.170
44409W        W16834   1.762  25.544  11.107
44410W        W16835   2.724   3.732  13.310
44411W        W16836  29.169  28.619  10.547
44412W        W16837   8.735   9.256  10.466
44413W        W16838  27.171  19.040  13.036
44414W        W16839  24.067  44.316  13.470
44415W        W16840   8.243  41.804   0.928
44416W        W16841  20.053   3.805  10.563
44417W        W16842  23.657  28.934   3.672
44418W        W16843  21.557  20.586   0.950
44419W        W16844  36.351  22.222   4.190
44420W        W16845  17.277  43.971  11.567
44421W        W16846  14.266  37.076   1.741
44422W        W16847  31.528  31.068   1.914
44423W        W16848  24.044   8.757   2.219
44424W        W16849   1.417  20.640   0.301
44425W        W16850  31.633  39.979  14.956
44426W        W16851  12.340   9.651  13.492
44427W        W16852  42.308  33.605   4.117
44428W        W16853  13.198  26.053   2.301
44429W        W16854  43.817  20.584  13.430
44430W        W16855  29.531  23.110  12.508
44431W        W16856  16.639  10.666  14.301
44432W        W16857   3.863  29.659  13.864
44433W        W16858  19.672  14.284  14.510
44434W        W16859  31.584  26.171   0.420
44435W        W16860  40.946  18.203   3.708
44436W        W16861  40.872  11.761  11.882
44437W        W16862   6.388  21.539  13.310
44438W        W16863   0.880   5.777  13.936
44439W        W16864   0.989  44.450  10.155
44440W        W16865  31.038   2.808   4.258
44441W        W16866  24.710  22.546   1.715
44442W        W16867  40.828   5.812   0.903
44443W        W16868   0.409  17.775  10.421
44444W        W16869  10.666   2.378   0.759
44445W        W16870  42.931  15.817   2.321
44446W        W16871  24.069   0.408  13.452
44447W        W16872  18.197  27.956   2.297
44448W        W16873  41.930  39.905   0.470
44449W        W16874  26.685  10.327   2.700
44450W        W16875   4.379  24.580  10.489
44451W        W16876  43.920  37.532  13.929
44452W        W16877  30.533  38.515  12.388
44453W        W16878  26.076  11.732  11.392
44454W        W16879  41.313   7.371  14.379
44455W        W16880  28.989  18.699  10.624
44456W        W16881  26.615  21.049  11.041
44457W        W16882  14.798  25.998  11.898
44458W        W16883  17.065  12.703   3.727
44459W        W16884  31.457  42.028  13.902
44460W        W16885  14.188  13.759  14.313
44461W        W16886  23.023   6.381  14.879
44462W        W16887  30.058  32.081   2.375
44463W        W16888  11.625  16.210   0.372
44464W        W16889  12.317  44.381   2.278
44465W        W16890  33.452  27.476  13.366
44466W        W16891  28.666  16.648   2.336
44467W        W16892  17.230  38.360   3.749
44468W        W16893  10.301  38.948  13.323
44469W        W16894  24.187  38.027  13.481
44470W        W16895  43.401  41.994  12.972
44471W        W16896  11.811  28.482  13.937
44472W        W16897  25.510   9.809  11.969
44473W        W16898  21.544  30.636   4.273
44474W        W16899  42.482  13.803  14.287
44475W        W16900  43.860   4.714   1.237
44476W        W16901  25.692  17.145   0.961
44477W        W16902  22.514  31.412  11.523
44478W        W16903  29.052  36.369  14.391
44479W        W16904   0.424  32.529   2.875
44480W        W16905  41.879  15.101  11.101
44481W        W16906   3.379   6.408   5.150
44482W        W16907  35.934  11.324   4.761
44483W        W16908   1.301  22.517   3.706
44484W        W16909  23.095   7.254   2.745
44485W        W16910   8.353   5.796   4.666
44486W        W16911   3.451  22.541   1.261
44487W        W16912  35.425  43.812  12.580
44488W        W16913   5.870  10.756   0.882
44489W        W16914  13.755   0.459   2.888
44490W        W16915   0.965  27.119   1.417
44491W        W16916  13.728  36.004  12.508
44492W        W16917  16.591  33.432  11.612
44493W        W16918  36.022  17.265   2.751
44494W        W16919   2.440  25.495   0.918
44495W        W16920  19.712  30.055  12.473
44496W        W16921  13.845  44.937  13.326
44497W        W16922  40.445  16.781  13.408
44498W        W16923   7.277  39.383  13.956
44499W        W16924  31.473  14.318  11.562
44500W        W16925   4.418   9.288  14.899
44501W        W16926   4.305  33.540  10.527
44502W        W16927  36.535   1.300  10.495
44503W        W16928  30.555  18.087   3.868
44504W        W16929  12.776   8.280   3.191
44505W        W16930  32.056  21.123   0.454
44506W        W16931   0.289  34.048   4.170
44507W        W16932   8.206  34.393   3.322
44508W        W16933   0.387  27.646  13.972
44509W        W16934  13.733  17.185   1.449
44510W        W16935   9.345  30.625  10.538
44511W        W16936  19.764  25.653  13.336
44512W        W16937  44.490  10.639  13.854
44513W        W16938  23.627   4.308   4.235
44514W        W16939  31.946  23.124   2.854
44515W        W16940  41.348  43.294  11.451
44516W        W16941   8.245  41.926  12.404
44517W        W16942  26.679  27.986  13.520
44518W        W16943  33.059  23.491  14.923
44519W        W16944  33.881  12.664   2.857
44520W        W16945  29.561  16.659   2.900
44521W        W16946   5.243   5.391   0.899
44522W        W16947  10.643  32.618   2.292
44523W        W16948   4.433  20.552  13.371
44524W        W16949  20.116  38.449  14.337
44525W        W16950  42.456  14.308  14.302
44526W        W16951  33.904   2.799  13.909
44527W        W16952   7.209  27.101  10.955
44528W        W16953   7.704  31.540  14.321
44529W        W16954   2.950  28.531  14.368
44530W        W16955   9.352  44.978   3.253
44531W        W16956  23.726  40.945   2.253
44532W        W16957  17.130   2.769   0.928
44533W        W16958  21.129  41.411  13.328
44534W        W16959  33.470  17.749  12.505
44535W        W16960  38.475  42.883   1.342
44536W        W16961  39.987  40.888   3.863
44537W        W16962   3.443  33.508  13.849
44538W        W16963  38.520  21.542   4.230
44539W        W16964  34.969  26.501   1.424
44540W        W16965  26.545  39.020  13.483
44541W        W16966  35.383  31.073  11.859
44542W        W16967  35.397  40.398  13.442
44543W        W16968  23.618  37.957  12.413
44544W        W16969   8.836  23.630  11.384
44545W        W16970  26.037  36.981   2.891
44546W        W16971  12.741  42.026   4.280
44547W        W16972  33.442  29.023  13.061
44548W        W16973   8.261  40.916  10.404
44549W        W16974  21.017  18.207  12.894
44550W        W16975  36.576   7.355   1.867
44551W        W16976   6.686   8.244  12.936
44552W        W16977  30.581   1.740  10.993
44553W        W16978  18.605  26.501   9.974
44554W        W16979  31.590   9.319   1.818
44555W        W16980  20.737  14.122   4.286
44556W        W16981  29.001   8.190   3.176
44557W        W16982  40.801  39.532   3.251
44558W        W16983  41.387   8.679   1.933
44559W        W16984  23.211  21.109   1.407
44560W        W16985   0.365  18.189  12.963
44561W        W16986  13.329   6.256   2.873
44562W        W16987  41.972  26.958   2.671
44563W        W16988  42.302   2.791  11.047
44564W        W16989  10.634  30.518   0.884
44565W        W16990  18.778  39.405   1.214
44566W        W16991  34.522   1.253   3.214
44567W        W16992  12.764  41.447  14.342
44568W        W16993  38.853  32.905   4.216
44569W        W16994  20.057  40.981  10.548
44570W        W16995  17.780   0.334  10.539
44571W        W16996   3.234   0.908   2.698
44572W        W16997  14.299  32.497  12.838
44573W        W16998  11.643  27.483  13.332
44574W        W16999  27.105  39.955  14.827
44575W        W17000  41.355  29.607   2.322
44576W        W17001  44.499  41.944  11.513
44577W        W17002   9.269  39.380  13.481
44578W        W17003  19.610  40.035   0.338
44579W        W17004  32.452  20.228  11.878
44580W        W17005  42.420  12.176   2.871
44581W        W17006  21.581  27.538  14.487
44582W        W17007  37.357  11.633  14.276
44583W        W17008  31.591  40.876   2.699
44584W        W17009  33.942   9.281  14.407
44585W        W17010   1.457   6.303   1.892
44586W        W17011  27.657  26.134  12.837
44587W        W17012  37.834  10.284  10.563
44588W        W17013  37.570  11.143  14.389
44589W        W17014   6.846  12.763   1.924
44590W        W17015  32.898  38.462   4.758
44591W        W17016  36.432  42.808   3.207
44592W        W17017  31.647  13.222  12.083
44593W        W17018  39.934  42.467   0.391
44594W        W17019  29.049  38.858  12.384
44595W        W17020  29.173  28.077   4.344
44596W        W17021  26.131  42.828  12.494
44597W        W17022   3.950  41.796  12.905
44598W        W17023  40.461  13.200   4.213
44599W        W17024  43.400   4.866  10.959
44600W        W17025   9.750  20.101   4.791
44601W        W17026  25.066  11.140   0.250
44602W        W17027  44.971  23.574   4.304
44603W        W17028  18.286  40.484   2.761
44604W        W17029  34.439  18.208  14.913
44605W        W17030  38.460  17.286  14.802
44606W        W17031  40.434  18.576  10.920
44607W        W17032  25.029  10.801  12.404
44608W        W17033  25.607  13.796  14.509
44609W        W17034  11.865  18.273   4.317
44610W        W17035  14.811  39.326  12.880
44611W        W17036  20.666   1.824  10.620
44612W        W17037  25.541  38.039  11.966
44613W        W17038   0.410   7.282  13.468
44614W        W17039   2.462  29.649   4.755
44615W        W17040  36.466  32.026  10.894
44616W        W17041  11.300   1.972  11.532
44617W        W17042  10.847  13.825   1.845
44618W        W17043  44.386  27.611   2.834
44619W        W17044   0.293   4.295   4.730
44620W        W17045   7.308  13.656   3.818
44621W        W17046  41.821  17.562   0.871
44622W        W17047  39.451  27.193  14.321
44623W        W17048  19.563  13.688  11.455
44624W        W17049  34.524   7.190  11.088
44625W        W17050  44.306  20.221   4.748
44626W        W17051   7.844  43.894  11.563
44627W        W17052   7.278   7.861   1.369
44628W        W17053  34.920   1.342  10.920
44629W        W17054  16.635  16.652   3.814
44630W        W17055  33.532  12.140   0.828
44631W        W17056  13.235   1.416  13.346
44632W        W17057  13.199   0.364   3.199
44633W        W17058  39.828  20.524  14.827
44634W        W17059  29.018   8.181  13.945
44635W        W17060   9.162   6.406  13.970
44636W        W17061   4.224   5.766   0.732
44637W        W17062  22.130  39.051   0.458
44638W        W17063   4.851  10.754  14.795
44639W        W17064  13.340  15.298   1.365
44640W        W17065   2.387  16.777  12.350
44641W        W17066  12.200  22.229  11.907
44642W        W17067  39.814  20.565  12.448
44643W        W17068  12.258  15.264  11.962
44644W        W17069  32.002  18.740  10.463
44645W        W17070  24.152  18.647  14.813
44646W        W17071  39.018  18.562   5.197
44647W        W17072  31.544  34.472   3.175
44648W        W17073  19.217  13.631   0.897
44649W        W17074  29.639  24.028  14.994
44650W        W17075  17.736  19.225   4.163
44651W        W17076  37.042  42.008  13.960
44652W        W17077  17.692  19.206  12.391
44653W        W17078  12.142  43.448   0.353
44654W        W17079   7.216  12.743  11.516
44655W        W17080  43.473  42.880  12.894
44656W        W17081  23.126  28.630   4.752
44657W        W17082  26.074  11.227  14.400
44658W        W17083  34.035  33.399   3.302
44659W        W17084  27.164  14.138  12.442
44660W        W17085  41.329   8.285   3.798
44661W        W17086  43.798  25.602   4.620
44662W        W17087  21.552  20.254  12.453
44663W        W17088  11.767  15.236  10.422
44664W        W17089  20.666  27.624   0.444
44665W        W17090  32.899  21.651   4.192
44666W        W17091   6.686  25.504   1.892
44667W        W17092  36.532  18.241   0.961
44668W        W17093  28.930   0.948  13.325
44669W        W17094   5.783  14.669   3.347
44670W        W17095  41.971  34.876  11.386
44671W        W17096  12.225  13.699  12.014
44672W        W17097  44.382  34.451  14.330
44673W        W17098  27.104  25.479   4.830
44674W        W17099   2.421  38.404   2.218
44675W        W17100  28.067  14.158  11.952
44676W        W17101   2.880  11.284  14.437
44677W        W17102   1.238  44.804   3.702
44678W        W17103  29.081   1.879  13.008
44679W        W17104  40.344  43.795   2.338
44680W        W17105   8.691   0.454  13.472
44681W        W17106   3.275  28.996  13.422
44682W        W17107  10.700  16.119   3.693
44683W        W17108  11.700  32.000   2.724
44684W        W17109  21.081   0.854   4.246
44685W        W17110  27.628  28.475  14.484
44686W        W17111   8.858   2.391  11.499
44687W        W17112  40.821   7.839   0.780
44688W        W17113  33.491  16.601   3.713
44689W        W17114  38.840  21.191   2.781
44690W        W17115  38.946  38.518  11.899
44691W        W17116   9.248  40.530   3.296
44692W        W17117  37.954  19.260   1.420
44693W        W17118   2.872  12.611  12.503
44694W        W17119  28.504  12.764   2.724
44695W        W17120  35.036   8.854   0.750
44696W        W17121  29.165  13.839  13.044
44697W        W17122  23.508  12.703   3.711
44698W        W17123   7.678  35.477  13.343
44699W        W17124  35.534  41.396   3.651
44700W        W17125  22.528  18.269   5.211
44701W        W17126   2.743  15.194   0.421
44702W        W17127  26.579  17.774  12.959
44703W        W17128  24.603   3.764   0.850
44704W        W17129  28.996  37.830   1.734
44705W        W17130  12.199  28.011  11.524
44706W        W17131  18.153   5.377  11.940
44707W        W17132   0.921   0.449   1.847
44708W        W17133  34.463  37.960   0.446
44709W        W17134  12.765   7.722   4.196
44710W        W17135  36.037   5.297   2.710
44711W        W17136  10.212   2.853   2.184
44712W        W17137   0.982  30.083   0.319
44713W        W17138  34.894  22.176   3.178
44714W        W17139  39.058   0.985   0.345
44715W        W17140   0.466   9.332   4.624
44716W        W17141  44.320  19.675  11.445
44717W        W17142  15.588   0.414   5.315
44718W        W17143   2.917  27.662   2.319
44719W        W17144  29.935   6.395   3.818
44720W        W17145  39.526  26.607  11.483
44721W        W17146  17.791  10.829  12.562
44722W        W17147  28.176  31.590   0.919
44723W        W17148  39.332  33.429   2.707
44724W        W17149  18.559  30.050   2.332
44725W        W17150  29.466  31.503  10.990
44726W        W17151  10.328   5.792   0.949
44727W        W17152  24.478   4.724   3.321
44728W        W17153  44.897  19.649   0.848
44729W        W17154   0.956  11.656  13.811
44730W        W17155  26.478   3.743   2.779
44731W        W17156  24.101  41.407   1.304
44732W        W17157   2.472  11.365   0.466
44733W        W17158  15.170  30.956   2.186
44734W        W17159  44.931  42.826   4.729
44735W        W17160  24.038  33.612  14.354
44736W        W17161  14.326  33.556   0.467
44737W        W17162  34.373   1.354  11.375
44738W        W17163  14.805   5.727  12.888
44739W        W17164  33.488  41.338   4.700
44740W        W17165   2.845   5.273   3.822
44741W        W17166  30.934  30.960   1.726
44742W        W17167  11.729  35.398   1.221
44743W        W17168  21.149  10.217   0.480
44744W        W17169  22.103  35.864   3.223
44745W        W17170  10.184  35.493   1.421
44746W        W17171   2.300   6.723   2.756
44747W        W17172  36.435  40.428  11.538
44748W        W17173   9.647  13.143  11.493
44749W        W17174  40.825  26.648  13.942
44750W        W17175  29.618   6.840  12.389
44751W        W17176   2.397  21.089  12.912
44752W        W17177   4.804  41.321  12.028
44753W        W17178  26.479  25.969  10.957
44754W        W17179  23.574   6.705  10.522
44755W        W17180  10.686   0.364   5.229
44756W        W17181  32.393  19.205  10.973
44757W        W17182  17.144  43.826  14.841
44758W        W17183  27.649  29.496   0.347
44759W        W17184  13.205  13.303  11.538
44760W        W17185  34.463  27.094  13.347
44761W        W17186  28.150  25.207  13.991
44762W        W17187  32.121   5.234   3.677
44763W        W17188   0.313  29.097  13.946
44764W        W17189   3.226  32.007   3.844
44765W        W17190   7.798  35.101  11.508
44766W        W17191  28.477  28.592   1.759
44767W        W17192  23.133   4.306  12.863
44768W        W17193  31.955  11.623  11.008
44769W        W17194   3.456  42.403   2.881
44770W        W17195   6.753  35.520  10.472
44771W        W17196  39.034  33.598   2.363
44772W        W17197   3.956   1.952  14.402
44773W        W17198  13.311  17.741   2.358
44774W        W17199  40.994  34.378  14.317
44775W        W17200  40.416   4.864   2.891
44776W        W17201  38.001  33.046   0.468
44777W        W17202  17.068  37.529   0.804
44778W        W17203  26.086  20.113   3.254
44779W        W17204   2.857  31.965   1.377
44780W        W17205   1.265   0.896  14.322
44781W        W17206   8.389  14.237  14.854
44782W        W17207  12.743  34.391  11.970
44783W        W17208   3.902   6.210   4.155
44784W        W17209  22.170   8.259   4.350
44785W        W17210  26.013  23.177  14.024
44786W        W17211  38.431  12.750  12.849
44787W        W17212   9.648  17.287  11.109
44788W        W17213  37.947  26.660   1.343
44789W        W17214  41.906  26.652   0.952
44790W        W17215   9.719   8.740  10.525
44791W        W17216  29.641  25.670   2.725
44792W        W17217  38.527  14.768  11.010
44793W        W17218  32.419  40.041  14.009
44794W        W17219  32.612  24.677  11.059
44795W        W17220   6.264   2.869  14.818
44796W        W17221  23.567  25.135   3.852
44797W        W17222  19.043  41.433   4.238
44798W        W17223  44.988   5.877   0.839
44799W        W17224  15.810   3.817  12.962
44800W        W17225  22.163  35.434   0.268
44801W        W17226  11.650  32.530   2.884
44802W        W17227  26.601  13.790  11.039
44803W        W17228  31.017  15.763   3.673
44804W        W17229  16.241  39.838  12.088
44805W        W17230  42.938  14.626   3.785
44806W        W17231  39.552   2.824   1.333
44807W        W17232   7.265  41.393   3.343
44808W        W17233  14.258  15.650   2.272
44809W        W17234  28.106   4.848  11.534
44810W        W17235  17.213  17.185   0.469
44811W        W17236   5.258  30.098   0.834
44812W        W17237  10.367   2.451  14.480
44813W        W17238  36.053  14.754   4.600
44814W        W17239  12.726  32.439   1.706
44815W        W17240  39.032  35.962   4.833
44816W        W17241  11.720  44.938   1.251
44817W        W17242  28.992   7.751   2.222
44818W        W17243  35.883  27.558  11.595
44819W        W17244   3.936  29.557   4.333
44820W        W17245  28.023  35.107  13.992
44821W        W17246   8.251  16.651  14.318
44822W        W17247  44.758   3.757   2.297
44823W        W17248  35.062  28.642  12.056
44824W        W17249  19.178  22.701  10.932
44825W        W17250   5.894   7.856  11.915
44826W        W17251  22.695  14.290  14.897
44827W        W17252  19.066   0.433   3.375
44828W        W17253  40.458  28.636   3.227
44829W        W17254  40.029   0.337  12.828
44830W        W17255  30.549  18.688   2.338
44831W        W17256   4.815   2.317  11.569
44832W        W17257   7.729  22.551   4.232
44833W        W17258  22.744  16.768  14.367
44834W        W17259  18.567   9.392   1.412
44835W        W17260  40.804  12.739  11.930
44836W        W17261  32.931  38.975   4.836
44837W        W17262   2.927   7.381   3.286
44838W        W17263  32.616  35.563   1.430
44839W        W17264  40.836  19.231  13.319
44840W        W17265  16.722  25.592  13.837
44841W        W17266  38.848   5.755  11.510
44842W        W17267  35.858  19.105   3.370
44843W        W17268  11.343   4.384  11.013
44844W        W17269  37.865  25.596   0.744
44845W        W17270   5.288  37.554   1.438
44846W        W17271   4.728   7.388   4.305
44847W        W17272  39.902  40.428  11.530
44848W        W17273  17.201  10.635  11.537
44849W        W17274   6.403  29.093   3.223
44850W        W17275  17.745  20.749  10.515
44851W        W17276  44.418   4.931  12.545
44852W        W17277   7.324  30.105  10.563
44853W        W17278  32.566  42.823  12.066
44854W        W17279  13.661  20.534  13.999
44855W        W17280  37.010  38.871   1.785
44856W        W17281  30.913  20.102  13.328
44857W        W17282  25.006  32.014  10.412
44858W        W17283  41.003  39.009  10.408
44859W        W17284  13.769  10.382  13.504
44860W        W17285  21.138  43.905  13.430
44861W        W17286  15.310   4.811  14.792
44862W        W17287   5.403  19.659   0.476
44863W        W17288  18.615  32.910  13.384
44864W        W17289  35.517   6.223   1.306
44865W        W17290  23.719  33.044  14.323
44866W        W17291  40.499  28.451   2.246
44867W        W17292  21.589  31.638   3.814
44868W        W17293  42.906  25.531  13.324
44869W        W17294  17.175  10.720   1.894
44870W        W17295  30.947  28.088   2.736
44871W        W17296  41.391  33.004   4.256
44872W        W17297  10.864  14.779   1.334
44873W        W17298  41.795  20.134   0.289
44874W        W17299  40.884  24.492  14.946
44875W        W17300   0.911  18.579   1.783
44876W        W17301  29.098  40.325   2.787
44877W        W17302  36.018  18.165   1.354
44878W        W17303   5.290  39.328  13.939
44879W        W17304  20.052  26.093  14.875
44880W        W17305   0.779  30.913   0.962
44881W        W17306   9.648  39.010  11.387
44882W        W17307  42.434  26.662   1.265
44883W        W17308  40.462  39.457  13.364
44884W        W17309  30.012  27.448   1.928
44885W        W17310  33.386  16.787   1.837
44886W        W17311   3.304  16.157   2.277
44887W        W17312  21.251  34.542   4.831
44888W        W17313  44.369  37.403   2.671
44889W        W17314  30.510   3.246  14.938
44890W        W17315  32.617  35.532  11.385
44891W        W17316   5.778  16.787   3.149
44892W        W17317  33.913  32.898   3.847
44893W        W17318  32.897  20.103   1.900
44894W        W17319  42.390  16.251  11.519
44895W        W17320  20.085  44.774   1.412
44896W        W17321  36.052  21.623   4.660
44897W        W17322  30.021   7.218  14.909
44898W        W17323  24.072  15.250   1.388
44899W        W17324  35.969   1.825  12.927
44900W        W17325   1.881  41.980  13.058
44901W        W17326  38.422  44.496  10.511
44902W        W17327  35.506   4.753  11.612
44903W        W17328  24.518  24.985   1.370
44904W        W17329  34.424  35.069   2.883
44905W        W17330   3.237  36.857   3.750
44906W        W17331  19.231   4.913  14.832
44907W        W17332  33.041  36.497   3.367
44908W        W17333  17.089  23.190  13.339
44909W        W17334  36.583  43.869   2.838
44910W        W17335  20.655   8.366  12.094
44911W        W17336  15.676  35.940  14.869
44912W        W17337  29.093  24.631  13.523
44913W        W17338  15.132  34.384   2.697
44914W        W17339  23.500   2.269  11.557
44915W        W17340   1.973  43.887  12.982
44916W        W17341   3.269   0.394   2.381
44917W        W17342  39.956   1.962   1.698
44918W        W17343  15.766   3.903   1.911
44919W        W17344  16.183  34.577  13.806
44920W        W17345   4.272  28.178  13.893
44921W        W17346   6.302  28.071   9.963
44922W        W17347  42.821   5.439   0.249
44923W        W17348  25.973  31.922   1.267
44924W        W17349  11.173  30.564  14.482
44925W        W17350  39.036  43.800   2.403
44926W        W17351  40.016  21.657   0.756
44927W        W17352  18.218  15.743  12.391
44928W        W17353   5.900  40.384  11.585
44929W        W17354  44.965  41.534  12.838
44930W        W17355  31.569  36.990   4.296
44931W        W17356   2.774   3.444  11.385
44932W        W17357  35.985  25.582  10.441
44933W        W17358   6.233  24.088   2.839
44934W        W17359  11.673  39.869  14.779
44935W        W17360  37.381   5.807   3.806
44936W        W17361   8.319  28.498   3.870
44937W        W17362   0.277  28.560  10.619
44938W        W17363   5.305   5.429   2.198
44939W        W17364  37.388  37.345   4.131
44940W        W17365  36.886  13.190   2.182
44941W        W17366  14.694   3.437   4.248
44942W        W17367  34.084   0.772  14.487
44943W        W17368  11.824   6.742  11.407
44944W        W17369  14.713   8.358   3.157
44945W        W17370  30.515   1.975   3.656
44946W        W17371  13.269  17.215  10.925
44947W        W17372  18.708  30.030  14.974
44948W        W17373  39.850  17.778  12.413
44949W        W17374  36.859  28.142   1.279
44950W        W17375  24.550  14.811   1.419
44951W        W17376  14.259  27.668   1.318
44952W        W17377   5.797  33.381  11.927
44953W        W17378  28.024  17.754  14.955
44954W        W17379   1.308  36.866  13.373
44955W        W17380  15.608  41.809   2.876
44956W        W17381   7.887  32.120   4.297
44957W        W17382  27.060  20.603  12.043
44958W        W17383  10.338  20.547  14.955
44959W        W17384   9.773  11.697   4.349
44960W        W17385   8.213   3.821  14.783
44961W        W17386   0.760   5.345  11.417
44962W        W17387  38.945  39.926   4.177
44963W        W17388  31.979   3.914  11.069
44964W        W17389   0.887  15.145   0.834
44965W        W17390  19.651   7.221  12.866
44966W        W17391   5.353  33.457   0.805
44967W        W17392  12.625  36.978  13.377
44968W        W17393  14.714  19.563   4.268
44969W        W17394  25.003  10.809   1.895
44970W        W17395  14.747  23.089  13.930
44971W        W17396  28.005  10.196  10.417
44972W        W17397  41.923  12.708   1.307
44973W        W17398   4.921  21.596  11.966
44974W        W17399  27.129  38.399  10.976
44975W        W17400  10.714  21.018   1.297
44976W        W17401  42.921   4.441   2.216
44977W        W17402  37.576  14.826  12.398
44978W        W17403  42.989  16.107  14.392
44979W        W17404  39.812  44.986  13.836
44980W        W17405   3.741  17.592  10.406
44981W        W17406  28.113  44.831  12.844
44982W        W17407  14.708  39.047  13.924
44983W        W17408  10.381  36.052  13.898
44984W        W17409   0.478   9.677  12.023
44985W        W17410  36.356  26.065   1.287
44986W        W17411   7.785  21.234  13.964
44987W        W17412  18.678   9.840   2.784
44988W        W17413  17.171  18.545  14.845
44989W        W17414  22.661  38.399   4.779
44990W        W17415  29.073  27.957  11.461
44991W        W17416   7.885   9.727  14.779
44992W        W17417  32.566  32.550   1.760
44993W        W17418  24.668  22.115  14.024
44994W        W17419  37.966  22.527   2.709
44995W        W17420  31.633  11.304   4.316
44996W        W17421  42.316   7.285   4.838
44997W        W17422  25.068   3.931  14.842
44998W        W17423  27.978  20.745  11.499
44999W        W17424  34.400  30.519   0.858
45000W        W17425  43.505  20.572   2.264
45001W        W17426  17.272  33.595   2.897
45002W        W17427  20.551  21.241  11.037
45003W        W17428  19.047  35.464   4.647
45004W        W17429  44.874   2.802  11.587
45005W        W17430  22.673   7.252  13.979
45006W        W17431  27.664  33.941   3.190
45007W        W17432  41.461   8.896   0.271
45008W        W17433  27.554  19.664  14.350
45009W        W17434  36.492  22.023   3.151
45010W        W17435  10.138  19.634  12.095
45011W        W17436  11.783  36.063   5.218
45012W        W17437  25.500   4.312   3.337
45013W        W17438  18.628  40.383   0.401
45014W        W17439  18.168  30.022   2.839
45015W        W17440  14.321  31.987   3.791
45016W        W17441  35.088   0.317   2.182
45017W        W17442   6.781  18.184   3.698
45018W        W17443  37.964  42.826   2.671
45019W        W17444  11.737  22.575  10.518
45020W        W17445  43.842  35.467   1.255
45021W        W17446  37.515  11.787   5.188
45022W        W17447  23.718   9.875   2.315
45023W        W17448   7.911   7.175  11.476
45024W        W17449   8.308   9.176   5.273
45025W        W17450  41.918   3.257   2.732
45026W        W17451  27.941  21.692  14.473
45027W        W17452  11.738  16.165   4.778
45028W        W17453  35.478   3.919  11.486
45029W        W17454  12.147   8.379   0.863
45030W        W17455   9.332  32.472  11.059
45031W        W17456  30.512  22.046   4.139
45032W        W17457  41.377  42.921  14.448
45033W        W17458  18.570   1.463   2.878
45034W        W17459   5.707  32.483   4.777
45035W        W17460  26.456  11.803  14.390
45036W        W17461   7.276  15.231  13.409
45037W        W17462   7.798  35.398  12.575
45038W        W17463  25.980  31.582  13.420
45039W        W17464  18.122   0.783   2.315
45040W        W17465  23.037  13.249  14.868
45041W        W17466  21.732   7.778   2.262
45042W        W17467   4.809  31.896  13.367
45043W        W17468  38.390  34.947  12.407
45044W        W17469  39.434  25.681  11.953
45045W        W17470  34.405  35.922   1.795
45046W        W17471   4.896  19.213  11.553
45047W        W17472  28.980  34.398   0.387
45048W        W17473   4.226  19.757   1.834
45049W        W17474   8.805  18.168   0.821
45050W        W17475   7.327  24.064  10.901
45051W        W17476  10.195  27.579  10.602
45052W        W17477  37.579   0.332  12.838
45053W        W17478  20.147  24.491   4.679
45054W        W17479   7.807  28.132   9.978
45055W        W17480  43.300  35.886   0.766
45056W        W17481  36.348   0.917  11.601
45057W        W17482   9.813  38.842  14.016
45058W        W17483  29.622  10.282  14.831
45059W        W17484  27.964   8.160   2.843
45060W        W17485  36.375   9.226   4.787
45061W        W17486   9.388  24.187  14.485
45062W        W17487  24.699  38.348   2.402
45063W        W17488   5.417  15.630   0.803
45064W        W17489  40.830  35.048  12.383
45065W        W17490  15.116   7.808   0.853
45066W        W17491   4.224  16.805  12.380
45067W        W17492  14.597  21.241   3.790
45068W        W17493  39.923  22.065  14.422
45069W        W17494  43.921  24.559  11.381
45070W        W17495  29.569  24.625   3.266
45071W        W17496  20.572  16.780   1.778
45072W        W17497  38.338  10.313   3.839
45073W        W17498   2.884  11.221   4.292
45074W        W17499  38.517   3.361  11.989
45075W        W17500  38.040  22.231   0.821
45076W        W17501   9.391  21.153   9.935
45077W        W17502  43.392  30.631   3.348
45078W        W17503   0.910   1.404  13.340
45079W        W17504  30.639  37.561   0.887
45080W        W17505  43.870  11.226   0.348
45081W        W17506  42.460   7.835  11.406
45082W        W17507  28.568  28.128  11.993
45083W        W17508  24.720  24.635  10.543
45084W        W17509   9.210   4.833   1.909
45085W        W17510  10.273   0.834  10.101
45086W        W17511  14.589   5.823  11.862
45087W        W17512   6.401  12.805   4.318
45088W        W17513  21.659  19.657   2.194
45089W        W17514  32.990   4.392  14.282
45090W        W17515  31.969  21.035   2.192
45091W        W17516  33.487   9.848   2.300
45092W        W17517  37.945  41.957   0.825
45093W        W17518  41.988  22.133  14.350
45094W        W17519  25.515  36.388   3.730
45095W        W17520   0.858  44.352  13.030
45096W        W17521  19.274   0.962  13.314
45097W        W17522  17.208  27.977   5.273
45098W        W17523   4.207  40.922  12.532
45099W        W17524  18.587  13.120   5.143
45100W        W17525  10.301  26.084  11.089
45101W        W17526  19.749  44.283  14.942
45102W        W17527  12.632  26.092  12.464
45103W        W17528  16.231  13.240   1.732
45104W        W17529  22.731  19.273   3.671
45105W        W17530  23.232  36.958  12.568
45106W        W17531  20.134  25.704   4.276
45107W        W17532   8.297  13.232  11.065
45108W        W17533  44.895   1.953  10.986
45109W        W17534  10.793   8.748   4.215
45110W        W17535  39.357  42.009   4.618
45111W        W17536  44.880  38.567   4.778
45112W        W17537   0.806  35.378   2.723
45113W        W17538  36.897  34.458   3.689
45114W        W17539  18.287  28.616  13.045
45115W        W17540   7.714   3.789   1.243
45116W        W17541  44.355  25.084   0.847
45117W        W17542  31.108  11.324  13.379
45118W        W17543   3.890   5.716  11.947
45119W        W17544  25.709  44.987   1.793
45120W        W17545  30.550  34.469   4.836
45121W        W17546  10.152   7.359   3.300
45122W        W17547  18.051  16.773  11.469
45123W        W17548  33.414   3.731   1.245
45124W        W17549  25.206   2.929  14.969
45125W        W17550  25.617  44.493   5.259
45126W        W17551  14.834  29.117  14.310
45127W        W17552  36.587   9.217  14.353
45128W        W17553  15.194  11.763   2.395
45129W        W17554  28.591  40.940   4.352
45130W        W17555  34.476  13.730   2.256
45131W        W17556  29.662  35.110  10.940
45132W        W17557  44.282  39.456   2.406
45133W        W17558  27.117  37.843   3.770
45134W        W17559  34.897  38.986  12.916
45135W        W17560  34.570  16.127   1.232
45136W        W17561   2.269   9.791  12.850
45137W        W17562  13.202  23.572  10.545
45138W        W17563   1.348  41.888  13.516
45139W        W17564   7.382  39.328  12.041
45140W        W17565  22.180  36.052   0.735
45141W        W17566  31.968  12.151  10.551
45142W        W17567   6.428  18.680  13.394
45143W        W17568  27.041   6.384  13.486
45144W        W17569  10.733  21.607  14.283
45145W        W17570   5.305   3.764   0.851
45146W        W17571  32.971   2.384   0.275
45147W        W17572  14.094  35.955   3.737
45148W        W17573  40.409  30.609   1.309
45149W        W17574  14.785  16.611   3.386
45150W        W17575  17.185  25.520  10.424
45151W        W17576  28.976   8.729  11.436
45152W        W17577   3.432   7.179  12.073
45153W        W17578   8.399  44.470   2.249
45154W        W17579  37.541  30.498   2.202
45155W        W17580   6.761  37.370  12.352
45156W        W17581  18.232  11.743  11.514
45157W        W17582   0.777  10.666  13.493
45158W        W17583  10.277  10.172  11.461
45159W        W17584   4.891  16.583   2.326
45160W        W17585  26.998  33.023   5.321
45161W        W17586  24.600  24.167  14.952
45162W        W17587  38.948   9.155   4.352
45163W        W17588  15.265  38.532  12.496
45164W        W17589  40.527  24.021   4.343
45165W        W17590  31.425  19.039  13.335
45166W        W17591  17.114  35.078   0.762
45167W        W17592  19.142  25.529   4.352
45168W        W17593  27.644   6.218   3.285
45169W        W17594  39.337  15.239   2.704
45170W        W17595  15.247  10.812   2.227
45171W        W17596  38.012  15.200  13.006
45172W        W17597  41.860  14.824  14.436
45173W        W17598  22.600  20.605  14.425
45174W        W17599  24.975   0.270   2.816
45175W        W17600   0.863  27.167   3.734
45176W        W17601  32.129  31.914   1.266
45177W        W17602  41.482  42.809   0.477
45178W        W17603   6.369  32.065   5.106
45179W        W17604  22.519  11.161   2.762
45180W        W17605  17.705  40.824   3.251
45181W        W17606  12.833  15.676  13.333
45182W        W17607  36.366  42.385   4.129
45183W        W17608  30.022   6.912  11.038
45184W        W17609  35.109   3.884  14.790
45185W        W17610  29.510  19.614   4.253
45186W        W17611   1.891  19.683   3.292
45187W        W17612  28.673  29.576   4.610
45188W        W17613  35.426  26.123  14.476
45189W        W17614   4.934  41.873   1.434
45190W        W17615  43.366   6.332   3.238
45191W        W17616  20.564  42.031  12.845
45192W        W17617  34.503  30.156  13.949
45193W        W17618   6.310   3.357  10.086
45194W        W17619  42.851  36.466  11.551
45195W        W17620  30.043  14.659   0.455
45196W        W17621  27.459  25.059  14.925
45197W        W17622   3.328  15.182  14.775
45198W        W17623  22.739  40.950   2.702
45199W        W17624  34.373  10.192  14.384
45200W        W17625   7.217  43.894   4.141
45201W        W17626  37.492  17.592  14.468
45202W        W17627  26.564  11.834   5.259
45203W        W17628  39.447   8.227  14.856
45204W        W17629  31.419   3.882  13.877
45205W        W17630  44.308  22.537  12.571
45206W        W17631  40.359  16.624   3.694
45207W        W17632   1.845  28.467   0.843
45208W        W17633   9.184  36.863   0.935
45209W        W17634  17.083   1.321  12.556
45210W        W17635  23.164  30.910  11.919
45211W        W17636  24.155  28.160   1.364
45212W        W17637   7.328  41.534  13.469
45213W        W17638  28.655  25.030  12.416
45214W        W17639  21.065   8.699   0.337
45215W        W17640  23.518   7.181  11.406
45216W        W17641  26.087   7.824  12.957
45217W        W17642  28.994  12.139   4.655
45218W        W17643  21.651   5.411  13.500
45219W        W17644  42.350   2.351  10.594
45220W        W17645  16.778   3.935  11.018
45221W        W17646  41.906  43.498   9.926
45222W        W17647  24.143  41.449  11.079
45223W        W17648  43.980   7.858  13.354
45224W        W17649  35.392  29.924   1.729
45225W        W17650  38.020  24.677  10.066
45226W        W17651  11.166   9.675   3.369
45227W        W17652   4.773  34.118  10.009
45228W        W17653   2.465  23.205  12.504
45229W        W17654   9.736  24.998   1.696
45230W        W17655  31.494  38.994  10.043
45231W        W17656  21.173  23.036  11.953
45232W        W17657  16.602  35.962   3.212
45233W        W17658  16.694   3.928   4.673
45234W        W17659  34.006   6.892   1.892
45235W        W17660  17.750   8.239  11.587
45236W        W17661  37.838  27.195   4.748
45237W        W17662  22.086  29.124   2.186
45238W        W17663  43.376  23.498  12.954
45239W        W17664   2.803   7.696  11.958
45240W        W17665  32.925  32.458   2.857
45241W        W17666  42.355  33.467   2.303
45242W        W17667  13.824  23.165  14.828
45243W        W17668  37.836   8.785  10.591
45244W        W17669  36.060  34.102   4.162
45245W        W17670  39.409   7.799  12.341
45246W        W17671  13.669  34.420  11.906
45247W        W17672  38.861   4.234   3.840
45248W        W17673  35.510  32.967   4.267
45249W        W17674  22.999  39.963  13.460
45250W        W17675  39.378  20.232  14.981
45251W        W17676   2.844   6.222   0.935
45252W        W17677  28.629  40.992   2.212
45253W        W17678  35.854  12.616  14.354
45254W        W17679  43.905  35.088   0.936
45255W        W17680  19.180   1.866  10.087
45256W        W17681  20.624  41.341  13.462
45257W        W17682  44.275   1.868   3.241
45258W        W17683  41.401  25.988  13.877
45259W        W17684  29.988  20.227   1.916
45260W        W17685  22.695   7.688   2.312
45261W        W17686   4.320  38.858   1.852
45262W        W17687  15.757  18.100   1.745
45263W        W17688  42.435  43.496  11.456
45264W        W17689  23.995  29.476  13.365
45265W        W17690  43.919  18.753   0.923
45266W        W17691  41.441   8.666  11.099
45267W        W17692   1.368  38.386  13.972
45268W        W17693  34.469  31.432  10.452
45269W        W17694  22.129  10.339  13.311
45270W        W17695   8.168   5.793  14.301
45271W        W17696  37.433   5.333  14.486
45272W        W17697  25.211   0.389  13.445
45273W        W17698   7.853  43.457   1.762
45274W        W17699  35.500  26.511  14.761
45275W        W17700  30.548  22.176  10.900
45276W        W17701  32.540  33.005  12.439
45277W        W17702  28.548  38.454   1.727
45278W        W17703  42.295   6.845   4.136
45279W        W17704  12.256  30.575   0.427
45280W        W17705  34.937  26.535  13.053
45281W        W17706  36.026  41.332  11.896
45282W        W17707  37.086   7.361   2.300
45283W        W17708  40.951   6.335  13.917
45284W        W17709  40.505  11.692  14.296
45285W        W17710  16.807  22.129  13.331
45286W        W17711   0.771  11.770   0.807
45287W        W17712  36.957  20.686   1.862
45288W        W17713   1.391  28.499  13.972
45289W        W17714   3.780  25.118   4.601
45290W        W17715  26.636   0.275  13.396
45291W        W17716  15.822   7.831   3.668
45292W        W17717  26.955  11.142  13.333
45293W        W17718  41.459  41.536   3.206
45294W        W17719  24.036  12.253   0.860
45295W        W17720   7.329   5.775   3.154
45296W        W17721  20.696  18.756   0.456
45297W        W17722  23.728  37.934  13.010
45298W        W17723  29.137  28.654  13.378
45299W        W17724  16.757  27.163   3.335
45300W        W17725   5.313  36.464  14.986
45301W        W17726  41.836  11.733  11.868
45302W        W17727  33.430  15.591  12.909
45303W        W17728  35.429  17.084   2.691
45304W        W17729   1.734  15.636   3.648
45305W        W17730  34.476  36.073   4.611
45306W        W17731  22.635   3.952   2.304
45307W        W17732  22.250  20.728   1.793
45308W        W17733  36.507  26.003   0.386
45309W        W17734  43.013  39.530   0.313
45310W        W17735  41.877  28.560  13.973
45311W        W17736  21.556  38.911   2.720
45312W        W17737   1.315   8.706   0.777
45313W        W17738  44.414  37.917  11.418
45314W        W17739  18.615  17.649   2.901
45315W        W17740  24.206  22.189   2.412
45316W        W17741   2.947  17.123   0.862
45317W        W17742  37.451  33.555   1.899
45318W        W17743   0.927   2.759   2.259
45319W        W17744  43.928  39.049  12.987
45320W        W17745  35.413  17.603  14.758
45321W        W17746  23.125  41.897  14.474
45322W        W17747  34.550  29.502  14.326
45323W        W17748  23.058  41.324   0.253
45324W        W17749  26.540  28.166  11.021
45325W        W17750  10.245  38.016  14.456
45326W        W17751  27.554  44.867   3.353
45327W        W17752   6.248  33.114   4.619
45328W        W17753  40.511  33.912   2.666
45329W        W17754  19.041   7.253  13.518
45330W        W17755   8.258  13.714  14.895
45331W        W17756  29.943  17.293   5.617
45332W        W17757  15.716  15.732   0.439
45333W        W17758  17.180  30.550  13.425
45334W        W17759  29.648  30.162   1.216
45335W        W17760  30.083  15.659   2.716
45336W        W17761  40.911   0.875   3.741
45337W        W17762  25.598  11.165  13.384
45338W        W17763  18.136  34.497  11.574
45339W        W17764   2.902  29.146  10.948
45340W        W17765  34.887  35.063  11.093
45341W        W17766  41.359  41.340   0.457
45342W        W17767  42.425  44.884  10.640
45343W        W17768  40.464  23.135  10.931
45344W        W17769  31.577  35.017  12.413
45345W        W17770  17.244   1.972  14.448
45346W        W17771  10.778  40.834  11.073
45347W        W17772   7.800  37.391   5.159
45348W        W17773  41.923  35.489  14.869
45349W        W17774  41.377  32.589   3.650
45350W        W17775   6.799  37.029  11.860
45351W        W17776  35.394   9.149  12.929
45352W        W17777  32.455  25.713   4.299
45353W        W17778  21.721  15.116  11.867
45354W        W17779  20.677  22.093   0.270
45355W        W17780  13.751   1.771  13.419
45356W        W17781  13.764  23.215   1.724
45357W        W17782  15.321  21.083  14.911
45358W        W17783   1.949  44.374  13.508
45359W        W17784  32.964  39.478   1.788
45360W        W17785   9.291  16.261  10.522
45361W        W17786   7.826  33.614  11.913
45362W        W17787   0.839  11.738  13.349
45363W        W17788   7.276   9.869   3.190
45364W        W17789  11.344  22.190  10.918
45365W        W17790  23.057  39.399   2.358
45366W        W17791  28.043   1.476   2.295
45367W        W17792  36.036  10.852   1.301
45368W        W17793  37.491  35.561  14.482
45369W        W17794  40.889   1.754  11.518
45370W        W17795  29.069   4.861  14.434
45371W        W17796  31.585   4.246   4.662
45372W        W17797   9.748  20.064   0.823
45373W        W17798  36.529  30.952   0.424
45374W        W17799   2.835  32.485  10.629
45375W        W17800  28.042  38.466   0.477
45376W        W17801  44.847   9.700  11.017
45377W        W17802   1.242   8.733   3.825
45378W        W17803  14.774  30.534  13.804
45379W        W17804  42.285  14.660  14.291
45380W        W17805   3.806   1.374   4.166
45381W        W17806  33.523  23.585  13.809
45382W        W17807  44.443  19.575   4.338
45383W        W17808  43.356   7.259   2.712
45384W        W17809  37.565  11.806  12.883
45385W        W17810  31.020  16.150   3.788
45386W        W17811  10.776   0.380   0.842
45387W        W17812   3.770   9.289  11.439
45388W        W17813  44.780  13.136  11.014
45389W        W17814  43.772  13.827   3.207
45390W        W17815   7.858  19.182  14.864
45391W        W17816  14.190  37.858  11.963
45392W        W17817  30.093   5.758   1.844
45393W        W17818  42.361  40.456  13.474
45394W        W17819  29.074  41.538   3.806
45395W        W17820   7.742  44.812   0.430
45396W        W17821  39.545  36.511  12.847
45397W        W17822  31.133  22.033  11.558
45398W        W17823   0.832  38.433  11.473
45399W        W17824   0.856  16.269   2.868
45400W        W17825   3.847  24.222  13.830
45401W        W17826  22.129  24.683  13.469
45402W        W17827  15.698  13.308   4.600
45403W        W17828  29.470  16.594   1.314
45404W        W17829   0.826  44.932  11.978
45405W        W17830  22.138  37.884   2.902
45406W        W17831  41.451  27.648  10.559
45407W        W17832  35.587  41.906   0.951
45408W        W17833  22.080  43.280   0.247
45409W        W17834  16.216  36.494  11.089
45410W        W17835  38.542  29.548  13.906
45411W        W17836  38.879  35.436  12.088
45412W        W17837  26.669  32.603   4.641
45413W        W17838  27.536   1.440  11.117
45414W        W17839   6.421  16.763   3.835
45415W        W17840  34.938  41.444  12.568
45416W        W17841  25.126  39.432  10.989
45417W        W17842   9.778   5.872  14.405
45418W        W17843  25.136  17.654  14.451
45419W        W17844  20.759   2.802   4.820
45420W        W17845  39.551   6.843  10.524
45421W        W17846   5.268   5.371   4.318
45422W        W17847  10.143  12.293  11.543
45423W        W17848  24.708  27.504  14.805
45424W        W17849  26.001  16.258  11.965
45425W        W17850  37.421   2.872  13.530
45426W        W17851  12.778  34.411  12.872
45427W        W17852  22.232  11.303   3.206
45428W        W17853  15.325  24.198   0.369
45429W        W17854   2.371  16.316   3.348
45430W        W17855  22.651  17.095  14.412
45431W        W17856  13.630  19.538  11.949
45432W        W17857   7.262  34.982  14.317
45433W        W17858  11.369  15.099  11.603
45434W        W17859   2.403  22.649  14.397
45435W        W17860  43.893  44.919  12.043
45436W        W17861  35.098  42.878   4.315
45437W        W17862  40.470  32.550   4.273
45438W        W17863  12.735  32.613   0.346
45439W        W17864   1.977  37.512  14.823
45440W        W17865  44.764  23.507   5.104
45441W        W17866   5.905  34.509   2.379
45442W        W17867  42.497   0.318   4.799
45443W        W17868  34.113  43.406  14.976
45444W        W17869   1.276  21.131   1.725
45445W        W17870   3.816   0.809  10.888
45446W        W17871  13.167  19.638  13.401
45447W        W17872  44.789  40.314   3.851
45448W        W17873  43.513  19.670   0.432
45449W        W17874  19.129  25.027  13.960
45450W        W17875  14.598  37.084  12.943
45451W        W17876  18.118  42.502  13.820
45452W        W17877  28.941  35.441   4.135
45453W        W17878  23.158  16.284   0.255
45454W        W17879  35.565  40.479   3.772
45455W        W17880  31.575  12.856   4.801
45456W        W17881   1.350  27.045   4.122
45457W        W17882  21.035  19.204  12.013
45458W        W17883  24.666  13.649  11.934
45459W        W17884   0.287  41.831  14.974
45460W        W17885  43.835  10.301  11.915
45461W        W17886  12.248  14.773  10.431
45462W        W17887  22.505  24.706  10.993
45463W        W17888  31.939   3.330   2.707
45464W        W17889  34.956  10.830   3.867
45465W        W17890   9.840  22.150  10.419
45466W        W17891  28.031  29.974  14.768
45467W        W17892   2.750  43.279   1.756
45468W        W17893   7.685   7.701   4.238
45469W        W17894  24.053  42.899   3.270
45470W        W17895  16.277   3.457   3.811
45471W        W17896  20.545   4.287   3.256
45472W        W17897   4.911  18.695  12.464
45473W        W17898   2.460  13.754   4.228
45474W        W17899  43.471  35.459  14.982
45475W        W17900  19.713   9.736   4.828
45476W        W17901   5.844  16.300   1.725
45477W        W17902  38.975  27.478   0.468
45478W        W17903  12.134   2.798  14.024
45479W        W17904  18.722  11.266  14.862
45480W        W17905  28.517  26.134  10.572
45481W        W17906  28.183  32.921  13.464
45482W        W17907  12.798  22.551  10.420
45483W        W17908  24.011  35.865   2.326
45484W        W17909  42.813  31.050   5.280
45485W        W17910  40.401  39.933  10.463
45486W        W17911  13.778  24.581   5.220
45487W        W17912   6.227  20.768  11.863
45488W        W17913  43.895  38.493  12.457
45489W        W17914  25.096  14.183   0.329
45490W        W17915  37.860  20.715   1.215
45491W        W17916  33.909  13.822   2.354
45492W        W17917  17.658  40.418   3.646
45493W        W17918  11.143  42.364  14.323
45494W        W17919  17.718  23.029  11.602
45495W        W17920  11.352   0.299  12.835
45496W        W17921  19.073   8.691  11.402
45497W        W17922  23.061  34.422   0.283
45498W        W17923   9.212  17.207  13.035
45499W        W17924  35.595   1.889   3.200
45500W        W17925  11.194   8.214   2.777
45501W        W17926  37.507   8.399   4.197
45502W        W17927  20.045  35.883   2.811
45503W        W17928  15.674  36.520  10.614
45504W        W17929  19.631  12.639  11.520
45505W        W17930  31.403  36.085  14.014
45506W        W17931  41.031  21.104   2.257
45507W        W17932  32.891   7.673   3.677
45508W        W17933  21.159  40.870   0.264
45509W        W17934  32.009  23.102  12.467
45510W        W17935  10.738  21.099  10.083
45511W        W17936  31.496  43.015   3.329
45512W        W17937  20.713   8.244  11.061
45513W        W17938   2.870  30.067  12.834
45514W        W17939  10.639  20.534  11.375
45515W        W17940  21.569  16.649   3.723
45516W        W17941  21.658  15.109   0.778
45517W        W17942  10.356  24.084   3.353
45518W        W17943  17.631  23.591   4.728
45519W        W17944  15.105  20.094   3.153
45520W        W17945   4.783  22.189  12.450
45521W        W17946   3.951  38.382   1.719
45522W        W17947   2.777  11.257  14.908
45523W        W17948  41.477  11.314   0.861
45524W        W17949   4.736  18.603   3.239
45525W        W17950  35.463  21.514   3.702
45526W        W17951  23.231  37.998   4.273
45527W        W17952  20.057  17.795  12.476
45528W        W17953   4.250  23.647   1.265
45529W        W17954   8.878  34.404   2.864
45530W        W17955  11.336  40.811   1.718
45531W        W17956  36.055  18.162   0.459
45532W        W17957  43.005  39.966  10.156
45533W        W17958  33.514  29.156   1.297
45534W        W17959  31.487   5.934  14.310
45535W        W17960  11.805   0.868  10.504
45536W        W17961   0.921  32.937  10.455
45537W        W17962   6.805   4.703  13.945
45538W        W17963  22.743   6.396  12.852
45539W        W17964  31.411  40.899   3.218
45540W        W17965  20.559  15.318  13.458
45541W        W17966  30.121  34.593  12.990
45542W        W17967  43.016  16.631   3.702
45543W        W17968   7.831  21.083  10.133
45544W        W17969  27.990  13.151  13.509
45545W        W17970  41.528  33.015  14.879
45546W        W17971  18.054   2.260  10.141
45547W        W17972  41.328  30.959  10.902
45548W        W17973  13.676   3.815   1.329
45549W        W17974  10.344  37.403  14.013
45550W        W17975  42.913   7.896   3.852
45551W        W17976  27.138   0.949   3.301
45552W        W17977  19.197   1.768  10.913
45553W        W17978  13.721   8.799  10.416
45554W        W17979  32.619   0.876  11.919
45555W        W17980   4.767  28.164   1.264
45556W        W17981  31.453  13.296   3.691
45557W        W17982  20.126   7.298   4.149
45558W        W17983  30.911  18.285   3.870
45559W        W17984  14.201  33.916  14.847
45560W        W17985  38.369  41.529  14.432
45561W        W17986  24.481  12.272  14.514
45562W        W17987  20.540  26.618  12.960
45563W        W17988  15.729  13.776  13.980
45564W        W17989  44.399  43.405  10.502
45565W        W17990  34.372  39.442  13.829
45566W        W17991  23.638   7.233   3.295
45567W        W17992  26.088  29.464   2.870
45568W        W17993  15.213  36.584   1.262
45569W        W17994  30.124  18.169   2.368
45570W        W17995   1.303  38.049   1.756
45571W        W17996  23.123  12.246  14.790
45572W        W17997  39.483   9.822   1.272
45573W        W17998  31.046  27.159   0.875
45574W        W17999   7.832   8.743   9.941
45575W        W18000  16.315   9.695   2.238
45576W        W18001  35.865  43.414   2.245
45577W        W18002  25.119  34.068   0.849
45578W        W18003  23.726  14.287  13.891
45579W        W18004  44.912  30.911  14.981
45580W        W18005  22.083   4.764  12.836
45581W        W18006   0.471  37.062  13.463
45582W        W18007  32.971  23.227   3.333
45583W        W18008  38.915  28.111   0.437
45584W        W18009  33.036  37.849  10.916
45585W        W18010  11.284   3.303  13.521
45586W        W18011  19.638  10.730   0.798
45587W        W18012  31.002  32.933  14.004
45588W        W18013  42.351  26.120   2.265
45589W        W18014   3.377  39.386   4.824
45590W        W18015   7.371  14.813   3.293
45591W        W18016  10.166   4.282   3.782
45592W        W18017  19.068  43.997  13.441
45593W        W18018  38.961   9.651  11.435
45594W        W18019  22.712  17.149   3.841
45595W        W18020   6.910   4.891  11.896
45596W        W18021   0.885  21.068   0.394
45597W        W18022  37.477   6.873  13.311
45598W        W18023   8.798  27.114  13.961
45599W        W18024  35.418   9.714   3.291
45600W        W18025  27.602  12.771   4.302
45601W        W18026  44.976   0.977  12.019
45602W        W18027  26.659   7.843  14.970
45603W        W18028  22.711   2.381   2.356
45604W        W18029  38.831  36.528  11.997
45605W        W18030  20.221  22.633  13.350
45606W        W18031  31.458  37.016   4.616
45607W        W18032  22.526  21.020   2.869
45608W        W18033  30.432  10.367   4.193
45609W        W18034  22.537  37.516   2.209
45610W        W18035  24.626  38.387  14.417
45611W        W18036  16.736  22.049   3.286
45612W        W18037  36.068  14.199   2.254
45613W        W18038   1.837  33.582  10.503
45614W        W18039  20.202  19.764   2.219
45615W        W18040  16.098   2.291   3.378
45616W        W18041  41.911  18.584  10.968
45617W        W18042  29.537  14.260  12.043
45618W        W18043  21.118   4.381   2.321
45619W        W18044  30.049  12.182  14.295
45620W        W18045   0.322  38.035   4.131
45621W        W18046  33.084   6.740  14.329
45622W        W18047   3.253   2.442   2.212
45623W        W18048  32.049  36.084  11.075
45624W        W18049  14.776  14.714   2.232
45625W        W18050  33.939  18.713   2.821
45626W        W18051   9.327  30.059   4.185
45627W        W18052   6.870   9.668  13.911
45628W        W18053  42.967  21.130   2.358
45629W        W18054  11.776   6.701   3.789
45630W        W18055  26.205  19.595   1.327
45631W        W18056  28.077  34.529  12.052
45632W        W18057  21.069  31.547   3.358
45633W        W18058  21.202  29.050  10.573
45634W        W18059   2.413  33.486   3.366
45635W        W18060  22.622  12.177   1.826
45636W        W18061  30.960  11.745   4.677
45637W        W18062  20.617  43.950   3.684
45638W        W18063  43.326  29.536  11.054
45639W        W18064  31.962  24.043   5.264
45640W        W18065  18.652  18.703   4.837
45641W        W18066  16.758   1.240   1.696
45642W        W18067   9.211  44.931  10.612
45643W        W18068  14.636  16.741  11.607
45644W        W18069  27.059  28.586   2.356
45645W        W18070   9.648  26.562   3.708
45646W        W18071  40.337  12.343  12.895
45647W        W18072  23.721   3.345   3.795
45648W        W18073  21.565  18.697   1.866
45649W        W18074  30.060  25.997   3.180
45650W        W18075  22.613   1.742   0.386
45651W        W18076  29.037  29.496   1.335
45652W        W18077  15.679  27.557  14.509
45653W        W18078  19.063  29.462   2.403
45654W        W18079  40.442  44.871   0.946
45655W        W18080  40.973  27.132  10.433
45656W        W18081   1.354  30.045  11.972
45657W        W18082   9.152   5.289   9.503
45658W        W18083  41.520   1.908   2.370
45659W        W18084  34.608  38.044  14.466
45660W        W18085  42.333   1.735   0.445
45661W        W18086  16.701   8.269   2.231
45662W        W18087  41.474   1.871  14.475
45663W        W18088  31.512  27.085  11.038
45664W        W18089   0.852   0.925  10.631
45665W        W18090  24.018  37.569  10.995
45666W        W18091   8.347  10.344  14.293
45667W        W18092  36.098   3.789   3.801
45668W        W18093  25.114  12.644   4.235
45669W        W18094  18.058   5.331  11.017
45670W        W18095  11.151  25.627  13.943
45671W        W18096  17.164  43.432  11.453
45672W        W18097   2.790  15.590   1.373
45673W        W18098  42.815   9.327  12.056
45674W        W18099  11.244  39.417  12.530
45675W        W18100  37.850   9.356   3.720
45676W        W18101  22.138  30.427  13.881
45677W        W18102   6.788  20.697   4.794
45678W        W18103  34.515   0.932   1.849
45679W        W18104  29.532  26.566   3.228
45680W        W18105  41.510  22.656   2.338
45681W        W18106   5.862   3.801   3.369
45682W        W18107  36.474   3.771   4.664
45683W        W18108  35.885  26.141  14.486
45684W        W18109  27.448  27.197  14.447
45685W        W18110  40.994  25.008   3.266
45686W        W18111  44.367  11.647  14.764
45687W        W18112   9.343   8.888   3.707
45688W        W18113  26.185   6.301  13.830
45689W        W18114  13.260  12.280  13.312
45690W        W18115  14.649  40.534  14.013
45691W        W18116  31.949  36.003   1.736
45692W        W18117  13.832   4.338  12.878
45693W        W18118  43.968   3.231   1.239
45694W        W18119  42.909  34.937   3.729
45695W        W18120  21.092  25.162  14.470
45696W        W18121  29.551  37.947  11.392
45697W        W18122   6.721  43.881  13.368
45698W        W18123   9.340   7.848   3.365
45699W        W18124  20.691   8.782  14.384
45700W        W18125  30.148  20.650  12.426
45701W        W18126  27.058  29.541   2.181
45702W        W18127  29.647   5.795   1.242
45703W        W18128  30.070   5.255  11.075
45704W        W18129  20.606  26.117  14.309
45705W        W18130  26.508  13.839  13.888
45706W        W18131  25.694   1.797   2.289
45707W        W18132   1.280  41.300   0.820
45708W        W18133  20.652  42.470  13.346
45709W        W18134  43.843  34.007  12.993
45710W        W18135  37.429  24.578  11.858
45711W        W18136   2.438  17.179  11.027
45712W        W18137  34.589  33.094  11.001
45713W        W18138  44.398   8.233   0.951
45714W        W18139  33.930  27.593  13.813
45715W        W18140  14.714  35.089  10.931
45716W        W18141  36.590  20.718   0.316
45717W        W18142   9.334  17.633   0.262
45718W        W18143  44.471  41.944   2.835
45719W        W18144   3.710  15.795  11.466
45720W        W18145  32.116  30.988  14.850
45721W        W18146  42.876  26.602  13.433
45722W        W18147  11.833  40.333  10.556
45723W        W18148  21.588   8.791   5.804
45724W        W18149   8.893  32.595  10.405
45725W        W18150  25.981  41.314   1.433
45726W        W18151  21.530  15.668   0.873
45727W        W18152  14.760  21.734  10.110
45728W        W18153  34.398  33.048  14.808
45729W        W18154  24.672  37.474   3.367
45730W        W18155   3.780  40.800   0.726
45731W        W18156  44.327  15.812   1.812
45732W        W18157  18.612  36.025   2.861
45733W        W18158  27.671  39.934   3.650
45734W        W18159  39.810  12.290   1.278
45735W        W18160  15.284  24.588   9.964
45736W        W18161  41.296  15.199   3.205
45737W        W18162   1.395  22.080  14.915
45738W        W18163   2.908  25.202   2.733
45739W        W18164  26.483   7.681   5.291
45740W        W18165  37.084  21.622   3.698
45741W        W18166   7.189  44.999  12.830
45742W        W18167  13.684  41.424  14.483
45743W        W18168  14.830  16.106  12.880
45744W        W18169   5.740  25.591  12.566
45745W        W18170  22.577  32.908  14.969
45746W        W18171  24.153   0.805   1.723
45747W        W18172  39.039   5.879   2.836
45748W        W18173  28.501  19.737   4.187
45749W        W18174  17.768   4.231  14.938
45750W        W18175  38.563  42.952   2.736
45751W        W18176  23.649   0.379  11.950
45752W        W18177  37.374   5.368   2.855
45753W        W18178   4.700  44.294   0.412
45754W        W18179   2.749   2.805  13.352
45755W        W18180  26.629  18.295  13.951
45756W        W18181   6.770   4.805  14.994
45757W        W18182  40.869  21.592  11.998
45758W        W18183  37.525  14.327  12.456
45759W        W18184  14.651   4.272   1.407
45760W        W18185  32.093  41.010   4.633
45761W        W18186  25.611  33.926   0.350
45762W        W18187  22.167  28.110   3.630
45763W        W18188  14.258  30.522   4.831
45764W        W18189  19.267   8.715   3.273
45765W        W18190   2.356  22.111  10.590
45766W        W18191  16.119  44.754  11.462
45767W        W18192   1.260  12.709   0.440
45768W        W18193  15.716  30.982  11.030
45769W        W18194  39.945   3.892   0.770
45770W        W18195  25.071  22.201   3.312
45771W        W18196  43.975  29.059  14.511
45772W        W18197  25.986  12.256  14.299
45773W        W18198  14.603  12.192  12.970
45774W        W18199  35.947   9.885   3.668
45775W        W18200   8.209  10.276  12.462
45776W        W18201  18.236   6.292  11.919
45777W        W18202  31.522  13.254   2.373
45778W        W18203  31.909   2.757  13.030
45779W        W18204  40.822  23.998  13.475
45780W        W18205  21.692  39.329  14.019
45781W        W18206  18.201  15.176  11.001
45782W        W18207   4.709  36.450   4.647
45783W        W18208  37.870  19.716   0.472
45784W        W18209   6.213  11.322   2.742
45785W        W18210  27.613  17.638   0.244
45786W        W18211  34.076  18.243   5.764
45787W        W18212  31.479  17.650   2.762
45788W        W18213   1.865  24.126   3.720
45789W        W18214  31.004  25.010  12.428
45790W        W18215  15.674  28.122  14.321
45791W        W18216  26.587  28.613   0.266
45792W        W18217  42.884  10.355  13.950
45793W        W18218  31.534  21.018  10.582
45794W        W18219  18.663   9.334  10.632
45795W        W18220  19.051  39.421  14.928
45796W        W18221  16.104  16.711  12.410
45797W        W18222  37.018  18.277   3.164
45798W        W18223  15.132   3.402   2.740
45799W        W18224   7.689  30.624  13.460
45800W        W18225  37.999  43.297  13.823
45801W        W18226  14.241  23.599   1.426
45802W        W18227  25.980  20.593   4.805
45803W        W18228  27.191  42.290  10.467
45804W        W18229   0.887  13.308  11.889
45805W        W18230  15.202  16.076   4.839
45806W        W18231  35.909   3.744   2.332
45807W        W18232  22.690   2.731   0.425
45808W        W18233  23.516   1.480  13.515
45809W        W18234  36.519  18.725  13.840
45810W        W18235   0.382  39.060   0.450
45811W        W18236  27.042   1.970   1.308
45812W        W18237  12.267  22.636   4.706
45813W        W18238  22.065  44.834   3.856
45814W        W18239  15.744  19.226  11.986
45815W        W18240   1.863  22.665  11.874
45816W        W18241   3.243   6.784  11.422
45817W        W18242  32.956  35.398   3.232
45818W        W18243   4.426   9.222   3.197
45819W        W18244  28.544  16.657  12.348
45820W        W18245   6.342  21.056  12.970
45821W        W18246   2.449  40.407  13.045
45822W        W18247  16.725  33.096   4.169
45823W        W18248  24.564  34.468  12.368
45824W        W18249  29.623  29.456  11.996
45825W        W18250  14.803  35.529   3.798
45826W        W18251  21.752  42.482  12.001
45827W        W18252  24.556   3.335   1.246
45828W        W18253  25.152  14.185   2.706
45829W        W18254  42.509  30.435  14.391
45830W        W18255   9.665   1.337   4.625
45831W        W18256  30.615  11.266   4.760
45832W        W18257  42.525  13.250   2.899
45833W        W18258  20.531  43.272   4.609
45834W        W18259  43.990  41.343  12.976
45835W        W18260  40.367  19.580   4.325
45836W        W18261  21.085  41.853   5.148
45837W        W18262  30.452  14.806   1.388
45838W        W18263  35.982  21.647  12.014
45839W        W18264  44.826  19.711   3.662
45840W        W18265  29.999  35.904  14.907
45841W        W18266  40.965  22.997   4.323
45842W        W18267   3.849  21.070   1.917
45843W        W18268  37.061  26.034   2.823
45844W        W18269  23.538  15.285   4.621
45845W        W18270  28.584   8.790  14.512
45846W        W18271  26.987   8.317  14.828
45847W        W18272   1.772  12.131  11.509
45848W        W18273  34.021   2.777  10.421
45849W        W18274  12.254  12.709  14.410
45850W        W18275  10.770  35.872  13.957
45851W        W18276  25.125  11.755   2.761
45852W        W18277   0.885   5.933   2.852
45853W        W18278  40.448  28.439  13.342
45854W        W18279  21.110  16.626   2.382
45855W        W18280  13.823   7.827  10.563
45856W        W18281   2.315  18.687   3.300
45857W        W18282  42.947  20.711   1.911
45858W        W18283  22.677  17.234  13.397
45859W        W18284  43.982  21.582  14.818
45860W        W18285   5.284   0.441  12.952
45861W        W18286  12.802  10.774  14.993
45862W        W18287  26.088   8.264   3.866
45863W        W18288  44.872  29.146   0.932
45864W        W18289  19.692  32.127   4.179
45865W        W18290  22.041  39.529  12.915
45866W        W18291   9.668  41.026   2.379
45867W        W18292  35.906   6.409  14.433
45868W        W18293  39.060  30.655   1.745
45869W        W18294  25.590  32.632  14.804
45870W        W18295  24.599  10.281  10.026
45871W        W18296  22.017   5.933  12.409
45872W        W18297   1.858  34.018   0.476
45873W        W18298  43.874  39.432  12.550
45874W        W18299  40.856  31.101  11.009
45875W        W18300  16.578   5.199  10.489
45876W        W18301  19.102  11.622  10.951
45877W        W18302   0.900  31.033   3.232
45878W        W18303  20.639  25.050   4.146
45879W        W18304  22.125  37.365  13.958
45880W        W18305  42.505  23.157  10.898
45881W        W18306  17.147  39.521  14.892
45882W        W18307  43.793   9.182  12.083
45883W        W18308  30.566  11.207   3.811
45884W        W18309  37.455  42.981  13.380
45885W        W18310  43.457   0.263  10.920
45886W        W18311  17.257  38.880  12.381
45887W        W18312  42.411  18.225  13.470
45888W        W18313  12.128  23.990   3.375
45889W        W18314  28.985  18.051  14.796
45890W        W18315   4.405  21.633   4.129
45891W        W18316  29.991  18.587   4.727
45892W        W18317  11.140  23.030   4.304
45893W        W18318  44.373  27.997   1.429
45894W        W18319  36.365  31.973  11.603
45895W        W18320  34.002   1.923   1.369
45896W        W18321   7.877   4.840   0.417
45897W        W18322  43.974  29.980   0.328
45898W        W18323  38.837  33.007  11.106
45899W        W18324  30.467  35.590   0.454
45900W        W18325  33.075  44.000  11.577
45901W        W18326  35.954   8.659   0.770
45902W        W18327  14.693  11.361  10.406
45903W        W18328  28.556  26.456  11.074
45904W        W18329  18.146  39.403   4.680
45905W        W18330  12.846   7.374  14.463
45906W        W18331  33.601  33.929   2.239
45907W        W18332   6.367  36.079  13.885
45908W        W18333   0.416  40.321   0.861
45909W        W18334   4.237  40.847  11.965
45910W        W18335  22.622  10.332   2.836
45911W        W18336  10.229  33.409  11.530
45912W        W18337  34.420  13.199  14.829
45913W        W18338  40.458  23.570   2.688
45914W        W18339  19.711  41.295  14.351
45915W        W18340   5.755  18.743   0.904
45916W        W18341  22.690  23.722  13.994
45917W        W18342  15.238   5.252  12.890
45918W        W18343  32.028  19.185  12.519
45919W        W18344  22.072  28.633  10.895
45920W        W18345  17.091   9.848  14.794
45921W        W18346  27.949  16.752  14.331
45922W        W18347  40.505  26.466  11.089
45923W        W18348  34.919   4.905   3.154
45924W        W18349  11.845   6.817   1.313
45925W        W18350  10.784   2.276   0.338
45926W        W18351  44.404  36.437   3.666
45927W        W18352  25.547  17.612   4.208
45928W        W18353  43.327  42.805   5.222
45929W        W18354  33.563  17.285   9.477
45930W        W18355  14.281  15.141  11.437
45931W        W18356  43.496   2.841   1.756
45932W        W18357   5.422  33.469  14.894
45933W        W18358   1.387   5.370   0.458
45934W        W18359  24.596  36.414  14.284
45935W        W18360  37.949   4.731   1.322
45936W        W18361  12.642  25.469   4.219
45937W        W18362  13.684  13.293   1.743
45938W        W18363  42.000  40.379  11.914
45939W        W18364   2.466  34.873   4.721
45940W        W18365  11.317  42.889  11.059
45941W        W18366  31.439  20.168   3.696
45942W        W18367   8.174  23.186   2.861
45943W        W18368   0.416   3.370  12.546
45944W        W18369  29.165  14.159  12.883
45945W        W18370  16.149   0.973  11.405
45946W        W18371  36.842  40.369   4.251
45947W        W18372  10.149   6.721   3.733
45948W        W18373  43.412  16.740   0.756
45949W        W18374   7.328  44.338  14.285
45950W        W18375  15.083   4.825  13.398
45951W        W18376  35.410  12.789   4.113
45952W        W18377  21.064  42.943  11.509
45953W        W18378  34.008   8.814   0.303
45954W        W18379  41.848  33.390  13.005
45955W        W18380  36.037  29.452  13.523
45956W        W18381  27.949  31.969  12.892
45957W        W18382  38.529  36.933   2.665
45958W        W18383   6.352  26.639   3.383
45959W        W18384   5.360   9.237   2.289
45960W        W18385  18.635   0.347   9.949
45961W        W18386   9.153  27.643   1.737
45962W        W18387  34.995  43.320  13.541
45963W        W18388  26.114  44.969  14.949
45964W        W18389  14.734   4.810   2.825
45965W        W18390   0.837  24.722  11.985
45966W        W18391  23.509  37.919  11.918
45967W        W18392  10.814  31.597  11.472
45968W        W18393  35.971  17.216  12.537
45969W        W18394  18.785  44.494   3.366
45970W        W18395  34.610  14.133  10.631
45971W        W18396  30.000  21.638  11.867
45972W        W18397  31.032  38.876  10.567
45973W        W18398   9.177   8.883  10.618
45974W        W18399  31.080  41.526  13.390
45975W        W18400  12.178  21.751  14.415
45976W        W18401  13.182  19.225   2.868
45977W        W18402  27.121  35.049   4.714
45978W        W18403  32.534   3.812  13.361
45979W        W18404  38.374  24.600   4.767
45980W        W18405   2.771  17.719  13.992
45981W        W18406   5.814  35.999   0.294
45982W        W18407  29.466  11.815  12.005
45983W        W18408  40.383  35.911   2.737
45984W        W18409  35.916   0.438  10.976
45985W        W18410  29.112  39.436  12.465
45986W        W18411  21.245   0.283   3.277
45987W        W18412   0.379  26.986  10.952
45988W        W18413   1.266  11.735  10.902
45989W        W18414  31.466  21.207  13.440
45990W        W18415  37.443  43.793   3.642
45991W        W18416  41.298  38.062  12.539
45992W        W18417   0.259  12.255   2.837
45993W        W18418  26.061  35.862   3.369
45994W        W18419   6.424  37.927  11.972
45995W        W18420   5.857  42.778   2.839
45996W        W18421  17.771   9.220  10.448
45997W        W18422  26.634  44.368  13.865
45998W        W18423  39.468  42.413   3.752
45999W        W18424  23.599  22.633   4.761
46000W        W18425  36.013  23.119   5.671
46001W        W18426  11.301  39.945  11.964
46002W        W18427  15.161   2.931  11.878
46003W        W18428  24.001  33.488   1.241
46004W        W18429  30.085  43.904  11.127
46005W        W18430  36.451  20.158  12.995
46006W        W18431  25.160   9.848   1.224
46007W        W18432  38.023  34.971   4.606
46008W        W18433  25.560  40.010  11.087
46009W        W18434  10.795  29.952  13.466
46010W        W18435  12.705   2.823  10.444
46011W        W18436  27.662  35.404   4.709
46012W        W18437  41.404  21.529   2.333
46013W        W18438  25.705  12.782   1.802
46014W        W18439  16.261  32.121   2.813
46015W        W18440  14.221   1.244   0.730
46016W        W18441  32.899  44.384   4.160
46017W        W18442  33.078  37.489  12.458
46018W        W18443  29.086  22.731   0.927
46019W        W18444   0.929  32.497  10.508
46020W        W18445  13.330  38.504  12.508
46021W        W18446   2.230  26.158   3.227
46022W        W18447  20.114   0.250  13.514
46023W        W18448  32.102  19.229   2.682
46024W        W18449   6.333  43.464  12.435
46025W        W18450  31.074  16.153  10.893
46026W        W18451  17.067   2.776   1.883
46027W        W18452  39.389  36.885   2.693
46028W        W18453  23.052  32.927   3.223
46029W        W18454  20.162   5.386   1.386
46030W        W18455   3.359  25.194   2.367
46031W        W18456   6.208  23.611  10.144
46032W        W18457  24.568  17.643   3.363
46033W        W18458  38.521  41.926  13.899
46034W        W18459  24.674  42.450   0.255
46035W        W18460   7.887  27.165  12.536
46036W        W18461  27.039  10.723   0.885
46037W        W18462  25.553  21.617   4.348
46038W        W18463  22.214  17.567   1.295
46039W        W18464  40.414   5.197  10.509
46040W        W18465  12.183  39.510  11.029
46041W        W18466  25.103   3.768   4.172
46042W        W18467  38.457  28.605  12.011
46043W        W18468  34.023  40.867   2.325
46044W        W18469  15.677  28.987  12.418
46045W        W18470  30.933  31.153  11.597
46046W        W18471  22.070  38.962  14.436
46047W        W18472   6.393  13.709   4.307
46048W        W18473   9.868  44.504   1.842
46049W        W18474   2.244  19.187  11.596
46050W        W18475  14.783  10.659   1.802
46051W        W18476  30.427  40.515   2.372
46052W        W18477   1.422  38.569  12.411
46053W        W18478  19.702  34.503  10.482
46054W        W18479  43.358  36.564   4.248
46055W        W18480  39.960  17.718  13.960
46056W        W18481   8.835  39.913  12.575
46057W        W18482  26.673   5.431  11.932
46058W        W18483   8.749   2.243  13.854
46059W        W18484  42.404   2.301  13.876
46060W        W18485  24.529  38.885   2.266
46061W        W18486  30.519  34.608  13.448
46062W        W18487   7.236  16.123   2.305
46063W        W18488  28.939  22.576   2.238
46064W        W18489   8.859  28.944   0.866
46065W        W18490   5.913  41.509   1.397
46066W        W18491   3.905  31.044  13.014
46067W        W18492  33.123  39.988  11.024
46068W        W18493   1.786  20.188   3.243
46069W        W18494  33.024  29.514  13.974
46070W        W18495  39.910  38.983   3.642
46071W        W18496  25.615  29.935   0.902
46072W        W18497  39.480   4.906  13.854
46073W        W18498  42.498   8.262   0.785
46074W        W18499   5.390  25.215  10.954
46075W        W18500  11.760  37.926   4.149
46076W        W18501  16.078  12.345  13.929
46077W        W18502  43.307  17.282  12.432
46078W        W18503  44.475  43.946  11.960
46079W        W18504  34.902  15.759  10.447
46080W        W18505  30.500  12.700   2.866
46081W        W18506   3.389  41.462  13.357
46082W        W18507  43.938   4.398   4.325
46083W        W18508   2.400  36.567   0.738
46084W        W18509  26.988   0.493   1.215
46085W        W18510  19.703   9.308   4.169
46086W        W18511  41.303  30.949  11.495
46087W        W18512  22.633   8.350   4.829
46088W        W18513  11.711  30.594  12.033
46089W        W18514  38.979   0.950  14.927
46090W        W18515  33.409  12.314   2.684
46091W        W18516  12.262  30.128  11.421
46092W        W18517  38.378  14.131  12.379
46093W        W18518  42.882  15.792  13.030
46094W        W18519  26.178  15.706  12.563
46095W        W18520  33.392  10.380  14.022
46096W        W18521  37.359  30.091  10.613
46097W        W18522  15.609   0.343   4.736
46098W        W18523  11.756  30.643   2.810
46099W        W18524  13.348  40.978  14.494
46100W        W18525  18.193  38.045  10.593
46101W        W18526   7.763  18.178  12.933
46102W        W18527  26.957   6.232  11.918
46103W        W18528  16.803   6.878  13.794
46104W        W18529  23.192  34.923   4.200
46105W        W18530  25.693  42.948  11.472
46106W        W18531  12.162   7.271   4.239
46107W        W18532   6.707  26.978   0.447
46108W        W18533  43.348   5.687  11.383
46109W        W18534  40.940  26.177   3.681
46110W        W18535   8.686  30.488  13.315
46111W        W18536  15.581  38.843   0.395
46112W        W18537  27.056  27.633  11.403
46113W        W18538   6.804  21.025  12.408
46114W        W18539   0.756   1.803  13.956
46115W        W18540   1.411  28.930  13.056
46116W        W18541  34.414   7.742   0.810
46117W        W18542  24.478  43.928  12.015
46118W        W18543   2.789  34.966   0.291
46119W        W18544  29.946  31.512   0.300
46120W        W18545  24.713  23.524   4.161
46121W        W18546  40.801  42.423  11.487
46122W        W18547  10.189  19.564   9.980
46123W        W18548  21.618  10.305   0.373
46124W        W18549  16.595  12.353   0.852
46125W        W18550  42.777  28.539  14.803
46126W        W18551  20.681  31.415  14.774
46127W        W18552  20.173  23.192  13.405
46128W        W18553  34.441  39.970   2.287
46129W        W18554  35.410  28.126  13.538
46130W        W18555  30.076  29.090  11.590
46131W        W18556   1.382  25.005   3.164
46132W        W18557   7.302  34.033  10.427
46133W        W18558  39.870   8.674   1.899
46134W        W18559  32.486  17.751   1.324
46135W        W18560  40.390   0.779   2.722
46136W        W18561  17.741  43.877  12.894
46137W        W18562  33.121  26.208  10.443
46138W        W18563   8.672  27.609   4.312
46139W        W18564   5.334   2.421   2.747
46140W        W18565  31.031   3.935  13.061
46141W        W18566  36.855  27.076   0.476
46142W        W18567  43.000  35.105   4.685
46143W        W18568  29.003  39.525   4.605
46144W        W18569  16.283  17.300  14.495
46145W        W18570  41.944  35.045  10.456
46146W        W18571   4.893   6.323   0.911
46147W        W18572  31.049  16.107   5.775
46148W        W18573  18.613  14.744   3.825
46149W        W18574   0.411  40.995  11.385
46150W        W18575  36.094  13.783   0.289
46151W        W18576  32.395   6.678  11.080
46152W        W18577  19.106  11.369  14.801
46153W        W18578  25.038  29.125  14.824
46154W        W18579  28.528  19.614  11.382
46155W        W18580  34.954  17.598   0.885
46156W        W18581  15.740  13.161  10.558
46157W        W18582   8.669  21.586  12.991
46158W        W18583   0.940  25.637  11.086
46159W        W18584  17.307   1.946   9.977
46160W        W18585  38.892  34.532  10.888
46161W        W18586  20.062  44.873   1.757
46162W        W18587   6.401   4.428   1.728
46163W        W18588  20.208  44.810   4.817
46164W        W18589   3.245  22.046  12.906
46165W        W18590  40.533   9.723   0.335
46166W        W18591  18.071  28.437   3.367
46167W        W18592  41.483  13.641  14.919
46168W        W18593  35.938  12.137  11.916
46169W        W18594  34.005  44.767   1.870
46170W        W18595   8.768   2.905   4.167
46171W        W18596  34.500  35.402   3.152
46172W        W18597   5.281  22.633  13.315
46173W        W18598  12.350  10.878  11.116
46174W        W18599  39.377  42.521   9.533
46175W        W18600  33.591   5.885  14.464
46176W        W18601  13.837   7.278  14.952
46177W        W18602   9.677  44.963   4.820
46178W        W18603  39.851   6.298  11.581
46179W        W18604  17.777   5.689   3.302
46180W        W18605  16.090  12.309   3.149
46181W        W18606   5.923  15.138  14.972
46182W        W18607  42.786  33.940  12.391
46183W        W18608  14.826  23.045  10.571
46184W        W18609  26.481  21.688   2.812
46185W        W18610  39.949   9.317  13.347
46186W        W18611   3.812  18.763   1.742
46187W        W18612  44.774  20.748  12.829
46188W        W18613  43.002   4.421  10.529
46189W        W18614  37.869  41.431  12.389
46190W        W18615  36.022  30.499  13.387
46191W        W18616  38.905  12.704   3.382
46192W        W18617  35.912  43.318  14.938
46193W        W18618  37.857  37.946  13.842
46194W        W18619  42.828  43.308   2.670
46195W        W18620  11.852  39.355  12.500
46196W        W18621  23.527  17.115   1.925
46197W        W18622  29.451  21.652  12.846
46198W        W18623   2.386   0.932   2.375
46199W        W18624  33.052  35.971  12.360
46200W        W18625   4.218  10.362   2.220
46201W        W18626  35.897  39.422   3.291
46202W        W18627   4.890  27.945   1.906
46203W        W18628  28.087  11.324  13.402
46204W        W18629   4.230   5.848   3.664
46205W        W18630  16.727  44.793  14.848
46206W        W18631  27.945  43.016   2.224
46207W        W18632   1.927  26.028  12.062
46208W        W18633  18.555  39.445  14.971
46209W        W18634  27.107  24.980   0.427
46210W        W18635  18.228  33.025  10.110
46211W        W18636   4.442  24.998  12.465
46212W        W18637  37.960  17.678   2.674
46213W        W18638  44.271  23.237   0.790
46214W        W18639  42.496  11.815  11.461
46215W        W18640   6.243  14.148   3.668
46216W        W18641   5.868  24.003  12.941
46217W        W18642   0.327   5.222   2.335
46218W        W18643   5.921   6.775   1.899
46219W        W18644  22.150  32.138  13.380
46220W        W18645  13.245  18.238   1.875
46221W        W18646   1.280   9.708   0.844
46222W        W18647   6.339  19.685  10.927
46223W        W18648  12.135  14.831  11.460
46224W        W18649   1.956   5.223   0.418
46225W        W18650  16.624   4.703   0.308
46226W        W18651  37.533   6.789   4.113
46227W        W18652  27.957  40.926   4.273
46228W        W18653  18.693   3.426  12.907
46229W        W18654  12.339  19.562   0.351
46230W        W18655   0.454  21.645   4.128
46231W        W18656  42.889  33.470   3.801
46232W        W18657  13.124  19.745   1.826
46233W        W18658  20.548   4.716  12.828
46234W        W18659  31.524  30.461   2.219
46235W        W18660  12.836  25.015   3.781
46236W        W18661  24.641  42.340   4.745
46237W        W18662  44.456   3.329   5.238
46238W        W18663   5.217  17.140  13.444
46239W        W18664  25.517  10.375   0.365
46240W        W18665   7.665  32.507  14.808
46241W        W18666  29.622  33.058  11.064
46242W        W18667  17.791  20.153   2.290
46243W        W18668   7.197  30.502   3.779
46244W        W18669  18.124  27.538   4.687
46245W        W18670  24.071  36.588   4.256
46246W        W18671  23.490   1.952   1.286
46247W        W18672  38.843   3.949  11.095
46248W        W18673  31.026  16.232   4.242
46249W        W18674   4.761  29.109   4.651
46250W        W18675   6.427  30.014  12.451
46251W        W18676  38.369   8.665   3.152
46252W        W18677   9.285  24.655   0.372
46253W        W18678  15.686  43.890  11.570
46254W        W18679  44.998  11.237   0.305
46255W        W18680  29.630  19.551   2.775
46256W        W18681  15.696  30.941   0.878
46257W        W18682   7.396  17.617   3.723
46258W        W18683   2.735  30.951  13.348
46259W        W18684  11.195   7.718  13.989
46260W        W18685  39.000  38.849  13.842
46261W        W18686  13.117  24.070   9.606
46262W        W18687  16.790  26.075   0.428
46263W        W18688  33.874  11.137   2.392
46264W        W18689  23.586  13.790  11.429
46265W        W18690  14.171  31.048  12.054
46266W        W18691  27.650   6.777   1.321
46267W        W18692  41.981  42.443  10.006
46268W        W18693  20.212  26.584  14.476
46269W        W18694  30.531  37.410   4.191
46270W        W18695  28.136   3.292  12.576
46271W        W18696   5.389   4.334  14.368
46272W        W18697  39.979  11.745   0.923
46273W        W18698  10.677  27.648   1.695
46274W        W18699  10.364  21.669  12.089
46275W        W18700  38.974  25.480  14.890
46276W        W18701  33.975  21.662   1.229
46277W        W18702  20.140  25.037   4.757
46278W        W18703   0.983  39.956  14.334
46279W        W18704  41.310  17.163  13.336
46280W        W18705  12.643  24.027  12.846
46281W        W18706  43.315  33.938  12.488
46282W        W18707  34.004  35.377  10.906
46283W        W18708   9.315   8.672   4.282
46284W        W18709  20.602   8.335   0.461
46285W        W18710  19.673  15.136  14.810
46286W        W18711   3.723  29.667   2.901
46287W        W18712  36.896  15.725  11.879
46288W        W18713  32.475  34.403  11.954
46289W        W18714   4.371  35.061   1.416
46290W        W18715  27.073   8.731  12.925
46291W        W18716  29.018   1.849   2.855
46292W        W18717  37.469  11.683  11.524
46293W        W18718   9.862   8.813   1.713
46294W        W18719  31.025  36.413  13.816
46295W        W18720  12.265  20.130  10.979
46296W        W18721  15.816  41.441  10.442
46297W        W18722  28.947   4.250   2.803
46298W        W18723  15.259  41.503  12.928
46299W        W18724  41.382  31.493   3.280
46300W        W18725  31.927  30.998   0.483
46301W        W18726  15.085  26.696  14.837
46302W        W18727   5.783  29.064   4.804
46303W        W18728  35.049  31.629  10.504
46304W        W18729   4.929  21.681  14.824
46305W        W18730   7.780  28.998  12.427
46306W        W18731  27.566   2.451  11.952
46307W        W18732  17.292   7.346   0.397
46308W        W18733  44.346  36.541  12.353
46309W        W18734  43.500  28.129  14.515
46310W        W18735  36.508  42.005  12.937
46311W        W18736  30.564  20.157   2.673
46312W        W18737  14.592  21.201  13.395
46313W        W18738  44.805   7.220   1.841
46314W        W18739   6.856   8.316  11.603
46315W        W18740  39.360  20.184   4.197
46316W        W18741  44.294  36.939   0.775
46317W        W18742   9.239   5.196   0.340
46318W        W18743  30.090  42.778  12.416
46319W        W18744  37.336   4.208  11.608
46320W        W18745  43.888  26.615   3.688
46321W        W18746  38.385  20.265  11.048
46322W        W18747  44.768  27.603  13.979
46323W        W18748  33.891   7.847   4.737
46324W        W18749  22.159   9.307   3.678
46325W        W18750  43.851  29.480  11.027
46326W        W18751  44.337  21.577   2.416
46327W        W18752  15.581  40.811  13.532
46328W        W18753  23.045  18.733   4.299
46329W        W18754  43.801   2.288  12.831
46330W        W18755   5.695   3.306   3.314
46331W        W18756  30.546   7.842   3.214
46332W        W18757  15.609  42.382   3.661
46333W        W18758  44.805  20.184  13.495
46334W        W18759  28.013  11.709  11.123
46335W        W18760   1.337  36.434  12.995
46336W        W18761  38.419   3.812  11.019
46337W        W18762  26.609  11.212  11.537
46338W        W18763  19.281  38.076  11.602
46339W        W18764  17.260  41.332  10.573
46340W        W18765  13.287  24.495   5.710
46341W        W18766   6.846   9.888  14.410
46342W        W18767   1.408  13.683  13.516
46343W        W18768  14.272  18.634   2.681
46344W        W18769   3.950  34.904  11.396
46345W        W18770  23.635   9.149  11.589
46346W        W18771  44.357  17.635   0.792
46347W        W18772  41.940  36.528  10.409
46348W        W18773   3.738  10.292   4.310
46349W        W18774   0.970  26.990   4.673
46350W        W18775  18.745  17.141   4.325
46351W        W18776  42.349   6.189   1.742
46352W        W18777  33.006   4.225  11.906
46353W        W18778   6.738  38.023   2.673
46354W        W18779  41.947  14.154   2.841
46355W        W18780   6.896   7.749  11.017
46356W        W18781  18.059  18.189   3.377
46357W        W18782  39.860  38.481   4.597
46358W        W18783  14.096  44.881   1.216
46359W        W18784  39.995   2.251   0.959
46360W        W18785   6.867  10.780  10.952
46361W        W18786   9.346   6.691   1.756
46362W        W18787   5.379  24.225   3.632
46363W        W18788  38.431  25.545  14.833
46364W        W18789   7.232  36.592  11.573
46365W        W18790  25.201   9.647   3.854
46366W        W18791  12.336  44.931  10.994
46367W        W18792  12.646  14.295   4.721
46368W        W18793  37.364  21.226  11.007
46369W        W18794  10.155  37.031   3.805
46370W        W18795  21.227   9.298  12.836
46371W        W18796  19.134  30.981   2.416
46372W        W18797  25.209   6.400  14.862
46373W        W18798  34.501   7.900  14.792
46374W        W18799  32.636  32.474   4.178
46375W        W18800  15.131  32.990   2.325
46376W        W18801  41.812   3.316  13.394
46377W        W18802  19.098  34.533   2.669
46378W        W18803  33.496  23.533   2.700
46379W        W18804  39.352   4.339   4.623
46380W        W18805   3.924  21.027   1.366
46381W        W18806  39.555  41.523  11.383
46382W        W18807  28.178   7.876   0.287
46383W        W18808   0.432  32.968  14.394
46384W        W18809  22.013  15.620   4.670
46385W        W18810  44.286  30.624   2.276
46386W        W18811   8.762  20.052   3.224
46387W        W18812  18.240  39.892  11.110
46388W        W18813  35.576  11.230   0.811
46389W        W18814  31.417  27.969  13.457
46390W        W18815  22.049   3.823   4.636
46391W        W18816  28.627  33.476  14.975
46392W        W18817  19.666   9.172  11.053
46393W        W18818  17.780  19.175   0.842
46394W        W18819  31.907  43.428   1.429
46395W        W18820  44.933   2.895   1.707
46396W        W18821  37.533  28.502  12.532
46397W        W18822  13.284  22.031  10.458
46398W        W18823  18.642  12.133   0.246
46399W        W18824   9.339  23.133  12.071
46400W        W18825   2.455   0.382   3.345
46401W        W18826   6.199  18.560  13.844
46402W        W18827  21.699  23.000   1.852
46403W        W18828  36.913  25.135  11.481
46404W        W18829  26.699   6.903  12.409
46405W        W18830  37.459  13.837   4.206
46406W        W18831   8.406  33.568  14.289
46407W        W18832  10.174  34.073  14.395
46408W        W18833   0.302  39.845   2.190
46409W        W18834   1.929  29.599  10.433
46410W        W18835  24.672   3.948   2.371
46411W        W18836  29.946  44.762  11.944
46412W        W18837  38.489  12.766  12.575
46413W        W18838  19.149  24.514   0.789
46414W        W18839  29.000  42.309   1.731
46415W        W18840   3.744  25.519   2.837
46416W        W18841  33.939  11.354  12.572
46417W        W18842   0.455   7.320  12.407
46418W        W18843  39.973  40.417   4.750
46419W        W18844  10.862   1.781   4.686
46420W        W18845  35.580  30.988  11.510
46421W        W18846  18.720  15.301   1.226
46422W        W18847  21.616  34.109  13.395
46423W        W18848   3.914  34.493   2.375
46424W        W18849   9.368   5.404  12.892
46425W        W18850   7.771   8.268   4.747
46426W        W18851  40.917  37.842   0.830
46427W        W18852  15.201  12.844  11.976
46428W        W18853  40.536  16.606   1.292
46429W        W18854  44.378  10.200  13.316
46430W        W18855  26.145  28.169  13.814
46431W        W18856  12.126  31.451  13.833
46432W        W18857  44.426  41.460   2.742
46433W        W18858  12.197  23.640   2.315
46434W        W18859  29.924  31.605   4.612
46435W        W18860  36.019  33.411  10.484
46436W        W18861  31.056   3.729  14.860
46437W        W18862  15.688  34.889   5.310
46438W        W18863  25.204   4.873   1.440
46439W        W18864  39.331  12.766  14.490
46440W        W18865  37.376   8.273  10.412
46441W        W18866   6.193  42.324  11.939
46442W        W18867  12.843   9.326  12.936
46443W        W18868   3.243  20.055  14.421
46444W        W18869  22.722   9.781   2.704
46445W        W18870  44.275  14.819  14.953
46446W        W18871  19.610  21.246  13.372
46447W        W18872  32.076  43.010   2.758
46448W        W18873  35.036  36.524  12.448
46449W        W18874  38.941   5.873   0.879
46450W        W18875   1.781  37.392   2.820
46451W        W18876  32.015  15.086  13.842
46452W        W18877  19.744  41.917  10.446
46453W        W18878  35.985   1.751  14.898
46454W        W18879  10.728  18.295  11.518
46455W        W18880  29.972  21.715  12.875
46456W        W18881  15.674  29.552  11.063
46457W        W18882  22.673  16.289   1.252
46458W        W18883   7.186   0.763  14.511
46459W        W18884   5.726  44.885   0.378
46460W        W18885  22.251  30.919   3.181
46461W        W18886  34.870   1.249  12.962
46462W        W18887  30.574  15.289  14.446
46463W        W18888  41.351  27.488   1.719
46464W        W18889  29.494   7.873  10.910
46465W        W18890  10.264  39.477   2.823
46466W        W18891  25.064   4.409   0.939
46467W        W18892  30.122  19.712  13.882
46468W        W18893  38.414  22.230   4.738
46469W        W18894  42.291  26.583   3.192
46470W        W18895  37.452  30.042   3.252
46471W        W18896  12.118  31.536  12.947
46472W        W18897  42.426  17.705  11.078
46473W        W18898  44.866   4.756   2.361
46474W        W18899  27.138  16.641  11.573
46475W        W18900  10.634  32.933  11.447
46476W        W18901  23.552  32.987  13.054
46477W        W18902  37.946  25.181  11.114
46478W        W18903  17.200  37.467   3.812
46479W        W18904   7.788  20.567  14.402
46480W        W18905  16.111   7.711  11.590
46481W        W18906  24.578  40.381   1.287
46482W        W18907  38.548  40.329  13.379
46483W        W18908  19.207  28.647  14.815
46484W        W18909  33.912  10.807  13.908
46485W        W18910   2.235  41.505   4.187
46486W        W18911  25.062   6.801   0.402
46487W        W18912   9.320   7.211   1.912
46488W        W18913  24.043  37.951  13.807
46489W        W18914  21.235   3.231  14.839
46490W        W18915  36.590  43.278  10.961
46491W        W18916  30.550   0.284  12.824
46492W        W18917   9.190   5.689   2.706
46493W        W18918  22.162  37.525   1.262
46494W        W18919  17.615  19.184  14.433
46495W        W18920   5.384   4.766  11.603
46496W        W18921  33.396  32.489   3.329
46497W        W18922  15.148   5.913  11.860
46498W        W18923  23.188  23.110   1.273
46499W        W18924  15.274   3.399   1.375
46500W        W18925   3.711   3.719  14.919
46501W        W18926   8.231   1.965  10.499
46502W        W18927  22.997  19.165   1.418
46503W        W18928  23.155  21.253  11.919
46504W        W18929  38.067  32.089   3.221
46505W        W18930  34.866  12.650  13.955
46506W        W18931  26.198  31.976  10.608
46507W        W18932   6.313  13.743  13.891
46508W        W18933   1.282  43.484  11.002
46509W        W18934   6.693  17.641  12.497
46510W        W18935  17.101  15.766   2.688
46511W        W18936  26.056  10.747   0.417
46512W        W18937  20.594   8.393   3.158
46513W        W18938  22.622  12.161  14.485
46514W        W18939  37.831  33.393  10.465
46515W        W18940  36.582  39.921   5.191
46516W        W18941  16.669  44.285   2.343
46517W        W18942   4.895  42.449  14.327
46518W        W18943  18.051  42.908  14.768
46519W        W18944  14.168  24.215  14.782
46520W        W18945   3.714  18.210   0.845
46521W        W18946  42.027  18.750  10.495
46522W        W18947  32.627  19.666   5.284
46523W        W18948  35.058   2.321   3.669
46524W        W18949  11.307  20.089   4.185
46525W        W18950  44.952  27.003   2.881
46526W        W18951   6.681  29.966  14.289
46527W        W18952  33.622  27.115  14.787
46528W        W18953   7.201  36.917  10.029
46529W        W18954   9.826  43.306   4.809
46530W        W18955  37.963  17.591  11.597
46531W        W18956  14.326  15.651   0.727
46532W        W18957  10.155  17.278   2.847
46533W        W18958  42.792  31.947   3.156
46534W        W18959  16.728  30.463  14.820
46535W        W18960  11.227   2.841  14.819
46536W        W18961  21.188  32.481   0.244
46537W        W18962  33.112  32.399  11.035
46538W        W18963  15.657  31.924   3.704
46539W        W18964   4.748   4.389   0.906
46540W        W18965   0.865   8.712   5.215
46541W        W18966  35.565  22.174   4.685
46542W        W18967  38.387  42.795  13.987
46543W        W18968  33.462  37.486   1.303
46544W        W18969  26.557  15.772   0.888
46545W        W18970  35.367  33.616  12.964
46546W        W18971  22.573   8.833   0.906
46547W        W18972  44.914   7.240   2.292
46548W        W18973  14.650  31.589   2.265
46549W        W18974   6.299  36.593  12.524
46550W        W18975  43.345  20.651  12.886
46551W        W18976   2.898  19.243   4.207
46552W        W18977  16.193  36.089   1.422
46553W        W18978  31.994  20.191  11.089
46554W        W18979  14.653  10.280   0.447
46555W        W18980  38.386  37.043  14.432
46556W        W18981  21.648  37.446   3.832
46557W        W18982  44.315  31.507  12.037
46558W        W18983   7.239  18.159  13.523
46559W        W18984  26.477  12.164  11.464
46560W        W18985   0.984   9.657  12.012
46561W        W18986   4.710  40.043   0.348
46562W        W18987   8.354  33.488  11.592
46563W        W18988  22.653  18.651   4.710
46564W        W18989   2.849  40.383  11.868
46565W        W18990  25.132  18.559   0.469
46566W        W18991  31.513  31.023  12.944
46567W        W18992  23.175  27.581   4.260
46568W        W18993   4.218  38.905  13.848
46569W        W18994  41.325  40.337   0.423
46570W        W18995  44.468  17.170  13.886
46571W        W18996  36.544  10.645   1.849
46572W        W18997  11.836   0.423   2.778
46573W        W18998   3.258  25.501  10.888
46574W        W18999  14.242  31.922   1.293
46575W        W19000  33.111  27.624  11.603
46576W        W19001  40.533  11.847   1.726
46577W        W19002  39.544  12.815  13.825
46578W        W19003  23.102   0.752  10.633
46579W        W19004  22.586   4.773  13.392
46580W        W19005  35.037  13.215  10.477
46581W        W19006   8.737  42.510  11.901
46582W        W19007  42.857  44.433  12.004
46583W        W19008  13.641   7.696   0.888
46584W        W19009  30.912  36.041   0.262
46585W        W19010  38.943  11.306   1.710
46586W        W19011   7.668  16.085   1.372
46587W        W19012  34.375  41.442  12.974
46588W        W19013  12.844  31.059  12.389
46589W        W19014  10.278  29.932   2.200
46590W        W19015  24.128  10.265   2.359
46591W        W19016  20.687   4.300  11.076
46592W        W19017  39.870  41.872  14.907
46593W        W19018   3.889  31.509   1.274
46594W        W19019  11.332  22.682  14.012
46595W        W19020  10.765   3.853  13.800
46596W        W19021  35.464  34.110  12.064
46597W        W19022  14.753  15.173   4.772
46598W        W19023  44.339  13.334  14.483
46599W        W19024   6.234  27.527  12.396
46600W        W19025  36.591  28.063  14.884
46601W        W19026  33.014   1.902  14.770
46602W        W19027   3.217  29.670   3.156
46603W        W19028  36.499  23.641   4.710
46604W        W19029  24.606  28.174   4.663
46605W        W19030  23.566  20.056   3.651
46606W        W19031  21.137  36.907  10.588
46607W        W19032  19.670  19.635  13.499
46608W        W19033  29.615  41.319   3.236
46609W        W19034  16.705   3.804  11.413
46610W        W19035  19.200   9.162  11.397
46611W        W19036  20.752  30.153   4.116
46612W        W19037  36.079  20.707  11.460
46613W        W19038  16.573  21.679   2.766
46614W        W19039  19.768   0.808  14.345
46615W        W19040  35.013  40.341   1.356
46616W        W19041  34.484  19.091  12.897
46617W        W19042  37.564  30.426  10.951
46618W        W19043  42.444   6.420  14.353
46619W        W19044  28.177  29.536   1.319
46620W        W19045   2.467   8.893   5.199
46621W        W19046  24.563  14.227  11.592
46622W        W19047  41.944  20.095   1.750
46623W        W19048  14.118  25.155   3.305
46624W        W19049  44.342  43.494   0.316
46625W        W19050   2.258  18.248   5.179
46626W        W19051  33.033   5.915   3.770
46627W        W19052  25.985   3.424  12.961
46628W        W19053  28.534  34.405   3.344
46629W        W19054  14.707  27.565   2.406
46630W        W19055  16.075   2.883  11.941
46631W        W19056  15.247  19.636  12.858
46632W        W19057  41.414  35.408   2.876
46633W        W19058  35.383   8.399   3.285
46634W        W19059  22.536   5.349  13.922
46635W        W19060  36.851  23.226  11.043
46636W        W19061   9.353  26.135  14.383
46637W        W19062  34.043   2.900  14.910
46638W        W19063   9.208   9.750  11.048
46639W        W19064  20.031   6.870  12.916
46640W        W19065  16.666   2.245   5.264
46641W        W19066  11.285  26.978  12.065
46642W        W19067  33.565   0.404  10.560
46643W        W19068  12.733  38.863   3.631
46644W        W19069  36.987   7.749   4.661
46645W        W19070  18.176  18.566   2.417
46646W        W19071  44.803  40.308   3.168
46647W        W19072  44.006   8.247   3.829
46648W        W19073  37.033  34.927  13.432
46649W        W19074  21.258   1.816   2.790
46650W        W19075   8.204   0.307   3.261
46651W        W19076   3.371  41.820  11.971
46652W        W19077  17.266  41.852   4.303
46653W        W19078  34.085  34.486  14.966
46654W        W19079   8.357  39.839   0.394
46655W        W19080  19.090  17.266  11.468
46656W        W19081   8.171  20.029  13.332
46657W        W19082  16.205  37.017  11.047
46658W        W19083   9.741  43.773   0.906
46659W        W19084  40.872  24.643   1.300
46660W        W19085  32.392  30.941  12.938
46661W        W19086  28.174  36.041   2.409
46662W        W19087  18.283   6.869   1.299
46663W        W19088  14.178  37.847   3.656
46664W        W19089  24.033  41.902  12.534
46665W        W19090  43.497  15.805  14.905
46666W        W19091  29.984  39.000  10.484
46667W        W19092  21.748  25.691  10.485
46668W        W19093  14.158   4.793   1.851
46669W        W19094   1.828  32.127   0.919
46670W        W19095  42.412   3.265  12.082
46671W        W19096  27.077  21.679  11.466
46672W        W19097   3.729  36.055  12.067
46673W        W19098  14.232  17.740  11.007
46674W        W19099  23.615  43.470   1.756
46675W        W19100  31.524   2.259  13.494
46676W        W19101  39.451   2.360   2.328
46677W        W19102  34.086  39.441  11.878
46678W        W19103  10.291  18.558   1.220
46679W        W19104  18.599  16.630   1.280
46680W        W19105  25.007  22.551   1.921
46681W        W19106  32.983  38.473  10.943
46682W        W19107   4.407   8.751  10.457
46683W        W19108  39.868  36.555   2.716
46684W        W19109   2.959   6.806  12.508
46685W        W19110  37.572  33.104   0.752
46686W        W19111  27.520  30.636   4.744
46687W        W19112  29.498   8.228  10.925
46688W        W19113  24.548  12.239   4.286
46689W        W19114  34.581  24.482   3.373
46690W        W19115  13.606  19.547   2.709
46691W        W19116  40.949  15.277   4.285
46692W        W19117   8.311  37.434   0.415
46693W        W19118  29.955  15.689   2.341
46694W        W19119  25.022   2.884  12.370
46695W        W19120   0.380  22.550   0.831
46696W        W19121  14.618   3.876   2.777
46697W        W19122  24.051  29.074   3.289
46698W        W19123   6.910   9.200   4.789
46699W        W19124   4.865  42.376  14.966
46700W        W19125  21.122  42.311   2.662
46701W        W19126  33.998  19.211   2.333
46702W        W19127   3.734   4.761   4.603
46703W        W19128   8.165  43.285  11.920
46704W        W19129  12.677   5.212   1.865
46705W        W19130  12.755  35.447   2.394
46706W        W19131  15.139  35.026  12.827
46707W        W19132  12.758  15.758   2.810
46708W        W19133  43.768  18.664  13.479
46709W        W19134   0.282  43.314   2.190
46710W        W19135   3.402  31.980  12.579
46711W        W19136   5.427   6.205   3.857
46712W        W19137  41.966  37.499   4.131
46713W        W19138  10.802  23.109   4.113
46714W        W19139  21.614  11.848  13.468
46715W        W19140  31.052  37.918  14.022
46716W        W19141   0.433  10.815  12.451
46717W        W19142  38.466  12.241  10.989
46718W        W19143  11.250  32.402  11.109
46719W        W19144  33.525  19.680  11.405
46720W        W19145  22.111  13.295  11.512
46721W        W19146  39.853  20.218  12.085
46722W        W19147  31.460  17.685  11.468
46723W        W19148  35.854   0.400  12.053
46724W        W19149  24.017   6.909  11.864
46725W        W19150  22.016  30.946  12.987
46726W        W19151  20.567  35.982   0.431
46727W        W19152  10.731   5.891  11.569
46728W        W19153  25.543  24.147   3.341
46729W        W19154  38.966  41.923  14.359
46730W        W19155  15.594   3.259   4.667
46731W        W19156   3.822   1.483   2.759
46732W        W19157  30.115  32.109  10.002
46733W        W19158  11.766  25.185  11.448
46734W        W19159  37.031   0.403  10.425
46735W        W19160  24.138  38.512  14.998
46736W        W19161  40.982  10.291   2.866
46737W        W19162  35.084  38.901  14.400
46738W        W19163  20.051  30.963   3.775
46739W        W19164  16.740  29.936   1.254
46740W        W19165  32.559  23.531   1.713
46741W        W19166  32.552  12.798  10.459
46742W        W19167   4.286   3.343   0.478
46743W        W19168  24.141  44.754   2.808
46744W        W19169  31.503   4.885  13.413
46745W        W19170  32.008  41.511  12.921
46746W        W19171  39.838   3.320  11.978
46747W        W19172  37.007   1.835  12.917
46748W        W19173   6.754  17.580   2.748
46749W        W19174  28.108  31.448  11.381
46750W        W19175  43.451  41.034   3.666
46751W        W19176   5.427   5.437  12.357
46752W        W19177  40.051  13.166  10.488
46753W        W19178  12.356  33.884   2.189
46754W        W19179   1.780   7.377  12.833
46755W        W19180  14.681  12.760   1.355
46756W        W19181   1.901  18.193  12.972
46757W        W19182  38.930   2.819  14.298
46758W        W19183  19.056  27.504  14.015
46759W        W19184  35.106  14.095   1.219
46760W        W19185  11.265  16.770   1.704
46761W        W19186  30.961  32.530   0.407
46762W        W19187  10.664  26.000   2.886
46763W        W19188  33.576  10.671  14.775
46764W        W19189   1.483  35.035  14.980
46765W        W19190  24.976   4.798   4.146
46766W        W19191  32.932  10.836   1.875
46767W        W19192  36.456   7.188  10.464
46768W        W19193   1.890  16.710   4.717
46769W        W19194  42.878   2.761  12.096
46770W        W19195  31.507  24.537  12.049
46771W        W19196   0.834  32.573  11.028
46772W        W19197  21.597  39.004   4.150
46773W        W19198  33.991   0.351  11.129
46774W        W19199  16.673  26.501   1.415
46775W        W19200   0.827  25.982  12.912
46776W        W19201  42.350  35.441  13.394
46777W        W19202  20.650  38.569  11.494
46778W        W19203  40.489  17.129   1.696
46779W        W19204   6.312  27.650  12.835
46780W        W19205  15.692   1.342  13.867
46781W        W19206  21.043  28.561   2.771
46782W        W19207  12.350  33.481   1.847
46783W        W19208   1.349  23.673   3.695
46784W        W19209  44.916   7.324  11.106
46785W        W19210  11.822  14.267  11.022
46786W        W19211  43.819  44.495   2.668
46787W        W19212  33.581   7.783  10.107
46788W        W19213  34.057   8.354  12.551
46789W        W19214  39.914  37.000  10.917
46790W        W19215  16.202  39.976  14.473
46791W        W19216  31.549  31.091   0.327
46792W        W19217  29.662  28.159  10.080
46793W        W19218  43.770   1.967   0.414
46794W        W19219  12.326  38.973   2.753
46795W        W19220  23.696  26.176  14.964
46796W        W19221  16.274  44.918   0.470
46797W        W19222  37.481   0.285   4.300
46798W        W19223  29.036  21.707  11.378
46799W        W19224  31.576  18.587  13.900
46800W        W19225   9.173  41.932   1.864
46801W        W19226  18.260  38.850   4.136
46802W        W19227   5.385  34.886   0.317
46803W        W19228  23.503  37.459   4.665
46804W        W19229   8.326  31.963  11.600
46805W        W19230   0.468  27.003   2.809
46806W        W19231  30.926   0.859  10.426
46807W        W19232  19.699  32.936   2.676
46808W        W19233  11.248  10.789   0.481
46809W        W19234  29.565  25.048  13.034
46810W        W19235  14.674  25.664  12.532
46811W        W19236  25.542  19.263   1.338
46812W        W19237  18.120  17.306   4.615
46813W        W19238   7.294   2.876   0.393
46814W        W19239  32.042  43.371   1.866
46815W        W19240  26.513  21.571   1.275
46816W        W19241  10.641   6.286   1.397
46817W        W19242  43.310  13.642  14.352
46818W        W19243  44.856  38.951  12.467
46819W        W19244  26.023   7.725  10.508
46820W        W19245  14.340  28.617   2.228
46821W        W19246  17.596  35.996   4.317
46822W        W19247  28.435  18.673  13.519
46823W        W19248  14.244  39.822   1.385
46824W        W19249   8.758  39.997  11.391
46825W        W19250  41.951  39.397   4.226
46826W        W19251  19.122  44.476   1.268
46827W        W19252  16.582   4.916  10.415
46828W        W19253   6.329  35.532   2.252
46829W        W19254  31.554   4.323   0.343
46830W        W19255  23.658   2.264   0.962
46831W        W19256  20.702   5.850  12.553
46832W        W19257  33.560  39.491  12.990
46833W        W19258  15.214   3.906   1.719
46834W        W19259  31.116  27.611   0.850
46835W        W19260   2.282  37.954  13.437
46836W        W19261   0.251  14.693   2.262
46837W        W19262  39.014  36.019  12.520
46838W        W19263   4.294   9.868   0.362
46839W        W19264   0.964  35.907  10.126
46840W        W19265  17.174  18.119   3.303
46841W        W19266  34.417  39.052  13.486
46842W        W19267  15.580  36.509  12.996
46843W        W19268   7.797  14.737  14.939
46844W        W19269   6.422   2.394   4.803
46845W        W19270  37.557  30.157  13.357
46846W        W19271   9.748  40.017   0.254
46847W        W19272  24.580  11.332  14.910
46848W        W19273  16.277   8.179  12.057
46849W        W19274  15.206  13.113  14.880
46850W        W19275  33.119  42.026  14.277
46851W        W19276   4.708  24.089   0.899
46852W        W19277  19.186  21.263   0.895
46853W        W19278  19.546  43.849  13.884
46854W        W19279  36.480   9.781   3.812
46855W        W19280   5.432   4.212   1.724
46856W        W19281  12.274  37.842  12.974
46857W        W19282   0.476  37.021  12.372
46858W        W19283  25.515  33.551  11.590
46859W        W19284  43.460  33.479  10.027
46860W        W19285   9.659  26.968   4.249
46861W        W19286  30.478   9.347  11.006
46862W        W19287  21.207  28.102  12.959
46863W        W19288   5.776  29.426   3.232
46864W        W19289   1.482  25.664  11.590
46865W        W19290  20.599   4.426  14.354
46866W        W19291  30.150   0.315  12.347
46867W        W19292  21.225  34.501   1.866
46868W        W19293  33.506  18.270  11.562
46869W        W19294  27.188   9.752  12.921
46870W        W19295  40.854  23.689  10.956
46871W        W19296  39.998  37.416   0.953
46872W        W19297  19.121  32.461  11.118
46873W        W19298  41.036  35.599   3.816
46874W        W19299  37.540  14.179   4.708
46875W        W19300  39.995   3.954  14.427
46876W        W19301  33.544   7.799   4.320
46877W        W19302  28.624  32.498   1.289
46878W        W19303  10.268   1.268  14.358
46879W        W19304  44.873  11.260  12.502
46880W        W19305  13.840   6.736   0.275
46881W        W19306  14.617  20.032   0.484
46882W        W19307  28.665  31.968   3.848
46883W        W19308  24.031  24.022   3.840
46884W        W19309  31.446   1.773   3.234
46885W        W19310   3.305  21.048   2.204
46886W        W19311  29.010  19.127   2.409
46887W        W19312   3.434  13.299  11.921
46888W        W19313  24.190  32.451  11.528
46889W        W19314  16.649  34.870  14.451
46890W        W19315  30.093  27.146   3.160
46891W        W19316   1.975  38.501  12.050
46892W        W19317  18.598  39.883   1.730
46893W        W19318  39.952   7.212  14.508
46894W        W19319  25.639   4.841  10.145
46895W        W19320  19.278   5.874   4.675
46896W        W19321  13.600  39.331   3.668
46897W        W19322   9.344  37.345  14.945
46898W        W19323  43.806  40.881  13.481
46899W        W19324   4.767  17.110   5.186
46900W        W19325  31.486  42.809  11.475
46901W        W19326  12.308   4.247  12.837
46902W        W19327   9.254   8.895  12.440
46903W        W19328  15.802  35.869   1.718
46904W        W19329  28.559  17.715   1.311
46905W        W19330   1.826  16.210  11.037
46906W        W19331  28.127  41.415   0.389
46907W        W19332  13.835  20.151   0.320
46908W        W19333  13.120  37.051   3.199
46909W        W19334  19.732  29.637  10.638
46910W        W19335  11.858  25.055  10.609
46911W        W19336   4.265  17.080  12.565
46912W        W19337  31.094  40.828   0.474
46913W        W19338  22.663  34.072   0.452
46914W        W19339  40.984   8.284  13.865
46915W        W19340  23.636  31.584  14.283
46916W        W19341  36.494  18.637   2.880
46917W        W19342   5.702   1.377   3.785
46918W        W19343   9.834  18.245  13.396
46919W        W19344   5.280  28.124  12.399
46920W        W19345  10.797  27.195   2.766
46921W        W19346   7.311  14.333  13.415
46922W        W19347  44.458  12.773  13.808
46923W        W19348  15.802  15.589   5.136
46924W        W19349  42.777  21.701   4.747
46925W        W19350  30.646  33.409   3.296
46926W        W19351  22.114  14.777   0.287
46927W        W19352  41.437   1.474   1.874
46928W        W19353  12.176  28.953  14.914
46929W        W19354  16.570  35.915   0.916
46930W        W19355  28.151   1.909  14.842
46931W        W19356  31.102  38.047  12.989
46932W        W19357  39.825  24.482   1.804
46933W        W19358  17.238   8.678  13.814
46934W        W19359  14.614   8.205  14.879
46935W        W19360   9.782  14.187   0.966
46936W        W19361  32.522  23.086   4.348
46937W        W19362  30.513  21.048  12.936
46938W        W19363  28.959  22.550   4.824
46939W        W19364   4.260  22.613  14.841
46940W        W19365  18.678  37.355   0.277
46941W        W19366  37.069  19.554   1.808
46942W        W19367  34.479  28.999  14.298
46943W        W19368   0.918  36.935  10.934
46944W        W19369  10.873  36.359  12.443
46945W        W19370  38.943  13.303   2.666
46946W        W19371   0.278  12.612   4.656
46947W        W19372  16.740  28.100  14.795
46948W        W19373  32.615  16.729   1.263
46949W        W19374   7.700  33.513  14.453
46950W        W19375  42.857  37.355   4.657
46951W        W19376   8.748   6.206  12.572
46952W        W19377  35.094  30.160   4.723
46953W        W19378   4.283  20.158   0.786
46954W        W19379  18.775  30.093   2.860
46955W        W19380  18.055  11.322   2.835
46956W        W19381  26.641  25.570   2.366
46957W        W19382  27.978  35.573  13.861
46958W        W19383   9.797   6.911   0.796
46959W        W19384  30.952  30.542   9.929
46960W        W19385  44.454  14.829   1.789
46961W        W19386  33.033  17.707  13.390
46962W        W19387  22.689  34.602   2.669
46963W        W19388  27.512  44.772   2.376
46964W        W19389  38.074  19.236   4.730
46965W        W19390  10.682  24.665  14.474
46966W        W19391  38.335  44.894   2.901
46967W        W19392   5.201  16.730  14.359
46968W        W19393  41.954  33.092  12.356
46969W        W19394  42.417  39.339  13.859
46970W        W19395  14.800  20.132   3.663
46971W        W19396  20.662  40.908   1.434
46972W        W19397  38.544  19.698  11.074
46973W        W19398   2.840  42.312  13.324
46974W        W19399  20.188  44.885   2.817
46975W        W19400  24.985  27.181  14.501
46976W        W19401  35.872  37.434  11.570
46977W        W19402  37.847  32.085   0.858
46978W        W19403  16.127  18.115   1.773
46979W        W19404   3.385  38.841  13.404
46980W        W19405  12.721   4.271  10.624
46981W        W19406   3.322  29.105   0.459
46982W        W19407  42.474  26.197  11.066
46983W        W19408  38.963  22.131   0.857
46984W        W19409  37.891   9.663  12.879
46985W        W19410   9.340   9.731  11.890
46986W        W19411   4.398  20.045  14.382
46987W        W19412  38.503  43.809  14.845
46988W        W19413  13.141  34.518  14.515
46989W        W19414  11.150   8.191   1.286
46990W        W19415  25.637  38.448  12.468
46991W        W19416  17.791   0.475  14.993
46992W        W19417  16.130  42.399  11.063
46993W        W19418   0.830  36.856   3.274
46994W        W19419  37.378  28.057   0.754
46995W        W19420   2.351   1.821  14.438
46996W        W19421  39.895  30.422   4.782
46997W        W19422   3.757  15.231  12.870
46998W        W19423  28.971  22.049  14.775
46999W        W19424  26.459  43.475  11.394
47000W        W19425  16.789  29.492  12.040
47001W        W19426  22.130  44.892  12.342
47002W        W19427  39.876  37.030  12.367
47003W        W19428  22.740  16.640   0.483
47004W        W19429  35.597  14.799   4.291
47005W        W19430   5.916  23.538   1.742
47006W        W19431  26.118  14.312   0.452
47007W        W19432  32.576   2.408   0.267
47008W        W19433   1.358  42.504  13.383
47009W        W19434   9.196  33.925   3.337
47010W        W19435  20.681  25.605  11.451
47011W        W19436  35.398  33.582   4.689
47012W        W19437  23.039  38.355  12.985
47013W        W19438   5.299  30.945  13.947
47014W        W19439  43.773   5.909  11.502
47015W        W19440  30.534  11.317   2.781
47016W        W19441   8.390  17.220   4.764
47017W        W19442  31.141  35.019   0.312
47018W        W19443  38.969   3.218  10.987
47019W        W19444  20.710  19.256   0.755
47020W        W19445  29.636  13.328  14.910
47021W        W19446  17.133   4.411  11.866
47022W        W19447  16.679  14.181  14.880
47023W        W19448  35.407  40.972  10.483
47024W        W19449   4.447  39.504   2.863
47025W        W19450  23.579  28.936   2.274
47026W        W19451  27.021   4.928   1.243
47027W        W19452  33.386   5.913  12.965
47028W        W19453  21.261   1.468  13.432
47029W        W19454  32.524  39.869  11.526
47030W        W19455  14.260  30.098  12.479
47031W        W19456  36.059  30.524   2.275
47032W        W19457  36.862  39.841  12.366
47033W        W19458  28.113  18.779  12.928
47034W        W19459   1.807  36.058  14.960
47035W        W19460  10.731  20.182  10.435
47036W        W19461  11.783   4.409  13.511
47037W        W19462   9.757  38.916   4.186
47038W        W19463   2.733  24.539  13.048
47039W        W19464   3.434  38.052   3.651
47040W        W19465  31.522  33.065   4.816
47041W        W19466  21.582  42.967  10.438
47042W        W19467  36.094  39.878  12.360
47043W        W19468  18.077  23.593  14.019
47044W        W19469  26.565  28.964   0.387
47045W        W19470  33.890  38.877   0.374
47046W        W19471  38.033  32.470  14.391
47047W        W19472  24.495  43.487  11.967
47048W        W19473   1.414  21.224   0.252
47049W        W19474   0.287  13.826  11.612
47050W        W19475  19.704  41.826   0.447
47051W        W19476   4.941  18.144  14.840
47052W        W19477  28.448   3.297   0.837
47053W        W19478  34.913  29.579  12.060
47054W        W19479  18.698  10.295  11.024
47055W        W19480  33.099  17.079   4.354
47056W        W19481   0.802  10.250  12.969
47057W        W19482  24.655   2.237  11.384
47058W        W19483  15.217  18.219   3.683
47059W        W19484  42.906  20.145   5.235
47060W        W19485   6.865  15.140   1.225
47061W        W19486  23.019  28.037  11.108
47062W        W19487  36.466  36.363  13.996
47063W        W19488  16.737   7.181   4.821
47064W        W19489  10.747  27.514  13.851
47065W        W19490  32.549  27.551   3.850
47066W        W19491  40.893   9.150  11.426
47067W        W19492  10.729  39.344  11.043
47068W        W19493  28.129  32.394   1.213
47069W        W19494  31.647  35.428   4.188
47070W        W19495  39.461  12.840  13.003
47071W        W19496   2.300   4.439   4.773
47072W        W19497  18.669  18.167   9.951
47073W        W19498  17.092  17.100  10.587
47074W        W19499   9.769  34.535   3.796
47075W        W19500  14.793   4.245   1.763
47076W        W19501  16.759   1.941   4.312
47077W        W19502   7.900  19.221   3.701
47078W        W19503  41.020  10.226  11.941
47079W        W19504  13.690  25.089   3.745
47080W        W19505  28.993  34.903   0.923
47081W        W19506  29.088  15.699   3.769
47082W        W19507   2.429  36.495   4.624
47083W        W19508   0.287  42.419   0.335
47084W        W19509  40.404  22.248  10.483
47085W        W19510  12.713  10.737   1.243
47086W        W19511   4.284  11.253   0.245
47087W        W19512  27.084  10.765  12.460
47088W        W19513   2.925  33.442  14.014
47089W        W19514   2.848   8.707  14.009
47090W        W19515  17.617   2.749  14.996
47091W        W19516  33.964  40.350  11.917
47092W        W19517  14.314  21.139  13.389
47093W        W19518  33.585  41.438   0.905
47094W        W19519  17.646   3.362  11.591
47095W        W19520  20.090  10.235  13.464
47096W        W19521   3.295   5.850   0.928
47097W        W19522  15.129  24.504   1.411
47098W        W19523  24.030  27.596  12.056
47099W        W19524  27.135  22.682  12.823
47100W        W19525  12.330  33.421  11.555
47101W        W19526  15.656   4.265   3.191
47102W        W19527   4.290  24.519  14.332
47103W        W19528  43.952  36.410  10.996
47104W        W19529  28.961  20.090   4.765
47105W        W19530  14.635  34.897   1.242
47106W        W19531   2.237  15.102  11.612
47107W        W19532  38.520  34.377  13.807
47108W        W19533  33.475  42.475   1.366
47109W        W19534   8.663   9.645  14.836
47110W        W19535  17.678  32.603  13.791
47111W        W19536  20.060   6.400   4.619
47112W        W19537   4.709  27.074  10.601
47113W        W19538  31.617  24.058  12.028
47114W        W19539  20.120  25.077  10.461
47115W        W19540  39.501   8.784   1.729
47116W        W19541  37.528  36.574  13.516
47117W        W19542  13.830  17.674  10.456
47118W        W19543  18.584  40.989  13.352
47119W        W19544  26.959  37.996  11.968
47120W        W19545  34.522  19.756   4.146
47121W        W19546  43.458  35.072   4.801
47122W        W19547  18.210   8.769   0.762
47123W        W19548  24.105  37.395  11.401
47124W        W19549  44.389   0.448  14.465
47125W        W19550  32.931  21.144  13.505
47126W        W19551  29.573  11.723  11.017
47127W        W19552  14.250   0.352   4.620
47128W        W19553  31.504  42.493   4.195
47129W        W19554  26.698  25.669  12.878
47130W        W19555  30.915  31.044   4.731
47131W        W19556   6.294   0.909   0.827
47132W        W19557  44.962  10.671   0.787
47133W        W19558  43.842  23.696   1.398
47134W        W19559  18.712  20.716  14.384
47135W        W19560  22.622  12.763  11.969
47136W        W19561  10.217  40.891  11.007
47137W        W19562   9.337  38.920   3.204
47138W        W19563  33.515  35.539   4.674
47139W        W19564  18.705   1.752  14.826
47140W        W19565  17.129  38.040   2.339
47141W        W19566  28.650   1.813   3.798
47142W        W19567   3.441  44.969  12.992
47143W        W19568  10.193  43.316   1.865
47144W        W19569  25.551  44.806   4.819
47145W        W19570   6.399  43.963  14.375
47146W        W19571  44.352  18.214   4.118
47147W        W19572  34.369  37.511  10.412
47148W        W19573   2.316  34.042  12.398
47149W        W19574   1.950  21.698  14.310
47150W        W19575   6.799  20.722  14.293
47151W        W19576  10.204  36.970   0.774
47152W        W19577  12.280  40.851  14.023
47153W        W19578  18.106   4.898  12.463
47154W        W19579  31.056  33.579   0.932
47155W        W19580  36.868  13.841   1.410
47156W        W19581  17.187   9.766  11.909
47157W        W19582   8.265  36.371   9.931
47158W        W19583  41.299   0.297   0.965
47159W        W19584  40.348  43.905  14.768
47160W        W19585  22.506   7.194   0.746
47161W        W19586  42.914  20.706  14.945
47162W        W19587  10.328  31.461   0.904
47163W        W19588  40.328   4.753  12.000
47164W        W19589   7.291  23.494   0.838
47165W        W19590  26.682  16.568   3.740
47166W        W19591  14.681  28.501  14.357
47167W        W19592   3.418   6.186   2.774
47168W        W19593  40.517  18.637  13.791
47169W        W19594  32.125  13.342  10.465
47170W        W19595  18.639  16.266   3.633
47171W        W19596  37.574   2.392  13.845
47172W        W19597   9.791  20.261   1.806
47173W        W19598   0.843  17.150   4.153
47174W        W19599   8.881  34.377   0.756
47175W        W19600  16.312  25.612   1.707
47176W        W19601  32.567  15.084  13.530
47177W        W19602  26.658   1.756  13.316
47178W        W19603  10.672  33.553   3.640
47179W        W19604  40.419  39.478  11.477
47180W        W19605   7.753  29.173  10.544
47181W        W19606  14.783  36.500  11.051
47182W        W19607  40.023   5.768  11.119
47183W        W19608  18.099   6.255  14.301
47184W        W19609   9.232  11.854   0.300
47185W        W19610  36.061  19.735  11.942
47186W        W19611  22.647  25.497  14.351
47187W        W19612  29.492  12.339  11.960
47188W        W19613  17.112  20.029   1.285
47189W        W19614  28.541  14.253  10.549
47190W        W19615   9.209  36.531  11.952
47191W        W19616  32.104  12.743   2.252
47192W        W19617  21.746  23.075   3.799
47193W        W19618   7.275  30.050  10.887
47194W        W19619  30.921  19.688  10.420
47195W        W19620  26.651  41.000   4.836
47196W        W19621  26.089   6.316  11.552
47197W        W19622  15.198   8.161   1.789
47198W        W19623  30.466   4.783  14.031
47199W        W19624   2.232  38.458   0.789
47200W        W19625  18.726  42.935  14.834
47201W        W19626  17.758  11.686   1.813
47202W        W19627  38.926  44.318  14.276
47203W        W19628  11.307  31.549   3.751
47204W        W19629  38.537  26.100   3.803
47205W        W19630   9.185  19.737   3.861
47206W        W19631  18.648  21.612   4.240
47207W        W19632  12.160  35.061  10.518
47208W        W19633  30.099  36.538  14.763
47209W        W19634   4.942  25.187  11.557
47210W        W19635  14.592  18.752   3.791
47211W        W19636   7.822  29.173   3.298
47212W        W19637   2.358  30.639  14.837
47213W        W19638  23.634  23.115   0.245
47214W        W19639  11.679  38.923   9.931
47215W        W19640  26.030  31.537  14.308
47216W        W19641  21.071   1.290  11.105
47217W        W19642  35.049  29.124  11.525
47218W        W19643  32.624  16.193  14.457
47219W        W19644   0.403  35.856   1.345
47220W        W19645  27.188   2.887   2.275
47221W        W19646  22.708  40.895  14.919
47222W        W19647  17.101  11.857  13.324
47223W        W19648  13.658  31.498  11.032
47224W        W19649  15.608  43.437  11.574
47225W        W19650  15.213  28.436   2.284
47226W        W19651  19.780  15.200  13.517
47227W        W19652  28.633  41.822   1.212
47228W        W19653  39.341   8.303  13.993
47229W        W19654  18.197   1.396   3.638
47230W        W19655  15.584  39.326   4.143
47231W        W19656  22.619   0.964   4.155
47232W        W19657  37.338  21.694  10.981
47233W        W19658  26.104  23.030   1.233
47234W        W19659   3.833  44.443  13.952
47235W        W19660  19.075   7.271   2.399
47236W        W19661   9.654  17.563   4.308
47237W        W19662  37.352  16.096   1.717
47238W        W19663  21.653  37.580   0.450
47239W        W19664   9.199  43.000  11.513
47240W        W19665  31.004  31.535   1.822
47241W        W19666   0.442   4.203   0.812
47242W        W19667   6.867  31.610   4.154
47243W        W19668   2.795   4.874   3.792
47244W        W19669  39.934   7.750   0.318
47245W        W19670  27.603  36.416  14.971
47246W        W19671  15.605  34.888   1.770
47247W        W19672   6.419  29.605   1.334
47248W        W19673  20.667  19.620  13.058
47249W        W19674  24.499  18.643   4.352
47250W        W19675   9.643  41.291  13.838
47251W        W19676  24.981   2.374   1.927
47252W        W19677  20.733  40.316  10.626
47253W        W19678  29.128  13.293  12.433
47254W        W19679  28.148  41.481  12.406
47255W        W19680  20.588  17.191  10.963
47256W        W19681  19.744  36.405   4.717
47257W        W19682   9.818   2.934   1.342
47258W        W19683  37.977  38.559  11.919
47259W        W19684  11.621  15.675   2.681
47260W        W19685  17.163  30.006   9.564
47261W        W19686  22.551  19.751   3.254
47262W        W19687  26.094  41.867  12.516
47263W        W19688   7.409  22.709  10.627
47264W        W19689  18.111  24.494  13.049
47265W        W19690  36.007  20.750   3.304
47266W        W19691  38.920  33.930   3.632
47267W        W19692   1.396  39.444  10.467
47268W        W19693  27.556   4.842  10.956
47269W        W19694  29.161  42.339   3.647
47270W        W19695  40.329  42.320   1.735
47271W        W19696  19.187  13.635   3.637
47272W        W19697   3.442  15.206  11.084
47273W        W19698  10.820  34.905  14.385
47274W        W19699  44.265  32.511   3.320
47275W        W19700   4.750   0.474  14.406
47276W        W19701   6.300  35.563   0.459
47277W        W19702   6.364  15.607   1.756
47278W        W19703  32.057  29.441  10.521
47279W        W19704   3.412   5.320   3.676
47280W        W19705  16.772  14.662  14.351
47281W        W19706  25.141   7.746   1.892
47282W        W19707  22.147  26.176   2.288
47283W        W19708   3.275  31.527   3.684
47284W        W19709  26.585   6.338   4.613
47285W        W19710  24.683   1.835  12.442
47286W        W19711  28.492  32.510  11.915
47287W        W19712  15.307  21.611   1.696
47288W        W19713  20.683  12.814   3.689
47289W        W19714  21.118  37.034  11.544
47290W        W19715  34.889  24.580  12.023
47291W        W19716   3.914  41.003   2.402
47292W        W19717  33.599  22.526   0.729
47293W        W19718   5.347  44.474   0.794
47294W        W19719  42.498  25.162   4.164
47295W        W19720  29.553  44.770   2.382
47296W        W19721   6.826   9.838   2.888
47297W        W19722   1.889  11.284   3.296
47298W        W19723  28.103  21.539  13.315
47299W        W19724  36.948  21.127   3.286
47300W        W19725  20.167  15.230  13.021
47301W        W19726  28.013  18.169   4.636
47302W        W19727  29.985  17.091   1.402
47303W        W19728  18.573  41.955   3.371
47304W        W19729  27.582  35.899   3.792
47305W        W19730  32.107  14.094   1.318
47306W        W19731  17.607   1.295  12.343
47307W        W19732  15.327  17.254   1.415
47308W        W19733   3.383  38.561   4.799
47309W        W19734  22.028   3.873  10.495
47310W        W19735  35.436  23.558  14.429
47311W        W19736  13.168   9.773   3.667
47312W        W19737  31.590   0.969   2.838
47313W        W19738  19.779  42.373   2.816
47314W        W19739   0.450  43.409  12.406
47315W        W19740  16.692  26.155   0.819
47316W        W19741  14.596   2.863   1.802
47317W        W19742  25.484  38.062   1.737
47318W        W19743  12.240  28.500   3.159
47319W        W19744  21.721  21.695  12.997
47320W        W19745  36.543   6.417   0.806
47321W        W19746   2.427   7.369   3.223
47322W        W19747  42.332  33.059  12.342
47323W        W19748  32.503  18.721  13.808
47324W        W19749  40.447  21.028   4.666
47325W        W19750  33.417  44.421  12.356
47326W        W19751  28.183   3.948  11.541
47327W        W19752  40.835  37.892   1.776
47328W        W19753  19.055  15.593  13.527
47329W        W19754  38.900  36.389   1.741
47330W        W19755  26.629  32.550  12.484
47331W        W19756  18.158  23.182  10.443
47332W        W19757  41.835  35.474   0.441
47333W        W19758  10.652  29.651   3.762
47334W        W19759  29.602   5.803  14.925
47335W        W19760  34.081   1.453   0.430
47336W        W19761   8.169  21.229  10.572
47337W        W19762  40.468   3.873   2.368
47338W        W19763  42.305  12.839   3.698
47339W        W19764  37.860  40.821   1.796
47340W        W19765  18.678   4.331  13.852
47341W        W19766   7.785  18.132   2.736
47342W        W19767   4.792  39.355  13.454
47343W        W19768  38.899  17.798   4.325
47344W        W19769  43.502  35.973   3.709
47345W        W19770  11.627  36.895  10.943
47346W        W19771  38.010  28.611   3.380
47347W        W19772  43.491  28.659   4.697
47348W        W19773  22.146  39.399  13.892
47349W        W19774  29.145  37.988  13.482
47350W        W19775  44.930  19.133  12.936
47351W        W19776  40.420   2.457   0.947
47352W        W19777  43.422  40.495  11.469
47353W        W19778  26.561  40.805   1.913
47354W        W19779   6.837  28.069   2.727
47355W        W19780  18.676  43.278  13.545
47356W        W19781  16.076  30.080   3.672
47357W        W19782  44.893  23.617  10.594
47358W        W19783   5.688  13.312   1.331
47359W        W19784  27.687  10.665  13.854
47360W        W19785  20.748  35.032  13.425
47361W        W19786   1.436  27.518   1.336
47362W        W19787   8.684  15.693  13.445
47363W        W19788  32.435  13.115   1.331
47364W        W19789  18.252  36.913  12.515
47365W        W19790   5.780   8.324  14.397
47366W        W19791  42.020   8.862   4.643
47367W        W19792  42.967  30.566  12.014
47368W        W19793  29.142  31.920   4.270
47369W        W19794  41.364   2.943  10.606
47370W        W19795  33.385  22.099  14.846
47371W        W19796  11.840  36.050  11.470
47372W        W19797  26.037  14.108   1.265
47373W        W19798  12.201  18.554   2.209
47374W        W19799   1.916  34.047   1.268
47375W        W19800  30.643  39.556  12.999
47376W        W19801  31.918  22.054   0.319
47377W        W19802   7.365  23.544  14.455
47378W        W19803  13.204  33.391  12.959
47379W        W19804  20.607  40.984  14.941
47380W        W19805  35.365  35.015   2.207
47381W        W19806  24.538  37.396   2.254
47382W        W19807   5.390  12.791  14.363
47383W        W19808  24.653  38.867   3.198
47384W        W19809   9.807  37.028   1.322
47385W        W19810  29.079   9.655  10.631
47386W        W19811  20.637   0.334   4.142
47387W        W19812  22.104  18.570  12.475
47388W        W19813  23.088  36.581  11.031
47389W        W19814  14.824  15.103   3.301
47390W        W19815  41.482  40.044  14.894
47391W        W19816  27.014  42.953  14.509
47392W        W19817  14.203  30.623   3.235
47393W        W19818  10.325  19.694   2.845
47394W        W19819  19.659  28.470   3.714
47395W        W19820  40.905  33.894   1.413
47396W        W19821   9.377   9.232  12.384
47397W        W19822  33.511  40.357  10.431
47398W        W19823  27.614  28.527  12.391
47399W        W19824  31.111  32.484  14.314
47400W        W19825  25.591  15.247   0.869
47401W        W19826   0.341   6.737  12.351
47402W        W19827  37.529  17.735  11.069
47403W        W19828   8.691   2.423   2.281
47404W        W19829   1.356  12.276  13.338
47405W        W19830   8.754   4.735  11.565
47406W        W19831   6.858  35.503   1.255
47407W        W19832  40.798  10.380   1.366
47408W        W19833  29.608   2.436   3.849
47409W        W19834  37.540  32.043   3.378
47410W        W19835  36.865  27.598  14.412
47411W        W19836  27.989   6.272   0.811
47412W        W19837   9.297  14.668   2.813
47413W        W19838  39.342  15.614   0.342
47414W        W19839  17.117  32.392   1.852
47415W        W19840  19.536   9.706   0.252
47416W        W19841  15.664  44.901  12.856
47417W        W19842  11.169  21.078  14.431
47418W        W19843  39.891  43.842  10.901
47419W        W19844  32.562  19.236   1.266
47420W        W19845  32.946  37.942  11.949
47421W        W19846  21.658  43.348   0.432
47422W        W19847  23.659  25.712   2.696
47423W        W19848  22.211  42.346   4.204
47424W        W19849  19.626   8.269   1.258
47425W        W19850   0.767  37.960   2.372
47426W        W19851  18.634  43.417  13.863
47427W        W19852  14.667  29.515  13.821
47428W        W19853  15.643  28.562   3.279
47429W        W19854  38.959  20.028   4.156
47430W        W19855   3.219  41.044  11.882
47431W        W19856  31.966  39.458  11.481
47432W        W19857  18.122  30.636  10.481
47433W        W19858  19.664  14.596  12.402
47434W        W19859  16.093  11.239   0.441
47435W        W19860  30.504  35.049   2.824
47436W        W19861  30.606  32.994   4.717
47437W        W19862  30.969  18.550  14.326
47438W        W19863   6.888   6.269   0.727
47439W        W19864  24.720  22.099  11.566
47440W        W19865   2.246  13.706  12.460
47441W        W19866  23.645   2.262  14.452
47442W        W19867  35.363  44.778  10.448
47443W        W19868  41.507   6.401  11.541
47444W        W19869  20.572  29.569   3.791
47445W        W19870  21.082  23.219   4.652
47446W        W19871  42.433  29.483   1.412
47447W        W19872  37.858  35.891   0.268
47448W        W19873  20.765  13.278  10.913
47449W        W19874  15.621   1.906   3.780
47450W        W19875   4.338   9.151   0.792
47451W        W19876  31.925  37.489   1.932
47452W        W19877  34.958  14.287  10.965
47453W        W19878  23.710  29.070  13.882
47454W        W19879  28.977  41.921  12.520
47455W        W19880   7.187   0.317   0.733
47456W        W19881  34.044  36.009   1.731
47457W        W19882  29.927   1.258  12.477
47458W        W19883  23.618  23.648  10.444
47459W        W19884  18.622  35.076  14.389
47460W        W19885  38.983   3.848   0.816
47461W        W19886  23.217  13.767  12.952
47462W        W19887   3.740  31.643   2.349
47463W        W19888   2.904  13.344   0.263
47464W        W19889  14.177  37.339  10.996
47465W        W19890   6.364   5.239  10.520
47466W        W19891  17.098  30.141   3.864
47467W        W19892  21.238   9.395   0.436
47468W        W19893   6.706  11.736  12.875
47469W        W19894  39.875   4.295  11.589
47470W        W19895   6.749  24.522   0.347
47471W        W19896  13.646  25.584  14.293
47472W        W19897   2.449   2.326  11.038
47473W        W19898  33.478  44.907  14.400
47474W        W19899   8.850  37.883   5.606
47475W        W19900  44.410  35.462   1.354
47476W        W19901  18.239  41.903   4.156
47477W        W19902  29.919  42.940   3.356
47478W        W19903   6.710  22.629   1.736
47479W        W19904  42.436  23.490  11.500
47480W        W19905  21.686  37.569   2.273
47481W        W19906  14.206  43.908   2.277
47482W        W19907  15.180   9.787   2.748
47483W        W19908   4.752  17.245  11.865
47484W        W19909  14.328  19.137  14.382
47485W        W19910   6.739  33.047  12.014
47486W        W19911  38.410  38.977  14.795
47487W        W19912  26.102   8.843   0.936
47488W        W19913  17.133  13.191   4.139
47489W        W19914   8.806   5.254   2.739
47490W        W19915   7.803  12.239   0.893
47491W        W19916  40.367  16.189   1.297
47492W        W19917  28.950  32.626  13.418
47493W        W19918  26.135  19.699   1.701
47494W        W19919  22.589  36.013  12.994
47495W        W19920  26.185  18.582  12.575
47496W        W19921  12.302   0.983   2.789
47497W        W19922  41.991   1.405  12.559
47498W        W19923  29.064   7.363  10.415
47499W        W19924   0.757   3.326   2.211
47500W        W19925   1.914  37.356  12.566
47501W        W19926   0.742  34.592   5.182
47502W        W19927  26.966   6.805  10.614
47503W        W19928  39.932  22.745  10.545
47504W        W19929  12.781  19.126   2.347
47505W        W19930  16.762  15.204  12.083
47506W        W19931   9.673  27.540   2.398
47507W        W19932  22.189  28.170  12.925
47508W        W19933  18.133   1.241  10.150
47509W        W19934  14.167  26.985   1.327
47510W        W19935  31.522   7.412   3.231
47511W        W19936  38.042   5.427  12.411
47512W        W19937  15.697  30.988  14.296
47513W        W19938   9.220  28.033  14.982
47514W        W19939  40.884   9.287  11.896
47515W        W19940  27.572  13.684  11.496
47516W        W19941  21.050  32.079   0.315
47517W        W19942  16.297   3.356  14.983
47518W        W19943  44.349  24.066   3.760
47519W        W19944  18.625  10.343   0.371
47520W        W19945  32.066  29.532  12.074
47521W        W19946   7.766   3.858  11.500
47522W        W19947  14.150   1.351   4.181
47523W        W19948  38.075  36.526  14.398
47524W        W19949  27.650  34.929   4.740
47525W        W19950  35.584  29.080  11.923
47526W        W19951   5.196   0.958   2.837
47527W        W19952  24.173  11.342  13.937
47528W        W19953  36.052  16.076   4.637
47529W        W19954  35.873  41.945   4.278
47530W        W19955  43.967  36.413   2.863
47531W        W19956  30.644  14.157   0.464
47532W        W19957  26.973  16.225   1.860
47533W        W19958  16.187  24.987   4.169
47534W        W19959   5.341  36.032   0.893
47535W        W19960  34.097  18.113   4.272
47536W        W19961  42.865  41.946   3.831
47537W        W19962  29.618  18.732   1.803
47538W        W19963   4.309  44.272   3.840
47539W        W19964   5.831  19.111   3.278
47540W        W19965   6.425   8.833   2.800
47541W        W19966  29.546  39.503   0.901
47542W        W19967  25.217  21.030   2.830
47543W        W19968  13.671  40.933  12.522
47544W        W19969  28.160  41.439  10.428
47545W        W19970  33.948  42.818   1.280
47546W        W19971  41.342  43.477  14.502
47547W        W19972  18.190   6.199   1.332
47548W        W19973   2.413  11.173  14.435
47549W        W19974  40.466  34.384  10.510
47550W        W19975  13.748   6.349  13.817
47551W        W19976  10.237   5.407  12.372
47552W        W19977  14.825  36.447   0.763
47553W        W19978   1.419  35.377   3.711
47554W        W19979  25.692   9.236  13.838
47555W        W19980  40.925   8.695  11.906
47556W        W19981  30.458  37.499  14.911
47557W        W19982  15.703   5.904  10.507
47558W        W19983  19.080  26.023   1.854
47559W        W19984  35.868  40.349  11.539
47560W        W19985  41.976   0.471   4.675
47561W        W19986  10.233   0.344   1.417
47562W        W19987  22.173  38.458  11.944
47563W        W19988   3.936  43.828   2.787
47564W        W19989  17.577  28.036  14.809
47565W        W19990   1.459   6.249  10.613
47566W        W19991  13.665   4.758   4.767
47567W        W19992  10.150   2.846   0.430
47568W        W19993  22.575   1.833   0.781
47569W        W19994  22.034  28.596  12.578
47570W        W19995  32.063  31.033  14.004
47571W        W19996  23.021  39.442  12.472
47572W        W19997  19.098  32.599  14.470
47573W        W19998   8.796  10.295  13.022
47574W        W19999  20.212  18.130   0.742
47575W        W20000   5.316  41.822  10.492
47576W        W20001  10.779  44.396   2.788
47577W        W20002  20.186  32.572  14.493
47578W        W20003  10.138   6.794  13.898
47579W        W20004   3.384  36.489  12.366
47580W        W20005  44.265  39.954  10.080
47581W        W20006  15.237  17.150  13.800
47582W        W20007  23.559  36.039   1.337
47583W        W20008   5.251  15.652   3.261
47584W        W20009  11.292  14.099   4.627
47585W        W20010  11.297  35.502  12.037
47586W        W20011   5.852  25.615  13.393
47587W        W20012  23.596   3.366   3.235
47588W        W20013  33.897   2.903   3.199
47589W        W20014  18.662   5.693  12.474
47590W        W20015   0.777   3.741   3.325
47591W        W20016  19.669  39.015  11.398
47592W        W20017   0.801  40.369  12.564
47593W        W20018  20.694  44.908  12.458
47594W        W20019   4.706  16.587  14.851
47595W        W20020  36.085   9.757  10.951
47596W        W20021   1.351  32.548   0.464
47597W        W20022  23.690   9.334   4.229
47598W        W20023  19.712  33.963  12.931
47599W        W20024  40.807  25.050  11.044
47600W        W20025   1.833  24.135   3.186
47601W        W20026  34.594  23.193   3.327
47602W        W20027  24.191  42.397   0.913
47603W        W20028  26.503   6.408   2.727
47604W        W20029  40.427  29.588  13.007
47605W        W20030  12.229   5.825   0.815
47606W        W20031  28.102   7.214  11.591
47607W        W20032  16.655   3.802   3.858
47608W        W20033  23.493  42.013  10.537
47609W        W20034  18.079  37.574   0.826
47610W        W20035  26.691  21.027   4.707
47611W        W20036   5.722   3.224   1.349
47612W        W20037  28.607  34.013   3.868
47613W        W20038   5.700   5.799  14.484
47614W        W20039  10.326  31.406   2.754
47615W        W20040  27.057  12.221  12.036
47616W        W20041  17.714   6.267   1.421
47617W        W20042  43.018   7.249  13.862
47618W        W20043  15.328  12.816  10.534
47619W        W20044   2.337  40.500   0.785
47620W        W20045  35.557   4.387  12.408
47621W        W20046  44.893   0.824   3.359
47622W        W20047  16.211  12.138  14.505
47623W        W20048   8.671  25.112  12.484
47624W        W20049  15.314  20.740  13.418
47625W        W20050  34.373  13.285   0.406
47626W        W20051  43.464  37.972   4.763
47627W        W20052  12.296  14.227  11.388
47628W        W20053   2.242  38.057   0.434
47629W        W20054  26.113  16.123   2.184
47630W        W20055  28.543  41.787   1.907
47631W        W20056  44.948  20.160   3.760
47632W        W20057  31.026  27.994   4.274
47633W        W20058  16.239  24.074  14.843
47634W        W20059  24.496  36.515  11.932
47635W        W20060  44.477   4.777   4.725
47636W        W20061   8.371   8.181  12.884
47637W        W20062  20.048  25.532  14.506
47638W        W20063  41.787  11.807  11.062
47639W        W20064  36.891  24.710   1.895
47640W        W20065   1.411  36.556   3.177
47641W        W20066  26.173  37.944  14.852
47642W        W20067  22.711   6.189  10.515
47643W        W20068  11.272  15.622   0.858
47644W        W20069  43.829  16.756   0.453
47645W        W20070  27.941   7.842  11.989
47646W        W20071   2.344  42.524  14.276
47647W        W20072  28.126  35.411  10.964
47648W        W20073  35.474   7.714  11.891
47649W        W20074  13.805  13.318  11.436
47650W        W20075  42.020  17.232  10.984
47651W        W20076  32.133   0.954  12.030
47652W        W20077  22.589   8.267   2.288
47653W        W20078  33.408  44.279   4.742
47654W        W20079   5.262  43.457   3.690
47655W        W20080  27.184  14.767   2.302
47656W        W20081   8.361  38.949  14.308
47657W        W20082   0.487  17.099  10.619
47658W        W20083  33.556  42.320  14.346
47659W        W20084  41.969  19.090   1.394
47660W        W20085  38.069  22.654   3.647
47661W        W20086  41.306  13.130   2.821
47662W        W20087  42.032  15.771   0.404
47663W        W20088  31.486  13.837  11.451
47664W        W20089  34.550  35.999  13.845
47665W        W20090  21.239   9.204   2.864
47666W        W20091   2.926  24.131   4.143
47667W        W20092  36.951  22.719   4.835
47668W        W20093  38.518  30.617   2.398
47669W        W20094   2.894   1.349  11.003
47670W        W20095  39.050  40.360   3.852
47671W        W20096  25.629  14.206   3.323
47672W        W20097  37.027  18.704  13.813
47673W        W20098  22.090  41.013  12.854
47674W        W20099   2.940  23.019  13.915
47675W        W20100  26.116  24.688  13.927
47676W        W20101  41.959  19.768   2.335
47677W        W20102  14.171  30.026   1.335
47678W        W20103  17.225  33.905  14.952
47679W        W20104  32.915   6.826   2.410
47680W        W20105  33.557  14.171  10.589
47681W        W20106  43.473  14.306  10.571
47682W        W20107  43.995  44.913   2.716
47683W        W20108  23.049  25.543  13.889
47684W        W20109  42.403  44.260  13.996
47685W        W20110   4.412  39.915   3.634
47686W        W20111  28.516  18.661  10.516
47687W        W20112  42.967  34.970   5.135
47688W        W20113  18.576  37.374  10.981
47689W        W20114  26.960  29.943  13.043
47690W        W20115   3.347  10.674  14.015
47691W        W20116  31.142   4.327   0.421
47692W        W20117  24.688   7.361  14.298
47693W        W20118   0.267  37.428  13.845
47694W        W20119  16.724   9.885  12.505
47695W        W20120  28.012  12.209   4.783
47696W        W20121   9.378  17.659  11.966
47697W        W20122   5.694  17.736  14.821
47698W        W20123   6.411   7.819  14.363
47699W        W20124  32.016  12.825   4.798
47700W        W20125   5.324   4.387  12.013
47701W        W20126  31.491  17.577   0.814
47702W        W20127  11.192  24.717   3.647
47703W        W20128   1.295  10.286   1.387
47704W        W20129  12.797  12.238  14.488
47705W        W20130  36.499  31.913   1.229
47706W        W20131  18.180  25.646   0.410
47707W        W20132  31.521  40.918  11.481
47708W        W20133  44.878   7.675  12.570
47709W        W20134  14.748  39.000   3.788
47710W        W20135  17.699   4.247  13.966
47711W        W20136   0.407  13.268  13.443
47712W        W20137  37.055  18.115  12.568
47713W        W20138  34.982  22.600  10.495
47714W        W20139  14.596  14.729  12.541
47715W        W20140   2.908  14.305   5.084
47716W        W20141  33.521  38.443   2.670
47717W        W20142  43.418   5.712   1.857
47718W        W20143  37.413  18.721  12.467
47719W        W20144  28.673  39.938   0.824
47720W        W20145  30.064  11.692   3.385
47721W        W20146  38.525   7.236  10.910
47722W        W20147   8.897  20.239  10.437
47723W        W20148  31.590  16.724   1.700
47724W        W20149  41.439  28.600  11.496
47725W        W20150  20.167  22.529   3.768
47726W        W20151  35.026   9.279  10.560
47727W        W20152   8.802  16.197   5.229
47728W        W20153  32.094  33.080   1.309
47729W        W20154   4.400  20.699  12.559
47730W        W20155   3.279   9.787   2.716
47731W        W20156  34.051  23.057  14.430
47732W        W20157  28.064  40.339  13.001
47733W        W20158  14.742  24.091  13.336
47734W        W20159  35.498  36.929  13.520
47735W        W20160   9.287  15.664  14.415
47736W        W20161  37.510   4.413   1.374
47737W        W20162  10.161   6.809   4.248
47738W        W20163   9.700  30.469  12.410
47739W        W20164   0.800  10.718   1.868
47740W        W20165  21.174  28.972   4.335
47741W        W20166  12.830  13.704  13.985
47742W        W20167  15.775  31.530  12.939
47743W        W20168  15.121  31.615   3.629
47744W        W20169  15.786  25.598  14.978
47745W        W20170  25.999  18.296   3.779
47746W        W20171  19.550  12.783  13.415
47747W        W20172   2.819  24.991   3.277
47748W        W20173   2.291  35.037   4.298
47749W        W20174   6.346   8.834   0.254
47750W        W20175  18.113   4.864  11.003
47751W        W20176  38.968  29.646   1.211
47752W        W20177   4.875  32.393   3.301
47753W        W20178  17.595  16.272   1.822
47754W        W20179  29.655  13.706  14.865
47755W        W20180  14.722  40.400  12.037
47756W        W20181  19.586  29.155  13.820
47757W        W20182   9.291  20.116   3.643
47758W        W20183  15.756  16.266   3.225
47759W        W20184  29.491  20.646   2.249
47760W        W20185  38.385  13.786  14.464
47761W        W20186  39.548  41.021  10.909
47762W        W20187  44.955  24.608   2.887
47763W        W20188  37.414  32.488   3.815
47764W        W20189   8.843  22.092  11.034
47765W        W20190   8.387  38.377   2.379
47766W        W20191   5.800  10.791   1.858
47767W        W20192  22.059  27.530   3.719
47768W        W20193   2.409  32.490  10.412
47769W        W20194  31.595  21.701   1.423
47770W        W20195   1.399  42.984  14.500
47771W        W20196  10.338  23.117   4.680
47772W        W20197  18.268  42.333   2.720
47773W        W20198  37.937  33.108  13.476
47774W        W20199   1.849   6.406  12.381
47775W        W20200  43.376  21.638  10.467
47776W        W20201  22.211  44.009   2.407
47777W        W20202  42.458  39.817   3.258
47778W        W20203  38.351  20.728  14.800
47779W        W20204   8.666  44.964  11.611
47780W        W20205  37.880  17.228  14.013
47781W        W20206  10.713  15.684  12.094
47782W        W20207  42.466  21.068   3.744
47783W        W20208  20.069  35.484   4.119
47784W        W20209  38.857  26.553   0.835
47785W        W20210  11.361   4.438   3.306
47786W        W20211  26.194  27.449   2.813
47787W        W20212   9.291   3.896  11.512
47788W        W20213  16.735   8.329  13.831
47789W        W20214  37.958  35.481   3.798
47790W        W20215  15.187  30.107   2.734
47791W        W20216   5.333  42.443   2.696
47792W        W20217   9.883  13.780  12.924
47793W        W20218  25.618  19.203  14.488
47794W        W20219  31.152   4.233   4.598
47795W        W20220  32.044  23.161   1.751
47796W        W20221  44.828  18.658  12.076
47797W        W20222  20.186  21.159   4.267
47798W        W20223   0.877  32.887   0.303
47799W        W20224  33.411  33.470  11.937
47800W        W20225  41.447   9.387  12.382
47801W        W20226  11.134  39.966   4.761
47802W        W20227  22.101  19.709  11.484
47803W        W20228  15.620  24.562  13.838
47804W        W20229  28.645  35.069  11.077
47805W        W20230  16.171  28.071  10.980
47806W        W20231  40.952   9.867  14.440
47807W        W20232  23.541  33.588   4.795
47808W        W20233   5.248  13.694   0.810
47809W        W20234  44.791  40.482  11.395
47810W        W20235  18.642   3.754  14.462
47811W        W20236  36.920  29.118   2.336
47812W        W20237  26.581  19.159  12.935
47813W        W20238  35.908  11.369  14.405
47814W        W20239  30.570  42.288  12.409
47815W        W20240  42.788  20.740   2.311
47816W        W20241  30.109  12.220   4.124
47817W        W20242   5.915  21.174   4.815
47818W        W20243  44.971  41.507   5.235
47819W        W20244   0.932  26.045   2.307
47820W        W20245   9.371  13.845  12.884
47821W        W20246  16.780  40.939   1.234
47822W        W20247   8.783   8.195  10.627
47823W        W20248  33.531   5.902  14.818
47824W        W20249   7.886  29.626   0.304
47825W        W20250  40.901  25.705   2.294
47826W        W20251  39.053  14.320   4.707
47827W        W20252  24.492  14.681   3.708
47828W        W20253  18.611  44.387   4.811
47829W        W20254   4.331  25.176  14.446
47830W        W20255  13.736  20.698  11.996
47831W        W20256  43.954  18.113   4.329
47832W        W20257  19.622   7.724  10.617
47833W        W20258  21.103  39.951  12.041
47834W        W20259   1.468  41.421   3.713
47835W        W20260  28.577  15.321   4.258
47836W        W20261  22.090  23.605  11.490
47837W        W20262   4.213  12.157   3.678
47838W        W20263   7.275  37.984  13.814
47839W        W20264   5.812  38.502   0.953
47840W        W20265   1.857  38.871  10.989
47841W        W20266  32.576  42.027  13.336
47842W        W20267  44.389  27.097  10.912
47843W        W20268  22.223  35.460  12.578
47844W        W20269  38.937  17.093   4.234
47845W        W20270  28.174   4.274   2.858
47846W        W20271   6.698  22.528  10.910
47847W        W20272  37.950  32.580  12.863
47848W        W20273   2.851  17.214   3.771
47849W        W20274  17.581  29.571  13.927
47850W        W20275   4.714   3.384  11.451
47851W        W20276   4.835   2.315   3.831
47852W        W20277  37.424  37.455   3.331
47853W        W20278   1.856   7.736  11.585
47854W        W20279  11.246  38.870   0.435
47855W        W20280  11.822  16.250  12.545
47856W        W20281   1.335  16.687   3.376
47857W        W20282  24.083  14.173   4.715
47858W        W20283   5.212  14.751   2.773
47859W        W20284  42.834  15.228  11.450
47860W        W20285  25.636  13.208  12.555
47861W        W20286  33.493   0.817  12.993
47862W        W20287  23.100  42.354  12.346
47863W        W20288  31.573  35.048   2.232
47864W        W20289  29.578  38.378  12.351
47865W        W20290  32.909  22.176   4.330
47866W        W20291  35.871  21.092   4.284
47867W        W20292  28.577  21.198   1.358
47868W        W20293  22.687   4.851   1.395
47869W        W20294  14.171  13.246  11.416
47870W        W20295   0.457  37.855  11.908
47871W        W20296  23.593   4.308  14.375
47872W        W20297  42.365   4.767  14.417
47873W        W20298  21.655  25.110  10.499
47874W        W20299  20.542   6.805  13.349
47875W        W20300  40.992   4.873  14.342
47876W        W20301  17.611  26.124   4.231
47877W        W20302  36.549  31.462   1.231
47878W        W20303  22.643   3.324   1.285
47879W        W20304  37.017  15.240  12.571
47880W        W20305  37.032  25.539  11.018
47881W        W20306  16.114  15.622   0.882
47882W        W20307  13.347  23.715   4.271
47883W        W20308  22.651  20.544   2.706
47884W        W20309  14.326  14.198   5.218
47885W        W20310  20.068  32.427  10.159
47886W        W20311  21.177  27.053  11.097
47887W        W20312   4.319   3.729   3.295
47888W        W20313  20.148  32.140  14.803
47889W        W20314  12.658   3.858  11.510
47890W        W20315  34.951  27.154   1.249
47891W        W20316  29.046  39.058  12.869
47892W        W20317  40.353   9.738  13.308
47893W        W20318  14.675  41.391   5.287
47894W        W20319  22.744   5.376   3.654
47895W        W20320   8.792   5.348  10.459
47896W        W20321   8.852  37.428   1.376
47897W        W20322  26.553  36.909  14.920
47898W        W20323  23.563  10.670   3.172
47899W        W20324  19.240  20.221   2.211
47900W        W20325   6.241  30.110   0.477
47901W        W20326  24.119  24.668   2.777
47902W        W20327   1.294  31.097  13.480
47903W        W20328   4.744  40.808  13.526
47904W        W20329  39.811  24.990   3.645
47905W        W20330  35.077  23.233   2.226
47906W        W20331  39.438   2.749  13.454
47907W        W20332  33.392  13.726  11.432
47908W        W20333   5.343  24.554  12.000
47909W        W20334  17.717  14.337  14.918
47910W        W20335   4.747  44.323   3.849
47911W        W20336  32.612  11.846  14.813
47912W        W20337   6.875  32.891   3.245
47913W        W20338   7.278  17.652  12.018
47914W        W20339  30.608  10.364  13.430
47915W        W20340  43.766  14.154   1.444
47916W        W20341   6.775  18.579  11.438
47917W        W20342  31.101  17.169   3.690
47918W        W20343   5.204  15.784  11.545
47919W        W20344  33.522  38.074  11.020
47920W        W20345   7.817  21.216  11.382
47921W        W20346   9.380  37.523   5.782
47922W        W20347  37.033  10.807  12.348
47923W        W20348  10.289  17.722   0.447
47924W        W20349  28.052  40.369  10.984
47925W        W20350  19.069  22.097  14.828
47926W        W20351   1.300  34.970  14.410
47927W        W20352  17.602  17.123   2.386
47928W        W20353  31.051  28.091  10.632
47929W        W20354  40.473   0.311  12.442
47930W        W20355   0.776  20.604  12.481
47931W        W20356  27.087  34.865   2.731
47932W        W20357  16.193  21.625  13.877
47933W        W20358  23.022  25.128  13.322
47934W        W20359   2.778  21.600   0.293
47935W        W20360   5.874  13.151  11.905
47936W        W20361  36.094   3.809  14.001
47937W        W20362  19.620  28.477  14.973
47938W        W20363  13.210  18.544  12.095
47939W        W20364  24.670  20.184   2.661
47940W        W20365  23.522  23.011  14.479
47941W        W20366  21.668  12.264  14.017
47942W        W20367  41.932  30.083   1.831
47943W        W20368  28.054   9.360  14.954
47944W        W20369  15.775  16.146  13.531
47945W        W20370  31.143  13.275  12.347
47946W        W20371   5.790   3.343  12.005
47947W        W20372  32.034   2.435   0.447
47948W        W20373  37.970  27.082   2.377
47949W        W20374   6.707  39.957  14.445
47950W        W20375  22.218  16.101  11.022
47951W        W20376  38.490  12.755   4.317
47952W        W20377  27.478   0.947   4.178
47953W        W20378  25.058  11.339  10.508
47954W        W20379  44.347  28.444  14.280
47955W        W20380  20.126  32.410  14.804
47956W        W20381   6.246   2.331  11.019
47957W        W20382  15.752   1.456  14.971
47958W        W20383  37.862  12.224   1.736
47959W        W20384   1.806   8.175   2.258
47960W        W20385   5.875  34.997  12.985
47961W        W20386   2.353  36.880  14.436
47962W        W20387  25.025  31.546   2.331
47963W        W20388  18.251  18.551   1.888
47964W        W20389   7.371  44.456   1.928
47965W        W20390  18.594  25.542  14.811
47966W        W20391  17.657  25.033   3.826
47967W        W20392  15.613  38.549   2.868
47968W        W20393  21.696  20.561  13.387
47969W        W20394  19.100  22.659  14.326
47970W        W20395   3.262  33.439   3.173
47971W        W20396  26.500  23.534   0.395
47972W        W20397  37.072  28.551   1.361
47973W        W20398  38.387  44.424  13.837
47974W        W20399  28.598  15.645   5.309
47975W        W20400  35.430   1.850  11.074
47976W        W20401  41.461   1.766  13.336
47977W        W20402  13.620  21.051   2.820
47978W        W20403  13.650  34.038  12.474
47979W        W20404   5.310  37.443   0.943
47980W        W20405   5.270   4.224   2.305
47981W        W20406  30.927   2.770  12.036
47982W        W20407  28.446   3.944  14.355
47983W        W20408   3.373   9.778  12.831
47984W        W20409  17.585  37.549  11.871
47985W        W20410   1.473  41.009   0.419
47986W        W20411  33.507  31.987  13.915
47987W        W20412   2.285  38.030  13.948
47988W        W20413  35.039  32.568   3.322
47989W        W20414   9.660   4.424   1.347
47990W        W20415  24.482   3.281   0.402
47991W        W20416   3.455   9.864  10.500
47992W        W20417  26.499  15.761  13.528
47993W        W20418  13.606   7.361  10.616
47994W        W20419  36.932  26.605   1.238
47995W        W20420  14.169  14.314   4.319
47996W        W20421   1.749  23.597   1.221
47997W        W20422  17.287  39.446  13.405
47998W        W20423  25.698   0.967  11.861
47999W        W20424  41.390  28.679  13.951
48000W        W20425  22.679  40.440   1.227
48001W        W20426  44.427  27.977   2.828
48002W        W20427   2.447   6.386   2.902
48003W        W20428  32.055  36.034   4.288
48004W        W20429  18.128  33.566   2.275
48005W        W20430  34.901  29.625   0.388
48006W        W20431  12.170   7.708   2.326
48007W        W20432   0.451  22.702   4.179
48008W        W20433  32.128  11.149   0.838
48009W        W20434  32.603  13.781   1.267
48010W        W20435  21.157  16.085   4.818
48011W        W20436  16.139  29.600  11.055
48012W        W20437  16.280   7.730  12.054
48013W        W20438  18.746  33.952   1.297
48014W        W20439  26.189  15.091  13.991
48015W        W20440  40.423   4.775  13.528
48016W        W20441   9.722  36.066  14.349
48017W        W20442  33.936   5.347  10.491
48018W        W20443  16.721  25.714   4.783
48019W        W20444  16.125   0.796   4.659
48020W        W20445  14.665  20.558   3.301
48021W        W20446  31.547  10.139  13.029
48022W        W20447  39.032   4.257   5.201
48023W        W20448  25.639   4.788   2.731
48024W        W20449  21.117  27.163   1.315
48025W        W20450  22.167  33.008   0.940
48026W        W20451  40.491  22.703   1.233
48027W        W20452  22.037  24.011  13.046
48028W        W20453  26.190  43.775   3.838
48029W        W20454  43.353  26.110   2.863
48030W        W20455  31.635  23.608  11.077
48031W        W20456  36.974  31.987  11.476
48032W        W20457   4.333  36.049  12.866
48033W        W20458  25.521   4.730   3.701
48034W        W20459   9.786  18.645  11.503
48035W        W20460  42.786  14.796   2.389
48036W        W20461  34.454  31.437  13.000
48037W        W20462   7.288  12.748  13.053
48038W        W20463  15.670  26.584   3.237
48039W        W20464  15.712  33.037  12.543
48040W        W20465  31.007  22.608   1.801
48041W        W20466  15.267  19.543   0.935
48042W        W20467  44.277   0.826   0.402
48043W        W20468  17.755   4.873  11.574
48044W        W20469  31.558  22.026   4.824
48045W        W20470  29.603  16.581  11.475
48046W        W20471  33.449  14.824   3.342
48047W        W20472  37.465  42.377   0.891
48048W        W20473   7.192  41.915   5.200
48049W        W20474   5.283  30.058  13.955
48050W        W20475   4.284  36.436  13.487
48051W        W20476  24.518  31.898  10.959
48052W        W20477   1.480  29.621   4.320
48053W        W20478  37.900  16.659   4.327
48054W        W20479   5.321  13.766   1.267
48055W        W20480   6.793  35.540  12.378
48056W        W20481  43.907  38.052  13.951
48057W        W20482  11.692  10.862  12.047
48058W        W20483  38.927  42.420   1.278
48059W        W20484  37.870   2.330   0.276
48060W        W20485   1.758   5.280   0.959
48061W        W20486  44.788  44.871  12.891
48062W        W20487  28.670  25.677   0.742
48063W        W20488  36.587   5.776  11.857
48064W        W20489  27.084  17.572  11.121
48065W        W20490  30.067  38.408  10.466
48066W        W20491  42.923  28.935  13.991
48067W        W20492  17.133  28.184  14.354
48068W        W20493  33.468  16.182   2.368
48069W        W20494  32.067  14.629  12.490
48070W        W20495  27.015  23.502   2.751
48071W        W20496  26.511   5.793  11.899
48072W        W20497  22.047  10.725  10.450
48073W        W20498  17.201   9.250  13.439
48074W        W20499  26.686  40.320   0.793
48075W        W20500  27.129  40.314   0.730
48076W        W20501   8.789  22.006   0.951
48077W        W20502   2.463  15.669  12.039
48078W        W20503   9.783   3.845   1.369
48079W        W20504   9.827  16.752  14.850
48080W        W20505  30.586  25.975  11.471
48081W        W20506   0.285   5.388   1.370
48082W        W20507   9.848  17.191   1.783
48083W        W20508  37.539  24.087   0.861
48084W        W20509  15.202   2.897  13.887
48085W        W20510  18.722  17.637  14.841
48086W        W20511   4.794  17.628  14.324
48087W        W20512   1.834  31.906  14.498
48088W        W20513  37.432  25.602   0.472
48089W        W20514  31.449   1.974  11.004
48090W        W20515  19.630  15.797   4.184
48091W        W20516  27.977   3.795   3.200
48092W        W20517  30.988   0.897  12.460
48093W        W20518   9.780  41.492   0.929
48094W        W20519  15.251  25.984  10.450
48095W        W20520   7.888  14.298   0.908
48096W        W20521  28.678  31.551   1.745
48097W        W20522   9.689   4.388  13.459
48098W        W20523  31.574  35.044   1.448
48099W        W20524  27.015  28.004  11.959
48100W        W20525   2.317  22.998  11.411
48101W        W20526  16.190  24.579   4.158
48102W        W20527  17.110  29.973  12.860
48103W        W20528   5.899  36.926   2.662
48104W        W20529  44.830  41.941  13.841
48105W        W20530  29.156  18.064   0.861
48106W        W20531   4.317  10.771   4.200
48107W        W20532  34.032  43.834   1.766
48108W        W20533  34.603  19.140  14.809
48109W        W20534  40.323  32.122  14.301
48110W        W20535  26.966  22.137  14.848
48111W        W20536  12.769  28.134  14.884
48112W        W20537  20.551  26.992  13.810
48113W        W20538  33.386   9.159  10.414
48114W        W20539   5.815  25.683   4.309
48115W        W20540  24.979  26.002  13.971
48116W        W20541  16.600  27.451   4.643
48117W        W20542  17.605  11.765  10.510
48118W        W20543  17.563  37.486   0.346
48119W        W20544  39.884  12.204  13.822
48120W        W20545  26.669   7.344  10.569
48121W        W20546  42.799  23.100   2.412
48122W        W20547  15.090  40.831  11.460
48123W        W20548  32.994   7.258  12.839
48124W        W20549  18.573  25.137  13.898
48125W        W20550   8.896   8.673   2.263
48126W        W20551  18.625  28.048  12.547
48127W        W20552  43.944  27.161   0.311
48128W        W20553   3.398   5.753   2.204
48129W        W20554  25.621  36.536   0.300
48130W        W20555  10.205  21.534  11.477
48131W        W20556  32.887  14.768  13.391
48132W        W20557  10.370  31.105  11.575
48133W        W20558  10.678   7.373   2.673
48134W        W20559   8.251  25.028   4.176
48135W        W20560  39.028  35.990  11.890
48136W        W20561  43.973   5.761  12.522
48137W        W20562  33.401  43.934   1.320
48138W        W20563  30.980  44.455  12.061
48139W        W20564  36.493  40.870  10.605
48140W        W20565  21.721  35.453  14.030
48141W        W20566   5.438  20.620   0.337
48142W        W20567  17.735  44.772   4.832
48143W        W20568  38.988  39.824  11.994
48144W        W20569   7.799  42.824   0.896
48145W        W20570  24.215  40.989  11.471
48146W        W20571  27.169  36.922  10.476
48147W        W20572  42.307  30.916   1.346
48148W        W20573  28.606  31.016   0.323
48149W        W20574  30.097  18.572  13.308
48150W        W20575  38.403  38.909   1.272
48151W        W20576  35.921  30.524   1.890
48152W        W20577  37.452  17.577  12.378
48153W        W20578  44.931   2.447   3.348
48154W        W20579  44.404  25.117   5.230
48155W        W20580  27.129  37.568  11.406
48156W        W20581  17.073   6.301   5.309
48157W        W20582   1.417  10.817   1.295
48158W        W20583  14.765  32.574   2.267
48159W        W20584  20.540  39.872  14.291
48160W        W20585  39.820  12.723   0.889
48161W        W20586   6.323   1.860   3.660
48162W        W20587  12.338  29.641   2.215
48163W        W20588  36.462  36.444   2.792
48164W        W20589   2.892   3.799   2.740
48165W        W20590   7.712  32.627  14.368
48166W        W20591  10.240  28.632  14.826
48167W        W20592  30.499  38.062   1.235
48168W        W20593  10.369   3.853   3.290
48169W        W20594  36.368   2.939  11.576
48170W        W20595  16.718  31.053   2.319
48171W        W20596  29.667  12.131  14.288
48172W        W20597  31.132  23.018  14.960
48173W        W20598  44.373  39.046  10.145
48174W        W20599   7.239  37.432   4.673
48175W        W20600  16.642  40.439   0.759
48176W        W20601  35.566  25.576   2.697
48177W        W20602  19.150  24.029   3.259
48178W        W20603  37.576   3.435   1.283
48179W        W20604  36.871  35.018  13.884
48180W        W20605  27.053  28.007   4.749
48181W        W20606  24.988   5.731  14.495
48182W        W20607   3.456  15.822  13.998
48183W        W20608  41.919   8.200   0.942
48184W        W20609  22.160   1.299   4.701
48185W        W20610  17.174   1.767  13.978
48186W        W20611  20.128  39.959  13.420
48187W        W20612  27.525  13.318   3.644
48188W        W20613  25.586  44.357  10.528
48189W        W20614  14.100  10.239   2.387
48190W        W20615  11.864   8.277  12.925
48191W        W20616  39.396  37.891  13.467
48192W        W20617  38.509  15.668   2.308
48193W        W20618  40.358   8.315  12.862
48194W        W20619  15.687  27.543  12.918
48195W        W20620  11.752  21.676  10.526
48196W        W20621  34.074   1.238   3.838
48197W        W20622  36.984  17.065  13.502
48198W        W20623  15.113   8.851   1.393
48199W        W20624   7.838  38.537   0.825
48200W        W20625  29.142  12.215   2.836
48201W        W20626  41.377  22.006   1.337
48202W        W20627  42.925   7.780  12.840
48203W        W20628  38.873  20.639  14.985
48204W        W20629  34.944  16.637   3.772
48205W        W20630  41.022  16.743   3.226
48206W        W20631  41.448   7.337   1.331
48207W        W20632  41.806  33.051  11.100
48208W        W20633  34.585  40.863  14.352
48209W        W20634  34.992  11.320   4.647
48210W        W20635  31.040  29.656   0.275
48211W        W20636  39.465   1.290  13.508
48212W        W20637   5.737  11.340   3.776
48213W        W20638  35.867   4.220   3.337
48214W        W20639   4.920  20.732   3.787
48215W        W20640   5.772  20.094   1.450
48216W        W20641  25.046   6.269   0.442
48217W        W20642  16.742  13.674  10.417
48218W        W20643   9.748  33.425  12.045
48219W        W20644   6.251   8.759   5.142
48220W        W20645   3.937  33.416   4.117
48221W        W20646  21.511   1.389  13.395
48222W        W20647   8.781  38.062  10.447
48223W        W20648  18.615  23.113  14.501
48224W        W20649  11.631  25.212   4.181
48225W        W20650   9.362   5.203   1.227
48226W        W20651   2.728  31.129  10.481
48227W        W20652  29.152  26.198   0.374
48228W        W20653  13.116  36.070   3.741
48229W        W20654  24.199   2.261  10.576
48230W        W20655  43.351  17.272   4.154
48231W        W20656  27.119  38.899   4.795
48232W        W20657  32.102   1.905   4.676
48233W        W20658  13.266  24.662  11.064
48234W        W20659  21.037  44.936   1.762
48235W        W20660  31.137  19.617   0.882
48236W        W20661   6.811  33.546   0.411
48237W        W20662   7.814   4.788   3.800
48238W        W20663  11.350  34.991   0.427
48239W        W20664  19.243  42.524   4.805
48240W        W20665  29.089  43.415  11.057
48241W        W20666  37.571   3.377   1.924
48242W        W20667  37.497  23.595   4.835
48243W        W20668  25.643  14.833   1.823
48244W        W20669  11.670   3.840  12.887
48245W        W20670   9.693  42.525  11.873
48246W        W20671  11.787  35.023  12.019
48247W        W20672  12.784  24.049  13.534
48248W        W20673  15.187  33.026   3.234
48249W        W20674  38.882  44.776   3.863
48250W        W20675  37.503  29.965  12.032
48251W        W20676   3.359   8.266  11.532
48252W        W20677   2.896   6.790   3.243
48253W        W20678   5.379  19.224  14.443
48254W        W20679   9.370  17.231   1.280
48255W        W20680   7.713  40.008  13.420
48256W        W20681   3.428  32.591   2.353
48257W        W20682  34.441   2.926  11.939
48258W        W20683  33.445   4.803   4.664
48259W        W20684  15.298  23.989   2.237
48260W        W20685  15.592   0.304  10.626
48261W        W20686   9.380  17.638  14.413
48262W        W20687  24.224  25.711  14.438
48263W        W20688  42.973   9.646  10.490
48264W        W20689  37.444  30.565   1.796
48265W        W20690   7.240   5.420   0.360
48266W        W20691  26.053  44.445  11.909
48267W        W20692  33.067  21.246   4.142
48268W        W20693  42.318  40.519  12.956
48269W        W20694   1.930   1.476   4.327
48270W        W20695   6.413  41.033  11.555
48271W        W20696  29.547  41.508  10.427
48272W        W20697   3.398  18.658   2.697
48273W        W20698  22.087   0.481   2.330
48274W        W20699  37.577  12.791   1.831
48275W        W20700  23.074  42.396  12.024
48276W        W20701  16.647  33.497   0.283
48277W        W20702  30.534  25.100  11.469
48278W        W20703  37.573  34.569   3.189
48279W        W20704  28.644  39.030   1.215
48280W        W20705  27.575   0.483   0.478
48281W        W20706  43.286   1.883   3.311
48282W        W20707  44.801   4.383   2.251
48283W        W20708   8.217  31.150   1.212
48284W        W20709   5.934   9.251   2.694
48285W        W20710  12.619  14.698  13.896
48286W        W20711  17.110  33.391  10.943
48287W        W20712  42.337  43.908  13.426
48288W        W20713  33.562   0.863   0.309
48289W        W20714  40.461  22.190   2.388
48290W        W20715   8.747  31.953  10.558
48291W        W20716  17.721  21.027   1.714
48292W        W20717   5.794  11.810   4.758
48293W        W20718  23.181   1.416  11.411
48294W        W20719  30.067   8.304  11.551
48295W        W20720  14.155  20.049  13.854
48296W        W20721  35.044   0.486   4.751
48297W        W20722  22.570   6.316   5.276
48298W        W20723   9.218  41.991  12.876
48299W        W20724  22.163   6.325  14.032
48300W        W20725  28.126  32.013   4.301
48301W        W20726  13.259  32.901   0.252
48302W        W20727  25.175   3.330  12.070
48303W        W20728  10.334   2.827  11.928
48304W        W20729  30.462  25.591  10.535
48305W        W20730   1.302  30.968   1.847
48306W        W20731  21.029  10.319  12.856
48307W        W20732   2.872  29.006  12.481
48308W        W20733  26.478  23.017  11.454
48309W        W20734   6.422  38.846   5.264
48310W        W20735  22.239  30.156   0.903
48311W        W20736  25.562  21.206   0.792
48312W        W20737  22.527  36.373   4.179
48313W        W20738  17.201  31.620   0.343
48314W        W20739  31.404  22.129  12.037
48315W        W20740  34.495  22.072   1.765
48316W        W20741  39.525   2.964   0.852
48317W        W20742   3.234  42.397   4.289
48318W        W20743   7.793  28.634  11.023
48319W        W20744   7.685  31.959   2.748
48320W        W20745   2.364   3.829  10.949
48321W        W20746  11.175  36.932   1.715
48322W        W20747  32.420  14.262  14.885
48323W        W20748  44.393  25.198  10.999
48324W        W20749  14.770  33.470   3.813
48325W        W20750  16.266  33.412   0.424
48326W        W20751  20.121  24.041   3.284
48327W        W20752  20.240   4.727   1.289
48328W        W20753  37.047  34.936  10.626
48329W        W20754  34.888   7.334   1.410
48330W        W20755  41.816  40.837  12.078
48331W        W20756   2.804  44.971   2.185
48332W        W20757  15.291  44.258  14.783
48333W        W20758  28.610  23.197   1.867
48334W        W20759  24.585  30.573  14.811
48335W        W20760  41.786  32.072   5.116
48336W        W20761   4.442   6.291   1.793
48337W        W20762  31.942  41.035   2.259
48338W        W20763  24.020  25.618   2.874
48339W        W20764  20.175   3.431  12.341
48340W        W20765   9.364   7.333  13.896
48341W        W20766  23.199   0.869   1.358
48342W        W20767  37.499  24.697  13.339
48343W        W20768  24.169  13.296   3.745
48344W        W20769  16.707  12.649   2.760
48345W        W20770  34.607   7.346   1.724
48346W        W20771  34.081  32.433  11.413
48347W        W20772   0.978  24.613   2.670
48348W        W20773  26.547   3.337   0.904
48349W        W20774  28.072  30.624   4.664
48350W        W20775   7.712  21.630  14.927
48351W        W20776   4.236  16.083  12.008
48352W        W20777  21.700  38.331  12.377
48353W        W20778  41.826  24.061   2.721
48354W        W20779  25.605  11.214   4.215
48355W        W20780   9.768  21.620   3.756
48356W        W20781  24.618  14.121   3.837
48357W        W20782  27.576  12.222  13.996
48358W        W20783   2.415  17.747   3.719
48359W        W20784  28.993  16.764  13.345
48360W        W20785  35.366   3.750  14.902
48361W        W20786  36.519   4.258  10.565
48362W        W20787  34.960  11.238  13.354
48363W        W20788   1.380   1.914   4.228
48364W        W20789   1.380  17.692   1.339
48365W        W20790   5.211  15.612  10.989
48366W        W20791  13.770  23.595   4.771
48367W        W20792  43.814  37.862   1.864
48368W        W20793   3.945  22.602  11.020
48369W        W20794   9.715  33.498   1.750
48370W        W20795   7.762  44.286   4.138
48371W        W20796   2.772   0.771   1.910
48372W        W20797  42.435  24.179  14.395
48373W        W20798  10.244  10.825  13.313
48374W        W20799  44.274  40.415   1.896
48375W        W20800  40.807  32.547  14.923
48376W        W20801  43.398  20.563   0.379
48377W        W20802  12.659  22.067   4.722
48378W        W20803  19.603  20.265  10.985
48379W        W20804  16.801   1.393   1.229
48380W        W20805   1.474  36.534  11.101
48381W        W20806  24.160  10.845  10.643
48382W        W20807   4.818  26.037  10.100
48383W        W20808  37.957   7.345   2.739
48384W        W20809  43.278  37.371  12.072
48385W        W20810  18.758  35.542   0.424
48386W        W20811  17.249  20.729  10.021
48387W        W20812   9.224   3.866   0.798
48388W        W20813  26.641  27.089   4.191
48389W        W20814  30.968  13.618   3.288
48390W        W20815  43.921  42.870  13.826
48391W        W20816  39.449  31.100  10.477
48392W        W20817  36.900   6.890   0.466
48393W        W20818   5.372  34.408   2.902
48394W        W20819  20.703  11.169   3.248
48395W        W20820  33.476  21.617  13.329
48396W        W20821  36.520   8.784   0.379
48397W        W20822  39.047  38.879  14.432
48398W        W20823  13.745  19.182   2.822
48399W        W20824  19.744   0.266  12.366
48400W        W20825  40.403  32.580   0.255
48401W        W20826  37.582  12.723  14.018
48402W        W20827  16.207  34.896   3.747
48403W        W20828  11.275   7.318   3.785
48404W        W20829  36.877  16.107  11.394
48405W        W20830  42.792  39.376   1.297
48406W        W20831   0.376  11.332   1.739
48407W        W20832   5.929  16.742   0.753
48408W        W20833  17.132  21.056   1.398
48409W        W20834  38.048  34.390   2.786
48410W        W20835  19.668  37.027  12.023
48411W        W20836  19.130  34.938   0.783
48412W        W20837  11.711   4.205   0.288
48413W        W20838  42.488   2.748  14.966
48414W        W20839  43.342  18.672  11.980
48415W        W20840  30.618  44.860  13.040
48416W        W20841   8.836  35.434   3.639
48417W        W20842  43.304  15.581   9.967
48418W        W20843  30.983  11.310   1.397
48419W        W20844  32.509  22.058   0.348
48420W        W20845  38.958  32.926  14.358
48421W        W20846  11.762  43.395   1.310
48422W        W20847   2.949  25.605  10.629
48423W        W20848   3.890  13.707   1.734
48424W        W20849  21.697  30.949   3.846
48425W        W20850  29.435   3.869   2.730
48426W        W20851  12.704  12.351   0.415
48427W        W20852  34.417  12.218  13.017
48428W        W20853  38.518  15.115  13.047
48429W        W20854   3.284  28.640   3.854
48430W        W20855   5.346   2.844  10.482
48431W        W20856  37.368  44.781  13.473
48432W        W20857  26.145  15.184   0.905
48433W        W20858  16.629  17.756   2.773
48434W        W20859   3.883  30.644  10.572
48435W        W20860  27.658  34.029   1.774
48436W        W20861   0.939   5.293  15.000
48437W        W20862  35.434   4.403  12.912
48438W        W20863  17.067  32.129  11.871
48439W        W20864  18.610  10.270  11.970
48440W        W20865  25.969   4.852   3.160
48441W        W20866  28.161  40.309  13.475
48442W        W20867   9.684   2.908   0.863
48443W        W20868  18.053  35.367  13.328
48444W        W20869  33.895  41.866   0.373
48445W        W20870  44.922  23.074  14.832
48446W        W20871  16.192  44.896  14.401
48447W        W20872   1.770  26.684   4.352
48448W        W20873   7.195   5.363  13.797
48449W        W20874  11.238   6.759   0.805
48450W        W20875  40.873  11.853   1.898
48451W        W20876   2.911   0.753  10.615
48452W        W20877  31.591   4.756  10.959
48453W        W20878  35.107  14.170  12.952
48454W        W20879   7.804  35.022  14.475
48455W        W20880   6.404  44.386   2.318
48456W        W20881   8.859   4.935   2.664
48457W        W20882  18.702  11.857  10.161
48458W        W20883  39.420  18.232   2.897
48459W        W20884  37.340  26.164   2.764
48460W        W20885   5.238  24.690   1.373
48461W        W20886  34.870   6.877   0.347
48462W        W20887   8.666   8.320  14.943
48463W        W20888  23.623  31.618  14.992
48464W        W20889  37.077  18.088  13.415
48465W        W20890  31.607  28.598  13.475
48466W        W20891  31.146  31.514  13.440
48467W        W20892  33.074  12.179  13.461
48468W        W20893  10.281  44.768  10.924
48469W        W20894  34.575  32.439   0.407
48470W        W20895  38.936   6.408   1.226
48471W        W20896  27.677  36.404   3.233
48472W        W20897  15.676   2.296   0.455
48473W        W20898   5.691  36.959   2.362
48474W        W20899  24.602  28.104  12.052
48475W        W20900  27.473  33.875   5.269
48476W        W20901  35.969  34.902   5.299
48477W        W20902  22.550  16.580  10.585
48478W        W20903  29.017  28.068   2.886
48479W        W20904  18.748  14.302   0.272
48480W        W20905  38.018  19.143  12.343
48481W        W20906  11.656   8.747  13.355
48482W        W20907  35.564  43.932   0.956
48483W        W20908  28.186   6.288  14.299
48484W        W20909  13.680  39.906  10.524
48485W        W20910   4.417  11.362  11.943
48486W        W20911  10.317   4.922  12.064
48487W        W20912  21.521   6.883  10.992
48488W        W20913   5.885  34.959   1.358
48489W        W20914   9.736  27.117  13.513
48490W        W20915  34.005   0.260   2.203
48491W        W20916   4.898   5.926   1.759
48492W        W20917  25.020  28.957   0.386
48493W        W20918  18.680  38.018   4.236
48494W        W20919   5.427  10.695  12.955
48495W        W20920  24.171  24.675   4.137
48496W        W20921  21.052  15.146  13.458
48497W        W20922  26.459   9.209   0.852
48498W        W20923  18.210  17.268   1.884
48499W        W20924  11.258  33.072   3.285
48500W        W20925  29.087  12.662   0.311
48501W        W20926   3.436   1.949  12.084
48502W        W20927  20.097   3.918   0.748
48503W        W20928  14.207  43.440  12.994
48504W        W20929   5.702  13.792  11.535
48505W        W20930  21.608  21.184  11.020
48506W        W20931  17.755  24.159  14.886
48507W        W20932   9.774  16.759  11.450
48508W        W20933  32.079  31.968   4.148
48509W        W20934  13.600  32.442  10.994
48510W        W20935  32.421  23.650   4.239
48511W        W20936   2.279  28.533  14.792
48512W        W20937  19.673  27.571   2.701
48513W        W20938  27.191  33.592   4.669
48514W        W20939   8.893  38.476   4.710
48515W        W20940  21.199  44.862   4.717
48516W        W20941  37.572  28.089   1.918
48517W        W20942  35.008  11.727   3.646
48518W        W20943  13.177   1.309   4.318
48519W        W20944  20.144  42.923   3.170
48520W        W20945  32.984  24.092   3.290
48521W        W20946  40.380  41.355   2.783
48522W        W20947  28.070  43.363  13.455
48523W        W20948  26.168  20.648  12.020
48524W        W20949   4.754  39.972  13.309
48525W        W20950  35.453  18.088   3.842
48526W        W20951   8.403  22.178  13.888
48527W        W20952  24.194  15.760  10.582
48528W        W20953  31.937   2.721   2.303
48529W        W20954  30.634  15.300   3.174
48530W        W20955  10.659  28.148   3.764
48531W        W20956  18.148  21.116  10.470
48532W        W20957  42.292  10.773   0.962
48533W        W20958   3.898  20.161  13.533
48534W        W20959  43.788   6.734   3.818
48535W        W20960  12.712  34.457  10.942
48536W        W20961  25.076  43.365   0.944
48537W        W20962  42.816  30.559   3.271
48538W        W20963  28.966  26.643   1.756
48539W        W20964  44.443  14.212   4.214
48540W        W20965  28.565  25.968  12.849
48541W        W20966  30.989  18.740   3.352
48542W        W20967   6.371  26.045  12.899
48543W        W20968   6.214  39.023  12.350
48544W        W20969  33.979   5.760   1.261
48545W        W20970  29.017  27.084   4.650
48546W        W20971   5.762  19.767   2.854
48547W        W20972   1.439   8.693  13.458
48548W        W20973  12.226  12.220   2.731
48549W        W20974  21.519   7.401   2.351
48550W        W20975  32.600  41.967  12.050
48551W        W20976  34.983  41.322  12.006
48552W        W20977  41.924  17.178  13.965
48553W        W20978  15.159   1.970  12.866
48554W        W20979   7.227  25.035  10.989
48555W        W20980  24.518  15.221  13.803
48556W        W20981  31.621   5.785   1.415
48557W        W20982  22.522  23.670  14.280
48558W        W20983  29.997   2.814   0.858
48559W        W20984   1.880  39.030   3.309
48560W        W20985  37.562  35.102   3.170
48561W        W20986  42.335  43.352  10.919
48562W        W20987  35.441  15.698  14.451
48563W        W20988  12.746   7.260  11.423
48564W        W20989  36.076  25.968  14.945
48565W        W20990  40.474   1.758   2.841
48566W        W20991  31.941  44.273  10.516
48567W        W20992  28.639  14.275   3.697
48568W        W20993   6.709  31.039   4.221
48569W        W20994   6.883  18.641   3.217
48570W        W20995  34.496  43.929   4.172
48571W        W20996  13.749  44.383   1.823
48572W        W20997  22.137  12.128   2.742
48573W        W20998  24.118  34.465  14.465
48574W        W20999  26.675   3.365   1.386
48575W        W21000  25.027  19.060   0.768
48576W        W21001   7.755  10.678   2.185
48577W        W21002  24.194  18.228   3.744
48578W        W21003   4.725  16.175   2.682
48579W        W21004  36.555  40.904   0.807
48580W        W21005  36.914   1.360   3.774
48581W        W21006   8.762  11.365  10.487
48582W        W21007  16.090  30.434  14.359
48583W        W21008  39.456  13.113   4.307
48584W        W21009  30.582   7.201   0.732
48585W        W21010  44.853   5.787   2.666
48586W        W21011  36.089  23.693  13.064
48587W        W21012  11.749  25.041   1.781
48588W        W21013  19.128  41.036  14.871
48589W        W21014   7.725  22.610  10.415
48590W        W21015  21.748  39.947   0.337
48591W        W21016  22.575  39.454   3.267
48592W        W21017  38.955  35.396   0.812
48593W        W21018  17.086  40.373   3.724
48594W        W21019  38.362  39.033  12.093
48595W        W21020  17.116   6.279   3.791
48596W        W21021  29.653  20.683  13.963
48597W        W21022  12.800  41.386  14.981
48598W        W21023  24.228   6.811  14.452
48599W        W21024   3.821  41.953   3.707
48600W        W21025  10.142   0.324  11.970
48601W        W21026  44.290  17.272  11.867
48602W        W21027  19.278  43.781  12.931
48603W        W21028  44.462  19.268   2.700
48604W        W21029  19.641  42.442  13.933
48605W        W21030  27.105   5.690  12.965
48606W        W21031  23.207  42.795  12.978
48607W        W21032  11.630  16.238   3.280
48608W        W21033   4.331  31.015  11.091
48609W        W21034  27.050  44.760  13.546
48610W        W21035  24.565  14.206  14.996
48611W        W21036  13.723  39.424   4.762
48612W        W21037  22.192  26.461  13.859
48613W        W21038  26.460  16.294  14.285
48614W        W21039  43.861  43.912   4.247
48615W        W21040  28.679  19.771   2.895
48616W        W21041  32.618  11.642   4.239
48617W        W21042   5.791   0.835  13.521
48618W        W21043   7.720  23.638  10.593
48619W        W21044   8.753   8.355   4.824
48620W        W21045  34.539  25.972  14.489
48621W        W21046   0.745  10.267  14.306
48622W        W21047  44.327  23.622  10.499
48623W        W21048  10.765  44.403   4.333
48624W        W21049  10.184  17.155  10.478
48625W        W21050  42.300  15.761   3.814
48626W        W21051  13.672  23.563  12.017
48627W        W21052   6.698  24.491   4.739
48628W        W21053  42.399   8.840  13.954
48629W        W21054  26.589  25.021  14.296
48630W        W21055  28.514   5.903  14.018
48631W        W21056  35.960  38.019  12.995
48632W        W21057  42.804  21.043  14.464
48633W        W21058  44.837   8.181  12.572
48634W        W21059  25.122   8.261  12.952
48635W        W21060  24.980  14.792   2.804
48636W        W21061  25.509  14.773   1.328
48637W        W21062   0.860   9.329  14.315
48638W        W21063  32.587  32.397  13.361
48639W        W21064  18.767  35.602   1.856
48640W        W21065   8.208   6.298   0.288
48641W        W21066  14.152  17.108   1.754
48642W        W21067  28.055  43.411  12.537
48643W        W21068  37.021  18.135   4.301
48644W        W21069  28.952  35.542   0.930
48645W        W21070  29.516  27.166   4.831
48646W        W21071  23.702  33.541  12.065
48647W        W21072  43.008  23.610   1.877
48648W        W21073  31.987  10.185   3.720
48649W        W21074  40.930   7.405   0.301
48650W        W21075  40.491   2.790   1.403
48651W        W21076  32.039  11.208   3.697
48652W        W21077   2.268  41.413   3.162
48653W        W21078  30.512  44.886   0.870
48654W        W21079  17.141  41.504  10.104
48655W        W21080  10.878  28.614   3.266
48656W        W21081  28.469  10.632  11.950
48657W        W21082  43.865  29.939  11.417
48658W        W21083  13.600  23.518  13.055
48659W        W21084  40.527  42.428  11.386
48660W        W21085   8.281  35.497   2.400
48661W        W21086   5.202  36.519   1.260
48662W        W21087  26.588  34.532  11.461
48663W        W21088  13.131  39.526  10.458
48664W        W21089  16.590  17.601  13.359
48665W        W21090  19.684  41.819  11.101
48666W        W21091  43.843  44.820   0.755
48667W        W21092  12.848   0.872   4.230
48668W        W21093  25.594  33.118   4.198
48669W        W21094  30.569  17.737  13.956
48670W        W21095  40.887   7.674   4.677
48671W        W21096   2.867   3.729   4.619
48672W        W21097  35.067  29.423  10.997
48673W        W21098  34.459  32.403  11.505
48674W        W21099  33.104  31.591  10.417
48675W        W21100  40.326  16.176  14.886
48676W        W21101  17.655  35.050   2.692
48677W        W21102  36.418  37.497  12.527
48678W        W21103  36.470  29.115  14.910
48679W        W21104  30.068  11.336   3.748
48680W        W21105  16.315  26.125  11.523
48681W        W21106   3.347  32.921  10.963
48682W        W21107  31.956  10.782  11.527
48683W        W21108  18.114  36.570   4.606
48684W        W21109  42.522   2.234   3.198
48685W        W21110   6.376  24.201  13.837
48686W        W21111  14.591   3.216  13.052
48687W        W21112  10.147  15.743  14.982
48688W        W21113   9.258  43.275   2.806
48689W        W21114  39.475  17.561  14.822
48690W        W21115  35.518  36.062  13.905
48691W        W21116  14.289  24.054  10.606
48692W        W21117  28.443   3.866   4.294
48693W        W21118  10.662  16.171   0.320
48694W        W21119  17.660  11.270  14.773
48695W        W21120   0.468  10.637   4.813
48696W        W21121  23.046  35.400   2.289
48697W        W21122  35.857   9.330   0.347
48698W        W21123  31.952  32.607   1.914
48699W        W21124   9.836  35.358   2.713
48700W        W21125  41.983  19.765  11.927
48701W        W21126   7.380  22.213  10.929
48702W        W21127  20.182  19.542   1.929
48703W        W21128  32.596  40.421   0.464
48704W        W21129  24.123  44.353   4.124
48705W        W21130  40.395  12.626   3.326
48706W        W21131  13.320  23.543  11.599
48707W        W21132  14.138  42.835  13.358
48708W        W21133   6.417   5.304  12.060
48709W        W21134  23.984  33.879   0.428
48710W        W21135  17.069   8.701   0.292
48711W        W21136  20.670  43.914  13.968
48712W        W21137  37.447   0.485  14.394
48713W        W21138  43.461  30.519  13.006
48714W        W21139  36.048  24.619  13.793
48715W        W21140  38.522  30.582   2.805
48716W        W21141   5.304  10.150   3.801
48717W        W21142  15.236   4.938  13.977
48718W        W21143  23.686  10.686   4.608
48719W        W21144  13.692  23.497  14.813
48720W        W21145  40.018  40.394  12.095
48721W        W21146  37.358  15.822  10.924
48722W        W21147  12.341  30.026   2.857
48723W        W21148   5.858   4.700  12.534
48724W        W21149  44.789  36.856  14.320
48725W        W21150  35.464   3.829   2.347
48726W        W21151  15.739  23.154  12.967
48727W        W21152  24.224  36.470   0.306
48728W        W21153  17.584  13.209   2.312
48729W        W21154  44.391   3.449  10.071
48730W        W21155  44.496  38.972   4.764
48731W        W21156  30.066  30.132   0.271
48732W        W21157  15.187  26.187  12.073
48733W        W21158  15.105  24.186  13.376
48734W        W21159  33.902  31.453   2.899
48735W        W21160  39.813   3.914  14.979
48736W        W21161   4.227  41.406  13.329
48737W        W21162  34.389   7.395  12.834
48738W        W21163  38.436  21.584  14.816
48739W        W21164  19.763  24.223   2.828
48740W        W21165  10.244  17.567  12.555
48741W        W21166   5.239  17.282   1.760
48742W        W21167  38.543  26.039   1.400
48743W        W21168  16.106  27.995  10.430
48744W        W21169  12.269  18.214  13.504
48745W        W21170  39.053  22.170   2.683
48746W        W21171  16.291  31.914   2.191
48747W        W21172  37.955   2.854   1.277
48748W        W21173  17.172   9.195  13.931
48749W        W21174  35.556  31.504  11.504
48750W        W21175  41.319  13.770   1.761
48751W        W21176  33.519  19.708  14.807
48752W        W21177  38.909  23.091  13.383
48753W        W21178  27.159  23.048  12.996
48754W        W21179   2.325  27.520   2.204
48755W        W21180  37.451  10.657   3.844
48756W        W21181  36.535   3.720  14.444
48757W        W21182   1.778   0.416   1.875
48758W        W21183   0.443  24.482  12.056
48759W        W21184  24.183  28.587  14.983
48760W        W21185  44.464  20.736   3.749
48761W        W21186  16.309  32.616   3.687
48762W        W21187   3.447  33.495   5.119
48763W        W21188   0.257  13.186  10.920
48764W        W21189  11.660  28.063  12.483
48765W        W21190  25.469  35.523  13.381
48766W        W21191  41.846  32.138   9.926
48767W        W21192  10.845   3.335   2.228
48768W        W21193   9.315  12.206   4.137
48769W        W21194  23.678  34.957   3.658
48770W        W21195  38.541  29.623  12.498
48771W        W21196  27.957  14.662  12.060
48772W        W21197   6.301  20.243   0.408
48773W        W21198  25.155  34.471   1.217
48774W        W21199  28.929  13.784   2.894
48775W        W21200  12.838  20.757   3.345
48776W        W21201  32.994  18.126  11.984
48777W        W21202  10.707  40.415  11.991
48778W        W21203  18.163  14.629   1.331
48779W        W21204  26.180  21.532   0.879
48780W        W21205   8.777  12.752   3.810
48781W        W21206  15.658  32.459  14.024
48782W        W21207   8.761  32.610  12.569
48783W        W21208  17.570  33.925   3.777
48784W        W21209   7.226  44.356   1.441
48785W        W21210   9.165  19.711  13.470
48786W        W21211  36.456   4.736   4.821
48787W        W21212  12.854  34.516   4.624
48788W        W21213  27.171  28.023   4.235
48789W        W21214  34.972  17.172  10.013
48790W        W21215  16.682  30.932   4.296
48791W        W21216  23.560   5.193   0.965
48792W        W21217  38.509  20.143   3.723
48793W        W21218   5.389   0.950   0.814
48794W        W21219  35.035  27.572   2.213
48795W        W21220  36.904   0.982  12.949
48796W        W21221  24.115  35.992  14.391
48797W        W21222  27.025  42.777  12.092
48798W        W21223   1.790  35.087  12.508
48799W        W21224  28.669  21.693   3.829
48800W        W21225  15.287  39.960  14.010
48801W        W21226  30.980  19.263  12.834
48802W        W21227  26.623  29.425   0.952
48803W        W21228   7.859  39.910   2.872
48804W        W21229  26.954   9.156   3.841
48805W        W21230   6.844  44.438   2.678
48806W        W21231  43.423   9.822   0.278
48807W        W21232  18.714  26.696  14.882
48808W        W21233   9.203  14.223   2.773
48809W        W21234  42.384  16.640  12.948
48810W        W21235  37.497  20.621  11.970
48811W        W21236  44.416  27.597  14.005
48812W        W21237  24.000  22.552  11.394
48813W        W21238  13.266  20.549   0.939
48814W        W21239  38.380  36.861  14.935
48815W        W21240  37.044   5.890   0.829
48816W        W21241  41.010   3.780   2.880
48817W        W21242  40.308  43.432   4.198
48818W        W21243  20.257  44.481  10.026
48819W        W21244   0.254  41.862  11.551
48820W        W21245  33.483  35.418  14.422
48821W        W21246  23.559   8.343   9.459
48822W        W21247  25.574  42.415  14.484
48823W        W21248  40.841  22.110  13.828
48824W        W21249  28.528  26.678  14.812
48825W        W21250   1.859  17.100   0.259
48826W        W21251  32.428  32.444  11.505
48827W        W21252  28.579   1.410   2.762
48828W        W21253  32.999  26.007   4.259
48829W        W21254   3.819  22.690  13.547
48830W        W21255  36.055   9.363   0.775
48831W        W21256  12.184  44.756   1.817
48832W        W21257  24.145   9.191  11.956
48833W        W21258   0.792  27.686   2.791
48834W        W21259  36.964  42.989  13.438
48835W        W21260  15.723  30.608  13.862
48836W        W21261  12.255  28.185   2.681
48837W        W21262  16.614  23.687   3.860
48838W        W21263  35.046  19.735  11.379
48839W        W21264  23.694   5.367   3.272
48840W        W21265  20.718   9.348  13.874
48841W        W21266  42.942  15.239   2.881
48842W        W21267  13.105  33.506  12.054
48843W        W21268   2.858   9.355   2.341
48844W        W21269  43.915  38.540   1.363
48845W        W21270   3.327  43.342  11.009
48846W        W21271  24.224  17.276  13.351
48847W        W21272  34.468  11.267  12.995
48848W        W21273  31.993  18.181   2.709
48849W        W21274  35.375  22.060   1.300
48850W        W21275  18.254  36.383   4.158
48851W        W21276  18.732  42.007   3.667
48852W        W21277   0.874  34.111  11.600
48853W        W21278  38.056  23.204  12.896
48854W        W21279  20.570  38.057  13.505
48855W        W21280  13.827  12.624   4.652
48856W        W21281  15.155  43.314   2.702
48857W        W21282  14.224  23.736  12.371
48858W        W21283  18.106  40.446  13.439
48859W        W21284  37.577   7.680  14.361
48860W        W21285  37.397  22.520   3.814
48861W        W21286   1.858  19.732  12.537
48862W        W21287  35.558  10.224   2.884
48863W        W21288  36.502  36.019   1.399
48864W        W21289  40.909  43.889  14.852
48865W        W21290  33.945  11.318  13.892
48866W        W21291   9.195  11.266  10.567
48867W        W21292  40.545  38.937   0.886
48868W        W21293  44.297  10.676   0.461
48869W        W21294  43.296  12.309  12.424
48870W        W21295  35.482   7.205  11.109
48871W        W21296   9.274   0.770  10.947
48872W        W21297  24.135  39.811  11.508
48873W        W21298  25.619  10.764  10.531
48874W        W21299  41.899  16.124  12.358
48875W        W21300  30.528  28.102   3.384
48876W        W21301  42.017   7.357   1.872
48877W        W21302  22.546  29.447  10.460
48878W        W21303  32.636   9.294  12.946
48879W        W21304  11.771  17.591   3.237
48880W        W21305   9.208  30.511  11.095
48881W        W21306  20.740  37.022  10.442
48882W        W21307  14.733  16.765  10.597
48883W        W21308  14.635   8.804  12.984
48884W        W21309  27.178  37.465  12.356
48885W        W21310  42.469  34.545   0.248
48886W        W21311  41.973  27.453   1.875
48887W        W21312  27.474   4.212   1.932
48888W        W21313  33.061  28.982   2.872
48889W        W21314  32.521  23.232   1.808
48890W        W21315  40.489  12.714   1.398
48891W        W21316  24.126  14.686  12.965
48892W        W21317  11.718  22.122  13.848
48893W        W21318  12.186  35.854   2.715
48894W        W21319  23.239  15.306  10.630
48895W        W21320  25.680  40.337  14.848
48896W        W21321  29.121   2.814   3.197
48897W        W21322  12.846  24.183  10.908
48898W        W21323  19.563  37.571   0.483
48899W        W21324   1.898  11.293   4.307
48900W        W21325  26.488   0.470   3.258
48901W        W21326  21.165  33.594  11.967
48902W        W21327  13.292   5.788  12.439
48903W        W21328   0.901   3.254   4.203
48904W        W21329  19.230  42.307  12.869
48905W        W21330   3.774  27.959  13.430
48906W        W21331  36.435   1.373  14.887
48907W        W21332  32.426  41.848  11.513
48908W        W21333  44.465  40.915  12.440
48909W        W21334   1.354   2.383  14.333
48910W        W21335  29.160  12.313  12.964
48911W        W21336  38.478  14.207   3.752
48912W        W21337  42.878  30.460   1.229
48913W        W21338  17.619  44.447   2.276
48914W        W21339  41.841   5.327  13.850
48915W        W21340  38.967   0.988   5.172
48916W        W21341  16.285  35.584   1.284
48917W        W21342  32.898  22.727   4.293
48918W        W21343  18.264  31.595  12.880
48919W        W21344  29.468  26.151   0.810
48920W        W21345  30.994  10.804   2.712
48921W        W21346  44.798  42.296   3.784
48922W        W21347  29.643  18.555  11.531
48923W        W21348  12.846   2.950   3.369
48924W        W21349  12.651   9.299   2.720
48925W        W21350  14.762  12.149  14.963
48926W        W21351   9.205  34.941   4.129
48927W        W21352   8.691  21.069  11.103
48928W        W21353  15.147  23.573  10.506
48929W        W21354  34.099  38.399   1.768
48930W        W21355   8.664  16.145  13.061
48931W        W21356   5.231  21.078  14.001
48932W        W21357  41.323  14.321  10.438
48933W        W21358  22.242  24.115  11.477
48934W        W21359  40.307  38.835  10.063
48935W        W21360  14.650   8.364   3.764
48936W        W21361   9.711   2.737  12.400
48937W        W21362  39.470  30.018  11.864
48938W        W21363  29.986  39.323   1.849
48939W        W21364  12.671  19.090  10.591
48940W        W21365  33.970  11.733  13.868
48941W        W21366  43.322  15.588   0.390
48942W        W21367   2.927   2.840  13.815
48943W        W21368   2.896  28.641   2.800
48944W        W21369  10.791  14.219  12.385
48945W        W21370  41.384  16.590  11.377
48946W        W21371  25.050  35.014   0.933
48947W        W21372  40.886  21.163   0.765
48948W        W21373  42.350  43.810   0.946
48949W        W21374  30.131  33.002  11.920
48950W        W21375  13.604  40.051   1.315
48951W        W21376  36.445  25.037  10.500
48952W        W21377   5.422  12.784   0.928
48953W        W21378  15.099  11.272  12.468
48954W        W21379  29.085  26.072  11.583
48955W        W21380  39.822  25.614   2.670
48956W        W21381  26.685  35.075   5.193
48957W        W21382  28.123  43.387   1.276
48958W        W21383  17.125  22.699   0.843
48959W        W21384  37.436  28.025  10.614
48960W        W21385  34.096  37.574   2.279
48961W        W21386  22.201   6.686  10.976
48962W        W21387  16.208  32.036  12.869
48963W        W21388  17.169  11.841  12.524
48964W        W21389  40.891  30.575  11.113
48965W        W21390  20.715  39.892  12.410
48966W        W21391  21.549   3.461  10.639
48967W        W21392  16.260  17.731  11.548
48968W        W21393   2.375  28.673  13.438
48969W        W21394  42.836  19.072   2.279
48970W        W21395   9.389  35.979  11.895
48971W        W21396   6.366  19.668   2.343
48972W        W21397   7.788  36.842  10.526
48973W        W21398   0.286  43.413   1.815
48974W        W21399   6.873   3.431  12.856
48975W        W21400  19.070  43.472   3.315
48976W        W21401   0.773  13.706  14.778
48977W        W21402   4.735   1.324  10.067
48978W        W21403  31.024  40.549   2.267
48979W        W21404   0.882  32.025   1.376
48980W        W21405  33.926  20.223   1.250
48981W        W21406  28.445  29.939  11.952
48982W        W21407  12.787  44.807   4.353
48983W        W21408  35.944  19.275  10.973
48984W        W21409   8.333   5.259   1.850
48985W        W21410  40.432   5.437  14.024
48986W        W21411   8.891  28.610  14.007
48987W        W21412  37.517  38.841  14.324
48988W        W21413  18.717  25.983   3.260
48989W        W21414  17.777  35.371   4.686
48990W        W21415  36.425  13.144   0.375
48991W        W21416  36.859   7.675   2.347
48992W        W21417  11.623   1.801   4.679
48993W        W21418  13.210  42.775  14.019
48994W        W21419  40.934  11.733  12.930
48995W        W21420  32.081  27.593   3.859
48996W        W21421  42.957  19.046   3.378
48997W        W21422  10.705  18.276   4.276
48998W        W21423  23.697  35.079   0.901
48999W        W21424  17.682  31.571   0.878
49000W        W21425  32.130  10.283  13.850
49001W        W21426   6.402  41.360  13.439
49002W        W21427  38.951  29.041  11.592
49003W        W21428  41.352  36.861   2.417
49004W        W21429  25.607  23.039  12.062
49005W        W21430   4.211  25.600   0.258
49006W        W21431  19.188   3.926   0.414
49007W        W21432  14.297  23.660   4.721
49008W        W21433  18.086   1.308   2.413
49009W        W21434  12.140  15.211  11.493
49010W        W21435  18.677  18.282   1.893
49011W        W21436  33.451   7.363  12.892
49012W        W21437  32.917   3.945  13.378
49013W        W21438  36.473  18.587   4.673
49014W        W21439  37.056  28.023  14.777
49015W        W21440  16.744  28.057   3.249
49016W        W21441  28.654   0.464   1.823
49017W        W21442  18.782  13.620  11.382
49018W        W21443   3.807  32.622  13.425
49019W        W21444  38.955  30.512   4.775
49020W        W21445  42.885   9.743   3.690
49021W        W21446  38.372  36.558   3.698
49022W        W21447  12.123  19.621  14.823
49023W        W21448  43.979  13.640  11.982
49024W        W21449  35.459  40.526   0.933
49025W        W21450  10.157   3.397   0.392
49026W        W21451  29.960  15.116   2.179
49027W        W21452   1.914  37.572  10.416
49028W        W21453  34.500   0.271   4.631
49029W        W21454  35.073  39.972  13.361
49030W        W21455  12.756  22.095   5.711
49031W        W21456   7.235  14.295   3.295
49032W        W21457  14.662  22.521   0.393
49033W        W21458  26.464  39.917  12.542
49034W        W21459  36.947   8.401   4.162
49035W        W21460  27.996  36.964   0.950
49036W        W21461   3.341   8.357   3.708
49037W        W21462  26.148   6.696  13.315
49038W        W21463  22.235  23.210   1.263
49039W        W21464  39.487  10.762  13.898
49040W        W21465  20.559   3.888   4.826
49041W        W21466  31.976  28.097   5.151
49042W        W21467   9.202  11.651  14.760
49043W        W21468  24.015  38.029  11.052
49044W        W21469  17.668  18.789  13.828
49045W        W21470  33.942  11.815   4.612
49046W        W21471  17.259   0.430  10.503
49047W        W21472  43.787  27.949  13.434
49048W        W21473  12.824   8.665   4.211
49049W        W21474  27.660  42.394  13.326
49050W        W21475  15.190  17.268  14.400
49051W        W21476  15.651   6.886  10.978
49052W        W21477  20.132  14.821   2.883
49053W        W21478  13.783  32.635   0.421
49054W        W21479   5.320  41.874   3.180
49055W        W21480  42.916  44.889  12.023
49056W        W21481  33.547  41.396   3.250
49057W        W21482   0.480   4.424  10.509
49058W        W21483   7.242  38.434   0.905
49059W        W21484  17.582  39.502   3.718
49060W        W21485  24.631   1.753   1.883
49061W        W21486  20.213  35.934  12.581
49062W        W21487  29.029  21.529   4.134
49063W        W21488  21.653  16.144   1.737
49064W        W21489  32.989  21.652  13.883
49065W        W21490   7.897   8.735   1.756
49066W        W21491  13.806   9.247  11.119
49067W        W21492  20.201  27.117   4.619
49068W        W21493   4.743  14.179  13.455
49069W        W21494  14.179  10.187  12.441
49070W        W21495  32.403  41.464   3.723
49071W        W21496  19.561   0.947  13.887
49072W        W21497  44.001  14.228  10.903
49073W        W21498  41.857  24.618  14.388
49074W        W21499  29.933  30.090  13.365
49075W        W21500  20.647   8.671  11.480
49076W        W21501  43.321  40.425  10.595
49077W        W21502  35.440   9.153   1.247
49078W        W21503  39.991  19.057  10.437
49079W        W21504  29.071  11.171  12.386
49080W        W21505   6.732  13.243   2.286
49081W        W21506   6.371  10.364   1.867
49082W        W21507  31.142  20.162   2.728
49083W        W21508  15.776  21.036  13.926
49084W        W21509  21.567  19.660   1.768
49085W        W21510   4.314   7.682  14.440
49086W        W21511   5.359   2.840   2.289
49087W        W21512  31.417  22.538  11.978
49088W        W21513   4.790  19.768  12.448
49089W        W21514  43.865  29.614   1.386
49090W        W21515   9.180  27.944  10.564
49091W        W21516  33.988  32.924  12.413
49092W        W21517   2.395  32.079  13.969
49093W        W21518   4.256  29.544  10.551
49094W        W21519  17.582  43.837   4.741
49095W        W21520  35.415  41.891   3.857
49096W        W21521  32.134  14.804  10.988
49097W        W21522  15.698   9.758  11.108
49098W        W21523   0.462  24.624   2.724
49099W        W21524  39.393  22.109  14.501
49100W        W21525  43.313  22.250  13.041
49101W        W21526  27.572  25.624  13.548
49102W        W21527   7.187  31.927   3.697
49103W        W21528  39.904  14.696  11.124
49104W        W21529  16.687   3.386  12.442
49105W        W21530  26.128  41.858  14.814
49106W        W21531  31.562  44.925  13.910
49107W        W21532  39.960  24.542  10.537
49108W        W21533  12.237  32.978  12.070
49109W        W21534  32.637  15.770  13.885
49110W        W21535  37.932  17.271  13.428
49111W        W21536  16.749   2.791  12.380
49112W        W21537  10.325  34.489   0.755
49113W        W21538  35.104  44.313   3.768
49114W        W21539  19.131   2.429   9.574
49115W        W21540  23.019   5.265  11.917
49116W        W21541  36.488   3.405  10.123
49117W        W21542  15.207  22.595   1.393
49118W        W21543  40.375  27.096  10.899
49119W        W21544   3.328   6.260   1.303
49120W        W21545   3.737  28.954   1.729
49121W        W21546  22.707  44.888  14.939
49122W        W21547   6.877  43.986  14.315
49123W        W21548  28.650  35.898   0.310
49124W        W21549  32.900   1.973   3.668
49125W        W21550   7.232   9.304  12.966
49126W        W21551  32.555  19.163  10.006
49127W        W21552  21.254  29.131   2.709
49128W        W21553  19.618  24.591  13.424
49129W        W21554  24.128  24.983   0.294
49130W        W21555  42.922   8.752  14.884
49131W        W21556   6.283  36.370  14.863
49132W        W21557  28.662  35.883   3.330
49133W        W21558   0.493  16.265  11.491
49134W        W21559   3.834  35.543  13.877
49135W        W21560  44.853  26.637  14.330
49136W        W21561  44.283  20.577  14.300
49137W        W21562  44.422  34.946  12.051
49138W        W21563  16.085  22.691   4.665
49139W        W21564  37.004  22.059   3.661
49140W        W21565  31.524  11.724   1.890
49141W        W21566   2.276   2.752  12.923
49142W        W21567  40.041  19.734  10.904
49143W        W21568  12.341  29.573   3.320
49144W        W21569  26.472  30.597   1.226
49145W        W21570  35.998  13.177   1.913
49146W        W21571  38.036  37.518   1.798
49147W        W21572   7.230  40.023   2.732
49148W        W21573  32.404  13.151  11.067
49149W        W21574  34.576  44.982   2.891
49150W        W21575  36.537   5.889   4.644
49151W        W21576  42.891  30.651  10.576
49152W        W21577   4.380   7.698   3.175
49153W        W21578  23.042  41.934  12.490
49154W        W21579  22.068  24.191  12.508
49155W        W21580  11.165  31.406  12.902
49156W        W21581   5.825  24.069   4.773
49157W        W21582   6.720  37.898   5.245
49158W        W21583  44.755  43.934   1.405
49159W        W21584  41.517  32.032  14.882
49160W        W21585   7.869  16.140  11.001
49161W        W21586   5.357  36.993   0.942
49162W        W21587  36.051  34.911   2.853
49163W        W21588   6.427  33.600  10.913
49164W        W21589  39.964  37.086   4.283
49165W        W21590   8.772   8.697  10.016
49166W        W21591  13.335  12.645  11.913
49167W        W21592  44.843   1.320  14.913
49168W        W21593  41.468  38.538  12.829
49169W        W21594  27.581  38.488  13.948
49170W        W21595   8.347  39.965  13.036
49171W        W21596  11.269  12.212  12.516
49172W        W21597   0.949  42.972   4.299
49173W        W21598  15.321  11.771  13.050
49174W        W21599  37.532  32.048   2.903
49175W        W21600   0.353  41.916   3.150
49176W        W21601  35.488  23.539  13.935
49177W        W21602  43.841  36.456   0.842
49178W        W21603  14.162  37.538  12.384
49179W        W21604  36.846   3.239  12.976
49180W        W21605  11.676  38.558   2.852
49181W        W21606  40.946  22.513  12.026
49182W        W21607  20.716  13.760  11.025
49183W        W21608  36.029  21.525   1.408
49184W        W21609  42.518   9.337  14.004
49185W        W21610  28.532  39.932  12.044
49186W        W21611  44.311  14.256  10.046
49187W        W21612  34.012  19.621   2.359
49188W        W21613  16.694  21.214   0.840
49189W        W21614  31.002  18.224  11.121
49190W        W21615  19.604  42.793   1.247
49191W        W21616  33.473   8.279  14.465
49192W        W21617  36.990  35.459   0.471
49193W        W21618  27.674  10.659  11.974
49194W        W21619  16.260  19.733  14.477
49195W        W21620  19.098  35.434   1.743
49196W        W21621  21.632  27.556   3.339
49197W        W21622  25.066  36.906  13.899
49198W        W21623  22.045  32.426   1.910
49199W        W21624   1.376  11.800   0.881
49200W        W21625   2.769  18.232  14.366
49201W        W21626   6.336  27.189  13.046
49202W        W21627  35.956  39.824   2.878
49203W        W21628  24.103   5.213  12.004
49204W        W21629  36.947  37.937  14.880
49205W        W21630  28.103  20.174  11.527
49206W        W21631  39.048  32.489   2.663
49207W        W21632   1.260  37.897   0.438
49208W        W21633  39.014  22.535   1.751
49209W        W21634   9.726   7.347   9.995
49210W        W21635   9.158  24.058  10.588
49211W        W21636  30.010   3.368   1.303
49212W        W21637  36.002  29.549  14.975
49213W        W21638   7.766   0.866   4.193
49214W        W21639  39.011  40.325  11.425
49215W        W21640  44.882  10.867   4.796
49216W        W21641  26.977   6.704  11.395
49217W        W21642  31.001  32.566   1.396
49218W        W21643  16.186  31.141   2.775
49219W        W21644   0.961  24.571   1.307
49220W        W21645   0.478  16.234   0.254
49221W        W21646  13.789  43.492   0.941
49222W        W21647  15.278  16.106  14.403
49223W        W21648  39.390  38.881  14.499
49224W        W21649   1.975  20.690   0.275
49225W        W21650  31.141  23.170  11.444
49226W        W21651  37.580  39.001  13.426
49227W        W21652   1.947  39.925  11.477
49228W        W21653  17.090  40.456   3.278
49229W        W21654  22.650  32.556   4.609
49230W        W21655  11.852  21.517   2.218
49231W        W21656  44.336  30.488  14.278
49232W        W21657   0.281  24.189   0.426
49233W        W21658   0.291  35.547   1.903
49234W        W21659  16.216   3.449   5.255
49235W        W21660  11.330  39.478   3.721
49236W        W21661  26.108  31.056   2.198
49237W        W21662  13.707   8.686  14.451
49238W        W21663  15.782  32.482   1.855
49239W        W21664  29.007  16.264  11.555
49240W        W21665  13.199  22.007  11.505
49241W        W21666  19.753   5.364   1.387
49242W        W21667  32.404  19.557   3.849
49243W        W21668  10.268  34.930   1.856
49244W        W21669   2.900  34.503  14.808
49245W        W21670  10.168   8.288   4.150
49246W        W21671  33.989   9.647   4.182
49247W        W21672  42.398  24.147  12.353
49248W        W21673  23.540  38.894  14.339
49249W        W21674   7.251  12.356   1.871
49250W        W21675  25.218  22.123   4.351
49251W        W21676   9.199  23.500   0.427
49252W        W21677  11.820  25.646   1.779
49253W        W21678  39.524  38.849   0.940
49254W        W21679  38.537  24.136   0.964
49255W        W21680  32.479  35.559  13.510
49256W        W21681  18.239  21.536   1.451
49257W        W21682  20.195  37.919   4.800
49258W        W21683  42.313  43.505  14.885
49259W        W21684  36.842  26.071   5.210
49260W        W21685  39.325  41.871  10.012
49261W        W21686  34.074   5.366   4.670
49262W        W21687  17.661   8.860  12.861
49263W        W21688  16.296  21.101  14.012
49264W        W21689  14.256  24.689   0.790
49265W        W21690  19.732   2.854   0.339
49266W        W21691  15.724  17.258   0.784
49267W        W21692  26.615   8.702   1.717
49268W        W21693   3.391   0.791   2.402
49269W        W21694  29.992  31.555   2.204
49270W        W21695  29.105  38.391   1.424
49271W        W21696   5.742  20.537   3.381
49272W        W21697   4.213  35.359   4.821
49273W        W21698  23.026  37.079  10.472
49274W        W21699  12.190  27.964   0.874
49275W        W21700  26.022  18.546  11.964
49276W        W21701  12.165  22.217  11.542
49277W        W21702  24.719  26.105  13.363
49278W        W21703   5.693  44.753  13.875
49279W        W21704  31.411  20.251  13.520
49280W        W21705  12.156  23.992  13.447
49281W        W21706  22.602   0.934   5.221
49282W        W21707  35.401  38.430  10.917
49283W        W21708  17.723   9.734  13.504
49284W        W21709  28.538  11.157   0.374
49285W        W21710  41.984   1.352  14.794
49286W        W21711   6.686  17.258  12.509
49287W        W21712  34.035  17.229  14.802
49288W        W21713  37.954   8.234   2.336
49289W        W21714  31.623  24.497  12.568
49290W        W21715  34.556  42.480  14.334
49291W        W21716  20.532  41.518   3.254
49292W        W21717  35.975  29.471   4.813
49293W        W21718  36.514  18.213  12.465
49294W        W21719  28.117   4.758   3.692
49295W        W21720  14.641   9.793  14.816
49296W        W21721  18.614  30.546   2.316
49297W        W21722  21.175   8.739  12.546
49298W        W21723   9.760   0.297  11.981
49299W        W21724  37.990   2.822   0.482
49300W        W21725   6.921   8.862  10.475
49301W        W21726  17.764  19.776   3.321
49302W        W21727  23.114  32.955  10.564
49303W        W21728  26.547  31.610   0.302
49304W        W21729   6.322  19.189   1.874
49305W        W21730  10.250  27.455   5.261
49306W        W21731  10.378  43.323  14.983
49307W        W21732   3.219  40.374   5.322
49308W        W21733  26.081  12.758  13.405
49309W        W21734  13.279  11.625  11.919
49310W        W21735  44.786  28.648  12.568
49311W        W21736  33.409  17.277   4.138
49312W        W21737  17.141   6.428   2.328
49313W        W21738  41.459   7.778   4.156
49314W        W21739  13.729  16.665  13.375
49315W        W21740  26.538  41.518  10.157
49316W        W21741   0.322   5.196  13.457
49317W        W21742  42.341  27.050  14.857
49318W        W21743  42.356   6.743  11.945
49319W        W21744  25.641  15.316   3.766
49320W        W21745  41.298  25.591  10.606
49321W        W21746  10.719  27.163  10.644
49322W        W21747  41.477  19.553   1.903
49323W        W21748  43.939  23.591   4.771
49324W        W21749  10.654   0.458   3.331
49325W        W21750  41.954  32.013  11.510
49326W        W21751  18.711  29.566  10.960
49327W        W21752  39.879  36.953  13.021
49328W        W21753  20.203  17.763  14.921
49329W        W21754  12.230  17.611  14.979
49330W        W21755   1.243   0.433  12.966
49331W        W21756   3.411  22.029  11.904
49332W        W21757  35.880  27.003   2.866
49333W        W21758  12.334  35.084   1.306
49334W        W21759   6.895  36.007   4.611
49335W        W21760  29.458  24.120  10.444
49336W        W21761  12.815  18.556  14.951
49337W        W21762  41.928   6.309  13.996
49338W        W21763  31.479  10.373   2.684
49339W        W21764  41.032  37.512   0.460
49340W        W21765  24.007  33.917  13.924
49341W        W21766  31.505  13.274   4.116
49342W        W21767   8.805   6.881  13.397
49343W        W21768  28.596  18.285  12.975
49344W        W21769  20.536  22.122  10.935
49345W        W21770  44.430  35.073  13.443
49346W        W21771  29.643  32.474   0.469
49347W        W21772  39.352  43.275  12.011
49348W        W21773  26.087  16.753  13.063
49349W        W21774  11.231  28.154  12.055
49350W        W21775  11.313  15.192   3.696
49351W        W21776   9.304  28.948  14.838
49352W        W21777  42.920  39.959   0.736
49353W        W21778   0.822  30.948   1.380
49354W        W21779  16.123  29.119   1.265
49355W        W21780  34.447   3.763   4.287
49356W        W21781  39.368  44.484   0.422
49357W        W21782  44.413  11.695   2.208
49358W        W21783  41.451  40.948  13.984
49359W        W21784  13.140   3.714   0.456
49360W        W21785  38.907   7.378   3.280
49361W        W21786  43.331   5.751   0.466
49362W        W21787   0.857   7.699   4.211
49363W        W21788  33.435  40.423  14.834
49364W        W21789  36.416  23.040  12.030
49365W        W21790  17.180  25.090  11.440
49366W        W21791  31.486  22.154   2.182
49367W        W21792  27.048  28.102   3.864
49368W        W21793  42.949  12.696  10.996
49369W        W21794   3.348  26.194   4.630
49370W        W21795   5.785  17.268   2.821
49371W        W21796  24.674   2.263  13.832
49372W        W21797  28.489  11.786  10.911
49373W        W21798   6.397   9.171   4.309
49374W        W21799   7.671   5.707  12.842
49375W        W21800  11.737  20.587  12.042
49376W        W21801  38.465  37.402  12.438
49377W        W21802  33.114  36.922   0.955
49378W        W21803   6.751  25.589  11.979
49379W        W21804  26.494  35.025   2.335
49380W        W21805  14.823   6.232  14.318
49381W        W21806  19.068  40.473  10.928
49382W        W21807  29.608  33.408  11.514
49383W        W21808  22.202  20.247   1.363
49384W        W21809  36.446  14.238   4.631
49385W        W21810   7.673   9.224  12.848
49386W        W21811  23.078  29.123   0.299
49387W        W21812  13.677   1.962  10.906
49388W        W21813  30.018  41.982   3.162
49389W        W21814  35.582   2.812  11.437
49390W        W21815  23.064  28.608  12.340
49391W        W21816  38.443  32.910  11.547
49392W        W21817   8.881   9.155  13.058
49393W        W21818  18.142  23.534  14.798
49394W        W21819  28.461  44.362   9.997
49395W        W21820  21.034  42.483   0.777
49396W        W21821  18.594  24.606  12.476
49397W        W21822  12.614  16.289   1.373
49398W        W21823  26.045  34.432   2.256
49399W        W21824  19.684  35.993  11.102
49400W        W21825  41.939  23.192  14.896
49401W        W21826   3.421  10.363  14.014
49402W        W21827   5.393   9.853  12.531
49403W        W21828   8.374  39.499   1.778
49404W        W21829  37.467  12.354   2.841
49405W        W21830   3.304  10.220  14.366
49406W        W21831   1.732   5.307   2.348
49407W        W21832  39.989   1.838  13.367
49408W        W21833   8.813  31.123  14.329
49409W        W21834   8.324  44.968  13.035
49410W        W21835   9.286  36.899   1.249
49411W        W21836  21.625  24.063   2.353
49412W        W21837  31.435  21.171   4.606
49413W        W21838  22.696  11.244   3.385
49414W        W21839  32.139   3.426   4.258
49415W        W21840   9.355  34.530   2.854
49416W        W21841  44.975  17.164   0.825
49417W        W21842  41.314  11.861  14.985
49418W        W21843  43.505   0.948  11.053
49419W        W21844  29.033  21.579   0.274
49420W        W21845  41.801   4.887   2.346
49421W        W21846  36.015  39.889  14.966
49422W        W21847  28.052   2.399  11.985
49423W        W21848  31.999  38.941  10.524
49424W        W21849  17.721  10.863   1.420
49425W        W21850   6.322  25.190  11.062
49426W        W21851  28.453  38.498   1.369
49427W        W21852  43.960  40.914   3.697
49428W        W21853  14.302   2.329  14.330
49429W        W21854  43.939   4.211   2.396
49430W        W21855   5.822  26.174   3.223
49431W        W21856   8.355  37.439   0.958
49432W        W21857  30.035  34.116   0.413
49433W        W21858  22.110  32.418  10.594
49434W        W21859   9.781  27.635   2.685
49435W        W21860   0.752  37.072  11.891
49436W        W21861  13.217   2.801  11.058
49437W        W21862   7.789  14.669   0.832
49438W        W21863  33.072   5.747   3.317
49439W        W21864  18.569  35.581  13.439
49440W        W21865   3.915  40.958  12.049
49441W        W21866  26.992  35.872   3.340
49442W        W21867  11.801   9.842   3.380
49443W        W21868  33.608  11.309  14.030
49444W        W21869  19.282  24.637  10.938
49445W        W21870  22.250  10.656  13.017
49446W        W21871  17.692  44.361  14.340
49447W        W21872  12.721  19.133   4.799
49448W        W21873  28.631  10.690  11.001
49449W        W21874  11.750   2.791   4.300
49450W        W21875  38.073  36.057   3.248
49451W        W21876  37.875  34.615   1.374
49452W        W21877   1.477   3.741  12.486
49453W        W21878  44.934   1.939   5.308
49454W        W21879   5.868  16.644   4.266
49455W        W21880  35.475  24.669  14.936
49456W        W21881  23.026   9.752   4.826
49457W        W21882  39.441  26.545   0.956
49458W        W21883  35.983  24.552   4.146
49459W        W21884  12.774   3.407  13.322
49460W        W21885  21.640  35.444  14.778
49461W        W21886   3.931  37.937   1.870
49462W        W21887  12.675  32.910   1.429
49463W        W21888  35.416  39.933  14.811
49464W        W21889   6.328  40.046   3.363
49465W        W21890  41.348  21.039  10.926
49466W        W21891  34.466  35.409  12.397
49467W        W21892  26.679  16.645  12.454
49468W        W21893  11.322  31.943   0.358
49469W        W21894  23.599  21.197   0.793
49470W        W21895   3.895   7.229   1.211
49471W        W21896   4.817  14.141  11.002
49472W        W21897  24.695  44.422  14.015
49473W        W21898  35.960  37.086   4.756
49474W        W21899  35.920   3.786  13.471
49475W        W21900   8.834  44.384   3.841
49476W        W21901  24.149  32.491  13.867
49477W        W21902  22.644  14.630  13.394
49478W        W21903   4.398  36.487   3.764
49479W        W21904  44.359  18.103  10.150
49480W        W21905  18.148  25.203  12.038
49481W        W21906  34.515  36.044   2.357
49482W        W21907   5.394  31.046   4.730
49483W        W21908  19.774  23.080   4.166
49484W        W21909  18.625   6.689   4.771
49485W        W21910  39.060   6.242  13.983
49486W        W21911  14.180  24.724  13.542
49487W        W21912  41.817  39.406  13.976
49488W        W21913  11.818   5.867  11.540
49489W        W21914  10.640  22.020  10.410
49490W        W21915  36.037   0.477   4.619
49491W        W21916  43.934  17.685  12.543
49492W        W21917  13.675  41.456   1.815
49493W        W21918  14.271  31.477   2.303
49494W        W21919  19.693  12.769  12.876
49495W        W21920  26.072   0.388  12.870
49496W        W21921  32.909  21.079   2.887
49497W        W21922  42.314   6.775   1.740
49498W        W21923  33.436  38.936   0.808
49499W        W21924  25.208   0.891  13.970
49500W        W21925  12.796  30.541  14.372
49501W        W21926   9.338  39.938  14.365
49502W        W21927  32.979   5.429  10.466
49503W        W21928  24.561   4.808   4.145
49504W        W21929   2.430   0.268   2.728
49505W        W21930  34.079  34.918  11.901
49506W        W21931  42.937  27.520  12.000
49507W        W21932  29.168   3.864   4.303
49508W        W21933  20.624  10.740   3.824
49509W        W21934  31.922   8.735  11.420
49510W        W21935   7.858  30.435  12.013
49511W        W21936   6.680   7.750  14.339
49512W        W21937  22.176  12.771  13.801
49513W        W21938   1.807  14.286  14.355
49514W        W21939  39.551  38.505   2.330
49515W        W21940   7.276  22.136   3.776
49516W        W21941  18.126  20.575   1.239
49517W        W21942  16.300  30.588  11.962
49518W        W21943  29.583  42.815  12.904
49519W        W21944   3.923  30.570  11.072
49520W        W21945  24.193  40.400   3.704
49521W        W21946  18.109  18.670   1.342
49522W        W21947  29.492   5.416  14.007
49523W        W21948  17.091  10.737  12.897
49524W        W21949  15.164  34.895   3.349
49525W        W21950  35.380   8.772   3.851
49526W        W21951  34.066  28.624  11.098
49527W        W21952  35.999   3.438   4.748
49528W        W21953  21.223   6.883  11.396
49529W        W21954  15.645  17.633  13.398
49530W        W21955  17.779  35.097  10.585
49531W        W21956  43.839  44.806  14.840
49532W        W21957  19.736  17.800  10.601
49533W        W21958   7.345  27.495  12.481
49534W        W21959   9.154  29.662   0.400
49535W        W21960  20.143  19.680  12.925
49536W        W21961  16.247  35.370  14.939
49537W        W21962  42.515  23.235  11.889
49538W        W21963   1.243   7.406   2.898
49539W        W21964  31.473   3.864  10.555
49540W        W21965  44.963   8.260  13.986
49541W        W21966  37.404  31.909   4.719
49542W        W21967   2.382  36.376  10.916
49543W        W21968   0.785  36.097  11.609
49544W        W21969  25.575  42.856  11.908
49545W        W21970  10.813   0.836   4.182
49546W        W21971  14.208  32.007   3.296
49547W        W21972   9.310  44.802   2.719
49548W        W21973   7.237  22.682   4.214
49549W        W21974   3.895  18.185  12.477
49550W        W21975  25.983  20.196   0.827
49551W        W21976   0.770  17.727  11.087
49552W        W21977   0.953  28.608   0.964
49553W        W21978  19.569   6.882  12.497
49554W        W21979  44.843  36.007   2.229
49555W        W21980  34.975  16.269  12.956
49556W        W21981  14.599  24.119  14.000
49557W        W21982  37.567   0.417  10.984
49558W        W21983  16.788   4.238   1.385
49559W        W21984  32.588  29.645   3.770
49560W        W21985  33.528   4.877   3.833
49561W        W21986  33.392  38.825   2.213
49562W        W21987  18.236   7.411   4.835
49563W        W21988  38.473  39.472   2.352
49564W        W21989  27.687  40.843  12.465
49565W        W21990  28.474  12.845  12.510
49566W        W21991   0.758  25.476  14.352
49567W        W21992  12.807  37.422  14.948
49568W        W21993  22.629  13.628   1.423
49569W        W21994  14.286  16.781  14.299
49570W        W21995   6.687   8.295  13.520
49571W        W21996  41.795  41.435   3.183
49572W        W21997  31.036  42.448   3.364
49573W        W21998  39.506  28.490  10.903
49574W        W21999  28.604  33.879  10.067
49575W        W22000  22.733  22.570  12.058
49576W        W22001  21.739  21.579  11.595
49577W        W22002  42.404  41.294   2.805
49578W        W22003  32.492  21.107  14.447
49579W        W22004   9.752  10.292  10.411
49580W        W22005  35.511   0.906  11.490
49581W        W22006   4.394  18.055  12.393
49582W        W22007  12.715  36.996  13.910
49583W        W22008  20.042  44.922  12.511
49584W        W22009   7.416  16.584  13.529
49585W        W22010  31.572  22.064   2.849
49586W        W22011   4.355   3.441  14.344
49587W        W22012  22.161  22.568   0.436
49588W        W22013  10.152   6.880  14.782
49589W        W22014  13.834  36.458   4.610
49590W        W22015   0.860  23.685   4.635
49591W        W22016  43.271   4.245   0.312
49592W        W22017  15.136  22.219   4.342
49593W        W22018  39.336  26.701  11.111
49594W        W22019  38.926   9.383   1.346
49595W        W22020   9.181  20.205  13.516
49596W        W22021  18.612  36.476  10.546
49597W        W22022  33.565  33.432   3.218
49598W        W22023  20.656  37.372   2.808
49599W        W22024   8.224  38.930  10.983
49600W        W22025  15.659  23.112  14.360
49601W        W22026   2.241  16.099  12.568
49602W        W22027  16.100  42.942   4.828
49603W        W22028  23.623  15.107  12.450
49604W        W22029  18.209  29.996   5.272
49605W        W22030   2.443  16.727   1.932
49606W        W22031  14.256  21.083   0.735
49607W        W22032   0.863   3.755   2.780
49608W        W22033  18.668  37.913   3.842
49609W        W22034  13.739  13.349   2.241
49610W        W22035  41.965  25.485  12.539
49611W        W22036  34.881  28.166   4.828
49612W        W22037  42.906  24.000  12.344
49613W        W22038   7.758   5.840  13.987
49614W        W22039  20.547  35.007   0.257
49615W        W22040  41.039  40.893   2.326
49616W        W22041   0.930  29.060  12.918
49617W        W22042  18.162   8.349  13.399
49618W        W22043  24.635  10.220  13.317
49619W        W22044  15.116  36.073  13.438
49620W        W22045  43.479  30.455  11.961
49621W        W22046   4.919   6.752   0.884
49622W        W22047  34.018  18.619   0.739
49623W        W22048  35.397  10.688   4.730
49624W        W22049  19.690  41.503  11.951
49625W        W22050   1.897  21.571  11.025
49626W        W22051  33.575  24.135   5.246
49627W        W22052  27.451  35.530  12.043
49628W        W22053  17.111   8.823   5.189
49629W        W22054  34.931  14.188  13.423
49630W        W22055  10.197  23.161   3.687
49631W        W22056  14.589   0.843  10.926
49632W        W22057  16.271  21.125  10.564
49633W        W22058   2.822  30.994  12.441
49634W        W22059  35.999  30.125   3.690
49635W        W22060  25.219  13.622  14.870
49636W        W22061  32.570  16.612   3.753
49637W        W22062  27.000  31.019  12.553
49638W        W22063  25.028  20.686   3.839
49639W        W22064  20.252  23.028   0.919
49640W        W22065  21.030   2.908  10.917
49641W        W22066   9.263  36.987  14.810
49642W        W22067   7.230  29.532  13.402
49643W        W22068  15.304   5.906  11.449
49644W        W22069  36.574  13.231   2.233
49645W        W22070  42.942  35.864   2.239
49646W        W22071  40.407  36.877   3.671
49647W        W22072  19.772  37.407  10.146
49648W        W22073  16.155   8.740   4.762
49649W        W22074  26.202   5.248   3.768
49650W        W22075  29.998  20.666  14.467
49651W        W22076  20.117  29.078  14.014
49652W        W22077  18.655  31.039   2.687
49653W        W22078  38.063  31.975   3.653
49654W        W22079  22.599  28.544  11.856
49655W        W22080   6.852  15.811  14.981
49656W        W22081  35.486   0.327   4.196
49657W        W22082  38.859  43.817   5.293
49658W        W22083  27.587  32.494  14.867
49659W        W22084  29.931   7.823  12.053
49660W        W22085  16.202  14.242  11.489
49661W        W22086   3.448  18.621   3.764
49662W        W22087  37.077  35.489  14.479
49663W        W22088  16.604  36.364  12.054
49664W        W22089  41.965  33.485   3.643
49665W        W22090  35.570  35.935   4.233
49666W        W22091  14.130   4.260   2.802
49667W        W22092  41.002  40.021   1.868
49668W        W22093  23.528  20.138  11.078
49669W        W22094  43.786   6.314  11.934
49670W        W22095  18.709  24.643   4.783
49671W        W22096  27.017  36.088  11.101
49672W        W22097  44.919   4.218  13.828
49673W        W22098  35.410  20.130   3.148
49674W        W22099  30.964  28.160  14.898
49675W        W22100  17.261  23.994   1.257
49676W        W22101   1.733  37.999   1.905
49677W        W22102  39.045   7.173   4.724
49678W        W22103  13.208   3.308   1.743
49679W        W22104  25.073   6.412  13.872
49680W        W22105   6.693   1.348  10.516
49681W        W22106  18.655  24.133  13.972
49682W        W22107   8.373   7.707   2.257
49683W        W22108  16.751   3.422  13.469
49684W        W22109  17.786  27.106   2.408
49685W        W22110  33.025  23.156   3.700
49686W        W22111  28.943  21.101   3.852
49687W        W22112  37.882  14.117   2.718
49688W        W22113  11.356   8.299   2.288
49689W        W22114   4.943  17.285   2.795
49690W        W22115  31.587  33.415  10.409
49691W        W22116  23.641  26.526   4.200
49692W        W22117  15.310  10.688   2.715
49693W        W22118   5.755  25.652  13.055
49694W        W22119   3.436  19.545   3.794
49695W        W22120  27.162  39.442  13.308
49696W        W22121  19.733   9.755   1.704
49697W        W22122  29.939  22.596   2.807
49698W        W22123  38.923  31.952   0.936
49699W        W22124  27.147  27.004   4.738
49700W        W22125  17.588  21.566   0.822
49701W        W22126  24.029  22.734   5.199
49702W        W22127  41.882  15.322   0.316
49703W        W22128  18.701  27.636  13.867
49704W        W22129   3.415  26.528   1.373
49705W        W22130   4.718  39.933  12.870
49706W        W22131   4.234  30.143   0.430
49707W        W22132   0.966  13.622  12.395
49708W        W22133   9.773  19.627  14.832
49709W        W22134   3.310   7.795  13.850
49710W        W22135  23.517   8.255  12.559
49711W        W22136  12.793  11.184  14.471
49712W        W22137  34.864  35.434   0.466
49713W        W22138  32.504   0.476   0.858
49714W        W22139  28.527   0.446   0.368
49715W        W22140  12.787  14.263   4.222
49716W        W22141   5.256  35.468   2.871
49717W        W22142   4.815  25.026   9.977
49718W        W22143  41.307   1.370  10.620
49719W        W22144  32.972  17.294  13.449
49720W        W22145  12.117  39.521   4.774
49721W        W22146  12.215  24.638  10.936
49722W        W22147  42.300  20.075   3.694
49723W        W22148  14.096  38.907  12.473
49724W        W22149   5.823  34.400  11.096
49725W        W22150  31.454   9.814  11.438
49726W        W22151  44.442   0.798  10.629
49727W        W22152   7.852  23.567   2.335
49728W        W22153   8.776  25.167   1.403
49729W        W22154  25.193  30.024   2.674
49730W        W22155  26.668  34.424   0.873
49731W        W22156  24.042  18.699   2.195
49732W        W22157  43.505  20.079   0.799
49733W        W22158  26.669  26.965  14.774
49734W        W22159  17.579  22.184   0.731
49735W        W22160  41.869  21.544  12.368
49736W        W22161  18.679   1.802   0.863
49737W        W22162   5.854  18.272  11.004
49738W        W22163  43.337  43.948  10.457
49739W        W22164  44.967  38.470  13.325
49740W        W22165   2.330  34.384  11.996
49741W        W22166  10.807  33.008   3.276
49742W        W22167  22.508  43.017  13.370
49743W        W22168  24.715   5.323   4.153
49744W        W22169  36.943  12.308  13.529
49745W        W22170  41.411  38.860  12.576
49746W        W22171   5.297  17.645  14.847
49747W        W22172  17.085  10.283  12.570
49748W        W22173  27.639  29.664   2.873
49749W        W22174  10.147  27.126  12.037
49750W        W22175  16.796  24.186  11.437
49751W        W22176   4.770  25.503   2.821
49752W        W22177  19.762  40.004   2.330
49753W        W22178  37.924  42.992   3.673
49754W        W22179  42.808  28.060   4.603
49755W        W22180  30.124  18.742  13.842
49756W        W22181  16.636   6.377   1.342
49757W        W22182   0.849   2.252   3.636
49758W        W22183   1.333   4.909  13.389
49759W        W22184  31.457  19.780  13.902
49760W        W22185  12.792  15.782  14.416
49761W        W22186  34.442  36.520   0.962
49762W        W22187  38.474  18.678   4.257
49763W        W22188  29.650   4.372  10.490
49764W        W22189  32.626  23.081   3.678
49765W        W22190   8.751  16.632   2.778
49766W        W22191  32.421  34.034   3.268
49767W        W22192   2.384  17.699  14.416
49768W        W22193  24.075  20.570  12.972
49769W        W22194  10.334  34.461  10.473
49770W        W22195  18.783   6.889   0.755
49771W        W22196   7.694  16.245   1.765
49772W        W22197  23.000  32.955   0.729
49773W        W22198   4.739  29.553  10.077
49774W        W22199  16.753  12.130  12.392
49775W        W22200  20.148  24.073  11.927
49776W        W22201  19.621  10.726  13.859
49777W        W22202   1.768  44.471  11.415
49778W        W22203  44.321  29.077  11.031
49779W        W22204  35.070   6.905  12.880
49780W        W22205  26.968  36.421  14.403
49781W        W22206  37.962  29.589   2.772
49782W        W22207   6.690  43.784   1.706
49783W        W22208  42.357  42.524  10.583
49784W        W22209  44.503  41.822   4.732
49785W        W22210   6.334   3.377   1.823
49786W        W22211  41.486  43.470   2.816
49787W        W22212  38.847  44.801  12.992
49788W        W22213   4.449  25.966   1.424
49789W        W22214  30.102  14.263   2.347
49790W        W22215  38.376  11.300   3.814
49791W        W22216  14.095   4.313   2.212
49792W        W22217   8.770  25.066   4.148
49793W        W22218  26.172  28.033  12.941
49794W        W22219   8.717  23.631  11.960
49795W        W22220  19.210  23.037   0.307
49796W        W22221  37.556  33.951   3.231
49797W        W22222  33.094  40.935  10.914
49798W        W22223  41.346  20.547  14.918
49799W        W22224  34.432  16.679   0.370
49800W        W22225  42.826  10.365  12.368
49801W        W22226  41.877  26.039   0.456
49802W        W22227   9.841  20.642  12.352
49803W        W22228  33.093   5.754   4.326
49804W        W22229  12.289   8.897  12.539
49805W        W22230  39.040   4.713  10.071
49806W        W22231  30.005   2.833   4.733
49807W        W22232   2.753   7.724  14.453
49808W        W22233  38.441  30.001   4.659
49809W        W22234  41.826  17.669  11.912
49810W        W22235   4.745  18.781  10.925
49811W        W22236  25.533  13.828   1.434
49812W        W22237  36.519  23.227   2.271
49813W        W22238  15.166  31.438  13.886
49814W        W22239  34.112  18.066  12.508
49815W        W22240  24.711  43.816   2.233
49816W        W22241  28.181   3.251  13.795
49817W        W22242   3.300  24.718  14.311
49818W        W22243  18.150  31.129  11.873
49819W        W22244  17.743  23.723  12.427
49820W        W22245  12.627   5.410   3.714
49821W        W22246  41.793  15.116   0.792
49822W        W22247   5.815  10.644  12.435
49823W        W22248  32.045  17.566   9.967
49824W        W22249   6.887  42.858   3.256
49825W        W22250  14.129  20.094   0.287
49826W        W22251  18.170  31.943  11.971
49827W        W22252  15.794  39.444  13.547
49828W        W22253  21.180  10.151  11.499
49829W        W22254  14.191  28.596  14.497
49830W        W22255  35.537   1.967  14.413
49831W        W22256  39.539  29.038  10.475
49832W        W22257  19.232  12.227  14.459
49833W        W22258  36.424  41.486  14.350
49834W        W22259  32.514  42.860   3.283
49835W        W22260  23.039   3.220   3.778
49836W        W22261  19.063  20.637   2.664
49837W        W22262   3.734  38.993  11.023
49838W        W22263   7.863  37.003  13.830
49839W        W22264   0.351  23.562   1.877
49840W        W22265  40.353  37.869   4.164
49841W        W22266  34.574  26.959   4.168
49842W        W22267  24.159   5.390  11.478
49843W        W22268  28.175  37.446   1.876
49844W        W22269  25.196  20.077  14.002
49845W        W22270  41.013  32.983  13.856
49846W        W22271  22.179  44.765  12.956
49847W        W22272  18.670   2.965  12.946
49848W        W22273   6.317   7.717  11.946
49849W        W22274  11.291  28.166   2.311
49850W        W22275  25.503  41.928  11.601
49851W        W22276  18.169  26.029  13.877
49852W        W22277  28.635  16.210  12.421
49853W        W22278  39.850   7.844  10.989
49854W        W22279  36.492   5.312   3.807
49855W        W22280  18.707  24.555  10.453
49856W        W22281  38.044   8.220   4.138
49857W        W22282  33.452   0.830   1.449
49858W        W22283  33.928  17.658   4.683
49859W        W22284  29.033   1.317   0.365
49860W        W22285  22.214  24.684  12.449
49861W        W22286  21.132  19.729  11.881
49862W        W22287  26.607  30.442   2.697
49863W        W22288   1.748  39.492   4.210
49864W        W22289  37.906  36.079  14.991
49865W        W22290  37.490  27.000   4.807
49866W        W22291   7.871  11.322   0.777
49867W        W22292   1.872  27.171  12.995
49868W        W22293  42.852   0.302  13.404
49869W        W22294  28.943  32.914  14.310
49870W        W22295  12.767  43.798  13.846
49871W        W22296  23.712  35.428  13.307
49872W        W22297  10.289  28.644  13.537
49873W        W22298  26.545  12.332   1.932
49874W        W22299   9.761  20.663  13.812
49875W        W22300  37.926  30.918  11.584
49876W        W22301  37.383  41.357   1.409
49877W        W22302  11.134  28.616  11.419
49878W        W22303   7.302  14.694  12.419
49879W        W22304  35.923   1.457   2.296
49880W        W22305   9.191  27.056  10.549
49881W        W22306  12.793  34.966   4.796
49882W        W22307  23.520  11.222  12.361
49883W        W22308  15.611  30.164  10.935
49884W        W22309   0.908   7.254   9.952
49885W        W22310   1.910  41.310   2.284
49886W        W22311  23.006  20.175   2.382
49887W        W22312  25.685  18.083   4.165
49888W        W22313  30.604   5.253  11.526
49889W        W22314  12.786  23.177  13.385
49890W        W22315  42.484  37.545   2.335
49891W        W22316  36.432   8.317   4.340
49892W        W22317   1.900  19.043   4.174
49893W        W22318  22.082  37.425   0.883
49894W        W22319  31.092  33.102  14.829
49895W        W22320  34.057  24.127   4.244
49896W        W22321   4.246  40.435  11.404
49897W        W22322  31.908  34.998   3.648
49898W        W22323   2.899  44.785   0.253
49899W        W22324  33.928   9.169  12.046
49900W        W22325  11.304  38.479  11.070
49901W        W22326  17.698  28.178   4.707
49902W        W22327   7.249  34.015   3.760
49903W        W22328  32.412  35.541   2.402
49904W        W22329  43.899  15.619  14.782
49905W        W22330  24.504  29.544   4.146
49906W        W22331  30.553  18.178  11.047
49907W        W22332  39.917   1.771   0.296
49908W        W22333  18.721  26.696  11.605
49909W        W22334  11.249  36.532  10.632
49910W        W22335  15.616   8.839   4.758
49911W        W22336  10.739   6.912  14.916
49912W        W22337  42.282  13.720   1.712
49913W        W22338  43.286  30.587   4.278
49914W        W22339  10.852   7.810   5.091
49915W        W22340  22.578  15.767  14.885
49916W        W22341  30.066  24.078   0.276
49917W        W22342  25.134  26.966  11.486
49918W        W22343   5.425  16.660  11.880
49919W        W22344   0.827  43.412   3.775
49920W        W22345  22.062   9.282  14.837
49921W        W22346  38.557   1.322   3.195
49922W        W22347   9.751   8.389  14.505
49923W        W22348  34.504   1.375   2.297
49924W        W22349  26.649  16.129  13.942
49925W        W22350  41.993  18.579   4.154
49926W        W22351   2.871  15.152   4.623
49927W        W22352  31.067  26.466   0.811
49928W        W22353   2.447   5.258   3.642
49929W        W22354  26.070  36.490  13.808
49930W        W22355  25.973  17.225   4.716
49931W        W22356  15.109  14.645   0.755
49932W        W22357  11.314  32.948   1.803
49933W        W22358  37.982  25.981   3.380
49934W        W22359  39.386  26.583  12.551
49935W        W22360   7.314   1.461   1.812
49936W        W22361  11.161  34.503   1.216
49937W        W22362  33.398   2.253  13.420
49938W        W22363  18.573  27.530  10.560
49939W        W22364  15.754  16.649   3.722
49940W        W22365  43.373  36.907   0.375
49941W        W22366  22.073   5.730   2.212
49942W        W22367  43.371  41.837  11.500
49943W        W22368  21.546  12.711  11.451
49944W        W22369  24.678  12.772  12.833
49945W        W22370  23.537  42.368  11.892
49946W        W22371  19.265  18.738  14.016
49947W        W22372  22.562  21.252   2.258
49948W        W22373  35.877  18.142   1.698
49949W        W22374   6.379   1.281  14.874
49950W        W22375  26.536  16.264   1.340
49951W        W22376  43.861  26.658   4.332
49952W        W22377  25.106   7.888  12.495
49953W        W22378  14.326  22.712  12.881
49954W        W22379  11.826   1.822  11.533
49955W        W22380   1.277  32.989  13.002
49956W        W22381  27.981   0.381   2.895
49957W        W22382  33.085  30.125  12.549
49958W        W22383  34.013   6.201  11.431
49959W        W22384  15.709  33.884   3.830
49960W        W22385   7.399  38.911   2.239
49961W        W22386  21.575  34.427  11.471
49962W        W22387  13.770   0.437  10.474
49963W        W22388  22.179  14.330   1.413
49964W        W22389  17.147   4.883   5.292
49965W        W22390   6.363  40.378   0.906
49966W        W22391  34.451  36.584  12.575
49967W        W22392   6.707  26.995  13.868
49968W        W22393   9.722  28.185   1.705
49969W        W22394  37.538  36.090   2.794
49970W        W22395   5.774  33.102  12.910
49971W        W22396   0.982   0.783  14.856
49972W        W22397   7.372   8.385  13.868
49973W        W22398  39.058  22.052   1.418
49974W        W22399  36.942  18.789  13.047
49975W        W22400  29.603   7.189   4.258
49976W        W22401  43.458  20.131  13.041
49977W        W22402  35.931   9.312   4.125
49978W        W22403  29.923   3.412   1.712
49979W        W22404  26.102  29.983   0.960
49980W        W22405  32.405   5.424  10.958
49981W        W22406   9.361  42.453  12.456
49982W        W22407  20.152  11.760  13.964
49983W        W22408  25.054  17.754   4.326
49984W        W22409   8.735  37.081   2.746
49985W        W22410  10.786  18.580   0.327
49986W        W22411   2.825  44.496  10.924
49987W        W22412  26.079  30.994  14.811
49988W        W22413  14.120  15.249  13.963
49989W        W22414  41.304  10.290  12.546
49990W        W22415  23.985   1.242  13.867
49991W        W22416  44.480   2.917   3.641
49992W        W22417  37.460   4.847   2.808
49993W        W22418  29.463  20.616  10.603
49994W        W22419  16.722  35.884  12.946
49995W        W22420  35.100  19.595   3.178
49996W        W22421  14.792  44.380   2.819
49997W        W22422   9.222  30.432  12.008
49998W        W22423  20.746  38.953   9.989
49999W        W22424  27.124  13.150  14.473
50000W        W22425  35.587  17.668  13.851
50001W        W22426  31.621  26.576   4.616
50002W        W22427  29.601  23.134  10.420
50003W        W22428  22.132  34.979   0.751
50004W        W22429   3.319  13.173   0.809
50005W        W22430   7.728  18.118   4.222
50006W        W22431  31.109  37.446  14.285
50007W        W22432  28.026  40.907   4.636
50008W        W22433   1.767  12.283   0.316
50009W        W22434  12.116  26.152  10.912
50010W        W22435  29.572  21.260   1.887
50011W        W22436  25.513   4.941   4.614
50012W        W22437  17.296  20.155   2.220
50013W        W22438  38.468   6.278  12.965
50014W        W22439  36.972   4.937  14.880
50015W        W22440   2.808  28.443   4.624
50016W        W22441   2.294  26.691   1.333
50017W        W22442   4.867  40.538   1.807
50018W        W22443  29.071  31.138   0.901
50019W        W22444  30.643   2.881  10.921
50020W        W22445  30.923   3.272   0.864
50021W        W22446  22.545  20.531   2.381
50022W        W22447  17.151  40.865   4.736
50023W        W22448  24.162  16.812   1.266
50024W        W22449  21.234  33.099  12.382
50025W        W22450  37.342  43.830   4.113
50026W        W22451   3.240  35.377  11.031
50027W        W22452  41.325  43.374  12.825
50028W        W22453  27.604  20.198   4.165
50029W        W22454  23.103  37.346   3.270
50030W        W22455  26.570  23.629   4.122
50031W        W22456   2.738  12.337   1.220
50032W        W22457  12.322   8.869   1.322
50033W        W22458  24.076   4.241   3.374
50034W        W22459  41.970  24.585  14.871
50035W        W22460   8.194  25.145   3.282
50036W        W22461  25.124  19.242  13.378
50037W        W22462  26.685  26.996   0.324
50038W        W22463   2.892  39.442  14.388
50039W        W22464   8.392  38.054   4.273
50040W        W22465  32.046  44.759   4.763
50041W        W22466   5.861   5.819  14.922
50042W        W22467  14.114   3.447   2.366
50043W        W22468  38.460  40.997   3.661
50044W        W22469  21.612  23.547  13.434
50045W        W22470  21.078   3.849  10.955
50046W        W22471   8.202  17.126   1.737
50047W        W22472  21.211   9.320   1.818
50048W        W22473  18.590   5.323  14.815
50049W        W22474  23.595  15.149   2.684
50050W        W22475  40.951  31.024   4.305
50051W        W22476   0.477  41.845   0.444
50052W        W22477   9.692  26.042  12.082
50053W        W22478  40.308  22.657   3.707
50054W        W22479  11.803  17.219   1.234
50055W        W22480  38.998  37.493  10.416
50056W        W22481  20.114   3.451  11.989
50057W        W22482  14.835   7.896  10.914
50058W        W22483  18.612  31.637  11.520
50059W        W22484  33.127  29.134  12.972
50060W        W22485   7.811  13.189  11.453
50061W        W22486  27.574  42.023   0.895
50062W        W22487   8.889  42.948   0.839
50063W        W22488  23.145  17.280  11.113
50064W        W22489  39.465   1.973   3.171
50065W        W22490  18.619  41.383  11.862
50066W        W22491  15.584   1.444   3.668
50067W        W22492   3.425   3.893   2.665
50068W        W22493   6.709  39.003  12.522
50069W        W22494  35.435   8.394   2.405
50070W        W22495   8.655   7.842   2.401
50071W        W22496  42.942   4.794   2.252
50072W        W22497  34.581  41.791   4.333
50073W        W22498  42.476   5.425  12.061
50074W        W22499  31.605  12.284   3.741
50075W        W22500  29.478  24.676  11.511
50076W        W22501  24.524  29.081   3.220
50077W        W22502  40.938  38.046  14.021
50078W        W22503   8.324  26.466   4.257
50079W        W22504  28.655  11.657   9.997
50080W        W22505  32.074  35.486   0.354
50081W        W22506  14.782   4.233   4.267
50082W        W22507  18.151  20.696   4.728
50083W        W22508   6.704  43.844  11.074
50084W        W22509  36.421  10.644   3.738
50085W        W22510  42.851  22.034  13.380
50086W        W22511  23.529  10.709  10.003
50087W        W22512  28.527  40.530  14.950
50088W        W22513   5.704   1.873   1.254
50089W        W22514  39.055  18.187  13.431
50090W        W22515  12.139  40.453  13.537
50091W        W22516  38.344  20.756  10.518
50092W        W22517  42.290  13.772   0.414
50093W        W22518  25.047  34.388   1.809
50094W        W22519  34.075  12.851   2.193
50095W        W22520  38.400  43.448  13.409
50096W        W22521  23.660  25.707   2.373
50097W        W22522  18.190  15.657  12.043
50098W        W22523  41.433  13.339  12.494
50099W        W22524  15.667   7.391   3.198
50100W        W22525  25.127  14.272  11.410
50101W        W22526  40.532   4.315  12.344
50102W        W22527  27.543  32.485  11.030
50103W        W22528  32.443  41.310   4.736
50104W        W22529  29.052   7.693  11.918
50105W        W22530  27.158  26.613   2.188
50106W        W22531  10.247  44.974   2.382
50107W        W22532  34.568  31.096  10.608
50108W        W22533  42.989  18.209  10.629
50109W        W22534  12.723  31.566   4.669
50110W        W22535   8.849  25.696  13.535
50111W        W22536  40.959   2.294  12.527
50112W        W22537  36.444  26.978  14.380
50113W        W22538  25.139   8.271   0.279
50114W        W22539  29.486  23.555  12.953
50115W        W22540  36.973  13.303   4.811
50116W        W22541   9.867  12.153   4.813
50117W        W22542  27.580  32.136   0.432
50118W        W22543   5.893  31.087  12.915
50119W        W22544  20.638  12.822  10.613
50120W        W22545  24.573  29.964  10.417
50121W        W22546  26.077  35.955  12.860
50122W        W22547  43.767  35.547  13.014
50123W        W22548  14.781  23.106   4.781
50124W        W22549  35.862   5.810  11.930
50125W        W22550   2.732  15.179  10.972
50126W        W22551  36.920  44.988   2.803
50127W        W22552   0.957  22.636  13.466
50128W        W22553   0.335  33.513   1.221
50129W        W22554  11.786   8.742  13.948
50130W        W22555  25.581  25.154   1.760
50131W        W22556  10.203  28.980   3.346
50132W        W22557  18.548  22.563   4.678
50133W        W22558   6.360  23.628  12.026
50134W        W22559   8.771   3.415   5.203
50135W        W22560  33.404  35.084   2.754
50136W        W22561   1.901  35.589   3.768
50137W        W22562  33.444  42.015  13.864
50138W        W22563  17.646  15.610  11.988
50139W        W22564  24.041  14.213   0.891
50140W        W22565  31.026  31.132  11.943
50141W        W22566  39.541  29.067  10.890
50142W        W22567   7.812  32.579   0.779
50143W        W22568  26.109  30.508  13.530
50144W        W22569   6.372  32.903   2.237
50145W        W22570  32.970  38.962   0.876
50146W        W22571   3.756  30.004   1.768
50147W        W22572  10.692  11.151  11.527
50148W        W22573   9.284  26.117  13.342
50149W        W22574  18.184   2.276   2.282
50150W        W22575  44.786  37.444  11.974
50151W        W22576  44.902   0.943  13.311
50152W        W22577  25.000  35.018  14.005
50153W        W22578  27.101  18.736  10.407
50154W        W22579   6.916  37.061   5.118
50155W        W22580   5.895   5.867   2.417
50156W        W22581  25.201   8.679  11.102
50157W        W22582  29.508  27.040  13.990
50158W        W22583  35.448  35.412  14.844
50159W        W22584  30.442  19.086  12.447
50160W        W22585  14.205  40.878  11.462
50161W        W22586  29.947  16.739   9.922
50162W        W22587  38.566  29.616   1.868
50163W        W22588  40.964  21.743  14.796
50164W        W22589  18.145  40.862  11.459
50165W        W22590  38.401  27.182  14.772
50166W        W22591  34.512  42.968  14.467
50167W        W22592  25.621  25.012  13.036
50168W        W22593   7.377  22.676  13.537
50169W        W22594   7.395  40.847  12.527
50170W        W22595  18.663  40.315  11.595
50171W        W22596   3.392  40.459   2.833
50172W        W22597  22.083  33.597  10.478
50173W        W22598  41.314  24.663   1.780
50174W        W22599  36.856  20.546  13.334
50175W        W22600  11.357   7.315  14.360
50176W        W22601  38.891  43.420  14.799
50177W        W22602  38.045  12.344  13.916
50178W        W22603   3.889  33.023   1.746
50179W        W22604  41.829   1.397  11.921
50180W        W22605  32.937  24.040   4.706
50181W        W22606  38.045  25.636   2.901
50182W        W22607  34.566   1.371   4.291
50183W        W22608  41.521  24.692  11.534
50184W        W22609   8.771  22.043   4.288
50185W        W22610  19.230   3.220   0.745
50186W        W22611  44.365  20.048  11.891
50187W        W22612  30.016  36.075  10.486
50188W        W22613  18.662  23.541  14.931
50189W        W22614  35.046  14.655  11.403
50190W        W22615  38.863  23.227  13.897
50191W        W22616   7.741  29.152   2.365
50192W        W22617  18.062  43.467  11.429
50193W        W22618  20.260  37.552   0.289
50194W        W22619   9.310  14.274   4.834
50195W        W22620  44.269  13.736   0.937
50196W        W22621   5.416   6.846  14.483
50197W        W22622   9.763   9.272   4.310
50198W        W22623  42.370  42.311   4.613
50199W        W22624  16.090  17.622   0.275
50200W        W22625   6.247  12.836  14.275
50201W        W22626  35.418   9.703  11.452
50202W        W22627   9.201   8.831   4.632
50203W        W22628  44.754  12.266  12.858
50204W        W22629  21.194  25.530   2.326
50205W        W22630  30.078  13.251  13.905
50206W        W22631   2.279  27.145  13.823
50207W        W22632  27.950  32.623  14.013
50208W        W22633  17.705  33.424  14.994
50209W        W22634   2.927  43.425   0.350
50210W        W22635  43.995  32.432  14.335
50211W        W22636  14.195  28.642   3.261
50212W        W22637   0.261  24.571  14.313
50213W        W22638   3.438  15.634   2.688
50214W        W22639  31.095  22.222   1.408
50215W        W22640  44.971  12.739  14.443
50216W        W22641   4.354  23.074   3.146
50217W        W22642  28.112   5.754  14.434
50218W        W22643   1.883  14.167  13.044
50219W        W22644  18.104   3.258  14.778
50220W        W22645  26.578  36.582   1.217
50221W        W22646   5.705  21.172   1.850
50222W        W22647  31.043   2.822   3.684
50223W        W22648  23.233  34.903  12.919
50224W        W22649  32.081  44.390  14.832
50225W        W22650  28.093  23.571  12.964
50226W        W22651  33.887  29.074  13.901
50227W        W22652  36.852  15.277  13.014
50228W        W22653  11.301  16.077  12.868
50229W        W22654  23.541   5.260   3.857
50230W        W22655  24.676   2.784  10.546
50231W        W22656   8.249  32.998  12.354
50232W        W22657  20.736   0.409  10.937
50233W        W22658   7.858  33.414   4.659
50234W        W22659  18.672  18.161   1.364
50235W        W22660  40.012  40.984  13.001
50236W        W22661  33.007   9.837  12.066
50237W        W22662  13.164  44.867  14.477
50238W        W22663  32.901  13.644   0.468
50239W        W22664  27.495  43.811  10.493
50240W        W22665  43.975  32.619  12.936
50241W        W22666  12.296  19.705  12.384
50242W        W22667  27.145  27.544  10.956
50243W        W22668  41.878  15.814   1.373
50244W        W22669  34.114  33.427   1.880
50245W        W22670  30.026  33.584   4.671
50246W        W22671   3.749  31.610  10.981
50247W        W22672  11.822   9.741   0.770
50248W        W22673   6.826  27.611  13.899
50249W        W22674  11.632   3.348  12.520
50250W        W22675  17.188  20.755  11.374
50251W        W22676  36.973  11.862  10.471
50252W        W22677  39.313  32.918   0.382
50253W        W22678  27.669   0.953   2.883
50254W        W22679   0.806  25.622   0.895
50255W        W22680  34.079  43.389   0.953
50256W        W22681  43.512  12.735  10.519
50257W        W22682   9.256  23.089   1.874
50258W        W22683  36.406  37.426   3.239
50259W        W22684  20.525  37.954  11.977
50260W        W22685  32.991  21.524   0.329
50261W        W22686  34.932   4.893  12.922
50262W        W22687  20.066  11.203   3.803
50263W        W22688  42.947  21.064   4.685
50264W        W22689  34.103  31.461  13.801
50265W        W22690  26.491   0.970   0.282
50266W        W22691  42.313   2.880  12.982
50267W        W22692  39.357  28.501   1.303
50268W        W22693   1.338  26.105   3.151
50269W        W22694  35.439  37.900  12.971
50270W        W22695  26.532  29.507  12.055
50271W        W22696   7.412  18.168  12.845
50272W        W22697   8.252   3.281   1.811
50273W        W22698  31.917  34.084   3.204
50274W        W22699  12.324  29.524  10.905
50275W        W22700  43.331  42.340  11.888
50276W        W22701  41.014  33.494  12.875
50277W        W22702  21.146  25.094  13.031
50278W        W22703  36.843  22.022   0.303
50279W        W22704  42.926  12.650   0.260
50280W        W22705  19.666  30.522  13.352
50281W        W22706   1.867  42.318  13.029
50282W        W22707  44.892   5.912  10.992
50283W        W22708  21.604  31.128  10.975
50284W        W22709   5.846  12.699   2.901
50285W        W22710  40.860   7.366   1.339
50286W        W22711  23.652  11.226   0.301
50287W        W22712  23.502  35.081   2.307
50288W        W22713  31.061  26.993  14.898
50289W        W22714   1.872  14.145  13.434
50290W        W22715  19.586  16.263  13.861
50291W        W22716  29.116  10.691  13.936
50292W        W22717   2.378  17.125   1.777
50293W        W22718   9.149   6.721  13.458
50294W        W22719  19.600  28.488   3.347
50295W        W22720  10.298  22.164   2.250
50296W        W22721  38.999   1.973  10.160
50297W        W22722  29.054  40.332   0.431
50298W        W22723  19.222   2.283   1.829
50299W        W22724  23.225   1.914   2.833
50300W        W22725   0.315  33.968  11.091
50301W        W22726   6.876  31.112  10.447
50302W        W22727  30.651  31.899   4.258
50303W        W22728  21.594  34.040  11.548
50304W        W22729   4.292  38.486  14.758
50305W        W22730  38.853   4.799  14.420
50306W        W22731  20.568  20.125  14.419
50307W        W22732   9.213  16.697   2.843
50308W        W22733   5.809  12.847   0.954
50309W        W22734  36.952  21.611  10.519
50310W        W22735   9.343   1.302  12.844
50311W        W22736  29.947  10.178  12.446
50312W        W22737  16.184  43.411   3.294
50313W        W22738   1.844  15.722  12.858
50314W        W22739  26.967  10.345   3.377
50315W        W22740  19.266  44.852   1.870
50316W        W22741  11.651  20.622   3.864
50317W        W22742  30.432  32.020   3.777
50318W        W22743  13.653   9.261   3.374
50319W        W22744  18.694   1.243   1.748
50320W        W22745   6.356  13.616  10.902
50321W        W22746   5.826  38.340   3.762
50322W        W22747  25.101  18.674  13.805
50323W        W22748  21.043  41.966  13.473
50324W        W22749  19.228  38.009  10.518
50325W        W22750  23.046  17.744  11.548
50326W        W22751  25.659  44.439  13.420
50327W        W22752  31.985   7.890   1.903
50328W        W22753  37.521  19.130   4.166
50329W        W22754  32.599  34.921  12.934
50330W        W22755  38.373   8.685   0.333
50331W        W22756  18.191  24.029   0.769
50332W        W22757  22.744  37.043   3.716
50333W        W22758  40.009  10.748  14.924
50334W        W22759  28.611  42.524   0.354
50335W        W22760   3.227   8.222  11.085
50336W        W22761  41.416  39.553   2.304
50337W        W22762   6.887  28.644   2.786
50338W        W22763  43.921  14.259   4.315
50339W        W22764  35.874   6.677   3.793
50340W        W22765  28.666  33.880  14.861
50341W        W22766  34.591  19.706  13.365
50342W        W22767  21.216   6.419  11.997
50343W        W22768  32.999  10.240   3.688
50344W        W22769  32.555  41.850  12.386
50345W        W22770   7.170   7.885  14.330
50346W        W22771  27.524  34.529  10.433
50347W        W22772  25.606  40.984   1.780
50348W        W22773  21.258  26.517   3.690
50349W        W22774  20.614  20.185  12.437
50350W        W22775  10.145  26.132   0.269
50351W        W22776  38.361  17.696  14.763
50352W        W22777  13.789  30.967  12.040
50353W        W22778   2.291   9.798  10.581
50354W        W22779  37.047  41.786  12.859
50355W        W22780   1.425  26.559   1.401
50356W        W22781  38.561  12.670   1.423
50357W        W22782   8.281  22.072  14.464
50358W        W22783  28.669  28.138  13.046
50359W        W22784  18.735   1.459   0.865
50360W        W22785  27.655  12.186   2.212
50361W        W22786  44.994  37.874  10.544
50362W        W22787  32.561  10.856   0.752
50363W        W22788  11.361   7.206  12.539
50364W        W22789  20.234  12.188   0.316
50365W        W22790  26.584   6.292   4.326
50366W        W22791  27.527  30.066   4.739
50367W        W22792  44.945  17.648   0.435
50368W        W22793   1.415  23.496   4.627
50369W        W22794  44.931  31.645  13.983
50370W        W22795   4.802  30.982  10.562
50371W        W22796  12.838   6.257  11.976
50372W        W22797  26.083   3.290   3.222
50373W        W22798   9.749  12.187   1.298
50374W        W22799   7.853  37.552   4.807
50375W        W22800  14.619  35.428  12.968
50376W        W22801  15.779  40.886  11.544
50377W        W22802   9.227  43.357  13.546
50378W        W22803  28.514  25.128  13.987
50379W        W22804  37.071  27.020  12.561
50380W        W22805   9.804  22.530  13.987
50381W        W22806  26.198   7.218  11.008
50382W        W22807  27.167  32.621   5.151
50383W        W22808   2.253  37.915  12.373
50384W        W22809  35.044  36.873   4.299
50385W        W22810  36.850  39.032   0.326
50386W        W22811   2.391  11.267   4.791
50387W        W22812  18.715  21.522   1.770
50388W        W22813  27.668  25.102   3.278
50389W        W22814  15.234   6.797  11.396
50390W        W22815  29.537  41.444   0.261
50391W        W22816   6.721  34.089  12.042
50392W        W22817  14.709  24.708  14.348
50393W        W22818  32.530  26.102   3.279
50394W        W22819  20.093   0.472  14.030
50395W        W22820  13.790  37.848  10.893
50396W        W22821  41.320  41.319   3.732
50397W        W22822  15.636   3.918   2.745
50398W        W22823  30.578  42.398   4.113
50399W        W22824  40.888  41.845   1.322
50400W        W22825  22.680  35.971   1.836
50401W        W22826  29.616  36.392   2.413
50402W        W22827  22.704  38.002  14.436
50403W        W22828  17.725  23.729  12.038
50404W        W22829  42.301  22.642  14.024
50405W        W22830  39.504  21.036   3.346
50406W        W22831   0.297  20.194   3.203
50407W        W22832  44.319  15.621   4.826
50408W        W22833  39.459  29.519   2.403
50409W        W22834  28.112  10.722  13.506
50410W        W22835  24.614  27.639   4.746
50411W        W22836  16.099   4.340   2.345
50412W        W22837  16.603  28.595   4.836
50413W        W22838  21.638   9.204   3.330
50414W        W22839  12.145  42.477   0.259
50415W        W22840  13.314  39.467  14.863
50416W        W22841  18.580  18.670  13.895
50417W        W22842  44.941  37.480  13.019
50418W        W22843  42.918   2.811   4.692
50419W        W22844   8.861  21.074   0.306
50420W        W22845   6.321  35.419   2.891
50421W        W22846  11.255  35.374  11.435
50422W        W22847  40.040  34.078  11.402
50423W        W22848  32.610  34.104   2.272
50424W        W22849  28.505  31.916  12.968
50425W        W22850   5.912   5.430  11.932
50426W        W22851   2.321  43.862   4.129
50427W        W22852  30.426  16.645  11.388
50428W        W22853  32.459  10.262  12.958
50429W        W22854  23.994  25.544  11.403
50430W        W22855  27.973  38.949   1.406
50431W        W22856  37.446  15.286  14.367
50432W        W22857  25.117  40.942   3.777
50433W        W22858  16.677  37.387   2.318
50434W        W22859  43.808   4.725  14.966
50435W        W22860  32.470  17.253   0.292
50436W        W22861   2.885  33.879   4.622
50437W        W22862  13.649   7.888  14.988
50438W        W22863   3.798   8.261   4.670
50439W        W22864  29.924  13.111  12.079
50440W        W22865  26.106  24.190   1.708
50441W        W22866  38.479   5.906   2.265
50442W        W22867   8.257  27.074  12.574
50443W        W22868  39.518  22.050  11.564
50444W        W22869  36.577  42.419  12.469
50445W        W22870  11.316  19.694   5.235
50446W        W22871  16.143  15.107   2.751
50447W        W22872  40.894   2.429   1.817
50448W        W22873  36.454  30.607   9.980
50449W        W22874   7.174   9.758  13.334
50450W        W22875  24.062  41.325  12.520
50451W        W22876  42.826  39.926  14.802
50452W        W22877  20.045  31.545  14.399
50453W        W22878  13.119   0.414  13.511
50454W        W22879  25.069  13.706  13.454
50455W        W22880  17.182  16.247  10.414
50456W        W22881  32.070   7.239  10.631
50457W        W22882  33.951  13.612  13.418
50458W        W22883   5.354  27.965   1.821
50459W        W22884  19.152  28.600  10.513
50460W        W22885  26.684   4.358   1.899
50461W        W22886  11.136  24.102  11.900
50462W        W22887  41.534  11.655  10.620
50463W        W22888  39.888  20.708   4.147
50464W        W22889  18.279  35.053  11.006
50465W        W22890  22.090  43.900  13.938
50466W        W22891  28.184  26.044   0.359
50467W        W22892   1.286  11.136   2.680
50468W        W22893  42.457  36.010  14.964
50469W        W22894   3.782  27.532   1.820
50470W        W22895   2.321  36.888   0.865
50471W        W22896  30.058  30.078   1.364
50472W        W22897  19.706  13.822   3.636
50473W        W22898  31.594  17.283  12.843
50474W        W22899  32.432  40.488   4.644
50475W        W22900  20.641  21.526   3.752
50476W        W22901   7.906  10.182   2.345
50477W        W22902  10.740  13.221  12.475
50478W        W22903   2.826  24.986  13.860
50479W        W22904  24.653  30.546   3.842
50480W        W22905  16.798  17.221  11.610
50481W        W22906  11.861   8.292   4.283
50482W        W22907  38.511  28.654  12.516
50483W        W22908  31.418  36.392  14.339
50484W        W22909   2.265  32.934   4.813
50485W        W22910  37.349  13.812   0.359
50486W        W22911  33.576  40.819  11.125
50487W        W22912  13.734  27.464  14.001
50488W        W22913  18.679  40.462  14.484
50489W        W22914  31.112  27.998  13.008
50490W        W22915  17.558  43.891  11.419
50491W        W22916  39.937  17.256  11.084
50492W        W22917   7.726  13.319  12.049
50493W        W22918   3.359  22.158  10.472
50494W        W22919  32.936  17.199   1.847
50495W        W22920  38.426  35.582   0.325
50496W        W22921  33.456  32.132  10.078
50497W        W22922  16.567  23.676   3.168
50498W        W22923   8.735  26.639  13.531
50499W        W22924  41.797   9.783  14.908
50500W        W22925   3.879  33.998  12.893
50501W        W22926  11.630   8.240  11.584
50502W        W22927   3.893   2.743   1.277
50503W        W22928  15.620  41.421   0.289
50504W        W22929  41.308  39.055   0.935
50505W        W22930  20.727  29.656   1.722
50506W        W22931   9.769  21.092  14.311
50507W        W22932  14.606  24.572   3.377
50508W        W22933  37.497   6.784   3.293
50509W        W22934  16.275  19.681   4.699
50510W        W22935  35.536  26.639   5.207
50511W        W22936  27.545  32.090   5.300
50512W        W22937   7.349  19.596  14.888
50513W        W22938  21.676  36.372  13.403
50514W        W22939  12.259   4.255  12.067
50515W        W22940  44.756  13.629  12.007
50516W        W22941  39.340  24.082  11.042
50517W        W22942   2.442   7.887  12.368
50518W        W22943  14.100   7.172  10.999
50519W        W22944  15.153  18.223   1.890
50520W        W22945  36.064  28.956   4.220
50521W        W22946  32.554  16.106   3.809
50522W        W22947   7.328  37.410  13.332
50523W        W22948   7.821  10.179   4.315
50524W        W22949  41.010  34.402  14.815
50525W        W22950   3.872  39.944   1.920
50526W        W22951  10.851  21.527   3.749
50527W        W22952  31.594  10.378   2.212
50528W        W22953  13.166  10.371  11.907
50529W        W22954  38.549  43.933  12.945
50530W        W22955  26.648  33.982  11.597
50531W        W22956   4.751   6.354   4.798
50532W        W22957  17.683  32.094  10.159
50533W        W22958  16.610  27.648  11.566
50534W        W22959   6.904  36.892  14.485
50535W        W22960  15.150  37.476   4.330
50536W        W22961  38.980  29.012   3.195
50537W        W22962  13.814  24.495   2.260
50538W        W22963  12.745   7.255  13.933
50539W        W22964  18.123  28.042  12.051
50540W        W22965  20.734  25.601   2.784
50541W        W22966  20.752  21.619  11.483
50542W        W22967  41.822  15.599  11.097
50543W        W22968  16.242  43.411   2.839
50544W        W22969   1.751  41.021  11.913
50545W        W22970  42.907  40.901   4.677
50546W        W22971   3.728  13.665  13.380
50547W        W22972  24.614  37.989   0.964
50548W        W22973  25.121  36.404  14.894
50549W        W22974  39.842  11.137  12.977
50550W        W22975  24.196   6.844   2.291
50551W        W22976  32.912  22.637  13.440
50552W        W22977   9.796  10.331   3.179
50553W        W22978  37.348  30.163   0.942
50554W        W22979   0.439  28.991   2.417
50555W        W22980  31.957  32.394  14.464
50556W        W22981  10.720   5.417  13.041
50557W        W22982  29.002   1.270   0.966
50558W        W22983  18.271  19.092   2.401
50559W        W22984  23.016  25.981   1.737
50560W        W22985  39.945  14.321  14.359
50561W        W22986  10.167  23.000  14.912
50562W        W22987  42.965  16.305   0.392
50563W        W22988  39.889   9.341   3.339
50564W        W22989  28.660  34.904   0.889
50565W        W22990   3.943  22.621   4.174
50566W        W22991  10.298   5.783  11.977
50567W        W22992  34.944   9.160   4.807
50568W        W22993  14.285  10.789  11.085
50569W        W22994  43.977  37.506   4.289
50570W        W22995   1.958   3.418  11.076
50571W        W22996  43.302   5.243  13.910
50572W        W22997  23.135  40.893  14.445
50573W        W22998  14.592  27.624   0.888
50574W        W22999  20.550  33.435  13.351
50575W        W23000  17.107  28.587  14.025
50576W        W23001  40.803  13.233  13.310
50577W        W23002   5.805   7.295  12.384
50578W        W23003  35.565   7.230   2.749
50579W        W23004  25.621  19.138  12.031
50580W        W23005   3.443   5.374   2.704
50581W        W23006  14.106  29.067   2.395
50582W        W23007  28.658  18.650  10.900
50583W        W23008  41.953  38.032   2.724
50584W        W23009  10.854  24.055   4.751
50585W        W23010   9.223  11.361  11.879
50586W        W23011  44.948  43.950  14.398
50587W        W23012   0.262  42.503  14.899
50588W        W23013  11.186  36.504   2.669
50589W        W23014  42.862  35.423  12.077
50590W        W23015  12.251  18.755  12.986
50591W        W23016  17.252  38.835  14.823
50592W        W23017   6.833   2.730   0.480
50593W        W23018   2.824  37.079   1.883
50594W        W23019  20.216  19.094  13.473
50595W        W23020  16.716  27.582   2.688
50596W        W23021  18.108  36.402   3.661
50597W        W23022  27.456   9.649   1.348
50598W        W23023   7.803   6.902   5.617
50599W        W23024  12.124   2.453  12.078
50600W        W23025  14.268  17.179   0.474
50601W        W23026  31.946  10.657   4.621
50602W        W23027  26.543  15.703   4.769
50603W        W23028  34.982  22.174  11.535
50604W        W23029  20.568  26.550   0.353
50605W        W23030  17.076  36.919   0.964
50606W        W23031  13.768  43.979  14.404
50607W        W23032  16.684  16.643  11.563
50608W        W23033  12.270  32.524  12.838
50609W        W23034  36.425  18.578   0.753
50610W        W23035  14.692  44.457   2.238
50611W        W23036   7.326  38.969   4.166
50612W        W23037  43.387  21.124   3.715
50613W        W23038  18.643  11.227   0.856
50614W        W23039  41.977  42.856  13.345
50615W        W23040  10.189   0.810   2.800
50616W        W23041   7.187  21.228   2.847
50617W        W23042  41.412   4.940   3.321
50618W        W23043  24.109  39.959   4.325
50619W        W23044  13.213  31.637  11.538
50620W        W23045   5.792  38.512   1.449
50621W        W23046   4.777  44.940   3.290
50622W        W23047   8.842  38.852  11.377
50623W        W23048  30.010  41.995  14.777
50624W        W23049  33.394  31.489  11.125
50625W        W23050  22.676  33.020  10.995
50626W        W23051  36.890  19.056   4.185
50627W        W23052  24.663  42.366  13.488
50628W        W23053  34.954  40.006  10.461
50629W        W23054  37.891  43.953   2.741
50630W        W23055  44.295  16.695   4.296
50631W        W23056  44.305   0.470   2.765
50632W        W23057  17.091  37.036  10.537
50633W        W23058  16.690  32.108  10.053
50634W        W23059   6.856   6.384  14.008
50635W        W23060  11.783  33.396   0.470
50636W        W23061  32.040   5.389   0.964
50637W        W23062   7.338  26.129  12.353
50638W        W23063  28.557  39.036  13.028
50639W        W23064  39.436  29.550  10.477
50640W        W23065  13.264  44.902  14.945
50641W        W23066  10.791  30.598  13.943
50642W        W23067   3.756  20.725  11.878
50643W        W23068  31.903  41.398  11.004
50644W        W23069  27.989  40.367   4.603
50645W        W23070  31.633  41.480   0.281
50646W        W23071  36.468   4.815  10.634
50647W        W23072  38.825  43.868   4.179
50648W        W23073  37.980  23.139   3.724
50649W        W23074  14.262  24.665   4.782
50650W        W23075  44.353  35.974  10.143
50651W        W23076  41.961   2.275  13.918
50652W        W23077  24.022  44.464  14.334
50653W        W23078   6.885  35.070   3.701
50654W        W23079  21.731  15.762   4.269
50655W        W23080   7.394   6.891   1.278
50656W        W23081   7.309   3.840   4.648
50657W        W23082  16.719  34.390   1.740
50658W        W23083  43.893  28.653  13.044
50659W        W23084   9.733  38.036   1.864
50660W        W23085  25.963  23.021   2.414
50661W        W23086  40.331   0.921  12.575
50662W        W23087  24.136  13.269  12.429
50663W        W23088   8.832  36.975  11.579
50664W        W23089  31.014   0.898  14.010
50665W        W23090  15.781  33.519  10.623
50666W        W23091   7.746  15.714   2.769
50667W        W23092  42.292  32.931  12.968
50668W        W23093  14.122  24.230   3.767
50669W        W23094  42.441  20.211  12.889
50670W        W23095  31.069  32.033  10.466
50671W        W23096   9.378  40.510   0.762
50672W        W23097  28.563  41.321   2.854
50673W        W23098  35.036  13.687   4.669
50674W        W23099  12.768  11.692  11.077
50675W        W23100   9.871  44.450   2.898
50676W        W23101  35.090  33.991  13.875
50677W        W23102  30.916  38.994  10.136
50678W        W23103  44.346  37.862   2.764
50679W        W23104   8.757  10.384   3.156
50680W        W23105  37.352  33.923  13.804
50681W        W23106  23.989   7.901   1.320
50682W        W23107   4.787  25.195  13.398
50683W        W23108   6.414  10.302   2.751
50684W        W23109  30.926  25.595   3.319
50685W        W23110  29.641  33.624  10.964
50686W        W23111  30.122   7.271  11.482
50687W        W23112  44.884   7.371  10.574
50688W        W23113  28.643  43.008   3.816
50689W        W23114  15.725  28.645  14.512
50690W        W23115  26.624  24.104   4.760
50691W        W23116  21.058  26.066  12.559
50692W        W23117  25.543  36.397  10.552
50693W        W23118  24.161   7.721   0.879
50694W        W23119  27.513  14.190  11.001
50695W        W23120  26.191  16.781   2.833
50696W        W23121  17.756   4.832  12.341
50697W        W23122  27.670  12.687   3.783
50698W        W23123  22.668  43.300   3.816
50699W        W23124  23.615   0.967  13.416
50700W        W23125   9.719  37.392   3.164
50701W        W23126  23.584   5.719  13.526
50702W        W23127  18.137  21.028   4.114
50703W        W23128  34.911  36.875  13.381
50704W        W23129  21.180  19.072   4.275
50705W        W23130  26.016  35.452   2.210
50706W        W23131  24.704  41.017  12.888
50707W        W23132  11.183  27.487   0.917
50708W        W23133   7.401  20.534  13.854
50709W        W23134  31.431   8.238  10.510
50710W        W23135  36.402  34.609  14.027
50711W        W23136  28.560   3.384   0.261
50712W        W23137  25.988  18.641  12.944
50713W        W23138  18.709  44.481  12.086
50714W        W23139  19.771  19.223   2.737
50715W        W23140  34.867  20.611  12.473
50716W        W23141  17.559  28.956  14.406
50717W        W23142   3.270  16.807   4.710
50718W        W23143  12.324  41.492   2.232
50719W        W23144   8.192  18.622   1.240
50720W        W23145   7.275  30.545  12.542
50721W        W23146  14.251  16.316   2.817
50722W        W23147  13.818  17.581  14.839
50723W        W23148   5.773  35.974   3.295
50724W        W23149   5.694  10.726  14.435
50725W        W23150  24.675  23.138  11.918
50726W        W23151  18.770  29.057  10.509
50727W        W23152  22.170  38.939  11.554
50728W        W23153  32.541  23.648   0.740
50729W        W23154  18.732  13.773  11.078
50730W        W23155   4.815   8.216  13.427
50731W        W23156  25.019  14.233   3.739
50732W        W23157  34.868  23.202   1.428
50733W        W23158  20.748   1.307  13.812
50734W        W23159  28.530  32.424   4.342
50735W        W23160  25.612  15.114   4.227
50736W        W23161  17.155   6.230  13.325
50737W        W23162  27.063  11.836  12.948
50738W        W23163  19.694  30.954   4.210
50739W        W23164  23.572  11.761   0.411
50740W        W23165  44.339  13.350  12.377
50741W        W23166   5.863  16.240   2.712
50742W        W23167  28.040  10.214   2.899
50743W        W23168  29.538  14.676   4.767
50744W        W23169  41.792  38.536   2.190
50745W        W23170   0.870  36.562  12.931
50746W        W23171  29.544  19.710  11.524
50747W        W23172   8.339  20.114   4.254
50748W        W23173  40.303  16.770   0.388
50749W        W23174  34.539  32.455  14.839
50750W        W23175  20.177  18.223   0.471
50751W        W23176  32.412  23.024   1.407
50752W        W23177   8.268   2.794  13.349
50753W        W23178  38.482  34.113   2.258
50754W        W23179   1.814  32.078   1.313
50755W        W23180   1.264  10.275  11.578
50756W        W23181   4.804  22.634  12.949
50757W        W23182  13.736  22.085   1.398
50758W        W23183   9.174   7.867  13.325
50759W        W23184  37.512  15.640  10.461
50760W        W23185  31.073  25.522  12.985
50761W        W23186  31.553  35.590   1.822
50762W        W23187  16.218  21.734   1.900
50763W        W23188  20.625   9.157  14.426
50764W        W23189  42.978  44.791   1.237
50765W        W23190  30.510   7.342  13.327
50766W        W23191  21.175  19.162   0.798
50767W        W23192  17.677  15.652   2.234
50768W        W23193  27.492   0.932   4.722
50769W        W23194  24.548   4.433  13.510
50770W        W23195  40.376  41.915   0.319
50771W        W23196  29.588   7.384  14.451
50772W        W23197  40.345  31.503  14.893
50773W        W23198  35.585   8.261   0.334
50774W        W23199  32.042  36.893   2.250
50775W        W23200  31.420  15.303   3.189
50776W        W23201  37.063   0.806  13.547
50777W        W23202   7.192  37.958   5.747
50778W        W23203  31.069  35.933  14.377
50779W        W23204  29.505  39.316   1.788
50780W        W23205  33.997  34.516   0.395
50781W        W23206  23.702  18.587   1.410
50782W        W23207  20.752  24.165   1.421
50783W        W23208  32.125  10.742   2.298
50784W        W23209  28.123  31.484  14.358
50785W        W23210  43.476  36.500   3.332
50786W        W23211  18.591   0.325   0.465
50787W        W23212  33.483   7.679   0.866
50788W        W23213  23.137   0.483  13.886
50789W        W23214   6.702   0.353   4.675
50790W        W23215  26.457  37.033  13.996
50791W        W23216  22.247   8.852  12.551
50792W        W23217   3.398   0.311   3.687
50793W        W23218  41.875  43.389  13.797
50794W        W23219  39.865  35.391   2.258
50795W        W23220  29.453  30.581   4.616
50796W        W23221  19.776  40.389   0.758
50797W        W23222  27.611   4.205  12.078
50798W        W23223   1.422   2.829   4.812
50799W        W23224  21.705  32.457   1.716
50800W        W23225  27.987  21.146   3.870
50801W        W23226  20.606  26.564   4.756
50802W        W23227  25.003   5.860   1.394
50803W        W23228  37.057  18.628   0.448
50804W        W23229  35.507  36.094  10.531
50805W        W23230  31.532  15.760   5.713
50806W        W23231  30.003  41.797   3.667
50807W        W23232  31.923  30.977   1.854
50808W        W23233  28.446  17.303   0.481
50809W        W23234  11.282  18.216  13.946
50810W        W23235   8.357  16.173   3.363
50811W        W23236  18.097   0.961   4.799
50812W        W23237  24.625  40.851  10.896
50813W        W23238  41.019  31.113   0.385
50814W        W23239   7.811   3.325  12.833
50815W        W23240  26.602   6.698  11.961
50816W        W23241  16.169  12.314  11.026
50817W        W23242  27.953  38.823  14.444
50818W        W23243  18.237  44.990  11.121
50819W        W23244  20.190  33.460  10.911
50820W        W23245   8.237  10.712  13.499
50821W        W23246  25.009  39.366  13.879
50822W        W23247   1.873  38.345   3.826
50823W        W23248  30.580  31.498  10.462
50824W        W23249  34.097  10.200   2.817
50825W        W23250   2.814   8.246  11.538
50826W        W23251  26.102  13.340  13.407
50827W        W23252  20.639   5.722  10.453
50828W        W23253  29.060   7.772  14.329
50829W        W23254  22.049  24.095   0.764
50830W        W23255  20.237  38.929   3.704
50831W        W23256   1.917   9.805   2.808
50832W        W23257  31.951  35.601  10.899
50833W        W23258   6.397  29.542  11.936
50834W        W23259  35.996  20.698  12.389
50835W        W23260  23.114  19.581  13.405
50836W        W23261  23.175  33.082  13.888
50837W        W23262  21.647  12.848   0.434
50838W        W23263  29.043  26.059   3.207
50839W        W23264  40.380  32.391   2.348
50840W        W23265  42.880  23.726  10.424
50841W        W23266  29.442  18.699   0.879
50842W        W23267  32.552   1.442  10.522
50843W        W23268   1.823  38.448  12.996
50844W        W23269  13.302  25.096  13.401
50845W        W23270  37.076  28.559  13.971
50846W        W23271   4.745  27.595  10.570
50847W        W23272  34.530  36.037   3.674
50848W        W23273  31.978  21.146   2.870
50849W        W23274  18.110  40.845  14.824
50850W        W23275   1.352  37.375   4.294
50851W        W23276  38.345  35.505   2.784
50852W        W23277  44.792  26.669  10.956
50853W        W23278   8.834  26.682   1.854
50854W        W23279  11.314  37.368  14.769
50855W        W23280  19.154  35.953   4.221
50856W        W23281  10.846   1.318  14.353
50857W        W23282  29.033  21.133  12.352
50858W        W23283   0.873  24.511   0.435
50859W        W23284  10.654  24.685   1.830
50860W        W23285  39.030  27.191   3.329
50861W        W23286  27.663  42.899   3.807
50862W        W23287   5.204  37.883  14.932
50863W        W23288  10.872  16.264  10.492
50864W        W23289  22.210   0.945  12.018
50865W        W23290   4.329  27.465   2.685
50866W        W23291  16.104   2.765  10.509
50867W        W23292  35.931  15.279  11.895
50868W        W23293  33.423  24.096  10.584
50869W        W23294  29.479  37.470  14.028
50870W        W23295  24.611   1.971   0.472
50871W        W23296  37.419   6.214   0.742
50872W        W23297   3.803  33.988  13.920
50873W        W23298   7.817   9.655  12.570
50874W        W23299  31.442  10.781  13.016
50875W        W23300   3.826  44.854   1.811
50876W        W23301  29.103  20.707  12.986
50877W        W23302  40.539  31.482   1.922
50878W        W23303  11.228   9.737  12.455
50879W        W23304  29.456  40.376  10.061
50880W        W23305   2.297  31.099   2.713
50881W        W23306  35.040  33.961  14.312
50882W        W23307  15.293   7.397  11.015
50883W        W23308  30.141  36.880   3.814
50884W        W23309  20.239  14.619  13.797
50885W        W23310   8.699   8.314  12.970
50886W        W23311  11.132  17.198  12.401
50887W        W23312  41.464   4.438   4.836
50888W        W23313  10.754   8.778   9.673
50889W        W23314   1.318  37.382   2.850
50890W        W23315  29.055  24.610  14.887
50891W        W23316  18.118  25.531  13.436
50892W        W23317  35.960  41.534  13.793
50893W        W23318  43.350  41.810  14.027
50894W        W23319  36.093  28.662  14.458
50895W        W23320   4.937  26.614  12.914
50896W        W23321  23.727  17.233   3.693
50897W        W23322  43.800  43.969   1.421
50898W        W23323  40.967  16.307   2.181
50899W        W23324  36.371  27.944   3.186
50900W        W23325  20.099   7.748  12.934
50901W        W23326  23.725  15.310  14.025
50902W        W23327   2.257  15.671  12.553
50903W        W23328  26.066  15.749   2.259
50904W        W23329   2.244   1.816  10.152
50905W        W23330  29.102  36.865   2.794
50906W        W23331  11.812  12.738   1.354
50907W        W23332  29.605  32.478  10.907
50908W        W23333  21.261  12.625   2.371
50909W        W23334  22.139  13.725   3.646
50910W        W23335   2.383   9.735   3.830
50911W        W23336  37.923  20.559  14.818
50912W        W23337  11.758  19.228  13.056
50913W        W23338   1.355  26.638  14.841
50914W        W23339  13.813   6.794   4.349
50915W        W23340  24.493  33.517  11.006
50916W        W23341  35.550  31.133   1.757
50917W        W23342   6.839  20.749  11.591
50918W        W23343  10.245   0.829  12.575
50919W        W23344  42.371  19.764  11.063
50920W        W23345  32.454  41.385   4.193
50921W        W23346  31.098  23.735   3.778
50922W        W23347  25.120  14.830   5.212
50923W        W23348  42.351  35.497   0.885
50924W        W23349  12.273  42.826   0.308
50925W        W23350   0.415   0.413   3.684
50926W        W23351  23.213  37.007  12.071
50927W        W23352  36.972  28.158   3.852
50928W        W23353  41.039  30.598  12.829
50929W        W23354  41.526  43.935   9.662
50930W        W23355  22.741  28.438   4.127
50931W        W23356  38.388  20.097  11.997
50932W        W23357  32.581  39.432   1.352
50933W        W23358  31.502  38.509  13.941
50934W        W23359  22.725  37.019  13.868
50935W        W23360  17.770   9.831  11.078
50936W        W23361  32.395  12.138   4.782
50937W        W23362  17.563  41.013   4.189
50938W        W23363   0.828  32.412  14.303
50939W        W23364  36.359  18.555  11.087
50940W        W23365  43.469  14.340   4.350
50941W        W23366  27.658  11.633  13.388
50942W        W23367   6.234  16.228  14.389
50943W        W23368  39.508  11.305  11.924
50944W        W23369   9.671  29.957   1.352
50945W        W23370  36.422  34.606   2.689
50946W        W23371  42.408  27.468  11.027
50947W        W23372  36.922  43.921   2.880
50948W        W23373   5.250  22.606  14.468
50949W        W23374  27.568  30.014  13.997
50950W        W23375  38.391  26.011   2.412
50951W        W23376   3.384  17.609  10.495
50952W        W23377  14.137  21.053   4.237
50953W        W23378  25.200   1.238   3.172
50954W        W23379   9.221  33.130   1.765
50955W        W23380  34.051  12.195   1.221
50956W        W23381  11.774  31.121  12.461
50957W        W23382  25.051  16.582   2.890
50958W        W23383  10.700  39.348   2.705
50959W        W23384   0.313  38.948   3.762
50960W        W23385  42.422  16.756  11.882
50961W        W23386  44.776  40.474   0.329
50962W        W23387  21.745   8.251   9.530
50963W        W23388  38.828  18.109   5.103
50964W        W23389   8.884  15.598   3.848
50965W        W23390  10.777  41.859   2.778
50966W        W23391  21.724   0.919  13.026
50967W        W23392  17.062  20.183  14.413
50968W        W23393   0.781  32.439   0.415
50969W        W23394  38.335  22.161  13.333
50970W        W23395   8.670  22.017  11.472
50971W        W23396   8.247  36.930  14.411
50972W        W23397  32.995  31.137  10.526
50973W        W23398  15.773  36.524   0.392
50974W        W23399  44.767  44.270   3.355
50975W        W23400  33.953  30.035  12.918
50976W        W23401  28.956  16.286  10.634
50977W        W23402  15.106  20.135   0.340
50978W        W23403   1.783  11.201   1.770
50979W        W23404  31.595   8.345  14.449
50980W        W23405  30.585  26.077   4.328
50981W        W23406  28.055   7.245  12.891
50982W        W23407  16.117   7.413  10.958
50983W        W23408  42.880  16.734   0.450
50984W        W23409  19.734  44.354   0.803
50985W        W23410  24.522   7.821   1.726
50986W        W23411  44.830  39.995  12.073
50987W        W23412  26.506  22.689   0.392
50988W        W23413  33.930  11.734   2.351
50989W        W23414   0.304  38.479  12.971
50990W        W23415  31.544  31.110   2.344
50991W        W23416  20.048  35.483   3.287
50992W        W23417  32.121  34.873   2.362
50993W        W23418  43.865  26.694   0.268
50994W        W23419   4.816  18.266   4.286
50995W        W23420  31.542  43.418   1.896
50996W        W23421  33.027   2.341   0.860
50997W        W23422  40.949  10.654  11.542
50998W        W23423  35.503   3.951   3.218
50999W        W23424   3.852   8.766  12.927
51000W        W23425   2.427  41.909  10.403
51001W        W23426   1.441  25.506   0.903
51002W        W23427  31.516  38.495   0.243
51003W        W23428  30.499  30.456   3.315
51004W        W23429  27.474   8.762   1.283
51005W        W23430  38.894   4.855   4.279
51006W        W23431  30.527  33.390  14.969
51007W        W23432   4.735   4.366   1.763
51008W        W23433  33.016   9.386  12.936
51009W        W23434  34.894  26.550   3.632
51010W        W23435   7.776  32.117   3.263
51011W        W23436  35.899   4.366  12.495
51012W        W23437   6.315  16.314  11.586
51013W        W23438  43.969  21.587  11.587
51014W        W23439  24.637  12.141  14.931
51015W        W23440  36.933  37.574   4.674
51016W        W23441  16.079  42.344   2.706
51017W        W23442  33.031   7.389   3.834
51018W        W23443  22.503   3.879  12.564
51019W        W23444  33.021  16.689   2.202
51020W        W23445  32.507   5.786   1.892
51021W        W23446   1.472  15.186   4.138
51022W        W23447  24.006   8.267  13.515
51023W        W23448  17.753  13.727  14.867
51024W        W23449  36.082  38.489   3.736
51025W        W23450  36.898   1.846  14.965
51026W        W23451   7.738  44.418  14.371
51027W        W23452  11.261  18.759   0.789
51028W        W23453   3.807  13.672   4.135
51029W        W23454  21.583  19.227   4.665
51030W        W23455  22.721  23.505   3.808
51031W        W23456  29.635   1.772   3.226
51032W        W23457  34.411  10.839  10.928
51033W        W23458  15.619  39.827   3.673
51034W        W23459   0.782  36.903  13.475
51035W        W23460  24.605  22.228  10.988
51036W        W23461  14.324  31.116  10.973
51037W        W23462  33.482  37.876  13.518
51038W        W23463  13.806  13.723  14.867
51039W        W23464  23.014   7.240   9.952
51040W        W23465   3.722  23.127   4.226
51041W        W23466   4.786   4.855   3.338
51042W        W23467  44.372  32.418   2.713
51043W        W23468  10.711  19.630   3.170
51044W        W23469  12.207  29.484  14.779
51045W        W23470   1.449  18.200   1.392
51046W        W23471  29.055  20.264   0.278
51047W        W23472   3.755  10.197  10.611
51048W        W23473  37.025  33.913  11.911
51049W        W23474  41.020  42.921   3.254
51050W        W23475  12.619  11.181  13.800
51051W        W23476  30.633  35.920  13.314
51052W        W23477  39.816  30.589  14.770
51053W        W23478   9.807  12.248   0.267
51054W        W23479  16.700  40.050  12.948
51055W        W23480  33.392  20.054   0.920
51056W        W23481  22.703  32.942   3.840
51057W        W23482  13.619  28.489  12.539
51058W        W23483  11.152  18.634   2.390
51059W        W23484  27.112  35.507  11.106
51060W        W23485  17.717   4.880  13.520
51061W        W23486   6.316  38.834   1.794
51062W        W23487  37.342  31.048   4.600
51063W        W23488  37.363  36.409  10.644
51064W        W23489   7.725  44.323  10.579
51065W        W23490  21.631  44.820   1.375
51066W        W23491  14.622  34.865  10.532
51067W        W23492  33.438  37.514  12.405
51068W        W23493  28.972  12.779  13.536
51069W        W23494  41.041  22.020   1.282
51070W        W23495   9.184  24.111   3.682
51071W        W23496   0.884  43.866  13.308
51072W        W23497  19.684  15.754  11.861
51073W        W23498  26.691  36.039  13.882
51074W        W23499  20.676  38.483  10.618
51075W        W23500  32.021  19.195   5.743
51076W        W23501  34.037  38.441  13.394
51077W        W23502   2.364  40.349  13.908
51078W        W23503  36.489   1.398   4.202
51079W        W23504  18.677  21.750  13.435
51080W        W23505  36.935  26.203  13.466
51081W        W23506  13.626   2.856  12.880
51082W        W23507   3.859  11.142   2.240
51083W        W23508  20.180  41.854  14.810
51084W        W23509  12.853  27.569   1.933
51085W        W23510  30.590  30.461  13.339
51086W        W23511  32.592  28.165   0.330
51087W        W23512  26.540   9.866  10.596
51088W        W23513  27.686  28.674   4.622
51089W        W23514  39.933   1.355   1.737
51090W        W23515  11.721  42.429   4.759
51091W        W23516   3.794   2.227  11.396
51092W        W23517  19.073  11.655   3.677
51093W        W23518  29.501  18.071   3.869
51094W        W23519  15.640  42.828   1.279
51095W        W23520  15.087   3.219  14.012
51096W        W23521  28.455   1.952  12.069
51097W        W23522  23.115  11.711   1.791
51098W        W23523  30.512  29.048   0.953
51099W        W23524  13.130  44.906  11.557
51100W        W23525  28.675   7.870   2.281
51101W        W23526  15.798   3.935   4.252
51102W        W23527   4.714  36.075   4.306
51103W        W23528  17.634  43.310   4.621
51104W        W23529  13.722  14.098  11.016
51105W        W23530   8.869  29.950  11.593
51106W        W23531  28.129  33.993  10.121
51107W        W23532   8.692  21.555  12.514
51108W        W23533   0.438  30.534  11.864
51109W        W23534  26.180   1.319   0.359
51110W        W23535  11.227   1.885   4.164
51111W        W23536  15.179  42.904   1.233
51112W        W23537  29.982  27.083  14.315
51113W        W23538   9.739  33.615  14.965
51114W        W23539   9.374   9.865  10.008
51115W        W23540   8.658   9.349  12.038
51116W        W23541  31.090  44.959  14.848
51117W        W23542  32.613   6.902   0.871
51118W        W23543  10.217  36.872  13.799
51119W        W23544  40.883  23.013   0.808
51120W        W23545  23.088   1.456  13.429
51121W        W23546  41.900  16.266  14.895
51122W        W23547   3.357  42.816  11.890
51123W        W23548  12.249  30.088   4.195
51124W        W23549  25.588  12.312   1.408
51125W        W23550  39.877  15.215   3.818
51126W        W23551   5.841  28.436   3.150
51127W        W23552   8.273  36.394  10.459
51128W        W23553   2.358  26.469  12.026
51129W        W23554  37.032  19.720   4.632
51130W        W23555  37.002  44.824  13.046
51131W        W23556   0.461   1.441  13.960
51132W        W23557  13.253  19.725  14.301
51133W        W23558  22.143  17.129   4.615
51134W        W23559  17.176   1.334  10.425
51135W        W23560  32.924   0.378   2.331
51136W        W23561  41.929  43.974  11.388
51137W        W23562  37.986   0.935   0.255
51138W        W23563  24.557  22.194   3.777
51139W        W23564   3.953   6.885   3.773
51140W        W23565  19.076  30.537  10.915
51141W        W23566  33.516   2.842   4.114
51142W        W23567  15.579  39.952   4.778
51143W        W23568  37.562  31.403  13.971
51144W        W23569   4.798  38.992  11.884
51145W        W23570   4.319   1.908  10.948
51146W        W23571  40.834  24.226  14.485
51147W        W23572  12.757  12.768   3.206
51148W        W23573  26.628  39.942   4.709
51149W        W23574  31.136  33.070   2.760
51150W        W23575  32.423  10.762  14.916
51151W        W23576  26.046  19.575  12.840
51152W        W23577  35.993  29.936   0.943
51153W        W23578  24.051   0.315  14.014
51154W        W23579  27.032  21.715  10.560
51155W        W23580  31.493  15.282  13.356
51156W        W23581   8.864   2.326   2.695
51157W        W23582  13.614  35.551   0.815
51158W        W23583   2.388  26.623  11.525
51159W        W23584  44.392   2.279   3.322
51160W        W23585  20.677   4.787   1.732
51161W        W23586  12.332  30.164  12.546
51162W        W23587  11.209  23.182  14.843
51163W        W23588  19.763   1.958  13.932
51164W        W23589  16.626  19.754   1.301
51165W        W23590  37.012  22.114  10.970
51166W        W23591   5.862  13.803   2.324
51167W        W23592  23.062  41.966  10.618
51168W        W23593   4.836  20.716  14.808
51169W        W23594  11.249   8.837   0.734
51170W        W23595   3.413  37.561   5.126
51171W        W23596  15.229  26.466  11.912
51172W        W23597  26.537  28.048  14.984
51173W        W23598  36.462   7.785   1.899
51174W        W23599  41.433   6.193   4.233
51175W        W23600   4.288  28.544   0.825
51176W        W23601  11.231  19.659   1.823
51177W        W23602  12.698  31.145  10.448
51178W        W23603  18.755  28.577   1.782
51179W        W23604  41.327  38.832   1.852
51180W        W23605  38.532  29.600  10.416
51181W        W23606  39.851  36.847  10.439
51182W        W23607  26.991  17.139   4.249
51183W        W23608   9.792  14.315   2.817
51184W        W23609  43.768  20.682   0.929
51185W        W23610  34.984  24.683  14.485
51186W        W23611  15.136  30.042  11.522
51187W        W23612  28.459  31.529  11.002
51188W        W23613  19.594  34.076   0.878
51189W        W23614  35.388  36.431  11.518
51190W        W23615  44.957  20.677  14.417
51191W        W23616   5.374  10.158  10.614
51192W        W23617   4.718   6.744  12.883
51193W        W23618   2.468  34.080  14.000
51194W        W23619  12.831  41.881  10.591
51195W        W23620  14.124   2.236  10.469
51196W        W23621  44.401   1.431  13.931
51197W        W23622  27.063   8.298  13.315
51198W        W23623  26.978  42.889   2.409
51199W        W23624  23.214  23.090  10.468
51200W        W23625  11.824  15.270   4.117
51201W        W23626  31.145  33.933   1.879
51202W        W23627   2.783   6.252  10.904
51203W        W23628  36.989   7.392  14.415
51204W        W23629  22.210  11.802   1.750
51205W        W23630   1.418  26.643  13.950
51206W        W23631   1.795  16.692  13.881
51207W        W23632  25.707  33.557   1.869
51208W        W23633  24.692  43.502   2.865
51209W        W23634  38.328  21.594   4.790
51210W        W23635   2.259   6.691   0.911
51211W        W23636  19.629   1.840  13.417
51212W        W23637  12.305  33.448  12.428
51213W        W23638  16.728   2.943   0.794
51214W        W23639   9.843   4.310   0.243
51215W        W23640  38.389  13.730  10.471
51216W        W23641  19.055  35.530   1.377
51217W        W23642  20.541  41.821   0.915
51218W        W23643   5.310  37.538   1.734
51219W        W23644  11.248   9.793   1.886
51220W        W23645  37.890   5.323   2.716
51221W        W23646  39.987  32.577   4.301
51222W        W23647   6.323   1.765  13.040
51223W        W23648  17.581  21.618  11.551
51224W        W23649  25.169  32.522  11.857
51225W        W23650   0.883  37.842  12.383
51226W        W23651  40.479  18.660   5.279
51227W        W23652   9.180  10.768  13.871
51228W        W23653   4.359  31.638  14.884
51229W        W23654  22.566   8.246  13.949
51230W        W23655  44.463  27.514  11.514
51231W        W23656   4.327  44.799   4.158
51232W        W23657  25.115  27.038  13.415
51233W        W23658  12.727  32.405  13.327
51234W        W23659  34.376  37.435   1.918
51235W        W23660  43.908  23.085   4.750
51236W        W23661  35.563   9.867  12.418
51237W        W23662  39.452  40.431  10.589
51238W        W23663  33.038  21.685   1.316
51239W        W23664  34.496  23.632  11.483
51240W        W23665  35.958  17.667  10.979
51241W        W23666  41.431  44.372   4.190
51242W        W23667  44.337  12.214  11.472
51243W        W23668  27.543  21.639   2.268
51244W        W23669  25.098  44.782  13.884
51245W        W23670  13.652  24.697  11.943
51246W        W23671  34.392   1.882   1.911
51247W        W23672  27.112   5.239  11.967
51248W        W23673  40.498  28.523  13.044
51249W        W23674  30.062  44.409   4.761
51250W        W23675  17.118  33.934   2.849
51251W        W23676  34.583   8.861   4.798
51252W        W23677  25.213  32.131  12.019
51253W        W23678  31.104  14.214   3.286
51254W        W23679  19.249   0.463   4.238
51255W        W23680  30.013   5.702   0.244
51256W        W23681  27.683   7.723  14.334
51257W        W23682  43.864   9.353   3.208
51258W        W23683   9.348   0.429  14.002
51259W        W23684   9.824   9.674   2.216
51260W        W23685  43.967   5.907  10.446
51261W        W23686  19.112  42.023   3.794
51262W        W23687  15.307  29.486  13.025
51263W        W23688  29.611  36.454   0.914
51264W        W23689  20.607  26.566   2.267
51265W        W23690  43.413  22.556   0.299
51266W        W23691  42.388  33.978   3.756
51267W        W23692  33.583  19.595   5.239
51268W        W23693  28.966   2.312  13.525
51269W        W23694  22.583   0.820  14.275
51270W        W23695  33.947   3.264  11.919
51271W        W23696  33.405  17.697   1.418
51272W        W23697   2.776   0.269   3.169
51273W        W23698  29.105  18.604  13.308
51274W        W23699  11.335  32.091  14.984
51275W        W23700   8.379  41.978   0.309
51276W        W23701   7.291  14.760   0.410
51277W        W23702  14.705  29.019   1.800
51278W        W23703  39.907  44.418  14.504
51279W        W23704  24.655  32.516  13.015
51280W        W23705   0.907  34.878  11.609
51281W        W23706  27.182  11.169  12.428
51282W        W23707  35.070  14.664  13.912
51283W        W23708  37.065  16.574   2.344
51284W        W23709  38.464  18.230  14.493
51285W        W23710   2.233   3.283   9.990
51286W        W23711   1.924   6.811   2.730
51287W        W23712  24.094  36.410  13.338
51288W        W23713  29.493  11.254  11.958
51289W        W23714  21.224   3.812  13.984
51290W        W23715  43.400  32.447   3.634
51291W        W23716  23.080  25.970   1.214
51292W        W23717  33.126  15.608   0.878
51293W        W23718  10.333  30.997  10.996
51294W        W23719  11.290   0.387  12.088
51295W        W23720  24.630  37.949   3.344
51296W        W23721  18.758  13.825   1.751
51297W        W23722  28.039   8.720   0.765
51298W        W23723  44.276  23.595   4.291
51299W        W23724  40.500  35.881  12.019
51300W        W23725  37.388   3.915   3.675
51301W        W23726  26.960  33.118   4.252
51302W        W23727  12.273  35.387  12.441
51303W        W23728  36.583  32.965  11.015
51304W        W23729   0.749  20.625  13.823
51305W        W23730  19.265   3.353   2.739
51306W        W23731  21.593  40.346   3.322
51307W        W23732  35.035   4.903  13.906
51308W        W23733  41.458   2.871  13.993
51309W        W23734  26.008  43.340  11.054
51310W        W23735  44.458  31.129  14.409
51311W        W23736  18.766  36.006  12.055
51312W        W23737  34.603  31.102   2.376
51313W        W23738  22.601  32.419   3.217
51314W        W23739   3.413   3.432   4.305
51315W        W23740   3.720  18.712  12.535
51316W        W23741  13.125  38.443  14.459
51317W        W23742  18.293  32.489   0.892
51318W        W23743  31.488  17.728   1.247
51319W        W23744  20.636  44.902   3.852
51320W        W23745   5.738  44.871  11.898
51321W        W23746   0.917   7.284   4.628
51322W        W23747  18.081  19.642   1.750
51323W        W23748  26.546  28.994  14.275
51324W        W23749   2.921  40.906  11.415
51325W        W23750  10.744  20.028  11.113
51326W        W23751  16.716  17.758  12.869
51327W        W23752   1.249   6.711  14.307
51328W        W23753  28.995  33.061  11.058
51329W        W23754   9.338   1.329  14.895
51330W        W23755  24.208  13.653   1.390
51331W        W23756  32.611  38.852   3.212
51332W        W23757  22.647  37.986  13.824
51333W        W23758  10.159  28.574   4.722
51334W        W23759   8.846  17.763   2.255
51335W        W23760  43.795  27.505   2.893
51336W        W23761  10.211  31.471  11.477
51337W        W23762  41.343  36.034  10.989
51338W        W23763  29.566  37.470   0.383
51339W        W23764  43.490  34.863  12.905
51340W        W23765   2.963  11.224  11.076
51341W        W23766   6.752  29.589   1.211
51342W        W23767  37.845  23.592  14.490
51343W        W23768  20.570  19.151  14.510
51344W        W23769   2.302  31.611   1.920
51345W        W23770  23.720  25.208  14.805
51346W        W23771   3.450   5.842  13.973
51347W        W23772  24.222   7.230  11.452
51348W        W23773  39.029  18.122   3.796
51349W        W23774  26.636  13.807   2.248
51350W        W23775  23.190  41.882  13.418
51351W        W23776   0.466  26.059   0.342
51352W        W23777  20.123   2.469   3.254
51353W        W23778  41.514  42.314   0.416
51354W        W23779   5.323  43.804  14.472
51355W        W23780  34.408   6.232   4.309
51356W        W23781  11.687  34.487  13.869
51357W        W23782  14.321  17.669   4.837
51358W        W23783  19.681  30.577   1.698
51359W        W23784  37.042  18.731   4.292
51360W        W23785   6.781  22.250   0.274
51361W        W23786  28.570  21.219   1.881
51362W        W23787  10.211  39.383   3.151
51363W        W23788  13.124  20.085   3.857
51364W        W23789  44.369  10.313   0.927
51365W        W23790   3.259  16.116   2.680
51366W        W23791   0.318  22.705  12.461
51367W        W23792  31.140  44.909  13.016
51368W        W23793  10.160  16.689  14.858
51369W        W23794  35.377  16.684  10.417
51370W        W23795   1.748   1.444  11.886
51371W        W23796   4.856   9.358   2.196
51372W        W23797   4.932  11.210   2.848
51373W        W23798   8.888  19.179  11.421
51374W        W23799  17.197  41.430  14.927
51375W        W23800  31.505  14.139  14.283
51376W        W23801  31.923   4.316  14.926
51377W        W23802  13.743  14.685  12.079
51378W        W23803  23.687   2.789  13.455
51379W        W23804   4.324  20.599  11.460
51380W        W23805  18.740  10.375   9.963
51381W        W23806  18.659  29.643  14.903
51382W        W23807  21.642  41.862  12.058
51383W        W23808  20.679  42.785   0.836
51384W        W23809   3.372  22.541   4.348
51385W        W23810   9.321   2.779   3.146
51386W        W23811  17.246  33.118  13.332
51387W        W23812  36.903  42.900   4.616
51388W        W23813  21.698  32.996  13.882
51389W        W23814   9.230   0.405  11.481
51390W        W23815  18.554  27.106   1.755
51391W        W23816  44.826   2.866   0.246
51392W        W23817  12.154  15.732  10.989
51393W        W23818  31.641  35.061  12.046
51394W        W23819   8.848  35.378   4.229
51395W        W23820   4.327   8.295   3.187
51396W        W23821   5.247   5.799  13.473
51397W        W23822  22.577  17.611  14.284
51398W        W23823  42.459  17.217   3.335
51399W        W23824  39.014  17.142   3.857
51400W        W23825  23.117  20.684  13.842
51401W        W23826  39.884  44.363   2.731
51402W        W23827   1.393  31.050   0.755
51403W        W23828  26.139   5.762   4.303
51404W        W23829  42.421  15.614  13.537
51405W        W23830  33.939  18.662  14.855
51406W        W23831  10.843  28.547   3.832
51407W        W23832  18.251  24.200  14.335
51408W        W23833   1.836  41.951  14.469
51409W        W23834   7.898  19.695  13.932
51410W        W23835   2.283  31.971   2.303
51411W        W23836  28.500   0.291   3.674
51412W        W23837  26.494  11.237   0.763
51413W        W23838  15.282  12.352   0.268
51414W        W23839  41.410   1.935   0.750
51415W        W23840  35.375  30.540   4.258
51416W        W23841  25.978  36.958   0.736
51417W        W23842   3.228  31.040   3.697
51418W        W23843  26.555  40.982  14.814
51419W        W23844  28.085   6.813   2.327
51420W        W23845  37.358  30.613   3.694
51421W        W23846   4.777  27.195  14.963
51422W        W23847  41.903   6.213   4.837
51423W        W23848  19.548  21.241   3.237
51424W        W23849  38.029   5.313  12.862
51425W        W23850  17.616  28.458   2.295
51426W        W23851   9.294   7.330   0.264
51427W        W23852  16.123  12.749  12.951
51428W        W23853   7.684  10.814   3.801
51429W        W23854  11.345  10.351   4.311
51430W        W23855  22.690  31.918  10.893
51431W        W23856  41.340   0.785   0.425
51432W        W23857  43.873  12.234   1.714
51433W        W23858  40.509  33.049   2.718
51434W        W23859  19.131  38.536   1.336
51435W        W23860  17.122  31.911  14.934
51436W        W23861  39.013  24.990  11.409
51437W        W23862   3.391  44.883  13.885
51438W        W23863  34.926  33.498   0.883
51439W        W23864  18.188  10.647   1.789
51440W        W23865  13.711  16.075  14.924
51441W        W23866  22.247  23.066  13.372
51442W        W23867   1.859   8.385  12.918
51443W        W23868  43.838   0.350   3.356
51444W        W23869  38.554  26.106  14.022
51445W        W23870   9.841  17.643  11.937
51446W        W23871  20.612  41.412   4.744
51447W        W23872  43.325  27.047   3.325
51448W        W23873  16.131  31.064   2.233
51449W        W23874   0.971  16.653  12.829
51450W        W23875   5.385  12.678  13.341
51451W        W23876  36.587   5.798  12.921
51452W        W23877  17.771  24.003  13.934
51453W        W23878  17.771   1.914   5.155
51454W        W23879   9.214   0.491   0.775
51455W        W23880  38.009  37.881  14.872
51456W        W23881  44.774  18.280  13.472
51457W        W23882  34.939  42.855  11.524
51458W        W23883  28.981  40.319   0.911
51459W        W23884  35.974  28.987  13.309
51460W        W23885  11.147  27.486  13.006
51461W        W23886  40.327  24.155   1.755
51462W        W23887  14.806  34.478  10.918
51463W        W23888  44.940   7.743   2.255
51464W        W23889   5.206   1.789  14.312
51465W        W23890  35.937  42.983   1.736
51466W        W23891  40.854  19.143   2.687
51467W        W23892  42.879  41.474  14.954
51468W        W23893  33.105   8.780   4.809
51469W        W23894  15.311   6.741  12.894
51470W        W23895  26.641  38.930   3.687
51471W        W23896  15.620  20.065  13.880
51472W        W23897  28.619  36.564  12.348
51473W        W23898  28.060  20.644  10.906
51474W        W23899  43.362   6.404   2.269
51475W        W23900  25.985   1.452   3.639
51476W        W23901  39.006   6.311  12.063
51477W        W23902   8.292  30.508  10.546
51478W        W23903  16.166  30.121  12.404
51479W        W23904  42.502  23.711  13.418
51480W        W23905  35.380  30.528   3.793
51481W        W23906  28.585  25.589   4.818
51482W        W23907   3.835   1.772   1.754
51483W        W23908   0.307  37.947   1.867
51484W        W23909  27.976   1.846  12.982
51485W        W23910   4.256  26.998  11.930
51486W        W23911   2.799   2.727  14.765
51487W        W23912  17.651  11.349  13.846
51488W        W23913  15.714  22.046   2.348
51489W        W23914  18.610  19.687   3.266
51490W        W23915  38.059  39.335  14.897
51491W        W23916  26.994  14.227  14.872
51492W        W23917  24.032   3.940  14.810
51493W        W23918   4.892  26.670   3.816
51494W        W23919  29.983  26.599  11.996
51495W        W23920   7.391  24.976   2.792
51496W        W23921  39.374  32.536  14.994
51497W        W23922  12.758  40.304   3.336
51498W        W23923  33.504  43.328  12.045
51499W        W23924   6.337  27.500   4.215
51500W        W23925  41.475  34.998  10.967
51501W        W23926  17.602  31.914   0.866
51502W        W23927  40.836   0.399   1.341
51503W        W23928  37.831  19.740  13.946
51504W        W23929  33.999   0.843   0.348
51505W        W23930  24.167  34.904   2.877
51506W        W23931  16.620  40.518  12.416
51507W        W23932  27.999  28.576   3.664
51508W        W23933   5.894  11.733  12.397
51509W        W23934  12.162  12.656   2.690
51510W        W23935   3.267  32.934   0.873
51511W        W23936   5.725   7.716   3.205
51512W        W23937  14.685  44.978  14.877
51513W        W23938  33.406  24.543  10.456
51514W        W23939  14.807  14.120   3.250
51515W        W23940  11.361   0.755   2.727
51516W        W23941  10.260   5.860   3.670
51517W        W23942   8.231  26.115   4.172
51518W        W23943  39.464  31.612   4.169
51519W        W23944   2.233  11.823  13.882
51520W        W23945  31.996  39.973   4.713
51521W        W23946  18.649  10.249  10.478
51522W        W23947   3.822   5.869  10.561
51523W        W23948  29.498  32.047  12.906
51524W        W23949  32.599  34.102  10.470
51525W        W23950  26.194   2.838  13.331
51526W        W23951   4.322   2.798   1.405
51527W        W23952  28.641  33.127   4.663
51528W        W23953  30.916   9.767   0.463
51529W        W23954  34.044   1.408  10.441
51530W        W23955  33.075  11.207  13.322
51531W        W23956   2.755  42.822  13.454
51532W        W23957  26.133  14.245   2.830
51533W        W23958  12.722  10.221  13.961
51534W        W23959  34.039  17.074   4.185
51535W        W23960  26.530  24.619  12.942
51536W        W23961   2.928  12.315  12.471
51537W        W23962  17.785  41.308   0.273
51538W        W23963  37.019  20.750  11.586
51539W        W23964   7.403  40.814  13.373
51540W        W23965  13.778  31.569   2.726
51541W        W23966   5.309  10.801  14.865
51542W        W23967   9.870  19.651   3.845
51543W        W23968  20.236  36.398   4.303
51544W        W23969   1.976  19.549  10.447
51545W        W23970  19.066   4.357   0.967
51546W        W23971  15.793   8.276  10.617
51547W        W23972  35.553  12.826  10.449
51548W        W23973  39.447   4.918  10.947
51549W        W23974   1.834  15.139   2.669
51550W        W23975   0.332   3.871  11.123
51551W        W23976  19.242  39.912  14.984
51552W        W23977   0.933  39.375   2.297
51553W        W23978  25.088  37.497   3.177
51554W        W23979  30.418   5.770  11.114
51555W        W23980  30.617   8.787  11.990
51556W        W23981  27.551   3.799  12.431
51557W        W23982  44.424  37.000  12.427
51558W        W23983   6.426   4.703  10.477
51559W        W23984  32.480  12.716   1.346
51560W        W23985  21.715  33.505   4.836
51561W        W23986  13.698  21.145   1.390
51562W        W23987  23.551  28.483  14.433
51563W        W23988  33.950   8.184  14.416
51564W        W23989  25.706   7.262  14.369
51565W        W23990  43.515  12.306  11.066
51566W        W23991  20.733  31.412   4.143
51567W        W23992  32.456  38.891  11.397
51568W        W23993   9.851   5.801   2.742
51569W        W23994  34.929  26.985  12.913
51570W        W23995   7.293   4.368  14.430
51571W        W23996  44.393  15.674  10.901
51572W        W23997  43.998  28.182   1.239
51573W        W23998  21.652  31.595   2.331
51574W        W23999  42.858  23.996   2.370
51575W        W24000  33.004  36.099   0.435
51576W        W24001   1.354  21.655   3.680
51577W        W24002  30.652  23.648  12.517
51578W        W24003  22.187  13.823  14.954
51579W        W24004  41.974  19.592  13.854
51580W        W24005  12.338  38.451   4.295
51581W        W24006   1.290  11.350   1.885
51582W        W24007  20.157  11.278   9.942
51583W        W24008   0.980  36.035   4.292
51584W        W24009  35.487  34.056   2.845
51585W        W24010  37.341  28.993  11.481
51586W        W24011  32.573  25.612   2.716
51587W        W24012  40.438  23.680   1.832
51588W        W24013  25.983  35.573  10.551
51589W        W24014  11.718  33.087   0.324
51590W        W24015  21.657   1.783   0.825
51591W        W24016  26.018  28.161  10.481
51592W        W24017  39.018   1.926  14.981
51593W        W24018  17.277  11.864   1.710
51594W        W24019  43.006  35.431   2.852
51595W        W24020  42.522  29.636  12.922
51596W        W24021  14.170   3.832   0.941
51597W        W24022  26.656   5.347   3.702
51598W        W24023   0.410  27.460   1.889
51599W        W24024  35.433   6.257  10.404
51600W        W24025  13.738   0.298  13.507
51601W        W24026   5.261   1.425   4.652
51602W        W24027  28.608  19.139   4.129
51603W        W24028  26.174  36.406   4.813
51604W        W24029  20.072  35.962  11.903
51605W        W24030  36.062  41.969  14.888
51606W        W24031  31.534  19.603  13.510
51607W        W24032  10.719  16.669   2.755
51608W        W24033  37.483  31.993  12.490
51609W        W24034   2.891  33.944   1.772
51610W        W24035  43.343  43.371  12.538
51611W        W24036   5.748  36.442   0.383
51612W        W24037  18.098  40.369  10.933
51613W        W24038  39.367  14.638   2.268
51614W        W24039   7.736  32.105  12.483
51615W        W24040  42.328  42.450   0.427
51616W        W24041  34.586  19.654  11.898
51617W        W24042  20.087  16.099  12.425
51618W        W24043  40.510  44.306  10.477
51619W        W24044   2.356  32.524  12.064
51620W        W24045  37.923   1.947   2.749
51621W        W24046  37.501  40.009   3.320
51622W        W24047  42.987  20.073  10.536
51623W        W24048  19.180  13.701  11.993
51624W        W24049   8.875  42.830   3.780
51625W        W24050   9.836   2.750   4.779
51626W        W24051   8.335  13.243  10.517
51627W        W24052  39.056   8.715   2.757
51628W        W24053   9.206  28.557  13.489
51629W        W24054  24.704  41.881  13.410
51630W        W24055  36.927  27.122  12.022
51631W        W24056  33.088   9.294   4.677
51632W        W24057  16.248   6.424   2.246
51633W        W24058  10.740  26.194   1.826
51634W        W24059  38.480   7.192   0.915
51635W        W24060  16.736   4.879   0.743
51636W        W24061  23.140  42.305  13.813
51637W        W24062  15.676  27.992   1.235
51638W        W24063  16.265  23.060  12.393
51639W        W24064   5.691   4.722  13.803
51640W        W24065  18.549   5.328   3.260
51641W        W24066   0.767   1.925  13.450
51642W        W24067  35.896  12.748   1.931
51643W        W24068  42.442  41.801   1.300
51644W        W24069  43.369  37.368  10.507
51645W        W24070   4.273  41.018  14.784
51646W        W24071   2.390  29.501  14.906
51647W        W24072   3.778  19.689   3.740
51648W        W24073  19.709   1.799  11.564
51649W        W24074  37.919  43.784   0.857
51650W        W24075   1.245  41.416  10.589
51651W        W24076   4.902  40.389  14.279
51652W        W24077   5.753  44.497  12.487
51653W        W24078   9.835  32.431   4.602
51654W        W24079  28.592  33.624   9.594
51655W        W24080   9.692  23.490  12.339
51656W        W24081  26.194  39.947  10.997
51657W        W24082  30.591  17.691  10.538
51658W        W24083   2.444  21.140  14.819
51659W        W24084  24.687   3.759  12.442
51660W        W24085  44.797   8.371  11.950
51661W        W24086  29.577  26.081  11.588
51662W        W24087  39.448  27.632   4.177
51663W        W24088  29.040  24.197   4.631
51664W        W24089  39.329  30.049   3.361
51665W        W24090  41.875  33.438  10.124
51666W        W24091  25.980  41.915   2.186
51667W        W24092   2.934  23.192  10.482
51668W        W24093  29.958  13.609  12.893
51669W        W24094  36.856  12.357   1.329
51670W        W24095  35.397  34.561  11.571
51671W        W24096   9.267  43.969  12.552
51672W        W24097  24.147  24.702  13.002
51673W        W24098   5.333  21.075  11.543
51674W        W24099  37.938   7.672  11.049
51675W        W24100   0.895  29.031   4.343
51676W        W24101   2.230  12.312   4.795
51677W        W24102  36.041  11.199   2.220
51678W        W24103  37.460  17.577  14.985
51679W        W24104  10.769   6.344   9.561
51680W        W24105  29.653  31.093  12.505
51681W        W24106   9.867  23.627   0.318
51682W        W24107  37.380  40.833  13.063
51683W        W24108  37.412  27.514  14.345
51684W        W24109  19.592  44.392  13.011
51685W        W24110  32.438  37.846  13.974
51686W        W24111  33.067  44.005   4.152
51687W        W24112  33.381  41.822  14.439
51688W        W24113   7.701  14.589   0.271
51689W        W24114   3.935   3.947   1.792
51690W        W24115  28.961  34.999  10.556
51691W        W24116  29.002  34.390  14.932
51692W        W24117  13.339   6.301  14.485
51693W        W24118   9.767  10.375  13.960
51694W        W24119   6.204  33.388  12.925
51695W        W24120  42.315   8.197   4.674
51696W        W24121  41.809   0.264  12.485
51697W        W24122  27.613  30.555   0.365
51698W        W24123  11.826   0.858  13.350
51699W        W24124   2.795  11.268  12.387
51700W        W24125  15.242  13.612  10.582
51701W        W24126  35.462   5.350  13.407
51702W        W24127  19.593  24.014  12.912
51703W        W24128  20.231  34.413   4.618
51704W        W24129  43.477  12.362   1.912
51705W        W24130  30.951  31.502  10.889
51706W        W24131  25.982  40.816  12.395
51707W        W24132  20.755  41.362  14.352
51708W        W24133   1.850  18.696  11.501
51709W        W24134  27.618   0.753  14.026
51710W        W24135  11.792   9.358   0.818
51711W        W24136  26.023   8.197  14.957
51712W        W24137  11.220   5.901  11.886
51713W        W24138  41.894  35.969   3.685
51714W        W24139   8.778  43.934  12.030
51715W        W24140  20.635   1.938   1.411
51716W        W24141  21.516  21.038  13.996
51717W        W24142  25.508  25.560  11.461
51718W        W24143  33.479  23.186  13.445
51719W        W24144  12.250  39.033   3.651
51720W        W24145  30.478  37.886   0.457
51721W        W24146  31.940  21.143   3.239
51722W        W24147  16.642  32.571   0.408
51723W        W24148   9.181  20.213  10.583
51724W        W24149  40.917  18.263  11.878
51725W        W24150  32.049   1.464  14.908
51726W        W24151  12.624  43.995  10.637
51727W        W24152  29.102  43.435  11.973
51728W        W24153  36.947  28.498   4.634
51729W        W24154  35.013   0.795  12.997
51730W        W24155  12.774  17.119  12.494
51731W        W24156  44.818  14.295   4.832
51732W        W24157  18.789  19.552  11.575
51733W        W24158  36.955  26.989   2.707
51734W        W24159  25.125  39.340   4.126
51735W        W24160  43.356  22.147   4.630
51736W        W24161  44.768   7.742  10.441
51737W        W24162  44.467  38.862   2.832
51738W        W24163  44.791  29.105   3.360
51739W        W24164  17.304  22.069   1.835
51740W        W24165   1.907   8.724   1.339
51741W        W24166  41.016  21.578   0.791
51742W        W24167  31.508  13.142   2.717
51743W        W24168   2.767   3.439  12.390
51744W        W24169   2.468  32.958   0.427
51745W        W24170  29.110  12.132   2.385
51746W        W24171   4.315  22.646   2.249
51747W        W24172  42.412  12.226   3.159
51748W        W24173  40.521  17.597  14.850
51749W        W24174  20.750   2.469   3.244
51750W        W24175   5.365   0.928   0.440
51751W        W24176  15.136  23.588  12.547
51752W        W24177  13.803  28.174  12.448
51753W        W24178  27.083  32.409   4.180
51754W        W24179  23.644  42.839  10.447
51755W        W24180  21.542  40.356   1.379
51756W        W24181  14.716  43.501  11.987
51757W        W24182  31.904  12.670  11.059
51758W        W24183   8.807  32.605   1.844
51759W        W24184  32.448  13.762  12.376
51760W        W24185  39.013  41.356  14.921
51761W        W24186  24.093  24.723  10.413
51762W        W24187  23.654  18.205  12.971
51763W        W24188  37.906  24.119  14.902
51764W        W24189   5.401   9.395   4.822
51765W        W24190   3.735   7.311   1.758
51766W        W24191  41.879  12.357  11.080
51767W        W24192  24.715   1.958  10.643
51768W        W24193  29.984   8.758   1.770
51769W        W24194  18.778   6.730  13.948
51770W        W24195  16.638   4.928  14.813
51771W        W24196  36.988  31.617   1.229
51772W        W24197   5.351   3.406  12.911
51773W        W24198   6.364  43.293  13.932
51774W        W24199  39.906  24.134  14.944
51775W        W24200   2.907  15.765   2.799
51776W        W24201  29.637   8.775   4.128
51777W        W24202  38.471   0.905  13.954
51778W        W24203  14.721  22.531   5.129
51779W        W24204   2.278  25.616  11.419
51780W        W24205  22.654  18.563  12.564
51781W        W24206  12.767  41.968  14.387
51782W        W24207  24.134  23.583  13.313
51783W        W24208  21.142   1.921  11.100
51784W        W24209  42.923  39.929   3.248
51785W        W24210   5.883  24.661   2.703
51786W        W24211  32.594  27.178  12.037
51787W        W24212  29.494  24.166   0.468
51788W        W24213  41.981  30.128  13.856
51789W        W24214  23.593  36.381   4.289
51790W        W24215   5.434  20.696  14.956
51791W        W24216   6.836   1.931  12.466
51792W        W24217  15.645  32.066  11.392
51793W        W24218  29.611   7.204  11.875
51794W        W24219   4.923  32.920   0.329
51795W        W24220  29.020  22.213   2.860
51796W        W24221  18.697   0.401   3.375
51797W        W24222   0.891  43.434  11.989
51798W        W24223  27.453  41.905  11.434
51799W        W24224   1.244  27.980  10.520
51800W        W24225  10.286  39.004  12.447
51801W        W24226  39.537  18.639   4.613
51802W        W24227   4.249   4.428  14.768
51803W        W24228   9.260  39.926  10.505
51804W        W24229  36.522   3.888  11.413
51805W        W24230  13.215  16.153  13.547
51806W        W24231  36.848  36.511  14.395
51807W        W24232  18.567  34.472  13.489
51808W        W24233  22.112  41.310  13.946
51809W        W24234  38.378   2.337   0.769
51810W        W24235   4.716  29.614  11.604
51811W        W24236  23.989   0.828   2.294
51812W        W24237  43.383  37.032   0.919
51813W        W24238  23.699   4.772   2.357
51814W        W24239  21.645  34.494   2.807
51815W        W24240  17.299  23.569   2.901
51816W        W24241   0.265   7.262  11.009
51817W        W24242  39.945  20.030   1.899
51818W        W24243  28.002  31.421  11.109
51819W        W24244  35.888  40.978   4.758
51820W        W24245  31.439   7.908  11.604
51821W        W24246  21.050   5.398  12.918
51822W        W24247  17.264  36.528   4.224
51823W        W24248  23.114  18.652  14.966
51824W        W24249  12.294  25.073   3.154
51825W        W24250  32.478   3.216   2.673
51826W        W24251  43.999   6.760  10.444
51827W        W24252  12.784  26.587   2.799
51828W        W24253  28.519  42.881   3.239
51829W        W24254  33.003   9.152   3.763
51830W        W24255  33.011  43.949  14.393
51831W        W24256  13.164  42.358   2.809
51832W        W24257  20.725  19.180  14.796
51833W        W24258  12.847  37.376  11.034
51834W        W24259  18.570   4.732   4.810
51835W        W24260  42.819  39.932   2.398
51836W        W24261   0.743   8.397  10.890
51837W        W24262  32.057  24.636  11.087
51838W        W24263  22.062  23.499  13.941
51839W        W24264  27.114  31.411   5.103
51840W        W24265  26.697  14.250   4.350
51841W        W24266  39.024  15.677   0.367
51842W        W24267  29.664  34.520   0.965
51843W        W24268  23.725  36.942  14.304
51844W        W24269  22.083  21.686  11.527
51845W        W24270  13.212  16.642  11.594
51846W        W24271  30.000  30.138  11.556
51847W        W24272   2.314  17.187  12.475
51848W        W24273  30.536  44.371  14.878
51849W        W24274   9.880  28.494   2.340
51850W        W24275  43.861  23.129  12.344
51851W        W24276  41.306  14.298   4.341
51852W        W24277  30.973  26.505   4.147
51853W        W24278  21.627  31.019  11.958
51854W        W24279   5.886  17.113  12.952
51855W        W24280   3.247   6.709   1.789
51856W        W24281  23.111   4.771  10.619
51857W        W24282  11.741   5.279   3.721
51858W        W24283  21.245   5.883   0.402
51859W        W24284  33.875   7.260  10.476
51860W        W24285  30.561  18.557   9.504
51861W        W24286  39.447  35.984  12.368
51862W        W24287   2.435  31.466  13.815
51863W        W24288  12.845  43.898   3.694
51864W        W24289  20.606  42.414  12.970
51865W        W24290  34.971  41.008   1.287
51866W        W24291  39.499  30.021  12.943
51867W        W24292  25.675  30.536   2.333
51868W        W24293  38.342  15.631   0.327
51869W        W24294  14.112  42.986   4.261
51870W        W24295  20.698  37.922  13.951
51871W        W24296  17.068  18.233  10.555
51872W        W24297  27.577  29.089  10.597
51873W        W24298   3.876  32.033   3.145
51874W        W24299  34.116   7.776   2.213
51875W        W24300  13.225  29.504  11.379
51876W        W24301  24.153  11.144  11.966
51877W        W24302  20.687  23.540   3.839
51878W        W24303  34.120  27.134   2.392
51879W        W24304  21.755  40.994  14.902
51880W        W24305   8.658  40.991  11.929
51881W        W24306   8.221  24.720   2.191
51882W        W24307  22.246  27.138   0.936
51883W        W24308  26.969  13.609   4.202
51884W        W24309  20.643  32.099  13.915
51885W        W24310  33.991  20.253   1.873
51886W        W24311  17.156  19.133   4.649
51887W        W24312  16.073  32.534  14.321
51888W        W24313  40.456  36.986  13.042
51889W        W24314  22.237  38.456  12.968
51890W        W24315   3.254  24.988   4.774
51891W        W24316  14.825  13.300   2.842
51892W        W24317   6.327  22.207  14.344
51893W        W24318  12.807  31.116   2.804
51894W        W24319  30.972  14.744   4.310
51895W        W24320   3.451  13.723   1.216
51896W        W24321  16.658   0.872   4.822
51897W        W24322  29.958   2.463  14.287
51898W        W24323  21.747  39.891   0.869
51899W        W24324   4.832  39.996   2.248
51900W        W24325   2.798  28.999  14.325
51901W        W24326  34.557  23.698   1.406
51902W        W24327  26.655  34.966  10.506
51903W        W24328   5.196   7.209  14.329
51904W        W24329  36.460  41.518  14.963
51905W        W24330  43.357   3.337   4.833
51906W        W24331  17.061   1.336  14.878
51907W        W24332   1.397   1.273  14.481
51908W        W24333  26.659   2.888  10.607
51909W        W24334  26.955  32.047   2.661
51910W        W24335  19.684  14.724   2.778
51911W        W24336  37.869   9.718  14.514
51912W        W24337  16.256   2.794   2.321
51913W        W24338  33.585  39.451   3.183
51914W        W24339  18.075  19.608  14.010
51915W        W24340  27.973  37.926   4.181
51916W        W24341   4.296  29.144   4.600
51917W        W24342  12.175  14.729   2.758
51918W        W24343  18.672  15.817   0.388
51919W        W24344   0.854  15.806  10.983
51920W        W24345   1.962  16.255  10.597
51921W        W24346  22.185  44.916   2.403
51922W        W24347  38.569  36.040   0.875
51923W        W24348  12.165  26.043   1.214
51924W        W24349  17.781  32.886  14.432
51925W        W24350  10.233  14.320  14.836
51926W        W24351  17.756   5.307  14.802
51927W        W24352   1.364  10.852  10.516
51928W        W24353   9.801  32.429   3.303
51929W        W24354   3.734  32.477  12.084
51930W        W24355  37.515  42.784  14.278
51931W        W24356   2.737  15.226  11.995
51932W        W24357   7.189  17.200  10.434
51933W        W24358  20.529  28.939  14.899
51934W        W24359  30.052  30.470  11.544
51935W        W24360  27.965  23.526   9.982
51936W        W24361  44.273  19.675  12.085
51937W        W24362  34.040  34.408  12.985
51938W        W24363  29.444  15.705  13.997
51939W        W24364  26.997  15.795  14.318
51940W        W24365  11.204  18.709  14.820
51941W        W24366  15.788   2.438  10.494
51942W        W24367   1.837  10.715   3.658
51943W        W24368  30.489  30.946  10.980
51944W        W24369  10.791  11.774   2.356
51945W        W24370   8.379  34.552  10.051
51946W        W24371  25.118  39.042  11.040
51947W        W24372  37.501  15.733  13.026
51948W        W24373  14.820  26.610  10.416
51949W        W24374  13.328   8.356   3.763
51950W        W24375  30.920   7.326  13.923
51951W        W24376  40.376  21.537  13.902
51952W        W24377  23.095  35.474   3.263
51953W        W24378  14.799   3.946  10.907
51954W        W24379  36.030  30.502  12.900
51955W        W24380   1.810  12.128   4.167
51956W        W24381  28.975  13.347  10.576
51957W        W24382  43.338   4.286  12.505
51958W        W24383  30.023  21.710  13.883
51959W        W24384  14.268  31.436  10.459
51960W        W24385  20.743  12.200   2.324
51961W        W24386  31.077   2.919  11.376
51962W        W24387  30.923  33.425   4.279
51963W        W24388  15.212   2.252   4.182
51964W        W24389  10.363  30.541   3.847
51965W        W24390   7.837  27.534  11.913
51966W        W24391  34.008  13.155   1.714
51967W        W24392  22.710  12.288  11.580
51968W        W24393  32.541  20.580  13.914
51969W        W24394  42.951   4.337   4.624
51970W        W24395  40.973  11.622   2.418
51971W        W24396  43.272   0.380   0.787
51972W        W24397  44.286  39.519   1.283
51973W        W24398  37.044  19.062  11.549
51974W        W24399  12.229  26.128   3.843
51975W        W24400   1.410  22.228  10.523
51976W        W24401  23.142  35.440  14.019
51977W        W24402  42.444  19.747   1.808
51978W        W24403  38.024  21.640  10.644
51979W        W24404  20.136  44.369   4.214
51980W        W24405  35.056  41.437   4.145
51981W        W24406   7.839  21.558  13.982
51982W        W24407  10.190  40.540   3.637
51983W        W24408   8.711   0.818   1.907
51984W        W24409   2.453  18.782  11.913
51985W        W24410   0.355  24.194  13.498
51986W        W24411  22.596  22.702   1.275
51987W        W24412  29.482  35.381  12.097
51988W        W24413  10.686  42.829   1.402
51989W        W24414   2.313  44.348  10.104
51990W        W24415   3.929  44.818   2.845
51991W        W24416  21.108  32.461  14.819
51992W        W24417   9.771  18.206   1.791
51993W        W24418  17.283  33.488  13.002
51994W        W24419  23.563  23.723  13.382
51995W        W24420  22.085  10.803  12.557
51996W        W24421  35.567  38.506  14.431
51997W        W24422  36.561  30.920   4.138
51998W        W24423  16.752  16.277  13.816
51999W        W24424  38.839   4.267  11.000
52000W        W24425   5.234  42.944   0.860
52001W        W24426  28.042  14.217   3.299
52002W        W24427  12.315  15.682   1.436
52003W        W24428  14.824  14.302   4.755
52004W        W24429  38.359   0.301  13.844
52005W        W24430   0.944  24.505  14.971
52006W        W24431  26.963  41.945  13.880
52007W        W24432  31.629  31.962  11.964
52008W        W24433  25.527  44.461   1.742
52009W        W24434  41.972  20.663   1.869
52010W        W24435  42.452  39.402   2.762
52011W        W24436  13.318  17.569   3.662
52012W        W24437  32.038  27.479  10.563
52013W        W24438  17.572   2.884  11.857
52014W        W24439  24.556   0.890  12.023
52015W        W24440  26.143  12.678   2.705
52016W        W24441  24.136  24.160   3.341
52017W        W24442   2.902  38.977  14.801
52018W        W24443   7.171  34.039   0.827
52019W        W24444  39.407   4.943  13.325
52020W        W24445  34.990  32.411  13.438
52021W        W24446  14.118  27.940  13.846
52022W        W24447  16.744  20.750  12.978
52023W        W24448  21.736  22.028   4.662
52024W        W24449  38.472  17.279   1.893
52025W        W24450  12.772  25.550   2.405
52026W        W24451   7.883  15.227   1.304
52027W        W24452   8.251  14.310  10.974
52028W        W24453  42.504  24.080   0.910
52029W        W24454  27.548  27.956   2.353
52030W        W24455  40.891  37.561  10.441
52031W        W24456   8.335  23.166  14.868
52032W        W24457   1.967   9.871  12.450
52033W        W24458  25.577  44.787  11.983
52034W        W24459   9.392  37.527   2.199
52035W        W24460  38.327  31.420  14.438
52036W        W24461  43.360  21.106  13.458
52037W        W24462  11.687  11.277  13.534
52038W        W24463  10.305  32.416  13.928
52039W        W24464  39.064  40.861  13.821
52040W        W24465  12.299  33.032   3.697
52041W        W24466  19.693   8.260   1.724
52042W        W24467   1.339  29.057  14.798
52043W        W24468  44.385   5.313  11.506
52044W        W24469  16.755  38.386  12.426
52045W        W24470  20.056  37.925   1.391
52046W        W24471  25.712  23.666   0.347
52047W        W24472  15.608  21.694  13.359
52048W        W24473  23.677  19.113  13.461
52049W        W24474  20.654  20.722   2.739
52050W        W24475   8.683  39.925   3.690
52051W        W24476  37.057  31.029   1.737
52052W        W24477  30.997  26.068  14.361
52053W        W24478  32.966  44.787   2.809
52054W        W24479  26.001  10.177   1.405
52055W        W24480  14.234  17.116  14.369
52056W        W24481   9.745  13.808   0.287
52057W        W24482  11.183  14.754  15.000
52058W        W24483   8.281  40.971   1.217
52059W        W24484  36.863  31.062   0.756
52060W        W24485   4.270  15.591  13.414
52061W        W24486  40.420  41.499   0.386
52062W        W24487  42.918  23.564   3.835
52063W        W24488   2.762   2.834   2.216
52064W        W24489  19.253  12.698  13.005
52065W        W24490  24.204  41.371   1.819
52066W        W24491  30.478  20.139   2.415
52067W        W24492  18.598  13.844  14.376
52068W        W24493  17.263  10.382   0.257
52069W        W24494  15.243   3.254  12.854
52070W        W24495  14.753   5.914   3.836
52071W        W24496   7.848  23.582  14.873
52072W        W24497  18.565  18.630   0.942
52073W        W24498  34.004  33.624   0.884
52074W        W24499  28.493  42.823  13.011
52075W        W24500   0.745   5.899  12.427
52076W        W24501  13.201  12.177  12.088
52077W        W24502  15.775   3.260  12.521
52078W        W24503  27.604   7.865  12.440
52079W        W24504  16.697  21.198  10.968
52080W        W24505  21.208  10.797   2.805
52081W        W24506  34.600  30.632  12.848
52082W        W24507  42.858   8.658   1.935
52083W        W24508  19.245   7.904  11.111
52084W        W24509  36.475  29.026  11.476
52085W        W24510  25.507  38.840  11.069
52086W        W24511  33.511  12.161   3.386
52087W        W24512   8.358  32.525  12.407
52088W        W24513  12.773  33.926   1.887
52089W        W24514  11.255   3.372   3.681
52090W        W24515  19.194  28.036  10.510
52091W        W24516  27.498   2.824   1.414
52092W        W24517  36.886  18.226  11.568
52093W        W24518  29.097  29.104   1.254
52094W        W24519   5.372  40.519   1.260
52095W        W24520   7.899  36.011   1.243
52096W        W24521   0.942  23.044  11.943
52097W        W24522  19.222   7.821   3.286
52098W        W24523  34.937  20.631  10.567
52099W        W24524   3.927   3.413  13.013
52100W        W24525  24.619  23.058  10.462
52101W        W24526  34.532  31.995   3.156
52102W        W24527   4.423   9.368  12.853
52103W        W24528  27.554   1.257   1.282
52104W        W24529  13.138  12.758   1.239
52105W        W24530  34.974  10.324   3.684
52106W        W24531  10.153  31.014   5.290
52107W        W24532  41.982   4.753   3.242
52108W        W24533  38.069  16.575   1.346
52109W        W24534  21.164  21.567   1.369
52110W        W24535  18.121   8.176   1.362
52111W        W24536   7.796   1.292  14.015
52112W        W24537  31.598  10.167  14.771
52113W        W24538  16.797  42.788   0.930
52114W        W24539  39.849   9.685   1.833
52115W        W24540  38.877  31.436   2.722
52116W        W24541  19.206  13.721   1.374
52117W        W24542  36.999  36.524  13.371
52118W        W24543   8.668   2.420   3.304
52119W        W24544   4.205  15.812   4.620
52120W        W24545  32.931  29.563  13.345
52121W        W24546  33.457  26.556  13.794
52122W        W24547  22.015  40.979  13.401
52123W        W24548  24.479  17.686  10.630
52124W        W24549  40.388   1.950   2.312
52125W        W24550  37.448  35.856  11.458
52126W        W24551   4.908  30.566  12.352
52127W        W24552  32.992  25.668   4.255
52128W        W24553  28.007  36.380   4.598
52129W        W24554  21.649   3.264  14.019
52130W        W24555  39.482   1.441  12.507
52131W        W24556  34.444   4.258   0.293
52132W        W24557  16.570  20.553   2.727
52133W        W24558   2.895  12.130  11.476
52134W        W24559  26.637   8.736  11.608
52135W        W24560  20.741  16.620  12.505
52136W        W24561  28.538  39.846  14.275
52137W        W24562  28.625  12.328  13.011
52138W        W24563  35.439   4.727  10.545
52139W        W24564  19.638  39.385  14.844
52140W        W24565  17.298  25.002   3.189
52141W        W24566  38.980  22.011  10.640
52142W        W24567  12.259   9.291  14.889
52143W        W24568  40.944  38.008   0.472
52144W        W24569  10.305  23.221   2.382
52145W        W24570  35.008   9.677  13.870
52146W        W24571  41.916   7.208   4.775
52147W        W24572  39.463  27.995  11.007
52148W        W24573  33.500  43.304  14.780
52149W        W24574   1.898  25.159   3.340
52150W        W24575  12.263  30.134  10.932
52151W        W24576  19.137  31.053   1.250
52152W        W24577   0.439  43.840   2.860
52153W        W24578  34.549  40.898  13.385
52154W        W24579  35.602   0.943   3.195
52155W        W24580  20.150  11.704  14.941
52156W        W24581  11.241  40.546   4.297
52157W        W24582  44.763  20.544   1.745
52158W        W24583  44.417  31.581   2.269
52159W        W24584   4.333  10.384   0.278
52160W        W24585  42.893  42.975  10.426
52161W        W24586  30.056   4.805   4.710
52162W        W24587   0.382  39.885  14.912
52163W        W24588  23.527  23.993  14.379
52164W        W24589  10.700  35.479   4.192
52165W        W24590  30.593   6.288  14.400
52166W        W24591  43.773  28.440   3.723
52167W        W24592   7.254  19.123   3.163
52168W        W24593   9.842   7.666   4.791
52169W        W24594  11.132   6.769   5.719
52170W        W24595  42.787  39.482  10.599
52171W        W24596  11.707  26.994  11.900
52172W        W24597  40.829  15.234  11.594
52173W        W24598  10.216  13.157   4.279
52174W        W24599  32.934   9.178  11.522
52175W        W24600  36.504   7.258  11.871
52176W        W24601  11.662  42.368   4.270
52177W        W24602  12.742  29.432   2.334
52178W        W24603  10.359  42.992   2.846
52179W        W24604   2.435  26.634   3.304
52180W        W24605  34.105   3.822  14.007
52181W        W24606   6.402   8.251   4.335
52182W        W24607  26.161   0.791  11.900
52183W        W24608  19.640  43.396   2.792
52184W        W24609  31.986  33.553   4.135
52185W        W24610  25.598  15.793   4.644
52186W        W24611  21.153   0.258  13.396
52187W        W24612  18.118   2.914  13.487
52188W        W24613  28.091   1.946  10.969
52189W        W24614  21.536  17.740   4.729
52190W        W24615   5.368  17.201  13.851
52191W        W24616  26.972   1.259   1.776
52192W        W24617  30.909  24.559  14.317
52193W        W24618  22.048  40.848   1.408
52194W        W24619  35.978  21.021   3.252
52195W        W24620  26.969  38.952   3.344
52196W        W24621  24.200  28.091   2.791
52197W        W24622  41.471   7.709  12.059
52198W        W24623   2.913   0.753   2.872
52199W        W24624   5.281  11.750   0.726
52200W        W24625  23.060  44.849   1.769
52201W        W24626  11.709  11.772   2.317
52202W        W24627   6.777  21.634  10.633
52203W        W24628   1.406  21.149   4.829
52204W        W24629  13.194  29.445  12.465
52205W        W24630  44.917  22.051  11.120
52206W        W24631  34.933  12.340  12.848
52207W        W24632  17.700  40.976   1.280
52208W        W24633  24.545  40.889   3.354
52209W        W24634  22.638  15.172   4.310
52210W        W24635  36.467  27.115   1.874
52211W        W24636  37.885   7.389   3.816
52212W        W24637  35.473  10.728   1.906
52213W        W24638  44.939  33.032   4.158
52214W        W24639  43.444  37.880   1.325
52215W        W24640  10.865  16.291  14.797
52216W        W24641  41.966  43.511  13.376
52217W        W24642  39.321  43.839  14.437
52218W        W24643  41.328   1.762   1.275
52219W        W24644  18.095  25.641  11.972
52220W        W24645  44.381  32.573  13.416
52221W        W24646  10.225  44.863  12.974
52222W        W24647  40.539  33.041  12.368
52223W        W24648   8.347   6.844  13.844
52224W        W24649  18.057  28.999  10.060
52225W        W24650  15.630  28.096   2.341
52226W        W24651  13.652  25.084   4.822
52227W        W24652  42.953  25.156   2.285
52228W        W24653  29.476  44.483   2.790
52229W        W24654  16.572   3.762  13.965
52230W        W24655   6.764  30.936  14.305
52231W        W24656  42.295  33.461  10.937
52232W        W24657  40.334   2.963  12.093
52233W        W24658  22.608  28.109   3.654
52234W        W24659  24.143  35.467   2.262
52235W        W24660  41.966  16.130   4.134
52236W        W24661  27.658  43.921   0.834
52237W        W24662  19.283   1.877  11.949
52238W        W24663  31.415  20.745  10.915
52239W        W24664   1.267  20.703   2.662
52240W        W24665  29.163  38.981  14.008
52241W        W24666   2.297   9.204   4.750
52242W        W24667  43.373  25.551  12.511
52243W        W24668   7.363  29.968  13.352
52244W        W24669  28.526  29.544  14.366
52245W        W24670  31.899  29.042   0.749
52246W        W24671  18.102  12.737   0.797
52247W        W24672  38.919  33.912   1.909
52248W        W24673  35.041  41.839   4.273
52249W        W24674   9.388   6.411  13.041
52250W        W24675  28.106  38.468   2.333
52251W        W24676   6.406  42.803  10.923
52252W        W24677  30.998  43.380  14.461
52253W        W24678  43.458  28.994   9.998
52254W        W24679  33.445  13.194  13.329
52255W        W24680  10.878  17.092  13.045
52256W        W24681  37.508  33.901  11.928
52257W        W24682  29.575  33.105  12.862
52258W        W24683  20.139  30.054  13.429
52259W        W24684  21.065  13.188  11.858
52260W        W24685  21.081  34.914   4.780
52261W        W24686  15.592  39.331  11.941
52262W        W24687  26.029  37.875  11.890
52263W        W24688   4.707   9.816   3.207
52264W        W24689  15.739  44.460   3.276
52265W        W24690   9.761   2.288  13.458
52266W        W24691  29.011   1.834   3.313
52267W        W24692  31.529   0.808   1.714
52268W        W24693  34.060  34.905  10.514
52269W        W24694  29.083  16.669  12.557
52270W        W24695  18.197  36.958  10.519
52271W        W24696  41.409  33.415  13.509
52272W        W24697  18.767  16.578  12.962
52273W        W24698   4.263  18.083   2.332
52274W        W24699  36.949  40.880   2.245
52275W        W24700  15.655  36.017   0.895
52276W        W24701  27.187   2.447  13.024
52277W        W24702  21.559  38.505  10.443
52278W        W24703  29.429  33.389   0.289
52279W        W24704  35.858  35.911  11.128
52280W        W24705  21.716  21.683  14.832
52281W        W24706  27.084  31.556   2.317
52282W        W24707  30.650  39.483  13.481
52283W        W24708  39.450   6.285   2.407
52284W        W24709   6.376  31.427  11.549
52285W        W24710   9.366  44.481  13.376
52286W        W24711  22.165  32.429   1.447
52287W        W24712   2.851  25.988  13.453
52288W        W24713   8.822   2.272  12.900
52289W        W24714   0.353  35.410   0.742
52290W        W24715   9.266  17.577  11.468
52291W        W24716  25.161  27.608   4.614
52292W        W24717  32.480  26.496   0.469
52293W        W24718   9.768  18.624   2.284
52294W        W24719  27.485  26.208  11.480
52295W        W24720  18.776  25.523   1.357
52296W        W24721  39.970  43.279  13.936
52297W        W24722  19.046  33.994  10.440
52298W        W24723  36.042   7.879   2.882
52299W        W24724   4.894  25.189  12.938
52300W        W24725   8.176  43.442   4.313
52301W        W24726  30.139  29.037   4.200
52302W        W24727  21.633  17.704   0.859
52303W        W24728  34.915  35.549   1.906
52304W        W24729  34.964  15.274  14.329
52305W        W24730  18.752  26.056   0.892
52306W        W24731   4.929   0.796  11.865
52307W        W24732  37.038  35.538  11.515
52308W        W24733   4.796  42.372  12.921
52309W        W24734  16.277  11.692  13.828
52310W        W24735  32.419  10.359  12.403
52311W        W24736  33.588   5.264   4.167
52312W        W24737  12.211  20.762  13.331
52313W        W24738  26.474  41.383   4.756
52314W        W24739   8.663  17.606   3.329
52315W        W24740  11.168   6.695  12.095
52316W        W24741  33.102  35.442  13.796
52317W        W24742  27.012  18.170   2.340
52318W        W24743   8.842  22.741   4.145
52319W        W24744  25.135  29.000   4.215
52320W        W24745  39.348  10.225   4.250
52321W        W24746   5.285  33.072   1.896
52322W        W24747   6.222  15.154  10.426
52323W        W24748  15.226  23.594  13.395
52324W        W24749  16.229  16.793   3.177
52325W        W24750  38.925  18.750  13.344
52326W        W24751  44.389  21.677   1.424
52327W        W24752  23.177  21.035  12.372
52328W        W24753   2.965  21.687  11.377
52329W        W24754   6.801  12.156   4.720
52330W        W24755  33.394  25.504   4.813
52331W        W24756   1.872  16.581  14.479
52332W        W24757   0.341  32.010   3.663
52333W        W24758   2.912  44.779   4.768
52334W        W24759  20.713  20.679   2.417
52335W        W24760  27.537   9.319  13.821
52336W        W24761  19.580  34.024  13.887
52337W        W24762  24.142  30.462   2.761
52338W        W24763  26.545  18.780  10.921
52339W        W24764   8.301  43.338   0.862
52340W        W24765  25.162  10.185   3.327
52341W        W24766  44.945  26.154   0.452
52342W        W24767  40.837   5.402  12.096
52343W        W24768  13.827  40.512  12.443
52344W        W24769  11.264  37.359  14.016
52345W        W24770  21.104  28.046  11.999
52346W        W24771  38.453   8.194   0.293
52347W        W24772  13.128  38.518   3.653
52348W        W24773  15.252  28.443   4.719
52349W        W24774  14.217  28.499  13.387
52350W        W24775  14.720  10.345  12.935
52351W        W24776  38.020   7.800   2.410
52352W        W24777   3.749  20.097   3.796
52353W        W24778  13.236  29.425  14.973
52354W        W24779  27.182  14.691  11.937
52355W        W24780  32.426  13.667  10.932
52356W        W24781  26.989  22.605   9.951
52357W        W24782  31.026  29.080  11.560
52358W        W24783  27.651  30.473  13.322
52359W        W24784  22.249  18.576  14.931
52360W        W24785  41.319  21.247   3.768
52361W        W24786  18.729   0.302  12.045
52362W        W24787   6.267  37.479   0.363
52363W        W24788  43.936  37.868   4.623
52364W        W24789  40.995  11.235   2.722
52365W        W24790  28.488  13.694  12.980
52366W        W24791   7.864  20.222   4.755
52367W        W24792  38.335  29.534  11.010
52368W        W24793  40.819  41.011   1.713
52369W        W24794  35.985  37.830   2.320
52370W        W24795  20.645  23.223  12.523
52371W        W24796   1.769   7.414  14.305
52372W        W24797  10.213  17.061  14.288
52373W        W24798   7.347   5.875  14.007
52374W        W24799   5.406  13.640  13.420
52375W        W24800  21.058  10.826  14.854
52376W        W24801  31.501   7.291  14.958
52377W        W24802   9.853   3.755  12.469
52378W        W24803  10.151  20.158  13.876
52379W        W24804   1.410   4.272   1.728
52380W        W24805  36.993  15.674   0.739
52381W        W24806  13.299  14.139  10.518
52382W        W24807  21.701  15.279  12.558
52383W        W24808  16.599   3.882  14.311
52384W        W24809  29.521  11.330   0.860
52385W        W24810   7.314  43.878  14.912
52386W        W24811  14.699  25.510   4.323
52387W        W24812   0.410   0.318  11.984
52388W        W24813  23.108  30.069   0.349
52389W        W24814  36.991  34.415   4.663
52390W        W24815   2.346  13.306  13.436
52391W        W24816  10.684  43.796   4.737
52392W        W24817   4.398   3.810  11.079
52393W        W24818  17.214  34.507   1.443
52394W        W24819  19.054  24.182  11.934
52395W        W24820  24.629  21.104   0.476
52396W        W24821  14.804  23.228   0.412
52397W        W24822   6.780  30.532   2.763
52398W        W24823  39.815  21.699   0.264
52399W        W24824   9.273  19.103  11.583
52400W        W24825   5.336  25.176  12.032
52401W        W24826  33.461  30.521  13.406
52402W        W24827  39.407  34.047   1.780
52403W        W24828   4.842  30.084  11.016
52404W        W24829   3.325  25.135  11.407
52405W        W24830  16.201   8.366   4.307
52406W        W24831   5.807  34.869  11.476
52407W        W24832  34.379  22.529  14.400
52408W        W24833  16.293   0.821  14.949
52409W        W24834   1.753  22.246  13.429
52410W        W24835  39.857   1.936  14.446
52411W        W24836  18.593  25.526  11.939
52412W        W24837  37.856   8.742   3.224
52413W        W24838  22.575  32.519   1.737
52414W        W24839  43.764  20.219   3.774
52415W        W24840  22.554  15.129   1.726
52416W        W24841  42.847  37.920  14.971
52417W        W24842   9.860  30.022  14.404
52418W        W24843  40.489  40.431  10.599
52419W        W24844  35.102  40.929  10.918
52420W        W24845  26.624  21.078  10.107
52421W        W24846  13.767   7.737   3.387
52422W        W24847   9.677  31.978   3.364
52423W        W24848  31.507  27.633  14.024
52424W        W24849  24.024   7.703  10.440
52425W        W24850  22.215  26.990   2.796
52426W        W24851  30.514   4.273   4.621
52427W        W24852  35.934   8.762   3.237
52428W        W24853  27.530  30.633  13.020
52429W        W24854  41.364  11.834   0.914
52430W        W24855  40.953   8.160   2.827
52431W        W24856  11.297   6.377  10.570
52432W        W24857  41.845  37.936  14.501
52433W        W24858  34.949  16.629  10.915
52434W        W24859  19.052  10.224  10.933
52435W        W24860  35.433   9.171  13.349
52436W        W24861  37.951  19.645  12.038
52437W        W24862   8.384  16.627   4.605
52438W        W24863   4.720  44.007   1.843
52439W        W24864  18.211  30.433   2.264
52440W        W24865  19.552  17.223   2.223
52441W        W24866   4.398  22.175   0.478
52442W        W24867   1.385  44.852  14.958
52443W        W24868  28.544  10.344   0.782
52444W        W24869  18.247   7.852  13.524
52445W        W24870  35.437  43.429  14.287
52446W        W24871  15.721  36.087   3.664
52447W        W24872  21.229  34.898  10.917
52448W        W24873  22.504  26.677  14.951
52449W        W24874  41.013  37.058   1.778
52450W        W24875  16.137  41.480   1.864
52451W        W24876   4.735  11.644  10.466
52452W        W24877   5.903   9.645   2.794
52453W        W24878  26.140  14.181  10.471
52454W        W24879  27.017  28.642   3.167
52455W        W24880  43.832   2.923   0.412
52456W        W24881  19.107  39.487   2.773
52457W        W24882   7.219  11.372   3.713
52458W        W24883  23.001  13.191   0.396
52459W        W24884  23.577  33.444  11.066
52460W        W24885  40.005  28.175  10.578
52461W        W24886  38.375  39.934  14.444
52462W        W24887  21.252   3.338   0.324
52463W        W24888  21.697  20.708  14.961
52464W        W24889  42.970  43.275  14.378
52465W        W24890  10.296   5.308  11.416
52466W        W24891  21.160  33.590   2.682
52467W        W24892  17.617  27.648   4.245
52468W        W24893  16.190   2.785   4.699
52469W        W24894   2.369  30.938  13.058
52470W        W24895  39.421  28.656  11.384
52471W        W24896  12.613  21.531  13.887
52472W        W24897  43.297  40.983   3.177
52473W        W24898  37.008  38.031   4.767
52474W        W24899  40.974  41.978  14.324
52475W        W24900  32.527   7.182  14.764
52476W        W24901  39.893   0.858   3.199
52477W        W24902  39.045  44.934  11.396
52478W        W24903  19.563  42.300   3.264
52479W        W24904   8.184   7.324   3.165
52480W        W24905  19.616  24.626   2.896
52481W        W24906  14.249  14.698  11.860
52482W        W24907  26.623  10.188   0.449
52483W        W24908  17.646  42.515  12.086
52484W        W24909  18.758  11.664   4.310
52485W        W24910   2.826  28.450   2.319
52486W        W24911   7.259  33.398   0.310
52487W        W24912  10.275  24.701  11.566
52488W        W24913   9.879   3.445  13.024
52489W        W24914  25.048  38.528  11.441
52490W        W24915  18.155  28.486   3.630
52491W        W24916  12.817  32.492   4.325
52492W        W24917  25.138   0.345   1.354
52493W        W24918  24.560  18.219   4.785
52494W        W24919  30.460  11.800  10.617
52495W        W24920  44.926  37.388   3.218
52496W        W24921  42.336  18.085  11.990
52497W        W24922  26.565   0.927   4.806
52498W        W24923   4.338  19.053  11.044
52499W        W24924  41.514  32.566   1.384
52500W        W24925   4.307  18.215   1.725
52501W        W24926   9.754   5.736   0.433
52502W        W24927   0.772   8.883   3.687
52503W        W24928   4.708  16.733  11.395
52504W        W24929  38.029  35.937  10.529
52505W        W24930  35.866  33.927   1.301
52506W        W24931   9.378  40.428  11.469
52507W        W24932   5.732  39.870  11.439
52508W        W24933  41.351  36.380  14.009
52509W        W24934  31.548   6.205  11.481
52510W        W24935  19.122  32.982  14.844
52511W        W24936  39.389  35.956  13.998
52512W        W24937  27.627  22.219   0.873
52513W        W24938  10.246  13.204   0.279
52514W        W24939  43.799  10.292  11.534
52515W        W24940  33.394  10.686  11.064
52516W        W24941  42.471  23.653   2.391
52517W        W24942  23.729  22.210   2.278
52518W        W24943  35.364   7.817  14.976
52519W        W24944  34.470  17.800   1.443
52520W        W24945  12.178   2.895  14.401
52521W        W24946  20.044  44.346   3.303
52522W        W24947  26.646  27.973   2.727
52523W        W24948  29.169  32.041   9.942
52524W        W24949  26.095  25.012   1.374
52525W        W24950  42.778  30.557   4.747
52526W        W24951  11.267   1.887   0.308
52527W        W24952  40.046  32.469   3.764
52528W        W24953   0.320   6.237  12.047
52529W        W24954  34.426  22.636   4.216
52530W        W24955  43.837  22.712  13.956
52531W        W24956  11.702  16.677   1.701
52532W        W24957  26.066  12.759  12.491
52533W        W24958   0.745  20.066   3.173
52534W        W24959  16.093  30.991   1.697
52535W        W24960  16.208  28.144  10.089
52536W        W24961  15.624  29.622   4.331
52537W        W24962  17.135  21.516  11.858
52538W        W24963  39.021  21.635  13.803
52539W        W24964   0.385  26.625   3.776
52540W        W24965  12.304   3.896  12.006
52541W        W24966  37.358  14.603  13.922
52542W        W24967  20.629   5.726   1.256
52543W        W24968  35.012  19.648  10.015
52544W        W24969  22.182  39.509  12.406
52545W        W24970  17.587  10.248  11.465
52546W        W24971  39.454  21.022   4.152
52547W        W24972  30.138  14.624   4.800
52548W        W24973  19.276   6.872   2.355
52549W        W24974   5.841  26.099   0.325
52550W        W24975  10.221   3.378   3.778
52551W        W24976  44.444   6.794   4.626
52552W        W24977   1.856  42.860  13.324
52553W        W24978  42.411  27.546  14.329
52554W        W24979  34.004   1.815   2.218
52555W        W24980  39.515  17.756  11.051
52556W        W24981  38.977  30.500   3.748
52557W        W24982   7.851  37.445  10.032
52558W        W24983  11.854   2.266   2.399
52559W        W24984  38.440  36.037  11.074
52560W        W24985  13.345  32.481   2.709
52561W        W24986  17.233  35.087  11.002
52562W        W24987  38.370   2.244   2.880
52563W        W24988   6.747  15.183  10.972
52564W        W24989  32.462  43.866  14.901
52565W        W24990  29.951  43.793   1.349
52566W        W24991  25.085  25.964   1.773
52567W        W24992  13.339  29.045  11.903
52568W        W24993   9.867  36.511   3.161
52569W        W24994  23.103  43.410  12.458
52570W        W24995  11.361  10.878   4.250
52571W        W24996  16.314  40.545  13.971
52572W        W24997  31.133  10.190   1.353
52573W        W24998  18.599  19.626  12.835
52574W        W24999  38.892  24.115   1.293
52575W        W25000  23.621  13.665  10.534
52576W        W25001  17.701  33.075  13.343
52577W        W25002  17.639  26.136   0.728
52578W        W25003   9.213  16.223   2.266
52579W        W25004   0.875  39.404  11.469
52580W        W25005  13.188   6.229  13.851
52581W        W25006  27.689  37.392   2.749
52582W        W25007  29.438  29.020   0.809
52583W        W25008  30.104  40.798   4.201
52584W        W25009  28.481  40.490  13.356
52585W        W25010   2.248  31.910  12.068
52586W        W25011   9.764  39.431   2.311
52587W        W25012  32.402  40.962   1.824
52588W        W25013  34.485   2.332   1.750
52589W        W25014  30.479  27.112  10.993
52590W        W25015   5.736  37.465   4.699
52591W        W25016  12.690  36.514  10.554
52592W        W25017  28.038  22.228   2.805
52593W        W25018  32.631  15.715  11.895
52594W        W25019  41.326  38.470   3.733
52595W        W25020   2.747  38.459  10.896
52596W        W25021  30.991  18.116   0.857
52597W        W25022  30.437   3.839   2.849
52598W        W25023  29.602   5.713  11.402
52599W        W25024   9.291  30.089   1.771
52600W        W25025  15.807  11.646  11.448
52601W        W25026  25.640  30.479   4.658
52602W        W25027  17.660  40.334  13.311
52603W        W25028  35.507  27.616   4.645
52604W        W25029  12.701  35.969  11.504
52605W        W25030  20.127  23.643  11.930
52606W        W25031   7.857   7.270   2.195
52607W        W25032  34.038  13.844  12.016
52608W        W25033  20.599  28.645   3.864
52609W        W25034  38.498  29.095  12.446
52610W        W25035  16.255  14.166   3.788
52611W        W25036  24.720  18.127   1.317
52612W        W25037  40.456  35.931   0.311
52613W        W25038   2.861  35.408  14.766
52614W        W25039   0.943  17.238  12.381
52615W        W25040  22.634  43.444  13.403
52616W        W25041  32.897  27.617   4.247
52617W        W25042  38.444  38.968  13.986
52618W        W25043  38.420  38.537   3.168
52619W        W25044  13.188  28.480  12.409
52620W        W25045  21.627   1.430   3.768
52621W        W25046  10.200  32.094  12.539
52622W        W25047  15.689  33.505  11.597
52623W        W25048  42.971  14.237   4.772
52624W        W25049  14.788  15.722  14.350
52625W        W25050   4.870  27.534   1.834
52626W        W25051  26.060  22.701  10.472
52627W        W25052  25.572  25.130   2.674
52628W        W25053   9.679   5.269   3.205
52629W        W25054  17.288  16.199  12.863
52630W        W25055  42.013  21.025  13.423
52631W        W25056  39.819   0.419  14.281
52632W        W25057   8.244  27.501   3.329
52633W        W25058  24.213  43.774   0.884
52634W        W25059  44.462  15.577   3.205
52635W        W25060  24.087   9.386   0.384
52636W        W25061  12.358  22.588   5.164
52637W        W25062   7.883   3.815  11.080
52638W        W25063  36.043  29.124   0.341
52639W        W25064   9.798  12.838   3.705
52640W        W25065  41.910  21.522  11.590
52641W        W25066   7.200  36.437  14.338
52642W        W25067   7.344  20.632  11.976
52643W        W25068  22.070   1.732   3.269
52644W        W25069  22.557   0.416  13.352
52645W        W25070   9.275  15.155   2.683
52646W        W25071  20.039  39.842  10.036
52647W        W25072  23.618  12.347  14.411
52648W        W25073  21.631  15.298   4.621
52649W        W25074   3.811   7.285  10.105
52650W        W25075  12.321   6.784   0.276
52651W        W25076  20.679   2.347   4.202
52652W        W25077  18.564   6.350   2.803
52653W        W25078  36.506   8.184  12.957
52654W        W25079  21.758  18.076   4.169
52655W        W25080  36.514  18.187   0.420
52656W        W25081  22.690  44.882   1.252
52657W        W25082  30.990  17.801   1.830
52658W        W25083  34.927  17.069  11.587
52659W        W25084  30.433  20.216   4.155
52660W        W25085  20.731  32.048   2.744
52661W        W25086  28.957  26.702  10.488
52662W        W25087  43.881  11.841   1.847
52663W        W25088  20.032  42.430  13.993
52664W        W25089  13.781  25.544   5.755
52665W        W25090  41.850  29.440   1.904
52666W        W25091  29.589   9.811   0.437
52667W        W25092  40.865  31.974  14.820
52668W        W25093  35.474  27.165  14.344
52669W        W25094   2.443  41.984  13.386
52670W        W25095   8.850  39.505  11.022
52671W        W25096  25.587  34.923  12.533
52672W        W25097  44.834  23.213  10.484
52673W        W25098   4.790  37.075  11.989
52674W        W25099   9.321   6.920   4.626
52675W        W25100  44.455   5.864  12.839
52676W        W25101  37.025  44.336  13.029
52677W        W25102  21.050  11.157   2.788
52678W        W25103   1.813   0.807  10.900
52679W        W25104  43.465  21.207   9.965
52680W        W25105  33.896  42.420  13.499
52681W        W25106  23.083  10.733   5.089
52682W        W25107  39.893  38.435  13.313
52683W        W25108  13.845  18.640   4.610
52684W        W25109  34.491  42.445   1.293
52685W        W25110  43.306  39.021  14.907
52686W        W25111  43.004  26.978   1.389
52687W        W25112  25.003  40.455   3.694
52688W        W25113  12.284  20.161   2.896
52689W        W25114  28.018   0.921   3.834
52690W        W25115  25.637  40.444  11.031
52691W        W25116  28.491   3.421  13.423
52692W        W25117  40.972   9.731  11.372
52693W        W25118  15.109  14.664  14.997
52694W        W25119  28.042  32.898  12.550
52695W        W25120  37.911  44.331   5.117
52696W        W25121   4.885  42.341  10.449
52697W        W25122  24.709  15.252   3.842
52698W        W25123   3.236  15.739  13.020
52699W        W25124   2.391  43.910   4.619
52700W        W25125   5.344  34.043   4.667
52701W        W25126  17.639  36.518  11.071
52702W        W25127   2.425   2.939   2.727
52703W        W25128  37.522  28.514   0.784
52704W        W25129  11.354  43.869  13.311
52705W        W25130  31.959   6.281  11.980
52706W        W25131  31.134  39.516   2.871
52707W        W25132   4.247  31.076   1.811
52708W        W25133  13.830   7.275   0.361
52709W        W25134   8.726  15.269   3.758
52710W        W25135  18.770   1.303  10.920
52711W        W25136  16.577  15.594   0.283
52712W        W25137  33.053  44.309  10.408
52713W        W25138   5.860  29.125  11.115
52714W        W25139  20.640  18.786  10.526
52715W        W25140  33.123  22.530   1.836
52716W        W25141  35.911  44.857   4.137
52717W        W25142  16.077   8.161   4.831
52718W        W25143   8.342  15.581  13.907
52719W        W25144  38.885  11.835  11.081
52720W        W25145  21.731  36.889   0.726
52721W        W25146  17.648  26.094  13.965
52722W        W25147  42.020   1.935  13.883
52723W        W25148  11.240  13.317  14.985
52724W        W25149  33.425  21.241   4.670
52725W        W25150  30.118  43.884  13.523
52726W        W25151   6.223   0.867   1.801
52727W        W25152  18.259  15.711  14.878
52728W        W25153  32.047  42.440  10.405
52729W        W25154  26.522  24.173   5.183
52730W        W25155  41.926  20.553   3.235
52731W        W25156  32.905   7.343  11.553
52732W        W25157  16.177  11.290  11.903
52733W        W25158  32.060  43.908   2.411
52734W        W25159  15.684  15.218  13.064
52735W        W25160   2.300   4.708  13.342
52736W        W25161  31.027  44.003   0.248
52737W        W25162   0.417  31.598   2.337
52738W        W25163  39.893  29.031  12.566
52739W        W25164   2.462  37.370  12.431
52740W        W25165   6.683  42.864   1.270
52741W        W25166  14.829  26.977   0.286
52742W        W25167   2.361   2.794  11.078
52743W        W25168  24.662  44.482  10.992
52744W        W25169  35.452  17.725  12.875
52745W        W25170  32.079  43.018   4.306
52746W        W25171  15.667   6.850   0.313
52747W        W25172  25.590   4.439   4.739
52748W        W25173  28.630  39.903   3.364
52749W        W25174  31.946  30.429  12.861
52750W        W25175  33.452  32.058   0.445
52751W        W25176  15.252  20.239   1.858
52752W        W25177  38.973   7.215   5.206
52753W        W25178  16.292  40.544   1.277
52754W        W25179  17.664   1.898  14.822
52755W        W25180  16.787   9.867  11.972
52756W        W25181  31.617  37.341   2.839
52757W        W25182   8.268  12.226  11.957
52758W        W25183  37.088  11.286  13.344
52759W        W25184  39.898  23.216   3.749
52760W        W25185  26.034  36.483   2.678
52761W        W25186  25.156  39.555  12.095
52762W        W25187  27.567  21.162   2.811
52763W        W25188  35.494  30.655   1.933
52764W        W25189  19.755  34.960   1.355
52765W        W25190  31.084  44.312  14.433
52766W        W25191  25.170  33.889  10.432
52767W        W25192  39.870  40.529  14.348
52768W        W25193  23.199  15.229  12.442
52769W        W25194  14.265  30.634  12.451
52770W        W25195  28.519   9.659   1.319
52771W        W25196  35.109  40.957   0.286
52772W        W25197  17.175  17.731   2.238
52773W        W25198   7.245  44.897  11.972
52774W        W25199   8.790  13.255   5.148
52775W        W25200  42.290   1.259   2.375
52776W        W25201  23.078  25.090  11.856
52777W        W25202  29.138   8.746  13.428
52778W        W25203  16.142  22.722  11.985
52779W        W25204  16.186  42.359   4.200
52780W        W25205   9.227  27.493   1.369
52781W        W25206  37.019  15.804   4.340
52782W        W25207  12.689   9.173  14.831
52783W        W25208  40.320  18.129  14.027
52784W        W25209  18.061  30.089  14.395
52785W        W25210   5.714  26.679   1.841
52786W        W25211  36.090  10.696  14.284
52787W        W25212  19.259  11.837  12.956
52788W        W25213  15.235   7.250  11.895
52789W        W25214   9.386  29.535   2.876
52790W        W25215  17.211  36.955  13.979
52791W        W25216  11.302  17.748   3.368
52792W        W25217  10.254  32.925  10.453
52793W        W25218  43.807  37.023  10.549
52794W        W25219  19.533   6.264   0.735
52795W        W25220  27.590  19.269   1.840
52796W        W25221  16.765  12.350  14.309
52797W        W25222  42.868  24.125   3.635
52798W        W25223   6.814   5.907   1.840
52799W        W25224  19.192  15.731  12.475
52800W        W25225  44.451  43.867  11.555
52801W        W25226  43.946   6.919  13.384
52802W        W25227  17.221  24.025   9.940
52803W        W25228  43.309  33.571  14.492
52804W        W25229  43.375   6.211   4.175
52805W        W25230  11.754  12.306  12.380
52806W        W25231  20.103  16.749   4.178
52807W        W25232  36.511  35.011   4.308
52808W        W25233  28.167   3.906   1.760
52809W        W25234   7.739   8.357  11.997
52810W        W25235  25.062  22.528  14.969
52811W        W25236  20.695  37.042   4.169
52812W        W25237  20.657  15.162  11.027
52813W        W25238  10.294  27.985   3.258
52814W        W25239  18.617   6.200  12.067
52815W        W25240  44.864  40.998   4.226
52816W        W25241  11.263   5.932  11.076
52817W        W25242  21.693  26.154  12.490
52818W        W25243   4.900  20.256   4.611
52819W        W25244  29.094  29.501   2.217
52820W        W25245  39.879  19.639  11.947
52821W        W25246  40.997  18.683  10.957
52822W        W25247  14.331  24.090   2.849
52823W        W25248  42.823  15.119   3.167
52824W        W25249  18.265  17.699  13.852
52825W        W25250  25.055   9.762  11.559
52826W        W25251  38.372   2.953  13.059
52827W        W25252  31.432  44.805   4.243
52828W        W25253   9.246  41.907   2.407
52829W        W25254  44.350  32.954   0.883
52830W        W25255  19.153  27.019  14.417
52831W        W25256   1.259   0.410   3.155
52832W        W25257  23.676  33.603   2.239
52833W        W25258  37.421  24.071   4.182
52834W        W25259  41.030  30.074  14.876
52835W        W25260  10.348  26.460   5.229
52836W        W25261  25.585  12.246   0.374
52837W        W25262  10.758  15.219   2.787
52838W        W25263   8.819  14.771  10.945
52839W        W25264  44.372  37.416  10.969
52840W        W25265  43.420   7.388  13.809
52841W        W25266   1.284  10.301   4.702
52842W        W25267  30.974   6.209   4.311
52843W        W25268  12.144  29.028   1.917
52844W        W25269   3.936  41.478   4.810
52845W        W25270   0.829  41.334  10.968
52846W        W25271  16.802   0.851  13.058
52847W        W25272  15.271   5.765   2.242
52848W        W25273   3.920  21.065  13.933
52849W        W25274  23.542  18.709   0.466
52850W        W25275  34.481  34.503  12.842
52851W        W25276   3.818  17.096   1.736
52852W        W25277  40.925  21.708   3.739
52853W        W25278  43.776   4.263   3.257
52854W        W25279  23.574   0.970   0.275
52855W        W25280  37.447  44.010   0.468
52856W        W25281   3.293  25.217   0.432
52857W        W25282  16.308  41.395  14.410
52858W        W25283  31.981  18.135  14.446
52859W        W25284  10.378  19.167  12.037
52860W        W25285   7.693   7.802   9.636
52861W        W25286   7.203  31.613  11.942
52862W        W25287  26.149  29.550  13.794
52863W        W25288   2.251  24.672   1.854
52864W        W25289  34.454  29.106   4.629
52865W        W25290  15.773  22.221  12.968
52866W        W25291  26.002  35.600   1.284
52867W        W25292   2.899   4.744  10.466
52868W        W25293  33.483  40.046  12.560
52869W        W25294  17.218  15.799   4.788
52870W        W25295   1.458  21.030   5.204
52871W        W25296  39.940  33.561  10.989
52872W        W25297   2.315   2.764   4.687
52873W        W25298  25.111  22.149   3.683
52874W        W25299  22.609  13.605   2.760
52875W        W25300  16.612  35.512  12.983
52876W        W25301  42.325  29.601  13.476
52877W        W25302  22.728  33.565  12.937
52878W        W25303  25.963  31.010  11.975
52879W        W25304   1.379  35.885   1.844
52880W        W25305   2.327  44.470  14.030
52881W        W25306  33.512   7.349   3.167
52882W        W25307  32.622  27.989  13.473
52883W        W25308  23.581  31.625  12.959
52884W        W25309  35.873  30.602  14.940
52885W        W25310  30.030  29.434   2.336
52886W        W25311  14.752  27.148  13.313
52887W        W25312  17.262  37.939  13.887
52888W        W25313  17.247  17.090   4.761
52889W        W25314   8.769  18.569   2.886
52890W        W25315  32.630  40.436   3.804
52891W        W25316  31.512  19.744  14.970
52892W        W25317   4.401  28.109   4.763
52893W        W25318  38.921  38.011   2.743
52894W        W25319  34.947   7.873  12.844
52895W        W25320  41.532   2.461  10.638
52896W        W25321  26.092  15.808   2.792
52897W        W25322   6.327  29.018   1.846
52898W        W25323  13.785  32.531   3.857
52899W        W25324  39.037  39.350  13.316
52900W        W25325  11.660  31.104  11.504
52901W        W25326  13.768  43.925  12.391
52902W        W25327  41.835  42.796  14.860
52903W        W25328  19.154   7.763  10.491
52904W        W25329  40.969   5.758   3.742
52905W        W25330  24.005  13.607   2.792
52906W        W25331  25.105  15.261  14.370
52907W        W25332  14.176  16.090   2.409
52908W        W25333  25.048   8.796  14.414
52909W        W25334  18.572  30.010  14.306
52910W        W25335  29.949  33.952  14.369
52911W        W25336  11.328  42.793  14.881
52912W        W25337  22.095  22.214  12.408
52913W        W25338  20.556   1.355   4.235
52914W        W25339  32.031   8.721   1.741
52915W        W25340  32.986   1.895  12.001
52916W        W25341  27.191   5.797  11.386
52917W        W25342  15.692  21.672   5.100
52918W        W25343  12.361  29.016   4.682
52919W        W25344  15.606  23.492   9.613
52920W        W25345  43.363   3.289   0.253
52921W        W25346   1.290  28.140  12.982
52922W        W25347  26.956  28.962   4.179
52923W        W25348  32.964  34.416   3.256
52924W        W25349   2.467  39.890  10.127
52925W        W25350  13.833  12.148   1.260
52926W        W25351  44.935   3.805   3.836
52927W        W25352  44.947  17.264   4.723
52928W        W25353  27.481  38.869   0.387
52929W        W25354  42.021  16.161  14.329
52930W        W25355  27.123  17.620  13.025
52931W        W25356  29.665   7.191   0.875
52932W        W25357   6.402  15.266   0.865
52933W        W25358  21.194  26.664   4.354
52934W        W25359  17.126   2.250  11.887
52935W        W25360  21.167   9.364   3.714
52936W        W25361  28.120   4.406  11.592
52937W        W25362  38.854  27.031  12.490
52938W        W25363  35.951  26.472   1.694
52939W        W25364  22.580  40.451  10.500
52940W        W25365   9.302   4.870  10.983
52941W        W25366   5.835   0.325   4.185
52942W        W25367  29.090  38.857  10.574
52943W        W25368  31.462   7.874  10.923
52944W        W25369   3.782  25.507   3.806
52945W        W25370  42.987  39.340  11.946
52946W        W25371  15.657  33.921  11.574
52947W        W25372   0.889   2.381   4.833
52948W        W25373  30.489   0.430   4.166
52949W        W25374  25.998  10.809  11.936
52950W        W25375  11.140  21.032   2.291
52951W        W25376  27.475  36.593  13.000
52952W        W25377  42.426   5.892  12.862
52953W        W25378   4.847   9.333   3.865
52954W        W25379  13.734  27.592  11.612
52955W        W25380  12.775   6.420   2.196
52956W        W25381   5.266  21.616   3.228
52957W        W25382  34.497  22.172   2.321
52958W        W25383  13.796   9.792   2.353
52959W        W25384   8.308  26.200   0.848
52960W        W25385   2.856  10.802  11.436
52961W        W25386  25.618  19.219  12.529
52962W        W25387  14.724   8.370  13.529
52963W        W25388  29.128  21.202  14.908
52964W        W25389  32.531  10.354   4.121
52965W        W25390  35.463  42.494   3.646
52966W        W25391  39.927   7.882  12.392
52967W        W25392   7.382  13.126   1.719
52968W        W25393   6.361  10.180  14.945
52969W        W25394   6.315  19.237   0.475
52970W        W25395  23.632  22.054   3.181
52971W        W25396   2.937  11.352  12.865
52972W        W25397  39.438   3.270   4.340
52973W        W25398  32.037  22.225  11.493
52974W        W25399   0.911  36.432  12.533
52975W        W25400  30.152   7.323  11.979
52976W        W25401  20.117  18.195  13.477
52977W        W25402  26.966  38.998   2.782
52978W        W25403  19.761  12.754   0.430
52979W        W25404  32.579  12.219   0.416
52980W        W25405  10.215  20.694   2.290
52981W        W25406   9.380  34.107  12.891
52982W        W25407  35.404  39.909   0.801
52983W        W25408   6.706  38.907  11.043
52984W        W25409  22.126   5.869   2.807
52985W        W25410  16.080  41.517  11.092
52986W        W25411  14.333   8.811   4.823
52987W        W25412  19.273  31.130   0.301
52988W        W25413  30.114  14.675   1.840
52989W        W25414  31.464  44.771  12.490
52990W        W25415  40.910  19.688   1.713
52991W        W25416  31.079  40.518  10.464
52992W        W25417  43.302  37.576   4.207
52993W        W25418  10.714  41.438  10.427
52994W        W25419   1.440  44.480   3.361
52995W        W25420   4.771  21.109   1.856
52996W        W25421  31.899   2.419  10.487
52997W        W25422  38.470  28.000  14.505
52998W        W25423  29.636   1.760  12.873
52999W        W25424  22.131  11.851   0.412
53000W        W25425  43.989  24.664  11.975
53001W        W25426  26.014  21.701   3.240
53002W        W25427  11.263  33.509   4.337
53003W        W25428   5.764  42.294  10.971
53004W        W25429  29.646  33.426  14.785
53005W        W25430  23.064  36.440   4.141
53006W        W25431   1.746  19.136   2.197
53007W        W25432  23.003  14.292   1.861
53008W        W25433  20.116  35.934  10.566
53009W        W25434  11.697  28.650  14.283
53010W        W25435  26.019  20.248  14.769
53011W        W25436  12.348  23.710  12.376
53012W        W25437  33.438   1.930  12.930
53013W        W25438  10.225  43.895  11.453
53014W        W25439  43.376  44.777  14.504
53015W        W25440   0.832  12.117  11.936
53016W        W25441  35.387  40.023   2.696
53017W        W25442  36.915  44.885  10.506
53018W        W25443  38.999  36.516  13.444
53019W        W25444  39.372  33.519  12.419
53020W        W25445  17.153  14.324  13.419
53021W        W25446   7.403   7.740  11.866
53022W        W25447  42.373  41.503   0.891
53023W        W25448  31.629  16.076  14.323
53024W        W25449  26.547  38.035   2.306
53025W        W25450  13.182  41.423   0.410
53026W        W25451  38.367  15.287   3.867
53027W        W25452  12.675  38.490   1.385
53028W        W25453  24.110  26.636  10.122
53029W        W25454  33.897  14.829  11.116
53030W        W25455  31.444   6.303  12.038
53031W        W25456  26.976   1.950   2.339
53032W        W25457  25.202  35.540   4.250
53033W        W25458  16.782  11.141   1.722
53034W        W25459  24.170  29.655   0.840
53035W        W25460   8.219   2.954  12.070
53036W        W25461  18.291   8.828  10.560
53037W        W25462   4.445  42.351  13.401
53038W        W25463  38.533  38.887  10.602
53039W        W25464   2.863   0.985  12.953
53040W        W25465  38.953  31.000  14.453
53041W        W25466  41.864  36.027  14.804
53042W        W25467  41.502  14.163   4.633
53043W        W25468  25.218  13.786  14.419
53044W        W25469  41.944   6.358  14.413
53045W        W25470   0.261  42.347  12.889
53046W        W25471   4.448  11.711  11.887
53047W        W25472  37.577  29.537   0.352
53048W        W25473  38.906  37.555   1.316
53049W        W25474  32.552  21.538  14.431
53050W        W25475  34.565  18.786   3.321
53051W        W25476  41.834   4.294  11.086
53052W        W25477  19.238  37.552  13.336
53053W        W25478  44.966   3.264   2.764
53054W        W25479   3.224  41.011  11.572
53055W        W25480  34.007  10.762  14.444
53056W        W25481  29.953  23.200   4.740
53057W        W25482  27.030  43.973  13.322
53058W        W25483  20.609  33.087   1.247
53059W        W25484  38.476  13.293  12.070
53060W        W25485  29.107   0.772  11.007
53061W        W25486  36.856  13.222   3.367
53062W        W25487   2.878  15.699   4.744
53063W        W25488  11.285  33.980   3.329
53064W        W25489  11.283  40.399   2.742
53065W        W25490  32.089   5.266  12.968
53066W        W25491  44.973   5.787  14.320
53067W        W25492  40.870  18.267   3.180
53068W        W25493  15.086  35.061  10.425
53069W        W25494  29.076  42.781   2.798
53070W        W25495   4.796  41.515   0.422
53071W        W25496  38.563  29.926   3.177
53072W        W25497  27.177  10.840  13.423
53073W        W25498  29.018  16.740   4.203
53074W        W25499   7.358  33.996   2.179
53075W        W25500   6.304   9.367  12.942
53076W        W25501  12.308  24.562  12.049
53077W        W25502   0.761  21.544  13.054
53078W        W25503  39.936  27.659  12.035
53079W        W25504  19.081  11.812  13.806
53080W        W25505  22.533   7.801   1.762
53081W        W25506  27.017  17.262   2.217
53082W        W25507  21.030  16.748  13.467
53083W        W25508  14.202  30.636  10.576
53084W        W25509  20.217  42.818  14.374
53085W        W25510  36.928  31.086  13.810
53086W        W25511  25.213   7.260   1.339
53087W        W25512   3.856  10.165   2.356
53088W        W25513  36.373  16.081   0.763
53089W        W25514  35.100  25.967  11.443
53090W        W25515  11.672   6.762  10.917
53091W        W25516  34.475  44.431  13.355
53092W        W25517  41.975  20.242   0.757
53093W        W25518   8.187   0.305  14.995
53094W        W25519   5.368   7.897   0.462
53095W        W25520  24.164  24.531   1.317
53096W        W25521  11.280  14.670   3.728
53097W        W25522  32.940  37.913  13.884
53098W        W25523  26.048  24.532   4.268
53099W        W25524  40.474  37.968  13.520
53100W        W25525  39.516  11.692   0.444
53101W        W25526  23.561   3.723  10.577
53102W        W25527  18.275  29.081  12.419
53103W        W25528   4.851   3.741   4.235
53104W        W25529  16.770  42.516   1.441
53105W        W25530  13.231  36.547   4.208
53106W        W25531   7.882  21.648  11.444
53107W        W25532   1.811  23.235   4.801
53108W        W25533   2.798  23.523   0.879
53109W        W25534  41.970  21.628   0.925
53110W        W25535  29.125  42.916  13.910
53111W        W25536   8.213  41.839   3.225
53112W        W25537   0.445  28.451   4.193
53113W        W25538  33.433  11.655   3.784
53114W        W25539  25.174  28.461   0.309
53115W        W25540  44.399  18.189   0.866
53116W        W25541  35.889  41.941   0.360
53117W        W25542  39.938   2.839  14.502
53118W        W25543  22.241  15.191  12.486
53119W        W25544  25.692  23.103   4.145
53120W        W25545  40.455  17.094   0.827
53121W        W25546  29.448   4.826  11.916
53122W        W25547  12.772  25.076  12.033
53123W        W25548  20.202  16.624  11.878
53124W        W25549   1.359  17.754   0.965
53125W        W25550   7.723  27.574   0.334
53126W        W25551  32.910   3.875   3.168
53127W        W25552  37.441   3.868   0.881
53128W        W25553  35.522  44.332  12.935
53129W        W25554  43.894  37.436  14.804
53130W        W25555  41.026  30.058  13.450
53131W        W25556   1.442  15.178  12.055
53132W        W25557   6.823  13.187  12.403
53133W        W25558  44.761  30.090  10.572
53134W        W25559  14.254   8.761   2.243
53135W        W25560   0.381  17.575  13.528
53136W        W25561  25.632  20.567   4.642
53137W        W25562  29.669   5.424   1.268
53138W        W25563  29.661  26.625  10.908
53139W        W25564   2.247  42.963   1.883
53140W        W25565  27.003  25.096   4.676
53141W        W25566   0.959  22.630   5.176
53142W        W25567  28.954  24.598   3.846
53143W        W25568  35.932  29.004   2.723
53144W        W25569  19.183  38.024  14.334
53145W        W25570  23.061  13.615  12.460
53146W        W25571  15.761  20.733  10.506
53147W        W25572   3.716   2.859  11.883
53148W        W25573  37.403  17.678   0.265
53149W        W25574  11.229  37.958  13.837
53150W        W25575   6.242  22.139  10.632
53151W        W25576  16.801  29.173  10.539
53152W        W25577  22.220  10.199  12.044
53153W        W25578  33.939  43.284   4.735
53154W        W25579  18.249  44.443   0.853
53155W        W25580  11.847  25.499   0.807
53156W        W25581  15.584  33.042  11.610
53157W        W25582  33.999  26.461  11.911
53158W        W25583  41.992  23.691   3.672
53159W        W25584  29.933   6.781   3.322
53160W        W25585  22.157  30.544  14.478
53161W        W25586   4.218   2.830  12.829
53162W        W25587  10.184  20.259   1.897
53163W        W25588   9.370  41.486  12.528
53164W        W25589  24.677  11.621  11.053
53165W        W25590  18.070  15.177   2.330
53166W        W25591  19.215  37.526   4.183
53167W        W25592  30.137  19.568   2.302
53168W        W25593  41.926  24.608   1.915
53169W        W25594  33.101  44.961  12.920
53170W        W25595  42.345  20.530  11.518
53171W        W25596  34.612  23.721  10.549
53172W        W25597  31.473   8.373   3.244
53173W        W25598  31.137  36.465  12.543
53174W        W25599   5.334  11.195   2.242
53175W        W25600  29.531  29.051   2.225
53176W        W25601  33.486  26.458   1.382
53177W        W25602  10.267  17.119  11.061
53178W        W25603  34.060  39.837   2.275
53179W        W25604  41.352  17.307   1.872
53180W        W25605   5.432  16.254  14.405
53181W        W25606  29.095  22.998  14.495
53182W        W25607  32.935  23.721  13.526
53183W        W25608  23.083   1.923  11.455
53184W        W25609  20.083  35.452   0.476
53185W        W25610  40.859  18.625  10.453
53186W        W25611  27.514  23.716  14.851
53187W        W25612  16.793  24.522  11.504
53188W        W25613  10.317  35.981  13.422
53189W        W25614  40.818  17.193   4.189
53190W        W25615  35.974   6.397   1.736
53191W        W25616   6.740  36.888  14.995
53192W        W25617  43.364  24.511  10.989
53193W        W25618  34.992  17.097   1.800
53194W        W25619  13.186  16.574  14.865
53195W        W25620  42.436  13.185  12.454
53196W        W25621   0.846  14.231   1.711
53197W        W25622   9.266   1.796  12.490
53198W        W25623  10.274  34.965  14.476
53199W        W25624  16.580  20.596  11.048
53200W        W25625  18.104  20.139   1.320
53201W        W25626   8.220  44.499  11.417
53202W        W25627  43.296  35.940  11.591
53203W        W25628  10.732   5.220   0.931
53204W        W25629  30.001  36.013   2.234
53205W        W25630   1.331  16.810   3.832
53206W        W25631  36.993   4.345  13.030
53207W        W25632  42.969   3.880   2.772
53208W        W25633  30.087  36.469  13.519
53209W        W25634  13.629  42.839  13.341
53210W        W25635  24.625  43.877   1.928
53211W        W25636   9.381  14.622   0.443
53212W        W25637  34.020  14.281  10.504
53213W        W25638  16.590  17.195   0.885
53214W        W25639  39.876  22.585   2.846
53215W        W25640  30.658  10.852   4.614
53216W        W25641   1.328  18.268  12.416
53217W        W25642  25.038   8.878   5.184
53218W        W25643   5.848  40.437  13.517
53219W        W25644  21.232  29.949   2.266
53220W        W25645   2.459   2.373  13.876
53221W        W25646  31.898   3.233   4.618
53222W        W25647  35.070  11.246   2.275
53223W        W25648   3.933  26.111  13.538
53224W        W25649  21.141  10.734   0.895
53225W        W25650  17.061   5.857  11.003
53226W        W25651   0.286  18.176  13.364
53227W        W25652  19.199  26.152  11.879
53228W        W25653  26.993   4.916   1.898
53229W        W25654  16.294  13.799  13.513
53230W        W25655  22.146  43.409   2.370
53231W        W25656  18.161   1.763   2.889
53232W        W25657  27.686  44.932   0.461
53233W        W25658  36.521   6.281  13.328
53234W        W25659  28.439  39.997   0.247
53235W        W25660  24.535  13.621   4.762
53236W        W25661  39.888  32.593  13.908
53237W        W25662  35.445  13.680   3.232
53238W        W25663  11.837   5.245   2.392
53239W        W25664  14.225  32.523   1.431
53240W        W25665  10.241  17.180   0.312
53241W        W25666  40.366   1.814  13.410
53242W        W25667  20.077  33.438  13.022
53243W        W25668  21.573   9.184   4.739
53244W        W25669  21.734  17.206  14.779
53245W        W25670  11.128  26.007  12.005
53246W        W25671  40.855  11.675   4.601
53247W        W25672  37.546  24.066  12.054
53248W        W25673  27.989   8.888  10.505
53249W        W25674  37.358  35.875   3.232
53250W        W25675   3.766  16.212   0.811
53251W        W25676  41.391  41.503  11.592
53252W        W25677  30.143  22.615   4.277
53253W        W25678  27.681  15.324  11.050
53254W        W25679  29.095  10.317  12.528
53255W        W25680  42.014  43.470   2.350
53256W        W25681   2.883  21.052  14.384
53257W        W25682  41.023  37.431  13.456
53258W        W25683   1.314  40.028   0.877
53259W        W25684   7.744   9.657   4.815
53260W        W25685  37.051  17.273  13.906
53261W        W25686  44.440  12.682   4.726
53262W        W25687  35.985   2.735  10.507
53263W        W25688  37.550  18.201   0.407
53264W        W25689   6.759  22.119   3.833
53265W        W25690  31.550  40.875   4.169
53266W        W25691  31.125  37.896   3.167
53267W        W25692  28.040  40.428   0.472
53268W        W25693  22.107   8.821   0.900
53269W        W25694   9.262  18.098   4.172
53270W        W25695   0.449  22.676  11.900
53271W        W25696   7.838   3.808   0.894
53272W        W25697  33.971   8.853  10.940
53273W        W25698  17.199  24.545  10.983
53274W        W25699  23.128   3.829  12.430
53275W        W25700  18.716  44.978  11.483
53276W        W25701  19.737  10.187   1.931
53277W        W25702  32.022  10.204  10.476
53278W        W25703  41.927   2.790  11.108
53279W        W25704  44.946  12.221  11.390
53280W        W25705   7.849  38.941  13.410
53281W        W25706   4.339  12.179  13.478
53282W        W25707  22.589  30.433   3.779
53283W        W25708  23.990  18.770   9.963
53284W        W25709  24.035   8.881   4.257
53285W        W25710   2.355   2.261   3.159
53286W        W25711  35.406  12.176  10.429
53287W        W25712  14.125  34.977   0.243
53288W        W25713  41.003   0.810  13.309
53289W        W25714  39.405  16.268   2.797
53290W        W25715  34.458  32.068   4.816
53291W        W25716   1.832  21.157  11.033
53292W        W25717  34.976   0.383   1.362
53293W        W25718  16.264  28.984  10.996
53294W        W25719  42.832  30.123   4.643
53295W        W25720  12.718  18.171  13.871
53296W        W25721  38.820  11.147   2.325
53297W        W25722  25.200  22.203  13.923
53298W        W25723  42.320  28.142   2.882
53299W        W25724   5.349   2.267   4.200
53300W        W25725   0.402  27.614  10.984
53301W        W25726   7.680  38.330   2.735
53302W        W25727   5.699  11.283  12.009
53303W        W25728  17.237  44.906  14.853
53304W        W25729  30.510  28.097   4.710
53305W        W25730  10.808  40.396   4.122
53306W        W25731  32.936  30.092  14.351
53307W        W25732  39.041  22.192  13.506
53308W        W25733  11.808  32.417   1.241
53309W        W25734  26.149  35.480   4.761
53310W        W25735  34.964  23.701  14.964
53311W        W25736  39.991  32.605  13.514
53312W        W25737  28.946   3.216  10.449
53313W        W25738  32.133  19.687   3.150
53314W        W25739  22.162  30.638   3.776
53315W        W25740  30.422   1.948   4.721
53316W        W25741  33.514   2.740   1.774
53317W        W25742  21.583  43.295  14.395
53318W        W25743  31.913  18.701  14.859
53319W        W25744  33.413  19.090  10.902
53320W        W25745  23.548   1.327   0.352
53321W        W25746  26.977  17.668   2.349
53322W        W25747  28.978  21.639   0.964
53323W        W25748  37.411  17.210   5.269
53324W        W25749  41.507  15.795   0.293
53325W        W25750   8.184  18.654  10.974
53326W        W25751  36.462  36.956   3.711
53327W        W25752  18.740  15.809  14.013
53328W        W25753  37.512  42.967  12.948
53329W        W25754  27.046  13.326   0.359
53330W        W25755  22.565  38.968  11.482
53331W        W25756  15.221  30.459   0.890
53332W        W25757  39.974  18.268  14.908
53333W        W25758  40.516   7.242   2.348
53334W        W25759  23.008  17.570   0.479
53335W        W25760  12.853  14.652  13.478
53336W        W25761  10.685  42.374  14.829
53337W        W25762   4.323  11.151  11.409
53338W        W25763  42.033  31.600  11.033
53339W        W25764  43.408  23.534  14.983
53340W        W25765  20.582  33.052   4.708
53341W        W25766  30.588  13.748  10.546
53342W        W25767  24.547  28.172  13.544
53343W        W25768   1.283  11.778   4.728
53344W        W25769  41.511  43.367  13.546
53345W        W25770  33.940  36.094  14.932
53346W        W25771  30.918  17.763  13.920
53347W        W25772  12.734   1.259  12.935
53348W        W25773   7.359   0.765  12.475
53349W        W25774  21.750  24.071  10.493
53350W        W25775   6.234  33.092   1.268
53351W        W25776  28.462  25.049  11.446
53352W        W25777  15.221  36.090   4.202
53353W        W25778  19.054  13.672   2.189
53354W        W25779   8.667  15.736  14.887
53355W        W25780  13.197  38.390   1.346
53356W        W25781  16.183   2.933  13.994
53357W        W25782   2.389  22.703  12.869
53358W        W25783  38.903  20.590   2.797
53359W        W25784  43.970  16.728   4.185
53360W        W25785  24.518  35.493   0.287
53361W        W25786  30.487   8.664  14.913
53362W        W25787  41.306  12.689   4.724
53363W        W25788  43.883  23.045  14.493
53364W        W25789   4.425  10.237  12.050
53365W        W25790  20.174  34.018   2.233
53366W        W25791  32.081   5.779   3.743
53367W        W25792   0.317   3.858   4.726
53368W        W25793  39.002  39.398   4.779
53369W        W25794  31.130  15.155  10.906
53370W        W25795  42.504  42.991   1.327
53371W        W25796  41.445  11.268   2.807
53372W        W25797  10.708  35.540   2.199
53373W        W25798   3.395  16.797   2.268
53374W        W25799  24.145   9.748  14.966
53375W        W25800  38.483  24.538   2.387
53376W        W25801  16.606  21.721  14.465
53377W        W25802   0.932   6.695  11.553
53378W        W25803  42.353  28.112  13.376
53379W        W25804   1.273  31.560  11.075
53380W        W25805  16.183  14.223  13.862
53381W        W25806  28.056  31.976  12.031
53382W        W25807  19.575   9.720   0.857
53383W        W25808  24.725  35.981   1.341
53384W        W25809  26.009  27.667   0.895
53385W        W25810   3.238  20.586  10.642
53386W        W25811  40.436  27.599  13.343
53387W        W25812  35.542   9.166  11.108
53388W        W25813  16.658  35.377  11.394
53389W        W25814  34.963  28.135  10.091
53390W        W25815  25.067  18.707  14.834
53391W        W25816  26.627  24.702   3.352
53392W        W25817  42.007  34.875   0.749
53393W        W25818  21.238  34.969   0.890
53394W        W25819  17.643  19.602   2.721
53395W        W25820  20.706   8.392   2.317
53396W        W25821  30.028  27.181   2.213
53397W        W25822  36.391  22.716   9.952
53398W        W25823  40.327   4.277   3.339
53399W        W25824  10.875  34.393  10.520
53400W        W25825  13.323   6.281   5.265
53401W        W25826  34.946  21.253  12.973
53402W        W25827  11.652  19.729   4.699
53403W        W25828  19.261  20.181   3.851
53404W        W25829   2.407  26.997  11.924
53405W        W25830  41.418  18.159  14.813
53406W        W25831  23.177  27.178  12.454
53407W        W25832   1.965  24.984   0.786
53408W        W25833  36.530  25.500   3.285
53409W        W25834  38.328  35.511   3.753
53410W        W25835  16.631  23.523   2.263
53411W        W25836   5.931  35.953  14.798
53412W        W25837  26.501  37.343  12.342
53413W        W25838   1.330   5.221   1.331
53414W        W25839  38.956  15.325  10.544
53415W        W25840  10.860  36.940   3.829
53416W        W25841  10.866  13.662   4.668
53417W        W25842  16.212  33.915   4.626
53418W        W25843  40.435  40.404  10.925
53419W        W25844   2.738  11.808  12.968
53420W        W25845  35.992   1.739   1.400
53421W        W25846  40.476   2.755  10.890
53422W        W25847  38.367  29.100  13.906
53423W        W25848  23.202   8.698  12.001
53424W        W25849  18.151  24.655   3.281
53425W        W25850  21.144  28.586  11.406
53426W        W25851  28.616  22.160   0.790
53427W        W25852   6.824  36.448  13.455
53428W        W25853  38.047   3.351   0.896
53429W        W25854  21.710  28.446   4.832
53430W        W25855  28.490  44.984  11.574
53431W        W25856   9.369  20.702  12.898
53432W        W25857   3.774  35.984   4.160
53433W        W25858  18.733  12.652  10.898
53434W        W25859  21.524   3.758   0.898
53435W        W25860  38.862  35.085   1.885
53436W        W25861  14.187  40.967  13.473
53437W        W25862  14.209  38.472   2.262
53438W        W25863  13.761  10.214  10.437
53439W        W25864  21.708   3.914   2.815
53440W        W25865  28.605  31.937   4.205
53441W        W25866  15.138  17.681  12.974
53442W        W25867  39.488   7.802   1.793
53443W        W25868  18.220   5.864  13.902
53444W        W25869  27.453  11.220  13.495
53445W        W25870  13.150  29.563  13.867
53446W        W25871  22.513  14.337  10.999
53447W        W25872  36.348   2.792   2.272
53448W        W25873  17.556  24.605   1.276
53449W        W25874  42.884   3.752   0.345
53450W        W25875  23.020   3.867   2.327
53451W        W25876  22.207  13.683   0.774
53452W        W25877  12.702  28.041  11.966
53453W        W25878  13.234  13.289  13.499
53454W        W25879   4.380  19.101   4.294
53455W        W25880  39.871  33.548  11.924
53456W        W25881   7.387  23.706  11.552
53457W        W25882  39.910  17.802   4.295
53458W        W25883  34.964  41.340  12.868
53459W        W25884   7.263  24.050  11.865
53460W        W25885  16.727   9.291   2.824
53461W        W25886   6.682  32.605  13.064
53462W        W25887  14.663  31.081   3.271
53463W        W25888  19.281  11.323   4.221
53464W        W25889  23.718  30.449  14.810
53465W        W25890  40.903  27.629   1.398
53466W        W25891   9.340  42.407   2.714
53467W        W25892  30.082  24.539   4.676
53468W        W25893  41.938  34.410   4.164
53469W        W25894  35.368  26.610  14.282
53470W        W25895  20.227  31.495   2.390
53471W        W25896  43.326  16.265  11.385
53472W        W25897   9.872   6.370  11.080
53473W        W25898  37.484  27.039   1.794
53474W        W25899  12.223  43.855   3.176
53475W        W25900  39.039  20.040  13.838
53476W        W25901  44.908  37.028  12.570
53477W        W25902  12.259  21.591  11.451
53478W        W25903  30.962   4.370   2.766
53479W        W25904  14.723  10.255   2.795
53480W        W25905  17.220  18.167  12.858
53481W        W25906  23.706  27.003   4.821
53482W        W25907  24.172  37.835  11.981
53483W        W25908  10.684  43.883  14.783
53484W        W25909  22.643  18.670  12.931
53485W        W25910  10.336   1.758   0.413
53486W        W25911  31.933   6.786  13.032
53487W        W25912  23.084  41.881  11.464
53488W        W25913   4.362  20.650  10.541
53489W        W25914  23.120  24.486   3.868
53490W        W25915  14.236  29.985   4.137
53491W        W25916  40.918  31.567   4.129
53492W        W25917  40.818  41.814   3.294
53493W        W25918  17.149  25.633  13.056
53494W        W25919   7.814  34.558  11.977
53495W        W25920  22.072  20.666   0.773
53496W        W25921  22.556  23.067   1.857
53497W        W25922  32.489   5.737  12.000
53498W        W25923   6.401  36.859   1.385
53499W        W25924  37.971  28.094  12.553
53500W        W25925  30.951  37.076   1.326
53501W        W25926   6.798  29.090   3.272
53502W        W25927  11.695  35.057  13.045
53503W        W25928  30.527  21.125  10.498
53504W        W25929  13.644  16.144   1.383
53505W        W25930   6.762  25.049   2.249
53506W        W25931   1.877  25.542  12.415
53507W        W25932  41.406  27.092   3.786
53508W        W25933   1.255   0.961   3.375
53509W        W25934  34.600  38.033   2.260
53510W        W25935  35.394  39.833   0.479
53511W        W25936  13.198   3.895  13.498
53512W        W25937  28.527  13.130  11.122
53513W        W25938  29.443  14.769  13.964
53514W        W25939  37.963  17.692   1.719
53515W        W25940   7.270  27.639   0.816
53516W        W25941  22.011  25.105   4.698
53517W        W25942  34.095  40.503  12.411
53518W        W25943   4.752  21.190  13.871
53519W        W25944   1.819   5.233  14.011
53520W        W25945  43.299  43.819   0.869
53521W        W25946   9.342  42.395  13.910
53522W        W25947  10.759   4.293   0.904
53523W        W25948  34.882  30.954  12.067
53524W        W25949  20.681  30.590   1.435
53525W        W25950   6.881  32.503  10.928
53526W        W25951  34.542  32.027   2.295
53527W        W25952  39.031  18.222   2.849
53528W        W25953   5.771  26.515   2.240
53529W        W25954  25.594  27.136   1.916
53530W        W25955  10.162   6.263  12.555
53531W        W25956  34.055  14.763  13.000
53532W        W25957  16.616   7.855   0.463
53533W        W25958  21.206  15.636   5.251
53534W        W25959  14.302  33.542   4.207
53535W        W25960  34.092  42.523  11.876
53536W        W25961  16.767  39.320   3.715
53537W        W25962  43.767   2.231  11.887
53538W        W25963   4.940   8.679  11.418
53539W        W25964  23.118  10.290   4.296
53540W        W25965  33.558   9.802   1.354
53541W        W25966   7.800  40.021  13.834
53542W        W25967  38.877  38.529   3.331
53543W        W25968  22.062  30.013  10.907
53544W        W25969  36.007  26.670   4.345
53545W        W25970  28.453   1.807  14.789
53546W        W25971  34.565  10.197   1.281
53547W        W25972  13.140   0.877  14.952
53548W        W25973  23.621  27.955  11.590
53549W        W25974   8.317  41.381  13.413
53550W        W25975  42.011  32.968   4.207
53551W        W25976  11.136   6.352  10.118
53552W        W25977  29.989  22.690   3.373
53553W        W25978   7.671  18.712  13.453
53554W        W25979  27.649  18.169  11.951
53555W        W25980  24.551  40.038   0.753
53556W        W25981  27.476  30.112  11.911
53557W        W25982  31.134  35.464   1.257
53558W        W25983  13.313   3.238  10.565
53559W        W25984  27.125  39.925  11.963
53560W        W25985  42.017  20.691  12.064
53561W        W25986  24.715  22.147  12.853
53562W        W25987   3.450  30.081  13.922
53563W        W25988   5.293  24.644  12.535
53564W        W25989  15.211  17.108  11.020
53565W        W25990  44.399   3.737  11.585
53566W        W25991  44.858  34.997  11.581
53567W        W25992  21.080  14.247   2.730
53568W        W25993   9.705  19.254  13.331
53569W        W25994  33.515   9.756   0.364
53570W        W25995  42.414   4.730   4.263
53571W        W25996  12.617  24.498  14.393
53572W        W25997   3.246  42.445  11.056
53573W        W25998  33.489  33.914  12.561
53574W        W25999  10.642  24.505   0.334
53575W        W26000  36.917  23.038  13.397
53576W        W26001   7.666  26.124  14.770
53577W        W26002   9.152  22.056  13.008
53578W        W26003   7.783   2.462  14.816
53579W        W26004  31.424  19.178  11.512
53580W        W26005  10.811  38.380  13.509
53581W        W26006  17.584  26.475  13.927
53582W        W26007  21.207   3.845  14.343
53583W        W26008  17.802  15.663   3.689
53584W        W26009  32.933  21.708   2.247
53585W        W26010  36.860   7.735  12.846
53586W        W26011   3.815   8.812   9.978
53587W        W26012  36.964   3.283   0.415
53588W        W26013  31.137  22.122  12.900
53589W        W26014  42.798   1.758   1.218
53590W        W26015   9.315   2.912   2.816
53591W        W26016   7.331  29.437   0.891
53592W        W26017  23.180  25.702   3.863
53593W        W26018   1.788  26.681  12.421
53594W        W26019   4.884   7.176   3.708
53595W        W26020   8.370  16.258  12.471
53596W        W26021  25.713  38.383   0.850
53597W        W26022  34.913  26.516  11.949
53598W        W26023  26.019   3.403   2.702
53599W        W26024   4.320  19.729  12.386
53600W        W26025  22.229  24.177   4.332
53601W        W26026  35.091  32.546   0.444
53602W        W26027  16.612   9.177   4.664
53603W        W26028  10.803  44.870  14.945
53604W        W26029  12.236   4.864  13.451
53605W        W26030  22.122   3.932   3.867
53606W        W26031  31.061  24.630   1.284
53607W        W26032  12.281  11.754  11.976
53608W        W26033  32.901  16.778  12.041
53609W        W26034  27.566  35.430   3.786
53610W        W26035  10.831  10.762   2.333
53611W        W26036  23.700  27.015   1.247
53612W        W26037  32.578  24.644   3.712
53613W        W26038  17.651  11.793  14.471
53614W        W26039  28.937  35.529   2.414
53615W        W26040  22.506  14.698   1.274
53616W        W26041   2.278   5.379   2.783
53617W        W26042  39.863   2.279   4.146
53618W        W26043  43.503  25.505   4.184
53619W        W26044  17.787  30.930   3.761
53620W        W26045   7.411  17.740  11.013
53621W        W26046  39.385  10.698  11.415
53622W        W26047  28.596   7.235   4.163
53623W        W26048  17.583  35.569  11.025
53624W        W26049   3.411  41.353  13.944
53625W        W26050  23.690  32.416  14.500
53626W        W26051  15.173  10.215   0.898
53627W        W26052  14.339  11.817  14.985
53628W        W26053   9.198   9.859   1.270
53629W        W26054  20.767  21.220   4.742
53630W        W26055  23.036   3.389  11.926
53631W        W26056   7.384  15.815   4.210
53632W        W26057  19.694  21.198   3.798
53633W        W26058  17.791  24.144   1.744
53634W        W26059  37.915  39.975  10.937
53635W        W26060   4.740   2.721   0.327
53636W        W26061   0.925  33.956  13.980
53637W        W26062  25.513  18.116  11.060
53638W        W26063  40.943  14.686   3.869
53639W        W26064  32.566  42.942  12.867
53640W        W26065  20.202  10.698  12.006
53641W        W26066   1.239  35.533  12.848
53642W        W26067  31.620  42.856  11.948
53643W        W26068  13.635  10.199   3.862
53644W        W26069   7.774  17.667  11.063
53645W        W26070  12.356  33.401  11.866
53646W        W26071  32.025  22.148   3.850
53647W        W26072   4.384   7.271  13.818
53648W        W26073  27.536  25.971  13.828
53649W        W26074  38.072  15.287   4.165
53650W        W26075  10.242  44.428  12.471
53651W        W26076  22.743  22.506  12.374
53652W        W26077   7.322  12.618   0.470
53653W        W26078  38.488   2.336  11.549
53654W        W26079  23.721  29.148  11.006
53655W        W26080  29.659  38.452  12.902
53656W        W26081  13.727  11.665  11.596
53657W        W26082  37.539  33.390  12.911
53658W        W26083  41.411  21.175   1.370
53659W        W26084   9.387  20.150   0.312
53660W        W26085   4.786  37.026  11.395
53661W        W26086  35.461  10.310   3.777
53662W        W26087  18.607  38.881  14.915
53663W        W26088  31.550  17.305  13.835
53664W        W26089   2.740   8.201   3.815
53665W        W26090  21.072  10.818   2.269
53666W        W26091  30.455  29.474  10.461
53667W        W26092  18.296  18.101  11.462
53668W        W26093   7.888  37.394   1.440
53669W        W26094  12.334   6.706   4.692
53670W        W26095  14.822  36.903  13.918
53671W        W26096  18.592  16.704  12.453
53672W        W26097   7.901   6.690   2.270
53673W        W26098  37.392   7.211  10.489
53674W        W26099   0.786  17.658  13.426
53675W        W26100  20.232   3.354   4.286
53676W        W26101  40.543  28.492   1.372
53677W        W26102  10.239  23.681   1.793
53678W        W26103   2.344  22.172  14.782
53679W        W26104  28.554  41.303  11.931
53680W        W26105  20.526  35.074   1.375
53681W        W26106  30.456  43.805  14.796
53682W        W26107  28.015  34.036  14.865
53683W        W26108  40.966  39.044   0.244
53684W        W26109  15.240  21.070   0.255
53685W        W26110  24.167  40.331  14.911
53686W        W26111  41.020  11.634   0.737
53687W        W26112  15.690  11.823   5.275
53688W        W26113  37.496  42.284  10.929
53689W        W26114  33.501   5.391  14.383
53690W        W26115   5.352   3.234   2.330
53691W        W26116  34.592  10.865   1.347
53692W        W26117   1.441  13.188   4.185
53693W        W26118   3.283  22.179   1.210
53694W        W26119  30.493  12.348  12.398
53695W        W26120  19.723   1.320  10.457
53696W        W26121  43.986   5.420  14.304
53697W        W26122  41.826  44.756  14.412
53698W        W26123  31.935  36.419  14.903
53699W        W26124  20.578  21.657   3.163
53700W        W26125  38.336  18.267   2.841
53701W        W26126  30.528  11.259  14.957
53702W        W26127   3.865  20.072  12.948
53703W        W26128  43.313  44.975   4.298
53704W        W26129   4.322  22.705  14.012
53705W        W26130   8.777  28.441  10.439
53706W        W26131  42.327  25.631  11.386
53707W        W26132  11.132  41.917  11.961
53708W        W26133  28.468  14.747  14.982
53709W        W26134  39.966  35.584  12.459
53710W        W26135  37.546  12.853  13.423
53711W        W26136  22.734  14.734  14.376
53712W        W26137  24.095  23.986   4.128
53713W        W26138  10.310  41.872  10.541
53714W        W26139   2.346   1.268  11.374
53715W        W26140  35.050   7.806  14.029
53716W        W26141  11.830  16.789   1.303
53717W        W26142  28.140  29.526  11.403
53718W        W26143  22.571  22.138   3.691
53719W        W26144  42.289  35.092  11.391
53720W        W26145  22.663  20.566   1.705
53721W        W26146   7.281  38.940   3.214
53722W        W26147  26.989  13.631   1.395
53723W        W26148  37.000   3.732   4.690
53724W        W26149  15.118  23.555   3.766
53725W        W26150  18.709  41.420  13.963
53726W        W26151  13.755   0.914  10.896
53727W        W26152   7.217  24.195  14.799
53728W        W26153   8.238  23.608  13.330
53729W        W26154   8.377   2.801  14.865
53730W        W26155  18.740  27.998  10.605
53731W        W26156  29.649   7.183   0.319
53732W        W26157  36.485  23.666   1.724
53733W        W26158  12.770  43.787  14.764
53734W        W26159  35.380  16.301   0.250
53735W        W26160  33.455  28.536   3.227
53736W        W26161  27.020  40.046  12.398
53737W        W26162  30.986  24.050   2.378
53738W        W26163  20.114  41.440  14.472
53739W        W26164   6.278   5.705  14.486
53740W        W26165  26.536  39.502   2.277
53741W        W26166  20.055  22.200  11.920
53742W        W26167   7.769  26.080  10.631
53743W        W26168   2.936   0.355   0.781
53744W        W26169   6.263   0.468  13.968
53745W        W26170  36.939   6.814  14.779
53746W        W26171   9.286  40.403   1.712
53747W        W26172  16.606  35.387   0.336
53748W        W26173  27.616  24.657  12.838
53749W        W26174  17.167  41.925   0.374
53750W        W26175  25.590  16.080   3.226
53751W        W26176  10.214   5.758   9.950
53752W        W26177  23.077   8.179  11.011
53753W        W26178   6.795  31.412   0.966
53754W        W26179  28.663   6.847   2.358
53755W        W26180  15.817   1.970  11.500
53756W        W26181  21.226  10.713  14.397
53757W        W26182   9.856  17.184   3.717
53758W        W26183  44.359  44.279   3.161
53759W        W26184   4.386  25.545  12.827
53760W        W26185  29.541   1.363   2.780
53761W        W26186  24.199  38.938  13.933
53762W        W26187  41.292  19.090   2.329
53763W        W26188  22.555  16.609   0.828
53764W        W26189  12.235  27.590  13.421
53765W        W26190  17.084  20.233   0.397
53766W        W26191  11.361  31.922   2.212
53767W        W26192   9.208  18.078  14.359
53768W        W26193   4.245   8.398  14.305
53769W        W26194  14.756  21.148  13.848
53770W        W26195  21.213  35.886   2.344
53771W        W26196   4.712   6.835  14.834
53772W        W26197  34.877  16.748  12.418
53773W        W26198  27.109  12.838   4.647
53774W        W26199  37.049  17.564  10.499
53775W        W26200  38.055  34.997  14.011
53776W        W26201  40.309  13.711  14.467
53777W        W26202  13.252  20.637  14.408
53778W        W26203  25.087  13.842   4.216
53779W        W26204  14.238  40.499   1.821
53780W        W26205   7.772  27.531   2.767
53781W        W26206  22.175  15.624  14.020
53782W        W26207  27.589  35.573  13.311
53783W        W26208  32.552  26.010   2.809
53784W        W26209  16.143   2.254   2.347
53785W        W26210   9.794   4.865   1.881
53786W        W26211  40.465  22.651   5.239
53787W        W26212  30.987  17.792   3.855
53788W        W26213  16.317   9.801  14.453
53789W        W26214  13.301  37.054  11.521
53790W        W26215  21.095  25.111  14.822
53791W        W26216  42.438  23.638   4.314
53792W        W26217  33.874  26.645   4.214
53793W        W26218   1.812  25.048  11.554
53794W        W26219  23.173  17.637  14.002
53795W        W26220  44.452   9.193  11.528
53796W        W26221   5.234  40.029  14.302
53797W        W26222  27.009  33.458  11.469
53798W        W26223  30.963  40.529   5.121
53799W        W26224  14.121  33.092   0.338
53800W        W26225  12.639  18.582   2.305
53801W        W26226  33.924  16.709   0.746
53802W        W26227  42.309   9.699  14.910
53803W        W26228  29.050   6.738  13.508
53804W        W26229   6.317   6.230  11.949
53805W        W26230  31.523   8.828  13.471
53806W        W26231  44.821   8.688  13.823
53807W        W26232  40.926  25.121  12.560
53808W        W26233  36.432  39.417   4.640
53809W        W26234   0.474  33.890   2.831
53810W        W26235   6.342  25.219  12.379
53811W        W26236  31.063  35.532   0.819
53812W        W26237  22.670  41.943   4.827
53813W        W26238  22.081   6.346  10.486
53814W        W26239  36.533  14.684  13.327
53815W        W26240  38.886   4.434   2.835
53816W        W26241  27.974  16.670   0.921
53817W        W26242  28.673  23.568   2.339
53818W        W26243  12.785  23.727   4.663
53819W        W26244   4.282  26.062   1.907
53820W        W26245   2.910  23.636   2.842
53821W        W26246  19.168  40.032   0.840
53822W        W26247  20.547  12.820   0.432
53823W        W26248  37.087   1.440   1.920
53824W        W26249  40.016   9.195   2.383
53825W        W26250  12.243  34.458   1.347
53826W        W26251   8.721  14.201  13.837
53827W        W26252  33.414  24.106  11.862
53828W        W26253  43.866   9.857  11.458
53829W        W26254  32.632  43.302   1.428
53830W        W26255   3.392  27.957  14.509
53831W        W26256   4.232  36.884   3.757
53832W        W26257  41.822  17.687  11.500
53833W        W26258  31.494  22.644   1.929
53834W        W26259  40.938  26.599   1.818
53835W        W26260  12.169  18.648  13.971
53836W        W26261  39.441  44.789   4.320
53837W        W26262  14.308  19.690   3.228
53838W        W26263  12.288   3.840   0.965
53839W        W26264  41.009  10.724   3.801
53840W        W26265   4.302  13.674  11.540
53841W        W26266   6.911   0.421  12.543
53842W        W26267  24.718  30.575  14.310
53843W        W26268  35.393  11.280   2.348
53844W        W26269  36.443  27.651  14.785
53845W        W26270  16.226  37.847   3.280
53846W        W26271  42.440  27.143   4.177
53847W        W26272  15.618  18.216  13.490
53848W        W26273  39.458  33.543  12.834
53849W        W26274   7.276  37.413   2.662
53850W        W26275  27.974  44.007   5.165
53851W        W26276  32.434  30.431  12.436
53852W        W26277   8.245  24.490   4.817
53853W        W26278  24.183  36.061   0.789
53854W        W26279   8.887  37.900   0.343
53855W        W26280  27.060   0.346  11.054
53856W        W26281  15.757  26.475  12.411
53857W        W26282  32.616  37.844   1.778
53858W        W26283   2.962  19.152  10.924
53859W        W26284  20.220  44.973   3.754
53860W        W26285  22.098  18.146   4.231
53861W        W26286  42.944  10.706  11.386
53862W        W26287  11.814  44.335   2.889
53863W        W26288  14.166  16.776  14.828
53864W        W26289  39.385  37.978   3.756
53865W        W26290  24.565  10.724   3.362
53866W        W26291  33.452   2.303  13.792
53867W        W26292  31.485  44.455  14.376
53868W        W26293  10.779  17.210  12.545
53869W        W26294   5.751   3.424  13.832
53870W        W26295  27.952   8.402  11.550
53871W        W26296  29.558  22.564   2.704
53872W        W26297  30.569  36.859  11.499
53873W        W26298  37.573  15.759   4.284
53874W        W26299  24.120  11.631  11.595
53875W        W26300  18.769  36.011   5.293
53876W        W26301  11.140  19.623  11.050
53877W        W26302  44.930  15.805   2.248
53878W        W26303   2.862  22.092  13.446
53879W        W26304   6.280  41.951   5.092
53880W        W26305  28.552  11.188  14.804
53881W        W26306   5.851  23.085   3.271
53882W        W26307  19.268  41.021  11.414
53883W        W26308  28.158   0.775   4.652
53884W        W26309  41.488  33.012   0.835
53885W        W26310  30.968  29.605   5.196
53886W        W26311  44.297   7.809  11.081
53887W        W26312   3.881  31.459  14.477
53888W        W26313   4.433  29.569   1.720
53889W        W26314   7.814  40.825   2.684
53890W        W26315  18.158  12.340   1.216
53891W        W26316  32.433  14.693  14.918
53892W        W26317  22.744  20.242   3.783
53893W        W26318  33.510  16.679   2.818
53894W        W26319  21.736  44.378   2.333
53895W        W26320   2.949  21.243  10.968
53896W        W26321  22.504  18.659   1.400
53897W        W26322   7.794  20.269   2.797
53898W        W26323  33.004  13.654  11.944
53899W        W26324  15.129  42.970   5.100
53900W        W26325  36.563   1.388   0.358
53901W        W26326  12.748   4.898  11.117
53902W        W26327   7.912   9.683  11.949
53903W        W26328  28.065  25.078   2.683
53904W        W26329  37.064  21.103   1.405
53905W        W26330   7.191  36.525  12.557
53906W        W26331  18.636  29.136   4.279
53907W        W26332   3.845  19.562  10.012
53908W        W26333  29.570  29.020   0.479
53909W        W26334  44.483  34.479   1.918
53910W        W26335  39.428  42.433  13.437
53911W        W26336  42.515  27.137   2.677
53912W        W26337  40.877  32.512  14.003
53913W        W26338   8.213   6.267   3.645
53914W        W26339  15.278   0.376   3.314
53915W        W26340  18.599  19.597   3.829
53916W        W26341   7.230  28.503  11.020
53917W        W26342  41.517  11.156  14.289
53918W        W26343  35.486  23.675   5.654
53919W        W26344  12.304  33.005  13.339
53920W        W26345  22.138  22.646  13.892
53921W        W26346  33.917  36.517   3.279
53922W        W26347  26.194  30.977   4.178
53923W        W26348  41.030  30.417  13.936
53924W        W26349  38.978  36.887   3.170
53925W        W26350  24.599  40.482  11.903
53926W        W26351  20.209  27.653   1.785
53927W        W26352  14.728  42.358   2.388
53928W        W26353  17.155  22.170  13.322
53929W        W26354  22.207   9.828  14.508
53930W        W26355   8.223   8.668  10.137
53931W        W26356   3.760   0.257  12.356
53932W        W26357  31.550  35.426   2.804
53933W        W26358  11.171   3.336   1.729
53934W        W26359  11.728  20.652   0.329
53935W        W26360  18.190  40.448   4.828
53936W        W26361  37.848   1.799  11.090
53937W        W26362  41.503  24.588  12.346
53938W        W26363  32.914  12.770  11.909
53939W        W26364   7.339  30.437  14.029
53940W        W26365  39.815  12.150  14.851
53941W        W26366   2.769  21.217   0.946
53942W        W26367  18.566   8.859  11.416
53943W        W26368  23.516  35.445  11.518
53944W        W26369  33.504  30.596   1.788
53945W        W26370  18.070  38.568   3.642
53946W        W26371  36.910   0.356  12.847
53947W        W26372  23.019  16.635   3.377
53948W        W26373  41.372  27.662  11.087
53949W        W26374  18.106  34.983  14.366
53950W        W26375  20.562   1.241   3.254
53951W        W26376  23.580  31.000   0.319
53952W        W26377  37.443  41.503  13.929
53953W        W26378  36.353  38.007  14.300
53954W        W26379   1.339  35.495  14.457
53955W        W26380  27.963  13.282  12.007
53956W        W26381  17.075  36.860   3.783
53957W        W26382  33.102  25.711   1.744
53958W        W26383  25.171  10.279  12.834
53959W        W26384  28.493   2.938   0.270
53960W        W26385  14.213   7.318  12.928
53961W        W26386  14.235  30.454  14.804
53962W        W26387   4.356  31.630   2.809
53963W        W26388   6.694  10.138  12.045
53964W        W26389  29.918  20.755  13.919
53965W        W26390  14.785  19.553  14.779
53966W        W26391  26.569  28.947  13.449
53967W        W26392   0.354  26.985  10.537
53968W        W26393   9.168  40.002   0.379
53969W        W26394   5.718  31.973  11.596
53970W        W26395  18.697  18.274  10.945
53971W        W26396   4.330  44.989  12.877
53972W        W26397  26.012  41.817   0.327
53973W        W26398  44.290  39.912  13.924
53974W        W26399  13.711  11.736  12.509
53975W        W26400  29.014  36.964  10.415
53976W        W26401  18.091  19.127  11.573
53977W        W26402  36.871  28.971   3.301
53978W        W26403   2.396  40.017   2.880
53979W        W26404  39.948  44.463   5.285
53980W        W26405  25.507  20.615   4.137
53981W        W26406   9.676  33.108  11.888
53982W        W26407  13.790  38.822   4.773
53983W        W26408  33.104   7.292  12.083
53984W        W26409  26.538  22.509   0.966
53985W        W26410  34.995  27.528  10.594
53986W        W26411   5.922  35.868  10.019
53987W        W26412  29.544  37.981   3.302
53988W        W26413  25.148  23.073  11.061
53989W        W26414  28.054   8.707   1.413
53990W        W26415  27.127  31.627  14.867
53991W        W26416   4.338  34.421  13.058
53992W        W26417  19.763  13.248  12.900
53993W        W26418  10.303  37.442   1.250
53994W        W26419  11.686   5.363  10.941
53995W        W26420   5.746  12.362   2.360
53996W        W26421  28.963  26.608   4.324
53997W        W26422  29.171   9.862  14.858
53998W        W26423   8.279  15.168  11.971
53999W        W26424  29.126  35.545  11.591
54000W        W26425   1.348   5.823  14.912
54001W        W26426  28.575  17.235  11.397
54002W        W26427   4.853  39.493   4.199
54003W        W26428  38.335  18.227   0.305
54004W        W26429  28.446   8.291  11.565
54005W        W26430  19.715  13.239   5.249
54006W        W26431  19.227  22.701  12.907
54007W        W26432   5.332  10.245  12.021
54008W        W26433   9.200   7.778  10.087
54009W        W26434   6.823  14.610  11.114
54010W        W26435   9.811  34.581   1.289
54011W        W26436  31.428  29.587  13.441
54012W        W26437  42.485  34.380  14.367
54013W        W26438  40.517   8.774   2.756
54014W        W26439  33.037  34.459   0.953
54015W        W26440  22.571  36.346   2.232
54016W        W26441  35.950   0.298   2.752
54017W        W26442  22.653  24.060  11.553
54018W        W26443  35.517  12.829   2.294
54019W        W26444   4.824  12.315   0.808
54020W        W26445   5.283   9.759   1.893
54021W        W26446  38.990  23.514  10.571
54022W        W26447  22.015  30.574   0.311
54023W        W26448  38.389  42.400   2.741
54024W        W26449  30.588  28.044  13.358
54025W        W26450  36.081  14.199   0.902
54026W        W26451  39.883  35.561   1.270
54027W        W26452  11.235  26.516   0.280
54028W        W26453  42.798  19.657  11.567
54029W        W26454   9.185   0.921  14.293
54030W        W26455  16.317  13.658  12.479
54031W        W26456  14.664   3.724  13.474
54032W        W26457  40.418  22.075  12.942
54033W        W26458  28.050  23.172   0.958
54034W        W26459   8.344  43.766  10.899
54035W        W26460  18.673  41.868  12.557
54036W        W26461  35.908  18.191  10.495
54037W        W26462  36.090  44.825  10.454
54038W        W26463   5.715  17.712   1.743
54039W        W26464  44.458   3.919   1.858
54040W        W26465  38.348  36.931  11.982
54041W        W26466  31.071  17.671   1.433
54042W        W26467  44.335  41.294   9.941
54043W        W26468  43.484   8.388  14.486
54044W        W26469  12.729  24.079   4.706
54045W        W26470  36.401  16.190   3.724
54046W        W26471  16.723   5.406  12.463
54047W        W26472  10.689  22.125  13.864
54048W        W26473   9.693  10.170   1.349
54049W        W26474  13.787   2.738   3.265
54050W        W26475   3.319  27.461  11.900
54051W        W26476   2.232  19.676  12.885
54052W        W26477  39.523   6.206  12.392
54053W        W26478  27.610   6.220   2.370
54054W        W26479  17.199  11.290  13.924
54055W        W26480  28.110  30.068   3.384
54056W        W26481  27.493  20.569   2.386
54057W        W26482  31.579   9.364   3.292
54058W        W26483  26.148  29.577  11.883
54059W        W26484   0.968  42.932   0.278
54060W        W26485   0.341  21.032  13.868
54061W        W26486  23.238  20.158   1.891
54062W        W26487   8.255  26.508   0.802
54063W        W26488  24.638  26.517  10.908
54064W        W26489  26.665  12.709  14.359
54065W        W26490  20.627  21.515  13.430
54066W        W26491  43.307  32.037  14.328
54067W        W26492  22.107  32.916   4.290
54068W        W26493  39.397  42.369  14.455
54069W        W26494   4.219  14.691  12.975
54070W        W26495  43.979  42.353   4.312
54071W        W26496  38.500  12.201   1.846
54072W        W26497  11.632   0.310   3.716
54073W        W26498  12.211  42.884   2.757
54074W        W26499   7.891  26.189  11.091
54075W        W26500  42.788   3.364  12.533
54076W        W26501  23.528  29.976   0.794
54077W        W26502  39.368  27.181  12.880
54078W        W26503  38.837  23.556   1.220
54079W        W26504  11.656  35.003   0.858
54080W        W26505   1.827  19.660   1.740
54081W        W26506  39.828   4.737   3.644
54082W        W26507  12.161  36.985  14.881
54083W        W26508  34.957  35.560  12.473
54084W        W26509   1.450   9.256  11.565
54085W        W26510  12.209   9.716   2.196
54086W        W26511  37.473  40.027   2.250
54087W        W26512  17.074  41.871   3.733
54088W        W26513  42.330  31.538   1.928
54089W        W26514   7.754  16.665   4.318
54090W        W26515  21.729  20.723   2.258
54091W        W26516  14.737  35.518  14.482
54092W        W26517   9.187  24.696  11.502
54093W        W26518  41.312  25.195  10.982
54094W        W26519  39.830  33.977  10.966
54095W        W26520  28.556  16.186  12.012
54096W        W26521   5.790  10.311  13.447
54097W        W26522  39.058  35.603  13.971
54098W        W26523  18.646  11.263   0.262
54099W        W26524  36.402  10.829  12.542
54100W        W26525  21.119  38.843  12.571
54101W        W26526  28.599  32.119  13.855
54102W        W26527  14.244  18.184  13.534
54103W        W26528   8.727  27.476   1.278
54104W        W26529  36.417   2.472  13.431
54105W        W26530  24.498  17.135   0.391
54106W        W26531  26.154   1.752   1.703
54107W        W26532   6.263  22.533   2.302
54108W        W26533   4.718  24.200  12.079
54109W        W26534  39.526  42.932   3.720
54110W        W26535   5.222   8.189   0.252
54111W        W26536  17.734   3.454  10.970
54112W        W26537  24.989   3.441   2.840
54113W        W26538  17.066  12.718   4.826
54114W        W26539   9.353  27.527   4.163
54115W        W26540  42.947  18.604   0.317
54116W        W26541  17.733  18.280  11.420
54117W        W26542   2.253  14.302  11.443
54118W        W26543  31.645  19.755  14.502
54119W        W26544   6.708  18.189  12.542
54120W        W26545  35.852  15.115   0.878
54121W        W26546  31.493  41.801   0.378
54122W        W26547  31.474  29.133   1.770
54123W        W26548  13.142  11.370  12.092
54124W        W26549  38.324   4.430   4.278
54125W        W26550  10.745  36.026  10.920
54126W        W26551  42.812  28.073  12.543
54127W        W26552  13.351  27.047   3.720
54128W        W26553  32.443  20.120   0.955
54129W        W26554  38.489  26.637   0.407
54130W        W26555   8.730   9.837   4.290
54131W        W26556  42.852  25.650  14.879
54132W        W26557  32.919  18.646  13.990
54133W        W26558  37.552  43.921   4.749
54134W        W26559  23.208  36.494   3.302
54135W        W26560  27.507  40.394   0.846
54136W        W26561  25.604  13.706  13.454
54137W        W26562  19.154  32.439   0.792
54138W        W26563  16.264  16.297   4.275
54139W        W26564  24.539  37.394   4.286
54140W        W26565  14.731  13.734  10.908
54141W        W26566  25.073  17.771  10.891
54142W        W26567  15.645  44.267   2.228
54143W        W26568  34.514  43.424   4.740
54144W        W26569  22.098   4.226  11.878
54145W        W26570  31.488  31.010   4.177
54146W        W26571  36.362  21.574   2.892
54147W        W26572  40.001  40.477   0.887
54148W        W26573  15.587  29.162  10.024
54149W        W26574   7.733  41.479  10.429
54150W        W26575  25.009  41.964   4.334
54151W        W26576   9.314  39.852  11.539
54152W        W26577  10.288  35.950  12.889
54153W        W26578  15.599   3.901   0.364
54154W        W26579  41.340  12.628   3.178
54155W        W26580  11.210  18.556  12.505
54156W        W26581  22.579  40.369  10.156
54157W        W26582  24.095  26.987   0.471
54158W        W26583  34.095   7.414   3.366
54159W        W26584  35.966  14.198   2.857
54160W        W26585  14.132  24.661   4.122
54161W        W26586   9.370  18.057   3.226
54162W        W26587   5.806   5.739  13.929
54163W        W26588   1.310  19.560   3.151
54164W        W26589  11.148   1.955   1.278
54165W        W26590   1.946  20.235   0.297
54166W        W26591  41.842  44.371  12.931
54167W        W26592  16.315  30.603  14.909
54168W        W26593   1.849  38.039   0.755
54169W        W26594  16.760  19.268   1.775
54170W        W26595  31.429  44.973   0.289
54171W        W26596  16.673  16.297  11.551
54172W        W26597   2.408   5.922  13.961
54173W        W26598  44.324   3.339   3.334
54174W        W26599   6.344  12.287   1.269
54175W        W26600  37.430   8.859  11.510
54176W        W26601  41.312  36.525   1.892
54177W        W26602   0.810  12.805  10.134
54178W        W26603  18.152  27.167  10.961
54179W        W26604  25.011  33.086  13.476
54180W        W26605  31.632   9.704   0.290
54181W        W26606  17.139  10.832   0.351
54182W        W26607   6.290   1.916  12.345
54183W        W26608  35.942  15.650  14.888
54184W        W26609  42.468  23.715   1.263
54185W        W26610  26.983   6.913   4.222
54186W        W26611  44.900  22.247  13.812
54187W        W26612  11.308  14.168  12.462
54188W        W26613  39.515   8.703  14.282
54189W        W26614  20.608  20.524   0.469
54190W        W26615  32.525  23.069   2.346
54191W        W26616  34.608  37.348   2.860
54192W        W26617  22.233  37.880   1.862
54193W        W26618  10.713  41.354   4.142
54194W        W26619  39.554   5.701   3.856
54195W        W26620  28.021  14.173  14.337
54196W        W26621   1.395  30.616  11.967
54197W        W26622  18.681  18.248  13.816
54198W        W26623  37.979  11.292  13.927
54199W        W26624   7.323  38.981  11.871
54200W        W26625  23.519   0.834   1.756
54201W        W26626  33.894  30.445   1.733
54202W        W26627  31.606  18.567   0.375
54203W        W26628  17.761   6.815  12.010
54204W        W26629  38.000  25.032   5.572
54205W        W26630  24.977  41.910   1.732
54206W        W26631  14.776  11.621   4.337
54207W        W26632  17.200  10.328  11.972
54208W        W26633  18.644   4.879  14.408
54209W        W26634  29.426  40.825   3.171
54210W        W26635  34.523  24.148  14.295
54211W        W26636  29.990  40.833  13.318
54212W        W26637  20.610   9.778  11.379
54213W        W26638  10.656  30.163  11.111
54214W        W26639  15.169  12.852  13.040
54215W        W26640   8.735  11.654  13.002
54216W        W26641  35.079  44.764  14.770
54217W        W26642  13.659  28.950  11.391
54218W        W26643  25.624  16.582  11.388
54219W        W26644  23.052  35.878  10.436
54220W        W26645  14.640   9.385   2.289
54221W        W26646   4.342  33.551   1.214
54222W        W26647   1.288  34.054   4.340
54223W        W26648  12.326  18.179   1.900
54224W        W26649  33.483   1.325   0.266
54225W        W26650  14.301  13.187   4.262
54226W        W26651  16.188  10.239  12.089
54227W        W26652  13.170   0.333   1.382
54228W        W26653  33.095  21.732   4.800
54229W        W26654  42.857  33.109   1.828
54230W        W26655   1.887  44.287   4.733
54231W        W26656  21.538  44.827  13.360
54232W        W26657  20.263   0.482   1.286
54233W        W26658  23.688  11.679   3.739
54234W        W26659  36.561  29.037  14.487
54235W        W26660  42.441  20.240   1.881
54236W        W26661  19.774  11.854  10.463
54237W        W26662  33.388  40.328   0.332
54238W        W26663  29.049  32.097  14.436
54239W        W26664  31.035  23.679  10.919
54240W        W26665  43.292  22.517  14.930
54241W        W26666  33.037  34.474  14.816
54242W        W26667  18.293  34.396   2.687
54243W        W26668  19.566  13.165   0.474
54244W        W26669  36.391   5.266   0.951
54245W        W26670  33.477  43.288  12.857
54246W        W26671   8.800  19.617   2.682
54247W        W26672  17.130  37.460   0.444
54248W        W26673  33.384  34.524  12.499
54249W        W26674   7.186  40.458  12.447
54250W        W26675  25.526  16.722  14.015
54251W        W26676   4.401  25.688  13.971
54252W        W26677  16.680  28.061   4.670
54253W        W26678  15.116  11.308   1.935
54254W        W26679  42.831  19.687   0.836
54255W        W26680   6.901  36.443   1.932
54256W        W26681  37.938   9.293  13.837
54257W        W26682  23.622  13.841  11.014
54258W        W26683  32.020  37.909  10.444
54259W        W26684   7.864  19.612   3.265
54260W        W26685  32.556  33.944  13.805
54261W        W26686   8.820  39.894   4.765
54262W        W26687  26.637  34.011  14.419
54263W        W26688  39.908  18.729  14.898
54264W        W26689   9.779   7.768   4.215
54265W        W26690  26.512  42.878   4.630
54266W        W26691  14.653  24.660  14.952
54267W        W26692   8.833  35.915   1.374
54268W        W26693  14.757  22.590   2.345
54269W        W26694  37.510   2.731   0.468
54270W        W26695  33.936  25.208   1.886
54271W        W26696   8.209  32.597   3.214
54272W        W26697   6.328  30.600  10.619
54273W        W26698   2.375  14.635  14.904
54274W        W26699   2.396  31.031   1.328
54275W        W26700  11.760  17.110  13.476
54276W        W26701  13.335  41.021  13.957
54277W        W26702  26.531  19.138   1.827
54278W        W26703  19.600   6.766  13.876
54279W        W26704  19.681  30.571   5.655
54280W        W26705  24.530   8.877  13.051
54281W        W26706  15.789  28.071   4.654
54282W        W26707  28.670  43.492   4.613
54283W        W26708  30.983  35.054   3.702
54284W        W26709  22.519  35.000  11.911
54285W        W26710  16.239   1.735   3.688
54286W        W26711  29.664  31.059   2.764
54287W        W26712  27.452  11.276  13.806
54288W        W26713  41.451  12.119  11.514
54289W        W26714   7.373  31.978  14.292
54290W        W26715   0.313   9.187  12.905
54291W        W26716   9.781  38.551   2.826
54292W        W26717  31.594  44.965   2.284
54293W        W26718   6.825  24.492  14.494
54294W        W26719  34.369  11.788  13.521
54295W        W26720  35.878  36.404   3.282
54296W        W26721  37.038  42.398   3.280
54297W        W26722  11.153  13.350  13.871
54298W        W26723  16.201  33.955  12.502
54299W        W26724  17.171  32.887  10.579
54300W        W26725  18.662  43.283   0.938
54301W        W26726  30.473  13.117   3.239
54302W        W26727  39.877  31.608  10.944
54303W        W26728   9.691  15.703  14.890
54304W        W26729  30.163  18.663   0.293
54305W        W26730   3.227  23.126   0.928
54306W        W26731  44.268  35.861  12.560
54307W        W26732  29.089  38.828   0.389
54308W        W26733   9.303  18.176   2.384
54309W        W26734  28.603   6.320   2.717
54310W        W26735  19.727  39.367   0.479
54311W        W26736  24.165   1.834   3.766
54312W        W26737  18.061  23.718   3.269
54313W        W26738  10.367   0.344   4.737
54314W        W26739  32.466  35.019  12.380
54315W        W26740   8.219  44.900  11.586
54316W        W26741  19.572  18.582  11.028
54317W        W26742  11.816  38.343  14.373
54318W        W26743  22.040  39.946  12.509
54319W        W26744  16.756   7.792  12.380
54320W        W26745   1.384   4.303   4.216
54321W        W26746  23.062  16.739   0.276
54322W        W26747  37.993  29.165  14.810
54323W        W26748  15.124  36.531   3.342
54324W        W26749  17.746   2.317  11.448
54325W        W26750  11.632  34.594  10.527
54326W        W26751   2.425  17.709  10.635
54327W        W26752  29.979  19.720   4.178
54328W        W26753  21.653   0.817   3.780
54329W        W26754  40.524  43.898   3.298
54330W        W26755  39.457  28.070   3.325
54331W        W26756  34.929  35.088  12.438
54332W        W26757  27.047  22.676   2.818
54333W        W26758   0.489  15.706   3.157
54334W        W26759  23.644  33.054  13.809
54335W        W26760  37.515  13.168  11.097
54336W        W26761  38.828  26.683  11.481
54337W        W26762  44.835  36.491   4.687
54338W        W26763  26.138  21.180  14.818
54339W        W26764  21.102  14.823  11.070
54340W        W26765  22.683  44.994   0.733
54341W        W26766  25.543  29.012   1.248
54342W        W26767  33.899  36.988   4.170
54343W        W26768   1.460  14.601  14.394
54344W        W26769  16.129  26.682   0.432
54345W        W26770  25.027  13.605  13.899
54346W        W26771  43.813  10.682  11.106
54347W        W26772  39.830   9.214   1.219
54348W        W26773  24.486  35.444  13.902
54349W        W26774   3.745  21.151  14.954
54350W        W26775  33.936  38.002  14.849
54351W        W26776  34.506  23.023   0.366
54352W        W26777  11.371  28.945   3.674
54353W        W26778  13.186  15.595   5.148
54354W        W26779   6.294  23.552   2.816
54355W        W26780  12.687  16.784   1.794
54356W        W26781  20.148  28.127  10.991
54357W        W26782  13.661  16.306   1.902
54358W        W26783  39.512  12.753   4.670
54359W        W26784  18.704  32.412  11.542
54360W        W26785  21.643  31.928   1.406
54361W        W26786  26.554  35.584  13.381
54362W        W26787  24.562   4.214   4.247
54363W        W26788  43.930  40.862   0.262
54364W        W26789  20.741  41.949  14.964
54365W        W26790   7.675  14.659  14.358
54366W        W26791   5.821  32.067  11.874
54367W        W26792  10.783  38.539  10.428
54368W        W26793  18.135  23.207  12.864
54369W        W26794  17.752  10.844  14.939
54370W        W26795  24.190  23.734  12.908
54371W        W26796  13.190  36.035  12.419
54372W        W26797  28.115  26.556   4.794
54373W        W26798  34.582  32.427   0.761
54374W        W26799  29.969  44.895  12.966
54375W        W26800  18.229  18.286  13.011
54376W        W26801  21.061  25.199   2.693
54377W        W26802  43.822  18.074  11.565
54378W        W26803  12.822  16.246   4.274
54379W        W26804   3.760  12.703   0.266
54380W        W26805  25.636   9.825   1.262
54381W        W26806  42.803  42.910   1.393
54382W        W26807   2.361  26.543  13.528
54383W        W26808  28.447   7.308  14.853
54384W        W26809  12.267  33.905   1.900
54385W        W26810  20.187  25.178  12.081
54386W        W26811   2.797  38.367   0.265
54387W        W26812  36.926  33.592   0.379
54388W        W26813  41.901  40.422  11.445
54389W        W26814  23.066   6.368  10.155
54390W        W26815  44.808  24.706   1.756
54391W        W26816  28.142  41.929  10.080
54392W        W26817   1.776   2.949  10.472
54393W        W26818   7.330   9.327  14.858
54394W        W26819  10.720   7.895  13.458
54395W        W26820   3.949  22.677   2.350
54396W        W26821  40.870  28.098   2.263
54397W        W26822  23.601  20.715  12.379
54398W        W26823  43.399  26.093   0.476
54399W        W26824  33.615  18.142  13.063
54400W        W26825  13.174   2.461   2.185
54401W        W26826  10.372  21.096  10.119
54402W        W26827  34.557  10.246   0.247
54403W        W26828  34.599   9.851   1.339
54404W        W26829  28.120   8.227  14.032
54405W        W26830  21.530  13.279  14.975
54406W        W26831  37.920   2.913  12.579
54407W        W26832  10.659  23.196  14.802
54408W        W26833  30.078  35.572   0.356
54409W        W26834  21.261   4.868  14.778
54410W        W26835  36.867  15.723  14.474
54411W        W26836  24.540   2.439   0.731
54412W        W26837   6.215   7.802   2.304
54413W        W26838  32.963  44.391   1.232
54414W        W26839  21.069  12.291  13.319
54415W        W26840  39.332  30.089  14.023
54416W        W26841  16.140  23.059   0.316
54417W        W26842   0.370  18.177  10.497
54418W        W26843  21.225  20.537  14.288
54419W        W26844   3.340  32.140  11.523
54420W        W26845   6.837  11.136   2.694
54421W        W26846  34.430  38.510   3.298
54422W        W26847  27.580  24.529   3.178
54423W        W26848  24.154  29.973   0.820
54424W        W26849   1.421  23.029  13.546
54425W        W26850  19.779  29.442  14.764
54426W        W26851   0.744  32.892   3.850
54427W        W26852  10.711  11.205  10.971
54428W        W26853  35.878  34.409   4.737
54429W        W26854  41.398  13.639  12.070
54430W        W26855  13.618  31.005  12.400
54431W        W26856   2.405   3.345   4.255
54432W        W26857  18.102  43.780  13.060
54433W        W26858  37.360  44.380   5.170
54434W        W26859  11.705   6.883  12.831
54435W        W26860  19.279   2.439   4.169
54436W        W26861   4.940   0.488  10.637
54437W        W26862  41.308  15.638   0.940
54438W        W26863  43.486  29.651   4.673
54439W        W26864   8.308  25.967   3.218
54440W        W26865  18.269  35.076  14.867
54441W        W26866  11.324  42.464  14.899
54442W        W26867  29.000  40.505  12.891
54443W        W26868   2.375  26.529   4.666
54444W        W26869  15.780  14.207   3.309
54445W        W26870   6.876  38.431   3.722
54446W        W26871  37.886  25.663  12.476
54447W        W26872  32.590  24.533   4.618
54448W        W26873  20.148   6.707  10.410
54449W        W26874   8.244  30.085  13.307
54450W        W26875  14.831   4.840   1.759
54451W        W26876   2.725  17.291  13.414
54452W        W26877  39.867  42.822  13.355
54453W        W26878   4.723  20.104   0.479
54454W        W26879  41.948  27.159   1.423
54455W        W26880   0.311   2.272  10.454
54456W        W26881  10.252  23.622   3.385
54457W        W26882   2.783  32.594   4.276
54458W        W26883   3.843  44.948   3.300
54459W        W26884   7.247   7.685   2.256
54460W        W26885   9.716  40.819  12.535
54461W        W26886  42.412   6.193   0.785
54462W        W26887  26.980   6.858   2.676
54463W        W26888   5.880  33.048  11.003
54464W        W26889   2.759  43.888  14.826
54465W        W26890  38.948  10.290  14.869
54466W        W26891  22.090  43.503   1.316
54467W        W26892  22.179  21.161  11.882
54468W        W26893   4.780   1.845  14.301
54469W        W26894  16.641  42.777  14.483
54470W        W26895   9.704  15.696  10.137
54471W        W26896  44.781  16.231  12.913
54472W        W26897  28.993  19.213  12.935
54473W        W26898  22.533   1.884  10.929
54474W        W26899  41.015  43.430  11.557
54475W        W26900  39.501   2.274  11.562
54476W        W26901  29.459  31.897   1.866
54477W        W26902  44.384  22.615   3.795
54478W        W26903  44.318  25.566  10.978
54479W        W26904  40.841   7.272  11.005
54480W        W26905  42.861  13.728   3.725
54481W        W26906  34.535   9.733   0.770
54482W        W26907  38.552  31.427   4.270
54483W        W26908  18.624   6.319   2.234
54484W        W26909  40.849  34.462   1.729
54485W        W26910  10.738   7.742  11.073
54486W        W26911  28.551  11.327   4.791
54487W        W26912  25.575   7.670  12.057
54488W        W26913  34.426  39.038   0.362
54489W        W26914  14.680  18.257   4.671
54490W        W26915  13.625   1.908  11.861
54491W        W26916  35.551  23.996  10.406
54492W        W26917  42.779   3.739   2.417
54493W        W26918  15.140   7.836  13.818
54494W        W26919   8.703  37.484  14.987
54495W        W26920  10.660  11.670   1.931
54496W        W26921   7.383   1.306   2.873
54497W        W26922  33.040  16.708   0.473
54498W        W26923  42.285  20.537   4.176
54499W        W26924  32.528  20.248  14.492
54500W        W26925   1.401  24.513   2.410
54501W        W26926   2.270  42.411  10.406
54502W        W26927  28.059   7.328   1.397
54503W        W26928  13.311   9.782  11.510
54504W        W26929  35.445   0.784  12.072
54505W        W26930  38.507  32.610   2.834
54506W        W26931  24.673  19.675   1.363
54507W        W26932  43.962  40.505   4.624
54508W        W26933   2.464  14.132   2.727
54509W        W26934  39.520   3.421  12.075
54510W        W26935  37.552  44.898  10.599
54511W        W26936  23.543  20.624   4.835
54512W        W26937  21.650  40.838   3.836
54513W        W26938  35.861  26.968  14.356
54514W        W26939   0.930   1.736   3.669
54515W        W26940  44.985  20.249   3.320
54516W        W26941  10.149   1.439  14.873
54517W        W26942  34.935  14.277  14.349
54518W        W26943  32.608  25.169  13.446
54519W        W26944  44.309   6.718  11.908
54520W        W26945  44.483  30.076   1.859
54521W        W26946  11.674  38.495  10.920
54522W        W26947  39.509  35.497   3.242
54523W        W26948  42.868  23.697  13.355
54524W        W26949  31.420  14.659  12.037
54525W        W26950   0.909   7.855  11.105
54526W        W26951  38.361   0.866   4.793
54527W        W26952  28.527   2.832  13.041
54528W        W26953  37.978  23.011   0.300
54529W        W26954  12.794  25.175  14.789
54530W        W26955   1.906   6.405  13.958
54531W        W26956   8.716  23.538   0.789
54532W        W26957  16.678   2.294   0.943
54533W        W26958  38.486  34.522   1.320
54534W        W26959  36.551  18.670  14.801
54535W        W26960  13.330  17.203   2.317
54536W        W26961   6.871  12.649  13.843
54537W        W26962  19.146   1.837   4.689
54538W        W26963  17.174  25.568  11.430
54539W        W26964  36.074  11.671  13.030
54540W        W26965   8.691  29.041   3.729
54541W        W26966  34.574  29.596  11.961
54542W        W26967  19.747  10.729   4.652
54543W        W26968  37.859  22.171   4.175
54544W        W26969  28.654  40.898  13.960
54545W        W26970   3.944  12.697   0.899
54546W        W26971   1.289  42.912   3.211
54547W        W26972  24.217  22.640  12.544
54548W        W26973  24.546  23.496  12.031
54549W        W26974  31.595  42.295   2.184
54550W        W26975  31.149  24.096  13.025
54551W        W26976  12.355  40.960   1.821
54552W        W26977  29.147  23.132  12.464
54553W        W26978  26.538   7.396   2.399
54554W        W26979   6.680  41.938   2.373
54555W        W26980  26.559  19.744   0.963
54556W        W26981  10.642   0.827  14.396
54557W        W26982  31.968  16.645   4.163
54558W        W26983  23.128  36.973   3.848
54559W        W26984  22.218  41.409   1.767
54560W        W26985  33.475   1.927   0.795
54561W        W26986  40.869  37.458  13.931
54562W        W26987  17.076  34.482   2.390
54563W        W26988  39.833  36.909   1.446
54564W        W26989  14.118  28.038  14.344
54565W        W26990  32.887  44.312   3.363
54566W        W26991  35.038  25.095  10.522
54567W        W26992  21.551   6.895  11.486
54568W        W26993  37.460  11.190  14.776
54569W        W26994   4.783  37.084   2.772
54570W        W26995  37.496  14.646  14.363
54571W        W26996   4.340  24.557   4.830
54572W        W26997  33.622  35.973  10.008
54573W        W26998  26.144  19.601   4.271
54574W        W26999  13.254  16.673  10.620
54575W        W27000  39.963  11.653   4.598
54576W        W27001  11.865  29.091  13.897
54577W        W27002  16.653  38.005  12.013
54578W        W27003  11.795  15.099   1.834
54579W        W27004  15.281  27.667  10.631
54580W        W27005  27.467  34.034   0.948
54581W        W27006  39.993   3.864   2.832
54582W        W27007  18.709  20.160   4.351
54583W        W27008   5.798  33.623  12.350
54584W        W27009   8.694  44.949  13.877
54585W        W27010   1.762   4.208  11.971
54586W        W27011  18.204  18.225  12.061
54587W        W27012  22.675   7.338   0.248
54588W        W27013  44.388  41.310   3.669
54589W        W27014  10.766  32.997   4.796
54590W        W27015  36.870  39.964  14.390
54591W        W27016  27.016  41.926   2.863
54592W        W27017  33.945  24.986   0.835
54593W        W27018  40.500  30.428   1.766
54594W        W27019  11.373   0.371  13.848
54595W        W27020   4.299  10.308  10.528
54596W        W27021  23.216  43.912  11.477
54597W        W27022   0.330  31.416   3.845
54598W        W27023   8.235  26.960  11.040
54599W        W27024   6.399  30.439   5.133
54600W        W27025  28.588  11.810  11.970
54601W        W27026  37.837   0.935  13.930
54602W        W27027  23.699  31.607  11.104
54603W        W27028  14.817  20.555  10.550
54604W        W27029  23.718  21.693  12.365
54605W        W27030   1.908   9.826   4.121
54606W        W27031  14.727  23.642   2.854
54607W        W27032  34.491  31.117   3.779
54608W        W27033  38.472  27.629  10.484
54609W        W27034  13.292  27.526  13.450
54610W        W27035  12.306  29.993  14.871
54611W        W27036   1.295   1.371  14.026
54612W        W27037   5.929  42.008  10.638
54613W        W27038   5.277  26.198   4.310
54614W        W27039   7.724  25.505  11.887
54615W        W27040   4.753  31.484  10.994
54616W        W27041   0.397  29.943  13.923
54617W        W27042   0.798  21.108   4.181
54618W        W27043   6.784   6.741   4.263
54619W        W27044  43.478   6.688  14.375
54620W        W27045   9.763  22.683   2.191
54621W        W27046  21.032  13.714   2.858
54622W        W27047  33.445  41.001  11.597
54623W        W27048  37.473  31.451  14.767
54624W        W27049   3.792   1.930   5.281
54625W        W27050   8.281  25.550  13.792
54626W        W27051  44.337  14.151   2.417
54627W        W27052  26.473  28.961  13.037
54628W        W27053  11.630  28.607   1.707
54629W        W27054   8.768   5.712   1.696
54630W        W27055  27.622  13.835   4.252
54631W        W27056  28.081  35.954  12.960
54632W        W27057  20.169  14.185  11.557
54633W        W27058  38.938  31.140   2.762
54634W        W27059  10.774  35.603   3.346
54635W        W27060  17.265  16.074   4.814
54636W        W27061  29.127  19.239   3.794
54637W        W27062  17.695   7.762  12.026
54638W        W27063   9.712  25.994  14.980
54639W        W27064  36.854   1.477   4.660
54640W        W27065  37.981  37.555  14.305
54641W        W27066  41.877  13.209  11.070
54642W        W27067   8.213   4.890   2.878
54643W        W27068   4.820  19.091  11.036
54644W        W27069  20.167  25.518   2.305
54645W        W27070  27.189  29.166  12.430
54646W        W27071  30.532   5.295  12.041
54647W        W27072  24.092   6.770   2.807
54648W        W27073  31.149   6.380  10.022
54649W        W27074  25.976  37.420  11.922
54650W        W27075   4.427   2.456   4.765
54651W        W27076  35.919   9.175   4.764
54652W        W27077   3.433  34.455   4.650
54653W        W27078   0.382  40.382   1.333
54654W        W27079  28.986  35.069  14.307
54655W        W27080  31.951  22.548  10.477
54656W        W27081  22.666   6.751   4.680
54657W        W27082  31.019  14.181   1.735
54658W        W27083  15.778  14.275  12.468
54659W        W27084   4.938   2.325   4.279
54660W        W27085  12.233  39.911   2.377
54661W        W27086   2.957  37.427   1.903
54662W        W27087  10.688  23.138   3.214
54663W        W27088  42.507   2.885  14.512
54664W        W27089   7.272  35.552   0.881
54665W        W27090   4.822  30.988   1.764
54666W        W27091  38.963  35.434   4.720
54667W        W27092   4.832  16.231   4.340
54668W        W27093  29.452   7.675  13.547
54669W        W27094  30.910  39.394  11.952
54670W        W27095  28.176  25.152   3.254
54671W        W27096  27.516  11.295  14.430
54672W        W27097  26.105  18.101   1.372
54673W        W27098  33.467   5.737   0.267
54674W        W27099  35.481   0.777   3.845
54675W        W27100  38.879  43.508  14.345
54676W        W27101  26.134  23.179  12.393
54677W        W27102  34.956   0.886   4.614
54678W        W27103  23.600  36.018  13.371
54679W        W27104  28.971   7.220  12.454
54680W        W27105   2.947  23.727   4.146
54681W        W27106   3.391   4.831   4.624
54682W        W27107  18.762   3.235  10.487
54683W        W27108  19.244  29.554   5.152
54684W        W27109  37.432  38.025   2.891
54685W        W27110  25.697  44.377  12.079
54686W        W27111  11.169  34.476   2.889
54687W        W27112  13.692  27.121  11.402
54688W        W27113   1.348   9.693   1.292
54689W        W27114  37.515  19.589  14.306
54690W        W27115  24.079   2.332   3.663
54691W        W27116  14.828  36.519   1.890
54692W        W27117  27.028  35.517   3.792
54693W        W27118  14.723  32.525   3.384
54694W        W27119  33.541   6.691   2.205
54695W        W27120   5.354   3.783   0.275
54696W        W27121  43.817  20.709   0.425
54697W        W27122  21.038  29.919  10.417
54698W        W27123  35.954  35.028  11.007
54699W        W27124  20.583  35.443   0.412
54700W        W27125   9.330  32.061   3.638
54701W        W27126   6.859   2.815   3.378
54702W        W27127  26.658  44.817   0.941
54703W        W27128  43.435  14.789  11.048
54704W        W27129  15.715  23.729   2.209
54705W        W27130  21.682   8.887   0.290
54706W        W27131  15.167  19.117   2.410
54707W        W27132  34.581   0.324   1.381
54708W        W27133  17.152  39.030  12.859
54709W        W27134   3.871  16.795   3.181
54710W        W27135  12.835  29.136   3.175
54711W        W27136  12.176  14.610  11.889
54712W        W27137  16.278  36.463  14.514
54713W        W27138   2.274  26.090  14.434
54714W        W27139   9.885   3.232  14.830
54715W        W27140  40.514  11.766  10.623
54716W        W27141  43.791  32.596   0.919
54717W        W27142  36.922  18.785  11.388
54718W        W27143  25.162  42.430   4.602
54719W        W27144  17.800  26.530   0.835
54720W        W27145  28.547  35.359   1.318
54721W        W27146  23.030  12.201   2.890
54722W        W27147  31.581  24.611  13.872
54723W        W27148  43.919  30.126  10.421
54724W        W27149   2.865  24.103   0.754
54725W        W27150   4.415  11.801  13.872
54726W        W27151  20.159  37.548   1.748
54727W        W27152  31.905  37.422   9.984
54728W        W27153  25.615   7.839  13.993
54729W        W27154  33.971   3.709  11.976
54730W        W27155  42.958  27.446   0.302
54731W        W27156  22.674   9.811  10.924
54732W        W27157   5.247  24.029   1.434
54733W        W27158  10.188  41.841  11.941
54734W        W27159  17.192  30.528  13.909
54735W        W27160  34.014   5.844   0.951
54736W        W27161  27.156  12.707   0.470
54737W        W27162  12.271   7.395   1.887
54738W        W27163   4.307  15.092  10.645
54739W        W27164   2.359  35.892  11.890
54740W        W27165  40.842  27.456  11.605
54741W        W27166  24.075  39.512   3.785
54742W        W27167  13.136  21.017   1.385
54743W        W27168  15.305  29.059  14.499
54744W        W27169  26.574  25.673  14.351
54745W        W27170  35.853  35.960  12.043
54746W        W27171   6.246  15.676  14.817
54747W        W27172   7.220   6.686  13.315
54748W        W27173  38.891  20.674   0.360
54749W        W27174  25.615  10.787  12.415
54750W        W27175  35.947  12.140  14.503
54751W        W27176  42.305   0.847   0.947
54752W        W27177  27.075  38.061  14.888
54753W        W27178   0.765  31.517   2.857
54754W        W27179  12.653   1.849  13.014
54755W        W27180   0.902  11.335  13.367
54756W        W27181   1.892  27.551  13.501
54757W        W27182  12.781  35.476  13.354
54758W        W27183   9.757  32.592  14.864
54759W        W27184  20.682   8.855  10.925
54760W        W27185  24.643   7.852  11.459
54761W        W27186  35.957   7.328  11.115
54762W        W27187  14.214  10.302  10.515
54763W        W27188  31.466   2.909  13.995
54764W        W27189   2.720   6.383   0.408
54765W        W27190  15.690  10.762  14.947
54766W        W27191  13.765  26.579  11.416
54767W        W27192  32.951   4.417   1.414
54768W        W27193  13.307  31.116  13.471
54769W        W27194  36.924  26.667  13.335
54770W        W27195  39.473  28.958   3.188
54771W        W27196  19.611  41.795  12.516
54772W        W27197  26.548  18.120   0.750
54773W        W27198   3.254   1.264   0.460
54774W        W27199  25.647   7.292  11.129
54775W        W27200  26.670  21.106   3.230
54776W        W27201  23.147   0.346  11.125
54777W        W27202  35.923  15.276  12.521
54778W        W27203   1.276  23.194   4.767
54779W        W27204  43.865  23.010  10.959
54780W        W27205  27.582  29.943  11.401
54781W        W27206  20.708  29.136   2.255
54782W        W27207  14.281  21.174  11.392
54783W        W27208  43.923  26.468   2.328
54784W        W27209  39.889  36.579   0.386
54785W        W27210   4.709  35.409   1.268
54786W        W27211  44.271  28.600  14.947
54787W        W27212  42.852   4.349   0.332
54788W        W27213  38.440  11.282  11.996
54789W        W27214  23.169  41.434  12.352
54790W        W27215   4.820   9.757  14.395
54791W        W27216   2.370  40.506   5.175
54792W        W27217  10.148   6.769   4.628
54793W        W27218   1.757  38.341   0.938
54794W        W27219  18.591  40.389  10.601
54795W        W27220  28.495   9.685   4.215
54796W        W27221   1.854  35.929   3.682
54797W        W27222  31.496   9.679  12.848
54798W        W27223  38.536  31.111  12.428
54799W        W27224  13.813   5.711  12.002
54800W        W27225  31.037  44.836   4.169
54801W        W27226  32.976   8.775  13.845
54802W        W27227  28.947  14.244   0.898
54803W        W27228  24.521   7.698   4.636
54804W        W27229   4.734   5.930  12.937
54805W        W27230  34.452   0.871  12.856
54806W        W27231  39.881  36.061  14.886
54807W        W27232  19.152  33.894   3.215
54808W        W27233   5.889  24.132  14.487
54809W        W27234  15.723  12.659   0.325
54810W        W27235  36.550  41.429   0.382
54811W        W27236  10.690  44.881   4.633
54812W        W27237   5.855   7.769   2.822
54813W        W27238  39.468  24.670   3.152
54814W        W27239  40.516  41.363  14.816
54815W        W27240  17.571  21.052  10.068
54816W        W27241  23.552  25.162  13.462
54817W        W27242   9.253  41.420  10.493
54818W        W27243  12.781  32.115  10.098
54819W        W27244   4.288  33.612  14.857
54820W        W27245  15.712  11.694   2.376
54821W        W27246   7.665  13.819  12.453
54822W        W27247   0.742  17.115  11.386
54823W        W27248  43.497   2.859  14.762
54824W        W27249  36.381   7.414   3.772
54825W        W27250  30.041  42.300  12.347
54826W        W27251  21.735  44.986  14.776
54827W        W27252   0.477  45.000  14.778
54828W        W27253  27.649  20.220   3.340
54829W        W27254   2.750   3.381   2.728
54830W        W27255   3.789   3.895  11.403
54831W        W27256  14.173  22.729   0.745
54832W        W27257  31.587  35.480   3.385
54833W        W27258  35.586  19.266   1.814
54834W        W27259  37.023  24.583  14.906
54835W        W27260  39.884  33.081   1.353
54836W        W27261  26.126  14.746   2.357
54837W        W27262  36.415  42.949   1.331
54838W        W27263  38.072   8.894   3.693
54839W        W27264  17.775   5.209  10.610
54840W        W27265  28.974  10.857  12.389
54841W        W27266  44.454   5.372   4.693
54842W        W27267  10.341  21.685  14.435
54843W        W27268  22.582  21.234  12.871
54844W        W27269  15.583  20.236  12.558
54845W        W27270  12.816  26.605  12.073
54846W        W27271  38.383  15.773   3.634
54847W        W27272  12.150  11.148  14.860
54848W        W27273   4.385  14.812  11.953
54849W        W27274  37.068  14.776  13.974
54850W        W27275  15.171  21.110   5.264
54851W        W27276   1.307   5.225  11.595
54852W        W27277   5.763  16.704   2.419
54853W        W27278   5.426  28.115  11.570
54854W        W27279  15.158  14.606  11.926
54855W        W27280  16.211  25.620   2.356
54856W        W27281  35.905  12.754   4.746
54857W        W27282  23.071  17.216   1.920
54858W        W27283  38.003  27.607   4.236
54859W        W27284  26.621  27.602   4.258
54860W        W27285  17.269  32.944  12.943
54861W        W27286  19.154  26.686   4.749
54862W        W27287   8.873  12.245  12.994
54863W        W27288  42.385  43.513   2.822
54864W        W27289  28.121  17.276  14.989
54865W        W27290  24.199  36.535  13.956
54866W        W27291  27.151  39.816  11.526
54867W        W27292  17.630  36.570  12.498
54868W        W27293  44.942  37.512  10.447
54869W        W27294  31.436  18.274   1.223
54870W        W27295  28.145  36.062   1.348
54871W        W27296  18.072  17.221   4.290
54872W        W27297  36.535  12.694  11.400
54873W        W27298  41.360  29.111   4.209
54874W        W27299   0.359  15.786  13.503
54875W        W27300  20.199   0.901  14.383
54876W        W27301  27.591  19.179  10.994
54877W        W27302  34.990  38.419  12.437
54878W        W27303  31.632  18.751   9.625
54879W        W27304  23.073  24.672   3.356
54880W        W27305  42.456   3.417  10.490
54881W        W27306   3.445  17.570  14.418
54882W        W27307  26.460   1.877   0.753
54883W        W27308  14.236  44.806  11.480
54884W        W27309  22.548  19.552  13.039
54885W        W27310   7.328  30.955   2.400
54886W        W27311   3.393  33.529   2.889
54887W        W27312  24.538  24.032   3.249
54888W        W27313  38.899   5.235  12.906
54889W        W27314  38.371  37.915  14.806
54890W        W27315  20.174   0.957   0.362
54891W        W27316   9.804  39.962   1.388
54892W        W27317   0.424  43.283   4.730
54893W        W27318  27.520  15.807   4.166
54894W        W27319  17.195  32.631   1.423
54895W        W27320  11.649  10.796   1.795
54896W        W27321   8.352  36.890  11.413
54897W        W27322  39.856   6.415  11.924
54898W        W27323  14.771  19.211   4.784
54899W        W27324  32.957  37.527   1.275
54900W        W27325  16.098  15.145   0.861
54901W        W27326  24.206  41.792   4.759
54902W        W27327  27.454  40.042  13.542
54903W        W27328  44.385  37.965  10.106
54904W        W27329  25.973  11.858   2.350
54905W        W27330  16.217  13.140   0.381
54906W        W27331  10.342   4.300  14.763
54907W        W27332  25.629  31.468  13.383
54908W        W27333  38.356  28.153  14.909
54909W        W27334  25.116  10.682  11.060
54910W        W27335   0.777   3.370   0.964
54911W        W27336  41.845   4.837  14.030
54912W        W27337   3.451  12.137  13.840
54913W        W27338  25.553  18.558   0.824
54914W        W27339  43.006  10.338  12.033
54915W        W27340  39.985   3.755   4.114
54916W        W27341   2.339  32.545  14.991
54917W        W27342  12.163  34.110   0.388
54918W        W27343  17.716   9.313   3.335
54919W        W27344  19.683  21.080  11.899
54920W        W27345   7.701  12.328  12.985
54921W        W27346  33.541  16.588   0.771
54922W        W27347  18.640   2.416   2.207
54923W        W27348  32.505   3.853  12.406
54924W        W27349   8.872  43.877  11.434
54925W        W27350  32.502  19.690   4.822
54926W        W27351  22.031  36.511   0.423
54927W        W27352   8.391  35.945  14.390
54928W        W27353  44.961  13.615   2.353
54929W        W27354   7.794  15.150   2.196
54930W        W27355  22.527  42.327  11.907
54931W        W27356  43.777   9.351  14.374
54932W        W27357  42.420   9.720   0.951
54933W        W27358  18.228  26.005  13.418
54934W        W27359  28.061  33.556  11.070
54935W        W27360  22.152  25.173  12.516
54936W        W27361   7.413  10.161   4.287
54937W        W27362   0.827  31.120   2.286
54938W        W27363   6.345   5.704   3.806
54939W        W27364  28.998  19.282  14.406
54940W        W27365  38.407  22.070   0.891
54941W        W27366   5.893  10.224   0.919
54942W        W27367  26.121  16.122  13.521
54943W        W27368  37.012  29.111   0.458
54944W        W27369  17.259  23.172   1.865
54945W        W27370  18.270  36.531   1.355
54946W        W27371   9.696  43.357  11.037
54947W        W27372  18.237  42.005  11.893
54948W        W27373  36.566  36.856   2.299
54949W        W27374  22.590   5.728  13.874
54950W        W27375  32.461  33.475  13.975
54951W        W27376  41.973  15.321  12.959
54952W        W27377   2.289  11.864  10.530
54953W        W27378  16.773  30.955  11.449
54954W        W27379  24.006  30.640  11.919
54955W        W27380  13.657  23.692   1.742
54956W        W27381  23.550  25.184  10.957
54957W        W27382  33.511   7.814   3.644
54958W        W27383  34.005  24.499   3.632
54959W        W27384  19.089  35.933   2.884
54960W        W27385  30.511  13.741  13.386
54961W        W27386  33.075  12.343   3.245
54962W        W27387  33.945   4.404   2.673
54963W        W27388  25.501  26.053  11.985
54964W        W27389  24.057  24.700   1.916
54965W        W27390   7.376  33.007   4.140
54966W        W27391  17.297  13.639  10.928
54967W        W27392  14.588  35.460  12.527
54968W        W27393  31.153  43.007  10.528
54969W        W27394  21.069   3.834  11.557
54970W        W27395  19.125  29.997   9.603
54971W        W27396   7.206  40.916   4.600
54972W        W27397  16.613  16.209   2.703
54973W        W27398  32.107  21.582   3.827
54974W        W27399  37.512  26.141  12.524
54975W        W27400  10.825   9.775  13.343
54976W        W27401  13.115  42.831  12.019
54977W        W27402  41.808  10.316  12.579
54978W        W27403  26.084   9.212  10.625
54979W        W27404   7.755   6.408   2.773
54980W        W27405  14.229  41.840  11.430
54981W        W27406   0.421  23.618   1.310
54982W        W27407  22.240  42.376  12.996
54983W        W27408  25.582  40.461   0.912
54984W        W27409   5.790  30.492   0.886
54985W        W27410  31.950  10.244  12.429
54986W        W27411  18.703   7.822   3.251
54987W        W27412  43.816  42.897  14.380
54988W        W27413  21.593  13.320  12.986
54989W        W27414  17.208  27.678  11.399
54990W        W27415  31.996  16.083  14.904
54991W        W27416   8.795   2.841   2.858
54992W        W27417  10.169  12.210  13.866
54993W        W27418  10.295  30.436  12.091
54994W        W27419   3.265  10.822  11.869
54995W        W27420  38.424  40.326   3.712
54996W        W27421  25.652  14.122  12.473
54997W        W27422   9.210  34.097  12.488
54998W        W27423   8.207   8.388  11.530
54999W        W27424  27.605   7.856   1.297
55000W        W27425  32.058  23.529  14.397
55001W        W27426   5.426  32.465  11.515
55002W        W27427  41.384  40.041  11.962
55003W        W27428  29.466  26.586   4.837
55004W        W27429  29.424   2.785  13.912
55005W        W27430   5.785  27.647  12.026
55006W        W27431  44.347  37.337   3.768
55007W        W27432  11.621  13.690  12.404
55008W        W27433  33.120  31.028  14.489
55009W        W27434  35.018  27.091  11.556
55010W        W27435   7.831  35.916  10.065
55011W        W27436   1.745  32.068  13.486
55012W        W27437  42.498  28.545  13.807
55013W        W27438  24.529  35.403  11.879
55014W        W27439  12.670   2.816  14.829
55015W        W27440   0.780  33.384   5.183
55016W        W27441   0.291  27.504  12.911
55017W        W27442  25.187  43.283  10.433
55018W        W27443  42.391  37.004  13.363
55019W        W27444  32.524  14.601   3.259
55020W        W27445  21.754  21.032   3.664
55021W        W27446  10.169  14.654  11.429
55022W        W27447  19.231  44.809  13.514
55023W        W27448  14.329  21.198   0.381
55024W        W27449  12.348  11.286  11.898
55025W        W27450  33.091  12.351   0.483
55026W        W27451  27.171  18.109  14.840
55027W        W27452  43.448  36.522   1.781
55028W        W27453  34.085  41.351  14.338
55029W        W27454  21.083  24.994  10.453
55030W        W27455   7.361   7.176   3.303
55031W        W27456   9.324  14.669   1.883
55032W        W27457   6.256   1.865  14.759
55033W        W27458   7.907  28.530  13.875
55034W        W27459   4.753  20.713   2.258
55035W        W27460   1.378   4.351   0.778
55036W        W27461   8.899  38.345   2.261
55037W        W27462   5.205  15.229   2.713
55038W        W27463  30.995  31.584   0.880
55039W        W27464  12.777  38.046  14.448
55040W        W27465  38.870   2.848  13.854
55041W        W27466  12.244  10.146   5.198
55042W        W27467   7.894  33.385  14.016
55043W        W27468  25.107  12.750  14.865
55044W        W27469  36.897  38.983  14.800
55045W        W27470   2.413  20.629   3.348
55046W        W27471  11.327   1.408   1.789
55047W        W27472  35.899  18.701   0.745
55048W        W27473   3.946  32.937   2.382
55049W        W27474  18.598  33.592   3.779
55050W        W27475  13.107  18.689   1.817
55051W        W27476  13.664  25.677   0.797
55052W        W27477   9.850  25.660   0.933
55053W        W27478  13.663  38.499  11.548
55054W        W27479   9.664  16.256   3.247
55055W        W27480   4.332  25.018  13.860
55056W        W27481  33.532   1.960   0.249
55057W        W27482  11.755  33.099   4.749
55058W        W27483  15.114  28.996  14.981
55059W        W27484  13.230  30.000   4.657
55060W        W27485  37.336  33.049   2.339
55061W        W27486   7.794  36.996   5.262
55062W        W27487  34.050  43.896  14.481
55063W        W27488  17.566  10.709   3.300
55064W        W27489   4.264  32.976  13.398
55065W        W27490   0.773  35.589   0.422
55066W        W27491  13.175   4.915   3.724
55067W        W27492  10.336  19.159   2.674
55068W        W27493  35.365   9.802  10.926
55069W        W27494  36.494  17.155  14.841
55070W        W27495  13.634   7.279   4.202
55071W        W27496  12.849  41.894   3.276
55072W        W27497  19.684  13.622   2.370
55073W        W27498  23.599  10.864   0.482
55074W        W27499  11.693  29.642  14.010
55075W        W27500  14.111  24.019  13.939
55076W        W27501  23.078  36.883  11.107
55077W        W27502  38.383  40.023   2.705
55078W        W27503  16.663  33.023  11.394
55079W        W27504  44.364  39.822   3.245
55080W        W27505  13.348  37.529  12.451
55081W        W27506  38.934  41.033   0.889
55082W        W27507   3.809   6.730   1.790
55083W        W27508   0.451  33.035   3.706
55084W        W27509  25.075   4.312   0.309
55085W        W27510  39.896  33.586   9.922
55086W        W27511  23.537  24.149   4.129
55087W        W27512  31.123  27.659  13.446
55088W        W27513  34.430  36.851   4.652
55089W        W27514  41.417  10.717   2.881
55090W        W27515  19.220   0.486  14.929
55091W        W27516  35.495  25.561   5.198
55092W        W27517  26.194  30.102  14.471
55093W        W27518   5.246  42.984  10.923
55094W        W27519  26.016  19.045  14.449
55095W        W27520  10.812  35.894  13.014
55096W        W27521  16.630  25.649   1.861
55097W        W27522  14.800   0.954  14.301
55098W        W27523  30.643  40.362   3.846
55099W        W27524  35.068  44.893  12.938
55100W        W27525  13.172   6.766   4.235
55101W        W27526  40.374  13.771   3.263
55102W        W27527  29.138  32.932  10.122
55103W        W27528  17.274  37.341   3.365
55104W        W27529   2.405  12.748  14.308
55105W        W27530  27.157  35.400   2.841
55106W        W27531   5.921  13.688   4.301
55107W        W27532  21.064  37.414   2.716
55108W        W27533  20.543  14.609   0.312
55109W        W27534  27.121  41.946  14.323
55110W        W27535   1.386  16.299  12.368
55111W        W27536   8.366   6.319   1.441
55112W        W27537  20.628  23.214  14.851
55113W        W27538  11.631  35.944  12.355
55114W        W27539  43.883  19.769   3.221
55115W        W27540   9.253  31.527  11.118
55116W        W27541  30.948   8.215  13.036
55117W        W27542   4.936   4.346   4.350
55118W        W27543  18.076  11.723   0.780
55119W        W27544  11.367  23.642  14.885
55120W        W27545  41.983  28.467  12.849
55121W        W27546  21.698   1.943   1.848
55122W        W27547  28.043  13.752  11.585
55123W        W27548  42.432  35.853  10.459
55124W        W27549  26.657  11.807   0.411
55125W        W27550   5.727  16.249  14.925
55126W        W27551  20.150  26.491   0.454
55127W        W27552  43.299  39.933  14.974
55128W        W27553  16.758  23.106  11.602
55129W        W27554  10.321  32.510  10.113
55130W        W27555  41.970  35.042  13.821
55131W        W27556   8.250  41.901  14.884
55132W        W27557   6.360  13.640  10.484
55133W        W27558  42.375  18.225  11.592
55134W        W27559   6.803   9.696  11.389
55135W        W27560  27.066  19.231  13.451
55136W        W27561  34.902  30.593   5.256
55137W        W27562   2.271   2.733   1.400
55138W        W27563  23.081  24.125   4.303
55139W        W27564  28.157  30.658   3.824
55140W        W27565  18.211  13.110   2.889
55141W        W27566  19.163   5.766   0.894
55142W        W27567  38.909  29.987   9.989
55143W        W27568   3.314  22.528  11.436
55144W        W27569  17.163  15.227   1.281
55145W        W27570  26.121  39.933  13.910
55146W        W27571   6.365  17.788   2.678
55147W        W27572  24.991  14.758   0.271
55148W        W27573  27.485  25.522  13.976
55149W        W27574  11.807  13.252   2.231
55150W        W27575  24.526  29.935  14.470
55151W        W27576  42.966  11.171  14.759
55152W        W27577  36.903  27.186  13.964
55153W        W27578  33.596  18.213   1.246
55154W        W27579  34.592  43.367   2.192
55155W        W27580  18.242  23.211  14.480
55156W        W27581   3.848  21.613  12.059
55157W        W27582  35.472   8.307  12.425
55158W        W27583  15.207  32.603  14.897
55159W        W27584  23.515  14.745  13.341
55160W        W27585  10.168  15.711   3.159
55161W        W27586  17.177  39.810  11.585
55162W        W27587  15.290  25.012  14.862
55163W        W27588  10.175  36.468   1.353
55164W        W27589  23.050   5.260   4.696
55165W        W27590  39.045  30.520  10.637
55166W        W27591  19.711   9.694  11.044
55167W        W27592   3.728  16.286  13.843
55168W        W27593   7.373   8.333   2.822
55169W        W27594  31.109  40.945   1.732
55170W        W27595   5.197  21.605  10.953
55171W        W27596   7.206  35.967  13.426
55172W        W27597  24.531   9.328   9.560
55173W        W27598   1.321  41.322  11.536
55174W        W27599  22.506  38.435   0.401
55175W        W27600  42.027  40.549  13.046
55176W        W27601   7.299  16.707  14.331
55177W        W27602  13.749   0.415  11.956
55178W        W27603  22.088  19.259  14.016
55179W        W27604  29.524  11.789   2.264
55180W        W27605  34.908  10.860   4.689
55181W        W27606  23.064  44.756  12.545
55182W        W27607  13.769  16.701   3.213
55183W        W27608  12.266  13.617  10.985
55184W        W27609   3.353  24.703   1.268
55185W        W27610  34.408  36.487  13.965
55186W        W27611  23.680  10.712   0.747
55187W        W27612   1.347   6.922  11.100
55188W        W27613  38.542   7.396   1.305
55189W        W27614   8.770  40.906   3.339
55190W        W27615   8.890   9.178  11.033
55191W        W27616  23.688  22.109   4.738
55192W        W27617  23.206  13.708   4.682
55193W        W27618  26.653   2.948   4.626
55194W        W27619  43.888   6.411   4.311
55195W        W27620  17.210  20.042  13.995
55196W        W27621  12.675   9.235   2.318
55197W        W27622  34.380  24.172  12.877
55198W        W27623  28.544  40.831  12.908
55199W        W27624  13.785  12.360   3.780
55200W        W27625   9.659  30.512  10.937
55201W        W27626  12.754  36.424   3.281
55202W        W27627  39.974  44.488   2.212
55203W        W27628  38.350  24.022  10.952
55204W        W27629  10.844  14.169   3.286
55205W        W27630  22.694  11.217   5.748
55206W        W27631  11.710  42.500   2.411
55207W        W27632  17.800   4.741  13.920
55208W        W27633  32.142  24.175   3.332
55209W        W27634  26.000  19.042   2.217
55210W        W27635  15.717   9.835  13.906
55211W        W27636   4.318  23.123  11.900
55212W        W27637  43.324  17.308  13.348
55213W        W27638  12.764  41.020  10.622
55214W        W27639  42.469  12.299  13.900
55215W        W27640   1.869   7.352  13.822
55216W        W27641  30.944  29.136  11.978
55217W        W27642  10.335  23.161  13.941
55218W        W27643  26.029  39.369   1.241
55219W        W27644  23.060  36.892  14.300
55220W        W27645  39.022  39.060   2.216
55221W        W27646  27.100   6.224  12.849
55222W        W27647  23.016  13.332   1.724
55223W        W27648   7.874  29.592  12.431
55224W        W27649   9.752  14.180   4.835
55225W        W27650  35.431   0.282   2.896
55226W        W27651   7.718  28.575  12.943
55227W        W27652  31.430  18.192  12.906
55228W        W27653  23.496  20.620  14.818
55229W        W27654  42.906   7.415  10.575
55230W        W27655   6.300  32.945  14.772
55231W        W27656  19.095   3.848   3.837
55232W        W27657  27.497   5.221   4.125
55233W        W27658  35.402  11.711  11.601
55234W        W27659  29.053  13.668  11.960
55235W        W27660  38.545  10.715  11.065
55236W        W27661  28.525   6.247  14.796
55237W        W27662  11.788   8.198  13.311
55238W        W27663  34.399   1.820   1.324
55239W        W27664  38.065  16.305  13.807
55240W        W27665   3.226   2.921   2.335
55241W        W27666   1.464   3.362  10.912
55242W        W27667  39.851  35.493   4.724
55243W        W27668  13.778  35.374  14.381
55244W        W27669  33.414  38.483   3.181
55245W        W27670   9.244   6.874  11.071
55246W        W27671  38.823  20.728  13.940
55247W        W27672  30.083  42.896  10.411
55248W        W27673   6.831   1.431   4.653
55249W        W27674  43.433   9.842   3.671
55250W        W27675  44.008   9.662   0.836
55251W        W27676  20.690  10.317  10.545
55252W        W27677   4.919   4.840   0.431
55253W        W27678  24.121  25.964  13.950
55254W        W27679   3.934  42.842   2.224
55255W        W27680  31.573  13.184   1.296
55256W        W27681  38.337  19.285  11.069
55257W        W27682  30.908   8.323   0.856
55258W        W27683   7.205   2.812   3.713
55259W        W27684   4.775   9.793  13.878
55260W        W27685  43.439  10.246  14.316
55261W        W27686   1.474  40.350  12.094
55262W        W27687  40.357   8.888  11.062
55263W        W27688  41.798  12.154  14.362
55264W        W27689  27.594  28.182  11.893
55265W        W27690  40.542  33.049   4.797
55266W        W27691  34.600   9.726   2.674
55267W        W27692  28.520  41.786   3.826
55268W        W27693  29.006  42.853  11.983
55269W        W27694  39.949   7.378   4.164
55270W        W27695  22.998  22.608  14.924
55271W        W27696  39.497  38.373  13.038
55272W        W27697  22.504  14.127   3.217
55273W        W27698   7.765  23.004   3.184
55274W        W27699  36.050  22.250  10.544
55275W        W27700   1.354   8.880   4.308
55276W        W27701  33.967  30.060  13.376
55277W        W27702  40.468  36.843   1.794
55278W        W27703  29.491  12.741  10.512
55279W        W27704   9.707   5.807  10.128
55280W        W27705  29.638  44.945   4.612
55281W        W27706   8.830  20.134   0.743
55282W        W27707  14.598  23.056   1.923
55283W        W27708  13.123  16.140   3.845
55284W        W27709  17.639  10.197   0.268
55285W        W27710  22.726  14.755   3.667
55286W        W27711  35.980  10.681   4.152
55287W        W27712  44.804  23.064   2.242
55288W        W27713  34.008   1.236  13.465
55289W        W27714  22.998  10.176   4.607
55290W        W27715  23.199  40.916   0.770
55291W        W27716  13.200  38.328   0.280
55292W        W27717  21.574   8.218  13.044
55293W        W27718  17.248  25.469  10.028
55294W        W27719  34.114  28.016  12.843
55295W        W27720  12.116   3.431   4.639
55296W        W27721  41.299   0.955   4.172
55297W        W27722   3.234  27.053  14.392
55298W        W27723  25.492   5.292   1.298
55299W        W27724  34.867  31.136   1.706
55300W        W27725  22.523  32.511  11.590
55301W        W27726  10.143  44.933   1.774
55302W        W27727  30.654   1.887  12.969
55303W        W27728   5.883  36.462   5.305
55304W        W27729  29.004  23.131   1.340
55305W        W27730  16.306  11.834   4.169
55306W        W27731  22.148  27.487   4.758
55307W        W27732   8.769  25.130  13.042
55308W        W27733   5.847  41.297   1.706
55309W        W27734  44.477  40.334  11.386
55310W        W27735   0.841  40.493  11.096
55311W        W27736  18.256  34.952  14.020
55312W        W27737  38.919  21.662  10.404
55313W        W27738  26.572   6.907   2.673
55314W        W27739  32.522  26.161  11.501
55315W        W27740  19.193  38.897  14.901
55316W        W27741   2.282   2.345   2.824
55317W        W27742  17.302  30.946   4.830
55318W        W27743   3.757  17.107   0.935
55319W        W27744  19.201   5.246   2.287
55320W        W27745  22.088  21.568  13.374
55321W        W27746  26.134  32.576   2.789
55322W        W27747  42.381  36.984   4.677
55323W        W27748  36.399  36.513  13.362
55324W        W27749  30.995   0.448  13.926
55325W        W27750  42.470  33.509   3.258
55326W        W27751  25.468   2.287  14.485
55327W        W27752   1.453   3.420  11.416
55328W        W27753  34.370  30.082  10.963
55329W        W27754  29.075  35.368  12.408
55330W        W27755  20.049  14.701   0.962
55331W        W27756  37.854  43.460  10.411
55332W        W27757   8.207  28.936   4.828
55333W        W27758  38.006  14.633   0.390
55334W        W27759   9.800   5.849   4.301
55335W        W27760  36.862  14.295  10.437
55336W        W27761  12.247  34.109  14.950
55337W        W27762  44.427  25.194  12.837
55338W        W27763   0.358  10.319   0.462
55339W        W27764  18.224   7.906   3.346
55340W        W27765   5.387  18.602  14.871
55341W        W27766   9.679  30.629  11.973
55342W        W27767  38.027  23.224  11.542
55343W        W27768  28.618  23.079   0.863
55344W        W27769   5.698   5.396   2.411
55345W        W27770  12.147  37.845  11.426
55346W        W27771  11.786   6.279   4.247
55347W        W27772  31.619  42.808   4.154
55348W        W27773  20.721  17.800  12.044
55349W        W27774  24.627  20.254   0.736
55350W        W27775  40.362  16.776   0.819
55351W        W27776  22.653  41.007  14.297
55352W        W27777   3.937   7.757   1.387
55353W        W27778  24.636   9.659  13.912
55354W        W27779   7.209  15.269  10.540
55355W        W27780  39.323   5.394   1.345
55356W        W27781  20.132  18.064  14.376
55357W        W27782  31.575  33.607   0.283
55358W        W27783  42.010   3.897  11.609
55359W        W27784   9.824  13.219  14.471
55360W        W27785  43.952  10.333  13.023
55361W        W27786  40.310  25.101   2.830
55362W        W27787  14.598  42.973  10.415
55363W        W27788  29.967  17.754   0.467
55364W        W27789  15.775  17.083  13.454
55365W        W27790  28.672  17.732  11.120
55366W        W27791  28.118  19.748  10.990
55367W        W27792  40.023  41.430   2.396
55368W        W27793  19.161   5.248  11.990
55369W        W27794   2.926  40.835  10.425
55370W        W27795  16.812  12.325  13.426
55371W        W27796  21.259   6.879  14.472
55372W        W27797  38.984  20.630  13.370
55373W        W27798  21.162   2.881   2.898
55374W        W27799  10.759  28.165  12.401
55375W        W27800  37.572  43.356   2.731
55376W        W27801   8.693   9.365   1.210
55377W        W27802  31.030  21.181  10.986
55378W        W27803  44.945  33.618  12.898
55379W        W27804  15.138  19.536  13.520
55380W        W27805  22.202  21.547   3.755
55381W        W27806  14.270  26.503   0.841
55382W        W27807  27.648   9.286   0.947
55383W        W27808  40.355  13.325  12.014
55384W        W27809  38.382  13.204   3.817
55385W        W27810  39.983   6.799  13.472
55386W        W27811  11.355   3.315  11.061
55387W        W27812  41.444  16.710  11.941
55388W        W27813   9.236  23.536  11.541
55389W        W27814  35.416  18.112  11.022
55390W        W27815  31.131  41.299  14.889
55391W        W27816   9.759  33.384  13.320
55392W        W27817  12.679  38.822  12.493
55393W        W27818  18.120  30.594   1.413
55394W        W27819  28.481  16.662  10.591
55395W        W27820  11.290  42.981  12.383
55396W        W27821  39.050  21.676  13.327
55397W        W27822  32.915  24.619  11.044
55398W        W27823  19.555  18.668   4.348
55399W        W27824  35.883  10.652   0.884
55400W        W27825  13.251  10.164  13.940
55401W        W27826  43.020  15.748   4.762
55402W        W27827  40.470  14.637   2.201
55403W        W27828  14.636  33.124  13.485
55404W        W27829   6.894  23.190  10.931
55405W        W27830   5.350  26.602  14.997
55406W        W27831  30.101  14.756  11.904
55407W        W27832  10.280  17.730   3.196
55408W        W27833  38.976  44.757   0.895
55409W        W27834  12.688  28.056   1.281
55410W        W27835   0.431  31.556  11.425
55411W        W27836  31.467  31.623   3.704
55412W        W27837  20.574  27.448  11.500
55413W        W27838  33.428   8.294   3.668
55414W        W27839  20.088  22.064  10.565
55415W        W27840   8.196  21.106   1.424
55416W        W27841  43.401  44.348   1.285
55417W        W27842  35.484  42.931   4.139
55418W        W27843   9.838  22.170  11.040
55419W        W27844  13.227   0.415   4.309
55420W        W27845  26.158   5.855  13.926
55421W        W27846  19.718   8.885   1.315
55422W        W27847   9.776   0.456   2.710
55423W        W27848  43.934  13.294   3.728
55424W        W27849   3.890  11.232  10.427
55425W        W27850  35.897  24.141   4.164
55426W        W27851  16.234  16.716   1.796
55427W        W27852  20.213   6.836  12.382
55428W        W27853   0.895   9.308   2.384
55429W        W27854  27.606  33.985  11.581
55430W        W27855  38.974  19.114  14.438
55431W        W27856  30.075   3.760   4.687
55432W        W27857  19.625   6.257   2.235
55433W        W27858  34.052   3.780   1.821
55434W        W27859  33.443  17.673  14.939
55435W        W27860  27.039  18.690  12.370
55436W        W27861  37.579  16.114  12.990
55437W        W27862  42.393  33.575   2.819
55438W        W27863  32.616   6.317   2.788
55439W        W27864  44.010  10.658   3.294
55440W        W27865  12.737  42.965   3.670
55441W        W27866   6.311  11.641   3.331
55442W        W27867  34.494  34.486  14.761
55443W        W27868  38.974   4.208   1.312
55444W        W27869  10.142  34.988  10.939
55445W        W27870  41.999  24.584  12.487
55446W        W27871  17.283  28.677  11.440
55447W        W27872   4.725  22.092   2.722
55448W        W27873  22.726  39.841   4.226
55449W        W27874  23.644  24.005   1.724
55450W        W27875  20.040  10.687   0.941
55451W        W27876  10.164  23.091   1.273
55452W        W27877  28.979  22.128  11.414
55453W        W27878  10.296  39.995   3.194
55454W        W27879  20.149   1.327  14.984
55455W        W27880  14.700  19.172  10.553
55456W        W27881  42.859   8.174   2.381
55457W        W27882  41.449   7.693   0.930
55458W        W27883  13.821  32.635  14.361
55459W        W27884  38.519  14.773   3.802
55460W        W27885  25.047   3.891  13.875
55461W        W27886  32.495  29.151   3.764
55462W        W27887  31.519  19.238  12.986
55463W        W27888  31.448  42.960   1.215
55464W        W27889  32.005  25.050  10.070
55465W        W27890  38.349   1.880   1.773
55466W        W27891   8.825   1.379   3.849
55467W        W27892  13.346  28.125   5.281
55468W        W27893   1.348  16.172   4.820
55469W        W27894   4.884  33.593   2.302
55470W        W27895  23.557  32.583   0.797
55471W        W27896  16.082   4.893   2.369
55472W        W27897   0.837  13.191  14.898
55473W        W27898  22.166  31.067   1.418
55474W        W27899  13.654  18.245   1.221
55475W        W27900  26.619  29.972   0.860
55476W        W27901   3.781   0.956  14.513
55477W        W27902  16.732   5.205   2.785
55478W        W27903   5.323   6.254   2.241
55479W        W27904   3.230   8.773  13.853
55480W        W27905  23.118  11.371   0.866
55481W        W27906  33.025  44.281   2.791
55482W        W27907  22.230  43.400  13.815
55483W        W27908  33.539  25.157   1.897
55484W        W27909   9.857   6.188   1.326
55485W        W27910  34.984  18.595  10.935
55486W        W27911   0.850   0.355  14.410
55487W        W27912   6.261  15.196  11.102
55488W        W27913  19.090  19.247   2.742
55489W        W27914  27.058   7.341   2.341
55490W        W27915  34.007  40.438  11.426
55491W        W27916  43.948  30.033  14.295
55492W        W27917  34.534   2.304   0.272
55493W        W27918  34.896  20.051  12.414
55494W        W27919  16.257  12.288   2.416
55495W        W27920   2.944  41.896  12.983
55496W        W27921  41.931   3.871   0.926
55497W        W27922  43.315  35.522  10.610
55498W        W27923  11.661   7.401   3.306
55499W        W27924  33.056  39.008  13.475
55500W        W27925   9.338  36.989   4.202
55501W        W27926  41.322  27.468   4.720
55502W        W27927   5.198  34.420  13.519
55503W        W27928  35.427   8.673   1.925
55504W        W27929  32.392  26.522  13.411
55505W        W27930   4.852  21.261  12.940
55506W        W27931  11.166  20.104   3.379
55507W        W27932   8.298  34.986  12.496
55508W        W27933  44.437  23.679   2.662
55509W        W27934  28.604  38.051   4.698
55510W        W27935   8.818  29.426   0.251
55511W        W27936  25.997  27.966   2.246
55512W        W27937  23.179  32.006  11.411
55513W        W27938  14.213   6.308  10.992
55514W        W27939  34.494  24.974   1.306
55515W        W27940  15.765  25.032  13.344
55516W        W27941  31.578   8.178  13.858
55517W        W27942  32.433   1.821  12.919
55518W        W27943  19.720  29.519   1.283
55519W        W27944  30.017  20.706   3.175
55520W        W27945  39.016  27.685   3.821
55521W        W27946  39.829   7.239  13.813
55522W        W27947  25.179  17.777  13.367
55523W        W27948  13.698  27.680  11.911
55524W        W27949  39.508  44.954   2.268
55525W        W27950  20.694  17.170   0.942
55526W        W27951  42.366  15.256   4.280
55527W        W27952  12.163   8.404  11.106
55528W        W27953  18.592  24.100   0.733
55529W        W27954  42.414   5.740   3.158
55530W        W27955  21.696  23.061   4.639
55531W        W27956  16.175  18.197  12.856
55532W        W27957  36.360  38.978  12.063
55533W        W27958  10.282  17.733   0.848
55534W        W27959  16.720  42.801  13.924
55535W        W27960  35.499  24.061  11.097
55536W        W27961  30.479  24.220  13.445
55537W        W27962   8.898  43.279   3.165
55538W        W27963  11.209   9.720   4.329
55539W        W27964  17.189  10.674   3.641
55540W        W27965  38.888  28.541  10.577
55541W        W27966  25.113  23.661   2.416
55542W        W27967  25.581  27.195   0.243
55543W        W27968  44.957  17.724  12.859
55544W        W27969   0.259  38.996  12.923
55545W        W27970  30.581  31.577   1.852
55546W        W27971   3.270   9.282  10.617
55547W        W27972  26.647   5.401  11.111
55548W        W27973  27.197  39.331   0.327
55549W        W27974  29.455   0.820  12.385
55550W        W27975  39.822  44.310   4.798
55551W        W27976  26.515  20.226  14.361
55552W        W27977  36.583  41.827  12.386
55553W        W27978  30.944  36.853  12.508
55554W        W27979  33.623  44.451   0.420
55555W        W27980  40.330  30.620   2.814
55556W        W27981  33.874  15.253   4.660
55557W        W27982   8.848  24.156  12.431
55558W        W27983  21.695  10.672   2.690
55559W        W27984  28.150  11.250   0.775
55560W        W27985  34.898   1.779   3.699
55561W        W27986  10.768  11.700   1.345
55562W        W27987  12.703  22.669  10.890
55563W        W27988   0.957   1.425   4.121
55564W        W27989  27.674   1.381   3.732
55565W        W27990  37.396  26.014  12.936
55566W        W27991  14.223  24.604  14.979
55567W        W27992  15.223  21.072  14.407
55568W        W27993   5.223  33.098   0.306
55569W        W27994  33.488   9.310  11.498
55570W        W27995  13.821  23.212   5.130
55571W        W27996  23.607  35.872   0.256
55572W        W27997   8.688  42.342   0.288
55573W        W27998   7.298  40.019  14.908
55574W        W27999   6.350  28.450  12.365
55575W        W28000  18.791   9.780  11.499
55576W        W28001  38.434   5.229  14.515
55577W        W28002  35.559  11.231  11.865
55578W        W28003  12.802  28.982  13.953
55579W        W28004  11.864  24.992  13.497
55580W        W28005  42.819  12.627   0.728
55581W        W28006  20.078   4.733  12.342
55582W        W28007  28.473  21.617  11.893
55583W        W28008   2.865   8.343  13.863
55584W        W28009  27.117  17.714   3.718
55585W        W28010   1.759  10.865   2.705
55586W        W28011  13.158  32.043  11.489
55587W        W28012  24.071  38.551   3.795
55588W        W28013  19.086  42.843   2.715
55589W        W28014  40.451  18.190   2.728
55590W        W28015  12.677  41.465   0.416
55591W        W28016  15.800  14.330  11.607
55592W        W28017  41.456  19.647  11.100
55593W        W28018  26.514  15.211   2.235
55594W        W28019  31.000  33.937   0.859
55595W        W28020  29.106  36.045   1.883
55596W        W28021  11.670  23.075   1.385
55597W        W28022  21.516  27.015  12.033
55598W        W28023  30.086  28.489   0.340
55599W        W28024  28.949   1.345  14.883
55600W        W28025  15.200  11.349   2.681
55601W        W28026  43.365  44.302  11.480
55602W        W28027  16.113   0.383  12.063
55603W        W28028  28.951  29.670   3.233
55604W        W28029  21.159  16.244   1.779
55605W        W28030  12.714  33.969  14.396
55606W        W28031   3.774  28.968   0.890
55607W        W28032  15.746  19.661   3.684
55608W        W28033  32.949  33.449  10.899
55609W        W28034  24.514   0.775  13.959
55610W        W28035  42.401  24.550  10.910
55611W        W28036  24.711   8.323  14.403
55612W        W28037  20.258  14.678   3.158
55613W        W28038  44.010  19.719  14.877
55614W        W28039  10.380  11.135  11.096
55615W        W28040  42.385   2.933   1.914
55616W        W28041   6.753  17.652  14.320
55617W        W28042  32.047  14.789  13.980
55618W        W28043  17.172   4.428   1.254
55619W        W28044  17.793  31.027  13.894
55620W        W28045   9.368   9.832   4.209
55621W        W28046  12.773  38.859   2.289
55622W        W28047  23.576  32.546   4.259
55623W        W28048   9.656  23.083  11.428
55624W        W28049  39.015  18.097  10.975
55625W        W28050  36.907  40.807  10.579
55626W        W28051  25.085  40.009   2.390
55627W        W28052   0.457  44.308   3.359
55628W        W28053  37.545  10.838  12.870
55629W        W28054  18.642  27.445   3.265
55630W        W28055  23.021  25.155  14.462
55631W        W28056   2.394   0.422   2.263
55632W        W28057  28.621  26.960  12.406
55633W        W28058  38.954  36.577   1.395
55634W        W28059  14.228  43.436  10.948
55635W        W28060  28.593  29.070  14.796
55636W        W28061  25.607  37.910   3.649
55637W        W28062  17.781  12.350   0.915
55638W        W28063  16.276   2.267   0.865
55639W        W28064   3.343  28.935   3.711
55640W        W28065  20.744  21.677   1.412
55641W        W28066  38.563  10.156  11.041
55642W        W28067  33.942   7.280   4.704
55643W        W28068  32.504  30.074   0.454
55644W        W28069  23.690  43.296  12.448
55645W        W28070  12.777   2.249  12.357
55646W        W28071  17.609  37.459  10.929
55647W        W28072  33.380  34.868   2.256
55648W        W28073  24.594  16.232   0.279
55649W        W28074  23.161  23.165   4.737
55650W        W28075  14.246  22.700   4.638
55651W        W28076   7.330   3.795   2.883
55652W        W28077  29.934   7.298   3.830
55653W        W28078   8.203  26.650  11.564
55654W        W28079  38.563  14.677   0.921
55655W        W28080  33.504  26.518  11.061
55656W        W28081  25.520   9.386   2.713
55657W        W28082  20.687  11.219  10.986
55658W        W28083  18.279  26.162   3.205
55659W        W28084  38.329  31.952   3.175
55660W        W28085  39.462  44.390  11.517
55661W        W28086  20.612  10.343  14.849
55662W        W28087  44.931   7.846  11.128
55663W        W28088   0.815   7.393  12.075
55664W        W28089  40.372  29.509  14.881
55665W        W28090   1.918  19.623  11.076
55666W        W28091  33.442  40.491  12.089
55667W        W28092  20.660  38.451   1.233
55668W        W28093  29.648  40.870  13.493
55669W        W28094   0.432   4.221   3.369
55670W        W28095  32.885  44.346  12.890
55671W        W28096   9.751  18.095   3.360
55672W        W28097   5.431  16.299   1.833
55673W        W28098  28.483  43.331  11.096
55674W        W28099  28.519  20.108  12.482
55675W        W28100  17.600  44.363  13.548
55676W        W28101   3.806  41.945   0.823
55677W        W28102  44.969  38.489  12.988
55678W        W28103  15.697  12.684  13.042
55679W        W28104  12.179   6.761  12.967
55680W        W28105  27.006  44.318   4.174
55681W        W28106  24.007  34.403   0.462
55682W        W28107   4.272  21.582  14.420
55683W        W28108  19.760  14.828   3.762
55684W        W28109  16.740  23.133   4.174
55685W        W28110  24.162  21.190  11.063
55686W        W28111  26.578  28.116   3.692
55687W        W28112  38.545  39.483  14.873
55688W        W28113  24.060  18.790   1.320
55689W        W28114  25.502   0.924   0.962
55690W        W28115  33.083   9.705   1.739
55691W        W28116  24.152  11.795   5.189
55692W        W28117  20.110   7.680  14.763
55693W        W28118  35.009  30.909   1.250
55694W        W28119   0.949  25.997  14.026
55695W        W28120  19.139  21.711  14.908
55696W        W28121  12.145   3.849   4.788
55697W        W28122   5.734  12.170   2.854
55698W        W28123  40.808  40.461  10.499
55699W        W28124  16.777   4.253   2.777
55700W        W28125  37.054  30.119  12.987
55701W        W28126  14.097  20.759  13.819
55702W        W28127  35.902  10.268   1.739
55703W        W28128   5.919  24.591  11.051
55704W        W28129  13.604  18.692  12.895
55705W        W28130  18.256  24.707   4.757
55706W        W28131   6.682  41.351   2.865
55707W        W28132  19.132  34.526  14.761
55708W        W28133  18.211  25.173  12.861
55709W        W28134   7.906  27.989   4.743
55710W        W28135  43.447  24.566  13.947
55711W        W28136  33.905  26.558  12.859
55712W        W28137  33.103  39.855  11.879
55713W        W28138  33.595   6.316  10.467
55714W        W28139  24.160  23.999   1.269
55715W        W28140  34.427  10.687   2.707
55716W        W28141  25.553  24.110   1.733
55717W        W28142  19.732  14.809   0.822
55718W        W28143  12.813  36.062   3.161
55719W        W28144  27.458   8.313   2.762
55720W        W28145   2.253  40.926  11.871
55721W        W28146  31.629   5.218   1.757
55722W        W28147  14.792  33.111   1.899
55723W        W28148  29.455  25.176  14.893
55724W        W28149  13.216  11.315   0.952
55725W        W28150  16.238  37.051   1.904
55726W        W28151  24.062  28.038   3.327
55727W        W28152  13.817  19.056  14.896
55728W        W28153  17.664   8.743  10.424
55729W        W28154   7.311  40.303  11.410
55730W        W28155  34.106  43.415  13.030
55731W        W28156   8.211  17.678   4.656
55732W        W28157  33.030  44.993  10.955
55733W        W28158  10.346   7.826   1.728
55734W        W28159  38.036  37.343  13.828
55735W        W28160  42.929   6.759   0.456
55736W        W28161  19.554  34.002   2.790
55737W        W28162   2.432   0.492  14.319
55738W        W28163  30.135  38.541   1.873
55739W        W28164  18.625  44.385   2.340
55740W        W28165  21.046   4.909   5.245
55741W        W28166  35.031  30.638  14.445
55742W        W28167  13.736  27.964   2.267
55743W        W28168   5.720   3.891   2.392
55744W        W28169  24.485  30.043  13.380
55745W        W28170  34.446  11.152  12.517
55746W        W28171   2.400  34.598   2.261
55747W        W28172  43.982  16.811  14.031
55748W        W28173  18.222  19.728   3.326
55749W        W28174  38.545  25.676  13.801
55750W        W28175   9.331   9.358   2.368
55751W        W28176  43.350  35.491   4.191
55752W        W28177   7.669  42.522  14.018
55753W        W28178  16.637  35.971   4.150
55754W        W28179   9.863  32.456  11.088
55755W        W28180   1.736  11.844   1.342
55756W        W28181  29.930  13.327  11.412
55757W        W28182  17.186  32.051  13.507
55758W        W28183  16.293  33.030  12.900
55759W        W28184  20.199  16.218  13.850
55760W        W28185  23.736  33.918  14.318
55761W        W28186  29.013  14.802  13.430
55762W        W28187  21.634   1.309  12.522
55763W        W28188  29.443  29.471  14.280
55764W        W28189   5.323   3.803  10.888
55765W        W28190  17.217  18.559  12.361
55766W        W28191   6.351   6.919   3.741
55767W        W28192  36.544  35.855   2.235
55768W        W28193   4.205  23.139  13.017
55769W        W28194  38.367  17.117   3.386
55770W        W28195  15.199  36.591   0.826
55771W        W28196  40.522  27.658   0.755
55772W        W28197   1.392  11.134   0.787
55773W        W28198  34.927  11.704   4.700
55774W        W28199  36.027   9.798  13.946
55775W        W28200  30.036   3.740  10.995
55776W        W28201  39.057   2.454   2.767
55777W        W28202  39.935  10.298  13.809
55778W        W28203  36.403  43.329   0.257
55779W        W28204  41.991  22.535  13.901
55780W        W28205  44.264   1.345  11.014
55781W        W28206  26.095   2.459   3.790
55782W        W28207  31.453  28.582   1.813
55783W        W28208  39.824  24.000   3.233
55784W        W28209  37.535   7.695   2.780
55785W        W28210  22.706  26.054   2.862
55786W        W28211   7.870   3.364   4.131
55787W        W28212  16.224   4.856  12.967
55788W        W28213  29.026  11.648   2.334
55789W        W28214  39.980  12.669  14.762
55790W        W28215  28.487  42.005  12.530
55791W        W28216   5.701  24.982  13.485
55792W        W28217   0.869  27.458   4.218
55793W        W28218  13.288  32.529   1.759
55794W        W28219  38.906  36.580  11.079
55795W        W28220  31.000   8.389  12.341
55796W        W28221  36.396  37.506  13.857
55797W        W28222  18.770   9.806   1.393
55798W        W28223  37.458  19.613   2.352
55799W        W28224  43.408   5.261   2.809
55800W        W28225  14.624  35.953  11.566
55801W        W28226  25.174   5.888  10.505
55802W        W28227  40.986  20.710   4.328
55803W        W28228  43.993  18.278   3.198
55804W        W28229  10.168  29.424  11.059
55805W        W28230   2.881   5.278  12.448
55806W        W28231  27.963  29.538   0.308
55807W        W28232  23.026  39.927   2.372
55808W        W28233  28.169  35.039   3.690
55809W        W28234  43.889  10.275  12.425
55810W        W28235  18.574  21.051  10.909
55811W        W28236  24.505  44.386  10.477
55812W        W28237   8.810  14.819  11.946
55813W        W28238   9.670  14.822   3.164
55814W        W28239   8.878  43.439  14.294
55815W        W28240  36.033  26.650   1.371
55816W        W28241  22.647  43.769   0.410
55817W        W28242   1.474  10.754   4.146
55818W        W28243  12.117  22.192   1.324
55819W        W28244  41.022  34.428   3.681
55820W        W28245  44.489  39.855   4.643
55821W        W28246  11.776  13.710   3.744
55822W        W28247  20.262  34.943   1.227
55823W        W28248  34.082  39.988  14.363
55824W        W28249  19.753  16.626   0.792
55825W        W28250   2.466  24.044  14.986
55826W        W28251  32.923  21.742  12.342
55827W        W28252  29.022  13.800   3.703
55828W        W28253   5.716  29.035  14.874
55829W        W28254  13.624   7.700   0.356
55830W        W28255  28.174  44.273  14.322
55831W        W28256  12.739  25.637  13.458
55832W        W28257  35.069  33.006   3.360
55833W        W28258  23.164  42.990   2.332
55834W        W28259  23.117  32.455   1.220
55835W        W28260   9.870  29.079   1.854
55836W        W28261  36.929   6.186   1.854
55837W        W28262  29.669  22.635   4.795
55838W        W28263   7.909   5.848  12.441
55839W        W28264  34.021  15.643  12.009
55840W        W28265  28.166  19.179  12.948
55841W        W28266   7.306  32.503   0.731
55842W        W28267  22.048  42.309  12.074
55843W        W28268  22.231  29.508  12.415
55844W        W28269  25.706  29.580   2.694
55845W        W28270  40.846  36.543  12.856
55846W        W28271  20.533  35.996   0.934
55847W        W28272   2.838  35.007   0.760
55848W        W28273  24.515   0.790   4.691
55849W        W28274  11.356  25.558   0.914
55850W        W28275  26.549  15.670  11.538
55851W        W28276  10.838  33.986   4.608
55852W        W28277   0.399  44.902   2.677
55853W        W28278   6.820  34.560  11.959
55854W        W28279  27.450  11.128   0.967
55855W        W28280  17.773  23.515   2.698
55856W        W28281  31.930   0.860   4.620
55857W        W28282  38.964  17.616   3.835
55858W        W28283  25.983   3.315  14.319
55859W        W28284  21.193  23.165   0.816
55860W        W28285  33.458  38.352   4.616
55861W        W28286  32.081  27.512   2.791
55862W        W28287  24.115   3.438  10.155
55863W        W28288  41.864  41.856  14.027
55864W        W28289   1.264  30.653   3.670
55865W        W28290  19.546  30.041  13.396
55866W        W28291  32.525   9.386   0.871
55867W        W28292  27.485   7.215  12.078
55868W        W28293  20.704  32.439   3.194
55869W        W28294  43.994  19.210  11.062
55870W        W28295  30.135  14.304  13.478
55871W        W28296   3.334  39.030   0.322
55872W        W28297  27.600  25.558  10.595
55873W        W28298  41.304  20.206  12.957
55874W        W28299  24.020  32.058  12.039
55875W        W28300  29.929   0.775   2.192
55876W        W28301  39.388  21.135  12.063
55877W        W28302  26.971  28.585  13.547
55878W        W28303  32.943   4.858   1.415
55879W        W28304  30.523  27.189  14.852
55880W        W28305  35.883   4.868   0.360
55881W        W28306  23.164  18.211  12.378
55882W        W28307   2.393   1.354  11.911
55883W        W28308  24.673  33.567   1.293
55884W        W28309  33.488  29.963   1.305
55885W        W28310  41.024  13.777  10.625
55886W        W28311  35.586   1.753   1.715
55887W        W28312  24.522  41.494   4.683
55888W        W28313  15.606  38.075  10.413
55889W        W28314  13.331  18.142  13.543
55890W        W28315  12.842  42.298   4.334
55891W        W28316  32.580  15.758   3.309
55892W        W28317  42.834  42.363  11.456
55893W        W28318  42.825   0.815  12.439
55894W        W28319  23.490   5.921   3.642
55895W        W28320  25.044  40.030  13.360
55896W        W28321  41.324  43.335   2.349
55897W        W28322  33.035  35.006  13.337
55898W        W28323  14.827  23.520   0.784
55899W        W28324  31.570  27.090   2.785
55900W        W28325  31.035  10.278  12.403
55901W        W28326  22.247  22.512   2.354
55902W        W28327  17.105  23.573  10.493
55903W        W28328  20.767  16.180   0.950
55904W        W28329   7.174   5.771   3.868
55905W        W28330  24.189   9.228   0.806
55906W        W28331   9.221  23.990  11.026
55907W        W28332   5.807  30.650   1.795
55908W        W28333  13.326   5.870   1.868
55909W        W28334  42.789   9.335  13.360
55910W        W28335  24.102   6.796   4.128
55911W        W28336   6.833   4.278  12.353
55912W        W28337   1.977  27.968  14.426
55913W        W28338  32.532  41.983   3.270
55914W        W28339  28.676  25.616  12.464
55915W        W28340  20.682   3.794   0.898
55916W        W28341  16.676  31.438   1.723
55917W        W28342   0.816  23.143   4.646
55918W        W28343  16.095  28.625  13.436
55919W        W28344  37.078  30.034   3.171
55920W        W28345  25.148  35.481  11.935
55921W        W28346  21.084  37.912   3.331
55922W        W28347  40.396  20.033   0.781
55923W        W28348  44.982  20.526   1.326
55924W        W28349  10.195  18.631  11.885
55925W        W28350  36.353  44.804   1.705
55926W        W28351  27.981  20.702  14.347
55927W        W28352  10.854  24.700  13.893
55928W        W28353  10.749   9.345  14.439
55929W        W28354  24.220  21.088   3.707
55930W        W28355   7.805  11.357  13.446
55931W        W28356   3.887  42.521  10.438
55932W        W28357  18.777  26.485   3.188
55933W        W28358  11.798   8.251  14.883
55934W        W28359  11.789  42.996  10.905
55935W        W28360  29.144  35.436   2.798
55936W        W28361   3.353  36.384  13.862
55937W        W28362   2.864  40.308   2.398
55938W        W28363  16.302  18.582   4.119
55939W        W28364   6.771  30.543   4.277
55940W        W28365  39.012  33.532   1.401
55941W        W28366  42.305  28.595  12.886
55942W        W28367   7.214  34.507  11.085
55943W        W28368  35.577  10.364  12.419
55944W        W28369   9.336   1.789   1.759
55945W        W28370  42.846  40.020  11.481
55946W        W28371  35.401   1.483   3.633
55947W        W28372  38.941  38.914   4.159
55948W        W28373  31.527  11.199   3.358
55949W        W28374  16.298  43.506  11.007
55950W        W28375  40.909  42.905  14.872
55951W        W28376  37.488  23.558   2.358
55952W        W28377   6.269  25.219   4.191
55953W        W28378  43.887  13.703   0.764
55954W        W28379  25.679  27.188  12.481
55955W        W28380   7.230  43.875  14.458
55956W        W28381  33.560  27.061   3.277
55957W        W28382  38.982  24.127   2.802
55958W        W28383  18.554  21.668   1.234
55959W        W28384  12.767  36.939  12.885
55960W        W28385  13.701   7.866   3.841
55961W        W28386  14.186   5.198   0.794
55962W        W28387  30.106   6.751  13.514
55963W        W28388   7.698  15.263   4.164
55964W        W28389  37.942  32.467  13.439
55965W        W28390   4.943  22.737  14.323
55966W        W28391  24.582  35.515  10.513
55967W        W28392  12.801  28.157  11.517
55968W        W28393  37.048  43.877   1.863
55969W        W28394  25.085  18.785   2.314
55970W        W28395  36.042  30.459  11.443
55971W        W28396  17.657   7.343   4.131
55972W        W28397  29.508   2.294   4.669
55973W        W28398   7.330   6.861  13.884
55974W        W28399  28.016  23.180  14.463
55975W        W28400  23.680  30.137  14.401
55976W        W28401  38.527  13.348   2.676
55977W        W28402  17.193  28.128  13.464
55978W        W28403   0.333  14.673  11.414
55979W        W28404  30.495  42.993  11.566
55980W        W28405   4.884  15.186   5.250
55981W        W28406   5.381  21.071  13.473
55982W        W28407  38.886   9.795  11.965
55983W        W28408  15.267  14.281  11.113
55984W        W28409  22.747  29.018  13.841
55985W        W28410  29.048  26.189   3.660
55986W        W28411  22.171  11.187   5.109
55987W        W28412   4.300   8.757  11.013
55988W        W28413  16.136   8.288  12.494
55989W        W28414   2.859  31.097   2.767
55990W        W28415   0.776   8.275  13.918
55991W        W28416  10.854  15.771  10.114
55992W        W28417  39.991  43.369  13.500
55993W        W28418  36.456  17.743   4.280
55994W        W28419  42.905  29.536  14.366
55995W        W28420  41.008  17.655  14.324
55996W        W28421  33.981  17.237  10.632
55997W        W28422  36.003   2.277   1.799
55998W        W28423  24.062  31.922   2.670
55999W        W28424  36.458   5.759   4.278
56000W        W28425  34.932  18.777   3.865
56001W        W28426  12.329  31.147   2.392
56002W        W28427  43.507   7.236  12.837
56003W        W28428   0.987  23.136  11.452
56004W        W28429   4.742   3.942   0.896
56005W        W28430   2.748   9.195   1.260
56006W        W28431  24.638  26.952  13.368
56007W        W28432  26.596   9.266  11.431
56008W        W28433  19.173  40.833  13.375
56009W        W28434  38.456   0.357   0.869
56010W        W28435   9.664  19.180   3.806
56011W        W28436  14.702  31.493   2.772
56012W        W28437  43.285  32.554  14.781
56013W        W28438  31.452  37.360  14.402
56014W        W28439  22.028  41.930   4.225
56015W        W28440  24.227   4.791  14.901
56016W        W28441  33.411   3.304   4.674
56017W        W28442   9.759  22.621  12.577
56018W        W28443   6.293  43.346   2.280
56019W        W28444  15.694  37.550  10.907
56020W        W28445  38.474  33.417  12.994
56021W        W28446  19.577  30.116  11.956
56022W        W28447  31.425   8.794   1.361
56023W        W28448  15.669  17.248  12.484
56024W        W28449  39.350  14.273   1.342
56025W        W28450   2.441  40.424   4.804
56026W        W28451  27.940  28.541   2.670
56027W        W28452   6.269   1.300   0.275
56028W        W28453   4.715  17.619  10.960
56029W        W28454  15.649  21.100   2.340
56030W        W28455   0.387  30.640   0.330
56031W        W28456   9.675  36.953  14.919
56032W        W28457  34.120  30.968   4.293
56033W        W28458  28.583  13.257   2.368
56034W        W28459   8.674  29.150  11.943
56035W        W28460  12.267  11.140  10.411
56036W        W28461   8.795  25.971   3.313
56037W        W28462  11.245  29.604   1.275
56038W        W28463  21.049  12.210   0.805
56039W        W28464  14.186   1.940  12.071
56040W        W28465  22.194   6.367  14.857
56041W        W28466  24.500  20.533  12.360
56042W        W28467   6.774   3.949  13.964
56043W        W28468  12.253  14.698  15.000
56044W        W28469   0.920  18.247   4.762
56045W        W28470  10.757  23.723  10.939
56046W        W28471  10.727  32.506  10.440
56047W        W28472   6.318  11.786  10.009
56048W        W28473   8.782  24.980  10.941
56049W        W28474  24.609  13.344   4.751
56050W        W28475  26.548  11.685   1.357
56051W        W28476  10.861  30.909  12.076
56052W        W28477   0.401   6.836  13.368
56053W        W28478  17.563  32.040   4.309
56054W        W28479  36.997  20.160  13.973
56055W        W28480  12.735  33.379  13.432
56056W        W28481  25.147  26.676  13.483
56057W        W28482   5.831   4.439   4.162
56058W        W28483  38.882   2.292  13.487
56059W        W28484  34.589  26.562   0.813
56060W        W28485  32.112  27.196  13.892
56061W        W28486   8.823  30.582  12.457
56062W        W28487  39.010   0.481  13.907
56063W        W28488   0.878  11.131  11.982
56064W        W28489  30.529  43.974   3.286
56065W        W28490   4.219  37.889  11.995
56066W        W28491   4.718  19.053  13.508
56067W        W28492  17.106  12.329  10.477
56068W        W28493  11.238   4.825  11.942
56069W        W28494  42.980  38.023   4.278
56070W        W28495  24.130  34.883  11.044
56071W        W28496   4.336  34.443   4.113
56072W        W28497  10.799  17.622   1.930
56073W        W28498   9.262  30.156  10.981
56074W        W28499  35.037  28.499   1.766
56075W        W28500   8.363  42.390  11.941
56076W        W28501  40.042  29.490   0.771
56077W        W28502  40.360   2.278   4.179
56078W        W28503  20.124  32.967  13.910
56079W        W28504   3.717  41.929  13.441
56080W        W28505  14.589  33.053  14.897
56081W        W28506   2.359  24.150   1.930
56082W        W28507  36.071  30.008  11.611
56083W        W28508   7.703   9.873   2.292
56084W        W28509   8.356  15.578  11.609
56085W        W28510  31.963  39.845   3.344
56086W        W28511   4.274  40.533   3.383
56087W        W28512  11.310   0.444   2.330
56088W        W28513   0.793  17.661   3.341
56089W        W28514   8.212  18.648   3.749
56090W        W28515  14.812  31.007   0.799
56091W        W28516   9.704  25.621   3.638
56092W        W28517  30.616   1.744   2.230
56093W        W28518  41.388   3.923   1.239
56094W        W28519  34.975  22.071   1.700
56095W        W28520   6.800   3.280   4.341
56096W        W28521  37.980  35.485   0.843
56097W        W28522   4.815  13.741   2.416
56098W        W28523   6.810  44.505  13.308
56099W        W28524  17.198  44.341   0.254
56100W        W28525  16.119  39.853  14.840
56101W        W28526  15.097  41.012  12.025
56102W        W28527  39.523  42.905  12.896
56103W        W28528  37.035  34.596  10.443
56104W        W28529   6.306  32.435   2.667
56105W        W28530   4.422  21.250  14.780
56106W        W28531  35.516  43.299  13.880
56107W        W28532  35.099  17.075  12.528
56108W        W28533  44.437  19.106   4.322
56109W        W28534  33.106  39.906   3.347
56110W        W28535   6.770  26.167  14.488
56111W        W28536  27.601  22.520  12.576
56112W        W28537  26.575  10.714   0.823
56113W        W28538   8.780   9.890  11.907
56114W        W28539  44.962   9.368   4.322
56115W        W28540  11.264   9.280   0.840
56116W        W28541  39.457  34.424  13.953
56117W        W28542  22.092  35.897  13.994
56118W        W28543  25.669  11.717   4.675
56119W        W28544  17.656   6.284  14.370
56120W        W28545  40.359   1.895   1.430
56121W        W28546  39.830  20.042  11.426
56122W        W28547  27.085  14.153  10.520
56123W        W28548   7.325   1.274  12.955
56124W        W28549  11.157  17.796   2.238
56125W        W28550  34.477   4.712  14.437
56126W        W28551  16.131  17.560  12.850
56127W        W28552  24.687   8.366   3.831
56128W        W28553  28.091  31.594   2.409
56129W        W28554   8.810  16.155   3.651
56130W        W28555  23.205  31.964   3.820
56131W        W28556  29.052   3.240   2.283
56132W        W28557  14.798   8.306  10.943
56133W        W28558   1.292   8.337  12.870
56134W        W28559  20.043  37.912  12.442
56135W        W28560  44.989  34.487  14.448
56136W        W28561  28.618  20.187  10.508
56137W        W28562  37.555  25.572   4.674
56138W        W28563  11.686  25.143   4.721
56139W        W28564  32.100  18.296  10.641
56140W        W28565  20.709  40.026  11.421
56141W        W28566  15.212  13.720   1.889
56142W        W28567  11.707  21.045  10.619
56143W        W28568  23.503   6.218   4.805
56144W        W28569   1.258   8.860   2.307
56145W        W28570   0.466  25.592   3.767
56146W        W28571  32.534   3.328   4.701
56147W        W28572   3.942  12.284   1.221
56148W        W28573  39.334  15.101   3.168
56149W        W28574  30.508  38.960   4.238
56150W        W28575  37.942  28.464   0.893
56151W        W28576   7.856  37.345   2.867
56152W        W28577  13.621  33.096  14.388
56153W        W28578  30.637   4.445   0.824
56154W        W28579  25.579  13.277   4.802
56155W        W28580  37.858  24.699   4.793
56156W        W28581  31.916  10.193   0.785
56157W        W28582  31.920  39.381   3.237
56158W        W28583  33.040  32.566  11.965
56159W        W28584  31.433  20.677  10.641
56160W        W28585  30.608  33.115  13.404
56161W        W28586  39.947   4.771   0.730
56162W        W28587  31.012  23.697   3.158
56163W        W28588   4.449  12.227   4.674
56164W        W28589  19.231  43.298   3.764
56165W        W28590  34.576  19.263  13.485
56166W        W28591  29.094  42.830  14.910
56167W        W28592  23.680  16.715   2.281
56168W        W28593  19.263  27.524  11.863
56169W        W28594  12.266  26.113  13.527
56170W        W28595   2.939  13.278  13.853
56171W        W28596  24.117  31.005  10.518
56172W        W28597   6.410  29.059   2.249
56173W        W28598  28.050  42.944  12.956
56174W        W28599  44.379  30.459   3.655
56175W        W28600  35.958  21.112  14.288
56176W        W28601   2.834  17.142   2.745
56177W        W28602  36.085  24.144  10.536
56178W        W28603   2.280  30.016  13.062
56179W        W28604  27.452  44.447   3.246
56180W        W28605   5.207   9.811   3.215
56181W        W28606  14.594  19.705   0.896
56182W        W28607   9.802   4.865  11.092
56183W        W28608  33.081  23.567  11.044
56184W        W28609  11.325  35.933   3.167
56185W        W28610   5.869  36.507   4.768
56186W        W28611  24.663  11.856  12.571
56187W        W28612  44.328  33.961   4.211
56188W        W28613  34.939  23.137  14.766
56189W        W28614   4.388  41.964  12.867
56190W        W28615  23.657  16.616   1.267
56191W        W28616   2.815  24.595   0.294
56192W        W28617  22.579  16.764   4.682
56193W        W28618  36.941  40.919  14.020
56194W        W28619  39.882  17.702   1.703
56195W        W28620  42.942  33.404  14.002
56196W        W28621   5.315  34.114   0.471
56197W        W28622  18.589  16.222   0.812
56198W        W28623   2.347   8.700  12.830
56199W        W28624   3.240  42.929   2.203
56200W        W28625  33.473  15.262  13.791
56201W        W28626  23.107   2.304  12.428
56202W        W28627  44.445  23.103  12.889
56203W        W28628  39.954  30.093  13.998
56204W        W28629   8.787  42.964  14.944
56205W        W28630  18.746   6.282   9.986
56206W        W28631  24.642  11.762  10.416
56207W        W28632   4.854  22.134   4.675
56208W        W28633   2.843  34.012  10.941
56209W        W28634   5.321   5.726   2.677
56210W        W28635   0.776  32.480   4.668
56211W        W28636   0.870   3.355  13.402
56212W        W28637  33.086  20.107   0.775
56213W        W28638  27.463  40.007  11.507
56214W        W28639   3.444  39.519  13.840
56215W        W28640  12.764  23.710  13.362
56216W        W28641   5.216  23.032   1.392
56217W        W28642   9.720  29.548  10.472
56218W        W28643  38.356   6.385   3.759
56219W        W28644  34.048   3.404   2.359
56220W        W28645  17.244   2.750  14.797
56221W        W28646   3.320  23.561  14.881
56222W        W28647  34.384  27.452  14.894
56223W        W28648  19.183   5.750   0.303
56224W        W28649  28.565  18.224  10.567
56225W        W28650  17.134  18.181  14.473
56226W        W28651   6.207  19.633  12.455
56227W        W28652  10.312   9.773   0.923
56228W        W28653  30.135  20.640   4.694
56229W        W28654  26.571  26.587   0.312
56230W        W28655  42.878  27.529   3.163
56231W        W28656  24.169  28.675   1.236
56232W        W28657  29.100  33.382   4.137
56233W        W28658  18.245   5.380  14.341
56234W        W28659  40.537  35.049   1.433
56235W        W28660  31.002   5.241  10.934
56236W        W28661  23.538  12.701  11.105
56237W        W28662   5.197  14.675   0.730
56238W        W28663  31.424   8.381  13.401
56239W        W28664  21.080  15.087   3.752
56240W        W28665   3.361  16.261   1.717
56241W        W28666  15.695  27.144  14.966
56242W        W28667  10.750   9.366  12.892
56243W        W28668  22.087  24.186   1.322
56244W        W28669   6.295  37.517   4.796
56245W        W28670  13.214   0.895   4.639
56246W        W28671  20.131  33.972   3.770
56247W        W28672  27.153  29.052  11.928
56248W        W28673  21.537  44.765  11.607
56249W        W28674  11.630  22.521   3.313
56250W        W28675  31.996  23.569   1.723
56251W        W28676  25.621  42.479   3.157
56252W        W28677  38.399  40.509  13.014
56253W        W28678  38.549  44.400   3.219
56254W        W28679  30.147  17.555   1.750
56255W        W28680  13.314   7.272   9.976
56256W        W28681   0.918  21.597  10.579
56257W        W28682  12.762  29.538  10.426
56258W        W28683  25.162  28.999   1.779
56259W        W28684   1.402  17.219   1.718
56260W        W28685   8.847   0.963  11.888
56261W        W28686  15.180  13.702  12.925
56262W        W28687  20.590   4.822  12.536
56263W        W28688   3.459  11.764  13.316
56264W        W28689   1.925  40.942   4.205
56265W        W28690  44.875   1.404   4.162
56266W        W28691   6.358  38.992   9.959
56267W        W28692   9.750  21.178   3.196
56268W        W28693  35.039  31.456  13.964
56269W        W28694  22.667   7.877  11.428
56270W        W28695  12.621  15.135  12.897
56271W        W28696  39.522   6.854  10.937
56272W        W28697   2.738  20.270  13.357
56273W        W28698   5.277  15.790  10.406
56274W        W28699  42.788  21.536   0.828
56275W        W28700  32.971  14.276   0.371
56276W        W28701  11.666  40.455  12.826
56277W        W28702  43.469   6.184   1.436
56278W        W28703   4.887   3.291  12.922
56279W        W28704  11.840  25.989   3.249
56280W        W28705   6.371   9.889   2.348
56281W        W28706   3.871   2.285   3.153
56282W        W28707  14.591  21.516   4.740
56283W        W28708  12.273   6.209  12.468
56284W        W28709   7.808   0.390  12.342
56285W        W28710  30.449  35.503  14.289
56286W        W28711  24.722  10.862  12.988
56287W        W28712  20.598  36.425  14.758
56288W        W28713   0.333  20.668  14.378
56289W        W28714  35.863  36.864   3.856
56290W        W28715   6.212  41.809  11.092
56291W        W28716  24.150  11.164   1.810
56292W        W28717  23.542  20.070  11.858
56293W        W28718  28.082  40.915   3.857
56294W        W28719  18.675   7.716   2.239
56295W        W28720  38.362  24.629   9.572
56296W        W28721  22.081  24.664  14.352
56297W        W28722  18.587  30.535  14.963
56298W        W28723  34.551  10.380  10.998
56299W        W28724  27.468  20.139   3.656
56300W        W28725  21.758  28.670  11.947
56301W        W28726  10.223   3.943  11.894
56302W        W28727  20.255  18.264   4.620
56303W        W28728  27.674  34.587  11.106
56304W        W28729   1.399  37.992  14.945
56305W        W28730  24.113  29.480   1.248
56306W        W28731  42.974  18.125   1.378
56307W        W28732  27.572   5.844   3.654
56308W        W28733   2.380  20.114  14.920
56309W        W28734  41.533   9.362  13.031
56310W        W28735   8.826  30.490   1.278
56311W        W28736  43.297  44.366   2.718
56312W        W28737  35.991   2.290  14.360
56313W        W28738  43.849  39.981   0.888
56314W        W28739   4.715  41.017  11.401
56315W        W28740   7.201  31.104  14.895
56316W        W28741  21.523   5.263   1.713
56317W        W28742   0.952  12.655  12.533
56318W        W28743  22.237  14.801   4.817
56319W        W28744  41.435  30.151  11.455
56320W        W28745   0.307  13.801  10.520
56321W        W28746  19.164  18.729   3.684
56322W        W28747  30.639   7.334  12.577
56323W        W28748  39.541   9.805  13.913
56324W        W28749  37.050  25.058  13.474
56325W        W28750  19.253   7.330  13.036
56326W        W28751  40.340  22.149   3.662
56327W        W28752   3.759  24.228   1.315
56328W        W28753  24.689   6.319  12.931
56329W        W28754  22.097   0.482  11.036
56330W        W28755   9.235  28.151  14.515
56331W        W28756   9.841  41.877  14.816
56332W        W28757   5.385  27.142  11.525
56333W        W28758  31.634  36.081   0.866
56334W        W28759  40.472  14.096   1.260
56335W        W28760  22.201  13.170  14.495
56336W        W28761  19.223   6.410  13.413
56337W        W28762  34.106  39.847  13.489
56338W        W28763  18.565  32.583   1.747
56339W        W28764  13.233  18.565  12.386
56340W        W28765  24.719  41.962   0.410
56341W        W28766  37.992   8.392  14.869
56342W        W28767  30.598  24.696   3.302
56343W        W28768  39.351  39.938   4.114
56344W        W28769  35.978  31.432   3.351
56345W        W28770  30.631  40.439  11.999
56346W        W28771   9.379  28.016   1.405
56347W        W28772   8.662  37.489   0.446
56348W        W28773  16.274  29.498  12.382
56349W        W28774  10.637  13.147  10.582
56350W        W28775  32.494  24.690  12.944
56351W        W28776  36.051  24.675  10.963
56352W        W28777   2.294   1.941  11.095
56353W        W28778  36.499   6.812  10.982
56354W        W28779  22.173  21.568  10.430
56355W        W28780   8.380  22.700  13.893
56356W        W28781  11.834  20.228  13.013
56357W        W28782  21.257  43.833  14.353
56358W        W28783   0.284  26.191  13.343
56359W        W28784  16.238  20.260  11.054
56360W        W28785  23.020  41.367   2.333
56361W        W28786  14.630  33.044   3.749
56362W        W28787  37.872  42.957  10.146
56363W        W28788  39.454  32.970  10.512
56364W        W28789  11.780  41.858  13.981
56365W        W28790  18.280  10.209  13.428
56366W        W28791  19.065   1.818   3.238
56367W        W28792  41.930  28.091  14.359
56368W        W28793  42.297  37.047   0.900
56369W        W28794  12.670  29.023  11.593
56370W        W28795  44.888  16.766   2.721
56371W        W28796  33.496  27.518   2.877
56372W        W28797   9.758  35.854   0.949
56373W        W28798  30.085  16.779  14.385
56374W        W28799  43.331  29.447  12.390
56375W        W28800  39.832   5.886   0.871
56376W        W28801  20.040  10.786  11.543
56377W        W28802  35.886  10.275  12.061
56378W        W28803   8.690   5.202   4.835
56379W        W28804  16.624  19.745  11.375
56380W        W28805   6.858  36.450  12.399
56381W        W28806  27.583  29.051   3.730
56382W        W28807  42.808  21.716  11.607
56383W        W28808  12.773  10.363   0.451
56384W        W28809   5.400  26.590   0.340
56385W        W28810  20.230  34.066  12.398
56386W        W28811  28.593  28.099   4.674
56387W        W28812  37.039  10.672   0.756
56388W        W28813  11.855  23.999   1.325
56389W        W28814  38.030  36.890   4.329
56390W        W28815  41.490  29.457  13.423
56391W        W28816  43.003  29.106   0.768
56392W        W28817  27.465  30.054   0.413
56393W        W28818  28.950  36.510   3.266
56394W        W28819   5.901  33.552   1.365
56395W        W28820  26.482  25.621   0.891
56396W        W28821  10.671  40.998   1.895
56397W        W28822  12.326  16.797  13.850
56398W        W28823  38.927  21.731   0.903
56399W        W28824  42.956   6.867   3.633
56400W        W28825  25.610  44.375  13.860
56401W        W28826   1.434  20.249   4.155
56402W        W28827  32.996  20.761  13.503
56403W        W28828  26.528  22.684   4.178
56404W        W28829   4.899  17.640   0.367
56405W        W28830  43.856  35.526  12.384
56406W        W28831  18.281  29.613   4.157
56407W        W28832  21.038  39.987   1.424
56408W        W28833  40.833  42.391   0.875
56409W        W28834  34.440   6.908  12.060
56410W        W28835  40.332   3.367   4.634
56411W        W28836  40.824  17.117  14.419
56412W        W28837  39.504  31.149   2.779
56413W        W28838   8.219  39.015  13.825
56414W        W28839  36.096  31.069  13.344
56415W        W28840   6.385   5.916   1.340
56416W        W28841  15.644  44.940   1.292
56417W        W28842  35.576  38.999  12.847
56418W        W28843  33.457  40.856  10.583
56419W        W28844  28.960  29.029   2.753
56420W        W28845   9.228  33.541  13.902
56421W        W28846  24.096   7.348   4.649
56422W        W28847  44.926  19.572   2.685
56423W        W28848   1.975  39.429   0.374
56424W        W28849  19.147   9.231   2.180
56425W        W28850  30.001  21.107   0.411
56426W        W28851   4.424  34.056  10.511
56427W        W28852  12.153  18.625   1.715
56428W        W28853  31.428   4.357   2.825
56429W        W28854  32.425  15.305   0.423
56430W        W28855  34.509  30.476   1.249
56431W        W28856   2.825  34.041  14.969
56432W        W28857  38.398  32.106  10.598
56433W        W28858  14.799  40.010   3.190
56434W        W28859   1.434  35.553   0.339
56435W        W28860  25.541   7.799   0.826
56436W        W28861  17.197   8.218   2.292
56437W        W28862  35.962   7.342  14.883
56438W        W28863  16.135  41.949   4.265
56439W        W28864  29.453   2.917   0.807
56440W        W28865  30.983   9.779   1.446
56441W        W28866  10.194  31.002  13.863
56442W        W28867  19.600  23.022   3.193
56443W        W28868  39.857  25.587  12.435
56444W        W28869  23.118  38.035  10.442
56445W        W28870  12.250  39.522  10.460
56446W        W28871  14.604  11.739   1.867
56447W        W28872   9.661  11.832  13.526
56448W        W28873  11.339  20.578  14.316
56449W        W28874  20.756   3.330   0.367
56450W        W28875  11.216  29.934   1.223
56451W        W28876  17.582  17.582  13.356
56452W        W28877  32.608  40.964  13.332
56453W        W28878  15.198  23.590   4.657
56454W        W28879  40.870  28.496  13.831
56455W        W28880   6.296  37.921   4.179
56456W        W28881   2.364  37.413  10.470
56457W        W28882  34.371   1.422  12.421
56458W        W28883  13.303  25.067  10.467
56459W        W28884  11.242   3.865   4.188
56460W        W28885  23.046  23.038  11.071
56461W        W28886  34.886  32.392   1.327
56462W        W28887  41.977  41.425  14.437
56463W        W28888  44.383  22.658  12.938
56464W        W28889   8.702   5.255   0.849
56465W        W28890  15.144  22.583   1.886
56466W        W28891  26.542   4.943  14.989
56467W        W28892  15.637  12.272  14.881
56468W        W28893  26.155  41.525  11.076
56469W        W28894  15.094  34.517   2.291
56470W        W28895   4.805  44.490   3.255
56471W        W28896   4.710   8.242   4.837
56472W        W28897  14.094  16.714   0.964
56473W        W28898   5.864   1.858   1.880
56474W        W28899   8.322  36.029  13.988
56475W        W28900   7.755  23.142   0.270
56476W        W28901  41.516   8.772  14.420
56477W        W28902   6.332  12.704  14.029
56478W        W28903  18.086  44.885   4.683
56479W        W28904  34.417   8.324  12.569
56480W        W28905  25.688  22.157  14.451
56481W        W28906   4.856   7.794  13.841
56482W        W28907  37.423  44.996   1.231
56483W        W28908   2.960  16.139   3.183
56484W        W28909  19.717  16.798  13.995
56485W        W28910  10.337  29.449   4.605
56486W        W28911  12.766  25.044   1.420
56487W        W28912  10.722  25.140   3.365
56488W        W28913  21.639   9.821   4.271
56489W        W28914  40.393  29.141   1.232
56490W        W28915  18.754  33.411  13.811
56491W        W28916  14.712  39.050   1.928
56492W        W28917  18.728  42.977  13.875
56493W        W28918  32.406  31.635  14.969
56494W        W28919   0.768   6.893   4.275
56495W        W28920  17.669  39.894   0.923
56496W        W28921   3.332   1.280  13.949
56497W        W28922   6.873  28.010  14.429
56498W        W28923  24.537  25.978   3.728
56499W        W28924   8.766  13.284   2.318
56500W        W28925  41.438   7.304   3.689
56501W        W28926  15.132  25.572  14.841
56502W        W28927  32.554   5.713   4.163
56503W        W28928  34.531  25.187  11.894
56504W        W28929   7.840   6.248   4.123
56505W        W28930  14.684  26.172  14.455
56506W        W28931  10.697   5.211  10.532
56507W        W28932  10.661  24.563   4.249
56508W        W28933  16.134   2.940  14.484
56509W        W28934  34.457  44.357  10.979
56510W        W28935  22.153  16.616   0.293
56511W        W28936   5.800  37.419   4.352
56512W        W28937   8.709   5.911  12.543
56513W        W28938  37.056  10.355  12.990
56514W        W28939  29.122  43.776   1.803
56515W        W28940  40.949  22.591  13.865
56516W        W28941  24.563  26.155  12.033
56517W        W28942  41.495  33.075  14.339
56518W        W28943  23.142  34.387  14.337
56519W        W28944  19.593  43.352  14.418
56520W        W28945  14.319  34.500   3.148
56521W        W28946  38.936  41.789   2.263
56522W        W28947   5.363   0.313   3.710
56523W        W28948   5.264  11.130  11.592
56524W        W28949  25.151  37.509   3.844
56525W        W28950  23.153  15.580  14.353
56526W        W28951  26.061  44.915   2.189
56527W        W28952  33.042  15.179  10.407
56528W        W28953  29.011  36.041  12.527
56529W        W28954  16.610  24.562   3.364
56530W        W28955  19.709  37.962  14.959
56531W        W28956  25.074  12.182   1.713
56532W        W28957  42.440   7.712  10.945
56533W        W28958   1.826  43.308   0.840
56534W        W28959   9.391   1.770   3.687
56535W        W28960  38.559  12.792  11.083
56536W        W28961  34.558  11.630   3.765
56537W        W28962  32.038   7.329   3.199
56538W        W28963   8.216  34.119   0.403
56539W        W28964  23.526   9.880  11.975
56540W        W28965   6.677  44.843  13.354
56541W        W28966  13.340  44.009  12.093
56542W        W28967  35.045  39.932   1.923
56543W        W28968  26.162  31.943   3.288
56544W        W28969  13.791  28.186  13.530
56545W        W28970  19.179  42.500   3.851
56546W        W28971  27.197  27.468   2.674
56547W        W28972  40.311  38.428  12.008
56548W        W28973   4.422  16.794  11.052
56549W        W28974   2.812  30.058  13.520
56550W        W28975  23.092  20.724   4.289
56551W        W28976  18.073  21.612  11.561
56552W        W28977  38.071  25.098   1.283
56553W        W28978  37.385  12.189  13.959
56554W        W28979  23.594   6.373   3.272
56555W        W28980  39.021  22.517   2.697
56556W        W28981  30.102  20.557   1.728
56557W        W28982  27.960   4.789   1.373
56558W        W28983  32.021   0.938   0.825
56559W        W28984  42.503  29.107   4.245
56560W        W28985  37.356  33.548   2.861
56561W        W28986  44.811  37.997  13.855
56562W        W28987  14.642  30.957  13.870
56563W        W28988   0.312  25.005   1.247
56564W        W28989  40.940   3.287  11.012
56565W        W28990  43.800  11.317  13.977
56566W        W28991  23.170   2.859  13.853
56567W        W28992   1.892  27.665  10.482
56568W        W28993  43.778  12.614   4.174
56569W        W28994   5.806  37.582  11.912
56570W        W28995  38.071  33.518   3.306
56571W        W28996  20.132  40.476  14.354
56572W        W28997  18.209   3.745   3.826
56573W        W28998  39.378  21.740   0.338
56574W        W28999  34.043  38.405  12.877
56575W        W29000  26.112  36.354  12.377
56576W        W29001  10.292   3.940  10.104
56577W        W29002  29.109   4.931  13.811
56578W        W29003  32.079  28.077   4.288
56579W        W29004  33.011  11.843   0.871
56580W        W29005  34.880  36.353  14.313
56581W        W29006   8.819  21.047   1.905
56582W        W29007  41.972   1.378   0.421
56583W        W29008  34.944  32.398   4.681
56584W        W29009  43.983  27.690   3.368
56585W        W29010  38.515  43.460   2.717
56586W        W29011  33.057   8.179   4.355
56587W        W29012   6.214  29.567  13.330
56588W        W29013  22.020  24.992  10.498
56589W        W29014  24.068  20.122  12.536
56590W        W29015   8.675  24.121  10.465
56591W        W29016   5.799  36.543   4.341
56592W        W29017  43.343   6.861   3.283
56593W        W29018   0.846  24.080  11.892
56594W        W29019  39.867  14.100   4.698
56595W        W29020  17.604   0.303   1.276
56596W        W29021  34.588  20.145   0.771
56597W        W29022  31.140  30.123   0.481
56598W        W29023  39.013  11.131   3.289
56599W        W29024  25.094   8.888  13.027
56600W        W29025  10.201  27.510  13.414
56601W        W29026  19.589  33.080  12.062
56602W        W29027   1.360  37.406  12.572
56603W        W29028  28.999  41.340  14.005
56604W        W29029  32.444  13.342   0.886
56605W        W29030  30.509  42.963  11.034
56606W        W29031  26.660  36.361   4.731
56607W        W29032   6.922  14.643   4.616
56608W        W29033  31.119   8.212  10.946
56609W        W29034  17.282  20.124   3.839
56610W        W29035  42.349  35.380  13.952
56611W        W29036  16.080   9.788  14.823
56612W        W29037  42.997   3.308   3.196
56613W        W29038   4.327   4.250  13.003
56614W        W29039  23.125   2.401   2.867
56615W        W29040  14.262  37.571  13.799
56616W        W29041  20.249  30.923  12.827
56617W        W29042  19.076  21.079  11.873
56618W        W29043  11.774  14.170   1.339
56619W        W29044  29.049  44.423  12.459
56620W        W29045  16.290  41.872  14.385
56621W        W29046  24.577   6.812   4.327
56622W        W29047  16.134   0.352  14.305
56623W        W29048  29.655  30.139  12.952
56624W        W29049  20.032  38.507   3.205
56625W        W29050  32.070   4.314   2.886
56626W        W29051  33.476  16.242   2.872
56627W        W29052   8.240  14.130   2.209
56628W        W29053  35.868   7.705   4.684
56629W        W29054   1.246  23.503  14.422
56630W        W29055  22.140  26.154  13.999
56631W        W29056  41.416  20.028   5.178
56632W        W29057   0.745  25.629  13.354
56633W        W29058  37.982  34.113   0.451
56634W        W29059  39.397   0.886  10.063
56635W        W29060  14.804  14.663  11.977
56636W        W29061  33.421  33.407   4.270
56637W        W29062  33.065  14.188  10.408
56638W        W29063  24.678  24.581  13.823
56639W        W29064  20.124   4.917   3.259
56640W        W29065   4.815  19.682  10.148
56641W        W29066  26.026   2.792   3.823
56642W        W29067  36.503  24.596  14.434
56643W        W29068  39.056  17.173   0.255
56644W        W29069  13.645   4.706   2.791
56645W        W29070  18.075   0.939  13.542
56646W        W29071  11.625   1.934   2.314
56647W        W29072  12.668  31.959  13.822
56648W        W29073  16.301  38.885  11.501
56649W        W29074   8.219  34.987   3.796
56650W        W29075  15.687   6.681   3.163
56651W        W29076  21.161   3.736   4.792
56652W        W29077  28.086   5.193  13.801
56653W        W29078  26.058  15.155  14.794
56654W        W29079  21.692   3.445   4.280
56655W        W29080  28.975   7.673  10.528
56656W        W29081  27.984  14.739  11.076
56657W        W29082  30.123  43.373   3.681
56658W        W29083  19.235  24.038  14.475
56659W        W29084  36.008   1.483   1.846
56660W        W29085  15.222  20.711  14.400
56661W        W29086   8.710   5.399  12.421
56662W        W29087   5.232  31.947   1.405
56663W        W29088  39.523  34.373  10.591
56664W        W29089  34.375  35.929  12.868
56665W        W29090  27.675  27.451   4.788
56666W        W29091  35.509  39.878   1.732
56667W        W29092  41.419  29.634   0.822
56668W        W29093  40.399  43.998   1.777
56669W        W29094  18.785  40.955   1.372
56670W        W29095  14.760  30.624  11.028
56671W        W29096   7.778   3.390  14.023
56672W        W29097  43.401  16.623   4.702
56673W        W29098  18.710  39.454   3.285
56674W        W29099  44.322  13.161  10.614
56675W        W29100  11.843  11.805  11.588
56676W        W29101  16.756  38.883  13.981
56677W        W29102  24.618  21.605  13.938
56678W        W29103  23.159  13.309   3.783
56679W        W29104  44.794  34.961  12.879
56680W        W29105  36.949  30.414   1.914
56681W        W29106  18.060  13.175  12.977
56682W        W29107   3.328  30.655   2.196
56683W        W29108   7.854  13.164  12.440
56684W        W29109  19.605  36.380  11.437
56685W        W29110   2.472  12.117  11.075
56686W        W29111   9.878  12.227   3.380
56687W        W29112  12.268  16.129   2.409
56688W        W29113  16.109  15.812   1.744
56689W        W29114  30.484   6.704  11.955
56690W        W29115  19.190  29.439  12.574
56691W        W29116  43.401  28.609   1.253
56692W        W29117  32.046  19.587   2.185
56693W        W29118  24.126  11.221  11.125
56694W        W29119  39.364  26.133  12.850
56695W        W29120  38.472  17.645   4.290
56696W        W29121  44.343   2.761   0.788
56697W        W29122  32.910  35.580   4.640
56698W        W29123  18.619  39.465   3.774
56699W        W29124   8.785  26.066   1.263
56700W        W29125  33.554  32.100   5.111
56701W        W29126  26.093  29.927   3.732
56702W        W29127   7.369  21.116   0.868
56703W        W29128  16.110   4.840   4.740
56704W        W29129  13.742  15.092   1.328
56705W        W29130  37.516  33.395  10.406
56706W        W29131  30.458   3.951   0.252
56707W        W29132  44.887  39.888   3.336
56708W        W29133  27.039   3.309  13.416
56709W        W29134  36.400  40.867   4.164
56710W        W29135  21.226  44.504  12.526
56711W        W29136  23.036  17.715   2.833
56712W        W29137   1.799  41.501  13.487
56713W        W29138  19.719  36.950  10.423
56714W        W29139   6.743   8.885   0.471
56715W        W29140  38.994  35.858  13.003
56716W        W29141   8.830  12.657  14.839
56717W        W29142  20.616  34.613   0.747
56718W        W29143   7.703  35.878   2.243
56719W        W29144  21.201  32.063  12.503
56720W        W29145   0.352  17.784   2.419
56721W        W29146  18.122   7.289   2.666
56722W        W29147  29.111   5.413  13.839
56723W        W29148   2.297  21.569   0.286
56724W        W29149   0.742  13.187   3.269
56725W        W29150  20.645  40.516  14.005
56726W        W29151  34.107  39.833   2.876
56727W        W29152   2.833  28.477   3.225
56728W        W29153  36.458  28.069  14.277
56729W        W29154   2.918  10.290  13.420
56730W        W29155  28.129  12.259  10.597
56731W        W29156  24.178  43.363   4.674
56732W        W29157  29.666  10.344   3.867
56733W        W29158   7.413  26.636   1.800
56734W        W29159  23.575  25.166  14.450
56735W        W29160   4.881  12.236  14.859
56736W        W29161   2.857  14.593  14.835
56737W        W29162  13.729  30.989  13.011
56738W        W29163  13.611   6.723  14.482
56739W        W29164   3.945  25.671   1.256
56740W        W29165   2.887  24.703   2.803
56741W        W29166   6.227  43.388   4.254
56742W        W29167  31.616  19.664   9.612
56743W        W29168  35.075  28.616   2.330
56744W        W29169  22.620  34.448  10.623
56745W        W29170  28.955   0.404   4.264
56746W        W29171  44.823  17.753   0.921
56747W        W29172  26.952  42.492   1.446
56748W        W29173   3.455   9.645   0.445
56749W        W29174   6.356  22.218  11.945
56750W        W29175  39.347  26.126   2.722
56751W        W29176  28.551  11.372   1.820
56752W        W29177  13.751   1.245   3.658
56753W        W29178  22.187  44.802   0.758
56754W        W29179   1.920   2.227   2.364
56755W        W29180  13.257  35.057   1.271
56756W        W29181   9.354  27.136   4.663
56757W        W29182  25.663  16.636  10.976
56758W        W29183  26.958  22.126  12.924
56759W        W29184   2.228  16.186  11.556
56760W        W29185  21.243   2.462  12.487
56761W        W29186  28.097   2.802   2.198
56762W        W29187  31.454  26.160   4.696
56763W        W29188  17.185   1.288   5.261
56764W        W29189  11.369  44.975   1.799
56765W        W29190  42.836  24.157  13.523
56766W        W29191  27.964   5.408   0.874
56767W        W29192  10.365  29.649  12.858
56768W        W29193  13.321  39.899   4.623
56769W        W29194  44.434   0.837   3.298
56770W        W29195  37.357  17.297   3.289
56771W        W29196  31.505  18.670   4.801
56772W        W29197  11.212  40.870   4.126
56773W        W29198   6.310  13.742   0.335
56774W        W29199  43.291  43.950   3.371
56775W        W29200  32.505  23.125  10.948
56776W        W29201  40.038  24.079  10.925
56777W        W29202  13.817   2.771  14.901
56778W        W29203  32.539  12.265  13.455
56779W        W29204  26.670  22.661  12.088
56780W        W29205   3.926  23.241  12.477
56781W        W29206  27.031  27.536   1.417
56782W        W29207  33.608  12.197   1.808
56783W        W29208   6.361  26.460   2.203
56784W        W29209  22.094  11.731  10.442
56785W        W29210  42.925  36.988   2.376
56786W        W29211  22.747   3.246  14.516
56787W        W29212  30.585  13.702  13.806
56788W        W29213   3.775  28.483   2.388
56789W        W29214  40.428  27.546   0.344
56790W        W29215  33.991   8.733   4.665
56791W        W29216   0.877  37.878  14.982
56792W        W29217  26.039  31.482   1.331
56793W        W29218  18.166   2.809  10.493
56794W        W29219  41.824  29.007   1.921
56795W        W29220  19.113   1.360  10.926
56796W        W29221  12.819  29.116  12.883
56797W        W29222   3.748  15.744   0.869
56798W        W29223  41.010  39.040  13.807
56799W        W29224  19.571  36.579   2.813
56800W        W29225  11.162  26.025  13.931
56801W        W29226  15.607  20.677  13.949
56802W        W29227  14.291  34.868  12.535
56803W        W29228   5.791  39.537  13.369
56804W        W29229  12.158  35.494   3.831
56805W        W29230  35.562  21.522   3.203
56806W        W29231  17.753  40.934   1.924
56807W        W29232  13.245   5.775   0.253
56808W        W29233  17.231  36.530  12.534
56809W        W29234  37.984  32.584   0.479
56810W        W29235  12.269  17.576  12.067
56811W        W29236  18.230  44.272  14.897
56812W        W29237  31.437  16.200   0.837
56813W        W29238  43.934   8.329  12.385
56814W        W29239  10.196  35.007  10.150
56815W        W29240  13.689   2.895   4.786
56816W        W29241  32.992  14.337   0.876
56817W        W29242  39.964  23.013   2.898
56818W        W29243  38.342  41.497   3.347
56819W        W29244  11.250  20.560  11.424
56820W        W29245  21.672  18.709  13.385
56821W        W29246  32.034  11.750   1.445
56822W        W29247  25.984   2.364   4.205
56823W        W29248  27.975  25.114   0.956
56824W        W29249   1.442   5.248   2.847
56825W        W29250  13.147   9.770  12.358
56826W        W29251  37.066  29.521  12.393
56827W        W29252  39.898  39.985   3.353
56828W        W29253  17.197  19.770   4.781
56829W        W29254   5.731  30.095  12.082
56830W        W29255  11.359  29.592   3.728
56831W        W29256  25.090  28.649  11.419
56832W        W29257   3.927  36.586  14.870
56833W        W29258   4.745  14.114   5.138
56834W        W29259   2.956   4.361  13.989
56835W        W29260  37.355  23.605  10.949
56836W        W29261  33.096  11.273   2.850
56837W        W29262   0.248  23.074  13.000
56838W        W29263   3.378  19.199  11.946
56839W        W29264  42.395  12.752   3.240
56840W        W29265   4.378  10.717  10.990
56841W        W29266  30.922  34.893  10.561
56842W        W29267  31.121  40.912   1.370
56843W        W29268  16.314  16.249  12.536
56844W        W29269  38.065  11.344  10.447
56845W        W29270  24.039  25.966   2.720
56846W        W29271  27.515  40.016  10.596
56847W        W29272  26.526  21.626  11.575
56848W        W29273  25.485  12.710  13.438
56849W        W29274  44.306   6.388  11.420
56850W        W29275   7.876  32.053  11.975
56851W        W29276  26.563   5.406   0.957
56852W        W29277   8.186   8.711   2.722
56853W        W29278   0.451  24.677  13.883
56854W        W29279   7.190  41.806  13.496
56855W        W29280  24.543  10.804  13.518
56856W        W29281   1.373  40.546  14.333
56857W        W29282  35.577  27.480  10.927
56858W        W29283  38.913  26.165   2.251
56859W        W29284   6.296  38.383   1.848
56860W        W29285  26.184  38.510   2.898
56861W        W29286  34.046  13.105   1.332
56862W        W29287  13.833  26.465   2.743
56863W        W29288  38.858   7.416  14.884
56864W        W29289  43.494  19.173  11.513
56865W        W29290   3.750  38.936  11.859
56866W        W29291   6.370  34.094  13.806
56867W        W29292  31.980  41.994  11.970
56868W        W29293  17.237  24.612   1.438
56869W        W29294  28.080  14.101   2.375
56870W        W29295  13.217  20.645  11.964
56871W        W29296  10.768  29.945   2.209
56872W        W29297  26.529  20.631   4.756
56873W        W29298   0.264   6.857   2.286
56874W        W29299  28.613  35.910   1.377
56875W        W29300   1.438  19.740  12.422
56876W        W29301  17.771  28.565   2.894
56877W        W29302  33.412  42.306  10.580
56878W        W29303  26.675  11.280   3.347
56879W        W29304   1.744  41.789   2.667
56880W        W29305  39.815  23.177   1.366
56881W        W29306   8.834  38.974  10.633
56882W        W29307  17.113  43.822   3.380
56883W        W29308   9.387  41.363   0.335
56884W        W29309  29.947  22.574  12.853
56885W        W29310  36.557  26.685   1.775
56886W        W29311  30.121   4.416   4.242
56887W        W29312  18.762  29.157  13.807
56888W        W29313  21.060  22.176  11.109
56889W        W29314  29.024  34.901   3.743
56890W        W29315  27.969  33.593  10.490
56891W        W29316  43.423  28.642  14.825
56892W        W29317  12.249   4.217  14.921
56893W        W29318  21.651   0.310  13.507
56894W        W29319   5.342   8.799   5.243
56895W        W29320  14.682   4.833  12.841
56896W        W29321  10.816  40.849  11.916
56897W        W29322  29.175  11.186   1.895
56898W        W29323  24.648   1.925  11.544
56899W        W29324   2.250  20.616  11.980
56900W        W29325  23.647  13.654  12.511
56901W        W29326  14.320  35.371  14.861
56902W        W29327  14.781  42.491  12.567
56903W        W29328  39.888  25.995  14.963
56904W        W29329  18.147   8.875   3.759
56905W        W29330  18.722  23.164  12.991
56906W        W29331  35.877  43.302   1.301
56907W        W29332   6.258  17.736  13.017
56908W        W29333  13.263  20.054   4.800
56909W        W29334  26.072  36.525  14.848
56910W        W29335  21.182   7.800   3.814
56911W        W29336  35.433  40.950  14.345
56912W        W29337  37.919  14.148   1.314
56913W        W29338  41.512   0.381  11.989
56914W        W29339  40.355  11.862  12.520
56915W        W29340  12.848  32.521   0.966
56916W        W29341  20.572  22.740   2.406
56917W        W29342  40.922   9.284   3.825
56918W        W29343  36.398  42.362   3.853
56919W        W29344  17.153  40.981   3.364
56920W        W29345  29.635  19.643   1.441
56921W        W29346  42.842   2.885  13.499
56922W        W29347   8.285  30.150  12.942
56923W        W29348  23.116  41.905   0.387
56924W        W29349  29.086   8.836   2.803
56925W        W29350  29.141  22.146  13.368
56926W        W29351  42.963  33.512  13.355
56927W        W29352  13.647  33.048   0.738
56928W        W29353  17.668  10.321   4.661
56929W        W29354  40.477  15.293  14.799
56930W        W29355  29.436  38.473   1.905
56931W        W29356   6.187  25.483  11.464
56932W        W29357  44.455  11.784  13.906
56933W        W29358  39.534  31.986  14.497
56934W        W29359  42.488  35.585   1.822
56935W        W29360  26.514  34.987  14.323
56936W        W29361  30.133  17.138  10.005
56937W        W29362   0.943   2.422  13.063
56938W        W29363  29.063   6.709   3.656
56939W        W29364  22.058  22.521  11.409
56940W        W29365  23.651  29.471  13.905
56941W        W29366  25.012  38.327   2.322
56942W        W29367  14.674   9.757   2.274
56943W        W29368  14.234   6.776   4.314
56944W        W29369  26.968  30.146  13.448
56945W        W29370  15.179  13.619   4.148
56946W        W29371  38.385  19.746  13.489
56947W        W29372   2.334  15.233   0.915
56948W        W29373  34.502  14.189   1.779
56949W        W29374  40.546  17.273   2.184
56950W        W29375  30.436  23.635   4.761
56951W        W29376  30.106  12.187  10.944
56952W        W29377  31.570  26.591   3.692
56953W        W29378   7.180  44.395   2.366
56954W        W29379  28.576  38.340   4.280
56955W        W29380  33.942  35.554  13.494
56956W        W29381  23.144  19.707  14.939
56957W        W29382  20.183  37.052   1.800
56958W        W29383  22.516  24.559  12.519
56959W        W29384  34.976   7.673   2.272
56960W        W29385  20.169  10.746   3.727
56961W        W29386  30.127  16.735  12.468
56962W        W29387  37.858  11.353   1.711
56963W        W29388  26.009  17.134  14.481
56964W        W29389  41.351  26.140   3.180
56965W        W29390  19.209  24.586  11.607
56966W        W29391  12.835  32.901   0.287
56967W        W29392  43.792   9.649  13.865
56968W        W29393  30.540  14.705  14.789
56969W        W29394   6.354   6.799   2.189
56970W        W29395  28.008  32.525  12.949
56971W        W29396  30.534   4.726   2.890
56972W        W29397  44.346   5.288   2.348
56973W        W29398  34.868  39.028  13.852
56974W        W29399  12.726  22.089   0.727
56975W        W29400  25.207  37.866  11.976
56976W        W29401  36.543  27.550  14.393
56977W        W29402  38.901  32.398  12.845
56978W        W29403   6.838  25.182   1.711
56979W        W29404  31.632  27.163  13.458
56980W        W29405   4.799  17.241  13.945
56981W        W29406  20.169  34.551   2.333
56982W        W29407  30.090  12.635  14.934
56983W        W29408  19.708  43.350   2.301
56984W        W29409  36.544  31.115  13.959
56985W        W29410  23.135   7.218  13.811
56986W        W29411   0.918  16.591   1.435
56987W        W29412  37.034  30.642  14.835
56988W        W29413  36.042  38.872   3.868
56989W        W29414  32.452   2.864   0.390
56990W        W29415  41.395  36.361  11.396
56991W        W29416  13.214  40.985   4.231
56992W        W29417  41.985   4.908  14.282
56993W        W29418  22.125  34.052   2.748
56994W        W29419  23.709  42.878   4.121
56995W        W29420  18.084  32.042   0.461
56996W        W29421   7.895   2.337  13.040
56997W        W29422  11.163  14.798  11.488
56998W        W29423   9.339  13.760   1.807
56999W        W29424  16.291  22.741  12.896
57000W        W29425   0.935  14.252  13.836
57001W        W29426  36.478  41.995   2.217
57002W        W29427  10.871  12.305   1.928
57003W        W29428  37.392  25.056   1.730
57004W        W29429  23.687  35.441   1.899
57005W        W29430  12.147  25.591   2.767
57006W        W29431   9.176  12.744  14.344
57007W        W29432  42.818  44.488  13.968
57008W        W29433  17.685  18.226  14.820
57009W        W29434  44.471  38.361   0.396
57010W        W29435  36.881   7.396  12.082
57011W        W29436  14.112  21.609   1.748
57012W        W29437  26.575  37.506   0.850
57013W        W29438  32.998  11.341   3.825
57014W        W29439  16.123  33.491  12.897
57015W        W29440  42.892   3.735   1.890
57016W        W29441  22.585   1.316   4.176
57017W        W29442  25.119  31.036  13.478
57018W        W29443  31.462  24.104  10.460
57019W        W29444  14.339  32.897  10.030
57020W        W29445  30.971  12.804  14.828
57021W        W29446  24.584  13.351  14.879
57022W        W29447  34.390   5.402  11.411
57023W        W29448  41.999  44.007   3.747
57024W        W29449   7.353  15.586  13.541
57025W        W29450  26.192  18.274  13.956
57026W        W29451   0.258  29.447  10.450
57027W        W29452  40.419  34.383   4.316
57028W        W29453   7.863   8.884  12.566
57029W        W29454  26.040   9.768  13.438
57030W        W29455   3.735  11.163   1.804
57031W        W29456  12.840  27.045  11.586
57032W        W29457  17.783  44.802   2.875
57033W        W29458  32.979  12.680  11.049
57034W        W29459  27.637  31.015  11.888
57035W        W29460  18.649  25.553  14.278
57036W        W29461  14.813   5.260   3.764
57037W        W29462  13.623   0.293  12.366
57038W        W29463  40.410  14.308   0.755
57039W        W29464   0.284  44.396   0.360
57040W        W29465  19.040  40.947   4.194
57041W        W29466   8.399  42.775   4.820
57042W        W29467   3.446  36.006  14.883
57043W        W29468   4.717   7.188  13.878
57044W        W29469  18.571  16.312   2.900
57045W        W29470  30.516  44.962  12.480
57046W        W29471  10.714  33.081   1.220
57047W        W29472  16.317  18.286  14.890
57048W        W29473   8.717  31.023  12.498
57049W        W29474  34.009  32.545  10.406
57050W        W29475  40.836  40.344   4.117
57051W        W29476  17.797  13.106   0.847
57052W        W29477  27.562   7.278   0.749
57053W        W29478   5.328   8.835   3.795
57054W        W29479  22.623  33.450   3.706
57055W        W29480  33.602  34.878   3.283
57056W        W29481   1.742  26.157  12.982
57057W        W29482  15.578  19.627  10.944
57058W        W29483  18.756   8.286   2.288
57059W        W29484  35.467  24.028   0.263
57060W        W29485  35.951  43.341   0.886
57061W        W29486  19.774  36.003  10.065
57062W        W29487  19.623  36.395  10.602
57063W        W29488  44.391  42.986   1.329
57064W        W29489  15.761  41.515   1.226
57065W        W29490   8.765   9.325   2.414
57066W        W29491   0.494  39.836  12.873
57067W        W29492  18.642  15.692  10.027
57068W        W29493  31.534  34.963  11.398
57069W        W29494  40.437  27.020   2.204
57070W        W29495  40.342   4.749   4.301
57071W        W29496   2.898  30.917  13.873
57072W        W29497  33.449  44.992  11.939
57073W        W29498   7.310  33.932  14.289
57074W        W29499  19.557  10.277  13.945
57075W        W29500  17.214  33.606   2.418
57076W        W29501  28.159  29.488   4.744
57077W        W29502  21.248  17.800  10.629
57078W        W29503  19.079   4.206   4.189
57079W        W29504   3.264  15.819  11.601
57080W        W29505   7.370  39.811   3.386
57081W        W29506  21.651   5.838   3.295
57082W        W29507   7.214   5.415  14.862
57083W        W29508  44.775  29.609   4.637
57084W        W29509   6.829  21.559  11.077
57085W        W29510  32.037  22.096   2.729
57086W        W29511   8.712  17.584  14.004
57087W        W29512  18.288  37.369  12.012
57088W        W29513  31.001  42.839   3.864
57089W        W29514  27.576  42.886   2.799
57090W        W29515  21.151  32.624  12.384
57091W        W29516  42.843  10.838   1.235
57092W        W29517   6.882  44.471  10.630
57093W        W29518  36.499   0.809  14.368
57094W        W29519   1.302  13.251   1.227
57095W        W29520  29.554   0.377   1.409
57096W        W29521   4.445  16.164  10.486
57097W        W29522  40.317  21.162  13.908
57098W        W29523  22.038  25.556  13.003
57099W        W29524  34.049  30.445  11.464
57100W        W29525  14.256  29.659  11.495
57101W        W29526   5.814   5.215   4.756
57102W        W29527  20.120   4.799  13.388
57103W        W29528   6.835  34.479   5.728
57104W        W29529   8.361  40.499   1.807
57105W        W29530  25.525  38.466   1.225
57106W        W29531  19.226  29.139   5.207
57107W        W29532   0.793  16.074  12.466
57108W        W29533  43.785  32.001  14.468
57109W        W29534   5.920  10.244  14.979
57110W        W29535   6.733  20.731  14.995
57111W        W29536   2.263  15.245  14.442
57112W        W29537   2.384  13.271   3.758
57113W        W29538   5.729  10.745  11.970
57114W        W29539  37.911  18.270  13.352
57115W        W29540  39.473  21.646  11.105
57116W        W29541  17.653  29.556  14.788
57117W        W29542  42.832  20.712   4.221
57118W        W29543  43.979  12.818  13.952
57119W        W29544  22.164  13.191   1.738
57120W        W29545   2.805  32.028   2.842
57121W        W29546  19.609  23.026  14.799
57122W        W29547  14.236  15.718   0.403
57123W        W29548  39.507  38.934  13.853
57124W        W29549  44.498  33.008   4.751
57125W        W29550  36.454  11.728  12.063
57126W        W29551  21.175  34.052   4.265
57127W        W29552  11.244  12.167   1.866
57128W        W29553  13.638  10.277   4.212
57129W        W29554  15.165  44.862  14.874
57130W        W29555  23.700   6.677   2.772
57131W        W29556  15.092   8.791   4.677
57132W        W29557  22.046  18.100  13.340
57133W        W29558   7.883  44.010  10.623
57134W        W29559   8.833  21.687  13.968
57135W        W29560  21.062  16.110  11.069
57136W        W29561  26.032   4.274   1.407
57137W        W29562  40.313  26.991   3.336
57138W        W29563   0.364  41.452   4.149
57139W        W29564  18.216  30.014   4.230
57140W        W29565   4.917  44.926  14.516
57141W        W29566   7.727  41.356  12.399
57142W        W29567   1.482  40.417   3.861
57143W        W29568  35.070  14.223   1.861
57144W        W29569  16.273   8.752   3.632
57145W        W29570  18.107  41.342  13.436
57146W        W29571  10.789  42.011  11.909
57147W        W29572  37.492  35.078   0.743
57148W        W29573  33.055  31.534   2.852
57149W        W29574  13.769  24.141   9.639
57150W        W29575   0.462  24.693  13.384
57151W        W29576  10.842  18.273   3.855
57152W        W29577   5.244  36.917  13.902
57153W        W29578  37.930  19.540  10.644
57154W        W29579  10.227  20.237   2.844
57155W        W29580   5.374   9.833  14.879
57156W        W29581  24.048  39.950  10.435
57157W        W29582   4.304  39.918  11.890
57158W        W29583  13.795   5.397  11.491
57159W        W29584  21.242  35.964  11.051
57160W        W29585  36.383  12.823  13.399
57161W        W29586  10.277  24.069  14.931
57162W        W29587  32.498  25.643  10.967
57163W        W29588  11.798  23.080   5.672
57164W        W29589  29.629  38.529  14.021
57165W        W29590  35.400  28.673  12.512
57166W        W29591  29.564   7.195  12.540
57167W        W29592  23.506   8.250   0.943
57168W        W29593   3.805  43.419   1.436
57169W        W29594  42.959   9.822  13.547
57170W        W29595  17.787  43.321  11.502
57171W        W29596  41.028  44.405   5.628
57172W        W29597  11.809  15.220  13.515
57173W        W29598  20.581  34.391   3.332
57174W        W29599  36.093  36.416  11.530
57175W        W29600  12.706  31.906   0.959
57176W        W29601  44.785  36.882   0.796
57177W        W29602   2.419  15.804  10.631
57178W        W29603  39.953  28.563   3.664
57179W        W29604  19.273   0.296  10.152
57180W        W29605  38.970   2.877  13.317
57181W        W29606  40.332  38.498   2.669
57182W        W29607  38.388  41.302   0.933
57183W        W29608  21.032  11.363  13.508
57184W        W29609  24.021  17.231  14.906
57185W        W29610  13.806  18.780   3.177
57186W        W29611  13.118  32.527   4.226
57187W        W29612   0.363   1.937   0.300
57188W        W29613  39.410  29.136   2.243
57189W        W29614  40.376  26.141   0.800
57190W        W29615  28.072  30.149   1.279
57191W        W29616  33.420  30.910  14.309
57192W        W29617   1.359   2.859  11.869
57193W        W29618  38.901  41.524   3.333
57194W        W29619   4.917   6.758   3.302
57195W        W29620  30.910   1.351   1.695
57196W        W29621   5.243   6.835  12.342
57197W        W29622   6.754  17.209  12.917
57198W        W29623  22.733  10.371   3.759
57199W        W29624  15.811  28.544  11.414
57200W        W29625  33.109  18.270   1.851
57201W        W29626  21.756  28.936   2.883
57202W        W29627  27.962  11.343   2.783
57203W        W29628  16.129  37.909  13.882
57204W        W29629  14.774  18.720   1.215
57205W        W29630  37.959  38.389   2.899
57206W        W29631  17.251   7.885   1.908
57207W        W29632  24.049  13.768  14.916
57208W        W29633  17.794  18.565  10.612
57209W        W29634   0.769  25.183   2.883
57210W        W29635  42.429  20.069   2.740
57211W        W29636  31.525   0.983  14.012
57212W        W29637  31.958  33.391   1.309
57213W        W29638  18.728  27.658  11.427
57214W        W29639   2.751  28.152  13.481
57215W        W29640  20.037  22.083   0.791
57216W        W29641  24.166  39.031   0.782
57217W        W29642   7.854  21.571  14.331
57218W        W29643  44.782   0.765   2.887
57219W        W29644  42.937  22.676   2.769
57220W        W29645  33.514   4.878  13.814
57221W        W29646  13.608  15.644  10.454
57222W        W29647  25.108  33.035   3.678
57223W        W29648  30.440   9.813   3.298
57224W        W29649  19.705  23.239  11.558
57225W        W29650   6.863  16.809  11.558
57226W        W29651  15.594  22.116  11.069
57227W        W29652  38.335  17.143  12.518
57228W        W29653  39.476  34.957  13.403
57229W        W29654  43.317  41.926   1.333
57230W        W29655  26.161  44.890   0.859
57231W        W29656   5.378  40.039  12.347
57232W        W29657  38.545  34.038  12.043
57233W        W29658  10.638   6.684   4.677
57234W        W29659  25.032  16.084   2.241
57235W        W29660  25.983   4.889  12.079
57236W        W29661  12.264  16.657   0.467
57237W        W29662   4.792  11.728  13.428
57238W        W29663  40.357  33.481   0.737
57239W        W29664  27.523  32.527   1.774
57240W        W29665  33.025   8.829   3.174
57241W        W29666  41.530  10.382   2.214
57242W        W29667  13.193  14.290   0.864
57243W        W29668  21.633  43.302  12.459
57244W        W29669  41.313  34.968   4.151
57245W        W29670   2.352  20.109   3.805
57246W        W29671   5.202  38.950   0.425
57247W        W29672  19.110  30.601  10.613
57248W        W29673  10.367  30.052   4.827
57249W        W29674  30.646  24.506  14.420
57250W        W29675  35.894  38.440   0.382
57251W        W29676  12.269  10.291   0.848
57252W        W29677  19.750  38.983  10.510
57253W        W29678  16.238  37.525   4.161
57254W        W29679  17.081  29.994  14.418
57255W        W29680  34.034   2.339   0.883
57256W        W29681  40.524  14.266  13.936
57257W        W29682  40.961  41.368   2.332
57258W        W29683  36.996  32.448  12.432
57259W        W29684  41.452  25.212  14.796
57260W        W29685  14.172  27.024  11.918
57261W        W29686  28.043  42.899   0.763
57262W        W29687  43.854  11.336   2.671
57263W        W29688  33.459  15.814   2.786
57264W        W29689  19.118  33.586   4.306
57265W        W29690  12.726   1.810   4.252
57266W        W29691  11.629  14.242  14.438
57267W        W29692  42.889  36.568   3.266
57268W        W29693  37.851  19.260  13.445
57269W        W29694  35.952  40.974  12.524
57270W        W29695  10.287   8.665  12.080
57271W        W29696   7.875  14.732   1.292
57272W        W29697  15.274  26.955   4.659
57273W        W29698  28.596  30.505   5.304
57274W        W29699   9.248  18.620   1.356
57275W        W29700  17.577  36.997   1.281
57276W        W29701  35.540  35.914  10.898
57277W        W29702  43.409  37.979  14.488
57278W        W29703   3.800   3.240  14.762
57279W        W29704  17.304   2.772   3.220
57280W        W29705  21.632  24.567   1.387
57281W        W29706   5.842   0.811   1.784
57282W        W29707  33.020  23.690   2.406
57283W        W29708  22.024  36.846  14.335
57284W        W29709  40.948  42.872   1.410
57285W        W29710   5.276   1.848   4.188
57286W        W29711  27.561  38.472  14.777
57287W        W29712   5.704  18.691   1.426
57288W        W29713  30.627  39.987  11.607
57289W        W29714  38.358   4.264  11.880
57290W        W29715  34.084  42.417  10.586
57291W        W29716  35.448  12.361   4.345
57292W        W29717  13.315  40.465   3.274
57293W        W29718  42.436  15.152   2.178
57294W        W29719  26.028   1.967  10.934
57295W        W29720   9.679   0.431  12.539
57296W        W29721   0.345  36.529  12.341
57297W        W29722  24.157   7.308  12.994
57298W        W29723  42.430  40.846   1.280
57299W        W29724   8.826   6.207  11.952
57300W        W29725  25.598  32.599   4.625
57301W        W29726  41.534  25.168  13.404
57302W        W29727   5.848  33.558   4.800
57303W        W29728  43.956  10.168   3.779
57304W        W29729   1.771  30.613   4.338
57305W        W29730  20.263  28.991  11.112
57306W        W29731  29.558  35.016  12.408
57307W        W29732  41.990  12.759   2.398
57308W        W29733  26.191  28.613   3.767
57309W        W29734  18.082   8.172   3.223
57310W        W29735   4.936  10.653   2.819
57311W        W29736  16.796  38.382   4.221
57312W        W29737  34.886  10.740   2.221
57313W        W29738  26.469  37.512   2.376
57314W        W29739   7.846  28.105  13.794
57315W        W29740  14.227  35.397   1.348
57316W        W29741  40.925  19.698  12.344
57317W        W29742  22.552  39.907   0.463
57318W        W29743  10.384  13.801   1.813
57319W        W29744  23.219   4.821  10.964
57320W        W29745  42.927  33.920   3.777
57321W        W29746  20.647  26.482  12.538
57322W        W29747  32.952  42.317  13.806
57323W        W29748  38.888  23.118   2.723
57324W        W29749  21.621  20.148   1.866
57325W        W29750   3.753  12.143  12.896
57326W        W29751   7.707  14.227  13.971
57327W        W29752  43.018  22.635  11.997
57328W        W29753   9.320  15.578   4.152
57329W        W29754  40.010  33.088   4.668
57330W        W29755  17.712  27.026   2.829
57331W        W29756  43.850  38.983   0.779
57332W        W29757   6.209  17.768   3.286
57333W        W29758  28.120   1.787   3.801
57334W        W29759   5.721   8.291  13.810
57335W        W29760  25.535  20.043   0.335
57336W        W29761  41.001   0.907   4.270
57337W        W29762  20.710  22.226  14.028
57338W        W29763   8.888  27.524  12.009
57339W        W29764  40.906  27.115   3.338
57340W        W29765  22.122  29.662   2.214
57341W        W29766   5.776  44.878  14.791
57342W        W29767   7.745  43.353   1.245
57343W        W29768   3.715  38.361  12.446
57344W        W29769   2.328  11.680   5.215
57345W        W29770  11.759  31.630   0.808
57346W        W29771  18.237  30.620  11.605
57347W        W29772   5.284  24.704  11.095
57348W        W29773  13.770  15.280  12.467
57349W        W29774   4.944  32.581  13.946
57350W        W29775  36.385  10.286   2.764
57351W        W29776  38.044  42.412   0.379
57352W        W29777  29.471   5.349  13.500
57353W        W29778  38.407  19.125  12.456
57354W        W29779   4.435  18.275  12.082
57355W        W29780  36.366  40.379   0.257
57356W        W29781  42.022   3.262   0.252
57357W        W29782  11.685  10.657  13.039
57358W        W29783   0.934  25.139  10.929
57359W        W29784  34.980  43.967   1.825
57360W        W29785  38.492  44.287  14.337
57361W        W29786  33.895  17.657  11.491
57362W        W29787  18.578  25.026   1.849
57363W        W29788  28.611  27.110   1.815
57364W        W29789   5.282  17.085  10.592
57365W        W29790   1.762  14.108   4.337
57366W        W29791  29.042  24.025   4.319
57367W        W29792  22.209  20.533  11.392
57368W        W29793  12.164  23.639  14.812
57369W        W29794  38.902  38.957  14.874
57370W        W29795  33.492  22.555  11.382
57371W        W29796   5.781  35.516  12.454
57372W        W29797  22.700  42.466  12.981
57373W        W29798  31.477   8.309   1.386
57374W        W29799  13.769  40.466  10.576
57375W        W29800  24.060  11.639  12.086
57376W        W29801   7.861   7.774   4.662
57377W        W29802  17.779  15.100   2.666
57378W        W29803   6.271  38.944  14.829
57379W        W29804  32.928  11.759  11.129
57380W        W29805  41.041  35.878   1.910
57381W        W29806  23.616  32.454  13.386
57382W        W29807  14.596  19.573   1.411
57383W        W29808  13.835  28.626   0.409
57384W        W29809  23.082  34.116   4.659
57385W        W29810  36.847  43.943  14.365
57386W        W29811  40.534  36.352  14.892
57387W        W29812  39.020  19.124   2.901
57388W        W29813  11.130  27.584  14.380
57389W        W29814  13.702  21.214  10.616
57390W        W29815  13.729  25.564   9.639
57391W        W29816   2.450  27.652  12.948
57392W        W29817  20.543  21.038   1.835
57393W        W29818  25.106  31.014  13.878
57394W        W29819   3.865  17.767  12.845
57395W        W29820   6.420  19.549  11.435
57396W        W29821   1.329   1.792   0.778
57397W        W29822   3.810  34.996   0.316
57398W        W29823   6.809  30.559  10.566
57399W        W29824  41.458  33.102   3.785
57400W        W29825  24.561   1.354  14.906
57401W        W29826  36.441  39.318   1.712
57402W        W29827  13.133   0.829  12.528
57403W        W29828  29.986  15.741  11.504
57404W        W29829  33.550  16.671   4.343
57405W        W29830  26.045   3.897   1.862
57406W        W29831  36.880  16.284   3.363
57407W        W29832  17.122   4.775  10.439
57408W        W29833  36.508  37.409   2.696
57409W        W29834  43.797  18.273  14.811
57410W        W29835   0.877   9.321  11.927
57411W        W29836  37.359   2.319  11.940
57412W        W29837   0.375   7.296  11.598
57413W        W29838  16.749  36.985  12.531
57414W        W29839   2.723  30.467   0.295
57415W        W29840  43.932  18.222   0.475
57416W        W29841  11.335  13.117   1.392
57417W        W29842  25.660  28.066  12.863
57418W        W29843  27.140  38.031  12.953
57419W        W29844  26.206  13.829   1.758
57420W        W29845   0.838  44.443  11.092
57421W        W29846   7.208  10.293   5.181
57422W        W29847  40.456   6.709   1.727
57423W        W29848  27.529  20.232   4.613
57424W        W29849   3.355  21.742   1.369
57425W        W29850  13.746  30.112   2.838
57426W        W29851   8.365  14.115  13.030
57427W        W29852  14.639  11.861   3.279
57428W        W29853  23.727  37.483   2.350
57429W        W29854   0.355  25.185   4.703
57430W        W29855  35.025  14.141   0.373
57431W        W29856   3.454  38.990  11.982
57432W        W29857  13.297  34.932  11.549
57433W        W29858  16.725  20.604   0.398
57434W        W29859  13.633  40.863   0.292
57435W        W29860  17.702  19.204  10.448
57436W        W29861  33.025  32.510   3.695
57437W        W29862   2.242  29.957  11.055
57438W        W29863  12.617   2.733   0.243
57439W        W29864   2.841  21.215  12.399
57440W        W29865  44.839  22.171   0.762
57441W        W29866   1.278  42.888  13.881
57442W        W29867  28.650  39.880  14.015
57443W        W29868  24.013   4.917  13.027
57444W        W29869   5.355  19.066  10.450
57445W        W29870   1.740  37.047   0.255
57446W        W29871   4.771  43.897   3.185
57447W        W29872   0.870  39.039   4.222
57448W        W29873  41.402   6.719   2.810
57449W        W29874  44.915  21.561   1.322
57450W        W29875  44.810   2.349  11.049
57451W        W29876  10.239   1.384   4.693
57452W        W29877  33.939  37.051  11.105
57453W        W29878  16.727  31.641  12.072
57454W        W29879  34.076   5.313   1.375
57455W        W29880   8.162  14.156  13.944
57456W        W29881  35.574  27.600  13.354
57457W        W29882   2.746   0.492   2.384
57458W        W29883  38.930  36.464   4.326
57459W        W29884  10.290   0.792   1.277
57460W        W29885  26.506  26.669  11.388
57461W        W29886  10.807  10.750  11.092
57462W        W29887  39.819  31.900  12.934
57463W        W29888  16.261   7.361  13.925
57464W        W29889  21.217  22.105  14.320
57465W        W29890   7.876  22.605   3.156
57466W        W29891  10.263  33.904  11.940
57467W        W29892  24.101  39.007   1.301
57468W        W29893   2.299  17.103  13.902
57469W        W29894  16.591  43.425  11.082
57470W        W29895   5.220  26.973  12.843
57471W        W29896   0.850  33.442  11.032
57472W        W29897  43.501   3.733   4.691
57473W        W29898  27.142  29.004  11.488
57474W        W29899  31.438  18.199  10.120
57475W        W29900  28.482  42.410   1.259
57476W        W29901  40.544  12.796  11.943
57477W        W29902  39.010  29.104  10.152
57478W        W29903  38.506  25.092  12.499
57479W        W29904  28.069  29.513  13.842
57480W        W29905  24.132  37.531   4.759
57481W        W29906   3.897  21.199   3.840
57482W        W29907   8.663   6.218  12.865
57483W        W29908  14.261  27.954   3.741
57484W        W29909  33.970  41.344  11.442
57485W        W29910  41.427  22.581  14.858
57486W        W29911  42.835  42.019   0.245
57487W        W29912   7.312  18.581  11.907
57488W        W29913  42.012  13.733  11.552
57489W        W29914  26.583   6.366   0.809
57490W        W29915   3.411  38.943  11.026
57491W        W29916  19.778  27.987   3.378
57492W        W29917  36.359  17.171   4.791
57493W        W29918  15.271  17.640   1.846
57494W        W29919  23.600  36.887  13.860
57495W        W29920  35.536   0.877  13.325
57496W        W29921  34.547  30.584  14.978
57497W        W29922  35.439  10.773  13.850
57498W        W29923  28.543  22.040  14.461
57499W        W29924   3.881  24.501   3.740
57500W        W29925  42.390  26.499  14.769
57501W        W29926  12.167  12.765   4.827
57502W        W29927  44.280  37.937  14.820
57503W        W29928  36.883  43.927  10.407
57504W        W29929  23.633   7.172   1.370
57505W        W29930  41.805  13.294   2.680
57506W        W29931  38.032  16.301   3.652
57507W        W29932  40.473  41.795   2.895
57508W        W29933  20.766  30.065   3.339
57509W        W29934  13.618  12.203   3.195
57510W        W29935   9.198   5.259  11.553
57511W        W29936  41.490  23.712  14.399
57512W        W29937  24.088  12.677   0.427
57513W        W29938  23.115  26.614   4.197
57514W        W29939   8.161  14.302   4.782
57515W        W29940  17.163  29.953   3.202
57516W        W29941  33.497  29.504  10.627
57517W        W29942  15.692   5.790  11.106
57518W        W29943  37.340   1.237   4.824
57519W        W29944  14.177  33.949   1.738
57520W        W29945  17.259   3.420  14.916
57521W        W29946  29.649  10.771  13.833
57522W        W29947   6.697  20.651   3.775
57523W        W29948  39.042   7.191   2.744
57524W        W29949  26.604  21.576  14.829
57525W        W29950  42.408  29.508  12.488
57526W        W29951  23.628  44.439  10.526
57527W        W29952  20.594  30.471   1.696
57528W        W29953  42.004  26.124   3.658
57529W        W29954   4.792  25.592   3.324
57530W        W29955  15.615  27.079   4.168
57531W        W29956   8.783   4.725  14.394
57532W        W29957  34.501   4.390  11.530
57533W        W29958   2.270   3.449   5.183
57534W        W29959  16.577   8.863  14.896
57535W        W29960  13.723  28.500  11.998
57536W        W29961  44.313  21.540  14.281
57537W        W29962  24.168  10.253  11.003
57538W        W29963   1.978   9.701   3.242
57539W        W29964  41.469  43.510  13.999
57540W        W29965   2.257   0.344  10.065
57541W        W29966   8.283  38.369  14.821
57542W        W29967  33.991  23.494  12.881
57543W        W29968  37.033   9.812  10.472
57544W        W29969  18.714   1.910  10.157
57545W        W29970   4.735  22.035   3.788
57546W        W29971  35.042  38.046   3.661
57547W        W29972  20.570  30.083  14.418
57548W        W29973  33.079  24.718  14.382
57549W        W29974  21.745  23.649   0.250
57550W        W29975  20.152   0.984  10.454
57551W        W29976  23.599  10.139   1.745
57552W        W29977  16.680  28.015  11.084
57553W        W29978  17.710   8.300  10.629
57554W        W29979  31.073  13.705   4.264
57555W        W29980   2.465   1.475  13.349
57556W        W29981   4.862   3.886   9.948
57557W        W29982  40.921  21.708  12.851
57558W        W29983   9.802   1.261   4.254
57559W        W29984  27.669  33.094   3.835
57560W        W29985   3.882  35.456  14.817
57561W        W29986  18.217  22.149   1.752
57562W        W29987  42.996  10.736   0.816
57563W        W29988  10.212  28.953  10.585
57564W        W29989  23.166   1.344  14.817
57565W        W29990  19.675  30.469   1.350
57566W        W29991  38.901   5.374   1.251
57567W        W29992   2.751  14.795   1.905
57568W        W29993  36.913  39.833  11.080
57569W        W29994  34.408  40.390   0.733
57570W        W29995  19.199  36.404   3.228
57571W        W29996  25.072  21.261  12.360
57572W        W29997   2.272  26.473   2.728
57573W        W29998  15.712  38.872   1.808
57574W        W29999  30.931   8.855  13.923
57575W        W30000  23.125  15.669  12.835
57576W        W30001  43.014  44.793   2.345
57577W        W30002  26.065  34.580   4.278
57578W        W30003   4.210  33.918   2.274
57579W        W30004   4.391  21.594   3.252
57580W        W30005   7.881  19.677   5.235
57581W        W30006  30.005  21.079   2.692
57582W        W30007  39.924  19.606   3.851
57583W        W30008   7.731  44.801  13.380
57584W        W30009  14.831   9.691  10.607
57585W        W30010   4.378  28.093  11.543
57586W        W30011   7.212   0.319  12.543
57587W        W30012   0.914  25.178  10.583
57588W        W30013  10.219  34.877   0.790
57589W        W30014   8.768   1.829  12.391
57590W        W30015  20.754  14.589  11.397
57591W        W30016  29.469  32.469   2.339
57592W        W30017  38.872  33.450  10.417
57593W        W30018   4.211  41.358   4.742
57594W        W30019   1.834  28.045   4.152
57595W        W30020   6.859  10.249   4.617
57596W        W30021   0.845  34.981  13.818
57597W        W30022  16.288  17.608   3.841
57598W        W30023   7.399  38.408   2.294
57599W        W30024   7.213  31.094   1.734
57600W        W30025  22.625   4.418  11.482
57601W        W30026  34.863  36.528  12.969
57602W        W30027  36.352   7.716   0.257
57603W        W30028  29.169  19.163   3.290
57604W        W30029   1.891  26.496  10.405
57605W        W30030  16.716  21.568  12.847
57606W        W30031  10.763  27.157   1.440
57607W        W30032  17.700   0.318  13.019
57608W        W30033  28.952  19.547  13.887
57609W        W30034   8.235  42.480   4.687
57610W        W30035  10.237  34.918  13.504
57611W        W30036  17.761  10.277   2.338
57612W        W30037   0.409  16.074   2.884
57613W        W30038  19.733  29.160  10.547
57614W        W30039   5.429  28.167  13.395
57615W        W30040  28.568  31.029  13.991
57616W        W30041  27.450  33.467   1.234
57617W        W30042  13.121  33.988  11.979
57618W        W30043  11.206  27.448  11.377
57619W        W30044   6.830  11.744  12.442
57620W        W30045   7.410   5.739   4.143
57621W        W30046   4.408  42.293   2.868
57622W        W30047  20.527  11.165  13.876
57623W        W30048   4.927  34.554  11.599
57624W        W30049  27.006   2.753   1.907
57625W        W30050  18.583  37.413   3.771
57626W        W30051   0.312  22.050   1.423
57627W        W30052  43.949  10.167  14.440
57628W        W30053  12.139  38.992   2.379
57629W        W30054  25.141  31.011   0.900
57630W        W30055  28.985  26.987  12.013
57631W        W30056  32.082  28.581   2.215
57632W        W30057  29.504   1.242  11.033
57633W        W30058  24.123   0.434  12.340
57634W        W30059  36.886  20.730  13.835
57635W        W30060  30.555  43.316  11.434
57636W        W30061  39.997  37.546   5.112
57637W        W30062  16.764  27.069   0.778
57638W        W30063   7.848  34.924  13.436
57639W        W30064  31.481  37.969  13.515
57640W        W30065  36.890   3.800  14.448
57641W        W30066  29.443  15.716  14.943
57642W        W30067   8.339   5.251   2.757
57643W        W30068   2.403  31.953   1.900
57644W        W30069   1.834  38.553  13.436
57645W        W30070   6.319  38.343  11.071
57646W        W30071  30.538  21.180  10.963
57647W        W30072   0.777  17.244   0.304
57648W        W30073   1.380  14.667   2.820
57649W        W30074  10.779  38.504   4.346
57650W        W30075  16.155   4.284  11.954
57651W        W30076  17.556   5.276  11.532
57652W        W30077  21.641   9.767   2.223
57653W        W30078  34.484  13.330   3.275
57654W        W30079  29.977  14.142   3.307
57655W        W30080  31.937  15.811   4.306
57656W        W30081  43.483   2.468  10.896
57657W        W30082  42.919   7.670   0.295
57658W        W30083  30.504   9.256   1.841
57659W        W30084   2.366   2.946   4.222
57660W        W30085  42.340  17.289   4.146
57661W        W30086   9.663  42.297  12.455
57662W        W30087  43.980  20.622  14.431
57663W        W30088   6.894  40.306   4.689
57664W        W30089   1.903  12.829  13.827
57665W        W30090  23.085  36.864   4.231
57666W        W30091   3.351  25.554  14.412
57667W        W30092  32.057  25.195  10.508
57668W        W30093  32.981  15.155  14.481
57669W        W30094   9.858  26.078   2.891
57670W        W30095   4.854  27.658   3.242
57671W        W30096   5.430   4.727   3.730
57672W        W30097   7.797  10.701  10.503
57673W        W30098   8.307  17.106  10.529
57674W        W30099  32.070   5.782  12.823
57675W        W30100   4.248  28.086   2.286
57676W        W30101  25.529  36.061  14.903
57677W        W30102  29.111   7.203  10.937
57678W        W30103  39.537  13.805  12.890
57679W        W30104   9.175  16.232  10.985
57680W        W30105  19.202  27.062  13.486
57681W        W30106   3.740  16.175   2.206
57682W        W30107  31.088  14.163  10.894
57683W        W30108  44.394  13.256   2.228
57684W        W30109  33.128   0.311  12.484
57685W        W30110  15.673  10.839   0.808
57686W        W30111   0.797  11.680   4.258
57687W        W30112  32.047  21.715  13.353
57688W        W30113   3.397  10.794   2.287
57689W        W30114  18.786   9.770  12.990
57690W        W30115  40.808  11.272   4.313
57691W        W30116  18.624  37.857  14.505
57692W        W30117  42.022   5.796  10.983
57693W        W30118  12.683   4.746   0.877
57694W        W30119  29.075  14.125  12.389
57695W        W30120  22.712  23.996   0.442
57696W        W30121  20.031  17.202   2.222
57697W        W30122  14.103  12.268  11.410
57698W        W30123  40.929  30.012  10.500
57699W        W30124   2.230  40.015  13.392
57700W        W30125  42.469  27.126  14.471
57701W        W30126  37.336  37.489  12.023
57702W        W30127   3.710  16.617  11.955
57703W        W30128  42.371  16.593  13.911
57704W        W30129  41.817  24.127   0.284
57705W        W30130  33.903  28.054  14.442
57706W        W30131  14.140  42.870  10.989
57707W        W30132  18.778  38.346   3.250
57708W        W30133  28.529   8.740   4.328
57709W        W30134  18.114   0.773  11.982
57710W        W30135  29.659   2.346   2.852
57711W        W30136  10.735  32.485   2.871
57712W        W30137   7.294  21.562  11.100
57713W        W30138   0.284  21.208   2.702
57714W        W30139  15.786  41.989  14.283
57715W        W30140  28.089  30.995  12.894
57716W        W30141  29.964  31.090  13.333
57717W        W30142  32.566  39.516  12.496
57718W        W30143  21.541  44.322  11.996
57719W        W30144  13.677  13.329  12.578
57720W        W30145  24.030  32.890  10.994
57721W        W30146  12.766  35.089  13.405
57722W        W30147  33.929  38.888   0.761
57723W        W30148  27.165   6.397   1.378
57724W        W30149  36.536  43.882  11.956
57725W        W30150  28.468  37.436   1.893
57726W        W30151  32.040  42.482  12.936
57727W        W30152  25.220  36.546  11.019
57728W        W30153  42.801  12.802   2.894
57729W        W30154  13.760   8.263  11.020
57730W        W30155  24.588   8.873  11.936
57731W        W30156  18.736  28.160   5.257
57732W        W30157   1.356  31.125  14.853
57733W        W30158  29.551  33.065   1.443
57734W        W30159  16.098   6.396  10.594
57735W        W30160  44.768  10.321  14.789
57736W        W30161  16.127  24.212   9.987
57737W        W30162  27.119  26.135   3.312
57738W        W30163  43.942  33.940  10.959
57739W        W30164  30.532   5.386  12.365
57740W        W30165  22.546  40.521  13.508
57741W        W30166  15.166  20.532   2.809
57742W        W30167  35.386  34.969   1.932
57743W        W30168  29.984  17.095   9.583
57744W        W30169  10.725   3.776  12.987
57745W        W30170  15.823  18.777   1.934
57746W        W30171   4.404  11.696   3.176
57747W        W30172  32.572  19.171   2.700
57748W        W30173  20.645  19.041   0.459
57749W        W30174  15.098  20.570  12.873
57750W        W30175  39.016   0.846   2.342
57751W        W30176   0.956  15.647  14.433
57752W        W30177  44.797  42.952  10.893
57753W        W30178  41.887   7.773   0.255
57754W        W30179  36.441  15.777  12.017
57755W        W30180  39.337  17.578  10.618
57756W        W30181   2.862  39.835  11.924
57757W        W30182  35.867  33.486  14.784
57758W        W30183  42.448  21.711   2.360
57759W        W30184  36.538  14.594   4.209
57760W        W30185  25.126  18.645  12.908
57761W        W30186  34.513  13.801   0.274
57762W        W30187  42.285  21.610   0.832
57763W        W30188  31.607  33.078   1.387
57764W        W30189   0.885  19.162  11.997
57765W        W30190  21.601  25.044  12.080
57766W        W30191  20.675   9.389   0.834
57767W        W30192  14.296   0.761  10.910
57768W        W30193  42.339  14.732  14.789
57769W        W30194   9.795  21.703   4.192
57770W        W30195  17.267  33.441  14.462
57771W        W30196  32.409  40.506   1.220
57772W        W30197  30.121  32.566  10.540
57773W        W30198  12.643   6.902  13.531
57774W        W30199   5.783  24.115   1.397
57775W        W30200  40.403   1.904  10.956
57776W        W30201   4.333   6.389  12.419
57777W        W30202   1.801  21.035  14.789
57778W        W30203  11.622  40.488  13.446
57779W        W30204   6.884  41.829  13.313
57780W        W30205   1.300  36.058   4.294
57781W        W30206   1.407  11.312   3.247
57782W        W30207  41.484  26.529  14.015
57783W        W30208   6.377  33.580   0.837
57784W        W30209  25.475  20.610   0.248
57785W        W30210   5.775  33.592   0.266
57786W        W30211  41.497  43.984  13.909
57787W        W30212  39.338  28.633   3.350
57788W        W30213  24.176  33.084  11.896
57789W        W30214  35.953  22.206   1.417
57790W        W30215  32.578  33.382   3.351
57791W        W30216  21.725  22.244   0.411
57792W        W30217   8.216  20.763   0.814
57793W        W30218  30.644  30.424   0.348
57794W        W30219  26.125  37.944  13.314
57795W        W30220   7.338   6.684   0.471
57796W        W30221  39.486  24.692  10.479
57797W        W30222   9.753  15.639   4.834
57798W        W30223  39.361  24.155   1.396
57799W        W30224   4.276  30.909   4.291
57800W        W30225  30.061  12.161  13.923
57801W        W30226  42.852  17.074   2.898
57802W        W30227  25.134   3.271   5.280
57803W        W30228  27.547  39.991   4.303
57804W        W30229  44.913  35.932  14.839
57805W        W30230  34.089  28.981  11.102
57806W        W30231  42.500  16.602   1.411
57807W        W30232  15.729  20.097   2.767
57808W        W30233  17.781  14.833  10.915
57809W        W30234  29.959  41.308  13.388
57810W        W30235  16.118  15.119  10.969
57811W        W30236  18.074   4.363   1.845
57812W        W30237  40.803   9.695  13.343
57813W        W30238  29.123  23.177   4.255
57814W        W30239  25.639  15.759  10.527
57815W        W30240   6.196  12.691  11.486
57816W        W30241  13.212  11.624   0.930
57817W        W30242  27.970  27.082  11.895
57818W        W30243  27.641  24.697   2.731
57819W        W30244  44.863  13.332   2.749
57820W        W30245  41.789   3.246  14.954
57821W        W30246  37.450  21.137   1.814
57822W        W30247  25.987  32.965  13.903
57823W        W30248  16.238  34.929   4.315
57824W        W30249  13.674  28.181  11.055
57825W        W30250  26.491  18.767  12.513
57826W        W30251  41.315   8.165  10.496
57827W        W30252   5.908  28.668   2.354
57828W        W30253  12.333   6.752   0.893
57829W        W30254  16.128  26.501  14.801
57830W        W30255  26.496   8.793   2.259
57831W        W30256  27.049   0.901   2.733
57832W        W30257  16.186  13.272   2.326
57833W        W30258  42.945  11.737   3.867
57834W        W30259  17.564   1.358  12.948
57835W        W30260  37.838  30.455  11.043
57836W        W30261  16.756  27.044  11.414
57837W        W30262  27.458  14.114   4.758
57838W        W30263  25.028  44.885  13.386
57839W        W30264  10.681  37.565  12.361
57840W        W30265   2.899  39.059   4.282
57841W        W30266   0.293  20.207  14.405
57842W        W30267  25.534   7.192   3.748
57843W        W30268  19.592  25.662   1.933
57844W        W30269  10.748   3.423  10.575
57845W        W30270   5.766   5.304   2.883
57846W        W30271  25.073   4.229   1.858
57847W        W30272  13.332   4.923  12.832
57848W        W30273  19.713  32.636  12.964
57849W        W30274  21.151   9.394   3.181
57850W        W30275   3.409  22.125  13.928
57851W        W30276  41.929   9.326   4.611
57852W        W30277  31.050  33.014   1.845
57853W        W30278   7.795  38.498  10.550
57854W        W30279   9.840  38.065   0.755
57855W        W30280  13.303  42.007   3.261
57856W        W30281  21.574   4.288  11.504
57857W        W30282  28.973  13.748   2.223
57858W        W30283  18.120  14.338   1.211
57859W        W30284  33.046  19.610  14.826
57860W        W30285  30.590  17.075   0.481
57861W        W30286  34.598  34.055   3.266
57862W        W30287  21.680  20.598  11.586
57863W        W30288  21.059  30.576  11.893
57864W        W30289  36.925  33.876   4.117
57865W        W30290   2.800  36.396   2.846
57866W        W30291  26.174  38.492  10.990
57867W        W30292  22.554  21.105  14.389
57868W        W30293  17.113  10.636   0.732
57869W        W30294  32.096   7.376  11.096
57870W        W30295  29.485   0.402  10.529
57871W        W30296   9.312   5.821  14.430
57872W        W30297   5.902   9.808  10.922
57873W        W30298  20.729  31.547   0.387
57874W        W30299  19.761  20.136  13.448
57875W        W30300  18.161  19.616  12.438
57876W        W30301  13.327  34.478   4.667
57877W        W30302   8.370  35.048   4.348
57878W        W30303  35.041  42.413  11.961
57879W        W30304  18.623  22.591  13.817
57880W        W30305  34.917  31.433  14.853
57881W        W30306  19.751  38.956   0.325
57882W        W30307  27.997  42.995   2.874
57883W        W30308  18.787  39.932   2.667
57884W        W30309   6.757  24.634  12.410
57885W        W30310  10.153   4.268  13.920
57886W        W30311  14.169  34.887   3.652
57887W        W30312  32.536  30.415   0.920
57888W        W30313  27.665  29.458  12.887
57889W        W30314  35.993  35.538   0.940
57890W        W30315  31.548  16.080  13.998
57891W        W30316   4.381   6.330  11.033
57892W        W30317   2.818  19.761  14.406
57893W        W30318  26.461  22.199   1.430
57894W        W30319  33.050  26.064  11.078
57895W        W30320  29.096  22.625  11.394
57896W        W30321  14.261  35.043  10.950
57897W        W30322  35.092  40.923   2.783
57898W        W30323  24.027  31.626   1.847
57899W        W30324   5.730  33.076   0.875
57900W        W30325   3.330   0.258  14.489
57901W        W30326   0.493   7.726  12.492
57902W        W30327  29.033  26.478   2.848
57903W        W30328  23.667  17.642   2.417
57904W        W30329   9.259   0.389   1.443
57905W        W30330  25.200  33.598   0.871
57906W        W30331  39.328  37.913  10.436
57907W        W30332  18.151  19.261  14.817
57908W        W30333   7.740  22.616  10.960
57909W        W30334   4.308  17.125  11.879
57910W        W30335  26.092  24.561  11.964
57911W        W30336  20.092  25.964   2.861
57912W        W30337  40.510  26.055  11.118
57913W        W30338   2.919  28.121  11.996
57914W        W30339  44.857  32.535   1.918
57915W        W30340  16.109  34.046   3.743
57916W        W30341  38.939   5.311  14.880
57917W        W30342   5.787   8.685   3.735
57918W        W30343  35.570   2.439  14.941
57919W        W30344   4.903  17.594   4.254
57920W        W30345  37.900  44.398   4.330
57921W        W30346  15.293  25.583  12.341
57922W        W30347  26.703  15.741  11.094
57923W        W30348  17.115   1.954   1.919
57924W        W30349  41.895  22.711   2.229
57925W        W30350   2.796  39.487  10.508
57926W        W30351  21.692   6.256  11.410
57927W        W30352  15.292  20.639   4.118
57928W        W30353  14.317  21.089   9.967
57929W        W30354  39.855  38.013  13.856
57930W        W30355  31.937  21.653   1.273
57931W        W30356  37.071  14.141  13.547
57932W        W30357  40.517  27.632  14.786
57933W        W30358  35.089   2.829   1.450
57934W        W30359  28.939  26.586   1.280
57935W        W30360  34.006   2.250  10.420
57936W        W30361  14.201  15.260   2.242
57937W        W30362  12.737  19.727  14.952
57938W        W30363  10.275  29.025   4.673
57939W        W30364  36.047  25.965   1.846
57940W        W30365   5.226   9.236  12.929
57941W        W30366   0.893  43.503  14.898
57942W        W30367  23.635  40.382   0.334
57943W        W30368   1.853  31.941  14.893
57944W        W30369  35.914  19.553   2.823
57945W        W30370  31.606  25.641  11.487
57946W        W30371   5.906  27.101  12.089
57947W        W30372  25.976   7.405   4.795
57948W        W30373  12.780  32.485  14.957
57949W        W30374   3.217  39.035  12.878
57950W        W30375   9.743  42.031   3.649
57951W        W30376  25.658   2.777   2.329
57952W        W30377   1.928  32.991   1.372
57953W        W30378  17.207  23.996   0.245
57954W        W30379  29.149  13.330  11.373
57955W        W30380  41.292  27.601   3.174
57956W        W30381  20.626  30.027  10.600
57957W        W30382  12.765  44.389  10.996
57958W        W30383  25.500  16.764  12.447
57959W        W30384  12.138  44.259   0.272
57960W        W30385   4.370  28.040   0.431
57961W        W30386   8.771   4.307   2.310
57962W        W30387  15.233  18.200  13.920
57963W        W30388  42.408  43.912  10.418
57964W        W30389  34.583  27.455  13.791
57965W        W30390  29.936   3.809  11.480
57966W        W30391  21.027  41.023  10.930
57967W        W30392   4.220   2.290   3.663
57968W        W30393  20.230  27.500  10.586
57969W        W30394  44.504  17.199   1.728
57970W        W30395   7.804  34.053   0.748
57971W        W30396  25.618  10.877   4.728
57972W        W30397  33.015  12.711  14.376
57973W        W30398  27.108  15.296  13.043
57974W        W30399   2.815  14.142  12.906
57975W        W30400   1.291  14.650  13.860
57976W        W30401  35.530   7.387   0.334
57977W        W30402  23.160  32.524  14.817
57978W        W30403  18.752  19.746   2.861
57979W        W30404  12.836  38.018  11.004
57980W        W30405  42.901   9.887  14.444
57981W        W30406  38.528  21.674   0.781
57982W        W30407  11.177  41.384   3.369
57983W        W30408  35.992   5.916  10.580
57984W        W30409   4.739  40.384  12.474
57985W        W30410   0.437  42.797   0.847
57986W        W30411   3.745  22.073  14.447
57987W        W30412  26.666   3.238   4.831
57988W        W30413  44.274   0.405  10.954
57989W        W30414  29.156   8.336   4.605
57990W        W30415  31.102  14.216  14.292
57991W        W30416  32.133  26.082   4.732
57992W        W30417  13.188  44.481   2.892
57993W        W30418   9.848  27.453   0.964
57994W        W30419   2.728   6.755   3.647
57995W        W30420  29.593   7.259   3.733
57996W        W30421  41.027  34.974  13.967
57997W        W30422   8.161  17.119   4.184
57998W        W30423  24.520  29.108  12.581
57999W        W30424  42.936  28.000  13.350
58000W        W30425  32.039  10.680   3.235
58001W        W30426  32.412  18.700   2.205
58002W        W30427  40.927  14.248   4.804
58003W        W30428  38.532  38.048   2.346
58004W        W30429   2.824   7.732  12.500
58005W        W30430  18.280  11.224  10.893
58006W        W30431  44.962  38.023   4.691
58007W        W30432  12.267  32.098  12.975
58008W        W30433  31.913  17.576   4.653
58009W        W30434   2.341  18.282  11.952
58010W        W30435   7.890  44.497   1.320
58011W        W30436  43.880  16.194  12.373
58012W        W30437  23.587  22.672  12.477
58013W        W30438  18.758  30.155   4.296
58014W        W30439  31.938   4.254  13.796
58015W        W30440  34.544  42.031   2.180
58016W        W30441  18.125   5.704   2.845
58017W        W30442  10.227  14.730  13.915
58018W        W30443   7.256  26.984   4.124
58019W        W30444   3.807  38.413   3.838
58020W        W30445  39.464   6.410   2.738
58021W        W30446  34.565  24.524  13.913
58022W        W30447  35.962   3.409  11.424
58023W        W30448  10.244  26.512  11.543
58024W        W30449   7.204   7.906  12.967
58025W        W30450  40.930  27.633  13.342
58026W        W30451  28.500  35.498  11.969
58027W        W30452  43.377  15.280  10.930
58028W        W30453   0.401  42.519  12.058
58029W        W30454   6.391  34.397  11.456
58030W        W30455  11.310  25.688   3.720
58031W        W30456   2.901   2.366  10.630
58032W        W30457   8.389  24.088  13.946
58033W        W30458   1.355  21.261  11.907
58034W        W30459   6.778  24.584   2.772
58035W        W30460  20.260  11.864   3.822
58036W        W30461   1.925  28.080  12.987
58037W        W30462  42.295  11.858   1.824
58038W        W30463   5.366  30.437  10.970
58039W        W30464  33.010  17.177  11.902
58040W        W30465  31.977  42.892   2.250
58041W        W30466  38.392   3.756  13.401
58042W        W30467  23.716   4.908   0.290
58043W        W30468  42.517  20.631  13.825
58044W        W30469  22.666  20.755  14.967
58045W        W30470  26.053  16.616  11.397
58046W        W30471  36.477  31.061  11.922
58047W        W30472  25.710  43.486  13.954
58048W        W30473  42.525  39.343  14.993
58049W        W30474  31.451  26.649   0.363
58050W        W30475  26.576  25.693   4.630
58051W        W30476  24.579  34.465  10.554
58052W        W30477  18.623   6.708   2.297
58053W        W30478  10.868  12.301  12.055
58054W        W30479  21.544  35.403  12.901
58055W        W30480  26.540  17.167  10.545
58056W        W30481   8.355  36.895   3.385
58057W        W30482   8.275   2.881   4.632
58058W        W30483   3.382  23.076   0.290
58059W        W30484  32.971  10.650   3.736
58060W        W30485  20.546  31.068   9.657
58061W        W30486  29.146  32.017  13.855
58062W        W30487   1.292  13.235   2.219
58063W        W30488   6.695  39.443  12.365
58064W        W30489  23.680  27.650   2.874
58065W        W30490   8.303  38.882   4.707
58066W        W30491  30.143  27.034  13.340
58067W        W30492  29.943  33.462   2.878
58068W        W30493  36.003  13.328  13.996
58069W        W30494  20.753  41.513   0.428
58070W        W30495  27.569  36.488  10.611
58071W        W30496  10.878  42.422  12.928
58072W        W30497  36.372  13.107   4.628
58073W        W30498  38.979  38.503   2.769
58074W        W30499   9.796  10.382  12.400
58075W        W30500   4.736   1.933   1.848
58076W        W30501  29.646   4.301   1.310
58077W        W30502  42.959   4.797   5.159
58078W        W30503  37.496  38.905   2.733
58079W        W30504   6.241  15.128   4.638
58080W        W30505  16.171  31.057  14.906
58081W        W30506  29.652   4.831   9.965
58082W        W30507  37.406  33.444   1.306
58083W        W30508  10.184  36.506   5.169
58084W        W30509  33.570  30.581  11.856
58085W        W30510  43.947  12.636   1.348
58086W        W30511  25.112  25.135   4.825
58087W        W30512  11.196  15.651   1.217
58088W        W30513  32.463  35.581   0.440
58089W        W30514  32.053  29.658   4.691
58090W        W30515  38.511   8.841  11.957
58091W        W30516  20.099  14.213   0.385
58092W        W30517  12.790   7.709  10.595
58093W        W30518  29.526  22.583  12.968
58094W        W30519  24.199  30.503   2.398
58095W        W30520   2.918   8.825  13.535
58096W        W30521  15.725  32.396  10.414
58097W        W30522  14.638  23.179   0.873
58098W        W30523  31.483  26.600  13.862
58099W        W30524  19.617  23.212   2.273
58100W        W30525   9.829  20.159   1.358
58101W        W30526  38.834   9.395   0.390
58102W        W30527  25.694  28.997   2.403
58103W        W30528  43.795  35.472   2.669
58104W        W30529  14.220   2.737   1.431
58105W        W30530  21.552  19.132  13.945
58106W        W30531  15.093   8.331  13.858
58107W        W30532  38.062  40.867  13.053
58108W        W30533  21.738   5.382   3.826
58109W        W30534  25.134  16.264   1.424
58110W        W30535  25.129  19.706  13.374
58111W        W30536  30.624  14.240  12.909
58112W        W30537   9.850  29.008  10.917
58113W        W30538  35.571  32.443   2.881
58114W        W30539   4.880  16.142  13.834
58115W        W30540  44.976   4.440  12.921
58116W        W30541   2.286  24.171  12.508
58117W        W30542  34.990   2.251  13.857
58118W        W30543  35.012  26.036   0.434
58119W        W30544  32.446  29.609   4.727
58120W        W30545  39.946  37.351   0.266
58121W        W30546  32.559  40.308  10.624
58122W        W30547  26.976  41.339  12.037
58123W        W30548  28.485  13.839  12.028
58124W        W30549  10.777  30.037   4.313
58125W        W30550  22.705  41.935  13.464
58126W        W30551  15.586  18.249   2.849
58127W        W30552  13.328  29.591   5.198
58128W        W30553  21.144  36.490  10.535
58129W        W30554  26.131  40.538   3.292
58130W        W30555  15.299  34.397  14.976
58131W        W30556  15.102   4.212  12.033
58132W        W30557  44.951  14.110   1.222
58133W        W30558  29.051  19.655  12.000
58134W        W30559   6.365  30.045   1.363
58135W        W30560   7.287  38.368  12.934
58136W        W30561  40.014   8.718  14.873
58137W        W30562  15.797   2.256   3.259
58138W        W30563  15.180  35.960   2.783
58139W        W30564   0.378  37.406   1.694
58140W        W30565   6.328   4.710   3.308
58141W        W30566  13.224  28.055  10.449
58142W        W30567  42.809  31.437  14.431
58143W        W30568  23.035  21.253   4.647
58144W        W30569  40.814  25.098  14.017
58145W        W30570   9.686   9.731  11.388
58146W        W30571   9.267  44.296   1.832
58147W        W30572   8.748  35.387   0.377
58148W        W30573  34.982   3.401   5.167
58149W        W30574  33.031  36.355   4.256
58150W        W30575  24.995  11.829   1.398
58151W        W30576  39.468  26.531   4.264
58152W        W30577  25.601  41.921  12.840
58153W        W30578  21.082  12.158  10.549
58154W        W30579  43.357   5.892  10.630
58155W        W30580   2.402   6.797   0.481
58156W        W30581  23.165  39.918  11.599
58157W        W30582  15.644  40.422   0.939
58158W        W30583  19.682   9.150   0.430
58159W        W30584  13.719  25.201   1.807
58160W        W30585   0.469   6.398  12.995
58161W        W30586  44.324  42.949  12.006
58162W        W30587   8.324   6.745  12.887
58163W        W30588  22.676  10.645   0.905
58164W        W30589  24.593  35.023   3.352
58165W        W30590  16.202   7.372  11.581
58166W        W30591  36.442  24.095   3.757
58167W        W30592  30.073   7.754   0.915
58168W        W30593   5.857  19.061  13.058
58169W        W30594  15.598   4.874  12.879
58170W        W30595   4.754  22.505  10.404
58171W        W30596  37.877  12.139  11.947
58172W        W30597  32.010  10.286   4.642
58173W        W30598   5.860  16.770   2.870
58174W        W30599   6.360  13.223  11.064
58175W        W30600   2.842  38.932   2.791
58176W        W30601  15.101  22.632  14.373
58177W        W30602   8.843  13.675  11.570
58178W        W30603  24.140  26.559   1.387
58179W        W30604  23.998   9.304  11.420
58180W        W30605   5.404  38.963  10.586
58181W        W30606  40.983  43.967   2.726
58182W        W30607  26.163   6.796   1.709
58183W        W30608  41.871  34.541  13.051
58184W        W30609  24.181  28.174  10.039
58185W        W30610  11.190  29.568  10.975
58186W        W30611  44.407  22.615   2.827
58187W        W30612  15.791  44.954   3.655
58188W        W30613  15.191  36.876  11.461
58189W        W30614  25.648  36.085   1.272
58190W        W30615  34.006   8.759   3.792
58191W        W30616  26.592  38.498  14.384
58192W        W30617  38.511   4.878   4.615
58193W        W30618  22.063  31.931   2.248
58194W        W30619   2.399  35.070   1.804
58195W        W30620  35.955  35.561  13.339
58196W        W30621   1.827  20.264   4.644
58197W        W30622  24.209  33.030   2.297
58198W        W30623  27.513  34.927   2.261
58199W        W30624  34.609  15.190   3.232
58200W        W30625  29.032  40.036   1.846
58201W        W30626  23.106   7.768   9.979
58202W        W30627  18.553  10.313  12.386
58203W        W30628  16.810   9.843  13.971
58204W        W30629   8.348  25.150   0.310
58205W        W30630  29.455  43.485   1.328
58206W        W30631  26.525  14.790   4.800
58207W        W30632  22.246  33.060  14.468
58208W        W30633  44.871  42.776  12.363
58209W        W30634  15.209  22.585  11.597
58210W        W30635   2.354  19.584  13.408
58211W        W30636   1.439  33.392   0.810
58212W        W30637   9.666  35.993   1.362
58213W        W30638  13.175  12.185  11.060
58214W        W30639   1.313  32.594   4.298
58215W        W30640  29.543   7.790   4.170
58216W        W30641  43.495  22.545  12.971
58217W        W30642   3.814  38.065   2.242
58218W        W30643  23.561   4.872  11.980
58219W        W30644  37.917   8.874  14.980
58220W        W30645  41.317  30.015  11.936
58221W        W30646  42.416  33.129  14.775
58222W        W30647   9.854  15.183  13.849
58223W        W30648  38.414   2.917  11.895
58224W        W30649  33.470   3.399  11.524
58225W        W30650  29.565   3.434   3.668
58226W        W30651  36.858   9.352   3.734
58227W        W30652  26.133  29.983  11.551
58228W        W30653   5.348  29.434   3.182
58229W        W30654   0.753  24.588  10.983
58230W        W30655  18.607   2.364   2.740
58231W        W30656  10.829  41.985  13.358
58232W        W30657  37.399  36.590   1.768
58233W        W30658  28.929  28.620   4.258
58234W        W30659   9.806  43.895   3.681
58235W        W30660  38.962   7.336  10.947
58236W        W30661  35.449  37.860  13.804
58237W        W30662  25.061  26.025   3.231
58238W        W30663  29.438  27.555  10.892
58239W        W30664   6.817  23.556  14.304
58240W        W30665  11.691  41.807  12.879
58241W        W30666  19.764  24.623   0.349
58242W        W30667  13.160   9.302  12.024
58243W        W30668  40.398  14.736   1.705
58244W        W30669  40.442  43.344  10.599
58245W        W30670   1.793  31.417  14.383
58246W        W30671   1.753   4.858  13.943
58247W        W30672   9.232  18.073  11.056
58248W        W30673   0.341  29.559   3.240
58249W        W30674  28.576  22.664  12.046
58250W        W30675   5.382  22.517   1.783
58251W        W30676  15.206  20.154  14.314
58252W        W30677  22.657  12.706  11.073
58253W        W30678  19.261  31.645   2.757
58254W        W30679  44.918  28.109  14.283
58255W        W30680  31.598  43.949  10.905
58256W        W30681  38.461  26.566   0.802
58257W        W30682  16.583  35.401  10.926
58258W        W30683  39.486  30.617   4.320
58259W        W30684  40.856  42.417  14.961
58260W        W30685  21.655  22.171  14.485
58261W        W30686   7.271   1.328  13.440
58262W        W30687  22.210  15.159   0.812
58263W        W30688  43.886  27.127  12.982
58264W        W30689  14.806   5.384  11.870
58265W        W30690  27.532  20.575  11.592
58266W        W30691   7.267  39.960  12.923
58267W        W30692  23.589  22.646   4.329
58268W        W30693  41.797  43.454   1.251
58269W        W30694  42.782   8.851  13.541
58270W        W30695  14.209   3.885   4.628
58271W        W30696  20.209  16.581  13.369
58272W        W30697  13.172  41.889   2.257
58273W        W30698   9.692  39.394  11.434
58274W        W30699  30.136  28.972   2.741
58275W        W30700  36.466  31.582  12.086
58276W        W30701  23.158   8.386   5.703
58277W        W30702  17.150  34.928  14.865
58278W        W30703  38.464  41.315   2.265
58279W        W30704  31.465  21.022  11.967
58280W        W30705   4.736  24.205  13.823
58281W        W30706   0.282  28.031   1.451
58282W        W30707   1.252  29.610  12.572
58283W        W30708  38.989  13.195  12.342
58284W        W30709  27.552  17.144  10.941
58285W        W30710  16.151  25.468  10.426
58286W        W30711  13.733  20.091   3.181
58287W        W30712  39.429  18.665  14.831
58288W        W30713  26.479   2.810  14.834
58289W        W30714  21.603  16.765   0.836
58290W        W30715  17.159   1.905   3.230
58291W        W30716  33.124   1.837   1.897
58292W        W30717  11.830  13.637   0.295
58293W        W30718   5.699   7.753   1.872
58294W        W30719  39.037  39.474  14.408
58295W        W30720  10.351  25.656   4.599
58296W        W30721   1.392  12.826   1.347
58297W        W30722  13.255  34.109   2.803
58298W        W30723   0.327  20.538  13.020
58299W        W30724  34.914  20.554  10.981
58300W        W30725  26.962  30.449   3.313
58301W        W30726  23.224   6.264   3.261
58302W        W30727  38.439  43.462  12.077
58303W        W30728  17.290  41.368   0.433
58304W        W30729  14.295  27.571   0.967
58305W        W30730   4.768  34.598   4.246
58306W        W30731  15.190  17.791   0.399
58307W        W30732   0.323  20.068  12.356
58308W        W30733   6.331  19.556   9.994
58309W        W30734  41.915   0.920  11.044
58310W        W30735  32.586  18.196   0.733
58311W        W30736  31.971   1.334  12.847
58312W        W30737   4.737  31.913  13.958
58313W        W30738  40.953  25.522  14.457
58314W        W30739  26.563  43.877   4.323
58315W        W30740   2.731  14.724   3.733
58316W        W30741  24.598  23.537   3.848
58317W        W30742  15.117  22.214   0.474
58318W        W30743  31.611   2.942  10.986
58319W        W30744  18.077  35.445  14.327
58320W        W30745  12.807  12.799  11.899
58321W        W30746  40.396   4.894   1.882
58322W        W30747  41.826   3.294   2.411
58323W        W30748  41.440  11.635   3.171
58324W        W30749   2.736  34.028  12.070
58325W        W30750  14.133   1.409  13.817
58326W        W30751  23.093  15.631   1.909
58327W        W30752  17.564  19.552   0.421
58328W        W30753  39.357   3.459  13.007
58329W        W30754  17.669  26.997   0.865
58330W        W30755  27.983  30.999  11.514
58331W        W30756  32.627  28.104  14.473
58332W        W30757   1.239  34.871  10.640
58333W        W30758   0.474   3.749  14.411
58334W        W30759   0.265  26.616   0.476
58335W        W30760  42.924  15.755  13.314
58336W        W30761  29.057  31.488  13.314
58337W        W30762  20.191  31.957   9.614
58338W        W30763   4.922  14.649  10.919
58339W        W30764  41.500  15.794   2.214
58340W        W30765  35.101   9.738  12.009
58341W        W30766  30.040  36.382   2.842
58342W        W30767  42.416  27.686   0.745
58343W        W30768   1.380  22.746  10.422
58344W        W30769  22.227  22.590   1.810
58345W        W30770  43.383  17.701  14.282
58346W        W30771  24.984  27.942  13.395
58347W        W30772  40.447  13.146  12.912
58348W        W30773  43.921  38.888  14.896
58349W        W30774  31.904  31.622   4.312
58350W        W30775  38.056  15.123   0.371
58351W        W30776   7.816  26.185  13.472
58352W        W30777  19.148  29.087   2.668
58353W        W30778   3.716  37.967  14.002
58354W        W30779  30.083  33.587   4.194
58355W        W30780   4.230  42.412  11.864
58356W        W30781  21.632   5.371  14.370
58357W        W30782  31.408  30.087  14.303
58358W        W30783   7.766   9.750  12.873
58359W        W30784   2.897  26.505   0.913
58360W        W30785   7.397  16.079  13.952
58361W        W30786  28.679  34.539  12.428
58362W        W30787  39.356  41.895   9.640
58363W        W30788  39.908  30.495  13.025
58364W        W30789  37.078   4.831   1.325
58365W        W30790  12.186  44.298  12.445
58366W        W30791  10.153  37.850  13.835
58367W        W30792  40.989  17.062  14.982
58368W        W30793  34.594  13.256  13.811
58369W        W30794  17.789  28.662   0.327
58370W        W30795  13.143  20.050   4.330
58371W        W30796  30.545  41.941  14.795
58372W        W30797  41.826  32.472  10.532
58373W        W30798   0.909  39.490   0.243
58374W        W30799   3.284  43.344  11.482
58375W        W30800  40.446  16.179   3.300
58376W        W30801  19.686  34.001   1.697
58377W        W30802  20.701  15.719   3.701
58378W        W30803  41.519  33.423   3.254
58379W        W30804  36.995  34.072   3.291
58380W        W30805  26.643  26.043  13.357
58381W        W30806  14.632  44.428  12.006
58382W        W30807  27.649   9.275  12.411
58383W        W30808   1.949  33.575  12.076
58384W        W30809  23.631  44.332   1.387
58385W        W30810   1.454  10.834   4.722
58386W        W30811  18.631  44.998   4.838
58387W        W30812  23.534  15.277   1.242
58388W        W30813   5.230  44.478   1.772
58389W        W30814  16.112  42.971  12.430
58390W        W30815   7.175  13.247  12.886
58391W        W30816  18.189  18.652   3.682
58392W        W30817  43.283  32.565   3.295
58393W        W30818  36.540  34.475   1.396
58394W        W30819  27.535  26.516   1.398
58395W        W30820  16.290  36.058   0.840
58396W        W30821  29.089   8.285   2.885
58397W        W30822  11.790  38.851  10.416
58398W        W30823  12.711  20.575  13.896
58399W        W30824   4.842  12.636  14.906
58400W        W30825  35.870   2.772  10.903
58401W        W30826  13.639   9.871   4.354
58402W        W30827  38.499   7.695   0.246
58403W        W30828  33.932  11.358   3.221
58404W        W30829  41.304  39.386   0.899
58405W        W30830  32.120  34.615  12.024
58406W        W30831  41.537  37.087  13.451
58407W        W30832   3.802  44.397   1.247
58408W        W30833  11.146  42.382   2.828
58409W        W30834  38.907  27.189   1.360
58410W        W30835   7.678  21.118   3.858
58411W        W30836   8.272   6.221  13.865
58412W        W30837  44.338  23.579  12.520
58413W        W30838  35.938   5.893  13.856
58414W        W30839  24.041  15.094  13.445
58415W        W30840  12.793  15.597   4.774
58416W        W30841  12.177  42.032   3.684
58417W        W30842   4.827   5.795   4.319
58418W        W30843   1.368  34.502   2.285
58419W        W30844  23.179   0.361  12.908
58420W        W30845   5.212  21.022  14.912
58421W        W30846  27.107  18.626  12.022
58422W        W30847  23.701  21.554  13.791
58423W        W30848   2.915  36.568   1.787
58424W        W30849   6.797  30.469   3.250
58425W        W30850   2.953  26.665  10.615
58426W        W30851   7.698  20.164  13.925
58427W        W30852  27.077  29.488  11.447
58428W        W30853  25.020   0.342   0.759
58429W        W30854   0.452  30.428   1.881
58430W        W30855  16.119  38.875   3.152
58431W        W30856  21.607   4.876   3.655
58432W        W30857  12.204  36.841  10.927
58433W        W30858  10.360   9.834  14.415
58434W        W30859  44.879  12.752   3.867
58435W        W30860   9.339   9.385   0.255
58436W        W30861  39.368  16.087   3.245
58437W        W30862  37.939  30.605   3.852
58438W        W30863  11.249  25.663  13.060
58439W        W30864  27.111  29.461   2.767
58440W        W30865   9.298  10.214  11.553
58441W        W30866  13.337  44.902   4.631
58442W        W30867  40.051  37.961   4.753
58443W        W30868  20.055  24.112  14.945
58444W        W30869  23.135  15.196   3.196
58445W        W30870   0.861  18.662   3.831
58446W        W30871  21.656  43.978  10.961
58447W        W30872  34.016   6.904   3.693
58448W        W30873   3.388  36.018  11.509
58449W        W30874  20.158   2.260  14.332
58450W        W30875  32.941  20.526  11.111
58451W        W30876  35.865  20.054  14.336
58452W        W30877  11.853  37.454   4.655
58453W        W30878   1.798  34.945   1.361
58454W        W30879  25.658   1.770   0.296
58455W        W30880   0.269  30.145  11.035
58456W        W30881  28.136  24.565   1.413
58457W        W30882  39.994   6.267  14.278
58458W        W30883  18.592  31.426   1.907
58459W        W30884  32.423  11.716   2.687
58460W        W30885  24.039  31.478   3.160
58461W        W30886   6.827   3.290  11.467
58462W        W30887  27.082   8.861  11.965
58463W        W30888  42.784  27.607   0.914
58464W        W30889   6.307  43.391  14.279
58465W        W30890  40.473  44.845  11.017
58466W        W30891  16.580  34.543   2.327
58467W        W30892  41.301  43.804   3.762
58468W        W30893  12.708  15.749  11.600
58469W        W30894  39.898  17.144   1.364
58470W        W30895  27.692  17.647   3.330
58471W        W30896   7.208  37.013  14.458
58472W        W30897  24.608   4.216  12.505
58473W        W30898  30.006   2.773   3.277
58474W        W30899  40.318  41.872   1.379
58475W        W30900   9.780  40.472   3.742
58476W        W30901   6.325  30.649  14.276
58477W        W30902  31.996  38.352   4.786
58478W        W30903  33.969  24.701   4.340
58479W        W30904  35.513  32.566   4.633
58480W        W30905   3.902  32.564  12.919
58481W        W30906  17.218  32.392   9.973
58482W        W30907  33.094  13.627  13.864
58483W        W30908  29.424  21.681  12.536
58484W        W30909  33.608  44.455  11.884
58485W        W30910  28.449   0.395  11.417
58486W        W30911  37.366  15.594  11.603
58487W        W30912  22.089   5.427  14.383
58488W        W30913   6.366  34.032  12.368
58489W        W30914   7.760  26.531   2.234
58490W        W30915  30.539  18.554  10.012
58491W        W30916  34.064  34.604  12.482
58492W        W30917  28.630  18.178  14.873
58493W        W30918  22.198  14.151  14.976
58494W        W30919  36.922  27.448   4.759
58495W        W30920   8.756  31.981  11.922
58496W        W30921   2.438  15.672   0.916
58497W        W30922  22.698  24.502  13.993
58498W        W30923   6.900  10.230  11.486
58499W        W30924   5.232  14.130   2.673
58500W        W30925   1.855  21.749  14.947
58501W        W30926  33.886   8.895   2.817
58502W        W30927  21.102  34.453   1.350
58503W        W30928   6.885  38.496  12.984
58504W        W30929  26.136  44.865  13.822
58505W        W30930  30.025  10.190   4.233
58506W        W30931   7.820   2.882   2.807
58507W        W30932  29.962   4.771   2.228
58508W        W30933  21.723  18.240   0.960
58509W        W30934  32.097  15.734  10.045
58510W        W30935  18.645  34.430   3.238
58511W        W30936  37.426  22.213  10.133
58512W        W30937  30.588  34.615  10.600
58513W        W30938  20.252  37.944  13.993
58514W        W30939  37.973  42.438   3.846
58515W        W30940   7.212  29.090   1.361
58516W        W30941  38.056  11.842   1.233
58517W        W30942  18.118  35.478   0.483
58518W        W30943  11.720  42.863  13.981
58519W        W30944  18.738  37.404   1.772
58520W        W30945  29.658  41.429  12.862
58521W        W30946  44.957  44.340   3.732
58522W        W30947  44.839   2.314  11.889
58523W        W30948  17.097   1.368  12.094
58524W        W30949  29.643  30.533   5.237
58525W        W30950  15.734  33.396   0.402
58526W        W30951  29.973  29.992  11.028
58527W        W30952  11.363  25.614  11.419
58528W        W30953  20.079  10.377   3.779
58529W        W30954   2.845  25.087   0.808
58530W        W30955  36.407  30.506   3.318
58531W        W30956  18.766  21.149  11.436
58532W        W30957  30.455  12.746  13.031
58533W        W30958  15.763  17.221  14.935
58534W        W30959  34.393  31.534   2.829
58535W        W30960  22.105  12.130  14.318
58536W        W30961   4.756  39.920  10.961
58537W        W30962  40.351   2.456   3.662
58538W        W30963   5.874  38.849  11.949
58539W        W30964   6.413  40.003   4.717
58540W        W30965  18.682  23.504   4.792
58541W        W30966   2.894  28.995  12.039
58542W        W30967   2.831  32.927   1.827
58543W        W30968  43.919  32.022   4.606
58544W        W30969  16.669  36.010   3.736
58545W        W30970  44.788  19.632  12.095
58546W        W30971  16.616  41.345  11.877
58547W        W30972  11.836  25.596  14.766
58548W        W30973   2.463   9.334  12.049
58549W        W30974   8.357  38.332  10.564
58550W        W30975  10.708  39.412   0.948
58551W        W30976  20.753  27.005   4.800
58552W        W30977  34.376  15.612  12.398
58553W        W30978  24.633  15.153   1.433
58554W        W30979  20.722  38.527   2.707
58555W        W30980  11.710  39.349   4.697
58556W        W30981  33.997   9.677  11.570
58557W        W30982  18.071  37.937   4.767
58558W        W30983  18.150  39.375  11.899
58559W        W30984  34.981  28.121   2.312
58560W        W30985  20.260  31.648  10.080
58561W        W30986  41.328   7.857   4.689
58562W        W30987  33.560  40.390   4.191
58563W        W30988  29.112  42.899  10.469
58564W        W30989  27.555  11.722   4.814
58565W        W30990  14.727  11.844  11.971
58566W        W30991  40.409   6.844   4.284
58567W        W30992  26.148   8.341  11.550
58568W        W30993  42.287  35.975   2.678
58569W        W30994  20.149  12.343  11.429
58570W        W30995  19.590  11.206  12.080
58571W        W30996  16.206  42.367  13.977
58572W        W30997  28.979   4.441   3.629
58573W        W30998  13.307  34.532   1.892
58574W        W30999   6.882  19.607   4.237
58575W        W31000  32.030  27.081   0.397
58576W        W31001  44.262  20.243  11.059
58577W        W31002  11.837  39.945  13.906
58578W        W31003   3.903  42.520  11.880
58579W        W31004  18.567  37.021  12.381
58580W        W31005  13.234  14.619   3.720
58581W        W31006  36.475  35.881   3.691
58582W        W31007   1.364  16.624   2.231
58583W        W31008  39.340  39.902  14.771
58584W        W31009   3.944  25.208  12.434
58585W        W31010   3.807  40.936  13.965
58586W        W31011  24.493  10.253   2.393
58587W        W31012  28.952   2.890  11.080
58588W        W31013  29.021  23.180  13.350
58589W        W31014  18.063  13.618   2.299
58590W        W31015  17.226  36.503  11.402
58591W        W31016  24.190  12.702  10.892
58592W        W31017   2.251  16.758  10.927
58593W        W31018  33.919  43.334   3.819
58594W        W31019  23.141  39.479  12.065
58595W        W31020   1.755  19.536   0.345
58596W        W31021  43.886  21.541   1.849
58597W        W31022  18.206  30.030   3.688
58598W        W31023   4.759   5.238   2.380
58599W        W31024  25.194  14.627   0.843
58600W        W31025  13.679  15.704   4.237
58601W        W31026  12.220   3.410  10.970
58602W        W31027  35.894   2.783   0.914
58603W        W31028  37.525  10.739  13.887
58604W        W31029  38.324  32.468  13.406
58605W        W31030  30.110  10.380  14.870
58606W        W31031  44.846  37.956   2.676
58607W        W31032  24.627  39.433   4.602
58608W        W31033   3.228  40.321  12.532
58609W        W31034   1.350  26.199   1.240
58610W        W31035  37.486  29.028  13.545
58611W        W31036  10.735  44.967  12.388
58612W        W31037   5.281  38.856   3.768
58613W        W31038  24.976   7.845  11.458
58614W        W31039  35.466  39.870  10.498
58615W        W31040   5.895   5.431  14.940
58616W        W31041  23.721  29.543   2.284
58617W        W31042  21.520  29.563  10.895
58618W        W31043  21.522   4.429  14.342
58619W        W31044  25.529  40.510   1.698
58620W        W31045   6.323   7.192  10.552
58621W        W31046  31.029  22.697  12.952
58622W        W31047  34.946  26.475  14.024
58623W        W31048  33.387  28.131   4.662
58624W        W31049   6.295  27.185  11.597
58625W        W31050  19.040  30.655   5.301
58626W        W31051  24.076   2.747  14.315
58627W        W31052  22.072  42.524   2.771
58628W        W31053  16.755  10.278   2.897
58629W        W31054  13.164  27.556   3.735
58630W        W31055   2.943  26.647  14.911
58631W        W31056   5.860  23.620  10.920
58632W        W31057  36.962   8.843   2.766
58633W        W31058  20.593  31.440  10.154
58634W        W31059  39.923   7.855   1.386
58635W        W31060  17.154   1.865  10.562
58636W        W31061  14.329  23.665  14.401
58637W        W31062  31.123  35.006   3.308
58638W        W31063   4.718  22.621   0.296
58639W        W31064   7.397  37.019   1.388
58640W        W31065  22.023  38.859  10.430
58641W        W31066   8.244  42.862   0.331
58642W        W31067  23.620  43.863   1.780
58643W        W31068  38.436  36.963   1.404
58644W        W31069  16.714  27.452   0.944
58645W        W31070  34.521  31.428  13.912
58646W        W31071  13.621  20.172  13.036
58647W        W31072  29.450  11.332  13.516
58648W        W31073  22.633   6.898   0.439
58649W        W31074  31.056  30.473   0.279
58650W        W31075  21.687   9.839  13.885
58651W        W31076  13.202   3.266  13.875
58652W        W31077  17.633  42.362  14.395
58653W        W31078  27.187  30.453  12.868
58654W        W31079  25.619   3.308   0.845
58655W        W31080  28.494  42.511  13.444
58656W        W31081  42.852  12.144  12.373
58657W        W31082  22.536  41.313   4.806
58658W        W31083  29.441  24.489  13.946
58659W        W31084  44.954  37.577   1.788
58660W        W31085  11.634  17.638  13.829
58661W        W31086   8.792  27.447   0.321
58662W        W31087  17.242  31.556  13.887
58663W        W31088  29.655   9.174  14.984
58664W        W31089  18.204  23.147   3.644
58665W        W31090  16.625  23.046   4.793
58666W        W31091  29.039  30.151   5.238
58667W        W31092  42.018  40.874   0.905
58668W        W31093  21.134   7.885   0.395
58669W        W31094  14.740  30.938   2.831
58670W        W31095  38.835  41.836   0.329
58671W        W31096   5.895  18.581   1.721
58672W        W31097  37.408  14.101   0.878
58673W        W31098   4.826   6.824   1.417
58674W        W31099  30.543   9.857   0.319
58675W        W31100  15.597  23.640   1.445
58676W        W31101  44.990  37.377  14.301
58677W        W31102  20.148  36.520  14.894
58678W        W31103  20.228  20.221   0.249
58679W        W31104  20.684  27.602  13.468
58680W        W31105  44.865  27.143   1.774
58681W        W31106  24.117  26.702   4.740
58682W        W31107  25.196  11.766  14.852
58683W        W31108  24.081  42.902   3.842
58684W        W31109  39.354   2.462   4.198
58685W        W31110   2.313  25.063  13.963
58686W        W31111  17.666  30.541   4.828
58687W        W31112  39.030   9.805  10.026
58688W        W31113   4.730  21.149  13.526
58689W        W31114  37.500  25.710  10.981
58690W        W31115  40.810  38.058   4.288
58691W        W31116  12.805  31.406   0.394
58692W        W31117  35.526  27.629  14.458
58693W        W31118  44.360  24.055   1.353
58694W        W31119  32.138   2.399   4.627
58695W        W31120  25.679   9.808   3.345
58696W        W31121  22.174   0.945  12.835
58697W        W31122  42.798  13.606   0.384
58698W        W31123  20.220  23.717  11.125
58699W        W31124  40.477   4.874  10.495
58700W        W31125  15.615  23.499   4.712
58701W        W31126  26.702   3.895   1.820
58702W        W31127  34.540  35.444   4.606
58703W        W31128  26.184  12.621   3.776
58704W        W31129  10.813  43.808  10.981
58705W        W31130  21.731  10.196   1.705
58706W        W31131  14.114  20.537   1.298
58707W        W31132  21.072   0.384  11.537
58708W        W31133  25.064  22.627   4.154
58709W        W31134  38.514  31.912   0.398
58710W        W31135  35.894  13.763   2.216
58711W        W31136  22.155  34.927   1.903
58712W        W31137  25.477  27.523  10.907
58713W        W31138  35.858  23.176   0.365
58714W        W31139  23.675   3.720   3.209
58715W        W31140  39.323   4.316  13.906
58716W        W31141  31.960   6.381  13.794
58717W        W31142   0.444  25.148   3.630
58718W        W31143   0.746  41.438   4.268
58719W        W31144  15.229   9.820  10.413
58720W        W31145  33.931  39.467   4.130
58721W        W31146  15.674  28.661   0.445
58722W        W31147   2.296   8.269  12.498
58723W        W31148  16.660  34.026   3.326
58724W        W31149   1.763   3.905   2.300
58725W        W31150  31.039   6.907   1.780
58726W        W31151  39.494  18.663  12.944
58727W        W31152  11.690  18.227  10.951
58728W        W31153  11.203  16.568   4.320
58729W        W31154  39.839  13.825  10.534
58730W        W31155   6.320  31.598  12.425
58731W        W31156  34.971  21.126  13.413
58732W        W31157  34.017  41.311  13.825
58733W        W31158  40.411   7.322   0.737
58734W        W31159   1.857  10.256   3.667
58735W        W31160  36.424  14.225   2.840
58736W        W31161  29.062  29.573   4.706
58737W        W31162  11.304   9.156   1.782
58738W        W31163  31.921  28.051  14.845
58739W        W31164  43.903  13.663   2.720
58740W        W31165   3.870  27.579   4.227
58741W        W31166  31.624  18.635   3.865
58742W        W31167   7.829  21.616   0.764
58743W        W31168  42.419  11.796   4.622
58744W        W31169  34.442   5.903   1.299
58745W        W31170   2.428   2.299   0.961
58746W        W31171   5.224   0.891  10.959
58747W        W31172  19.266  40.881   4.619
58748W        W31173  14.209  26.041   2.282
58749W        W31174   9.170   9.888  12.367
58750W        W31175  20.204  12.204   1.243
58751W        W31176  10.748  21.743  13.046
58752W        W31177  19.175  29.454   2.736
58753W        W31178  43.316  31.611  12.389
58754W        W31179  30.629  12.646  12.522
58755W        W31180   9.301  11.667   2.298
58756W        W31181  37.414  38.910  14.907
58757W        W31182  15.768  15.238   3.198
58758W        W31183  31.934  34.569   4.187
58759W        W31184  18.093   6.724  14.768
58760W        W31185   1.861   0.251  11.546
58761W        W31186  28.494  38.534   3.748
58762W        W31187  28.152   6.825   4.772
58763W        W31188  20.100  13.160  12.060
58764W        W31189  27.090  31.055  11.997
58765W        W31190  22.611  18.105   1.815
58766W        W31191  23.133   4.895   3.716
58767W        W31192  29.148  30.434   9.995
58768W        W31193  36.906  31.032  14.306
58769W        W31194  19.156  39.056  12.405
58770W        W31195  31.570  36.521   4.151
58771W        W31196  42.783  37.577  13.364
58772W        W31197  11.626  24.573  11.931
58773W        W31198  32.532   4.327   1.370
58774W        W31199  12.299  25.142  13.425
58775W        W31200  42.805  16.652   4.723
58776W        W31201  12.269   8.286   4.169
58777W        W31202  33.565   2.262   4.179
58778W        W31203  33.922  16.119  10.514
58779W        W31204  33.123   9.676   4.597
58780W        W31205   0.321  40.447  13.413
58781W        W31206   8.713  40.385   2.746
58782W        W31207  14.124  20.585  10.499
58783W        W31208  37.960  25.641   4.335
58784W        W31209  39.844  40.891  12.399
58785W        W31210   7.903  31.480  14.772
58786W        W31211   7.228  19.660   2.797
58787W        W31212  38.555   9.187  10.525
58788W        W31213  36.049  40.944   1.247
58789W        W31214  43.872  43.011  11.504
58790W        W31215  35.461  25.476  12.893
58791W        W31216  42.919  26.180   0.951
58792W        W31217  31.557   2.283   2.232
58793W        W31218  16.573  36.901   4.241
58794W        W31219  36.556  33.475   1.719
58795W        W31220   2.461  23.084  11.010
58796W        W31221  20.063  38.043   3.735
58797W        W31222  32.507  10.297  11.989
58798W        W31223   1.930  17.605  14.416
58799W        W31224  38.837  42.403   0.753
58800W        W31225   5.298  44.858   4.186
58801W        W31226  12.196  41.839   0.813
58802W        W31227   9.813  29.962   0.964
58803W        W31228  25.660  14.112  14.447
58804W        W31229  37.052  24.655   0.794
58805W        W31230  10.228  26.559  10.995
58806W        W31231  10.324   8.844   5.248
58807W        W31232  31.031  28.024   5.314
58808W        W31233   5.424  29.015  13.460
58809W        W31234  37.875  20.184   2.197
58810W        W31235  26.048  23.611   2.195
58811W        W31236  20.167  19.126   4.686
58812W        W31237  18.236  12.165   4.321
58813W        W31238   2.351  17.634  13.899
58814W        W31239  29.617  44.389  11.034
58815W        W31240   4.903  31.458   3.803
58816W        W31241  26.122  20.203   4.803
58817W        W31242  24.706  33.902   1.358
58818W        W31243  27.061   5.425   2.876
58819W        W31244  20.076   0.785   4.743
58820W        W31245  23.495  34.978  14.366
58821W        W31246  30.607  17.077  11.568
58822W        W31247  20.693  44.481  12.022
58823W        W31248  11.310   6.419  11.385
58824W        W31249  19.227  23.501   2.388
58825W        W31250  31.508  32.920   4.266
58826W        W31251   9.338  24.029  11.594
58827W        W31252  36.965  13.828  12.084
58828W        W31253  28.608  16.576   4.152
58829W        W31254  39.934   3.363  10.972
58830W        W31255  29.931  17.095  12.021
58831W        W31256  29.506  27.687  13.478
58832W        W31257  32.989  35.938  11.922
58833W        W31258  16.631   1.356   5.102
58834W        W31259  30.625  14.693   4.801
58835W        W31260  15.303   0.784  13.316
58836W        W31261  14.198  30.438   9.925
58837W        W31262  24.091  41.303   4.672
58838W        W31263  18.604  15.131  12.403
58839W        W31264  35.556  26.093  13.365
58840W        W31265  18.150  41.495   1.398
58841W        W31266  41.921  24.187  12.958
58842W        W31267   1.771  34.899  11.458
58843W        W31268  39.494   3.914  11.429
58844W        W31269  28.080  10.233  12.362
58845W        W31270  34.104  19.630   0.959
58846W        W31271  28.638  22.598  13.351
58847W        W31272  34.570  24.121   4.285
58848W        W31273  29.563  13.197  12.017
58849W        W31274  37.418   7.687   2.344
58850W        W31275  31.639  12.119   0.961
58851W        W31276  30.585  43.450  12.871
58852W        W31277  23.708   5.719  13.884
58853W        W31278  30.438  18.258   0.453
58854W        W31279  35.547  27.951   0.296
58855W        W31280   8.331  11.771   2.400
58856W        W31281   1.482   4.391  12.425
58857W        W31282   0.456  17.692  11.959
58858W        W31283  40.530  42.328  13.496
58859W        W31284  41.038  22.532   2.272
58860W        W31285   6.883  30.015   2.413
58861W        W31286   5.771  39.006  14.851
58862W        W31287  13.623  26.127   4.294
58863W        W31288  12.823  40.406  14.278
58864W        W31289  26.537  29.561   4.198
58865W        W31290   0.980   2.422   4.247
58866W        W31291  16.265   4.708  13.815
58867W        W31292   4.942  29.057  11.550
58868W        W31293  11.655  21.124  12.523
58869W        W31294  37.961   8.305  10.989
58870W        W31295   1.442  15.251   3.866
58871W        W31296  41.429   8.782   3.793
58872W        W31297  26.571   2.446  14.976
58873W        W31298  22.707  36.476   3.777
58874W        W31299   6.388  12.337  13.010
58875W        W31300  15.256  35.470  11.125
58876W        W31301  19.075  36.947   3.265
58877W        W31302  14.777  12.362  13.847
58878W        W31303  43.993  27.092   2.702
58879W        W31304  37.497   2.330   1.719
58880W        W31305   4.806  14.108  13.048
58881W        W31306  34.034  40.888   3.191
58882W        W31307  21.547  39.961  14.383
58883W        W31308  10.223  12.848  12.489
58884W        W31309  24.683  27.072  12.872
58885W        W31310  21.215  31.532  13.460
58886W        W31311  39.018   4.845   2.856
58887W        W31312   9.188  42.491  10.926
58888W        W31313   6.700  32.130   1.721
58889W        W31314   4.422  16.749   0.360
58890W        W31315   4.757  13.707  14.763
58891W        W31316  32.077  24.999   0.272
58892W        W31317   8.702  20.138  11.585
58893W        W31318  30.594  34.417   3.674
58894W        W31319  37.946  10.155   2.252
58895W        W31320   9.678   4.257   2.217
58896W        W31321  39.949   4.722   2.360
58897W        W31322  37.427  37.381  13.529
58898W        W31323  18.240  35.999  13.036
58899W        W31324  34.516  27.499   1.387
58900W        W31325   2.241  20.115   0.964
58901W        W31326  26.555  38.348  13.058
58902W        W31327  11.205  22.708  11.965
58903W        W31328   3.712  10.681  11.581
58904W        W31329  39.033  16.714   3.195
58905W        W31330   5.825  25.652   1.237
58906W        W31331  28.461   6.377   1.347
58907W        W31332  38.433   5.323  13.001
58908W        W31333   8.370  12.724   2.747
58909W        W31334   9.740  16.791   3.793
58910W        W31335  23.589  15.323   3.339
58911W        W31336  27.477  22.600   3.857
58912W        W31337  25.011  27.524  14.285
58913W        W31338   7.210   8.677  11.430
58914W        W31339  18.622  19.236  13.941
58915W        W31340   7.335  25.195  12.984
58916W        W31341  23.676  16.126   0.827
58917W        W31342  34.969   2.426  11.079
58918W        W31343  11.769   7.883  12.833
58919W        W31344  39.829  14.760   0.855
58920W        W31345  43.318   5.400   3.691
58921W        W31346   9.795  31.075   1.390
58922W        W31347  31.574  43.954  12.862
58923W        W31348  43.817  27.159   1.347
58924W        W31349  37.468   3.836   4.334
58925W        W31350   1.814  44.951  14.930
58926W        W31351  21.084  44.843  10.592
58927W        W31352  26.574  18.219   0.479
58928W        W31353  28.954   1.237   2.286
58929W        W31354  31.537   6.249   2.795
58930W        W31355   8.220  12.641   1.723
58931W        W31356  35.400  43.806  11.558
58932W        W31357  41.486  40.902  10.464
58933W        W31358  10.302   4.262  14.403
58934W        W31359  32.074  29.632   3.329
58935W        W31360  15.259  17.128   1.784
58936W        W31361  36.023   2.339   3.710
58937W        W31362   7.748  25.008   5.085
58938W        W31363  16.139  36.436  12.492
58939W        W31364   2.339  19.250  13.361
58940W        W31365  24.072  39.336   2.315
58941W        W31366  28.463  13.803   4.741
58942W        W31367  16.807  14.251  13.504
58943W        W31368  24.506  29.488  13.539
58944W        W31369  13.739  44.355   4.615
58945W        W31370  40.902  32.590  12.407
58946W        W31371  23.651  22.121   2.790
58947W        W31372   4.894   4.888   4.825
58948W        W31373  10.823  26.075  11.395
58949W        W31374  15.790  11.337   9.977
58950W        W31375  33.426  23.165   1.290
58951W        W31376  15.207  16.098   3.162
58952W        W31377  16.279  17.175   2.729
58953W        W31378  26.165   7.706  14.370
58954W        W31379   7.814  43.357  14.380
58955W        W31380  10.843  24.097  11.416
58956W        W31381   3.301  38.845   4.780
58957W        W31382  42.368  13.247  12.908
58958W        W31383   8.384  10.686  14.994
58959W        W31384  35.106  16.747  13.462
58960W        W31385  42.484  37.337  11.863
58961W        W31386  24.657  36.561  11.024
58962W        W31387   9.298  40.814   4.297
58963W        W31388  36.463   7.379   3.255
58964W        W31389  17.119  10.317  13.321
58965W        W31390  40.046  29.137   2.701
58966W        W31391  40.510   7.386   2.835
58967W        W31392  27.168  35.405  13.455
58968W        W31393  23.571  15.168   0.408
58969W        W31394  32.579   2.841  14.762
58970W        W31395  24.120  15.104   4.147
58971W        W31396  17.239  23.677  12.473
58972W        W31397  10.373   6.813   1.414
58973W        W31398  28.650  33.493  13.368
58974W        W31399  28.088  31.100   2.788
58975W        W31400  19.736  22.705  13.476
58976W        W31401   6.279  44.903   4.230
58977W        W31402  17.590  29.509   0.433
58978W        W31403  26.618  29.621  12.423
58979W        W31404  27.000  44.998  12.435
58980W        W31405  26.982  43.962  14.915
58981W        W31406  28.041   9.276   0.842
58982W        W31407  41.920  17.070   1.728
58983W        W31408  17.576   9.813   2.351
58984W        W31409   5.405  29.151  11.562
58985W        W31410  23.138  32.514   3.256
58986W        W31411  17.685  32.059  13.906
58987W        W31412  33.476  23.626   0.294
58988W        W31413  29.524  42.861  12.068
58989W        W31414  37.543  24.107   4.760
58990W        W31415  36.423   6.198   0.261
58991W        W31416  32.082  44.878  13.866
58992W        W31417  12.825  42.872   1.310
58993W        W31418  23.185  20.064   1.378
58994W        W31419  31.456   2.820  12.431
58995W        W31420   6.912   1.923   0.329
58996W        W31421  13.805   4.819   4.150
58997W        W31422  19.638  40.019   1.885
58998W        W31423  29.138  40.847  12.573
58999W        W31424  39.846  28.608  11.415
59000W        W31425   9.840   0.458   0.385
59001W        W31426  10.285  34.118   0.727
59002W        W31427   3.738  40.806   4.650
59003W        W31428  38.890   3.251   3.147
59004W        W31429  15.665  29.638   3.701
59005W        W31430  20.184  33.592  12.380
59006W        W31431  33.937  29.449  13.320
59007W        W31432  42.408  23.734  12.556
59008W        W31433  40.927   7.232  10.502
59009W        W31434  25.035  39.435   3.324
59010W        W31435  26.655  42.032   4.649
59011W        W31436  20.633  24.132   2.223
59012W        W31437  26.644   6.694  14.494
59013W        W31438  36.379  34.429  12.442
59014W        W31439  18.585   7.688   3.712
59015W        W31440  38.941   4.388   1.817
59016W        W31441   6.700   7.174  12.847
59017W        W31442  36.019  27.195  14.847
59018W        W31443  32.950  23.724   3.711
59019W        W31444   1.246   8.819   2.792
59020W        W31445  38.327  18.110  11.947
59021W        W31446  34.593   4.728   1.934
59022W        W31447  30.611  25.008   3.151
59023W        W31448  17.766  21.621  14.839
59024W        W31449  12.751  11.832   2.260
59025W        W31450  42.986  36.011   4.339
59026W        W31451  13.116  43.334   0.382
59027W        W31452  17.628   2.816  13.921
59028W        W31453  11.317  38.466  10.458
59029W        W31454  39.392  15.690  13.017
59030W        W31455  25.992  16.663   2.260
59031W        W31456   2.315  40.328   3.323
59032W        W31457   7.867  30.463  14.961
59033W        W31458  41.994  35.466  11.592
59034W        W31459   3.302  26.542   3.844
59035W        W31460   9.209  18.613   2.270
59036W        W31461  17.739  26.967  13.977
59037W        W31462  24.605  31.047  11.079
59038W        W31463  18.713  22.653  12.565
59039W        W31464  44.296  12.663   0.941
59040W        W31465   1.444   9.179   2.407
59041W        W31466  10.693  44.942  13.793
59042W        W31467  40.384  22.544  12.393
59043W        W31468   3.909   0.747   0.262
59044W        W31469  31.452  38.354   2.373
59045W        W31470  36.852  28.094  10.535
59046W        W31471  24.014   2.314  14.024
59047W        W31472  36.052  34.466   1.410
59048W        W31473   4.789  13.250   0.312
59049W        W31474   8.697  42.968   4.169
59050W        W31475  36.971  25.537  13.950
59051W        W31476  12.831  34.392   0.291
59052W        W31477   5.802  35.493  14.489
59053W        W31478  23.588  36.850   0.746
59054W        W31479  17.715  23.190   3.186
59055W        W31480  14.217  19.628  12.370
59056W        W31481   2.787  44.958   1.326
59057W        W31482  32.093  14.275  14.803
59058W        W31483  27.141  18.633  13.324
59059W        W31484   4.382  31.142   0.784
59060W        W31485   7.887   2.808  11.107
59061W        W31486  26.573  26.036  13.049
59062W        W31487  12.313  37.436   0.840
59063W        W31488  21.667  27.116   4.812
59064W        W31489   0.954  37.858   3.758
59065W        W31490  31.927  34.481  10.122
59066W        W31491  32.538  15.139  11.577
59067W        W31492  18.625  20.605  13.812
59068W        W31493  19.724   6.734   3.633
59069W        W31494  40.934  44.498  14.932
59070W        W31495   3.817  34.933   3.812
59071W        W31496   9.300  29.108   0.925
59072W        W31497  34.901  11.127   3.666
59073W        W31498  43.337  26.612  10.552
59074W        W31499  11.161  27.120  12.954
59075W        W31500  18.244  13.207  11.993
59076W        W31501   2.844   5.263   2.249
59077W        W31502   6.258   3.929  11.587
59078W        W31503  29.472  30.994   2.209
59079W        W31504  11.708  18.619  14.428
59080W        W31505   4.810   4.897   9.943
59081W        W31506  19.553  35.553   0.810
59082W        W31507  22.547  17.724  12.054
59083W        W31508  34.050  36.574   1.223
59084W        W31509  24.498   8.253  12.352
59085W        W31510   6.846   2.371   1.822
59086W        W31511   7.760   7.303   0.484
59087W        W31512  11.817  32.484  11.541
59088W        W31513  12.166  10.370  14.986
59089W        W31514  39.899  41.837  11.444
59090W        W31515  40.972   4.414   2.881
59091W        W31516  29.981   7.671   2.816
59092W        W31517  17.745  35.363  10.518
59093W        W31518  40.831  10.789  12.483
59094W        W31519  17.121   8.733  10.605
59095W        W31520   6.679  31.579  11.553
59096W        W31521  22.152  31.040  13.473
59097W        W31522  38.486  35.931   3.364
59098W        W31523  12.806  21.725  14.842
59099W        W31524   8.272  12.732  13.938
59100W        W31525  42.453  24.624  14.941
59101W        W31526  27.456  15.622  14.907
59102W        W31527  35.440   3.917  14.442
59103W        W31528  30.423  35.066   1.806
59104W        W31529   3.767  26.649  10.901
59105W        W31530  40.818  25.200   4.246
59106W        W31531  17.130  10.798  13.813
59107W        W31532  26.604  42.899  11.933
59108W        W31533   0.369  34.529   3.676
59109W        W31534   0.463  23.086   4.653
59110W        W31535  44.800  36.548   1.402
59111W        W31536  37.929  34.568   4.798
59112W        W31537   8.870  13.350   3.240
59113W        W31538   6.246  28.480  11.429
59114W        W31539  38.537  20.201  13.016
59115W        W31540  33.472   7.319  14.503
59116W        W31541  17.177   9.348   4.275
59117W        W31542   4.380   0.382  12.429
59118W        W31543   9.213  39.431  13.932
59119W        W31544  13.221  30.961   2.350
59120W        W31545   1.392   3.805  12.952
59121W        W31546  22.189  10.240   5.195
59122W        W31547  44.362   4.929   2.316
59123W        W31548   6.917  39.474  10.926
59124W        W31549  23.045  35.897  14.894
59125W        W31550  11.645  18.078   1.902
59126W        W31551   1.341  38.359  11.580
59127W        W31552  36.418  42.008   4.348
59128W        W31553   7.703  12.838   1.902
59129W        W31554  31.606   3.246   0.900
59130W        W31555  21.181  11.142   1.238
59131W        W31556  31.549  37.981   3.844
59132W        W31557  36.525  43.410   0.769
59133W        W31558  25.034  30.483  12.346
59134W        W31559   7.705  29.644  11.572
59135W        W31560  40.400  10.196   3.218
59136W        W31561  26.495  26.558   3.242
59137W        W31562   8.864  26.500   4.736
59138W        W31563  23.679  35.526  14.903
59139W        W31564  13.125   6.864   3.369
59140W        W31565  38.040  18.284   2.241
59141W        W31566  13.122  33.112   3.183
59142W        W31567  44.426  33.431  14.019
59143W        W31568  10.375  29.592  12.095
59144W        W31569  26.997  19.678  12.940
59145W        W31570  22.530   4.435   1.785
59146W        W31571  20.534   3.841   3.805
59147W        W31572  26.128  25.124  14.345
59148W        W31573   2.839   9.844  10.563
59149W        W31574  16.140  17.658   3.302
59150W        W31575  31.964  32.038   0.891
59151W        W31576  31.097  19.666   0.452
59152W        W31577  20.697  36.538   3.831
59153W        W31578  30.934  21.549  10.997
59154W        W31579  44.471  27.942  13.842
59155W        W31580  32.960  11.312  12.050
59156W        W31581  37.948  11.282   3.785
59157W        W31582  22.507  26.128  14.831
59158W        W31583  32.607  32.423   2.326
59159W        W31584  27.483   5.844   1.907
59160W        W31585  44.936  12.740  11.930
59161W        W31586  32.981  12.135   2.289
59162W        W31587  17.564  27.688   3.348
59163W        W31588  23.707  35.541   1.375
59164W        W31589   9.316  11.219  11.445
59165W        W31590  44.884   6.298   3.178
59166W        W31591  42.342   2.856  10.504
59167W        W31592  13.643  22.565  10.907
59168W        W31593  29.500  25.213   2.335
59169W        W31594   6.873  18.686  14.799
59170W        W31595   3.810  33.939   1.266
59171W        W31596  27.582  21.752   3.681
59172W        W31597  26.647  27.691   1.927
59173W        W31598  12.270  17.676  12.373
59174W        W31599  20.728  23.056   1.274
59175W        W31600  22.534  28.545   3.170
59176W        W31601  21.081  44.425  14.023
59177W        W31602   4.318   7.369   3.372
59178W        W31603  32.005  12.141  11.002
59179W        W31604   4.372   0.460  14.512
59180W        W31605  17.730   4.941  12.066
59181W        W31606  32.511  19.695   3.222
59182W        W31607  10.815  33.528   2.244
59183W        W31608  17.688  12.287   4.696
59184W        W31609   4.903  15.781   2.380
59185W        W31610  42.437  18.641   3.839
59186W        W31611  30.529  22.520  10.521
59187W        W31612  30.613  26.537  13.031
59188W        W31613   4.901  26.553   2.883
59189W        W31614  17.116  30.965   1.730
59190W        W31615  39.498  31.993   1.368
59191W        W31616  11.286  16.804  11.450
59192W        W31617  12.645   6.714  11.024
59193W        W31618  40.047   1.945   3.188
59194W        W31619  17.718  16.272  12.966
59195W        W31620  10.285  31.054   3.286
59196W        W31621  40.935  33.455  14.504
59197W        W31622  32.932  20.581   2.394
59198W        W31623  30.456  15.249  11.539
59199W        W31624  38.920  13.700   0.958
59200W        W31625  44.899   3.357   3.760
59201W        W31626   9.791  43.965  14.786
59202W        W31627  15.675  27.178   3.840
59203W        W31628   1.441  33.441  12.937
59204W        W31629  34.613  21.728  14.325
59205W        W31630  34.890   0.849  13.931
59206W        W31631  24.664  11.850   4.287
59207W        W31632  16.266  21.092  14.927
59208W        W31633  36.992  19.687   2.399
59209W        W31634  21.571  44.921  13.992
59210W        W31635  41.994  16.101   0.877
59211W        W31636  36.940   7.244   1.802
59212W        W31637  42.355  34.382   0.744
59213W        W31638  16.171  26.689   4.168
59214W        W31639   0.937  29.104  13.316
59215W        W31640   7.801  26.962   2.283
59216W        W31641   5.870  14.218   2.398
59217W        W31642  23.547  37.901   3.766
59218W        W31643   5.223  19.253  11.005
59219W        W31644   7.737   7.178  10.625
59220W        W31645  21.181  24.054   3.867
59221W        W31646  12.677  33.107   3.264
59222W        W31647  39.530  40.815  14.965
59223W        W31648  28.185   3.453  11.455
59224W        W31649  32.597  12.744   0.280
59225W        W31650  35.548  32.992  14.499
59226W        W31651   9.373  38.500   1.387
59227W        W31652  26.003   4.819  10.915
59228W        W31653  16.146   0.947  12.895
59229W        W31654  10.379  14.242  12.463
59230W        W31655  32.057  14.830  11.497
59231W        W31656  43.274  13.109   1.392
59232W        W31657  34.114  13.818  13.036
59233W        W31658  14.115   5.894   1.856
59234W        W31659  34.521   8.879   4.138
59235W        W31660  35.063  21.643   3.816
59236W        W31661  39.502  31.621   4.808
59237W        W31662  13.777  10.719  13.018
59238W        W31663  37.934  17.274  12.053
59239W        W31664  41.801  16.619  14.495
59240W        W31665  28.961  41.509  13.477
59241W        W31666  10.305  22.073  10.472
59242W        W31667   5.248  21.531  13.886
59243W        W31668  23.604  26.701   2.251
59244W        W31669  21.657  17.152  11.037
59245W        W31670   2.750  10.788   1.394
59246W        W31671  14.769  26.029  11.481
59247W        W31672  13.777  20.120  14.974
59248W        W31673  44.325   2.376   2.270
59249W        W31674   9.301  34.503  12.499
59250W        W31675  34.950   0.258   3.313
59251W        W31676  18.588   9.165   3.742
59252W        W31677  10.345  14.744   0.807
59253W        W31678  35.972  23.520   0.748
59254W        W31679   4.268  33.456  14.005
59255W        W31680  35.893   0.960  14.026
59256W        W31681   8.299   0.948   0.825
59257W        W31682   8.855  22.006   3.649
59258W        W31683  25.558  19.598   2.782
59259W        W31684  18.687  25.548   0.359
59260W        W31685  11.646  33.464   1.341
59261W        W31686  28.621  23.608  12.405
59262W        W31687   7.380   9.750   4.785
59263W        W31688   6.413  17.768  11.061
59264W        W31689  13.644   3.942   0.335
59265W        W31690  38.454  40.001   3.297
59266W        W31691  28.469  21.735   2.306
59267W        W31692   6.775  38.917  10.466
59268W        W31693   3.409  33.965  12.563
59269W        W31694  40.055  22.229   1.727
59270W        W31695  36.078   4.218  14.350
59271W        W31696  31.087  32.902   0.299
59272W        W31697  33.403   6.203  14.396
59273W        W31698   9.187  36.926  10.950
59274W        W31699   3.731  42.504   3.668
59275W        W31700  21.560  41.444  14.831
59276W        W31701  18.106  24.664  10.450
59277W        W31702  35.990  43.439   4.788
59278W        W31703  11.645  12.155   1.231
59279W        W31704  11.368  41.836   4.674
59280W        W31705  36.410   6.311   5.106
59281W        W31706  40.548  36.369   4.177
59282W        W31707   6.890  32.501  12.369
59283W        W31708  27.103  39.366   1.909
59284W        W31709   3.889  13.776  11.613
59285W        W31710   6.354  33.061   3.192
59286W        W31711  21.585  35.383   0.849
59287W        W31712  17.631   8.745   3.325
59288W        W31713   3.273  26.674  14.392
59289W        W31714   4.224  33.513   0.335
59290W        W31715  29.666   7.251  13.412
59291W        W31716   2.732  21.717   4.758
59292W        W31717  30.990  16.250   3.212
59293W        W31718  33.005  23.187  14.281
59294W        W31719   7.806  25.083  13.366
59295W        W31720  34.001  16.641   2.750
59296W        W31721  19.626  21.136   5.171
59297W        W31722   9.252  29.036   2.333
59298W        W31723   4.221  26.565   0.811
59299W        W31724  24.487  37.843   1.832
59300W        W31725  39.974  44.863  11.109
59301W        W31726  44.331  30.029   0.415
59302W        W31727   6.306  36.866  12.035
59303W        W31728   9.883  19.189  11.025
59304W        W31729  12.795  34.026   1.231
59305W        W31730  30.637  20.127   0.902
59306W        W31731  18.119   0.787  12.967
59307W        W31732  32.958  38.956  14.485
59308W        W31733  31.065  35.904  13.948
59309W        W31734  34.452   8.838  10.505
59310W        W31735  27.686  36.055   2.407
59311W        W31736  18.226   1.307  10.534
59312W        W31737  19.182   8.719   2.321
59313W        W31738  39.325  42.777   5.191
59314W        W31739  21.088  39.557  10.642
59315W        W31740   8.730  32.635   2.701
59316W        W31741  14.095  21.099   5.092
59317W        W31742  25.194   9.698  13.972
59318W        W31743  21.525  12.825   3.869
59319W        W31744  34.927  35.592  14.879
59320W        W31745  36.549  38.502   1.238
59321W        W31746  15.149  15.784   2.820
59322W        W31747  30.928   4.917  10.969
59323W        W31748  24.204  41.516  14.316
59324W        W31749  28.039  10.251  13.400
59325W        W31750  17.774   9.266  12.442
59326W        W31751  27.631  32.919  11.374
59327W        W31752  40.847   6.824   4.249
59328W        W31753  39.431  10.766   2.335
59329W        W31754  23.995  21.136  13.314
59330W        W31755  21.025  13.176  13.334
59331W        W31756  20.122  30.462  11.559
59332W        W31757   4.906  30.970   4.326
59333W        W31758   2.350   5.227  14.973
59334W        W31759   5.894  35.366  12.829
59335W        W31760  35.500  27.050  14.898
59336W        W31761  30.951  43.983  10.907
59337W        W31762  26.556  14.636   5.092
59338W        W31763  10.645  30.920   1.859
59339W        W31764  21.212  31.637  12.390
59340W        W31765   5.279  11.732   9.985
59341W        W31766  15.653  42.374   1.795
59342W        W31767  24.567  19.672   3.232
59343W        W31768   8.733  36.403   2.196
59344W        W31769   3.378  36.994  11.394
59345W        W31770  28.656  35.550  14.433
59346W        W31771  14.650   5.215   3.343
59347W        W31772  10.851  31.616   2.778
59348W        W31773  36.475  16.184  12.470
59349W        W31774  17.265   9.320   2.222
59350W        W31775  44.378   0.389   0.917
59351W        W31776  24.693  18.632  14.511
59352W        W31777  19.270  25.066  13.437
59353W        W31778  10.198   7.890  14.431
59354W        W31779  29.557  11.762  12.368
59355W        W31780  38.924  24.555  13.357
59356W        W31781  30.127  35.559   3.327
59357W        W31782   7.814   2.922   2.237
59358W        W31783  36.017  16.135   0.472
59359W        W31784  21.091  33.607  12.423
59360W        W31785  32.892   7.209   1.408
59361W        W31786   0.933  35.002   4.743
59362W        W31787  15.252  35.096   2.676
59363W        W31788  17.063   8.236  14.911
59364W        W31789  32.527   7.740   3.298
59365W        W31790  21.750  23.562  10.473
59366W        W31791  26.611  20.554  11.470
59367W        W31792  15.820  21.181  11.371
59368W        W31793  31.589  34.067  12.981
59369W        W31794   1.254  13.126  12.468
59370W        W31795   1.264   3.255   4.739
59371W        W31796  34.935   6.920  11.493
59372W        W31797  34.959   5.826  13.850
59373W        W31798  36.378  33.420  13.830
59374W        W31799   4.888  44.328  12.465
59375W        W31800  15.169  29.429  11.014
59376W        W31801  14.321  26.519   4.754
59377W        W31802   7.874   6.745   0.280
59378W        W31803   4.877  20.686   2.713
59379W        W31804  28.122  41.987   4.599
59380W        W31805  26.682  42.829   3.148
59381W        W31806  31.563  37.839  14.824
59382W        W31807  24.192  11.852  10.023
59383W        W31808  17.123  30.616   1.741
59384W        W31809  39.465  23.997   0.807
59385W        W31810  17.208  31.526   0.769
59386W        W31811  44.896   9.742  10.507
59387W        W31812  36.899  13.660   3.348
59388W        W31813  32.956  25.097   2.740
59389W        W31814  30.920  34.607  13.990
59390W        W31815   4.925  12.299  13.822
59391W        W31816  13.737   8.866   2.696
59392W        W31817  28.047  27.488   2.406
59393W        W31818  32.050  35.429  13.954
59394W        W31819  20.543  44.852   2.369
59395W        W31820  43.313  43.883  11.465
59396W        W31821  39.471  17.599   4.304
59397W        W31822  41.474  43.949   1.899
59398W        W31823  21.122  29.938   1.806
59399W        W31824  16.224  32.595  14.988
59400W        W31825   1.244  20.769  13.812
59401W        W31826  29.464   9.854   4.275
59402W        W31827  15.671  41.459   0.745
59403W        W31828  12.131  19.583   2.868
59404W        W31829   9.763  24.564  13.999
59405W        W31830   4.811  23.078  10.623
59406W        W31831  25.476  41.804  14.466
59407W        W31832   4.887  29.468   0.452
59408W        W31833  36.517  21.712   4.122
59409W        W31834  31.956  34.522  10.428
59410W        W31835   8.670  43.379  11.932
59411W        W31836  19.203  20.084   4.720
59412W        W31837  40.879  22.639  12.569
59413W        W31838  28.937  33.962  11.020
59414W        W31839   3.955  28.618  11.895
59415W        W31840  14.279   2.867   4.630
59416W        W31841   2.900  26.578  11.018
59417W        W31842  37.964  19.280   3.799
59418W        W31843  29.961  29.517  14.776
59419W        W31844   3.358  24.201  10.451
59420W        W31845  38.957   1.458  10.890
59421W        W31846  29.614  23.132  13.377
59422W        W31847  11.174  25.989  11.020
59423W        W31848  31.976  42.017  14.889
59424W        W31849  18.699  15.262   2.678
59425W        W31850  26.206  34.057  13.433
59426W        W31851  40.934  23.717   2.687
59427W        W31852  23.725   6.693   3.350
59428W        W31853   7.210  23.152  14.016
59429W        W31854  23.675   5.240   0.269
59430W        W31855  28.579  21.251  11.940
59431W        W31856  36.091  14.185   1.927
59432W        W31857   1.324  17.139  12.487
59433W        W31858  18.114  29.986   9.979
59434W        W31859   3.859  40.386   3.747
59435W        W31860   5.359  31.487  12.823
59436W        W31861   9.880  23.120  11.972
59437W        W31862  34.961   8.690   3.668
59438W        W31863   3.454  29.932  11.460
59439W        W31864   3.262   4.822   1.445
59440W        W31865  16.668  37.405   4.165
59441W        W31866  34.570  39.861  12.829
59442W        W31867   6.200   9.329   3.173
59443W        W31868  23.176  10.823   1.764
59444W        W31869   4.738  35.441   4.246
59445W        W31870  42.930  23.569   4.669
59446W        W31871  11.207  23.530   3.148
59447W        W31872  24.053  24.077   2.194
59448W        W31873  34.013  34.482  14.323
59449W        W31874  15.590  33.530   3.305
59450W        W31875  30.444   1.844  11.542
59451W        W31876  24.686   0.944   4.146
59452W        W31877  13.235  28.541   0.945
59453W        W31878  31.611   6.894   2.840
59454W        W31879  12.289  43.381   2.729
59455W        W31880  36.955  33.623   1.321
59456W        W31881  31.644  17.580   1.904
59457W        W31882  30.023  12.283   2.736
59458W        W31883   0.766  41.393  12.447
59459W        W31884  35.378  41.349  12.006
59460W        W31885   4.879  34.372   2.877
59461W        W31886  35.424  42.783   3.867
59462W        W31887  42.495  39.023  12.871
59463W        W31888   9.721  15.309  13.474
59464W        W31889  15.166  13.245   3.663
59465W        W31890   8.335  27.513  13.425
59466W        W31891   4.722  33.568  14.997
59467W        W31892  34.402  37.533  11.569
59468W        W31893  18.222  42.513   3.751
59469W        W31894   1.819   1.943   3.264
59470W        W31895  32.452  38.049   0.361
59471W        W31896  28.551   5.765  12.948
59472W        W31897   3.288  33.599  12.887
59473W        W31898   2.298  11.842   2.401
59474W        W31899  21.171   9.659   9.992
59475W        W31900  35.872  23.177   5.116
59476W        W31901   9.668   2.854  13.034
59477W        W31902  39.379  41.839   4.318
59478W        W31903  19.714  26.681  14.765
59479W        W31904  40.829   3.225  13.886
59480W        W31905  17.770  35.997   2.196
59481W        W31906   9.824  39.403   1.260
59482W        W31907  42.476  12.619   2.865
59483W        W31908  42.846  21.570   0.470
59484W        W31909  32.501   6.843   0.387
59485W        W31910  26.191  28.470  13.988
59486W        W31911   7.687   1.944   2.270
59487W        W31912  42.025  24.138   1.789
59488W        W31913  37.343  24.570   2.705
59489W        W31914  30.591  40.413  14.873
59490W        W31915  31.410  41.923  13.057
59491W        W31916  21.053  13.117   4.804
59492W        W31917  30.990  17.303  10.599
59493W        W31918  41.305  20.272   4.628
59494W        W31919   0.359  15.087  10.497
59495W        W31920  11.146  40.466  10.566
59496W        W31921  13.813  12.240  14.972
59497W        W31922  30.100  39.976   2.369
59498W        W31923  16.112   0.455   5.100
59499W        W31924  14.609  30.072   3.798
59500W        W31925  34.016  24.104   0.827
59501W        W31926   7.671   3.340   3.290
59502W        W31927  19.585  40.886  13.904
59503W        W31928  32.041   7.670   5.301
59504W        W31929  21.740  15.084  14.879
59505W        W31930   9.316  29.433  11.610
59506W        W31931  41.867  42.966   3.301
59507W        W31932  15.174   1.911  11.430
59508W        W31933  44.441  41.029  13.875
59509W        W31934  22.745   7.339   2.791
59510W        W31935  31.914  15.086   2.301
59511W        W31936  24.188  42.456  11.547
59512W        W31937   0.483  32.092  13.504
59513W        W31938  43.422   4.360   2.193
59514W        W31939   4.904  19.076  12.948
59515W        W31940  44.470  40.451   4.115
59516W        W31941  14.640   6.775   4.300
59517W        W31942  15.270   1.310   4.772
59518W        W31943   1.914  36.448   0.835
59519W        W31944  35.457  34.032  14.401
59520W        W31945   9.726  38.535   1.395
59521W        W31946  18.682  24.987   1.321
59522W        W31947  44.009  15.285  13.351
59523W        W31948   0.471  37.007   2.671
59524W        W31949  15.707  38.046  10.963
59525W        W31950  13.311  33.902   3.188
59526W        W31951   9.726  10.642   0.839
59527W        W31952  14.132  37.422   1.423
59528W        W31953  36.500   3.284  12.991
59529W        W31954  17.635  15.175  10.918
59530W        W31955  27.962  25.690  13.475
59531W        W31956  32.012  28.468   0.341
59532W        W31957  20.131  17.169   0.859
59533W        W31958  38.460  12.287  11.994
59534W        W31959  13.624   3.881   4.764
59535W        W31960   5.844  22.244  11.103
59536W        W31961  10.685  33.553  11.109
59537W        W31962  37.398  18.188   4.703
59538W        W31963   0.898   8.715   2.223
59539W        W31964  22.179  30.959  10.972
59540W        W31965  44.318   7.813   0.785
59541W        W31966  30.440  31.405  14.021
59542W        W31967   1.911  29.114   0.927
59543W        W31968  31.629   8.742  14.935
59544W        W31969  18.707  12.196   3.770
59545W        W31970   9.168  20.265   4.628
59546W        W31971   2.364  44.401   4.236
59547W        W31972  33.500  33.578  13.380
59548W        W31973  10.678  14.624  10.600
59549W        W31974   6.755  32.928   3.645
59550W        W31975  38.398  40.454   1.345
59551W        W31976  26.167  42.779  13.895
59552W        W31977   4.774   5.312   3.751
59553W        W31978  44.375  21.629   0.919
59554W        W31979  39.875   4.297   1.784
59555W        W31980  22.578   4.802  12.938
59556W        W31981  38.970  18.782  11.930
59557W        W31982   6.375   5.308   0.456
59558W        W31983  15.232   4.233  13.329
59559W        W31984  21.613  44.829  12.002
59560W        W31985  24.615   8.808   1.371
59561W        W31986  28.589  31.945   0.396
59562W        W31987  33.982  41.982  11.129
59563W        W31988   8.321   8.873  10.516
59564W        W31989  19.602  11.635  12.519
59565W        W31990  39.043  13.149  10.911
59566W        W31991  35.861  11.741  13.467
59567W        W31992  19.274  40.961  14.375
59568W        W31993  44.872   6.284  14.287
59569W        W31994  24.146  23.105  11.466
59570W        W31995  30.139  42.373  11.564
59571W        W31996  21.087  40.870  12.924
59572W        W31997  19.746  42.340   1.876
59573W        W31998  29.009  43.874  13.020
59574W        W31999  14.706  35.928   3.647
59575W        W32000  22.743  44.919  13.918
59576W        W32001  19.699  15.702   3.264
59577W        W32002  38.016   5.786  13.874
59578W        W32003  42.895  20.675  13.945
59579W        W32004  26.701  21.155  11.876
59580W        W32005  35.559  22.185  14.290
59581W        W32006  38.896  28.576  12.347
59582W        W32007  41.021  26.546   2.222
59583W        W32008   1.324  24.578  11.540
59584W        W32009  43.381  38.896  12.485
59585W        W32010  36.507  34.082  11.096
59586W        W32011  33.968  36.083   2.743
59587W        W32012  15.797  26.045  11.993
59588W        W32013  31.122  29.501  12.859
59589W        W32014  25.122  21.744   0.458
59590W        W32015  21.617   3.761  14.406
59591W        W32016  40.412  36.974  14.409
59592W        W32017  19.536   9.681  12.517
59593W        W32018  14.236  11.729  11.936
59594W        W32019  13.252  22.540   0.447
59595W        W32020  15.114  21.126  12.347
59596W        W32021  10.148  43.891   4.182
59597W        W32022  36.970  31.931   2.251
59598W        W32023   4.769   9.746  10.939
59599W        W32024  13.195  42.382   3.854
59600W        W32025  27.119  30.538   4.789
59601W        W32026  20.562   7.187   3.861
59602W        W32027  40.936   1.320   0.778
59603W        W32028   9.883   0.925   2.851
59604W        W32029  32.902  11.192   0.855
59605W        W32030  15.285   3.274  14.874
59606W        W32031   7.399  13.137   2.841
59607W        W32032  22.536   7.292  10.609
59608W        W32033  22.227  36.904  11.974
59609W        W32034  17.268   2.844   2.741
59610W        W32035   3.424  13.144  12.575
59611W        W32036  37.927  25.008  14.884
59612W        W32037  43.979   0.388   4.348
59613W        W32038  43.991  16.763  14.329
59614W        W32039  10.176   5.794   3.203
59615W        W32040  13.145  41.347  12.060
59616W        W32041   8.756  36.575  11.037
59617W        W32042  31.633  36.849  11.535
59618W        W32043  20.217   7.323   2.860
59619W        W32044   5.335  33.980  13.344
59620W        W32045  32.432  42.492   0.442
59621W        W32046  14.805  31.120   0.402
59622W        W32047   7.877  29.073  12.014
59623W        W32048   0.870  29.044   4.597
59624W        W32049  15.306  29.994  10.522
59625W        W32050   1.358  41.979  13.925
59626W        W32051   3.908  24.003  13.332
59627W        W32052  38.897  16.083  12.555
59628W        W32053  38.489  25.162  13.858
59629W        W32054  12.789   3.241   0.388
59630W        W32055  24.195  21.639  14.792
59631W        W32056  34.602   4.732   0.799
59632W        W32057  25.639  26.161   2.664
59633W        W32058  10.746   7.777   3.806
59634W        W32059  23.130   0.359  14.830
59635W        W32060  34.889  42.795  14.844
59636W        W32061  33.472  36.401  10.934
59637W        W32062  12.743  15.151   3.795
59638W        W32063  22.575  42.959  10.965
59639W        W32064   2.856  15.271   3.240
59640W        W32065  43.290   6.185   9.982
59641W        W32066  18.725   8.364  14.952
59642W        W32067  13.620   2.967  12.470
59643W        W32068  10.268  17.111   0.830
59644W        W32069  16.786  24.517   1.367
59645W        W32070  10.165  21.736   2.849
59646W        W32071   1.355  34.899   3.229
59647W        W32072  12.230   6.380   0.863
59648W        W32073  33.482  22.114   3.633
59649W        W32074  37.363  34.390  14.363
59650W        W32075  36.927  24.575   4.766
59651W        W32076  14.750  40.997   3.864
59652W        W32077  43.286  11.165   2.819
59653W        W32078   5.279  29.101  13.012
59654W        W32079  23.657  13.321  13.527
59655W        W32080   4.377  14.109   2.219
59656W        W32081  34.987   2.908  10.890
59657W        W32082  30.119  18.230  11.875
59658W        W32083   7.325  29.451  12.500
59659W        W32084   1.739  28.444  11.487
59660W        W32085  19.112  31.934   1.724
59661W        W32086  40.501  39.948   3.811
59662W        W32087  25.714  32.421  11.878
59663W        W32088  31.089  14.741  10.491
59664W        W32089  30.051  20.049  12.025
59665W        W32090  40.453  15.607  10.479
59666W        W32091   5.375   1.410   0.894
59667W        W32092  14.745  10.641   4.258
59668W        W32093  29.573  14.675   2.189
59669W        W32094  42.786  31.525  12.866
59670W        W32095   4.266  29.103   4.297
59671W        W32096  13.808  44.773   1.322
59672W        W32097  24.189  43.286  13.844
59673W        W32098  23.561   3.955  14.430
59674W        W32099   6.185  40.465  12.847
59675W        W32100   9.229  35.108   2.298
59676W        W32101   4.931  40.838  12.405
59677W        W32102   9.282  14.306  13.800
59678W        W32103  24.224  28.174   0.770
59679W        W32104  39.490   4.349  14.474
59680W        W32105  11.717  35.916  13.378
59681W        W32106  20.062  44.288  11.890
59682W        W32107  43.918  31.977   4.310
59683W        W32108  23.511  34.058   1.830
59684W        W32109  42.873   7.408  11.956
59685W        W32110  20.109   9.224   0.340
59686W        W32111  39.544  23.662  14.022
59687W        W32112  29.534   2.424  10.594
59688W        W32113  19.160  20.759  11.601
59689W        W32114  17.687  14.806  11.877
59690W        W32115  16.572  19.583   2.369
59691W        W32116   8.381   0.814  10.450
59692W        W32117   1.478  35.435   3.383
59693W        W32118  36.854   1.805  10.959
59694W        W32119  14.269  36.534   1.411
59695W        W32120  21.655  12.212  11.053
59696W        W32121  26.098   4.728  11.504
59697W        W32122   9.216  34.587   0.888
59698W        W32123   2.425  17.061  14.369
59699W        W32124  11.246  40.534   4.761
59700W        W32125  20.055  16.721  13.842
59701W        W32126  37.925  31.533   2.683
59702W        W32127  25.615   2.262  10.610
59703W        W32128   5.832   7.861   3.803
59704W        W32129  12.320  25.164  12.914
59705W        W32130   4.306  22.593  10.996
59706W        W32131  34.904  23.129   4.156
59707W        W32132  16.267  28.678   4.228
59708W        W32133  33.466  28.934   0.800
59709W        W32134  31.921  31.006  12.390
59710W        W32135  15.720  21.175   0.817
59711W        W32136  21.064   1.814   3.361
59712W        W32137  34.899  30.954  12.396
59713W        W32138  34.073  24.613   1.785
59714W        W32139  35.960  36.863   0.290
59715W        W32140  25.651   4.926  13.349
59716W        W32141  33.516   9.848  14.418
59717W        W32142   4.435  40.994   2.308
59718W        W32143  15.625  19.639   0.365
59719W        W32144  36.383   3.319  14.875
59720W        W32145  12.615  13.231  10.419
59721W        W32146  44.822   3.277   2.293
59722W        W32147  29.107  22.572  13.949
59723W        W32148  32.630  18.570   4.335
59724W        W32149  13.298  29.940   0.827
59725W        W32150  15.680  33.962  10.591
59726W        W32151  14.747  39.443   3.151
59727W        W32152  29.661   8.401  14.360
59728W        W32153  42.931   3.332   0.792
59729W        W32154  11.271  13.836  11.931
59730W        W32155  21.714  34.863  14.024
59731W        W32156  28.605  24.026   2.878
59732W        W32157  23.726  32.463   4.834
59733W        W32158   4.798  24.093   3.300
59734W        W32159   4.784  17.221   0.785
59735W        W32160   5.248  29.956  12.832
59736W        W32161  16.701  14.678   4.655
59737W        W32162   7.752  39.514  11.506
59738W        W32163  15.804  33.601   3.763
59739W        W32164   0.918  29.617  11.454
59740W        W32165  32.109   1.866  10.117
59741W        W32166   7.340  28.448  13.935
59742W        W32167  26.036  30.597  12.989
59743W        W32168  39.025  43.394   2.250
59744W        W32169  28.138  23.635   1.326
59745W        W32170  27.122  11.320  11.898
59746W        W32171  28.480   3.817   3.665
59747W        W32172   5.215  31.023   0.899
59748W        W32173  32.961  42.326  10.642
59749W        W32174   4.447  23.728  12.877
59750W        W32175   0.334  37.030   1.299
59751W        W32176  28.671  22.213  12.447
59752W        W32177   6.922  31.084   0.922
59753W        W32178  35.968  43.955   0.415
59754W        W32179  15.644  16.204   1.698
59755W        W32180  17.130  15.268   0.964
59756W        W32181  25.006  40.341  13.398
59757W        W32182  35.381  40.047   4.623
59758W        W32183  40.048  18.753   1.259
59759W        W32184  14.719   1.751   0.463
59760W        W32185   4.358  35.522   4.330
59761W        W32186  41.307  13.827  14.007
59762W        W32187  12.667  27.152   3.704
59763W        W32188   0.946   1.309   0.741
59764W        W32189   7.795   0.878   1.267
59765W        W32190  28.987  43.969   4.273
59766W        W32191  13.141  36.440   3.255
59767W        W32192  44.970   3.746  10.497
59768W        W32193  16.085  22.685  11.567
59769W        W32194  33.891   2.377  11.538
59770W        W32195   5.708  40.484  12.999
59771W        W32196   9.329   4.217   3.320
59772W        W32197  13.641  44.435   3.725
59773W        W32198   6.415   5.721   1.842
59774W        W32199  26.650  26.017  14.276
59775W        W32200  18.216  15.318  13.472
59776W        W32201  21.247  35.073  14.980
59777W        W32202   2.331  27.681  11.030
59778W        W32203  31.553  31.593   1.813
59779W        W32204  18.269  10.241  13.842
59780W        W32205  35.396  20.544  11.101
59781W        W32206  19.663  37.435  11.428
59782W        W32207  40.817   0.281  12.914
59783W        W32208  10.632   9.672  11.106
59784W        W32209  12.704   6.835  14.998
59785W        W32210  36.508  41.444  11.017
59786W        W32211   6.782   8.794  13.510
59787W        W32212  25.984  11.258   3.253
59788W        W32213  44.972  22.252   2.862
59789W        W32214  39.347  11.859  11.899
59790W        W32215   4.293  32.910   1.889
59791W        W32216  40.806  37.069   2.300
59792W        W32217  37.503  12.280   0.454
59793W        W32218  15.207  36.939   4.783
59794W        W32219  41.399  34.512   2.200
59795W        W32220  11.809  41.805   5.137
59796W        W32221   9.278  29.921  13.801
59797W        W32222  43.498  21.019   2.869
59798W        W32223  26.084  27.973   4.216
59799W        W32224   4.311  42.946   0.868
59800W        W32225   3.226   1.419   3.181
59801W        W32226  40.043  32.441   2.844
59802W        W32227  43.013  14.338   4.183
59803W        W32228  40.009   1.976  10.416
59804W        W32229  40.394  34.376  11.381
59805W        W32230  35.545   4.344  10.909
59806W        W32231  19.716   9.645   2.344
59807W        W32232  33.496  10.791   4.611
59808W        W32233  12.757  43.472   2.695
59809W        W32234   6.205   6.189   4.254
59810W        W32235  17.126  25.521   2.261
59811W        W32236   0.431   7.694   4.145
59812W        W32237  35.387   8.220  11.985
59813W        W32238  23.199   5.920   1.901
59814W        W32239  36.504  41.517   4.263
59815W        W32240  33.900   5.210  10.939
59816W        W32241   8.781  11.244  11.944
59817W        W32242  25.210  27.992  11.495
59818W        W32243  35.416  35.480   4.241
59819W        W32244  30.535  11.330  13.844
59820W        W32245  11.272   8.709   5.104
59821W        W32246  38.334  13.609   1.834
59822W        W32247  26.491  28.589  14.322
59823W        W32248  44.807   9.821   3.345
59824W        W32249  24.590  20.533  13.009
59825W        W32250  39.874   3.216   2.226
59826W        W32251  11.319  30.143   2.202
59827W        W32252  28.540  20.171  13.414
59828W        W32253  16.791   9.873   3.250
59829W        W32254  12.616  10.202  11.008
59830W        W32255  36.960  35.926   4.285
59831W        W32256   2.468   0.863   0.363
59832W        W32257  27.964  17.093   0.296
59833W        W32258  27.116  13.666   3.337
59834W        W32259  28.012  38.395   4.643
59835W        W32260  11.668   0.353  13.847
59836W        W32261  34.395  20.221  12.853
59837W        W32262  37.873  33.445   4.201
59838W        W32263  44.998  15.208   4.144
59839W        W32264  10.781  22.709   1.801
59840W        W32265  25.682  16.319   1.735
59841W        W32266  43.512  10.190  10.513
59842W        W32267   7.821  34.498  13.514
59843W        W32268   2.376  21.158  14.487
59844W        W32269   8.363  28.512  14.770
59845W        W32270  35.975  21.525  12.344
59846W        W32271  42.308  32.506   2.808
59847W        W32272   5.341  16.081  12.065
59848W        W32273  23.149   2.863   3.681
59849W        W32274  40.374  20.640  14.901
59850W        W32275  21.210  29.954   4.162
59851W        W32276  12.330  11.653   1.741
59852W        W32277  22.743   7.376   3.829
59853W        W32278   3.295  29.946   2.893
59854W        W32279  21.112  32.095   4.759
59855W        W32280  20.273  15.774  14.997
59856W        W32281  28.170  44.838   4.141
59857W        W32282   5.213  33.916  11.457
59858W        W32283  37.049  39.346   1.786
59859W        W32284  10.165  11.368  14.963
59860W        W32285   3.437  23.725  13.448
59861W        W32286  25.997  38.333   2.245
59862W        W32287   4.393  44.278   3.207
59863W        W32288  16.676  12.791  11.417
59864W        W32289  43.398  41.832  14.871
59865W        W32290  15.099  11.280   2.202
59866W        W32291   1.732  35.012  14.998
59867W        W32292  44.959  39.410  12.865
59868W        W32293   7.717   4.922  13.336
59869W        W32294  44.405  39.843  12.967
59870W        W32295  22.026  35.103  14.841
59871W        W32296  43.301  13.284  13.840
59872W        W32297  30.096  33.116   2.364
59873W        W32298  27.076  11.663   2.283
59874W        W32299  16.622  13.126   3.752
59875W        W32300  26.558  16.150  12.090
59876W        W32301  36.000  10.677   2.263
59877W        W32302  42.476   5.235  14.318
59878W        W32303  37.046  10.147   2.351
59879W        W32304  25.090  37.055   3.309
59880W        W32305  13.730  42.813  14.443
59881W        W32306  37.905  15.666  12.358
59882W        W32307  18.135   2.252  10.409
59883W        W32308  36.419  30.417   5.271
59884W        W32309  21.261  18.175   0.465
59885W        W32310  25.701  43.278  11.377
59886W        W32311  40.883  32.075  10.030
59887W        W32312  16.228  19.236  10.558
59888W        W32313   0.845   2.843  14.849
59889W        W32314   2.729  21.212   1.904
59890W        W32315   3.746   2.822  12.971
59891W        W32316  26.614  35.914  11.948
59892W        W32317  20.225  39.400   4.184
59893W        W32318  15.304  27.685   2.237
59894W        W32319  15.163   2.441  14.381
59895W        W32320   1.466  25.089   3.777
59896W        W32321  38.068   1.354   0.316
59897W        W32322  31.112   7.271  12.044
59898W        W32323  32.041   0.848  10.623
59899W        W32324  13.298  31.545   4.598
59900W        W32325   0.941  37.429  12.843
59901W        W32326  44.423  12.209   2.306
59902W        W32327  12.764  29.961  10.960
59903W        W32328   1.312   2.285  10.517
59904W        W32329  30.598  19.190   0.955
59905W        W32330  29.087   9.315   1.303
59906W        W32331  28.015  15.197  14.763
59907W        W32332   8.741   7.891   1.239
59908W        W32333   1.366   9.798   3.307
59909W        W32334  24.014  15.747  11.893
59910W        W32335   4.397   2.864   4.178
59911W        W32336  38.003  26.180  13.545
59912W        W32337  11.810  19.048   3.694
59913W        W32338  33.415  22.020  10.515
59914W        W32339  32.557  29.061  11.011
59915W        W32340   9.158  27.054   3.196
59916W        W32341  12.611  38.327   3.236
59917W        W32342  16.693   5.335  13.451
59918W        W32343  38.068   9.341   4.749
59919W        W32344  13.253  16.265   0.807
59920W        W32345  13.142  34.096   1.766
59921W        W32346  31.045  18.724  11.861
59922W        W32347  37.007   5.220   3.858
59923W        W32348  11.350   8.246   1.737
59924W        W32349  10.660  29.623   1.709
59925W        W32350  21.684  31.034  14.454
59926W        W32351   7.732  36.568   2.185
59927W        W32352   3.376  24.206  14.800
59928W        W32353  31.443  35.412  13.004
59929W        W32354  30.508  17.712   4.321
59930W        W32355  18.564  19.606  14.944
59931W        W32356  15.228  22.524   4.603
59932W        W32357  42.953  33.538   5.272
59933W        W32358  19.544   8.862   3.177
59934W        W32359  43.787  23.575  12.531
59935W        W32360  29.984  25.494   4.792
59936W        W32361  19.563  16.587  12.443
59937W        W32362  13.714  12.639  12.060
59938W        W32363  19.180  34.983  13.877
59939W        W32364  33.595  22.220   4.293
59940W        W32365   7.245   9.851   0.443
59941W        W32366  33.430  12.776   4.233
59942W        W32367  22.174  19.601  13.368
59943W        W32368   0.755  33.402   2.869
59944W        W32369   5.226  23.987  12.863
59945W        W32370  20.693   8.689   0.244
59946W        W32371   9.864  30.160   0.254
59947W        W32372  34.085  38.074   4.831
59948W        W32373  28.145  33.935   9.523
59949W        W32374  39.489  13.261  13.380
59950W        W32375  27.004  32.090   9.972
59951W        W32376  10.167  14.125   4.744
59952W        W32377  26.665   8.227  10.497
59953W        W32378  22.175   6.381   1.221
59954W        W32379   0.311  43.798   4.711
59955W        W32380  16.237  35.509  13.926
59956W        W32381  14.608   4.354   2.772
59957W        W32382   5.823   3.236   2.758
59958W        W32383   5.354  36.458  10.570
59959W        W32384   8.204   7.778  11.068
59960W        W32385  43.478  20.058   0.379
59961W        W32386  36.362   7.901   4.178
59962W        W32387   7.682   9.715   0.918
59963W        W32388  40.385  33.874   3.301
59964W        W32389   9.268   6.201  10.515
59965W        W32390   9.190  14.760  12.417
59966W        W32391  32.522  15.587   1.349
59967W        W32392  36.588  25.544  13.882
59968W        W32393  30.062  11.842   1.708
59969W        W32394  35.012   1.481  14.761
59970W        W32395  23.069  22.153  13.516
59971W        W32396   6.874  15.168  12.376
59972W        W32397  41.464  11.848  11.967
59973W        W32398  29.025  38.938   2.741
59974W        W32399  27.195  25.663   0.841
59975W        W32400  11.223  29.146   2.802
59976W        W32401  11.287  21.039   0.856
59977W        W32402  39.515  24.013   4.114
59978W        W32403  10.816  32.467  11.596
59979W        W32404  16.102   5.763   1.782
59980W        W32405   9.382  28.000  11.486
59981W        W32406  42.306  20.577   1.805
59982W        W32407  29.496  16.100   0.825
59983W        W32408   5.227  35.871   1.446
59984W        W32409  30.959  32.499   2.396
59985W        W32410  38.404   4.710   4.185
59986W        W32411  17.086  11.680   4.129
59987W        W32412  15.638  24.143   3.354
59988W        W32413  15.231   4.835   4.686
59989W        W32414  15.095  20.583   0.827
59990W        W32415  35.601   6.274   3.330
59991W        W32416  31.424  22.236  14.016
59992W        W32417  41.038  11.853   1.281
59993W        W32418  44.936  26.534   0.312
59994W        W32419  25.632  38.339  14.308
59995W        W32420  13.165  21.250  15.000
59996W        W32421  12.648   5.296  11.505
59997W        W32422  38.554  20.755   4.644
59998W        W32423  27.602   3.733   3.301
59999W        W32424  20.062   3.433   0.780
60000W        W32425  11.187  27.970  14.460
60001W        W32426  44.007  40.314  11.496
60002W        W32427  23.140  31.062   2.794
60003W        W32428   7.342  14.604   4.819
60004W        W32429   4.417  13.124   4.218
60005W        W32430  32.894   1.316   4.659
60006W        W32431   4.306  26.532  14.857
60007W        W32432  25.156  33.503  14.978
60008W        W32433   0.756  16.587  11.572
60009W        W32434   6.386   4.271  10.624
60010W        W32435   6.337  34.465  14.002
60011W        W32436  24.067  39.037   0.300
60012W        W32437  21.113  14.603   4.312
60013W        W32438  24.036  31.097   2.878
60014W        W32439  43.778   2.809   3.354
60015W        W32440  27.080  34.582   1.232
60016W        W32441  39.475  20.523  12.505
60017W        W32442  23.505  36.902  13.062
60018W        W32443  18.158  13.251  12.563
60019W        W32444  31.053   3.783  13.846
60020W        W32445  42.848  40.490   0.941
60021W        W32446  30.079  13.243  13.487
60022W        W32447  13.774   0.298   0.359
60023W        W32448  28.172  18.605   1.407
60024W        W32449  25.588  42.371   0.917
60025W        W32450  10.207   7.869   3.656
60026W        W32451   3.393  19.602  10.635
60027W        W32452   5.413  18.772  11.092
60028W        W32453  32.995  33.098  13.420
60029W        W32454  28.156  43.460  11.580
60030W        W32455   6.852  33.405  13.439
60031W        W32456  30.104  41.893  13.503
60032W        W32457   3.246  11.266  10.089
60033W        W32458  12.639   9.702  11.424
60034W        W32459  10.155  24.052  11.461
60035W        W32460  15.203  26.088   3.345
60036W        W32461  37.512  18.626  14.938
60037W        W32462  21.251  16.803   3.653
60038W        W32463   9.218  11.276   3.773
60039W        W32464  38.378  12.831   3.824
60040W        W32465  13.140   0.494  10.539
60041W        W32466  15.609  19.752  12.066
60042W        W32467  18.666  34.605  14.487
60043W        W32468  42.950  15.220  13.478
60044W        W32469  11.746  44.272   1.337
60045W        W32470   8.877  17.247  12.452
60046W        W32471  34.457  33.398   1.423
60047W        W32472  25.592  43.995   0.894
60048W        W32473  38.040  19.154  10.907
60049W        W32474  21.147  32.081  14.910
60050W        W32475  28.477  42.306   3.733
60051W        W32476  28.976   0.462   0.347
60052W        W32477  35.077  14.292   2.405
60053W        W32478  35.412  35.104   3.376
60054W        W32479  33.093  17.692   0.424
60055W        W32480  35.104  23.591  12.901
60056W        W32481  30.418  19.644  10.548
60057W        W32482   7.745  11.679   0.958
60058W        W32483  10.838   2.904  14.287
60059W        W32484   1.784  37.853   2.212
60060W        W32485  30.043  15.720   4.823
60061W        W32486   9.773  34.878  12.484
60062W        W32487   5.326  14.803  12.403
60063W        W32488   3.453   1.800   0.337
60064W        W32489  17.788   9.808  13.042
60065W        W32490  38.446  21.699  14.340
60066W        W32491  15.613  16.736   0.292
60067W        W32492   3.752  11.234  12.499
60068W        W32493  28.172  43.486  12.991
60069W        W32494  36.495  22.115  12.529
60070W        W32495  33.407  16.788  12.054
60071W        W32496  12.161  20.746  12.912
60072W        W32497  15.211  40.916   3.284
60073W        W32498   2.900  39.925   2.880
60074W        W32499  28.062   1.327  13.934
60075W        W32500  33.463  23.716  14.309
60076W        W32501   5.380  24.978   5.322
60077W        W32502   2.417  13.280   1.285
60078W        W32503   0.443  40.874   2.842
60079W        W32504  22.116  19.084  14.373
60080W        W32505  36.865  13.819   2.707
60081W        W32506   6.200   9.674   3.283
60082W        W32507  21.712  28.987   4.137
60083W        W32508  10.384   7.289   2.216
60084W        W32509  41.884  35.050  12.580
60085W        W32510   8.789  12.634   2.764
60086W        W32511   5.906  20.135  11.478
60087W        W32512   2.922  33.622  10.610
60088W        W32513  10.305  30.515   2.873
60089W        W32514  21.020  16.297  12.571
60090W        W32515  42.504  26.604  12.388
60091W        W32516  11.800   3.729  14.891
60092W        W32517   1.795   7.366   2.681
60093W        W32518  17.568  27.107  14.351
60094W        W32519  22.553   2.281   3.196
60095W        W32520  17.187  30.599  10.626
60096W        W32521  37.922   9.713   2.310
60097W        W32522  23.671  27.674  13.802
60098W        W32523  39.459  28.039   1.891
60099W        W32524  19.692  12.783   4.807
60100W        W32525  40.524   1.367  11.376
60101W        W32526  36.051  12.664  14.004
60102W        W32527  22.558  14.246   4.829
60103W        W32528  32.490  16.780  13.012
60104W        W32529  22.103   5.394   4.696
60105W        W32530  13.336  28.573  11.424
60106W        W32531  34.956  18.255   3.215
60107W        W32532  12.266  41.365  14.334
60108W        W32533  32.515  21.075   2.711
60109W        W32534   6.318  35.603   5.090
60110W        W32535  17.214  29.648  12.347
60111W        W32536  16.288  30.928   4.336
60112W        W32537   6.677  23.209   4.661
60113W        W32538  32.967  24.490   0.951
60114W        W32539  33.067   2.734   0.465
60115W        W32540   9.257  15.229  11.887
60116W        W32541  10.651  29.546  14.837
60117W        W32542   3.370  32.576   3.750
60118W        W32543  18.147  24.130   4.187
60119W        W32544  10.309  24.723   3.778
60120W        W32545   4.879  19.563  11.416
60121W        W32546  38.070   0.315   0.282
60122W        W32547   9.751  34.965   1.822
60123W        W32548  31.523  36.433  12.062
60124W        W32549   9.703   8.303  13.967
60125W        W32550  39.438  33.079  11.082
60126W        W32551  43.292   7.848   2.333
60127W        W32552   7.842   7.240  10.970
60128W        W32553  30.641  22.028   1.352
60129W        W32554  36.902  33.500  10.438
60130W        W32555  27.156  40.971  10.564
60131W        W32556   1.749   9.799   1.369
60132W        W32557  32.391   4.826   4.745
60133W        W32558  14.290   0.776   1.284
60134W        W32559  30.487  42.324  13.525
60135W        W32560  28.027  27.043   4.181
60136W        W32561  10.204  29.514  14.314
60137W        W32562  36.865  26.098  12.483
60138W        W32563   8.351  34.533  13.802
60139W        W32564  27.554   4.438  11.471
60140W        W32565   6.890  13.780  10.990
60141W        W32566  12.307   6.703   2.227
60142W        W32567  30.090  25.571   2.758
60143W        W32568  31.089  40.950   2.341
60144W        W32569  28.482   8.713   1.709
60145W        W32570  16.152  41.945  10.500
60146W        W32571  29.454   2.922   2.743
60147W        W32572  22.674  38.905   2.389
60148W        W32573  19.273  18.739  10.563
60149W        W32574  40.371  18.092   0.360
60150W        W32575  33.931   6.420   1.909
60151W        W32576  15.296  37.423   3.702
60152W        W32577   8.860  23.707   0.323
60153W        W32578  39.885  41.499  11.456
60154W        W32579  29.012  26.096  10.576
60155W        W32580  43.911  33.550  10.494
60156W        W32581  39.485  28.141  11.886
60157W        W32582  43.272  26.155  12.346
60158W        W32583  28.579  21.152   2.739
60159W        W32584  39.842  14.136  10.450
60160W        W32585  20.745  33.446   2.736
60161W        W32586  13.307  13.306   2.188
60162W        W32587   8.337  23.137  12.342
60163W        W32588  18.544  17.112   2.688
60164W        W32589   2.286   8.164  10.620
60165W        W32590  35.572   0.853   2.380
60166W        W32591  34.586  43.424  10.528
60167W        W32592  32.896  12.276   1.282
60168W        W32593  15.783   5.894   2.887
60169W        W32594  16.306   7.721   4.202
60170W        W32595   8.708  20.567   1.407
60171W        W32596  43.840  35.063  12.567
60172W        W32597  18.087  12.709   4.811
60173W        W32598   8.402   2.445   3.243
60174W        W32599   3.228  15.159  10.423
60175W        W32600   3.242   7.252  11.090
60176W        W32601  35.045  23.687  12.350
60177W        W32602  33.550  17.102   4.790
60178W        W32603  38.052  28.044  11.002
60179W        W32604  35.404  41.017   3.820
60180W        W32605  43.899  25.970  12.904
60181W        W32606  27.480  42.921   4.185
60182W        W32607  44.929   4.801   0.449
60183W        W32608  42.806  17.646  13.941
60184W        W32609   6.201  39.006  14.412
60185W        W32610  32.080  23.701  11.888
60186W        W32611   3.845   4.767  12.937
60187W        W32612  12.698  43.821  10.999
60188W        W32613  29.037  40.455  10.514
60189W        W32614   6.374  32.550  13.545
60190W        W32615  34.906  40.434  14.408
60191W        W32616  15.708  34.875   0.761
60192W        W32617   4.253  26.080  14.397
60193W        W32618  43.413  40.041   1.748
60194W        W32619  39.852  20.540  11.498
60195W        W32620  44.324  26.166  10.124
60196W        W32621  20.107  39.322   3.204
60197W        W32622  41.907  44.763   9.670
60198W        W32623  41.006   1.739  13.524
60199W        W32624  32.041  32.533  12.340
60200W        W32625  15.660  40.821   3.296
60201W        W32626  13.333  37.994   4.263
60202W        W32627  40.974   6.186   1.280
60203W        W32628  39.812   9.365  11.074
60204W        W32629  37.913   9.187  10.642
60205W        W32630  36.493   4.369   4.681
60206W        W32631  31.602  39.473  11.461
60207W        W32632  36.916  24.591   0.437
60208W        W32633  27.036  21.102   5.147
60209W        W32634   4.432  40.904   1.868
60210W        W32635  12.262   9.694  12.519
60211W        W32636  28.435  29.593   2.802
60212W        W32637  37.055  28.581   4.152
60213W        W32638  16.782  10.632  12.553
60214W        W32639   3.742   9.218   0.767
60215W        W32640  27.115  19.684   1.837
60216W        W32641  29.565   1.447  11.571
60217W        W32642  12.703  18.122  12.087
60218W        W32643  41.912  30.521   1.219
60219W        W32644  26.650  22.529   1.706
60220W        W32645  24.127  26.530  12.027
60221W        W32646  24.212  10.153  10.522
60222W        W32647  13.292  31.070  10.512
60223W        W32648  17.694   6.860   1.352
60224W        W32649  31.440  32.540   4.273
60225W        W32650  23.522  24.483   3.355
60226W        W32651   9.798  21.114  12.439
60227W        W32652   8.213  22.169   4.729
60228W        W32653  29.464   9.744  14.404
60229W        W32654  22.508  22.028   1.352
60230W        W32655   1.870  18.107   1.714
60231W        W32656  29.608  10.675   0.963
60232W        W32657   0.835  37.990  13.545
60233W        W32658  31.436   0.817  14.373
60234W        W32659   7.417  12.768   0.945
60235W        W32660  37.371  42.879   4.831
60236W        W32661  40.879   0.321   3.776
60237W        W32662  21.252   9.841  12.431
60238W        W32663  29.563  10.347  12.887
60239W        W32664  29.527  30.601   4.294
60240W        W32665  39.990  41.426  10.532
60241W        W32666  27.053   6.219   2.887
60242W        W32667  37.909  15.322  14.835
60243W        W32668  22.219  21.730   0.400
60244W        W32669  33.002  30.636  10.527
60245W        W32670   8.736  22.590  10.607
60246W        W32671  12.276  22.025  12.538
60247W        W32672  27.451   6.255  11.877
60248W        W32673   6.329  16.724   3.334
60249W        W32674  11.708  41.343   4.730
60250W        W32675  34.472   2.758   0.438
60251W        W32676  39.866  37.862  12.483
60252W        W32677  20.171  35.551   4.838
60253W        W32678  43.819  33.391  11.088
60254W        W32679  11.838  28.497  12.406
60255W        W32680  15.726   1.787   4.320
60256W        W32681  31.492   0.782   4.245
60257W        W32682  34.482  16.108   4.125
60258W        W32683  43.308  11.256   2.269
60259W        W32684   5.288  28.551  14.467
60260W        W32685   2.848   9.877  11.921
60261W        W32686  24.595  35.895  10.577
60262W        W32687  26.065  31.955  11.472
60263W        W32688  26.669  30.599  12.077
60264W        W32689  22.224  43.935  11.891
60265W        W32690  36.022  25.488   3.269
60266W        W32691  43.286   6.793  13.044
60267W        W32692   8.883  19.269   0.749
60268W        W32693  11.773  15.731  14.325
60269W        W32694  43.336  38.402  13.033
60270W        W32695  37.848  13.735  10.411
60271W        W32696   9.356  23.070  11.384
60272W        W32697  39.926   3.781  11.535
60273W        W32698  18.083  21.607   0.461
60274W        W32699   7.205  30.134   3.146
60275W        W32700  13.812  13.689   3.839
60276W        W32701  33.553  27.002  13.064
60277W        W32702   5.867  39.378  13.961
60278W        W32703  36.896  19.771  12.518
60279W        W32704   7.229   0.979  14.000
60280W        W32705  19.704  19.733   3.772
60281W        W32706  15.152   8.299   1.349
60282W        W32707  17.148  15.198  10.615
60283W        W32708  21.070   9.242  12.577
60284W        W32709  27.952  11.745   4.320
60285W        W32710  26.587   3.824  14.462
60286W        W32711   2.763  16.679  13.490
60287W        W32712  37.081  14.761  12.546
60288W        W32713   8.815  41.867   1.903
60289W        W32714  17.248   2.943  12.957
60290W        W32715  30.986  11.742   3.378
60291W        W32716  11.230  26.589  11.554
60292W        W32717  39.470   5.352  12.970
60293W        W32718  22.045   1.860   2.416
60294W        W32719  13.707  38.878  13.967
60295W        W32720  33.501   4.861   1.309
60296W        W32721   0.301   5.289  13.931
60297W        W32722   0.317  37.500  10.407
60298W        W32723  12.764  27.508  14.886
60299W        W32724  19.149  28.456  11.855
60300W        W32725  21.144   2.335  14.874
60301W        W32726  23.684  39.993   3.268
60302W        W32727  23.234  12.327   0.306
60303W        W32728   9.393  28.492  11.103
60304W        W32729  35.956  38.835   2.245
60305W        W32730  13.307  10.830   2.684
60306W        W32731  32.595   8.787  11.603
60307W        W32732  14.828  39.042  10.989
60308W        W32733  42.347  34.991  14.441
60309W        W32734  18.209   1.292  14.001
60310W        W32735   4.716  17.776   4.636
60311W        W32736   6.425  32.421   2.381
60312W        W32737  32.899  42.500   1.230
60313W        W32738  19.672  38.963  13.527
60314W        W32739  17.572  16.567  14.506
60315W        W32740  24.058  44.287   3.677
60316W        W32741  33.005  19.098   3.298
60317W        W32742   4.275  44.296  13.053
60318W        W32743  23.028  34.615  13.405
60319W        W32744  22.236  30.450   1.408
60320W        W32745  40.456  30.494   3.257
60321W        W32746  36.532   5.747  11.592
60322W        W32747  39.409  31.111  14.785
60323W        W32748  37.961  12.649   0.415
60324W        W32749  40.033   7.309   2.879
60325W        W32750  24.980   7.254   0.420
60326W        W32751   2.830  42.430  12.013
60327W        W32752  35.390   1.938  11.480
60328W        W32753  42.899  12.165  10.966
60329W        W32754   3.437  26.653  11.023
60330W        W32755  16.813  35.007   2.409
60331W        W32756  14.119   1.332   3.791
60332W        W32757  31.015  23.508   1.787
60333W        W32758  10.249  29.039   1.378
60334W        W32759  38.027  17.718   4.142
60335W        W32760  21.156   2.849  11.565
60336W        W32761  34.517  43.414  13.035
60337W        W32762  33.567  18.146  12.577
60338W        W32763  36.915  35.401  10.498
60339W        W32764  35.094  33.979   2.305
60340W        W32765  32.141  24.082   4.709
60341W        W32766  41.845  20.158  12.882
60342W        W32767  35.458  14.648   3.817
60343W        W32768   2.319  16.786   4.129
60344W        W32769  32.077  25.211  14.456
60345W        W32770  42.422  25.562  13.994
60346W        W32771  18.788  12.359  12.951
60347W        W32772  43.774  16.149   2.192
60348W        W32773  33.499  25.207   0.840
60349W        W32774   6.821  16.718  11.889
60350W        W32775  20.610   5.257  12.536
60351W        W32776  25.688  13.312   0.883
60352W        W32777  35.519  18.652   2.763
60353W        W32778  18.629  25.202  12.890
60354W        W32779  16.716  16.751  10.598
60355W        W32780   5.824  21.723  12.011
60356W        W32781  44.881  29.554  12.540
60357W        W32782  33.453   8.364  13.039
60358W        W32783  25.019   8.396   1.730
60359W        W32784  14.120  17.122   1.240
60360W        W32785  33.497  34.419   0.854
60361W        W32786  22.100   6.288   3.680
60362W        W32787  33.578  10.174  12.984
60363W        W32788   5.896  16.158  11.950
60364W        W32789  26.195   5.283  13.916
60365W        W32790  25.623  38.033  12.566
60366W        W32791  41.789  25.079  14.395
60367W        W32792  13.717  22.582  14.427
60368W        W32793  43.815  17.622  11.409
60369W        W32794  29.567   1.478   1.226
60370W        W32795  43.342   3.876  12.451
60371W        W32796  10.646  30.651   4.733
60372W        W32797   4.940   5.253  11.011
60373W        W32798  22.577  16.313   3.789
60374W        W32799  42.786  24.068  11.879
60375W        W32800   3.767   3.390  14.406
60376W        W32801   3.351   4.763  11.457
60377W        W32802  35.063  27.547  14.991
60378W        W32803  11.209  19.766  13.854
60379W        W32804  38.974   1.881  13.819
60380W        W32805  27.147   0.987   0.741
60381W        W32806  19.595   3.879  11.124
60382W        W32807  18.715  44.264  13.834
60383W        W32808  10.278   3.913   4.302
60384W        W32809  24.084  41.374  13.368
60385W        W32810  22.529   1.469   3.297
60386W        W32811  16.159  33.464  14.912
60387W        W32812  33.006  26.083   2.804
60388W        W32813   4.835  26.160   2.407
60389W        W32814   6.396  41.489   2.735
60390W        W32815  21.516   3.236  11.024
60391W        W32816  34.438   4.707  11.436
60392W        W32817  18.055   7.400  11.873
60393W        W32818   4.941  14.695   3.329
60394W        W32819  25.215  30.033  12.978
60395W        W32820   2.434   1.322   2.815
60396W        W32821  42.030  16.569   3.665
60397W        W32822  26.040  37.867   4.343
60398W        W32823   2.893  13.263   3.239
60399W        W32824  28.156   3.827  11.947
60400W        W32825   4.365   5.324  12.921
60401W        W32826   4.934  36.380  13.962
60402W        W32827  30.541   8.276   0.769
60403W        W32828  17.150  25.071  14.823
60404W        W32829   4.778  17.064  14.919
60405W        W32830  24.606   2.318  12.540
60406W        W32831  34.002   5.932   1.722
60407W        W32832  38.898  36.000  13.817
60408W        W32833  31.115  33.624  12.496
60409W        W32834  40.537  17.774   1.800
60410W        W32835  34.054   5.285  12.552
60411W        W32836  24.180   0.333  14.341
60412W        W32837  34.967  18.554   1.278
60413W        W32838  44.303  25.108   4.625
60414W        W32839  14.684  37.358   4.773
60415W        W32840  30.618  20.059  10.975
60416W        W32841  43.408  31.031  14.299
60417W        W32842  15.291  23.544  10.157
60418W        W32843  14.195   6.786   3.338
60419W        W32844  42.930  28.024   1.801
60420W        W32845   9.672  31.074  12.475
60421W        W32846   9.683  41.946  10.980
60422W        W32847   0.484  18.742   2.341
60423W        W32848  16.651  28.979   1.442
60424W        W32849   0.466  13.841  12.461
60425W        W32850   8.232  27.580   1.259
60426W        W32851  31.453  11.645  12.094
60427W        W32852  13.752  39.447   1.304
60428W        W32853  19.191  35.437  14.905
60429W        W32854  12.237   9.212  12.571
60430W        W32855  25.218  30.954  13.022
60431W        W32856  24.041  41.511   5.313
60432W        W32857  10.841   1.745  12.508
60433W        W32858  35.504  41.337   3.303
60434W        W32859  43.419   5.721   3.353
60435W        W32860  34.920  40.402   2.711
60436W        W32861   1.358  11.792  13.026
60437W        W32862   5.252   5.722   0.914
60438W        W32863  40.435  34.511   3.720
60439W        W32864  16.303  28.588   1.745
60440W        W32865  24.552  24.022   0.768
60441W        W32866  42.885  25.100  10.962
60442W        W32867  33.435  25.667  12.999
60443W        W32868  24.158  33.548   1.850
60444W        W32869  36.005  10.861   4.778
60445W        W32870  23.660  43.445  12.843
60446W        W32871  39.885   0.765  11.992
60447W        W32872  27.623  27.578  12.026
60448W        W32873  23.545   5.924  11.875
60449W        W32874  11.694  21.062   2.270
60450W        W32875  14.159  32.022  10.996
60451W        W32876  38.033   8.331   0.828
60452W        W32877   0.254  28.992   0.787
60453W        W32878  40.536  12.676  12.346
60454W        W32879  14.827  30.448   0.464
60455W        W32880  17.690  14.288  14.469
60456W        W32881  14.631  12.307   3.309
60457W        W32882  33.060  12.687   2.296
60458W        W32883  10.277  32.966   3.747
60459W        W32884  30.648  29.512   0.831
60460W        W32885  10.139  10.345  12.543
60461W        W32886   4.787  41.898  13.307
60462W        W32887  40.806   2.833   2.807
60463W        W32888   5.412  10.830   2.848
60464W        W32889  33.616   7.183   4.832
60465W        W32890  10.788   0.788   0.768
60466W        W32891  28.177  26.166  13.043
60467W        W32892  40.992   9.216   0.752
60468W        W32893   1.293  21.136   3.693
60469W        W32894  15.636   7.198  12.447
60470W        W32895  17.088  44.951  14.008
60471W        W32896  37.346  28.517  13.411
60472W        W32897  14.218  11.812   0.876
60473W        W32898  30.044  29.043  13.019
60474W        W32899  24.057  42.444   4.827
60475W        W32900  39.048   1.852  11.970
60476W        W32901  43.856  20.213  14.955
60477W        W32902   8.674  16.596   1.806
60478W        W32903  39.011  18.669   4.222
60479W        W32904  29.624  32.414   5.697
60480W        W32905  38.965  16.095  10.536
60481W        W32906  44.316  34.094   1.927
60482W        W32907  20.259  20.731   4.178
60483W        W32908  23.148  16.188  12.580
60484W        W32909  38.408  23.196  11.865
60485W        W32910   6.381  35.883   4.653
60486W        W32911  37.019  35.944  10.940
60487W        W32912  11.765  31.585  11.931
60488W        W32913  16.315  14.674  10.517
60489W        W32914  17.725  19.696  14.000
60490W        W32915  41.892   4.380   2.406
60491W        W32916  37.363   8.812   4.813
60492W        W32917  38.032  16.604   3.335
60493W        W32918  26.984  20.049   2.234
60494W        W32919  25.642  31.981  14.962
60495W        W32920  24.622  42.973   2.233
60496W        W32921  26.459  33.988   3.171
60497W        W32922   8.309  43.913   3.834
60498W        W32923   1.328   0.291  13.473
60499W        W32924   7.784  28.645   0.247
60500W        W32925  31.573   5.775   0.927
60501W        W32926  30.912   3.835  11.568
60502W        W32927   8.314  26.504  13.815
60503W        W32928   2.830  36.475  14.512
60504W        W32929   5.276  26.555  12.579
60505W        W32930  22.702  30.540   1.265
60506W        W32931  15.240   1.393  10.444
60507W        W32932  13.676  40.308  12.995
60508W        W32933  28.525  25.485  13.908
60509W        W32934  35.976  17.287   5.226
60510W        W32935  20.764   7.679  14.855
60511W        W32936  26.087  28.134  11.899
60512W        W32937  33.077  19.630  13.351
60513W        W32938   1.754  32.622  12.860
60514W        W32939   5.329   5.402  13.344
60515W        W32940  23.541  34.461   3.150
60516W        W32941  30.614  12.253   1.213
60517W        W32942  39.535  38.010   3.182
60518W        W32943   0.899  20.031   3.829
60519W        W32944  15.215  21.594   4.303
60520W        W32945  19.195  38.840   0.830
60521W        W32946  17.176  20.768  11.950
60522W        W32947  42.974  35.000  11.595
60523W        W32948  35.868  23.629   5.569
60524W        W32949   4.273  34.546  13.538
60525W        W32950  20.674  16.273   3.320
60526W        W32951  11.245  22.061  11.887
60527W        W32952  30.587  19.253  14.438
60528W        W32953  34.952  18.217   9.952
60529W        W32954  17.306  31.912   0.343
60530W        W32955  44.799  14.340  12.850
60531W        W32956  12.144  31.053  12.838
60532W        W32957  37.439  31.028  13.381
60533W        W32958  28.006   7.755   2.302
60534W        W32959  17.301  18.110  11.584
60535W        W32960  30.586   2.285   1.401
60536W        W32961  44.365  18.173   2.393
60537W        W32962  22.167  33.421   0.253
60538W        W32963  32.419   9.741  12.869
60539W        W32964   3.886   3.328  11.611
60540W        W32965   8.368   9.759  13.438
60541W        W32966  41.786  38.377  12.575
60542W        W32967  14.613  36.048   1.760
60543W        W32968  39.977   3.903   1.409
60544W        W32969  12.236  16.271  11.515
60545W        W32970  15.802  11.162   2.370
60546W        W32971  25.155   1.741  13.049
60547W        W32972  34.001  29.923   3.655
60548W        W32973  27.542  19.662   0.454
60549W        W32974  37.993  28.621  11.938
60550W        W32975  33.461  18.200   0.390
60551W        W32976  19.739  35.504   2.187
60552W        W32977  34.912  34.040   3.848
60553W        W32978  36.953  18.276  10.986
60554W        W32979  25.112  38.931   3.324
60555W        W32980   4.434  44.801   0.809
60556W        W32981  19.582  22.618  14.371
60557W        W32982   8.174  18.730  12.078
60558W        W32983  44.800  44.850   3.261
60559W        W32984  26.967  33.906  14.979
60560W        W32985  31.647  21.035   2.665
60561W        W32986  16.205   4.389  14.304
60562W        W32987  21.585  31.452  12.016
60563W        W32988  19.761   2.820  11.459
60564W        W32989   8.266  18.690   4.698
60565W        W32990   0.942  44.963   3.154
60566W        W32991  24.976  24.973  10.438
60567W        W32992  26.554  40.433   3.793
60568W        W32993  34.595   8.344   1.882
60569W        W32994  29.656  25.210  10.441
60570W        W32995   2.810  28.651  10.563
60571W        W32996  40.971  13.300  14.017
60572W        W32997  42.320   3.840   2.877
60573W        W32998  29.073   3.945   0.325
60574W        W32999   7.875  18.273  10.567
60575W        W33000  14.588  28.478  12.381
60576W        W33001   4.824  25.710  13.531
60577W        W33002  31.479  36.503   2.318
60578W        W33003  41.908   9.839  11.439
60579W        W33004  35.923  16.260   2.419
60580W        W33005  14.133   3.252  13.910
60581W        W33006   3.833  24.040  10.642
60582W        W33007   3.275  19.776  14.515
60583W        W33008  21.634  38.043  12.088
60584W        W33009  42.001  13.808  12.836
60585W        W33010  16.703  29.495   2.687
60586W        W33011  19.278  35.948  10.970
60587W        W33012  30.458  28.100   0.321
60588W        W33013   7.412  42.439   0.398
60589W        W33014  43.400  17.793   0.256
60590W        W33015  22.669   5.716   0.281
60591W        W33016  34.425  37.923   2.687
60592W        W33017   0.264  26.547   1.812
60593W        W33018  34.582  33.892   0.947
60594W        W33019   8.754  19.193   4.699
60595W        W33020  38.337  16.805  13.447
60596W        W33021  31.590  19.594   9.998
60597W        W33022  42.371  26.091   4.666
60598W        W33023  31.647  10.217   4.791
60599W        W33024   1.935  27.961   1.829
60600W        W33025   8.689  27.146   0.745
60601W        W33026   3.946   8.899   4.349
60602W        W33027  29.958  30.988  13.988
60603W        W33028  36.947  22.724  10.911
60604W        W33029  24.502   5.771  14.498
60605W        W33030  24.641  25.595  13.397
60606W        W33031  18.061  33.437   1.699
60607W        W33032  32.070  23.202   4.264
60608W        W33033   5.296  43.379   2.759
60609W        W33034  41.416   3.811   1.769
60610W        W33035  29.959  16.755   1.861
60611W        W33036  39.012  31.454   1.245
60612W        W33037  42.823  41.366  11.447
60613W        W33038  38.563   9.348   2.266
60614W        W33039  44.835  29.581   4.274
60615W        W33040  22.162  12.128   0.397
60616W        W33041  40.855   4.337   3.157
60617W        W33042  27.539   9.301   1.810
60618W        W33043  29.026   5.289   3.687
60619W        W33044   1.751  12.320   2.246
60620W        W33045   7.384  17.185   2.713
60621W        W33046  10.235   8.790   0.330
60622W        W33047  20.251  11.651   2.814
60623W        W33048  21.644  32.963   2.868
60624W        W33049   6.732   4.212   1.834
60625W        W33050  29.564  19.733  12.982
60626W        W33051  33.936  31.904   3.310
60627W        W33052  34.572   4.307  12.025
60628W        W33053  38.374  38.388  10.469
60629W        W33054   0.478  32.471  13.060
60630W        W33055  44.275  22.552   0.368
60631W        W33056  39.449   4.870   3.706
60632W        W33057  31.044  42.854   2.215
60633W        W33058   9.159  23.641  10.537
60634W        W33059  38.446  29.013   1.256
60635W        W33060  10.676  42.519   2.300
60636W        W33061  17.713   9.808  11.440
60637W        W33062  31.447  16.132   5.739
60638W        W33063  42.811  41.297   2.704
60639W        W33064  16.677  30.986   0.430
60640W        W33065  17.742   7.801  14.016
60641W        W33066   7.702  16.172   3.762
60642W        W33067  22.665  18.081   4.822
60643W        W33068  44.788   3.393  11.075
60644W        W33069  37.381  33.597  13.949
60645W        W33070  23.642   8.164   4.619
60646W        W33071  43.477  21.684  11.956
60647W        W33072  14.705  43.481  12.486
60648W        W33073  35.082  18.144   4.716
60649W        W33074  32.619  34.503   2.793
60650W        W33075  42.434  36.904   3.749
60651W        W33076   0.767  35.486   1.828
60652W        W33077  16.102  43.293  11.507
60653W        W33078  37.576   0.799  12.826
60654W        W33079  22.080   0.398  13.864
60655W        W33080  36.403   1.928  13.312
60656W        W33081  39.994  10.874   2.784
60657W        W33082   9.795  38.969  11.872
60658W        W33083  38.382  34.395   1.801
60659W        W33084  17.637  29.940   2.728
60660W        W33085  18.652   5.762  10.455
60661W        W33086  43.772  16.723   4.741
60662W        W33087  42.978  19.050  14.905
60663W        W33088  35.895  26.093   2.315
60664W        W33089   5.393  32.044  14.789
60665W        W33090  40.820  14.732   1.343
60666W        W33091  16.665  36.956   4.839
60667W        W33092   2.922   6.740  12.045
60668W        W33093  18.212   3.743  12.845
60669W        W33094  20.669  10.266  11.405
60670W        W33095  10.353  35.949   4.791
60671W        W33096  39.004  35.483   5.209
60672W        W33097  20.653  39.007  12.557
60673W        W33098  36.458  31.999  14.284
60674W        W33099   8.197  39.527  14.996
60675W        W33100   8.838  33.127   4.193
60676W        W33101  37.931  43.481  11.492
60677W        W33102  27.129   9.265  14.443
60678W        W33103  34.041  20.085  14.499
60679W        W33104  24.534  20.075  11.994
60680W        W33105   8.306   5.431  12.513
60681W        W33106  31.047  36.898  14.814
60682W        W33107  30.629  23.140   2.403
60683W        W33108   3.752  21.102   2.314
60684W        W33109   2.355  18.623  10.892
60685W        W33110   9.236  38.525   2.814
60686W        W33111  39.868  38.482   3.777
60687W        W33112   9.157  12.297   2.207
60688W        W33113  41.384  28.984  10.639
60689W        W33114  15.591  29.493   4.617
60690W        W33115  12.633  23.106   1.284
60691W        W33116   0.983  11.198   0.754
60692W        W33117  26.110  38.399  13.356
60693W        W33118  33.617  22.225   9.977
60694W        W33119   3.372  26.196  12.063
60695W        W33120  20.669  35.096  13.014
60696W        W33121  38.991  12.356  13.998
60697W        W33122  28.931  24.486   1.860
60698W        W33123  11.715  36.007  10.897
60699W        W33124   1.765  17.077  12.056
60700W        W33125   5.391   5.323   0.254
60701W        W33126  20.187  42.501  11.536
60702W        W33127   0.339  12.221  11.462
60703W        W33128  12.799  23.209   0.928
60704W        W33129  22.628  28.970   2.385
60705W        W33130  27.174  40.982  11.125
60706W        W33131   5.745  30.464  11.447
60707W        W33132  20.674  42.437   0.368
60708W        W33133   1.900  34.081  14.783
60709W        W33134   8.854  31.998  13.966
60710W        W33135  35.883  31.494  11.931
60711W        W33136  21.733  38.057   4.734
60712W        W33137  44.901  18.177  12.346
60713W        W33138  26.204  35.856  11.525
60714W        W33139   7.210  44.889   2.736
60715W        W33140  20.609  42.456  14.792
60716W        W33141  14.198  19.773  11.475
60717W        W33142  15.801  16.087  10.425
60718W        W33143  37.994   0.401  10.594
60719W        W33144   6.728  28.007  10.404
60720W        W33145  18.782   1.277  13.054
60721W        W33146   9.252  16.261   0.863
60722W        W33147  12.209  38.065   2.767
60723W        W33148   3.890   6.701   0.466
60724W        W33149  26.573  26.684   2.191
60725W        W33150  19.627  39.980   2.771
60726W        W33151   9.796  36.563  11.945
60727W        W33152  28.646  41.821  13.420
60728W        W33153  44.265  40.013  14.911
60729W        W33154  10.147  20.093   5.243
60730W        W33155  12.119  12.802   1.343
60731W        W33156  23.679  39.843   0.816
60732W        W33157  44.959  39.973   2.796
60733W        W33158  12.653  10.204  12.953
60734W        W33159  12.149  39.402   3.354
60735W        W33160  17.205   8.672   4.344
60736W        W33161  14.686  34.981   4.257
60737W        W33162  22.669  42.926   0.811
60738W        W33163  34.972  29.456   4.700
60739W        W33164  35.588  15.237   1.429
60740W        W33165   1.272  33.014  10.927
60741W        W33166  38.868  26.604   3.799
60742W        W33167  37.468  43.423  14.390
60743W        W33168   4.917  40.460  13.365
60744W        W33169   4.228  32.083  11.032
60745W        W33170  10.172  34.417   1.332
60746W        W33171   5.332   4.825  10.025
60747W        W33172  26.573   9.365   3.774
60748W        W33173   1.262  20.058   0.460
60749W        W33174  44.884   1.832   0.337
60750W        W33175  28.122  14.114  13.541
60751W        W33176  42.947   3.227   4.156
60752W        W33177  12.612   7.383  12.062
60753W        W33178  36.002  38.006  12.456
60754W        W33179  38.566  32.122   1.291
60755W        W33180  16.218  11.237   0.780
60756W        W33181   2.767  21.146   4.215
60757W        W33182  43.865  14.190   4.672
60758W        W33183  33.897   9.162  11.505
60759W        W33184   4.765   6.239   2.405
60760W        W33185  32.100  32.424  10.495
60761W        W33186  37.068  43.875  13.034
60762W        W33187   9.720   4.939   2.867
60763W        W33188  37.432  22.600  12.382
60764W        W33189  44.487   7.379  14.944
60765W        W33190   4.850  10.777   1.882
60766W        W33191  44.428   3.348  13.534
60767W        W33192  42.519  35.926  12.061
60768W        W33193  38.989   2.778   4.118
60769W        W33194  37.336  31.448   3.863
60770W        W33195  15.326  41.330   2.298
60771W        W33196  20.599  10.299   2.287
60772W        W33197   2.921  39.003   2.222
60773W        W33198  43.341   3.453   1.215
60774W        W33199   7.378  14.760  11.117
60775W        W33200  11.134  13.269   3.256
60776W        W33201  38.973  23.610   3.735
60777W        W33202  33.992  13.721   1.841
60778W        W33203  44.345   2.856  10.512
60779W        W33204  35.065  28.012  13.400
60780W        W33205  25.183  18.098   3.305
60781W        W33206   1.738  44.466  10.961
60782W        W33207  16.647   2.452   4.778
60783W        W33208  43.320  20.070   4.621
60784W        W33209  42.369  36.373  10.895
60785W        W33210  19.241  34.392   3.231
60786W        W33211  17.194   2.294   5.277
60787W        W33212   2.937  43.501  11.462
60788W        W33213   7.377  30.116   3.650
60789W        W33214  26.550   4.268  14.443
60790W        W33215  15.247  32.002   3.243
60791W        W33216  44.390  31.572   2.745
60792W        W33217  37.962  19.242   1.834
60793W        W33218  27.945  19.239   3.226
60794W        W33219  11.283   3.742  12.837
60795W        W33220  44.881  21.652  11.455
60796W        W33221   7.800  18.131  11.407
60797W        W33222  44.338  16.216   1.271
60798W        W33223  29.625   9.322  13.465
60799W        W33224  14.684  44.303   3.843
60800W        W33225  40.490   0.390   0.787
60801W        W33226  23.529  38.029   0.359
60802W        W33227  23.181  40.871   4.347
60803W        W33228  36.056  38.338   2.843
60804W        W33229  27.096  27.082  13.336
60805W        W33230  25.113  20.745   0.894
60806W        W33231  37.414   7.698   3.637
60807W        W33232  19.536  20.568  13.834
60808W        W33233  33.129  13.792  12.969
60809W        W33234   2.912  41.981  11.995
60810W        W33235  27.949  20.600   1.445
60811W        W33236  28.665  12.722  11.884
60812W        W33237  32.035   5.755   1.705
60813W        W33238   8.867   3.944   2.268
60814W        W33239  28.176  13.734   3.818
60815W        W33240  41.320  17.141  10.913
60816W        W33241   3.888  30.413   1.416
60817W        W33242   7.329  30.082  12.504
60818W        W33243  40.305  37.013  12.417
60819W        W33244  31.510  23.570  12.926
60820W        W33245  11.822   7.868  11.378
60821W        W33246  42.312  41.419   3.235
60822W        W33247  17.743  13.220   3.790
60823W        W33248  17.798  29.629   3.675
60824W        W33249  15.747  20.099   0.905
60825W        W33250  10.690  38.893  10.457
60826W        W33251   5.927  33.874   4.257
60827W        W33252   1.392  22.196   2.364
60828W        W33253  14.127  12.199   1.436
60829W        W33254  30.619   5.351   3.146
60830W        W33255  21.536  14.588  11.057
60831W        W33256  10.664   2.767  14.909
60832W        W33257  20.693  36.480  12.995
60833W        W33258   5.896  18.259  11.885
60834W        W33259  22.737   3.436   0.766
60835W        W33260  23.211   9.787   4.255
60836W        W33261  22.189  41.924  10.963
60837W        W33262   2.331   3.241   0.789
60838W        W33263  35.983  14.830  10.507
60839W        W33264  41.033  16.728  13.860
60840W        W33265  30.057  25.705  13.429
60841W        W33266  33.558  13.755  13.894
60842W        W33267  15.087  41.400   1.754
60843W        W33268   2.967  15.769  13.028
60844W        W33269  36.922  29.662   2.794
60845W        W33270  20.259  32.904   4.629
60846W        W33271  25.494  14.592  13.822
60847W        W33272   0.409  10.141   2.345
60848W        W33273   1.858  25.472  11.487
60849W        W33274  33.035   9.843   4.133
60850W        W33275   9.359  35.524   3.199
60851W        W33276  36.978  41.838   3.179
60852W        W33277  37.863   5.713   3.701
60853W        W33278  28.567  17.773   3.377
60854W        W33279  39.350  32.629   2.794
60855W        W33280   9.298   8.731   1.367
60856W        W33281  21.262  11.132  10.503
60857W        W33282  38.434  13.301  14.394
60858W        W33283  10.731  33.014   3.757
60859W        W33284  36.544  11.796  10.064
60860W        W33285  42.317  37.540   1.702
60861W        W33286  38.014  30.579  13.958
60862W        W33287  22.554  22.564   4.335
60863W        W33288   9.265   6.735   5.306
60864W        W33289  34.046  42.803  12.386
60865W        W33290  34.902   7.755   5.249
60866W        W33291  27.080  39.506   2.300
60867W        W33292   8.176  30.575   3.793
60868W        W33293  32.396  31.522  11.403
60869W        W33294  43.502  22.628   3.848
60870W        W33295  17.252  36.899   3.310
60871W        W33296   8.322  16.806  12.836
60872W        W33297  39.539  43.416   3.733
60873W        W33298   2.954  32.071  14.368
60874W        W33299  27.601  23.147   1.347
60875W        W33300   3.290   5.747   0.243
60876W        W33301  21.585  39.412  14.391
60877W        W33302   6.831  13.323   3.386
60878W        W33303  27.517   8.855  10.470
60879W        W33304  34.957  41.396   2.235
60880W        W33305  19.577   4.285  14.398
60881W        W33306  10.279  41.977   1.329
60882W        W33307   4.233  29.470   2.748
60883W        W33308  40.010  10.269  13.515
60884W        W33309  22.676  33.582   1.888
60885W        W33310  38.828   1.819  14.337
60886W        W33311  26.643  44.919  14.411
60887W        W33312  40.978  38.353   4.771
60888W        W33313  20.729  13.143   1.360
60889W        W33314  43.827   7.414  10.560
60890W        W33315  31.406  32.117  11.000
60891W        W33316  11.212   7.871  10.595
60892W        W33317  43.419  39.479  10.587
60893W        W33318   6.245   5.390   4.817
60894W        W33319  29.665   1.872  14.966
60895W        W33320   3.429  14.211  12.557
60896W        W33321   2.867  38.841  12.844
60897W        W33322  31.053  21.623   3.156
60898W        W33323   6.315  35.891   5.162
60899W        W33324  37.509  14.729   4.746
60900W        W33325   2.933  15.625  11.979
60901W        W33326  15.262  15.090  14.973
60902W        W33327  26.054  11.263   4.775
60903W        W33328  21.227  35.379  14.811
60904W        W33329   8.688   3.416   9.994
60905W        W33330  20.105  21.218  13.494
60906W        W33331  14.718  20.735  11.984
60907W        W33332  26.649  23.549   5.081
60908W        W33333  39.379  40.415  10.108
60909W        W33334   8.244  10.685  13.988
60910W        W33335  21.718  40.518   1.726
60911W        W33336  17.759  27.513  14.862
60912W        W33337  36.525   2.235  14.303
60913W        W33338   8.803  39.484   1.325
60914W        W33339  27.010  28.641   3.856
60915W        W33340  17.574  11.218   0.900
60916W        W33341  33.610  22.074   5.235
60917W        W33342  44.985  26.508  12.860
60918W        W33343  31.109  24.557   3.199
60919W        W33344   0.793   1.442   1.913
60920W        W33345  39.896  23.131  13.838
60921W        W33346  41.477   7.229   1.702
60922W        W33347  32.533  10.853   3.749
60923W        W33348  39.374  43.474  14.367
60924W        W33349   0.445  31.436  12.977
60925W        W33350   4.770  11.137   1.267
60926W        W33351  24.151  12.837  13.895
60927W        W33352   5.868   7.769   4.144
60928W        W33353  18.710  35.063   4.205
60929W        W33354  19.096  40.922  11.882
60930W        W33355  14.787   7.180   4.156
60931W        W33356  36.085  22.196   3.286
60932W        W33357  33.460  39.323   0.965
60933W        W33358  26.562   2.327  11.501
60934W        W33359  32.591  41.874  10.605
60935W        W33360  43.965  40.415  14.885
60936W        W33361   1.332  31.900   4.179
60937W        W33362  11.772  33.600  14.427
60938W        W33363   0.293  26.676  13.046
60939W        W33364  39.405  16.116  12.960
60940W        W33365   2.856   9.312   4.673
60941W        W33366  43.482  32.498   0.886
60942W        W33367  43.978   3.790  10.476
60943W        W33368  31.548  41.427  14.858
60944W        W33369  23.092  17.171   3.709
60945W        W33370  15.164  28.179  12.495
60946W        W33371  38.052   0.850   2.324
60947W        W33372  40.002  29.967   0.466
60948W        W33373  27.995  10.725   4.764
60949W        W33374   4.885  42.928  10.923
60950W        W33375  24.603  17.606  14.481
60951W        W33376  31.049  14.745  12.416
60952W        W33377   1.912  22.593  10.480
60953W        W33378  43.924  25.673   1.397
60954W        W33379  41.340  22.650   4.830
60955W        W33380   4.804  38.415   0.899
60956W        W33381  41.800  25.119   2.875
60957W        W33382  19.630  18.580  14.926
60958W        W33383  22.742  41.796   1.766
60959W        W33384   0.962  40.032  10.901
60960W        W33385  21.133   1.744  12.375
60961W        W33386  34.506  10.148   4.135
60962W        W33387  42.318  20.145   2.311
60963W        W33388  33.410  28.657  14.949
60964W        W33389  10.711  34.476  11.378
60965W        W33390   6.697  40.364   3.630
60966W        W33391  23.118  27.963   0.311
60967W        W33392  36.079  33.398   0.764
60968W        W33393   4.813  26.182  14.006
60969W        W33394   7.770  14.282   3.270
60970W        W33395  17.169  19.673  12.424
60971W        W33396  43.803  35.533  13.479
60972W        W33397  22.685  24.599   3.350
60973W        W33398  32.569  18.249  10.905
60974W        W33399   5.311   1.961  13.814
60975W        W33400   9.166  25.984  13.032
60976W        W33401  20.669  12.772  12.520
60977W        W33402  16.681   3.841  12.448
60978W        W33403  26.595   9.252   3.338
60979W        W33404  39.547  10.373   2.757
60980W        W33405   1.261  14.812  10.477
60981W        W33406  21.224   0.919   2.177
60982W        W33407  37.887   2.871  10.643
60983W        W33408   0.805  13.718   1.822
60984W        W33409  27.518   9.304  10.565
60985W        W33410  10.632  19.653  14.276
60986W        W33411  28.657   4.732   2.250
60987W        W33412   7.199  23.521   2.775
60988W        W33413   0.821  11.333   3.629
60989W        W33414  39.848   6.235   3.202
60990W        W33415  33.547   1.806   4.195
60991W        W33416  10.234  41.431   1.932
60992W        W33417  44.359  38.885   0.853
60993W        W33418  11.717  21.180   3.700
60994W        W33419   7.234  35.861   1.935
60995W        W33420  29.621   8.738   5.294
60996W        W33421  37.419   2.348  12.502
60997W        W33422  31.077  34.510   0.884
60998W        W33423  18.705  11.680   0.835
60999W        W33424   1.799  26.110   1.445
61000W        W33425  14.195  22.539  13.458
61001W        W33426  29.566  16.108   1.861
61002W        W33427  15.102   0.259  11.919
61003W        W33428  15.105  22.061   9.584
61004W        W33429   5.738  18.173  11.464
61005W        W33430   6.279  34.433   4.695
61006W        W33431  34.111   2.907   0.283
61007W        W33432   9.290  44.314   2.754
61008W        W33433  44.485  35.462   0.764
61009W        W33434  28.049  12.228  12.058
61010W        W33435  12.742  30.056  14.981
61011W        W33436  40.314   2.922   3.215
61012W        W33437  11.826   6.268  11.012
61013W        W33438   3.713  34.439   0.952
61014W        W33439  15.299   6.844  12.002
61015W        W33440  18.257  35.954  11.493
61016W        W33441  35.003  28.591   3.375
61017W        W33442  14.666  30.136   4.789
61018W        W33443  29.145  27.466  14.326
61019W        W33444  40.805  31.961  14.495
61020W        W33445  32.030  35.000   1.427
61021W        W33446  20.118   9.298   3.817
61022W        W33447   6.270  16.193   3.834
61023W        W33448  33.570  33.442   2.326
61024W        W33449  37.005  35.926  13.386
61025W        W33450  29.964  35.511   4.288
61026W        W33451  19.152  43.500  14.499
61027W        W33452  18.057  34.029  12.026
61028W        W33453  19.618  39.390   1.698
61029W        W33454  26.190  26.565  11.490
61030W        W33455   7.833  42.843  13.351
61031W        W33456  23.674   7.680   2.409
61032W        W33457  34.923  38.499  14.870
61033W        W33458  36.861  23.120   4.793
61034W        W33459  28.592  13.601  13.882
61035W        W33460   9.879  15.730  13.410
61036W        W33461   1.790  37.377   2.390
61037W        W33462  16.790   8.252   4.118
61038W        W33463   5.763  36.081  10.457
61039W        W33464  23.604  37.012   1.724
61040W        W33465  12.312  16.595   1.386
61041W        W33466  42.896   4.750   3.209
61042W        W33467  12.192  44.786  12.996
61043W        W33468   9.861  15.253   2.671
61044W        W33469   9.250  38.356   0.748
61045W        W33470   4.759  32.991  12.478
61046W        W33471  44.454   0.761  11.944
61047W        W33472   2.261  31.989  10.099
61048W        W33473  16.716  43.893  10.517
61049W        W33474  43.416  42.885   4.719
61050W        W33475  38.999  43.824  14.404
61051W        W33476  19.150  29.986   2.417
61052W        W33477  26.645  34.870  11.898
61053W        W33478  16.629  25.974  11.896
61054W        W33479  18.212  29.642  10.032
61055W        W33480   7.758   9.303   2.803
61056W        W33481  43.483  11.245   0.371
61057W        W33482   7.843   8.856   0.888
61058W        W33483   9.689  22.207   4.602
61059W        W33484   6.283  36.553  10.049
61060W        W33485  34.910  16.655   1.818
61061W        W33486  40.006   5.898  11.374
61062W        W33487  26.457  12.210   4.285
61063W        W33488  25.667  44.282   0.328
61064W        W33489   0.772  34.028   2.269
61065W        W33490  14.746  25.645   1.367
61066W        W33491  32.574  37.353   3.814
61067W        W33492  11.187  30.467  12.996
61068W        W33493  16.617  13.109  12.518
61069W        W33494  32.893  36.893  14.921
61070W        W33495   9.736  38.888   2.839
61071W        W33496   5.216  35.904  12.906
61072W        W33497  34.541  12.619  12.953
61073W        W33498  44.260  11.770  11.417
61074W        W33499  38.358  15.685   0.929
61075W        W33500  14.652  36.549  10.536
61076W        W33501  36.566   6.809   0.420
61077W        W33502  32.029   9.647   3.258
61078W        W33503  42.026   7.184   0.919
61079W        W33504  32.027  13.696  14.928
61080W        W33505  17.673  24.700   2.876
61081W        W33506  42.902   3.767  13.998
61082W        W33507  33.979  12.749   1.307
61083W        W33508  37.390  31.031   1.815
61084W        W33509  33.895  41.935  12.518
61085W        W33510  10.140  27.488  12.845
61086W        W33511  23.119   1.793  11.959
61087W        W33512  23.521  11.630  14.019
61088W        W33513   7.241  27.042  12.091
61089W        W33514  42.285   4.429   1.235
61090W        W33515  12.322   4.389   2.358
61091W        W33516  21.528   4.296   1.911
61092W        W33517  35.416  33.891   3.239
61093W        W33518  35.049   1.266  13.869
61094W        W33519  24.045   0.373  14.871
61095W        W33520  26.562   6.300  12.830
61096W        W33521  15.240  31.634   3.351
61097W        W33522  33.501  41.999  10.579
61098W        W33523  21.138  34.424   2.805
61099W        W33524  37.544  34.937  14.869
61100W        W33525  42.798  27.641   2.719
61101W        W33526  13.803  29.049   2.290
61102W        W33527  11.221  40.485   1.719
61103W        W33528  33.476  19.162  13.822
61104W        W33529  29.021  10.253  13.490
61105W        W33530  44.947   6.188  14.019
61106W        W33531  44.902  12.196   2.225
61107W        W33532  33.009  21.155  12.015
61108W        W33533  21.213   0.358   0.732
61109W        W33534  37.473  11.644  11.921
61110W        W33535  31.462  12.613   1.720
61111W        W33536   0.776   0.335  12.370
61112W        W33537  18.552   8.775  12.358
61113W        W33538  13.169   4.409   4.331
61114W        W33539  38.325  42.390   9.526
61115W        W33540  40.893  36.476   1.744
61116W        W33541  31.551   9.746  11.908
61117W        W33542   7.828  27.977   3.224
61118W        W33543  16.568  12.185   3.188
61119W        W33544  28.481  44.992   3.664
61120W        W33545   0.351   6.209  10.965
61121W        W33546  27.562  35.007   3.743
61122W        W33547   2.339  32.057  12.946
61123W        W33548  22.120   6.293   3.327
61124W        W33549  27.025  39.912   1.211
61125W        W33550  39.837  43.997   5.190
61126W        W33551  20.587  12.836  14.343
61127W        W33552  10.732   0.338  10.405
61128W        W33553  40.821  17.183   2.202
61129W        W33554   4.930  14.280   4.244
61130W        W33555   7.674  26.486   0.967
61131W        W33556  40.546  27.995  10.136
61132W        W33557  11.163  10.236  12.991
61133W        W33558  10.187  23.554   4.706
61134W        W33559  23.660  37.056  10.455
61135W        W33560   3.812  17.256  13.021
61136W        W33561  23.594  44.954   2.231
61137W        W33562   3.455   9.887  10.906
61138W        W33563  36.445  36.406  11.417
61139W        W33564   0.251  43.437   2.888
61140W        W33565  15.613  14.166  11.030
61141W        W33566   8.664  10.847  12.911
61142W        W33567  34.549  18.752   4.266
61143W        W33568   8.828   7.722   2.819
61144W        W33569  11.652  23.051  12.022
61145W        W33570  40.516  40.365  12.402
61146W        W33571  34.071   6.741  13.867
61147W        W33572  10.756  34.944   1.253
61148W        W33573  31.110  13.822   1.812
61149W        W33574  35.525  10.686  13.430
61150W        W33575   7.232  21.524   4.325
61151W        W33576  25.195  23.163  10.615
61152W        W33577  26.471  43.317   3.152
61153W        W33578  31.945  10.681  14.902
61154W        W33579  26.185   7.392  11.605
61155W        W33580  41.396  23.216   0.745
61156W        W33581  20.271  43.366  11.054
61157W        W33582   5.793  38.386   2.672
61158W        W33583  34.114  36.531  14.797
61159W        W33584  29.016  20.257   2.774
61160W        W33585   3.799  14.744  14.355
61161W        W33586  31.593  31.449  10.920
61162W        W33587   7.190  11.692   4.197
61163W        W33588  35.930  32.035   4.774
61164W        W33589   1.936  15.594  12.495
61165W        W33590  15.300  34.999   1.443
61166W        W33591  30.970  42.504   0.411
61167W        W33592   7.854  33.082  13.414
61168W        W33593  39.834  14.700  12.578
61169W        W33594   3.321  34.120  10.528
61170W        W33595  33.536  17.266  10.102
61171W        W33596  36.581  39.524   3.326
61172W        W33597  28.126  24.997   0.332
61173W        W33598  18.620  19.047   0.754
61174W        W33599  37.528  15.209   2.376
61175W        W33600   3.748  16.590   1.389
61176W        W33601  13.833  38.991  12.081
61177W        W33602  11.196   3.337  12.883
61178W        W33603   8.241  11.664   3.757
61179W        W33604  16.097  25.579  11.390
61180W        W33605  22.702  39.898   3.215
61181W        W33606  23.119  29.006   4.780
61182W        W33607   0.351  42.399   1.271
61183W        W33608  34.927   1.913  11.532
61184W        W33609  11.699  42.316  12.545
61185W        W33610   5.405   0.325   4.205
61186W        W33611  21.242  17.606   4.116
61187W        W33612  15.693  41.495   4.628
61188W        W33613   6.307   4.903   5.215
61189W        W33614  29.075  30.908  12.042
61190W        W33615  42.343  35.957   2.307
61191W        W33616  40.475  39.063  14.321
61192W        W33617   4.717  31.956  14.947
61193W        W33618  30.423  23.048  12.443
61194W        W33619  21.149  31.964  10.555
61195W        W33620  41.384   0.878   3.797
61196W        W33621  23.541   9.889  11.571
61197W        W33622   1.899   7.796   1.792
61198W        W33623  16.086  14.715   3.799
61199W        W33624  13.329  17.742  12.561
61200W        W33625   3.846  22.519   0.748
61201W        W33626  21.144  14.738   1.704
61202W        W33627  30.543  43.488  12.062
61203W        W33628   7.858   2.912  11.567
61204W        W33629  20.035  30.642   4.180
61205W        W33630  11.803  17.246   1.737
61206W        W33631   9.875  12.148  13.801
61207W        W33632  11.664   5.794  13.941
61208W        W33633  27.950   9.320   4.649
61209W        W33634  20.121  28.933  13.485
61210W        W33635  11.818  39.981  14.471
61211W        W33636   0.451  37.891  12.559
61212W        W33637  22.650  14.182   4.284
61213W        W33638  16.137  10.764   0.893
61214W        W33639  40.874  16.608  11.995
61215W        W33640  32.477  28.470  13.360
61216W        W33641  22.087   1.340   4.184
61217W        W33642  36.099   2.907   1.380
61218W        W33643   3.387  42.298  12.843
61219W        W33644  35.901  39.491  10.992
61220W        W33645  15.276  15.676   3.251
61221W        W33646  22.230  25.166  13.844
61222W        W33647  20.105  21.688   4.117
61223W        W33648   3.904  42.482   4.129
61224W        W33649   3.287  27.669  13.861
61225W        W33650  14.724  23.151  10.932
61226W        W33651  40.451   1.759  11.606
61227W        W33652  38.964  39.912  12.988
61228W        W33653  38.515  32.090  12.506
61229W        W33654   3.925  11.649  10.083
61230W        W33655  31.565  36.371  11.441
61231W        W33656  41.465  42.936  14.806
61232W        W33657  23.138  30.929   3.328
61233W        W33658  26.129   6.264   1.334
61234W        W33659  36.019  28.553   2.764
61235W        W33660  10.684  38.016   0.816
61236W        W33661  26.604  41.314  11.985
61237W        W33662  21.525  40.532   0.854
61238W        W33663  18.082  18.672  12.390
61239W        W33664  22.009  35.930   1.291
61240W        W33665  38.069  32.035   0.475
61241W        W33666  25.079  43.297  13.468
61242W        W33667  43.414  39.434   2.224
61243W        W33668  31.029   8.331   2.303
61244W        W33669   7.872   6.376   1.261
61245W        W33670   9.193   5.350  11.988
61246W        W33671  36.442  22.141   1.900
61247W        W33672  24.164  36.577   1.888
61248W        W33673  42.320   8.263  14.469
61249W        W33674  32.501   9.390  12.021
61250W        W33675   1.813   6.827   4.619
61251W        W33676  20.750  42.946  13.429
61252W        W33677   8.295   5.379   4.782
61253W        W33678  25.061  28.569  10.985
61254W        W33679  21.636  28.052   4.305
61255W        W33680  24.510   4.886  14.857
61256W        W33681  36.524  32.965   3.853
61257W        W33682  18.602  41.874   0.398
61258W        W33683   8.363  31.111  12.574
61259W        W33684  36.034   8.265   3.854
61260W        W33685  28.034  19.600   1.272
61261W        W33686  28.162   0.371  10.488
61262W        W33687  20.170   2.463   2.235
61263W        W33688  26.528   5.703   0.843
61264W        W33689   7.367  31.143   2.841
61265W        W33690  36.888  43.462   2.725
61266W        W33691  14.697  18.149   2.738
61267W        W33692  44.799   7.858  11.568
61268W        W33693   4.813  34.003   0.920
61269W        W33694  28.035  40.038   4.838
61270W        W33695  31.992   7.236  11.868
61271W        W33696  12.222  30.073  14.378
61272W        W33697  25.216   5.368  12.086
61273W        W33698   2.928   1.465   4.652
61274W        W33699  21.549   7.255   1.774
61275W        W33700   2.750   1.331  14.388
61276W        W33701  33.933   3.430   0.863
61277W        W33702  13.318  22.211  12.362
61278W        W33703  19.275   0.985   0.284
61279W        W33704  10.207  37.485  11.444
61280W        W33705  44.984   1.365   2.838
61281W        W33706   5.236  29.564  11.389
61282W        W33707  14.708  40.046   4.610
61283W        W33708  16.779  17.146  13.939
61284W        W33709  10.748   6.873   9.461
61285W        W33710   7.417  39.402  10.435
61286W        W33711  34.385  38.854   0.764
61287W        W33712  16.652  24.190   4.336
61288W        W33713  35.042  36.509   1.701
61289W        W33714  12.303  12.320  13.959
61290W        W33715  16.640  36.078   0.309
61291W        W33716  10.804   9.247   1.403
61292W        W33717  27.054  30.646   2.763
61293W        W33718   1.934  42.994  11.085
61294W        W33719  20.733  18.281   3.262
61295W        W33720  10.876  23.690   4.122
61296W        W33721   6.819  27.453   1.847
61297W        W33722   3.356  18.216   2.690
61298W        W33723  38.372   9.391   0.418
61299W        W33724   4.405   0.472   1.763
61300W        W33725   9.873  12.759  13.360
61301W        W33726  43.451  36.046  14.295
61302W        W33727  39.427  21.245   0.413
61303W        W33728   8.686  29.435   4.131
61304W        W33729  42.921  40.505   1.236
61305W        W33730  22.542  43.797   4.211
61306W        W33731   3.865  39.345   1.243
61307W        W33732  35.556  28.984   1.725
61308W        W33733  19.765  18.718  11.547
61309W        W33734  29.432  17.676   4.838
61310W        W33735   0.491  43.942   4.335
61311W        W33736  24.614  27.130   3.658
61312W        W33737  27.132  21.070   4.249
61313W        W33738  13.631  38.828   3.225
61314W        W33739  23.004  31.107  14.008
61315W        W33740  31.940  42.839   1.249
61316W        W33741  13.602   6.214  11.879
61317W        W33742   7.305  19.215   1.358
61318W        W33743  38.826  11.844   3.738
61319W        W33744  20.154  22.079  14.944
61320W        W33745  24.166   7.375   3.858
61321W        W33746  36.421   3.349   0.727
61322W        W33747  31.623  34.476  13.062
61323W        W33748  21.731  13.294  11.861
61324W        W33749  41.851  15.206  11.388
61325W        W33750  34.116  36.557  13.903
61326W        W33751  14.599  18.113  14.406
61327W        W33752   4.360  43.387   3.312
61328W        W33753  22.030  10.165   4.663
61329W        W33754   3.854  16.241  12.913
61330W        W33755   9.865  17.571   2.222
61331W        W33756  28.033  28.447  12.948
61332W        W33757  18.197   7.895   3.665
61333W        W33758   3.759  38.968   0.414
61334W        W33759  20.216  21.515   0.804
61335W        W33760  26.564   0.770   2.870
61336W        W33761   4.796   8.369  14.005
61337W        W33762  32.555   5.843  13.929
61338W        W33763  44.499  26.509  11.934
61339W        W33764  30.608  27.465  13.318
61340W        W33765  30.137  10.184   1.714
61341W        W33766  36.899  16.143  14.392
61342W        W33767  44.767  28.673   0.430
61343W        W33768  24.567   9.660   1.324
61344W        W33769  18.197   3.437   0.414
61345W        W33770  43.503  43.927   3.718
61346W        W33771  34.446   2.835  12.503
61347W        W33772  26.022   1.245  11.932
61348W        W33773  32.519  36.942   1.444
61349W        W33774  12.267  35.032  11.602
61350W        W33775   8.807  43.856  13.057
61351W        W33776  43.943   2.788   2.315
61352W        W33777  11.746  44.265  12.827
61353W        W33778  40.949   3.392   1.748
61354W        W33779  14.239  42.915   0.784
61355W        W33780  24.590  39.464   0.916
61356W        W33781  36.518  30.110   4.746
61357W        W33782  16.780  39.376  11.371
61358W        W33783  30.598  42.937  14.927
61359W        W33784  11.308   8.209   4.709
61360W        W33785  30.432  21.677  13.944
61361W        W33786  42.430   7.702   3.173
61362W        W33787   0.795   2.326   1.881
61363W        W33788  21.192  20.698  12.078
61364W        W33789  20.674  28.138   3.277
61365W        W33790  27.036  10.823   2.261
61366W        W33791  13.767   2.339  11.422
61367W        W33792  38.499  37.888   0.300
61368W        W33793  25.627  21.547  14.364
61369W        W33794  32.056  20.214   1.890
61370W        W33795  38.502  30.957   2.392
61371W        W33796  20.205  20.162   4.628
61372W        W33797   8.873  36.063   4.650
61373W        W33798  43.422  23.502  14.333
61374W        W33799  26.998  17.617  13.379
61375W        W33800   9.203   0.797  13.542
61376W        W33801  10.307  43.010  10.020
61377W        W33802  28.170   9.198  13.546
61378W        W33803  14.719  35.901  10.529
61379W        W33804  27.024   0.965   1.383
61380W        W33805  11.816  42.012  14.944
61381W        W33806   7.196  18.288  14.379
61382W        W33807   9.312  39.420   1.238
61383W        W33808   4.257   3.445  12.552
61384W        W33809  40.345  11.258  13.024
61385W        W33810  13.208  26.507  11.054
61386W        W33811  32.019  25.560   0.411
61387W        W33812  35.912   5.821   3.761
61388W        W33813  10.139  13.702  12.867
61389W        W33814  18.068  15.141   2.693
61390W        W33815   5.227  15.260   4.685
61391W        W33816  33.388  43.422   1.451
61392W        W33817   7.750   4.230   1.299
61393W        W33818  28.441  35.088   3.185
61394W        W33819   1.752   2.362  13.903
61395W        W33820  21.025   4.443   0.389
61396W        W33821  39.829  33.505  10.501
61397W        W33822  38.823  19.264   3.847
61398W        W33823  10.854  39.379   3.842
61399W        W33824  37.421  21.238  11.379
61400W        W33825  41.488   8.766  12.962
61401W        W33826   7.783  24.202   0.478
61402W        W33827  15.609   9.851  12.421
61403W        W33828  23.665   7.276  13.981
61404W        W33829  21.157  22.204  10.489
61405W        W33830  19.564   8.334  13.023
61406W        W33831  31.974  35.061   0.897
61407W        W33832  14.294   3.713  14.770
61408W        W33833  19.183  44.306   0.726
61409W        W33834   8.278   7.672   4.249
61410W        W33835   1.438  44.862   3.383
61411W        W33836  21.231  42.909   0.343
61412W        W33837  22.590  41.423   0.400
61413W        W33838  13.207  14.206  10.046
61414W        W33839  39.816   6.268   1.798
61415W        W33840  31.607  28.605  14.773
61416W        W33841  38.044  44.907   3.261
61417W        W33842  29.552   9.276   0.282
61418W        W33843  26.191  29.599  11.459
61419W        W33844  29.639  30.048   4.603
61420W        W33845  20.554  31.032   0.870
61421W        W33846  19.747  34.880  12.042
61422W        W33847  35.360  35.526  11.856
61423W        W33848  27.176  33.395   0.352
61424W        W33849  10.330  19.143   1.867
61425W        W33850  23.735  23.602   2.821
61426W        W33851  19.728   3.329  10.564
61427W        W33852   2.360  33.584   4.642
61428W        W33853  29.167   2.731  14.385
61429W        W33854  27.602  19.727  12.980
61430W        W33855  33.464  14.250   1.787
61431W        W33856  43.312  11.156   1.243
61432W        W33857   2.423  11.243  11.114
61433W        W33858   0.408  33.063   2.281
61434W        W33859  41.937   9.263  12.881
61435W        W33860  35.541  29.477  12.017
61436W        W33861  27.185  24.684  12.882
61437W        W33862   0.935  43.472  13.828
61438W        W33863   3.430  10.794  12.549
61439W        W33864  23.574  11.290  14.764
61440W        W33865  38.449  41.323  12.444
61441W        W33866  16.250  18.191  12.520
61442W        W33867  39.393  35.986  13.023
61443W        W33868  24.620  12.852   0.962
61444W        W33869  30.599  31.640   4.304
61445W        W33870   7.306  38.944  13.500
61446W        W33871  44.793  22.019   0.321
61447W        W33872  21.262  37.372  12.466
61448W        W33873   3.370  25.592   1.432
61449W        W33874   4.328  43.855   3.825
61450W        W33875   6.769  18.282   0.749
61451W        W33876  17.785  34.048   0.343
61452W        W33877  23.029  29.000  11.053
61453W        W33878  37.434  13.738   2.187
61454W        W33879  33.393  34.484   1.361
61455W        W33880  37.863  14.765  14.831
61456W        W33881  30.482  18.647  14.418
61457W        W33882   8.895  27.122   1.860
61458W        W33883  43.832   0.978   4.823
61459W        W33884  36.559  18.124   3.247
61460W        W33885  34.956   3.732  11.541
61461W        W33886   0.967  14.698   0.938
61462W        W33887   1.454  31.082   1.234
61463W        W33888  33.531   1.899  14.893
61464W        W33889  10.657  28.061   2.300
61465W        W33890  37.858  44.419  12.502
61466W        W33891  13.193  37.483   4.623
61467W        W33892   1.237  15.589  11.026
61468W        W33893  28.492  29.042   3.307
61469W        W33894  25.517  27.609  11.454
61470W        W33895  39.415  20.096  10.917
61471W        W33896   1.763  32.395  13.461
61472W        W33897  30.094   0.396  10.409
61473W        W33898   8.180  32.084   2.409
61474W        W33899  31.905  17.255   4.630
61475W        W33900  23.158  35.489   0.408
61476W        W33901  11.337  39.029   2.894
61477W        W33902  27.625   2.931  14.466
61478W        W33903  41.328  26.475  11.450
61479W        W33904   5.889  15.244  12.571
61480W        W33905  32.406  24.194  10.614
61481W        W33906   6.278   8.797  12.433
61482W        W33907  26.170  41.875  13.059
61483W        W33908  44.313   7.749   3.178
61484W        W33909  19.711  32.493  14.458
61485W        W33910  19.125  24.512  13.504
61486W        W33911   0.972  32.471   0.943
61487W        W33912  30.984   0.454  11.871
61488W        W33913  27.522  44.296   2.303
61489W        W33914  11.815   9.819  13.511
61490W        W33915  26.203  12.323   3.841
61491W        W33916  44.481  10.144  10.140
61492W        W33917  34.878  44.998  12.090
61493W        W33918  23.108  40.946   3.274
61494W        W33919  40.893  10.257   3.717
61495W        W33920  27.013  19.536  14.847
61496W        W33921  24.648  41.326  13.925
61497W        W33922  29.105  25.512  11.387
61498W        W33923  43.435   0.780  14.865
61499W        W33924   9.817   4.287   4.226
61500W        W33925   5.801  20.263  13.468
61501W        W33926  14.620  34.475  14.765
61502W        W33927  40.033  30.938  14.854
61503W        W33928  12.693  44.805   2.770
61504W        W33929  17.135   8.881  11.028
61505W        W33930  28.954  24.711  10.546
61506W        W33931  39.505  44.421   5.255
61507W        W33932  10.819  29.031  13.014
61508W        W33933   4.902   0.312   2.183
61509W        W33934  38.034  10.258   0.770
61510W        W33935  26.680   8.654  14.302
61511W        W33936  36.967  21.214   1.740
61512W        W33937  22.074  27.104   1.780
61513W        W33938  38.030  35.916   3.783
61514W        W33939  42.006  44.931   2.708
61515W        W33940  30.631  43.899   1.747
61516W        W33941  40.849  38.569   0.296
61517W        W33942  24.124   5.810  11.868
61518W        W33943  22.995   7.328   4.719
61519W        W33944  43.442  17.747   3.800
61520W        W33945   9.803  41.979  13.014
61521W        W33946  26.181  22.158  13.394
61522W        W33947  28.115  23.585   1.735
61523W        W33948  28.654   2.330   0.281
61524W        W33949  42.854  25.979  13.539
61525W        W33950   1.791   7.171   3.311
61526W        W33951  28.060  31.958   5.309
61527W        W33952  23.114  15.318   1.286
61528W        W33953  21.193   2.920  13.307
61529W        W33954  36.471  21.544  14.328
61530W        W33955  43.272   8.219   2.832
61531W        W33956  41.426   6.358   3.221
61532W        W33957  41.385  14.103  11.442
61533W        W33958  23.126  42.505  10.907
61534W        W33959  43.482  38.050  11.047
61535W        W33960  15.638  42.413  13.445
61536W        W33961  33.122  13.244   4.820
61537W        W33962  17.728  21.057   3.700
61538W        W33963  24.099  11.132  10.129
61539W        W33964  15.735  38.052  13.982
61540W        W33965  20.090  42.950   3.846
61541W        W33966  12.852  31.919  14.838
61542W        W33967  25.164  42.517   3.160
61543W        W33968   2.835  27.674  11.586
61544W        W33969  29.057   4.406  12.348
61545W        W33970  14.330  27.494  10.472
61546W        W33971  25.595  28.030  13.404
61547W        W33972  44.894  34.534  12.008
61548W        W33973   4.917  33.444   1.338
61549W        W33974  34.420  33.994  10.482
61550W        W33975   5.866  10.634   2.823
61551W        W33976  11.289   3.433   2.188
61552W        W33977   7.908  40.391  11.099
61553W        W33978  12.661  19.713   0.298
61554W        W33979  26.650  22.736  12.396
61555W        W33980  29.147  11.821  14.889
61556W        W33981  39.885   4.920   4.273
61557W        W33982  15.108   5.802   1.430
61558W        W33983   2.787   2.316  12.926
61559W        W33984   5.285   7.204  13.832
61560W        W33985  26.066  11.821   3.814
61561W        W33986   7.372   9.273   4.793
61562W        W33987  43.891   2.458   4.317
61563W        W33988  32.510  35.945   3.818
61564W        W33989   8.200   0.488   3.773
61565W        W33990  32.511  38.449  14.796
61566W        W33991  39.853  37.481   3.744
61567W        W33992   1.306  41.950  14.475
61568W        W33993  27.104  34.908   2.196
61569W        W33994  25.478  19.583   1.332
61570W        W33995  42.820  16.781   2.688
61571W        W33996  11.743  44.008   1.256
61572W        W33997  25.080  34.493  11.486
61573W        W33998  14.770  42.818  14.907
61574W        W33999  11.790   5.884  10.146
61575W        W34000  28.953   3.328   4.664
61576W        W34001   2.447  19.269   0.904
61577W        W34002  33.984  31.559  14.794
61578W        W34003  22.664  40.371   2.283
61579W        W34004   2.278   4.812   2.665
61580W        W34005  10.690  12.251   1.366
61581W        W34006  39.037  15.757  12.387
61582W        W34007  21.515  22.745  10.422
61583W        W34008  18.195  26.114   1.907
61584W        W34009  41.869  31.613   1.752
61585W        W34010  33.384  31.524  14.877
61586W        W34011  15.245  35.010   0.892
61587W        W34012  14.154  41.524   4.250
61588W        W34013  35.596  28.167   0.736
61589W        W34014  16.751  20.173  14.283
61590W        W34015  33.614  29.520   3.332
61591W        W34016  18.702   0.775   3.820
61592W        W34017  10.202   3.812  12.523
61593W        W34018  12.686  16.141   0.795
61594W        W34019  25.002  19.600   4.643
61595W        W34020  28.510  33.118  11.541
61596W        W34021  17.692  44.813   3.365
61597W        W34022  43.792   1.436  11.100
61598W        W34023  28.963  17.560  13.383
61599W        W34024  41.326  31.958  14.433
61600W        W34025  17.240   9.703   2.292
61601W        W34026   0.355  13.663  10.974
61602W        W34027  41.825  10.352   4.737
61603W        W34028  40.404  26.564   0.786
61604W        W34029  23.649  12.731  10.625
61605W        W34030   7.328  28.520   2.316
61606W        W34031  24.591  36.982   1.745
61607W        W34032   6.911  32.545   4.246
61608W        W34033  28.955  43.448  13.521
61609W        W34034  29.124  39.325   2.686
61610W        W34035   7.202   2.958   1.239
61611W        W34036  30.976  32.491   3.368
61612W        W34037   3.346  33.383   3.720
61613W        W34038  23.160  10.737  12.088
61614W        W34039  43.336  21.672   4.668
61615W        W34040  29.983  12.731   0.378
61616W        W34041   7.256  28.153  10.979
61617W        W34042   5.914  18.578  14.293
61618W        W34043  16.667  43.337   0.341
61619W        W34044  41.339  42.428  10.105
61620W        W34045  37.346  14.640   1.863
61621W        W34046  15.672   3.761  11.906
61622W        W34047  11.622  26.667   1.932
61623W        W34048   6.357   3.266   1.271
61624W        W34049   7.765  33.977   4.629
61625W        W34050  23.659  32.441  12.872
61626W        W34051  18.676  42.003  11.450
61627W        W34052  24.514  25.105  13.958
61628W        W34053  25.134  19.761  12.512
61629W        W34054  28.072  29.026   1.347
61630W        W34055  43.874  32.038   2.876
61631W        W34056  35.366  35.493   0.852
61632W        W34057  11.345  29.464  12.387
61633W        W34058  30.462  12.267  11.484
61634W        W34059  32.518  14.132  13.317
61635W        W34060  34.037   0.404   4.832
61636W        W34061  36.559  11.808  11.551
61637W        W34062  25.627  35.389   1.216
61638W        W34063  12.266  27.617  11.587
61639W        W34064  36.938  25.542  12.840
61640W        W34065  24.147   1.305  13.535
61641W        W34066  19.560  25.992  14.015
61642W        W34067  18.284  38.822   0.933
61643W        W34068  35.575   7.244  13.959
61644W        W34069   7.411  36.055  10.497
61645W        W34070  27.105  15.761   0.893
61646W        W34071  27.991   3.240   1.401
61647W        W34072   2.256  36.906   1.840
61648W        W34073  18.244  40.512   2.312
61649W        W34074  35.991  10.206  13.027
61650W        W34075  21.706  38.458   0.874
61651W        W34076  17.216  16.645  14.473
61652W        W34077  24.176  41.843  11.530
61653W        W34078  11.680  40.840   3.809
61654W        W34079  35.440   7.206   0.928
61655W        W34080  20.047   0.361   1.909
61656W        W34081  10.854  36.984   3.339
61657W        W34082  34.119   2.924  11.082
61658W        W34083  28.098  30.033  11.464
61659W        W34084  18.563  32.420   0.451
61660W        W34085  39.389   5.763   1.925
61661W        W34086   0.467  10.331   1.782
61662W        W34087  10.702  38.981   0.862
61663W        W34088   7.886  39.866   1.867
61664W        W34089  11.693  35.950   0.443
61665W        W34090  16.166  11.225   1.416
61666W        W34091  34.515  39.051  13.987
61667W        W34092  17.257  23.653   2.401
61668W        W34093  22.137   0.779   1.421
61669W        W34094  30.931  42.876   2.772
61670W        W34095  44.270  44.890  14.516
61671W        W34096  35.873   4.728   2.702
61672W        W34097  29.069  25.531  14.762
61673W        W34098  41.891   2.270   0.390
61674W        W34099  28.148  37.983  12.088
61675W        W34100  23.063  43.318  11.021
61676W        W34101  42.852  22.514  14.277
61677W        W34102   4.331   5.388   4.280
61678W        W34103  22.144  10.706   0.307
61679W        W34104   8.403  27.020  14.398
61680W        W34105  24.561  19.079   0.848
61681W        W34106  27.095   9.722   3.827
61682W        W34107   1.415  19.711   4.205
61683W        W34108  36.357  44.903   2.194
61684W        W34109   5.267   4.400   2.833
61685W        W34110  43.425  22.140  11.928
61686W        W34111  20.218  35.934  13.860
61687W        W34112  35.883  27.596  14.494
61688W        W34113   0.885   2.280   1.342
61689W        W34114   5.198   0.404  14.367
61690W        W34115  33.007  35.528  13.408
61691W        W34116  40.534  18.555   1.446
61692W        W34117  28.602  18.160   3.278
61693W        W34118  39.497  41.891  12.911
61694W        W34119  17.732   5.346   1.773
61695W        W34120  29.088   3.441  12.442
61696W        W34121  38.048   6.774   0.787
61697W        W34122   6.411   3.371  12.393
61698W        W34123  11.851  26.064   2.672
61699W        W34124  43.774  27.544   1.753
61700W        W34125  41.821   0.285   3.652
61701W        W34126  16.635  13.194  11.932
61702W        W34127   5.193  38.986  14.852
61703W        W34128  16.590  10.731  13.967
61704W        W34129  20.624  41.892  13.491
61705W        W34130  14.307  41.468  12.045
61706W        W34131   7.728  20.713   2.870
61707W        W34132  36.866  22.151   5.278
61708W        W34133  36.871  29.151   1.921
61709W        W34134  44.358  28.985   2.790
61710W        W34135  15.802  38.464  11.429
61711W        W34136  31.908   6.708  13.436
61712W        W34137   1.251   2.244   4.760
61713W        W34138  19.051  32.018  10.554
61714W        W34139   5.264  10.349  10.910
61715W        W34140  18.568   6.682   3.642
61716W        W34141  34.611  23.094  10.607
61717W        W34142  24.195   5.829  13.971
61718W        W34143  39.985  40.839   1.347
61719W        W34144  43.343  14.121  14.372
61720W        W34145  39.847   0.781  13.053
61721W        W34146  34.040   1.904   0.245
61722W        W34147  31.056  38.929   0.748
61723W        W34148  24.070  36.525  11.966
61724W        W34149  21.018   9.275   2.276
61725W        W34150  36.993  42.964  14.391
61726W        W34151  19.115   8.230  12.854
61727W        W34152   8.312  14.138   5.227
61728W        W34153  20.532   5.853   4.157
61729W        W34154  29.951  23.497   0.396
61730W        W34155  13.342  12.776  14.471
61731W        W34156  14.219  24.118   4.821
61732W        W34157  37.994  27.468  11.398
61733W        W34158  17.596  21.256  14.913
61734W        W34159  40.312  14.699   4.621
61735W        W34160   3.771   2.372   1.400
61736W        W34161  38.461  35.961  14.276
61737W        W34162  21.232  13.178   0.359
61738W        W34163  37.853  15.737  12.990
61739W        W34164   1.352  42.817  14.915
61740W        W34165  17.770  32.953   4.652
61741W        W34166  43.452  42.792   0.744
61742W        W34167   2.874  15.247  11.545
61743W        W34168   7.817  41.312   0.337
61744W        W34169  33.465  44.929  12.378
61745W        W34170  39.386  42.989   2.754
61746W        W34171   0.434   3.753   0.455
61747W        W34172  39.375   0.872  11.917
61748W        W34173  30.604  13.295   1.382
61749W        W34174   4.294   5.871   0.429
61750W        W34175   5.221  25.694  14.937
61751W        W34176  36.056  20.571   2.402
61752W        W34177   4.325  34.598   0.962
61753W        W34178   4.347  32.430  13.410
61754W        W34179  37.581  13.772  11.386
61755W        W34180  30.932  18.204   0.328
61756W        W34181  14.757  30.539  13.543
61757W        W34182  12.649  43.280  12.057
61758W        W34183  12.200  38.023   3.832
61759W        W34184   3.446  12.142   2.343
61760W        W34185  22.118  32.406   4.193
61761W        W34186  39.321  19.076   3.223
61762W        W34187  20.264  33.891   1.913
61763W        W34188   1.786  15.702   3.282
61764W        W34189  43.982   7.903   2.308
61765W        W34190  40.502  18.709   3.803
61766W        W34191  36.019  14.701  12.070
61767W        W34192  26.173  31.466   4.161
61768W        W34193  39.029  26.509  12.516
61769W        W34194  43.003  23.213   3.843
61770W        W34195  36.842  14.775  12.885
61771W        W34196  32.971  24.664   0.316
61772W        W34197   8.704  41.495  10.588
61773W        W34198  37.487  21.196  13.950
61774W        W34199  36.054  38.457  12.399
61775W        W34200  31.912   4.881   4.787
61776W        W34201  24.091   5.400  14.281
61777W        W34202  43.955  24.143  11.574
61778W        W34203  23.726  22.212  11.049
61779W        W34204  13.680  28.452   3.239
61780W        W34205   4.401  41.468  14.907
61781W        W34206   4.382  16.770   1.908
61782W        W34207  17.227   2.328  14.924
61783W        W34208  16.757   1.857   5.584
61784W        W34209  14.103   9.224   1.246
61785W        W34210  13.321  14.278  12.946
61786W        W34211   8.196   4.240  11.910
61787W        W34212  11.177   9.289  13.535
61788W        W34213  13.319  39.874  14.768
61789W        W34214  42.489  40.376   3.757
61790W        W34215  29.064  33.109   1.924
61791W        W34216  35.921   8.717   1.711
61792W        W34217  36.510  33.405   3.760
61793W        W34218   0.278  27.147   3.238
61794W        W34219  24.064  22.249   1.348
61795W        W34220   6.851   1.263   2.376
61796W        W34221  32.032  11.199  11.033
61797W        W34222   4.363  11.324  13.050
61798W        W34223   7.360  24.168  12.954
61799W        W34224  14.156  25.188   4.176
61800W        W34225  24.493  27.060   3.190
61801W        W34226   8.356  16.605   1.329
61802W        W34227  18.711  25.039   3.784
61803W        W34228  25.509   0.925  12.943
61804W        W34229  31.094  12.229  12.992
61805W        W34230  27.159  25.170   4.143
61806W        W34231  36.887   6.297  14.776
61807W        W34232   8.697  34.866  11.470
61808W        W34233  18.274  33.416   4.703
61809W        W34234   0.482   5.294   0.359
61810W        W34235  17.253  28.111   2.269
61811W        W34236  44.831  15.805  11.919
61812W        W34237   2.764   6.348   4.229
61813W        W34238   6.303  10.842  14.006
61814W        W34239   3.327  10.715   2.695
61815W        W34240  12.162  33.007   1.338
61816W        W34241   0.429  13.247  11.424
61817W        W34242   8.210   4.327  12.441
61818W        W34243   2.453  41.795   2.743
61819W        W34244  19.152  15.817  10.053
61820W        W34245  18.781   7.317   1.391
61821W        W34246  36.883  17.800   0.251
61822W        W34247  40.812   1.866   0.298
61823W        W34248  30.934  26.143   2.245
61824W        W34249  22.711  28.067  12.442
61825W        W34250  38.963  24.206  14.390
61826W        W34251  10.683  13.171   4.835
61827W        W34252   7.759  13.194   4.332
61828W        W34253  20.206  20.757  14.411
61829W        W34254   7.358  28.546   4.329
61830W        W34255  11.239  10.319   2.358
61831W        W34256  36.918  10.806   4.676
61832W        W34257  11.729  15.285   2.290
61833W        W34258  15.218  15.197   0.745
61834W        W34259  42.812  20.715  12.070
61835W        W34260  38.071   5.688  10.043
61836W        W34261  40.548  34.944   2.710
61837W        W34262  17.667  26.685  14.292
61838W        W34263  11.287  15.311  10.579
61839W        W34264  26.082  28.629  11.387
61840W        W34265  22.687  36.964  11.044
61841W        W34266   2.800  10.380   1.760
61842W        W34267  40.487  42.498   2.415
61843W        W34268  29.460   4.943  12.888
61844W        W34269  14.665  22.641  13.030
61845W        W34270   3.402  23.623  10.411
61846W        W34271  26.619  10.225  11.492
61847W        W34272  31.574  24.212  12.880
61848W        W34273  26.085  38.910  14.434
61849W        W34274   1.255   0.270   1.370
61850W        W34275  12.674  36.060   0.372
61851W        W34276  14.712   0.925   1.807
61852W        W34277   0.966  28.593  12.057
61853W        W34278  29.489   1.916  11.573
61854W        W34279  18.642  11.833  13.847
61855W        W34280  12.707  33.007  14.019
61856W        W34281  42.002  25.976  12.870
61857W        W34282  29.150   1.359  10.428
61858W        W34283  37.550  37.938  14.462
61859W        W34284  24.001  28.627   2.788
61860W        W34285  30.535  11.840   4.762
61861W        W34286   2.358   9.337  10.510
61862W        W34287  24.209  13.229  12.926
61863W        W34288  11.369  21.242  10.541
61864W        W34289  38.488  44.999   5.673
61865W        W34290  11.186  25.023   3.680
61866W        W34291  26.682  13.764  10.575
61867W        W34292  42.829  34.385   3.736
61868W        W34293  12.327  22.576   9.617
61869W        W34294  17.166  23.651   1.900
61870W        W34295   6.376  17.171   1.777
61871W        W34296  13.146  17.801   4.249
61872W        W34297  36.520  25.680   5.798
61873W        W34298  24.213  39.043   4.762
61874W        W34299  16.607  33.512  11.123
61875W        W34300  29.462  27.192  11.513
61876W        W34301  33.875  38.568   0.400
61877W        W34302  17.609  36.054   1.373
61878W        W34303  25.143  11.327   4.206
61879W        W34304  44.924  30.093  13.973
61880W        W34305  15.823  42.471   4.838
61881W        W34306  15.736  32.412   4.661
61882W        W34307  34.486  41.804  13.817
61883W        W34308  31.556  18.643  10.097
61884W        W34309   2.757  20.668  12.017
61885W        W34310  25.517   8.359  13.833
61886W        W34311  20.223   8.745   2.275
61887W        W34312  29.616  43.939   0.441
61888W        W34313  24.606  34.560   3.837
61889W        W34314  20.676  21.712  14.393
61890W        W34315  26.025   9.689  10.953
61891W        W34316  15.724  31.449   1.885
61892W        W34317  31.056  14.107  14.003
61893W        W34318   2.937  30.067  10.437
61894W        W34319  37.559  38.852  11.501
61895W        W34320  23.031  29.078   1.708
61896W        W34321  20.123  21.065  13.959
61897W        W34322  10.776  21.173  12.960
61898W        W34323   3.821  14.258  11.011
61899W        W34324  16.640  36.392   0.362
61900W        W34325   5.903  17.582   3.339
61901W        W34326  30.596  36.061   2.678
61902W        W34327  19.641  42.525   0.946
61903W        W34328  24.123   4.940   4.133
61904W        W34329  14.182  29.558   4.680
61905W        W34330  25.691  39.057   3.675
61906W        W34331  28.065  43.479   9.959
61907W        W34332  18.733   0.370   4.706
61908W        W34333  26.550  23.037  14.990
61909W        W34334  30.421   7.323  14.770
61910W        W34335   7.708  25.048  12.869
61911W        W34336  43.957  40.337  14.380
61912W        W34337   7.797  15.143  13.958
61913W        W34338  25.507  32.405   3.849
61914W        W34339   1.853  44.806   3.357
61915W        W34340  14.184  35.962  10.125
61916W        W34341  14.811  17.211   9.995
61917W        W34342   2.461   7.778  14.761
61918W        W34343  40.437   9.806   3.711
61919W        W34344   4.763  12.827   1.924
61920W        W34345  30.619  38.511  11.935
61921W        W34346  21.692  44.356   0.300
61922W        W34347  29.544  28.653  10.994
61923W        W34348  35.108   4.816  14.960
61924W        W34349  26.026  12.737   0.458
61925W        W34350  42.986  25.169   3.720
61926W        W34351  40.382  39.808   3.316
61927W        W34352  34.901  11.728  13.969
61928W        W34353  25.113  24.503   2.814
61929W        W34354  33.027  30.978   0.794
61930W        W34355  42.947   8.293   0.868
61931W        W34356  31.551   1.752   4.145
61932W        W34357   1.416  30.128   4.690
61933W        W34358  34.522  21.653   1.366
61934W        W34359   2.882  40.426  14.006
61935W        W34360  42.906  43.345   0.898
61936W        W34361  17.142  10.204  14.307
61937W        W34362  11.230  32.092  13.362
61938W        W34363  38.030   3.292  13.976
61939W        W34364   2.748  11.651   2.388
61940W        W34365  13.287  30.565   4.242
61941W        W34366  38.403  17.767   3.342
61942W        W34367  30.110  41.503   0.391
61943W        W34368  38.342  42.504   3.153
61944W        W34369  23.537  38.329   4.192
61945W        W34370  21.222  20.181   0.445
61946W        W34371  36.855  44.289  14.410
61947W        W34372  16.708  36.382  12.882
61948W        W34373  25.558  14.269  13.533
61949W        W34374  15.772  22.615  12.506
61950W        W34375  36.053  37.405   4.275
61951W        W34376  32.080   0.875   5.249
61952W        W34377   0.954  40.331   5.105
61953W        W34378  10.698  33.953  11.424
61954W        W34379  21.208   2.776   0.828
61955W        W34380  26.615   3.391  14.475
61956W        W34381   1.424  35.458   1.855
61957W        W34382  17.648  36.906  14.379
61958W        W34383   4.849  15.727   5.138
61959W        W34384  35.589  14.146   4.669
61960W        W34385  41.924  25.143  11.010
61961W        W34386  13.199  10.324   3.699
61962W        W34387  25.672  39.825   2.889
61963W        W34388   0.464   9.810   1.436
61964W        W34389  43.321   1.920   2.266
61965W        W34390  27.632  43.887   3.306
61966W        W34391  29.514  44.435  10.577
61967W        W34392  15.106  18.677   0.427
61968W        W34393  20.658   2.772   1.915
61969W        W34394  35.491  40.837  11.961
61970W        W34395  35.441  19.751  13.548
61971W        W34396  13.697  15.280   4.811
61972W        W34397  29.444   1.305   3.769
61973W        W34398  33.581  26.061  11.452
61974W        W34399  18.265  40.387  12.498
61975W        W34400   1.441  17.263  13.540
61976W        W34401   8.287  36.906  12.364
61977W        W34402   6.681   5.929  13.456
61978W        W34403   5.704  31.106   0.299
61979W        W34404  44.475  23.070   0.381
61980W        W34405  36.871  24.130   1.930
61981W        W34406  32.939  34.947  11.463
61982W        W34407  15.693   4.940   1.773
61983W        W34408   6.868  24.069   0.353
61984W        W34409  37.846   4.304   1.921
61985W        W34410  38.568   3.306   0.802
61986W        W34411  11.701  24.092   4.763
61987W        W34412  38.838  10.735  14.798
61988W        W34413  11.855   8.857  14.972
61989W        W34414  20.706  42.794   2.275
61990W        W34415  40.034  29.940  14.887
61991W        W34416  20.032  35.547   0.731
61992W        W34417  24.568  41.429   2.679
61993W        W34418   0.946  17.217   1.283
61994W        W34419  28.062   4.757  12.878
61995W        W34420  22.138  27.690   0.419
61996W        W34421  25.700  42.828   4.778
61997W        W34422  32.393  32.092  10.551
61998W        W34423   1.369   2.954  14.371
61999W        W34424  28.001  22.580   3.683
62000W        W34425  10.147  38.926  14.277
62001W        W34426  36.879  31.974   5.099
62002W        W34427   8.174  42.952  12.431
62003W        W34428   0.832  39.038   4.633
62004W        W34429  32.940  42.970  13.791
62005W        W34430   3.771   2.758   1.758
62006W        W34431   0.926  10.220  12.421
62007W        W34432  12.650  10.864  13.315
62008W        W34433  29.546  25.647   1.322
62009W        W34434  33.408   4.393   5.121
62010W        W34435  15.750  22.693   2.781
62011W        W34436   3.794  44.821   1.283
62012W        W34437  20.268  36.893  10.981
62013W        W34438   7.194  37.420  13.917
62014W        W34439  40.899  30.565   4.221
62015W        W34440  44.879  38.913  14.480
62016W        W34441  28.971   4.795   0.377
62017W        W34442  19.266  37.893  13.464
62018W        W34443   7.275  18.289   4.767
62019W        W34444  12.676   6.788   1.798
62020W        W34445  17.788  23.047   2.203
62021W        W34446   2.950  13.604  11.883
62022W        W34447  19.653  20.711  11.604
62023W        W34448  39.019  39.525   9.995
62024W        W34449   1.464  29.450   0.876
62025W        W34450  28.575  25.624   1.413
62026W        W34451  17.677  18.149  11.958
62027W        W34452   8.207  23.188  10.900
62028W        W34453  26.535   9.773   0.442
62029W        W34454  28.659  10.249   3.302
62030W        W34455   8.799  23.109   3.815
62031W        W34456  41.803  19.046   2.885
62032W        W34457  28.569  33.602   5.575
62033W        W34458  33.474   3.721  13.546
62034W        W34459  22.507  42.374   3.322
62035W        W34460  22.160  38.897   3.155
62036W        W34461  14.321  13.702   0.434
62037W        W34462  44.915  30.531  10.582
62038W        W34463  17.777  20.660   0.311
62039W        W34464   4.873  26.572   4.685
62040W        W34465  14.127  28.135  10.514
62041W        W34466  42.782  42.286   0.339
62042W        W34467  33.107   6.300   0.329
62043W        W34468  12.853  23.535   2.781
62044W        W34469  30.093   2.827   2.400
62045W        W34470  38.930  23.494  14.371
62046W        W34471   4.334  40.052  12.948
62047W        W34472  16.280  23.630  13.410
62048W        W34473  21.098   3.741  12.865
62049W        W34474  24.212  32.395   2.870
62050W        W34475   9.377   2.908  14.290
62051W        W34476   0.418  39.908  10.552
62052W        W34477  25.109   9.293  13.317
62053W        W34478   0.933  28.104   1.748
62054W        W34479  42.779  33.074  11.127
62055W        W34480  44.266  40.022  10.986
62056W        W34481   9.188  13.308   4.820
62057W        W34482  29.144  33.905   1.749
62058W        W34483  11.800  17.277  12.025
62059W        W34484  26.658  31.081  10.106
62060W        W34485  20.699  27.590  12.382
62061W        W34486   2.348  31.532  14.356
62062W        W34487  41.873  12.735  13.987
62063W        W34488  43.797  39.847  12.361
62064W        W34489  21.190   8.205  12.534
62065W        W34490  32.545  43.305   4.232
62066W        W34491  43.845  37.843   0.726
62067W        W34492   7.807  27.196  11.571
62068W        W34493  13.226  22.018  11.994
62069W        W34494  35.588  40.913  13.872
62070W        W34495  30.505   1.435   3.858
62071W        W34496  10.769   9.364   1.930
62072W        W34497  14.304  43.384   3.796
62073W        W34498   8.706  23.556   3.197
62074W        W34499  20.757   4.737   3.227
62075W        W34500  23.134  38.479   1.868
62076W        W34501  34.000  19.124   0.884
62077W        W34502  30.015  28.482  13.354
62078W        W34503   8.342  39.926   3.812
62079W        W34504  40.477   8.183  11.393
62080W        W34505  43.350   9.292  11.054
62081W        W34506  19.181  23.210  11.608
62082W        W34507  27.129  26.978   3.201
62083W        W34508  27.640   7.338  10.486
62084W        W34509  28.007  16.616   3.867
62085W        W34510  37.551  17.108   2.221
62086W        W34511  43.372  29.108   5.170
62087W        W34512   3.855  33.113  14.461
62088W        W34513   5.718  36.982  11.521
62089W        W34514   1.824  19.219  14.509
62090W        W34515  42.950  13.201  14.960
62091W        W34516  44.264  24.682  13.826
62092W        W34517  12.180  25.017   1.211
62093W        W34518  28.515   8.824   3.666
62094W        W34519  43.444   6.761   4.225
62095W        W34520  37.892  40.443   0.480
62096W        W34521   9.367  38.534   0.306
62097W        W34522  14.328  26.573  11.892
62098W        W34523  40.012  23.174   4.781
62099W        W34524  36.003   7.687  10.499
62100W        W34525   7.738  39.373   0.870
62101W        W34526   9.842  19.163  10.620
62102W        W34527   3.352  29.485   4.295
62103W        W34528  12.805  35.102   1.916
62104W        W34529   1.469  18.596  14.985
62105W        W34530  23.134  16.676   1.757
62106W        W34531  38.383  12.664  14.886
62107W        W34532  12.803  15.679   5.264
62108W        W34533  33.480   8.781   1.795
62109W        W34534  21.590  22.193   1.432
62110W        W34535   9.718  44.424   1.440
62111W        W34536  34.534  22.688  14.777
62112W        W34537  13.630  20.692   0.242
62113W        W34538  15.593  37.984  13.015
62114W        W34539  19.235  20.078  14.422
62115W        W34540  36.028  15.266   4.685
62116W        W34541  36.853  25.659   1.768
62117W        W34542  11.323  23.187   1.741
62118W        W34543  10.149  28.116  13.377
62119W        W34544  11.665  24.117  12.535
62120W        W34545  39.517  36.584   4.798
62121W        W34546   8.363  19.125   4.263
62122W        W34547   6.831  36.041  11.983
62123W        W34548   0.348   0.260   1.917
62124W        W34549   7.864  35.600  10.989
62125W        W34550  30.068   3.366  11.005
62126W        W34551  19.072  19.744  11.105
62127W        W34552  31.451  13.749  11.076
62128W        W34553  23.235  24.083   3.332
62129W        W34554  23.071  36.056   1.408
62130W        W34555  32.951  25.699  13.849
62131W        W34556   8.315  17.193  11.072
62132W        W34557  13.729  33.562  14.924
62133W        W34558  41.043  44.806   3.180
62134W        W34559  27.549  34.579  13.805
62135W        W34560  37.087  43.009  13.823
62136W        W34561  37.846  22.163   5.243
62137W        W34562  44.282   3.888   3.737
62138W        W34563  43.841  42.018  11.064
62139W        W34564  26.140  25.181   3.354
62140W        W34565  36.359  34.108  13.327
62141W        W34566  10.360  19.218  13.949
62142W        W34567  12.260   7.205  12.890
62143W        W34568  27.135  21.743   4.314
62144W        W34569  24.166  27.020  13.867
62145W        W34570   9.678  41.391   2.836
62146W        W34571  41.460  20.757   1.766
62147W        W34572  18.784  31.483   0.913
62148W        W34573  25.068  21.159  13.975
62149W        W34574  29.059  33.026  12.398
62150W        W34575   5.322   4.879  10.931
62151W        W34576  12.622  16.107  13.877
62152W        W34577   5.869   3.232  12.468
62153W        W34578  44.971  10.342   0.961
62154W        W34579  32.078  30.072   3.695
62155W        W34580  21.087   4.720  11.464
62156W        W34581  43.968  35.906  10.964
62157W        W34582  32.899  10.770   2.833
62158W        W34583  31.607  40.955   0.843
62159W        W34584   8.658  42.475  14.770
62160W        W34585  37.522   0.790   2.183
62161W        W34586   6.293  29.620  11.529
62162W        W34587  42.996  32.510   3.814
62163W        W34588  15.114   7.680  12.887
62164W        W34589  24.103  21.673   0.391
62165W        W34590   1.254  33.974  11.569
62166W        W34591  25.478  30.561   0.381
62167W        W34592  20.160  18.108  10.117
62168W        W34593  43.464  10.721  12.553
62169W        W34594   6.426  11.639  10.463
62170W        W34595  39.028  21.217  12.525
62171W        W34596   7.275  16.174   1.792
62172W        W34597   4.720  32.566  11.027
62173W        W34598  35.357  43.765  14.481
62174W        W34599   8.698  22.012   1.443
62175W        W34600  10.144  33.041  12.470
62176W        W34601   9.785  13.218  14.824
62177W        W34602  18.111  11.856   2.257
62178W        W34603   5.764  19.631   3.665
62179W        W34604  18.155  22.157  12.364
62180W        W34605  13.277  44.759  13.926
62181W        W34606   2.374  22.539   9.977
62182W        W34607  20.745  39.462   0.819
62183W        W34608  30.413  25.021  13.405
62184W        W34609   7.839   6.233   5.161
62185W        W34610  36.439  13.737  13.883
62186W        W34611  31.939  11.132   0.254
62187W        W34612   4.385  32.584  13.998
62188W        W34613  32.488  13.619  11.483
62189W        W34614   7.691  16.597   1.381
62190W        W34615   0.874  13.778  10.491
62191W        W34616   0.318  23.681   0.763
62192W        W34617  37.976  36.392   4.240
62193W        W34618   1.354  37.469   3.330
62194W        W34619  23.206   2.781  14.415
62195W        W34620  26.991  22.063   1.277
62196W        W34621  44.891  27.956   2.377
62197W        W34622  32.481  39.450  13.468
62198W        W34623  11.836  13.611   1.718
62199W        W34624  32.431  20.273  13.909
62200W        W34625  44.353   9.344   0.354
62201W        W34626  20.240   4.845   0.885
62202W        W34627  14.636  43.968   3.283
62203W        W34628   4.345   0.764  13.459
62204W        W34629  39.906  32.121   4.650
62205W        W34630  25.092  40.920   0.313
62206W        W34631  20.159   3.372   2.301
62207W        W34632  43.438  38.945  12.918
62208W        W34633  36.418  44.965  11.425
62209W        W34634  16.584  23.210   2.257
62210W        W34635  36.548  29.485   0.249
62211W        W34636  12.304  16.220  13.895
62212W        W34637   8.175  25.970  10.896
62213W        W34638   0.807   9.153   4.713
62214W        W34639  20.582  27.462   1.868
62215W        W34640  22.231  44.834  14.498
62216W        W34641  14.621  38.071   1.831
62217W        W34642  29.942  21.684   0.823
62218W        W34643  33.526  26.978   0.796
62219W        W34644  19.192  30.501  13.004
62220W        W34645  17.739  30.591   1.786
62221W        W34646  16.147  23.048  10.894
62222W        W34647  19.577  43.949  12.937
62223W        W34648   4.817  29.042   0.422
62224W        W34649  15.155  23.192   4.339
62225W        W34650  13.126  32.069   1.313
62226W        W34651  44.350  31.998  12.050
62227W        W34652  17.621  42.985   3.663
62228W        W34653  36.891  29.468  11.459
62229W        W34654  30.017   7.687   2.275
62230W        W34655  43.508   6.187  12.882
62231W        W34656   5.392  12.743  13.003
62232W        W34657   5.384  33.612   2.380
62233W        W34658   1.759  43.003   0.375
62234W        W34659  44.887  30.461  13.329
62235W        W34660  21.169  28.621   3.772
62236W        W34661   1.858  34.592  13.834
62237W        W34662  34.613  24.617  11.095
62238W        W34663  41.954  43.495   0.358
62239W        W34664  32.081   2.386   3.148
62240W        W34665  28.052  20.661  12.040
62241W        W34666  43.417  14.816  14.304
62242W        W34667  30.647  27.519  12.033
62243W        W34668  13.613  39.983   4.700
62244W        W34669  28.174  39.052  12.502
62245W        W34670  33.625  17.117   5.156
62246W        W34671  18.156  13.741  10.909
62247W        W34672  44.259  22.602  12.026
62248W        W34673  27.051  44.872  11.586
62249W        W34674  22.231   4.702   4.779
62250W        W34675  41.347  44.986   0.408
62251W        W34676  12.725  10.778  12.883
62252W        W34677  43.859   5.327  10.480
62253W        W34678  14.811   7.242   4.700
62254W        W34679  44.502  20.548   1.827
62255W        W34680  23.075   5.866  10.894
62256W        W34681   3.259  22.178  13.448
62257W        W34682  28.085  26.157   4.702
62258W        W34683  38.451  25.575   9.594
62259W        W34684  19.714  17.717   3.341
62260W        W34685  22.731  35.097   4.227
62261W        W34686  22.187  23.045   0.472
62262W        W34687  28.557   0.886  13.953
62263W        W34688   9.748   6.891   1.373
62264W        W34689  24.983  15.722   3.868
62265W        W34690  40.799   4.857   3.769
62266W        W34691   3.224  37.472   2.767
62267W        W34692  33.580  34.087  12.970
62268W        W34693  16.166   7.890   1.434
62269W        W34694  24.667  41.997   2.262
62270W        W34695  12.279  15.301   4.212
62271W        W34696  17.153  26.956  13.367
62272W        W34697  17.157  35.399  10.608
62273W        W34698  29.063  38.331   0.827
62274W        W34699  16.195  23.102   4.809
62275W        W34700  42.014  42.853   0.869
62276W        W34701  19.639  14.752  11.589
62277W        W34702  37.029  36.919   4.758
62278W        W34703  25.106  44.488  13.922
62279W        W34704  44.806  38.948  13.862
62280W        W34705  25.480  21.077  13.410
62281W        W34706  41.843  38.980  12.026
62282W        W34707  12.850  44.972  14.916
62283W        W34708  11.245   7.719   4.740
62284W        W34709   9.734   0.851   1.917
62285W        W34710  35.872  27.982  11.462
62286W        W34711   9.264   2.767   2.182
62287W        W34712   3.779   3.749   1.292
62288W        W34713   1.941  11.730   0.425
62289W        W34714  36.430   7.804   4.686
62290W        W34715  10.303   7.754   2.702
62291W        W34716   4.757  40.546  10.587
62292W        W34717   7.910  30.502  10.494
62293W        W34718  11.694  18.199   0.802
62294W        W34719  27.546  38.031  14.837
62295W        W34720  18.091  23.225  13.472
62296W        W34721  12.352  30.010   4.726
62297W        W34722  32.979  12.764  12.571
62298W        W34723  28.629  20.539   2.359
62299W        W34724  44.354  42.333   1.433
62300W        W34725  32.557  20.247   3.702
62301W        W34726  18.130  44.988  14.496
62302W        W34727  42.300   8.220   3.319
62303W        W34728  42.823  26.538   4.825
62304W        W34729  31.550   8.859   1.761
62305W        W34730  35.538  30.020  14.358
62306W        W34731  27.504  28.078  14.326
62307W        W34732   4.900  27.940  10.448
62308W        W34733  20.250  29.006   0.812
62309W        W34734  23.074  10.198   3.779
62310W        W34735   9.845  38.489  14.972
62311W        W34736  41.911  44.365   2.245
62312W        W34737  18.141  28.938  14.408
62313W        W34738  15.083  25.040   2.235
62314W        W34739  16.078  33.461  10.568
62315W        W34740  26.664  25.525   5.169
62316W        W34741   5.767   4.859   2.758
62317W        W34742  27.077  14.644  14.806
62318W        W34743  24.991  37.072   4.237
62319W        W34744  41.527  12.145   3.383
62320W        W34745  39.016  24.184  12.449
62321W        W34746  28.140  21.754  12.932
62322W        W34747  18.640  23.620  10.046
62323W        W34748  33.029  44.399   0.859
62324W        W34749  16.787  12.206  13.029
62325W        W34750  26.135   7.859   3.753
62326W        W34751  42.934  31.933  10.074
62327W        W34752  35.077  44.353   4.610
62328W        W34753  40.007  43.316   2.292
62329W        W34754  38.992  34.545  10.417
62330W        W34755  18.584   8.810   2.362
62331W        W34756   3.320  31.119   2.208
62332W        W34757  21.621  13.105   3.199
62333W        W34758   3.834  40.808   2.694
62334W        W34759  24.696  25.533  13.038
62335W        W34760  24.522   6.279  12.432
62336W        W34761   8.678   5.391  10.062
62337W        W34762  42.967  25.505   3.154
62338W        W34763  10.366  43.958  10.051
62339W        W34764   2.750  10.243   4.140
62340W        W34765  28.449   2.239   3.197
62341W        W34766  32.549  10.733   1.833
62342W        W34767   1.413  44.983   4.665
62343W        W34768  20.715   9.380  14.974
62344W        W34769  34.001  30.065  10.608
62345W        W34770  15.279   7.206  11.526
62346W        W34771  41.528  28.941   0.286
62347W        W34772  21.535  17.559   4.223
62348W        W34773  36.067   3.713  11.493
62349W        W34774  38.956  31.425   3.235
62350W        W34775  29.144  30.107  14.977
62351W        W34776  18.221  35.055   2.362
62352W        W34777  17.178  28.965  12.080
62353W        W34778  20.681  30.563  13.877
62354W        W34779  14.699  18.654  11.426
62355W        W34780   1.278  33.893   0.269
62356W        W34781  33.000  23.510   1.321
62357W        W34782   3.769  15.744   2.345
62358W        W34783  28.048  26.552  12.469
62359W        W34784  11.327  15.293  14.505
62360W        W34785   1.332   9.883  13.826
62361W        W34786  28.595  39.511  12.885
62362W        W34787  39.828  41.447   4.670
62363W        W34788  35.972   3.250   3.323
62364W        W34789  24.672  29.543  14.010
62365W        W34790  22.575   2.822  11.576
62366W        W34791   7.357   3.280  10.454
62367W        W34792  35.095  39.414   3.209
62368W        W34793  15.669  16.296   2.257
62369W        W34794   4.850  43.297  10.459
62370W        W34795   3.254  39.549  10.947
62371W        W34796  20.765  38.849   2.788
62372W        W34797  25.569  44.470  12.989
62373W        W34798  10.152   6.769  14.372
62374W        W34799   7.840  31.448  13.910
62375W        W34800  28.538   5.863  12.355
62376W        W34801  12.824  28.076   0.448
62377W        W34802  11.305  18.753  11.900
62378W        W34803  43.800  28.101   4.340
62379W        W34804   3.386  28.004  11.493
62380W        W34805   1.455  44.391   0.312
62381W        W34806   0.343   0.788   2.849
62382W        W34807  23.733  21.688   4.774
62383W        W34808   7.359  15.284   1.876
62384W        W34809   8.207  22.674  10.948
62385W        W34810   1.440  27.972   4.268
62386W        W34811  25.089  25.524  11.452
62387W        W34812  35.474   5.869   0.418
62388W        W34813  29.999  36.069  12.988
62389W        W34814   1.364  44.452  12.931
62390W        W34815  18.567  34.982  11.084
62391W        W34816  26.579   8.255  14.934
62392W        W34817   1.954  44.965  11.009
62393W        W34818  38.856  28.573  11.445
62394W        W34819  33.966  27.073  14.497
62395W        W34820   5.401   8.406  14.932
62396W        W34821  38.544  20.224   0.400
62397W        W34822  37.421   1.352  14.990
62398W        W34823  33.065  33.590  12.565
62399W        W34824   4.264  36.047   3.742
62400W        W34825  22.735  17.232   4.122
62401W        W34826  17.237  20.604  14.395
62402W        W34827  28.576   8.191   2.238
62403W        W34828  39.020  29.656  14.788
62404W        W34829   1.294  41.007  11.498
62405W        W34830  42.014   2.463  12.071
62406W        W34831  22.099  24.545  11.611
62407W        W34832   8.226   7.742  12.914
62408W        W34833  26.170  14.254   0.812
62409W        W34834  15.251  34.452  11.108
62410W        W34835  40.421  14.224  10.590
62411W        W34836  30.089  32.956  10.420
62412W        W34837  18.181  29.969   4.780
62413W        W34838  11.713  29.452  11.113
62414W        W34839  30.159  22.714  12.562
62415W        W34840  31.932  24.499  12.091
62416W        W34841  41.351   2.460  13.404
62417W        W34842  27.520  30.927  11.515
62418W        W34843  19.682  25.156  13.898
62419W        W34844  20.525  26.687  12.060
62420W        W34845  11.298   7.360  11.060
62421W        W34846  20.526  16.217  11.415
62422W        W34847  38.959  20.111  11.394
62423W        W34848  35.396  32.014  10.560
62424W        W34849   2.407   6.904  11.023
62425W        W34850  32.460  15.326  12.079
62426W        W34851  22.125   9.251   1.301
62427W        W34852  44.813  38.891   4.602
62428W        W34853  19.062  16.175   4.672
62429W        W34854   8.775  21.048  12.970
62430W        W34855  31.011  27.077  11.931
62431W        W34856   5.270  25.510   4.293
62432W        W34857  16.239  37.513  13.462
62433W        W34858  40.836  21.032  11.057
62434W        W34859  32.912  36.025   1.237
62435W        W34860  21.082  42.304  13.362
62436W        W34861  19.281   5.329   1.695
62437W        W34862  44.980  35.862   4.159
62438W        W34863  21.559  32.589  10.430
62439W        W34864  40.483   0.872   3.309
62440W        W34865  40.466  38.345   3.867
62441W        W34866  20.723  38.916  12.854
62442W        W34867   5.819  22.182   1.763
62443W        W34868  40.314  26.068  12.437
62444W        W34869  41.493  43.416   4.770
62445W        W34870   9.192  43.932  10.454
62446W        W34871  16.109  32.899  13.857
62447W        W34872  18.676  38.548   1.361
62448W        W34873  23.133  41.493  13.834
62449W        W34874  34.035  39.848   1.238
62450W        W34875   4.917  37.459  10.511
62451W        W34876  39.496  41.423  12.518
62452W        W34877  35.977  23.002  11.078
62453W        W34878   1.472  31.066   4.720
62454W        W34879  28.654  15.621   2.418
62455W        W34880  25.078  42.377  13.811
62456W        W34881  38.009  21.207  14.811
62457W        W34882  34.920  23.534  11.459
62458W        W34883  42.366  16.109   4.352
62459W        W34884  12.837  15.773  13.807
62460W        W34885  23.052  17.123  14.823
62461W        W34886  23.553  21.228  12.376
62462W        W34887  10.687  36.061   2.821
62463W        W34888  44.442  21.091   4.286
62464W        W34889  35.064  10.774   0.850
62465W        W34890  40.407  33.911   3.768
62466W        W34891   9.848   3.778   0.471
62467W        W34892  16.173   1.282   1.837
62468W        W34893  30.919   0.781  10.029
62469W        W34894   1.958  13.785  13.447
62470W        W34895  11.154  26.479  13.803
62471W        W34896   0.345   2.907  14.372
62472W        W34897   6.792   9.278   3.169
62473W        W34898   4.216   3.333  11.904
62474W        W34899   5.192  19.546  10.638
62475W        W34900  44.462  30.049  10.439
62476W        W34901  38.903   9.268   2.759
62477W        W34902   7.858  41.452   3.714
62478W        W34903  32.997   4.844   0.304
62479W        W34904  10.866  25.643   2.816
62480W        W34905   1.829  42.956  12.860
62481W        W34906   9.702  37.523  13.388
62482W        W34907  32.121  36.412   1.703
62483W        W34908  10.855  42.799   0.258
62484W        W34909  26.086  33.886   1.695
62485W        W34910   3.792  36.419  13.831
62486W        W34911  44.305  26.679  10.040
62487W        W34912  29.109   8.813   0.265
62488W        W34913   6.862   4.944   3.849
62489W        W34914  10.814  44.406  10.976
62490W        W34915  26.090  22.577  11.452
62491W        W34916  30.555  19.045   4.267
62492W        W34917  30.010  36.421   3.347
62493W        W34918   8.837  33.618   4.263
62494W        W34919  33.403  26.623   9.920
62495W        W34920  16.150  14.109   1.214
62496W        W34921   9.225   2.386  12.952
62497W        W34922  14.320  14.604   2.862
62498W        W34923  15.723  22.231   5.168
62499W        W34924  19.268  16.193  12.892
62500W        W34925  27.531  32.489  14.351
62501W        W34926  34.881   3.312  13.406
62502W        W34927   0.288  28.022   2.205
62503W        W34928  12.689  42.973   4.192
62504W        W34929  35.894  17.229   3.317
62505W        W34930   3.258  24.054  13.495
62506W        W34931   7.387   6.682  10.530
62507W        W34932  32.476  33.550   4.791
62508W        W34933  10.251  35.016  10.413
62509W        W34934  10.383  33.891   2.855
62510W        W34935   4.868   2.312  14.465
62511W        W34936  24.156  28.495   1.911
62512W        W34937  35.413  37.835   0.387
62513W        W34938  28.477  27.627  14.799
62514W        W34939  20.106  38.384   1.796
62515W        W34940  43.995  19.539  14.420
62516W        W34941  33.441  16.681   5.592
62517W        W34942   7.894   8.298  12.553
62518W        W34943  36.449  20.141  10.972
62519W        W34944  39.062  24.594  14.487
62520W        W34945   7.236  38.341   4.116
62521W        W34946   5.291  32.634   1.366
62522W        W34947  24.688  18.614  12.528
62523W        W34948  30.958  31.918   2.233
62524W        W34949  33.625  15.108   0.933
62525W        W34950  42.966   2.945  12.522
62526W        W34951  24.102   6.196   1.888
62527W        W34952  32.995  24.481  14.020
62528W        W34953  11.623  13.607  11.078
62529W        W34954  29.175  44.321   4.668
62530W        W34955  27.959   5.929  11.429
62531W        W34956  24.721  26.650  11.864
62532W        W34957  30.967  14.774   3.867
62533W        W34958   1.955  39.377  14.031
62534W        W34959  28.030  43.918   0.748
62535W        W34960   8.308  20.152  10.457
62536W        W34961   0.250  13.719  14.396
62537W        W34962  41.520   5.371  10.418
62538W        W34963  41.853  21.076  12.031
62539W        W34964  39.345  24.081   2.359
62540W        W34965  35.106  22.513  14.830
62541W        W34966   5.933  36.359   9.584
62542W        W34967  12.786  29.460  11.975
62543W        W34968   9.879  22.069   2.827
62544W        W34969   0.462  20.592  12.460
62545W        W34970   3.279  40.373  11.050
62546W        W34971  41.403  37.374   1.701
62547W        W34972  44.762  15.228   0.827
62548W        W34973  27.096  30.498  11.988
62549W        W34974  12.140   6.852  11.488
62550W        W34975  31.923  43.405   4.162
62551W        W34976  30.949  40.978  13.312
62552W        W34977  14.661   2.944   2.715
62553W        W34978  16.615  12.750   0.373
62554W        W34979   0.392  44.462   2.261
62555W        W34980  18.662  11.223   4.276
62556W        W34981  31.904  29.531  12.476
62557W        W34982  12.276  15.248  12.429
62558W        W34983  18.694   7.821   0.246
62559W        W34984  31.597   0.749   0.274
62560W        W34985  18.745  10.844  14.351
62561W        W34986  18.076  40.859  10.477
62562W        W34987  11.786   8.753   2.410
62563W        W34988  33.391   3.814   2.259
62564W        W34989   0.796   0.487   2.244
62565W        W34990  15.764  43.308  14.376
62566W        W34991   2.282  11.686   3.289
62567W        W34992  21.677  21.620   0.317
62568W        W34993  34.101  15.685  11.012
62569W        W34994  16.576   9.274  12.038
62570W        W34995  15.606  25.677  12.502
62571W        W34996  37.487  32.014   1.265
62572W        W34997   7.762  41.430   3.358
62573W        W34998  40.827  15.324  14.489
62574W        W34999  41.302  32.627  12.840
62575W        W35000  13.292  27.667   2.283
62576W        W35001  23.560   2.394   2.224
62577W        W35002  16.716  30.971   0.789
62578W        W35003   5.321  22.627   3.184
62579W        W35004   4.811  33.098  10.135
62580W        W35005  10.181   0.841   4.785
62581W        W35006  10.812  39.356   2.220
62582W        W35007  40.350  15.720   1.211
62583W        W35008  31.641   3.232  13.808
62584W        W35009   1.389  25.626  10.490
62585W        W35010  41.309  23.197  13.450
62586W        W35011  44.494  24.485  11.042
62587W        W35012   6.707  44.947  10.614
62588W        W35013  39.545  23.129   3.295
62589W        W35014  17.251   9.832  11.604
62590W        W35015  22.723  30.912   1.370
62591W        W35016   7.354  35.525  13.499
62592W        W35017  42.323  39.850  14.899
62593W        W35018  18.567  34.997   5.104
62594W        W35019  11.645  41.038   0.746
62595W        W35020  31.469   9.791   4.828
62596W        W35021  19.612  29.455   3.252
62597W        W35022  21.054   4.760   1.822
62598W        W35023  32.518  33.583   2.343
62599W        W35024  13.187  41.793  11.081
62600W        W35025   3.813  36.541  10.421
62601W        W35026   0.468   8.719   0.452
62602W        W35027  39.513   9.301  12.053
62603W        W35028  12.326  19.573   1.785
62604W        W35029  44.496  39.412  11.542
62605W        W35030   6.234   4.362  13.359
62606W        W35031  26.497  24.498  11.128
62607W        W35032  15.288  23.584   9.642
62608W        W35033  16.774  21.717   4.284
62609W        W35034  12.281  42.899  13.374
62610W        W35035   2.404  40.029   1.767
62611W        W35036  24.212  43.512   3.749
62612W        W35037   7.292  39.467   1.345
62613W        W35038   9.732  23.720  13.950
62614W        W35039  14.626  23.565  10.551
62615W        W35040  32.120  27.021  10.993
62616W        W35041  39.812  24.713   1.376
62617W        W35042  25.630  24.165   2.756
62618W        W35043  23.569   7.840  11.053
62619W        W35044  28.105  13.623   1.277
62620W        W35045  35.052  38.404   1.360
62621W        W35046  36.862  28.932  13.312
62622W        W35047  31.036  10.850   3.214
62623W        W35048  18.234  28.002   3.347
62624W        W35049   3.263  17.575   1.379
62625W        W35050  20.691  26.554  14.462
62626W        W35051  20.642   1.858  12.462
62627W        W35052  24.085  18.106   2.229
62628W        W35053   6.407   3.809  11.871
62629W        W35054  14.710  33.388  12.504
62630W        W35055  36.003  39.458  14.377
62631W        W35056  33.567   1.872   3.272
62632W        W35057  12.658  29.054  13.455
62633W        W35058  33.508  14.743   0.333
62634W        W35059  36.513  25.003  14.469
62635W        W35060  31.565  33.906   1.245
62636W        W35061  13.602  18.075  12.850
62637W        W35062  38.885   5.694  11.891
62638W        W35063   9.359  34.888   1.393
62639W        W35064  25.165  38.019   4.318
62640W        W35065  35.572   2.305  10.594
62641W        W35066  15.105   0.884  12.038
62642W        W35067  24.121   6.338  14.904
62643W        W35068  20.711  27.156   1.850
62644W        W35069  30.637  15.162  10.513
62645W        W35070  22.207  15.823   4.221
62646W        W35071  13.307  23.197   2.301
62647W        W35072  11.865  22.121   3.818
62648W        W35073  17.710  27.525  11.488
62649W        W35074  23.000  33.383  14.327
62650W        W35075   1.837  18.628   4.838
62651W        W35076   7.196   9.337   0.781
62652W        W35077  38.931  14.295  13.485
62653W        W35078   1.260  28.526   4.721
62654W        W35079  39.937   6.897   1.703
62655W        W35080  43.855  32.957  14.985
62656W        W35081  27.990  30.945  10.963
62657W        W35082  40.361  38.887   4.624
62658W        W35083  17.678   2.792   0.278
62659W        W35084  11.677  18.603   1.258
62660W        W35085  23.651  17.264  14.957
62661W        W35086  28.106  14.283  10.924
62662W        W35087  29.652  15.601   5.193
62663W        W35088  42.976  26.980  13.497
62664W        W35089  11.734  20.124  13.341
62665W        W35090   6.736  37.409   1.290
62666W        W35091   9.787  29.585   0.917
62667W        W35092  11.223  34.080   2.227
62668W        W35093   0.861  23.111   2.796
62669W        W35094   2.781   3.236   3.222
62670W        W35095  28.579   1.458   3.211
62671W        W35096  38.441  31.098  10.620
62672W        W35097  39.931  25.105  14.780
62673W        W35098   3.804  31.576  14.806
62674W        W35099  24.600   9.850  10.470
62675W        W35100   1.948   5.351  10.620
62676W        W35101  13.187   8.205   2.240
62677W        W35102  19.231  15.731  14.405
62678W        W35103  11.296   2.841   0.780
62679W        W35104   4.266  44.854   1.299
62680W        W35105  18.171  15.705  10.512
62681W        W35106  13.662  11.698  13.426
62682W        W35107   0.851  28.951  10.556
62683W        W35108   5.228  33.441  13.486
62684W        W35109  40.937  40.322   2.853
62685W        W35110   3.918  33.548  14.965
62686W        W35111  37.943  23.100  12.064
62687W        W35112   7.844  20.672  12.465
62688W        W35113  24.513  26.033  12.366
62689W        W35114  30.617  31.004   1.425
62690W        W35115  24.123   3.421   0.815
62691W        W35116   8.862  17.198   4.285
62692W        W35117  21.524  20.730   1.275
62693W        W35118  38.403  39.054  13.456
62694W        W35119  10.254  10.825   2.322
62695W        W35120  28.118   1.855   4.802
62696W        W35121  44.891   9.376  10.446
62697W        W35122  29.492  12.640   2.802
62698W        W35123  36.385  18.786   4.263
62699W        W35124  26.119  30.605  10.613
62700W        W35125  16.303  38.889   4.350
62701W        W35126  26.131   8.238  13.460
62702W        W35127  17.643   5.894  11.383
62703W        W35128  11.830  23.997  11.861
62704W        W35129   5.822  41.872   1.786
62705W        W35130  41.386  43.490  10.512
62706W        W35131  42.468  16.093  14.353
62707W        W35132  27.543  33.972   4.632
62708W        W35133  26.960  32.519   2.366
62709W        W35134  28.163  32.418   0.346
62710W        W35135   9.669  44.426  12.881
62711W        W35136  35.528  33.514  13.954
62712W        W35137  44.763  11.198  11.887
62713W        W35138  17.260  30.541   0.289
62714W        W35139  42.921   7.406  13.328
62715W        W35140  25.975  39.556   0.873
62716W        W35141  44.916  25.533  10.443
62717W        W35142   0.251   3.403  14.339
62718W        W35143   8.256  36.477   4.170
62719W        W35144  20.590  33.908  14.344
62720W        W35145   3.866   0.334  10.456
62721W        W35146   5.778  26.150   2.695
62722W        W35147  15.214   4.261   4.173
62723W        W35148  43.273   4.322  10.477
62724W        W35149  32.937  43.278   4.677
62725W        W35150  35.411  42.349  12.564
62726W        W35151  10.219  37.087   4.682
62727W        W35152  25.164  19.720  10.486
62728W        W35153   9.295  39.867  12.058
62729W        W35154  25.644   2.444   2.883
62730W        W35155   1.443   9.675   1.737
62731W        W35156  22.694   1.246  12.910
62732W        W35157  25.638  28.160   2.869
62733W        W35158   2.771  38.380  12.991
62734W        W35159  33.126  37.396   3.327
62735W        W35160  39.892  22.737   1.934
62736W        W35161   0.970  39.326  12.496
62737W        W35162  10.677   9.380  10.062
62738W        W35163  38.379  13.841  12.860
62739W        W35164  15.293   3.860  11.587
62740W        W35165   2.830   9.814  12.957
62741W        W35166  44.839  37.047   2.201
62742W        W35167  15.219   1.879  12.553
62743W        W35168  18.269   4.712  14.777
62744W        W35169  44.827  30.967   4.600
62745W        W35170  23.661  10.316   4.798
62746W        W35171  11.824   7.282   2.246
62747W        W35172  21.706  26.701  12.985
62748W        W35173  17.619  30.076  14.857
62749W        W35174  25.713  22.156   0.770
62750W        W35175  34.952  30.611  12.915
62751W        W35176  30.978   2.889   2.322
62752W        W35177   6.243  22.538   1.274
62753W        W35178   6.734   8.374   4.693
62754W        W35179  24.516  21.640  10.892
62755W        W35180   8.202  32.091   4.671
62756W        W35181   6.268  16.795  11.861
62757W        W35182   4.269  33.479  12.571
62758W        W35183  30.520  32.532  14.025
62759W        W35184  17.637  12.666  12.886
62760W        W35185  27.656  18.177   2.744
62761W        W35186  15.131   9.243  10.578
62762W        W35187  13.121  42.976  14.991
62763W        W35188  10.632  35.585  11.108
62764W        W35189  33.957  16.219   0.808
62765W        W35190  17.768  32.039   1.380
62766W        W35191  28.461  38.833  11.004
62767W        W35192   9.322  20.134   1.760
62768W        W35193   9.743   0.889  13.412
62769W        W35194   4.820  18.138   1.219
62770W        W35195  14.611  44.443  12.396
62771W        W35196  10.656  36.521  14.482
62772W        W35197   0.939  35.971  13.881
62773W        W35198   7.871   5.745  10.959
62774W        W35199  25.572  24.590  11.922
62775W        W35200   6.361  44.315  12.045
62776W        W35201  10.259  27.454   0.297
62777W        W35202  17.591  10.294   2.851
62778W        W35203  24.520  20.208   0.430
62779W        W35204  16.697  42.368   2.225
62780W        W35205  12.836   0.847   1.843
62781W        W35206  24.976   0.894   2.199
62782W        W35207  43.875  39.044  11.033
62783W        W35208  30.454  40.045  12.346
62784W        W35209  30.614   8.763  10.614
62785W        W35210  26.577  17.724   0.774
62786W        W35211  44.341  34.982   3.750
62787W        W35212  24.523   0.454   4.284
62788W        W35213  18.217  15.273  12.876
62789W        W35214  33.926  28.637   1.245
62790W        W35215  27.468  40.902   0.850
62791W        W35216  32.506   3.388   5.239
62792W        W35217  24.193  26.702  11.599
62793W        W35218  34.552  17.225  12.385
62794W        W35219  41.307  14.656  10.614
62795W        W35220  35.398  34.607  12.428
62796W        W35221  26.064   2.367  10.487
62797W        W35222  26.488  17.773   1.375
62798W        W35223  37.544   9.230   2.192
62799W        W35224  17.065  13.331  14.431
62800W        W35225  11.299  44.902  13.866
62801W        W35226  10.738  26.518   2.384
62802W        W35227  13.729  25.561  13.922
62803W        W35228   0.835   2.288   3.348
62804W        W35229   7.753  11.835  10.640
62805W        W35230  41.787  11.339  12.491
62806W        W35231  42.432  42.501   2.281
62807W        W35232  12.768   2.386   3.330
62808W        W35233   1.267  13.623   3.731
62809W        W35234  18.596   3.424  10.983
62810W        W35235  11.820   6.872  10.086
62811W        W35236  13.834  16.104   3.740
62812W        W35237   3.725  28.160  11.974
62813W        W35238  41.923  19.742   0.771
62814W        W35239  43.440   5.918   2.770
62815W        W35240  21.101  20.686  13.371
62816W        W35241  42.024   9.164  10.634
62817W        W35242   7.904  44.457   1.881
62818W        W35243  11.849  41.447   2.312
62819W        W35244  21.600   6.361   1.931
62820W        W35245   1.348  15.601  12.906
62821W        W35246  28.484   4.374   0.305
62822W        W35247   6.208  16.615   1.734
62823W        W35248  35.398  13.641   2.381
62824W        W35249   1.882   5.307   1.347
62825W        W35250   3.868  20.582  10.493
62826W        W35251   7.767  38.064  11.915
62827W        W35252  38.506   4.816   3.687
62828W        W35253  35.469  43.322   0.343
62829W        W35254   5.288   6.915   4.726
62830W        W35255  41.915   1.418  11.428
62831W        W35256  40.877  12.643  10.518
62832W        W35257  36.072  18.606  13.915
62833W        W35258  10.873   1.381  13.392
62834W        W35259   4.375  35.388   0.375
62835W        W35260  14.296  11.349  10.452
62836W        W35261   6.327  19.041  11.037
62837W        W35262  13.672  36.070  13.911
62838W        W35263  16.218  18.263   3.295
62839W        W35264  17.593  12.701  12.460
62840W        W35265  34.873   1.480   4.216
62841W        W35266   3.814  38.524   2.839
62842W        W35267  16.640  12.360   1.934
62843W        W35268  18.124  15.238  13.834
62844W        W35269  37.406  33.967   0.890
62845W        W35270  17.638  15.141   2.356
62846W        W35271  35.500  11.848   1.269
62847W        W35272   5.843  42.298   3.316
62848W        W35273  28.182  43.811   1.709
62849W        W35274   1.409  27.059   0.455
62850W        W35275   5.753  19.094  11.389
62851W        W35276  33.415  20.086   1.210
62852W        W35277   2.443  28.086   0.913
62853W        W35278  20.673   8.742   3.341
62854W        W35279  25.112  25.658   2.252
62855W        W35280  27.538  40.430  10.543
62856W        W35281   2.270  10.272  11.936
62857W        W35282  17.703  17.180  11.602
62858W        W35283  12.282  33.939  14.024
62859W        W35284  19.570  42.321  10.552
62860W        W35285  13.233   4.922  14.866
62861W        W35286  27.566   0.268   2.877
62862W        W35287  27.021  34.455   2.838
62863W        W35288  24.065   2.722  13.799
62864W        W35289  32.904  19.172  13.492
62865W        W35290  24.636  29.664   1.240
62866W        W35291  12.199  23.018   0.769
62867W        W35292  32.459  42.952   3.722
62868W        W35293  31.424   7.315  13.888
62869W        W35294  18.190  34.523  10.911
62870W        W35295   5.231  26.137   1.810
62871W        W35296  31.471  26.064  10.560
62872W        W35297  30.086  21.677   4.645
62873W        W35298  23.567  33.553   3.323
62874W        W35299  16.100  26.191  12.980
62875W        W35300  35.950  12.236  12.393
62876W        W35301  38.953  16.185   2.272
62877W        W35302   1.388  41.001   3.689
62878W        W35303   0.400  30.563  14.482
62879W        W35304  32.610  44.301   2.225
62880W        W35305  23.117  21.587   2.340
62881W        W35306  34.953  43.968   2.233
62882W        W35307  41.910  16.214  11.082
62883W        W35308  24.495  13.111  13.323
62884W        W35309  44.999  20.672  13.412
62885W        W35310  13.245  34.877  11.938
62886W        W35311   9.817   8.178   5.671
62887W        W35312  38.949  20.726   0.767
62888W        W35313  24.089  13.268  12.057
62889W        W35314  21.196   6.877   1.860
62890W        W35315   0.966   2.724  10.572
62891W        W35316  36.967  32.439  11.092
62892W        W35317   7.254   4.926  10.426
62893W        W35318  13.135   7.851  11.549
62894W        W35319  14.250  18.663   3.852
62895W        W35320  27.558  43.303   2.259
62896W        W35321  29.966   3.396   0.424
62897W        W35322  36.483   3.255  14.357
62898W        W35323  24.710   8.284  12.976
62899W        W35324  30.922  25.550  12.528
62900W        W35325  26.632  33.527  13.049
62901W        W35326  14.757   0.490  14.283
62902W        W35327  10.369  36.469  13.321
62903W        W35328  16.203   9.819  10.515
62904W        W35329   8.214   7.277  12.437
62905W        W35330  40.009  23.110   0.950
62906W        W35331  34.875  18.243   0.952
62907W        W35332   4.772  24.493  10.471
62908W        W35333  38.496   6.787  12.453
62909W        W35334   9.368   6.883  13.930
62910W        W35335  41.912  20.137  12.375
62911W        W35336  40.931   9.379  13.986
62912W        W35337  29.560  18.607  12.547
62913W        W35338  12.795  24.619   0.246
62914W        W35339  43.482  35.098   3.309
62915W        W35340   2.883  26.637  12.055
62916W        W35341  20.052  15.786  11.485
62917W        W35342  22.539  30.044   2.685
62918W        W35343  38.833  34.937  13.858
62919W        W35344  43.950   3.719   4.630
62920W        W35345  33.599  17.195  12.082
62921W        W35346  11.836  36.073  14.378
62922W        W35347  36.391   7.186  11.458
62923W        W35348  37.362  16.666  12.466
62924W        W35349  36.049  38.014   0.439
62925W        W35350  35.530   6.414  13.321
62926W        W35351  36.388  12.314   1.715
62927W        W35352  38.015  31.071  10.963
62928W        W35353  32.127  13.810   2.836
62929W        W35354  40.881  17.221   4.656
62930W        W35355  14.318  16.109   0.912
62931W        W35356  34.460  40.511   2.838
62932W        W35357   5.796   8.769   0.450
62933W        W35358  13.112  41.457   4.120
62934W        W35359   7.865  22.626   3.785
62935W        W35360   2.416  23.591  10.607
62936W        W35361  29.952  15.620   3.685
62937W        W35362  32.548  23.650  12.989
62938W        W35363   3.331  34.585   3.768
62939W        W35364  36.872   8.372   0.965
62940W        W35365  15.177   0.325  13.003
62941W        W35366  33.618  24.058  14.340
62942W        W35367  34.936   2.384  13.519
62943W        W35368  20.187  42.778  13.499
62944W        W35369  34.412  13.610  13.835
62945W        W35370   4.933  35.535  13.909
62946W        W35371  30.453  32.006   3.293
62947W        W35372  42.290  41.921  11.477
62948W        W35373  33.089  19.707   4.828
62949W        W35374   2.722   2.880  14.450
62950W        W35375  20.705  43.349   2.409
62951W        W35376  21.026   8.195  14.283
62952W        W35377  13.222  15.642  10.155
62953W        W35378  30.006  29.164  13.393
62954W        W35379  18.051  29.494   1.251
62955W        W35380  24.049  38.883  11.494
62956W        W35381  39.898   5.720   4.315
62957W        W35382  32.422  41.977   2.897
62958W        W35383  17.715  41.434   3.725
62959W        W35384  22.111  34.919   1.273
62960W        W35385  31.487  23.023  12.978
62961W        W35386  37.510   9.223   3.322
62962W        W35387  42.375  42.831  13.918
62963W        W35388  29.581  11.689  13.435
62964W        W35389  13.132   2.470  14.884
62965W        W35390  25.174   0.972   1.795
62966W        W35391  40.315  36.382   0.836
62967W        W35392  23.563   2.738  14.493
62968W        W35393   0.749  28.534  14.282
62969W        W35394  33.522  39.818   2.309
62970W        W35395  43.897  19.714   1.801
62971W        W35396  31.447  14.716  14.908
62972W        W35397  33.615   1.302   1.237
62973W        W35398  44.425   7.752  13.498
62974W        W35399  28.037  30.422  12.446
62975W        W35400  38.425  15.754  13.061
62976W        W35401  29.147  38.896  10.893
62977W        W35402  10.819  14.233   1.815
62978W        W35403  37.853  13.248   4.181
62979W        W35404  25.209  26.686  14.020
62980W        W35405  37.943  27.086   2.687
62981W        W35406  24.106  19.065  12.952
62982W        W35407  39.896  33.987   3.248
62983W        W35408   8.196   9.727  12.342
62984W        W35409   5.869  31.132  10.560
62985W        W35410  31.008  15.092   3.649
62986W        W35411  29.442  43.379  13.503
62987W        W35412  33.964  41.871  11.981
62988W        W35413  35.955  28.997  10.632
62989W        W35414  27.595  16.185  12.569
62990W        W35415  21.630  41.495  12.014
62991W        W35416  22.231  16.581   4.682
62992W        W35417  18.631  13.611   4.658
62993W        W35418  18.768  12.767   2.759
62994W        W35419  14.207  14.644   3.702
62995W        W35420   2.354  18.669   1.285
62996W        W35421  34.588  14.114   4.143
62997W        W35422  38.884  17.077  13.474
62998W        W35423   6.835  20.199   0.745
62999W        W35424  39.389  33.538   0.922
63000W        W35425  41.030  37.483   0.858
63001W        W35426  39.890  33.600   0.315
63002W        W35427   4.814  15.288  10.978
63003W        W35428   3.304  25.666   0.349
63004W        W35429   8.783  26.161  12.921
63005W        W35430   7.194  16.088   4.331
63006W        W35431   2.768  24.614  14.477
63007W        W35432   2.445   2.959  10.419
63008W        W35433  39.926   1.320   3.657
63009W        W35434  39.971  43.872  14.939
63010W        W35435  36.519  38.392   2.775
63011W        W35436   5.248   2.724  11.943
63012W        W35437  38.022  28.018  14.956
63013W        W35438   1.750   4.832   3.726
63014W        W35439  28.501  20.137   0.768
63015W        W35440   4.386   3.818  14.938
63016W        W35441  16.710  12.147  14.786
63017W        W35442  18.601  17.098   4.742
63018W        W35443  42.362  25.651   1.848
63019W        W35444   3.361  31.142  10.966
63020W        W35445  11.706  34.473  11.934
63021W        W35446  30.632   0.745   3.311
63022W        W35447  21.685  14.779  12.566
63023W        W35448  16.286  24.494  10.902
63024W        W35449  40.813  21.752  11.577
63025W        W35450   3.445  31.601  11.530
63026W        W35451  24.661  26.569   1.856
63027W        W35452  32.615  37.501  11.955
63028W        W35453  18.257  29.475   3.212
63029W        W35454  41.950  18.748  14.922
63030W        W35455  38.347  14.189   4.701
63031W        W35456  28.590   6.251  12.403
63032W        W35457   3.816  37.344  12.959
63033W        W35458  28.152  11.718  10.578
63034W        W35459  41.848  20.694  13.048
63035W        W35460  16.802   9.855   1.252
63036W        W35461  27.141  12.659  10.612
63037W        W35462  21.185  26.034  13.482
63038W        W35463  30.914  30.099   4.350
63039W        W35464  10.369   2.802   1.426
63040W        W35465  31.539  32.044  11.502
63041W        W35466  22.601  41.524   1.890
63042W        W35467   5.392   9.657  11.489
63043W        W35468  31.151  23.494  11.460
63044W        W35469   2.259  33.524   9.970
63045W        W35470  17.105   3.277   3.784
63046W        W35471  40.048   3.347  14.840
63047W        W35472  40.957  12.275   0.334
63048W        W35473  41.960  10.160  13.390
63049W        W35474  23.185  39.368   1.212
63050W        W35475  41.836   9.665   3.705
63051W        W35476  13.769   5.750  13.824
63052W        W35477  31.562   3.435   0.467
63053W        W35478  42.960  24.177   5.089
63054W        W35479  20.255  39.361  13.864
63055W        W35480   7.890  39.038   3.164
63056W        W35481  31.413  13.741  13.315
63057W        W35482  31.436  39.459   4.296
63058W        W35483  44.416  36.048  13.530
63059W        W35484  19.574  25.143  14.763
63060W        W35485  17.797  16.698   1.932
63061W        W35486  33.910   3.843  11.102
63062W        W35487  43.925   3.946  11.447
63063W        W35488  11.768  28.165  13.923
63064W        W35489  16.076   4.229  13.503
63065W        W35490   2.855  42.286   3.758
63066W        W35491   3.806  22.675   2.731
63067W        W35492   6.374  43.364   4.788
63068W        W35493  29.135  42.351   4.205
63069W        W35494  44.431  30.927  12.054
63070W        W35495  22.234  44.337   4.332
63071W        W35496  22.528  12.790  13.401
63072W        W35497  21.037   0.349   2.278
63073W        W35498  29.556  38.024   1.717
63074W        W35499  41.959  32.016   0.916
63075W        W35500  39.006  16.622   4.145
63076W        W35501  16.782   2.245  12.032
63077W        W35502  27.517  37.454   1.399
63078W        W35503  24.151   3.330   3.150
63079W        W35504  16.175  20.047   4.601
63080W        W35505  22.176  42.860  11.978
63081W        W35506   8.803  20.032  11.868
63082W        W35507  21.103  32.437   3.243
63083W        W35508   3.928  12.289  11.446
63084W        W35509  35.998   7.178   2.833
63085W        W35510  42.373   1.963  11.970
63086W        W35511  17.679  13.150   1.865
63087W        W35512  10.706  19.090  11.086
63088W        W35513   8.829  27.979   2.785
63089W        W35514  17.728  16.085   0.936
63090W        W35515  14.324  17.143  12.090
63091W        W35516  27.546  37.054  13.944
63092W        W35517  12.208  19.745  13.812
63093W        W35518  39.020  12.790  11.391
63094W        W35519   5.730   1.464  10.941
63095W        W35520  14.644   9.190   0.374
63096W        W35521  23.122  13.231  14.338
63097W        W35522   6.895  27.036  11.500
63098W        W35523   7.408  42.919   0.865
63099W        W35524  14.807  24.002   2.864
63100W        W35525  24.631   5.879   1.892
63101W        W35526  41.343  22.589   1.724
63102W        W35527  36.572   5.708  12.472
63103W        W35528  26.106  17.739   0.472
63104W        W35529   8.376  24.506  12.852
63105W        W35530   6.426  44.357  10.983
63106W        W35531   1.853  30.009   0.467
63107W        W35532  38.393   6.776  11.888
63108W        W35533   4.432   7.803  10.575
63109W        W35534  42.855  17.067  10.439
63110W        W35535  38.351  36.409  13.522
63111W        W35536  34.899  19.094  12.427
63112W        W35537  15.119  12.344  14.967
63113W        W35538  12.316  13.249   0.726
63114W        W35539  29.622   3.749  14.336
63115W        W35540   3.742  19.212  13.386
63116W        W35541  21.583  20.694  12.949
63117W        W35542  20.603  23.547   1.706
63118W        W35543  19.071  18.108  14.013
63119W        W35544  16.223   4.397   2.889
63120W        W35545  40.326  23.706   0.399
63121W        W35546  19.189   0.806   4.603
63122W        W35547  33.503  19.132  12.026
63123W        W35548   0.447  36.476  11.464
63124W        W35549  22.595  18.244  14.878
63125W        W35550  43.389   6.837   4.804
63126W        W35551   4.439  27.079  12.948
63127W        W35552  43.344  27.581  12.859
63128W        W35553   2.438   1.263   3.360
63129W        W35554  13.842   3.289  11.950
63130W        W35555  38.819  28.939  13.424
63131W        W35556   0.416  13.732   2.675
63132W        W35557   0.423  11.218  11.527
63133W        W35558  20.234  24.597  14.274
63134W        W35559  24.110  29.114   4.146
63135W        W35560   5.838  26.020  10.487
63136W        W35561   8.370   6.739  10.545
63137W        W35562   7.289   6.296   3.634
63138W        W35563  21.741  27.678   0.912
63139W        W35564  34.610   3.229  10.586
63140W        W35565  15.737  39.882   2.274
63141W        W35566   8.168  27.002  14.943
63142W        W35567   7.232  32.105   1.383
63143W        W35568   6.787  10.790  13.923
63144W        W35569   8.205   3.241   0.943
63145W        W35570   9.711  36.513  13.827
63146W        W35571  35.941  40.369   0.461
63147W        W35572  40.316  44.979   4.829
63148W        W35573  32.452  22.063  12.997
63149W        W35574  28.182  44.958   0.427
63150W        W35575  39.443   8.299  10.969
63151W        W35576  42.524  20.184   3.360
63152W        W35577  39.361  22.039   0.326
63153W        W35578  25.656  41.452   4.729
63154W        W35579   8.821  35.082   0.462
63155W        W35580   7.825  21.544  12.982
63156W        W35581   5.399  14.104  11.947
63157W        W35582  17.650  44.835   0.458
63158W        W35583  41.380  37.087  11.013
63159W        W35584  42.977  11.704  13.029
63160W        W35585   8.852  34.486   1.296
63161W        W35586  24.594  33.125   4.773
63162W        W35587  17.636  16.674   4.143
63163W        W35588  40.544   5.708  13.341
63164W        W35589  26.627  27.019  13.428
63165W        W35590  24.986  40.826  11.884
63166W        W35591  43.895  39.928  10.598
63167W        W35592  33.993  29.995   1.702
63168W        W35593  22.620  34.465   0.871
63169W        W35594  29.495  43.443  13.038
63170W        W35595  10.147   0.877   0.254
63171W        W35596  39.340   9.877  11.379
63172W        W35597  33.461  28.587  10.525
63173W        W35598  20.164  40.469   3.189
63174W        W35599  33.926  30.513  12.551
63175W        W35600  15.171   7.814   3.723
63176W        W35601  12.319  24.230  14.900
63177W        W35602  40.859  37.986  12.438
63178W        W35603  27.677  44.466   3.720
63179W        W35604  23.604   1.422   2.802
63180W        W35605   4.887   2.740   2.772
63181W        W35606  12.328   3.712  12.888
63182W        W35607  25.977  18.232  14.367
63183W        W35608  22.232   5.817  14.426
63184W        W35609   8.818  44.455  11.959
63185W        W35610  26.109   3.754  12.568
63186W        W35611  42.387   6.255  13.385
63187W        W35612   5.844  17.274   0.947
63188W        W35613  13.712  42.815  12.557
63189W        W35614   7.781   9.864   1.727
63190W        W35615  27.171  41.382   2.692
63191W        W35616  40.044  38.828  10.575
63192W        W35617  13.202  16.114   2.691
63193W        W35618  35.868  40.932   0.445
63194W        W35619  22.080  29.978  12.984
63195W        W35620  38.935  13.675   3.715
63196W        W35621  13.795   4.371  14.032
63197W        W35622  42.289  33.540  12.944
63198W        W35623  29.498  37.075   4.212
63199W        W35624  42.799  24.975   4.138
63200W        W35625   5.913   0.816   0.484
63201W        W35626  11.798  29.591   4.668
63202W        W35627  39.885   8.780  10.910
63203W        W35628  22.694  32.912   3.377
63204W        W35629   9.389   8.212   4.681
63205W        W35630   9.771  31.555   1.788
63206W        W35631  29.641   8.186  14.880
63207W        W35632  33.426  11.175   1.729
63208W        W35633   0.766  44.458  13.371
63209W        W35634  44.007  34.990   2.316
63210W        W35635  23.533  23.991   3.360
63211W        W35636   3.351  44.766  10.515
63212W        W35637  33.914  16.274  12.563
63213W        W35638  36.066  23.510   1.742
63214W        W35639  17.742  23.217   1.243
63215W        W35640   7.233  43.442  12.435
63216W        W35641  27.564  17.218   3.786
63217W        W35642  17.732  33.509  12.564
63218W        W35643  23.647   6.696   2.283
63219W        W35644   5.338   7.264  10.954
63220W        W35645  37.569  26.026   1.714
63221W        W35646  14.338  14.223  13.863
63222W        W35647  17.603   1.250   4.818
63223W        W35648  21.519  23.030  14.907
63224W        W35649  14.791  21.646   5.702
63225W        W35650  17.673  44.502  12.014
63226W        W35651   8.813  35.362  11.513
63227W        W35652  36.078  26.604   2.835
63228W        W35653  18.576  12.227   0.934
63229W        W35654  17.741   5.238   4.189
63230W        W35655   4.810  29.529   0.854
63231W        W35656  12.352  32.088   2.894
63232W        W35657  16.124  24.174  10.933
63233W        W35658  44.871  36.061  11.576
63234W        W35659  26.608  38.828   4.220
63235W        W35660  10.346  18.653  13.515
63236W        W35661  33.965  39.330  14.286
63237W        W35662  33.433  13.138   4.761
63238W        W35663  31.101   7.183   5.176
63239W        W35664  26.098  43.000  10.498
63240W        W35665  29.552  14.735  11.457
63241W        W35666  42.924  22.116  14.776
63242W        W35667  10.361  19.538  13.911
63243W        W35668  17.204  31.993   2.901
63244W        W35669  18.090  27.638  10.591
63245W        W35670  40.489  14.782   4.154
63246W        W35671  17.088   2.877   1.266
63247W        W35672  39.392  41.292  11.018
63248W        W35673   6.880  33.520   1.746
63249W        W35674  12.815   9.703   1.402
63250W        W35675  34.456  19.284   0.353
63251W        W35676  27.531  15.237  10.433
63252W        W35677  36.040  22.111   2.762
63253W        W35678  12.704   4.739   0.462
63254W        W35679  30.473  33.999   4.612
63255W        W35680  37.042   5.724   1.873
63256W        W35681  13.201  19.193  13.980
63257W        W35682  41.427  15.640  11.917
63258W        W35683  27.678  13.743  11.017
63259W        W35684   9.886   2.336   3.292
63260W        W35685  16.663  39.921  13.430
63261W        W35686  10.650   1.292  11.478
63262W        W35687  32.082  15.115   3.232
63263W        W35688  14.635  27.613   1.808
63264W        W35689   6.392   8.714   3.329
63265W        W35690  21.018  29.483   4.145
63266W        W35691   0.267  33.613   4.688
63267W        W35692  23.655  26.038  13.998
63268W        W35693   5.307  29.598  14.886
63269W        W35694   6.909  24.218  12.958
63270W        W35695  28.549  33.879  10.447
63271W        W35696  38.003  37.900   3.386
63272W        W35697  18.227  16.199  12.413
63273W        W35698  39.383  21.698   0.756
63274W        W35699  22.192   2.731  11.391
63275W        W35700  13.609  42.323   2.827
63276W        W35701  18.132  38.835  10.895
63277W        W35702   6.801   4.258   4.340
63278W        W35703  31.069   8.718   3.310
63279W        W35704  37.974   8.302   4.714
63280W        W35705  10.675  36.396   4.636
63281W        W35706  41.422  43.833   2.680
63282W        W35707  10.288  22.529  12.475
63283W        W35708  21.757  21.025   2.373
63284W        W35709  41.037  21.522  10.466
63285W        W35710  22.509  43.783   1.915
63286W        W35711  33.535   2.304   1.352
63287W        W35712  16.722  26.094  12.910
63288W        W35713   8.822  28.047  11.937
63289W        W35714   8.754  42.461   4.148
63290W        W35715   5.416   0.811  12.384
63291W        W35716  27.076  15.647  12.027
63292W        W35717  11.293  32.463  14.879
63293W        W35718   7.364  24.197   0.383
63294W        W35719  23.241   9.827  10.478
63295W        W35720  16.200  16.602  13.852
63296W        W35721  39.921  40.931  11.878
63297W        W35722  23.219  41.944   2.315
63298W        W35723  27.579  17.709  12.360
63299W        W35724  23.556  18.096   2.278
63300W        W35725  28.549   2.772   2.292
63301W        W35726  36.035  11.693   2.253
63302W        W35727  42.499  28.635  13.513
63303W        W35728  32.089  19.079  13.989
63304W        W35729  40.530   4.444   1.724
63305W        W35730   3.908  36.855   0.380
63306W        W35731   6.766   1.923  13.528
63307W        W35732  36.355  29.600  14.954
63308W        W35733  33.506  23.693   1.810
63309W        W35734   3.299  42.980   0.777
63310W        W35735   9.751   4.746   3.761
63311W        W35736  40.840  41.322  12.053
63312W        W35737   9.795  18.574   3.810
63313W        W35738  22.562  35.034  14.480
63314W        W35739   7.695  10.276   9.981
63315W        W35740  38.921  41.043   1.829
63316W        W35741  30.420  14.226   2.281
63317W        W35742  19.096  19.539   0.285
63318W        W35743  36.403  36.414  10.579
63319W        W35744  30.053  21.204  11.394
63320W        W35745   6.905  18.183   1.410
63321W        W35746  15.263  27.180  13.378
63322W        W35747  34.872  10.248   4.768
63323W        W35748  23.652   2.376   3.826
63324W        W35749   0.443  24.189   1.885
63325W        W35750  33.879   1.351   2.414
63326W        W35751  22.543  25.086   4.142
63327W        W35752  15.768  37.400   5.132
63328W        W35753  39.503  18.775   3.708
63329W        W35754  42.397  28.447  11.584
63330W        W35755  34.449  27.084  14.382
63331W        W35756  35.032  37.439   4.704
63332W        W35757   3.288  20.092   4.317
63333W        W35758  23.174   5.361   3.679
63334W        W35759  30.531  28.067  12.564
63335W        W35760  38.350   6.793   4.328
63336W        W35761  23.526  19.633   1.701
63337W        W35762  16.603  30.448   9.574
63338W        W35763  33.086  19.605  14.439
63339W        W35764  33.535  37.547   2.271
63340W        W35765   4.856  40.930   2.747
63341W        W35766  38.903  43.872  10.891
63342W        W35767  26.494   1.736   1.386
63343W        W35768   6.780  38.915  13.438
63344W        W35769  21.093   1.762  12.035
63345W        W35770  37.045  10.730   0.305
63346W        W35771  35.592  31.015   0.787
63347W        W35772  10.289   4.233  10.448
63348W        W35773  41.427  29.015   2.335
63349W        W35774  10.778  37.400  13.965
63350W        W35775  17.648  37.398  13.484
63351W        W35776  38.327   8.248  12.877
63352W        W35777  36.515  26.559  12.921
63353W        W35778  40.478  25.580  12.961
63354W        W35779   7.284  24.230   2.664
63355W        W35780  41.468   6.900   0.363
63356W        W35781  22.629  40.803  11.096
63357W        W35782  41.525  22.110  11.992
63358W        W35783   3.418  41.901   3.181
63359W        W35784  13.257  25.651  13.453
63360W        W35785   5.710  23.572   0.806
63361W        W35786  31.069   3.814  10.490
63362W        W35787  39.902  22.205  12.415
63363W        W35788  17.118  11.183   4.752
63364W        W35789  19.249  27.677   2.701
63365W        W35790   9.392  34.515   3.265
63366W        W35791  17.158   5.706  14.317
63367W        W35792   0.364  25.504  14.013
63368W        W35793  18.254  44.757  10.449
63369W        W35794  25.173  43.398  13.807
63370W        W35795  35.474   5.800   2.377
63371W        W35796   4.908  41.865   5.121
63372W        W35797  25.612  26.469  10.943
63373W        W35798   4.207  24.033   4.675
63374W        W35799  38.494   7.409   2.718
63375W        W35800  14.251   3.723  13.973
63376W        W35801  23.073   8.339  13.473
63377W        W35802  16.636  35.026  10.969
63378W        W35803  39.360  26.130  10.429
63379W        W35804  38.878  18.242  11.869
63380W        W35805  23.696   8.179   1.224
63381W        W35806   2.335  15.764  12.827
63382W        W35807  18.547  37.892  10.959
63383W        W35808  38.843  19.609  11.569
63384W        W35809  33.106  26.978  14.464
63385W        W35810   3.859   9.693  13.449
63386W        W35811  38.504  22.590   0.284
63387W        W35812  10.760  32.549   3.253
63388W        W35813   5.741   0.485  12.581
63389W        W35814  39.890  27.608   1.396
63390W        W35815  33.493   1.908  11.585
63391W        W35816  19.625  13.228  14.290
63392W        W35817  15.705  27.154  12.907
63393W        W35818  20.079  29.092  12.955
63394W        W35819  14.631   1.884   3.149
63395W        W35820  33.890  32.530  14.457
63396W        W35821  21.671  10.367  11.113
63397W        W35822  33.982  33.994  11.504
63398W        W35823  24.495  38.911  12.043
63399W        W35824  36.947  29.962   3.667
63400W        W35825  32.038  25.030  11.012
63401W        W35826   2.932  19.609   4.300
63402W        W35827   1.393  18.774   1.801
63403W        W35828  44.944  24.181   2.848
63404W        W35829  18.702  37.867  14.879
63405W        W35830  38.034   1.977  13.516
63406W        W35831  10.340   2.901  12.826
63407W        W35832   6.281  13.245  14.297
63408W        W35833   0.913  11.238   4.222
63409W        W35834   7.837  18.082  14.853
63410W        W35835  24.622  13.665  13.017
63411W        W35836  10.670  33.943  12.951
63412W        W35837  40.896  33.999   1.764
63413W        W35838  42.006  41.899   0.751
63414W        W35839  19.613   0.389   0.388
63415W        W35840  37.973  32.607  10.474
63416W        W35841  43.341  15.795  14.431
63417W        W35842  39.427  29.961   2.218
63418W        W35843  30.435   3.914  11.084
63419W        W35844  37.362   5.225  10.461
63420W        W35845  12.273  39.860   0.885
63421W        W35846  27.673  18.787  11.397
63422W        W35847  22.507  24.581  11.487
63423W        W35848  10.294   9.297   1.705
63424W        W35849  21.640  13.648   2.887
63425W        W35850   2.906  19.142  10.519
63426W        W35851   8.833   9.394  12.505
63427W        W35852  17.654  39.470   0.381
63428W        W35853   3.815  42.810  11.044
63429W        W35854  44.948  14.268   4.261
63430W        W35855   9.346   2.368  10.932
63431W        W35856  43.840  44.803   1.931
63432W        W35857  34.453   4.244   4.746
63433W        W35858  43.382  39.889   4.620
63434W        W35859  20.112  34.544  12.848
63435W        W35860  19.285  36.033  12.070
63436W        W35861  19.229  28.089  11.511
63437W        W35862  42.466  30.593  12.890
63438W        W35863  28.128  22.186   1.824
63439W        W35864  30.441   3.256   1.367
63440W        W35865  32.545  18.665  12.094
63441W        W35866  40.832  43.923   0.399
63442W        W35867  34.409  26.485  14.853
63443W        W35868  11.789  12.614   2.304
63444W        W35869   0.326  19.560   3.763
63445W        W35870  39.488  12.355  13.533
63446W        W35871  16.638  21.092  13.817
63447W        W35872   9.200  40.818   2.273
63448W        W35873  29.586  15.278  10.532
63449W        W35874   9.779   1.333   3.170
63450W        W35875  37.916  37.008   0.771
63451W        W35876   3.275  26.559  12.836
63452W        W35877   8.848  12.141  14.305
63453W        W35878  25.473  40.914   1.237
63454W        W35879  12.197  13.639   1.802
63455W        W35880  15.594  21.672  11.115
63456W        W35881  38.568  35.952   2.724
63457W        W35882  39.398  30.509   2.761
63458W        W35883  27.495  42.525  10.611
63459W        W35884  28.143  26.476  14.459
63460W        W35885   6.714   7.878  14.822
63461W        W35886  14.593  18.160  13.877
63462W        W35887  11.287  13.200  11.514
63463W        W35888   4.410  34.408  10.501
63464W        W35889  29.095  21.732   4.755
63465W        W35890  34.074  10.173  11.593
63466W        W35891  39.808  40.011  11.478
63467W        W35892  27.070  36.434   3.297
63468W        W35893   5.225   9.888  14.308
63469W        W35894  29.926  20.144   0.374
63470W        W35895  33.458  30.484  13.040
63471W        W35896  30.098  18.282   3.658
63472W        W35897  35.852  16.756  10.984
63473W        W35898   1.365  32.496  11.594
63474W        W35899  19.550  39.514  11.482
63475W        W35900  24.986  25.486   2.673
63476W        W35901  24.050   8.673   9.980
63477W        W35902  44.356  43.486   2.410
63478W        W35903   3.255  31.426  12.399
63479W        W35904  32.914  31.136  11.863
63480W        W35905  10.178  24.553   4.167
63481W        W35906  23.639  31.566  11.969
63482W        W35907  29.629  25.178   4.157
63483W        W35908  31.951  16.751   1.892
63484W        W35909  30.574  27.985   2.663
63485W        W35910   8.189  14.725  11.518
63486W        W35911  42.390  28.958   1.771
63487W        W35912  24.206  22.049   2.885
63488W        W35913  24.630  23.111   3.790
63489W        W35914  22.230  32.975   1.366
63490W        W35915  35.013  31.067  14.450
63491W        W35916  11.738  27.954  11.003
63492W        W35917  25.210  43.838  13.454
63493W        W35918  22.511  28.184   2.875
63494W        W35919  14.243  21.700   0.924
63495W        W35920  36.027  19.192   4.624
63496W        W35921   8.750  39.971  13.380
63497W        W35922   5.372   0.987   4.282
63498W        W35923  40.967  44.966  12.872
63499W        W35924  13.140   3.937   4.347
63500W        W35925  17.275  37.876  11.454
63501W        W35926  24.631  16.604   0.264
63502W        W35927  38.450  42.479   5.246
63503W        W35928  33.047   8.332  14.287
63504W        W35929  35.414  38.974  13.417
63505W        W35930  38.949   2.457   1.822
63506W        W35931  42.966  11.702   4.249
63507W        W35932   7.911  34.383  10.976
63508W        W35933  21.102   9.797   3.155
63509W        W35934  23.049   3.355  12.463
63510W        W35935  39.502  18.142   4.699
63511W        W35936  32.885  23.154   0.950
63512W        W35937  36.490   1.462   4.789
63513W        W35938   5.916  34.429  10.641
63514W        W35939  19.208   7.753   0.442
63515W        W35940  25.054  36.450  13.925
63516W        W35941   8.873  20.646  10.508
63517W        W35942   3.879  40.007   0.322
63518W        W35943  13.199  15.284   1.770
63519W        W35944  18.755  34.965   4.817
63520W        W35945  32.020  25.660  11.038
63521W        W35946  18.576  17.172  13.338
63522W        W35947  29.498  27.652   3.277
63523W        W35948  19.646  36.396   1.307
63524W        W35949  44.459   2.846   1.364
63525W        W35950  34.488  27.008   0.820
63526W        W35951   0.747   6.711  14.026
63527W        W35952  37.521  26.456  14.282
63528W        W35953  29.052  41.463  12.843
63529W        W35954  14.709  25.093  11.563
63530W        W35955   2.735  31.578   2.210
63531W        W35956  43.996  30.658  11.578
63532W        W35957  17.709  14.240  12.531
63533W        W35958  29.076  40.909  13.321
63534W        W35959  17.752  37.835  12.407
63535W        W35960  26.457  16.650   4.332
63536W        W35961   1.386  24.051   3.823
63537W        W35962  40.380  29.591   4.343
63538W        W35963  15.686   9.166  14.430
63539W        W35964  38.975   4.790  14.912
63540W        W35965  26.501  35.490   4.822
63541W        W35966  36.084  27.642   0.369
63542W        W35967  32.620  40.535  11.052
63543W        W35968  13.623  40.394  10.991
63544W        W35969  17.284   5.918  12.378
63545W        W35970  31.428   5.902   2.726
63546W        W35971  25.681  34.113   2.747
63547W        W35972  38.821  14.291  10.046
63548W        W35973  24.032  42.401   1.757
63549W        W35974  33.992   5.437   3.333
63550W        W35975   7.696   0.253   0.775
63551W        W35976  27.570   3.396   2.828
63552W        W35977  40.047  11.240   0.813
63553W        W35978  43.925  29.146  11.498
63554W        W35979  14.704   6.250   1.862
63555W        W35980  29.428  22.597   4.162
63556W        W35981  37.444  13.674  10.428
63557W        W35982  31.508  31.963  13.014
63558W        W35983  37.446  44.360  13.860
63559W        W35984   2.289  40.319  14.810
63560W        W35985  36.999  34.120  14.434
63561W        W35986  39.464  21.646  14.785
63562W        W35987  33.543  35.976  10.912
63563W        W35988  37.965  27.644  13.990
63564W        W35989  27.652  31.471  13.453
63565W        W35990  19.083  28.636   4.257
63566W        W35991   5.281  35.917   3.752
63567W        W35992  29.923  11.342   0.779
63568W        W35993   8.744  38.397   4.204
63569W        W35994  10.204  22.125   0.746
63570W        W35995  15.284  38.562  11.604
63571W        W35996  14.147   5.415  14.772
63572W        W35997  38.493  11.775   2.185
63573W        W35998  29.547  21.178  10.083
63574W        W35999  24.531   4.222   0.410
63575W        W36000  12.767  21.210  12.986
63576W        W36001  26.505  19.222   2.194
63577W        W36002  17.297   0.894   4.632
63578W        W36003   6.861  33.893   2.672
63579W        W36004   9.239  31.140  10.984
63580W        W36005  35.014  28.066  10.457
63581W        W36006  38.520  44.978   0.777
63582W        W36007   6.360  39.930  10.556
63583W        W36008  25.470  11.245   0.279
63584W        W36009  36.414  18.710   3.754
63585W        W36010  42.982  21.127  10.575
63586W        W36011  17.617  21.259  12.357
63587W        W36012  10.782   2.431   4.319
63588W        W36013  20.702  29.444   0.728
63589W        W36014  30.049   7.401   2.804
63590W        W36015  29.169  23.091  10.421
63591W        W36016  27.512  32.486   0.391
63592W        W36017  30.514  34.100  10.614
63593W        W36018  29.116  13.181   0.829
63594W        W36019  42.897  34.603   0.424
63595W        W36020  37.364  12.759   0.879
63596W        W36021  15.173  43.766   2.890
63597W        W36022  42.782   6.310  12.442
63598W        W36023  14.670   3.349  11.421
63599W        W36024  21.238  36.589   4.736
63600W        W36025  30.000  39.926   4.630
63601W        W36026  10.179  37.943  10.905
63602W        W36027  15.725  32.938  11.020
63603W        W36028  35.907   9.760   0.353
63604W        W36029  17.097  43.445  10.891
63605W        W36030  11.854  21.062  14.402
63606W        W36031  44.789  15.234   4.740
63607W        W36032  21.142  15.132  10.011
63608W        W36033  21.238   0.897  11.497
63609W        W36034  31.504  39.458  13.895
63610W        W36035  21.217  32.121  11.456
63611W        W36036  27.008   8.874   2.343
63612W        W36037  16.689   6.303  11.973
63613W        W36038  25.194   2.400   3.228
63614W        W36039  41.532  39.843   4.234
63615W        W36040   7.817  36.484   1.695
63616W        W36041  15.725   3.915  12.579
63617W        W36042  36.908  18.075   1.326
63618W        W36043  24.687  29.118  10.502
63619W        W36044  39.414  24.019   1.788
63620W        W36045  11.734  16.281  14.992
63621W        W36046  19.704   1.741   3.173
63622W        W36047   7.770   3.296  10.410
63623W        W36048  18.186  36.372   0.424
63624W        W36049  44.907  36.893  10.466
63625W        W36050   1.757   0.304  12.963
63626W        W36051  25.482   2.333  12.011
63627W        W36052   4.815   3.791   1.263
63628W        W36053  23.096  22.683  12.456
63629W        W36054  26.028   0.382  12.440
63630W        W36055  32.545  18.186   3.812
63631W        W36056  13.162   8.310  12.997
63632W        W36057   2.390   6.730   4.228
63633W        W36058   8.256  32.462  14.300
63634W        W36059   0.923  10.699   2.808
63635W        W36060  22.081  41.835   3.835
63636W        W36061  27.142  16.198   4.321
63637W        W36062  12.175  36.462  11.969
63638W        W36063  14.620  28.124  13.058
63639W        W36064  11.638  23.568   3.851
63640W        W36065  26.509  38.527  11.994
63641W        W36066  12.758  11.739   3.288
63642W        W36067  24.208  24.487  14.841
63643W        W36068  34.009  26.486   3.202
63644W        W36069  29.992  28.985  13.858
63645W        W36070   2.879  11.777   1.216
63646W        W36071   4.378  12.148   0.355
63647W        W36072   3.260  37.411  11.587
63648W        W36073   4.778  39.320  12.401
63649W        W36074  43.995  41.969   3.196
63650W        W36075   2.903   6.321   4.700
63651W        W36076  19.581  28.170  12.390
63652W        W36077  42.430  10.811   1.385
63653W        W36078  28.021   7.763  10.641
63654W        W36079   5.701  29.514   2.395
63655W        W36080   6.416   0.776   0.471
63656W        W36081  18.185  23.499  13.449
63657W        W36082  10.219  15.092   1.907
63658W        W36083   2.259  44.759   3.158
63659W        W36084  11.793  22.201   1.893
63660W        W36085   5.727  24.143   3.260
63661W        W36086  43.492   9.660  12.557
63662W        W36087  36.501  23.496   0.279
63663W        W36088  12.672  22.223  13.404
63664W        W36089  12.350  32.464   1.413
63665W        W36090  37.397  21.200   5.247
63666W        W36091  27.540  21.189   4.627
63667W        W36092  17.572   8.782   3.646
63668W        W36093  38.452  42.801  12.479
63669W        W36094  33.966  41.883   2.707
63670W        W36095  42.011  31.908   3.654
63671W        W36096  11.684  31.977   3.729
63672W        W36097  20.639  29.552   1.421
63673W        W36098  10.636  17.655   0.921
63674W        W36099  24.628   5.334   0.265
63675W        W36100  12.247  26.035   2.663
63676W        W36101  44.309  38.444  11.562
63677W        W36102  14.627  35.470   4.155
63678W        W36103   9.882  32.491  12.502
63679W        W36104   3.346  13.293  10.894
63680W        W36105   3.807  24.183   1.737
63681W        W36106  17.585  10.696   0.842
63682W        W36107  17.273  27.002  11.025
63683W        W36108  10.189  26.199   2.386
63684W        W36109  20.578  11.367  12.960
63685W        W36110  25.638  17.647   3.852
63686W        W36111  21.248  22.704  13.456
63687W        W36112   1.288  12.636   0.882
63688W        W36113  10.162  42.855  14.305
63689W        W36114  33.954  22.585  14.421
63690W        W36115  29.023  34.593  10.636
63691W        W36116  28.588  24.087   3.305
63692W        W36117  13.612  32.137  12.089
63693W        W36118  39.927   0.308  13.368
63694W        W36119   7.730   7.676  10.989
63695W        W36120   0.953  11.845   2.811
63696W        W36121  27.464   2.876   3.186
63697W        W36122   7.703   8.178  13.502
63698W        W36123  35.465  42.027  11.075
63699W        W36124  25.513  25.139  13.374
63700W        W36125  22.064  18.277  14.466
63701W        W36126  33.590  28.132  11.865
63702W        W36127  41.932  20.100   4.716
63703W        W36128   3.390   4.767  13.863
63704W        W36129  29.450  42.342   0.948
63705W        W36130   8.219   8.784   0.851
63706W        W36131  14.751  43.879  14.904
63707W        W36132  16.207  11.809  13.421
63708W        W36133  40.798  16.103   3.314
63709W        W36134  35.065  43.295   2.761
63710W        W36135   9.772  10.335   4.625
63711W        W36136  35.475  42.891  13.518
63712W        W36137  20.579   6.252  12.054
63713W        W36138  35.443   4.924  12.994
63714W        W36139  18.210  15.775   1.382
63715W        W36140   1.474   0.824   4.739
63716W        W36141  44.383  14.749   3.295
63717W        W36142  17.116  25.029   4.828
63718W        W36143  34.949  13.317   4.831
63719W        W36144  35.401  18.280  13.491
63720W        W36145  32.549  44.423   1.795
63721W        W36146  22.707  12.353  10.410
63722W        W36147  30.508  42.021  11.926
63723W        W36148  43.985   6.250  12.993
63724W        W36149  27.120  29.545   3.152
63725W        W36150   7.734  11.336   1.841
63726W        W36151  37.407  12.733   3.780
63727W        W36152   5.266  30.423   3.680
63728W        W36153   3.896  15.772  13.000
63729W        W36154   7.707  23.658   4.813
63730W        W36155  41.968  24.501   4.300
63731W        W36156  41.996  12.612   4.279
63732W        W36157  20.184   2.358  10.553
63733W        W36158  36.934   2.828   4.215
63734W        W36159  27.956  20.586  13.477
63735W        W36160  22.200  14.127  13.416
63736W        W36161  40.849  40.814  12.414
63737W        W36162  42.303  32.531   0.250
63738W        W36163   8.343  36.548   2.752
63739W        W36164  10.342  22.222  14.482
63740W        W36165  32.417  21.200   3.688
63741W        W36166   1.407  40.395  10.637
63742W        W36167  44.773  29.146  12.974
63743W        W36168  36.955  25.531  13.438
63744W        W36169  11.253   2.269   3.779
63745W        W36170   2.811  38.862  12.521
63746W        W36171  35.004  26.488   5.214
63747W        W36172  25.013  28.099  13.821
63748W        W36173  26.189  17.229  10.609
63749W        W36174  20.092  17.095   3.738
63750W        W36175  13.631  39.551   0.376
63751W        W36176  25.509  35.576   1.829
63752W        W36177  25.547  30.572   4.336
63753W        W36178  12.287  25.660  10.578
63754W        W36179  24.019  29.439  12.880
63755W        W36180  39.504  20.145   0.384
63756W        W36181  13.263  33.961  13.979
63757W        W36182  18.150  26.530  14.903
63758W        W36183  11.818  12.258  10.909
63759W        W36184  16.641   4.861   4.232
63760W        W36185   8.328  27.997  12.076
63761W        W36186  40.826  15.172  10.413
63762W        W36187  15.256   8.875   2.309
63763W        W36188  42.869  41.498   3.149
63764W        W36189  23.138   9.290  14.823
63765W        W36190  11.274  12.332  13.857
63766W        W36191  31.025  36.940  10.995
63767W        W36192  22.024  38.927  13.944
63768W        W36193  39.517   8.353  13.538
63769W        W36194  33.115  13.705   4.148
63770W        W36195   1.798   6.776   1.781
63771W        W36196   8.323  17.616  12.459
63772W        W36197  31.974  24.579  14.798
63773W        W36198  33.552  14.113  11.110
63774W        W36199  15.190  13.110  13.981
63775W        W36200   5.401   5.699   3.296
63776W        W36201  13.700  11.630   3.747
63777W        W36202  44.318  13.266   0.407
63778W        W36203  44.785  28.151  13.366
63779W        W36204  27.560  32.890   2.836
63780W        W36205  40.387  33.057  11.911
63781W        W36206  26.548   4.399  14.771
63782W        W36207  42.899  12.347  14.022
63783W        W36208   6.704  34.044  13.851
63784W        W36209  30.009   6.303  14.783
63785W        W36210  12.135   4.879  14.366
63786W        W36211   1.870  35.382   1.451
63787W        W36212  15.723   9.387  10.535
63788W        W36213  41.828  27.064   3.215
63789W        W36214  25.562  22.620  11.529
63790W        W36215  38.853  26.530  14.440
63791W        W36216  13.774  23.993   2.327
63792W        W36217   9.338  21.026   0.252
63793W        W36218  32.064  39.047  12.430
63794W        W36219  24.623   9.173   3.278
63795W        W36220  34.557   2.741  14.766
63796W        W36221  44.333  35.496  10.406
63797W        W36222  18.098  34.584  14.827
63798W        W36223  38.514  28.069  10.906
63799W        W36224   7.910   8.187  14.939
63800W        W36225  22.746  44.418   2.765
63801W        W36226  36.060  37.411  11.938
63802W        W36227   8.363  20.196   3.757
63803W        W36228  29.025  44.264   2.214
63804W        W36229  13.763  41.474   1.246
63805W        W36230  17.686   6.254  14.790
63806W        W36231  38.461  36.397  12.967
63807W        W36232  14.271  21.525   4.265
63808W        W36233  41.903  30.034   0.923
63809W        W36234  37.445  34.048  11.050
63810W        W36235  17.621  10.310   1.213
63811W        W36236  33.574  25.217  14.382
63812W        W36237  30.609   6.888   3.702
63813W        W36238   8.238  32.407   0.801
63814W        W36239  44.393  25.531  14.949
63815W        W36240  28.606  43.451   1.934
63816W        W36241  43.925   0.296  10.530
63817W        W36242   8.716  24.613   1.731
63818W        W36243  34.377  26.103   2.195
63819W        W36244  10.178  12.680   2.852
63820W        W36245  37.562  18.183   2.701
63821W        W36246  10.685  33.913   3.344
63822W        W36247  25.991  28.984   3.818
63823W        W36248  35.871  30.533  11.913
63824W        W36249  43.881  10.853  11.446
63825W        W36250  28.173  20.122  14.804
63826W        W36251  11.746  23.547  12.341
63827W        W36252  15.595  42.810   0.359
63828W        W36253  26.460  17.714  13.538
63829W        W36254  31.498  11.670  10.562
63830W        W36255  18.262  37.896  12.502
63831W        W36256  25.966  20.600   4.276
63832W        W36257  44.805  19.614  13.932
63833W        W36258  35.868  10.205   2.821
63834W        W36259  27.096  41.385  10.473
63835W        W36260  32.104  31.089   1.304
63836W        W36261  40.323   6.219  11.407
63837W        W36262  20.702  13.346   3.324
63838W        W36263  29.155   2.302   2.737
63839W        W36264  32.974  38.490  13.006
63840W        W36265   7.235  43.408   2.341
63841W        W36266   8.700  24.496  11.446
63842W        W36267  36.456  21.667   3.755
63843W        W36268   7.837  17.673  11.859
63844W        W36269  24.015  19.237  12.560
63845W        W36270   2.885  27.516  12.454
63846W        W36271   6.288  14.633  14.917
63847W        W36272  25.482  40.909  11.860
63848W        W36273  12.232   4.771  11.585
63849W        W36274  17.234  25.527   3.790
63850W        W36275  28.968  28.111   1.886
63851W        W36276  28.651   7.842   1.763
63852W        W36277  36.036  12.674   4.232
63853W        W36278  42.490  34.462   2.796
63854W        W36279  33.103  44.875   2.207
63855W        W36280  42.419   6.838   3.323
63856W        W36281   4.337   2.412   2.248
63857W        W36282  23.532  44.493  13.493
63858W        W36283  21.683  33.579  13.881
63859W        W36284   2.872  28.533   1.898
63860W        W36285  31.456   3.248   4.721
63861W        W36286   6.200  33.596  11.537
63862W        W36287  19.774  40.494  13.948
63863W        W36288  18.777  21.206   5.097
63864W        W36289  44.349  37.344   4.133
63865W        W36290  41.480  12.270  14.846
63866W        W36291   5.439  30.101   2.889
63867W        W36292  10.849   8.707  12.443
63868W        W36293  41.337  15.711  10.477
63869W        W36294  15.696  36.377  14.957
63870W        W36295  33.583  26.962  13.859
63871W        W36296  26.208  14.811   4.212
63872W        W36297  23.069  34.566  12.541
63873W        W36298   8.403  10.265   5.239
63874W        W36299   4.730  31.104   0.296
63875W        W36300  15.164  21.708  10.999
63876W        W36301  29.655  43.802   4.794
63877W        W36302  32.540  11.720  11.009
63878W        W36303  42.523  17.067  11.078
63879W        W36304  40.848   6.802   0.318
63880W        W36305  10.713  11.351   1.269
63881W        W36306  14.204  44.422  12.499
63882W        W36307  25.084  39.521   0.808
63883W        W36308  12.294  43.867   2.358
63884W        W36309  39.427  17.285   2.377
63885W        W36310   0.742  34.608  13.466
63886W        W36311  29.921  29.163   0.307
63887W        W36312  25.043  32.063   5.114
63888W        W36313   8.296   0.275  13.489
63889W        W36314   5.350   0.347   0.427
63890W        W36315  32.955  19.755  13.057
63891W        W36316  36.968  14.304  14.879
63892W        W36317  17.702  30.157  14.352
63893W        W36318  37.026  44.869  11.024
63894W        W36319  17.619  25.561  13.958
63895W        W36320  39.359  12.173   2.813
63896W        W36321  14.238  25.051  11.522
63897W        W36322  25.183  12.162  10.405
63898W        W36323  41.485  37.439   1.385
63899W        W36324  33.483  36.929  14.483
63900W        W36325  14.815  19.556   1.866
63901W        W36326  14.674   7.358  11.929
63902W        W36327  29.114  44.455   3.864
63903W        W36328  10.820  33.935  12.012
63904W        W36329   8.791  44.955  11.957
63905W        W36330  19.189  41.889  11.454
63906W        W36331  38.016   4.929  10.496
63907W        W36332  17.281   5.754   0.794
63908W        W36333  31.013  28.542  11.592
63909W        W36334  14.750  14.812  10.471
63910W        W36335  38.834   8.813  10.143
63911W        W36336   2.741   5.201  11.381
63912W        W36337  31.429  24.145  10.911
63913W        W36338  33.601  34.572   3.861
63914W        W36339  25.480  28.455  14.975
63915W        W36340  10.377  31.480   5.140
63916W        W36341   8.826   8.753   0.457
63917W        W36342  19.668  29.452  13.403
63918W        W36343  31.024  28.563   4.817
63919W        W36344   6.204  16.174  10.973
63920W        W36345  27.489  13.650  12.506
63921W        W36346  21.691  29.640  12.519
63922W        W36347  11.851  29.519  14.856
63923W        W36348  28.979  12.652   4.819
63924W        W36349  18.632   2.830   2.686
63925W        W36350  43.277   0.383   3.786
63926W        W36351  31.021   9.367   3.197
63927W        W36352  35.918  31.103   3.351
63928W        W36353  32.533  13.117  12.555
63929W        W36354  43.447   9.702   1.849
63930W        W36355  17.114  22.592   4.295
63931W        W36356  25.483  23.623  14.386
63932W        W36357   8.237   3.843   0.738
63933W        W36358  38.325  33.423  10.624
63934W        W36359  17.694  31.444   2.688
63935W        W36360  39.808  39.343   3.375
63936W        W36361  35.046  27.179   3.640
63937W        W36362  17.663  17.748  10.954
63938W        W36363  35.408  33.019  12.515
63939W        W36364  31.455  35.584  14.399
63940W        W36365  22.118   9.807  12.087
63941W        W36366   8.174  22.552  13.029
63942W        W36367   4.700  22.584   4.198
63943W        W36368  29.112   1.478  12.042
63944W        W36369  16.637  14.308  11.391
63945W        W36370   4.208  15.580  14.866
63946W        W36371  13.235  19.709   1.340
63947W        W36372   6.900  13.270  11.024
63948W        W36373  15.790  30.425   2.232
63949W        W36374  39.451  32.899   1.287
63950W        W36375  27.032  24.562  14.027
63951W        W36376  23.683  29.080  12.999
63952W        W36377   0.766   7.398  13.440
63953W        W36378  31.468  10.211  11.567
63954W        W36379  17.214  29.592   3.332
63955W        W36380  29.014  43.961  10.944
63956W        W36381  27.501  14.682   4.680
63957W        W36382  32.033   7.885   3.733
63958W        W36383  17.231  38.516  13.311
63959W        W36384  31.914  32.984   3.246
63960W        W36385  15.116  42.416   1.281
63961W        W36386  39.983  19.776  13.892
63962W        W36387  36.420  12.305   3.230
63963W        W36388   4.203  26.565  10.606
63964W        W36389   1.788  37.950  10.564
63965W        W36390   2.966  43.915   0.854
63966W        W36391  24.190  41.300  13.981
63967W        W36392   5.294   8.719  13.541
63968W        W36393  14.250  11.163   3.240
63969W        W36394  17.593  20.098  14.412
63970W        W36395  10.772  28.053   0.923
63971W        W36396   2.452  27.171   1.844
63972W        W36397  27.483  15.178  11.594
63973W        W36398   2.808  29.636  12.022
63974W        W36399  33.129   1.477  12.479
63975W        W36400  21.198  37.360   2.293
63976W        W36401  17.283  37.833  11.933
63977W        W36402  36.078  33.878  11.608
63978W        W36403  13.690  12.754  12.352
63979W        W36404  24.159  11.731  10.557
63980W        W36405  40.522  32.533  11.540
63981W        W36406  41.863  13.259   3.772
63982W        W36407  29.499  34.513  10.897
63983W        W36408  11.294  32.421  11.427
63984W        W36409  11.727  38.559   3.189
63985W        W36410  32.557  36.498   2.318
63986W        W36411  16.745   4.265   1.873
63987W        W36412  25.113  31.478   1.375
63988W        W36413  18.154  37.003   2.381
63989W        W36414  21.548  36.928   2.323
63990W        W36415  27.993  23.567  14.965
63991W        W36416  35.078   3.844  12.844
63992W        W36417  18.244   7.897  10.605
63993W        W36418  33.995  10.717  11.440
63994W        W36419  29.989  10.337  14.446
63995W        W36420  14.340  27.985   4.809
63996W        W36421  10.810  18.637   4.297
63997W        W36422   4.222  23.047   0.898
63998W        W36423  44.416  14.795   1.399
63999W        W36424  38.868  38.060  11.511
64000W        W36425  15.640   8.857   1.743
64001W        W36426   3.847  13.280   0.278
64002W        W36427  27.507  13.696   2.235
64003W        W36428  43.945  39.410   2.198
64004W        W36429  15.274  42.979  12.573
64005W        W36430  38.851   2.303  10.631
64006W        W36431  43.316   3.325  12.406
64007W        W36432  23.095  30.435  12.905
64008W        W36433  26.079  29.028   1.423
64009W        W36434  37.847  39.901   4.620
64010W        W36435  29.593   6.781   3.333
64011W        W36436  35.509   6.200   4.836
64012W        W36437  12.645  11.152   0.965
64013W        W36438  38.530  28.179  12.460
64014W        W36439  43.927  41.446   4.780
64015W        W36440  23.987  19.198  14.356
64016W        W36441  23.237  15.802  11.966
64017W        W36442  25.547  31.612  14.024
64018W        W36443  29.008  14.650   0.922
64019W        W36444  21.241  24.638   0.879
64020W        W36445  37.529   7.794  14.012
64021W        W36446   7.229  41.396   2.805
64022W        W36447  33.880  37.905  13.440
64023W        W36448  17.188  27.486  13.995
64024W        W36449   1.799  26.009  13.863
64025W        W36450  21.166  17.306  12.480
64026W        W36451  32.561  21.129  12.907
64027W        W36452  36.045   9.281  14.357
64028W        W36453  16.774  29.128  11.465
64029W        W36454  15.736   7.397  14.494
64030W        W36455  40.505  27.549   2.855
64031W        W36456   5.903  31.539   0.961
64032W        W36457  37.971  40.421   2.244
64033W        W36458  23.994  22.709  13.442
64034W        W36459   5.779  21.073  11.998
64035W        W36460  35.877   0.286   0.826
64036W        W36461  29.547  19.717  14.283
64037W        W36462   7.368  19.780  11.907
64038W        W36463  26.065  11.702  11.071
64039W        W36464  21.066  15.714   1.214
64040W        W36465  13.287  32.067   5.179
64041W        W36466  41.900  42.872  12.015
64042W        W36467  36.900   3.286   3.171
64043W        W36468  34.090   1.964   3.294
64044W        W36469  16.144  40.408   1.880
64045W        W36470  31.926  17.740   4.148
64046W        W36471  22.574  38.459  14.969
64047W        W36472  12.331  15.104  10.983
64048W        W36473  24.095  17.713  11.445
64049W        W36474  11.807  13.781   1.226
64050W        W36475  33.616  35.957   3.335
64051W        W36476  35.043   7.848  12.377
64052W        W36477  38.076  17.795   2.368
64053W        W36478  11.367   5.875  10.147
64054W        W36479   4.226  28.480  13.407
64055W        W36480  18.555  38.072   0.921
64056W        W36481  32.500   2.832   3.869
64057W        W36482  32.962  37.962  14.826
64058W        W36483   3.264  34.446  13.010
64059W        W36484  13.192  29.606   2.886
64060W        W36485  15.647   5.420   0.797
64061W        W36486  31.505   3.272  14.411
64062W        W36487  31.584  29.935   0.777
64063W        W36488  20.100  28.620   4.683
64064W        W36489  37.451   3.298  14.323
64065W        W36490  38.845  12.236  10.499
64066W        W36491  44.904   3.336   0.804
64067W        W36492  14.319  33.575   3.854
64068W        W36493  37.551  39.050  10.529
64069W        W36494  22.641  40.416   3.254
64070W        W36495  16.161  32.997   1.312
64071W        W36496  42.476  23.093   3.319
64072W        W36497  39.882  11.649  11.590
64073W        W36498  26.523  29.603  14.494
64074W        W36499  25.034  33.570  12.889
64075W        W36500   6.768  11.132  14.967
64076W        W36501  36.075  18.545  14.812
64077W        W36502  43.865  43.775   0.354
64078W        W36503  26.504   4.927  11.494
64079W        W36504  11.255  13.127   2.400
64080W        W36505  18.167  15.776  13.510
64081W        W36506  39.331   4.205   0.937
64082W        W36507  10.825   6.792  10.038
64083W        W36508  30.037  31.035   4.317
64084W        W36509  13.180  33.986  14.481
64085W        W36510  19.674  23.658   4.712
64086W        W36511   4.712  20.218   3.300
64087W        W36512  42.846  30.969  14.422
64088W        W36513   4.298  27.180   2.757
64089W        W36514  17.571  17.233   1.417
64090W        W36515  29.532  27.619  11.563
64091W        W36516  27.602  37.451   1.729
64092W        W36517   7.674   6.206   0.259
64093W        W36518  35.413  19.774   1.402
64094W        W36519  28.482   7.349   0.812
64095W        W36520  20.755   6.303   4.819
64096W        W36521  18.672  40.446   1.695
64097W        W36522  42.859  17.688  13.517
64098W        W36523  27.000  35.923   5.182
64099W        W36524  17.129   4.304  13.813
64100W        W36525  29.107  22.153   4.311
64101W        W36526  41.832   2.737   1.305
64102W        W36527  16.740  42.326  12.844
64103W        W36528  31.582   0.382  11.046
64104W        W36529  43.354  31.987  12.356
64105W        W36530  40.043  43.411   4.136
64106W        W36531  23.230  31.012   1.370
64107W        W36532   9.230   5.380  12.559
64108W        W36533  23.162  32.961   1.316
64109W        W36534  41.454  11.372   3.319
64110W        W36535   0.437  39.810   3.178
64111W        W36536   3.271  37.537   0.432
64112W        W36537  28.150  11.827   0.303
64113W        W36538  13.814   2.456   0.735
64114W        W36539  24.531   8.270   1.893
64115W        W36540  28.542  43.780  11.573
64116W        W36541  14.776   1.835  12.892
64117W        W36542  18.197   1.892  14.796
64118W        W36543  20.657  36.457   3.198
64119W        W36544   3.794   2.841  10.968
64120W        W36545  27.085  44.857   4.681
64121W        W36546  28.481   5.427   3.634
64122W        W36547  39.835  41.450  10.975
64123W        W36548  19.268  10.262   3.848
64124W        W36549  23.161   7.327  11.086
64125W        W36550  18.245  40.478  10.484
64126W        W36551   3.812  35.521   2.212
64127W        W36552  29.430  13.632  10.565
64128W        W36553  25.973   8.661  14.914
64129W        W36554  19.046  14.771   0.805
64130W        W36555  12.126  31.957  14.787
64131W        W36556   6.828  24.529   1.845
64132W        W36557  13.105  26.557   4.681
64133W        W36558  37.042  41.464   3.292
64134W        W36559   3.329   9.844   3.752
64135W        W36560  41.982  15.262   4.707
64136W        W36561  21.716  18.623  14.499
64137W        W36562  18.126  32.118   3.742
64138W        W36563  40.854  32.937   2.887
64139W        W36564  44.370  29.454   2.765
64140W        W36565  22.036  38.023  13.795
64141W        W36566  41.538   6.713  14.352
64142W        W36567  29.440  44.323  12.843
64143W        W36568  20.625  32.969  13.328
64144W        W36569  43.506  38.358  12.505
64145W        W36570  16.273  32.966   2.346
64146W        W36571   3.717  18.149   3.808
64147W        W36572   5.878  17.209   0.297
64148W        W36573  23.515  34.001   4.611
64149W        W36574  29.934   4.244  14.376
64150W        W36575  41.917  31.601   3.822
64151W        W36576  11.746  21.158   0.909
64152W        W36577  19.129  23.079   2.665
64153W        W36578   0.489  12.291  13.935
64154W        W36579  26.008  37.072  10.641
64155W        W36580  12.149  33.020  14.803
64156W        W36581  13.727  11.230  11.085
64157W        W36582   9.857  14.193  12.511
64158W        W36583  11.789  16.668  11.552
64159W        W36584  36.447  13.124   3.681
64160W        W36585  13.725  38.342   0.257
64161W        W36586  39.449   0.885  12.410
64162W        W36587  21.200  39.869   4.667
64163W        W36588  36.031  19.190  13.360
64164W        W36589  25.992  13.827  11.500
64165W        W36590  33.051  42.956   1.701
64166W        W36591  37.437   7.769   4.123
64167W        W36592  37.846  44.260  11.501
64168W        W36593   0.434  14.754   1.824
64169W        W36594  33.584  39.939   0.956
64170W        W36595   3.729  29.065  14.401
64171W        W36596  17.194   7.313   5.137
64172W        W36597  41.512  41.860   4.167
64173W        W36598  26.600  25.091  11.409
64174W        W36599  16.316   2.959  14.956
64175W        W36600  22.238   2.867   4.707
64176W        W36601  29.033  34.074   1.358
64177W        W36602  21.092   9.793  14.955
64178W        W36603   0.762  10.665   2.208
64179W        W36604   3.273  23.047  11.433
64180W        W36605  33.899  12.339   0.871
64181W        W36606  17.265  42.393   0.896
64182W        W36607  32.987  25.058   4.610
64183W        W36608  11.712  35.000  14.776
64184W        W36609  20.257  18.250   2.699
64185W        W36610  30.653   8.346   4.122
64186W        W36611   5.387   3.254  12.068
64187W        W36612  36.913  33.084  13.344
64188W        W36613  38.877  10.870   3.766
64189W        W36614  29.967  33.058   1.278
64190W        W36615  25.037  19.721  14.932
64191W        W36616  22.526   4.219   0.442
64192W        W36617  32.410   2.278   1.933
64193W        W36618  37.881  27.468   1.710
64194W        W36619   4.309  32.460  14.409
64195W        W36620  34.496  17.711  14.022
64196W        W36621   8.873  13.742   2.745
64197W        W36622  23.555  43.985  13.488
64198W        W36623   6.392  39.871   3.830
64199W        W36624  37.525  13.601   0.749
64200W        W36625  28.163  15.171   1.922
64201W        W36626  24.709   7.847   3.250
64202W        W36627   1.392  24.159   1.370
64203W        W36628  19.124  13.292  13.014
64204W        W36629  12.813   9.687   4.632
64205W        W36630  18.585  41.962  13.972
64206W        W36631  13.246  38.489   4.785
64207W        W36632   2.804  43.768   0.300
64208W        W36633  44.759   9.843  13.375
64209W        W36634  28.576  30.628  13.031
64210W        W36635  41.911   1.925  12.551
64211W        W36636  37.882   5.764  11.931
64212W        W36637   9.889  25.984  11.091
64213W        W36638  22.999  27.586  13.821
64214W        W36639  21.083  13.614   4.798
64215W        W36640  26.619  28.676  12.444
64216W        W36641   2.304  22.574   3.235
64217W        W36642   3.247  13.643   0.807
64218W        W36643  22.107  40.802  12.037
64219W        W36644   5.267  12.747   4.707
64220W        W36645  42.451  22.505  13.513
64221W        W36646  44.343  33.595  12.044
64222W        W36647  42.358  16.601  10.537
64223W        W36648  43.358   5.819   2.319
64224W        W36649  22.143   3.365  10.457
64225W        W36650  32.978  37.026   4.829
64226W        W36651  16.164  34.485   3.707
64227W        W36652  35.876  41.404  14.390
64228W        W36653  27.528  29.613   4.615
64229W        W36654  23.060  37.005  13.976
64230W        W36655  33.885  44.367  10.473
64231W        W36656  35.916   4.873  14.319
64232W        W36657  28.665   5.292  13.354
64233W        W36658  17.561  21.572   4.182
64234W        W36659  39.822  31.494   0.308
64235W        W36660  33.431  39.499   0.463
64236W        W36661  44.394  24.155   5.249
64237W        W36662  32.058   5.766  11.122
64238W        W36663   4.929  38.354   3.804
64239W        W36664  35.562  33.959   0.778
64240W        W36665  43.847  31.025  11.059
64241W        W36666  36.454  14.637   1.329
64242W        W36667  20.543  20.720  13.020
64243W        W36668  20.195  15.752  14.003
64244W        W36669  30.152  34.985  10.526
64245W        W36670  11.798  17.748  12.938
64246W        W36671  11.172  40.976  10.930
64247W        W36672  33.100  36.448   2.192
64248W        W36673   3.217  36.976   4.629
64249W        W36674  12.700   6.206   1.803
64250W        W36675  41.023  18.104   2.867
64251W        W36676  44.359  18.721   1.385
64252W        W36677  37.392  29.429  13.506
64253W        W36678  28.662   3.752  14.937
64254W        W36679  32.946  35.494   2.302
64255W        W36680   5.347  17.600   4.666
64256W        W36681   8.243  11.206   4.198
64257W        W36682  19.088  26.538  10.427
64258W        W36683  39.924  41.980   9.562
64259W        W36684  14.280  40.979  10.636
64260W        W36685   7.855  41.891  11.468
64261W        W36686  44.488  30.464   0.245
64262W        W36687  32.064  15.141  10.442
64263W        W36688  23.182  14.777   1.277
64264W        W36689  34.569   0.271  13.530
64265W        W36690  21.517  10.148  12.894
64266W        W36691  20.180  25.005   0.372
64267W        W36692  26.106   5.761  14.403
64268W        W36693  28.018  39.325   2.718
64269W        W36694  29.960  42.360   0.771
64270W        W36695  37.909  17.164   4.710
64271W        W36696  31.445  31.578   0.812
64272W        W36697  24.542  27.158   4.313
64273W        W36698  12.734  13.819   2.835
64274W        W36699  10.287   3.414  10.464
64275W        W36700  31.509  27.974  11.465
64276W        W36701  37.461  42.986  10.527
64277W        W36702  40.392  24.025  14.418
64278W        W36703  27.606   5.304  14.377
64279W        W36704  24.565   5.703   1.411
64280W        W36705  31.052  17.164  14.277
64281W        W36706  25.711   8.839   3.385
64282W        W36707  43.798  27.985   3.719
64283W        W36708  37.847  19.538   1.836
64284W        W36709  37.530   8.787  13.456
64285W        W36710  33.901  28.135   1.828
64286W        W36711   2.883  44.297  13.008
64287W        W36712  40.896  22.251  13.007
64288W        W36713  36.993   9.648  12.040
64289W        W36714  25.143   0.896  11.857
64290W        W36715   7.230  22.746  14.472
64291W        W36716  28.484  17.203   4.726
64292W        W36717  23.530  11.722  14.904
64293W        W36718  22.117   4.762  13.902
64294W        W36719  34.976  26.012  10.941
64295W        W36720  11.707  26.997  11.507
64296W        W36721  20.247  30.921   0.748
64297W        W36722   4.822  16.186   3.745
64298W        W36723  39.355  40.352  14.813
64299W        W36724  38.453  44.862  10.579
64300W        W36725  26.087  13.759  11.865
64301W        W36726  31.623  40.928  13.541
64302W        W36727  37.378  16.613   0.919
64303W        W36728  31.099  18.716  12.487
64304W        W36729  11.723  18.575   3.834
64305W        W36730   1.332  32.448  12.342
64306W        W36731  31.446   7.831   1.305
64307W        W36732   9.149   2.355   2.380
64308W        W36733   5.206   4.838   2.857
64309W        W36734   3.884  43.368   2.189
64310W        W36735  19.565  23.645  12.981
64311W        W36736  25.190   3.792  12.970
64312W        W36737   5.350  42.810   4.660
64313W        W36738  29.121  15.779  11.461
64314W        W36739  16.150  24.981   5.316
64315W        W36740  30.592   9.337  11.931
64316W        W36741   5.746  44.917  11.490
64317W        W36742  25.056   5.329  10.421
64318W        W36743  44.920  13.280   3.296
64319W        W36744  28.081  40.001  12.010
64320W        W36745  22.016  14.265   4.115
64321W        W36746  38.369  39.527  13.508
64322W        W36747  42.779  32.095  14.966
64323W        W36748  25.051  35.565  12.899
64324W        W36749  10.759   4.443   4.752
64325W        W36750  28.038  43.397   0.427
64326W        W36751  40.481   2.300  14.941
64327W        W36752   9.222  41.857   0.284
64328W        W36753   7.230  27.630  10.498
64329W        W36754  41.837  13.126  14.818
64330W        W36755  27.177  33.942   1.241
64331W        W36756  36.365   7.278  13.971
64332W        W36757  21.021  19.040   3.715
64333W        W36758  39.322  27.987  11.475
64334W        W36759  21.695  26.991   1.389
64335W        W36760  19.072  32.443   5.207
64336W        W36761  34.111  35.568  14.901
64337W        W36762  38.521  29.526   3.370
64338W        W36763  25.546   6.188   2.712
64339W        W36764   9.302   4.699  10.525
64340W        W36765  33.616  43.442  14.421
64341W        W36766   3.849  27.109   1.348
64342W        W36767   9.386  23.636   1.746
64343W        W36768   5.345  14.317   0.783
64344W        W36769   9.830   0.969   2.299
64345W        W36770  14.178  18.100  11.070
64346W        W36771  10.832  12.230  10.436
64347W        W36772  19.610  35.893   1.830
64348W        W36773  32.469  38.836  13.006
64349W        W36774  20.118  30.542  13.875
64350W        W36775   8.292  33.394  10.152
64351W        W36776  12.341   8.753  13.921
64352W        W36777   5.872  31.479   2.857
64353W        W36778  40.883  20.735  11.938
64354W        W36779  22.536  29.133   1.259
64355W        W36780  28.930  29.445  13.309
64356W        W36781  17.173  43.326  13.444
64357W        W36782  29.528   4.292   3.366
64358W        W36783  12.283  14.236   1.439
64359W        W36784   4.339  22.636  11.556
64360W        W36785   1.871  23.658   4.737
64361W        W36786   7.683  13.773  13.336
64362W        W36787  35.887  25.023  13.021
64363W        W36788  12.209   1.279  11.932
64364W        W36789  41.838  32.926  10.613
64365W        W36790  24.054  34.890  12.983
64366W        W36791  11.791   2.327  12.433
64367W        W36792  40.051  23.110  12.437
64368W        W36793  32.020  41.359   1.769
64369W        W36794  27.652  36.354   4.232
64370W        W36795  23.618  31.453   2.869
64371W        W36796  26.606  11.274   1.799
64372W        W36797  28.498  16.134  10.468
64373W        W36798  42.962  27.049   1.935
64374W        W36799   8.703  23.193  14.352
64375W        W36800  18.711  39.481   2.865
64376W        W36801  38.908  31.140   4.334
64377W        W36802  20.768  38.372   4.662
64378W        W36803  42.843  15.588   1.895
64379W        W36804   5.908  30.966   4.668
64380W        W36805  10.819   7.306  12.423
64381W        W36806   8.657  40.373   3.158
64382W        W36807   6.428  44.481   2.695
64383W        W36808  21.656  12.765   1.401
64384W        W36809  43.318  29.015  13.481
64385W        W36810  12.247   7.854  11.924
64386W        W36811   7.718   2.387  13.467
64387W        W36812  29.581  24.077  10.159
64388W        W36813  43.307   0.858  10.494
64389W        W36814  41.484   4.780  14.401
64390W        W36815  15.260   3.391   2.336
64391W        W36816  44.855  19.150   2.196
64392W        W36817  41.802  33.010   3.720
64393W        W36818  18.788  15.231   3.207
64394W        W36819  19.760  13.118  10.580
64395W        W36820  10.321  43.815   0.914
64396W        W36821  28.510   0.895   0.837
64397W        W36822  28.624  19.154  12.061
64398W        W36823  32.984  28.437   2.349
64399W        W36824  38.872   1.784   3.676
64400W        W36825  39.447  34.101  12.017
64401W        W36826  12.783  43.451  10.939
64402W        W36827   0.872  39.346   3.796
64403W        W36828  44.844  42.966  13.942
64404W        W36829  24.047   2.755  12.956
64405W        W36830  32.566   0.920   0.935
64406W        W36831  12.311  15.606   9.922
64407W        W36832  37.389   8.781  14.931
64408W        W36833   3.779  31.013   3.801
64409W        W36834  34.464  41.365  11.938
64410W        W36835  19.594  30.648  10.888
64411W        W36836   8.672  12.125   2.374
64412W        W36837  16.575  40.842   3.353
64413W        W36838  32.395  22.175  10.939
64414W        W36839   0.266  42.322   4.201
64415W        W36840   4.408  19.669   4.715
64416W        W36841  26.564  15.179   4.318
64417W        W36842  15.809  42.329  14.911
64418W        W36843  18.558   0.837   0.795
64419W        W36844  28.620  16.126  14.016
64420W        W36845  44.380  40.842   2.415
64421W        W36846  36.922   3.766   1.786
64422W        W36847  16.730  38.456   1.882
64423W        W36848   8.697  18.678   1.790
64424W        W36849  37.020  43.421   0.957
64425W        W36850  39.388  14.125  10.433
64426W        W36851  44.903  18.088  10.568
64427W        W36852  32.412  44.847  13.799
64428W        W36853   4.320   9.834   4.730
64429W        W36854  14.155  34.582   0.908
64430W        W36855  17.719  22.576  14.844
64431W        W36856  12.345  41.397   1.423
64432W        W36857  13.258  24.195  10.915
64433W        W36858   2.960  31.582  11.066
64434W        W36859  24.549   6.242   4.820
64435W        W36860  12.134  22.543   4.204
64436W        W36861  43.364  42.847   2.800
64437W        W36862  38.399   1.921  14.768
64438W        W36863  32.612  28.532  14.817
64439W        W36864  44.330  32.409  12.482
64440W        W36865  33.389  42.460   1.870
64441W        W36866  33.005  38.486   1.372
64442W        W36867  37.565  37.086   2.662
64443W        W36868  41.039  38.486   4.287
64444W        W36869  27.156  24.659  11.937
64445W        W36870  14.292  39.065   2.297
64446W        W36871  32.392  14.163   4.240
64447W        W36872  28.490  13.229   4.769
64448W        W36873  30.936  35.927  14.773
64449W        W36874   7.271  14.681  11.479
64450W        W36875  23.637   8.673  14.769
64451W        W36876  10.191  24.639   3.323
64452W        W36877  12.622  37.501   1.930
64453W        W36878  34.376  28.516   0.420
64454W        W36879  42.851   1.732   4.313
64455W        W36880  18.751   3.747   0.847
64456W        W36881  29.553   0.429   0.795
64457W        W36882  28.005   4.208  13.464
64458W        W36883  11.329  10.292   0.446
64459W        W36884   0.420  40.377   3.309
64460W        W36885  43.396  20.039   2.791
64461W        W36886  31.011  21.137   0.453
64462W        W36887   5.692  19.589  14.871
64463W        W36888  13.643  16.692  10.888
64464W        W36889  14.145  31.909   0.464
64465W        W36890  27.583  33.406   5.307
64466W        W36891  38.939  30.117  13.805
64467W        W36892  41.951  41.853   2.663
64468W        W36893  11.211  32.453   0.253
64469W        W36894  26.675  18.551  14.425
64470W        W36895  22.718   7.679  14.285
64471W        W36896  17.661  15.134   0.965
64472W        W36897  41.485   4.874  10.963
64473W        W36898  26.073   3.328   3.831
64474W        W36899  26.495   0.355  11.120
64475W        W36900  42.464  40.527   3.170
64476W        W36901  31.111  41.486   5.276
64477W        W36902  33.937   6.881   4.602
64478W        W36903  31.021   2.893  12.371
64479W        W36904   4.372  27.570   3.635
64480W        W36905  29.533  28.933  11.121
64481W        W36906  34.935  34.604  14.446
64482W        W36907  42.944  35.906  14.010
64483W        W36908  12.339  42.993   4.664
64484W        W36909   8.208  22.582   4.162
64485W        W36910  21.537  31.149   3.163
64486W        W36911  28.510  38.506  11.012
64487W        W36912  23.555  39.004   3.645
64488W        W36913  24.687  32.484  12.508
64489W        W36914  41.968  24.043   3.720
64490W        W36915   9.707  31.600   0.433
64491W        W36916  44.259  39.353   2.709
64492W        W36917  42.426   7.799  11.898
64493W        W36918  11.753  27.520  10.474
64494W        W36919  26.986  14.780   4.636
64495W        W36920  11.705   1.249   1.328
64496W        W36921   9.220  40.484   4.124
64497W        W36922  30.630  15.774  12.362
64498W        W36923  22.233  15.706   1.700
64499W        W36924  40.004   4.214   3.769
64500W        W36925  12.287   2.837   3.202
64501W        W36926  29.548  15.714  12.489
64502W        W36927  29.604   8.673  13.807
64503W        W36928  28.651  10.216   0.246
64504W        W36929  17.145  26.489   1.787
64505W        W36930  44.999  26.682   4.248
64506W        W36931  23.999   1.243  12.466
64507W        W36932  17.560  38.490  13.316
64508W        W36933  36.362   8.253  14.863
64509W        W36934  38.333  29.927  11.588
64510W        W36935  31.621  23.555  11.610
64511W        W36936  27.165  28.435   4.790
64512W        W36937  41.434   3.264   2.743
64513W        W36938   4.222  36.949  13.496
64514W        W36939  33.010  33.540   2.365
64515W        W36940  30.063  10.288  11.928
64516W        W36941  35.856   4.411   2.888
64517W        W36942  39.344  44.754   0.453
64518W        W36943   7.802  15.325  12.979
64519W        W36944  29.478  10.384   4.283
64520W        W36945  35.984  21.118   4.605
64521W        W36946  30.559   9.224  11.426
64522W        W36947   6.374   0.461  13.320
64523W        W36948   2.265  17.197  11.544
64524W        W36949  24.678  30.938  13.432
64525W        W36950  18.639  33.415  11.518
64526W        W36951  16.082  34.452   0.740
64527W        W36952  18.733  36.422  13.847
64528W        W36953  24.030  44.790   1.933
64529W        W36954  35.906  17.281   1.798
64530W        W36955  40.426   1.814  10.408
64531W        W36956   7.403  15.261   1.262
64532W        W36957   9.375  35.021  12.566
64533W        W36958  29.135   2.422  12.517
64534W        W36959   3.397  21.594  10.421
64535W        W36960  36.089  12.653   2.262
64536W        W36961  20.139  36.088   2.252
64537W        W36962  24.008   0.800  12.389
64538W        W36963  32.530  17.103   2.227
64539W        W36964  42.897  16.630  13.546
64540W        W36965  32.596   3.224  10.607
64541W        W36966  28.028  44.808  12.538
64542W        W36967   0.979  19.569  11.453
64543W        W36968  25.219   5.901   4.235
64544W        W36969  28.013  12.811  10.579
64545W        W36970   0.923  37.835   0.778
64546W        W36971  37.917  35.582  10.591
64547W        W36972   5.840  18.107   3.148
64548W        W36973  40.419   4.365   2.215
64549W        W36974  14.733  15.325  12.930
64550W        W36975  10.245  41.453   3.757
64551W        W36976   6.372  32.522   3.291
64552W        W36977  38.970  24.055   1.744
64553W        W36978  16.725   2.903  12.047
64554W        W36979  13.771  20.608  11.590
64555W        W36980  15.581  30.014  13.335
64556W        W36981  33.536   2.961   3.361
64557W        W36982   2.355   7.353  12.499
64558W        W36983  40.876   7.706   1.813
64559W        W36984  25.487  12.659   1.332
64560W        W36985   0.345  35.857  12.077
64561W        W36986   7.310  42.979  10.411
64562W        W36987  40.471  23.566   3.849
64563W        W36988  14.313  36.916  14.999
64564W        W36989  14.255   9.358  13.821
64565W        W36990  38.493  15.185  11.029
64566W        W36991  24.155  32.490   1.413
64567W        W36992  20.031  32.620  10.480
64568W        W36993  30.044  36.918  13.328
64569W        W36994  36.400  11.162   4.131
64570W        W36995   0.340  24.030  11.991
64571W        W36996   2.812   8.210  10.944
64572W        W36997  40.004  33.895  13.058
64573W        W36998   0.304  34.912  13.968
64574W        W36999  38.511  20.635   2.331
64575W        W37000  25.698  42.290  13.451
64576W        W37001  21.116   5.257   0.834
64577W        W37002   2.319  17.162   2.683
64578W        W37003  13.642  25.132   3.384
64579W        W37004  43.830  12.729  12.017
64580W        W37005  28.563  27.637  13.317
64581W        W37006  31.956   3.396  14.958
64582W        W37007  39.855   2.279  13.371
64583W        W37008   7.348   3.750  14.449
64584W        W37009  20.596  20.044  13.497
64585W        W37010  29.576   1.253   2.356
64586W        W37011  43.827  44.932  13.910
64587W        W37012  34.595  11.345   0.781
64588W        W37013  33.400   2.957  11.558
64589W        W37014   4.937  21.705   0.278
64590W        W37015  31.435  31.928  14.931
64591W        W37016  29.602  25.533  14.378
64592W        W37017   2.822   3.237   3.853
64593W        W37018  26.168  21.551   2.313
64594W        W37019   4.346  18.705  11.020
64595W        W37020   2.294   7.741   4.335
64596W        W37021  17.796  37.483   2.669
64597W        W37022  41.019  31.056  13.919
64598W        W37023  16.114   3.320  13.972
64599W        W37024  42.983  21.250   0.464
64600W        W37025   8.375   0.929  10.896
64601W        W37026   1.879  37.848   3.174
64602W        W37027  15.716  17.562  13.963
64603W        W37028  27.581   4.748  14.927
64604W        W37029  25.499  27.690   1.275
64605W        W37030  14.632   2.745   4.218
64606W        W37031  21.668   7.292   3.754
64607W        W37032  38.445  25.504   4.280
64608W        W37033  26.518  33.472   5.227
64609W        W37034  22.115  16.293  12.566
64610W        W37035   5.349  23.565   3.697
64611W        W37036  26.458  35.507  14.802
64612W        W37037  23.163  35.035   0.775
64613W        W37038  42.853   3.315   2.410
64614W        W37039  40.052  12.155  10.914
64615W        W37040  11.231   7.395   2.710
64616W        W37041   2.902  16.635  10.463
64617W        W37042  13.140  43.308   4.822
64618W        W37043  21.668  10.737  10.126
64619W        W37044  40.883  37.503  11.050
64620W        W37045  44.919  43.920   2.827
64621W        W37046  23.586  19.754  13.327
64622W        W37047  41.397  21.188   2.298
64623W        W37048  13.824  41.824   0.941
64624W        W37049  18.286  36.030  14.872
64625W        W37050  18.202  34.441  12.885
64626W        W37051  13.765   2.926   0.829
64627W        W37052  33.885  16.586  11.120
64628W        W37053  16.624  38.968   0.868
64629W        W37054  36.058  42.287  12.928
64630W        W37055   6.693  15.818  14.402
64631W        W37056  23.236  21.066  13.996
64632W        W37057   0.491  25.490  11.979
64633W        W37058  38.504  43.824   3.821
64634W        W37059  17.575  32.623  13.418
64635W        W37060  40.840   1.906   2.221
64636W        W37061  21.721  22.097  13.314
64637W        W37062  32.568  17.665  14.466
64638W        W37063  30.950  28.046   0.823
64639W        W37064  13.139  17.158  12.480
64640W        W37065   0.358  32.999   0.742
64641W        W37066  28.961  28.647  14.329
64642W        W37067  44.981  31.086  11.569
64643W        W37068  28.632  29.644  12.010
64644W        W37069  24.056  22.516   2.885
64645W        W37070  31.625  42.480  10.953
64646W        W37071   1.951  44.296  14.297
64647W        W37072  32.902  28.596  13.035
64648W        W37073  19.247   7.318  13.981
64649W        W37074   2.897  36.976   3.319
64650W        W37075   1.947  22.533  14.901
64651W        W37076  33.497  41.382  11.976
64652W        W37077   0.805  18.126   2.258
64653W        W37078  34.468  32.965  11.991
64654W        W37079  39.521  39.446   2.375
64655W        W37080  22.193  22.724  10.473
64656W        W37081   2.314  13.262  12.564
64657W        W37082  44.368  15.235   0.762
64658W        W37083  25.161  38.391  14.913
64659W        W37084   4.219   8.667   2.867
64660W        W37085  24.154  28.090  10.929
64661W        W37086  38.900  21.200  10.023
64662W        W37087  17.589   6.744  14.863
64663W        W37088  16.614  36.461   4.193
64664W        W37089   8.363  29.027  14.847
64665W        W37090  17.573  28.933   4.302
64666W        W37091  26.590  36.855   0.360
64667W        W37092  44.009  33.044   4.326
64668W        W37093  32.412  24.586  14.480
64669W        W37094  44.793  16.765   4.137
64670W        W37095  27.953  10.172  14.460
64671W        W37096  27.577  34.101   2.846
64672W        W37097  37.481  44.408   1.415
64673W        W37098   0.984   2.315   0.423
64674W        W37099  38.491  37.341   0.416
64675W        W37100   6.696  11.676   2.207
64676W        W37101  19.187  23.087  10.968
64677W        W37102   3.886   3.878   4.658
64678W        W37103  28.078  22.584  12.418
64679W        W37104  39.029  18.756  11.552
64680W        W37105   9.294  38.847   0.296
64681W        W37106  35.437  27.023   3.747
64682W        W37107  12.128   6.352  10.913
64683W        W37108  25.582  22.111  13.487
64684W        W37109  11.336  30.047   3.270
64685W        W37110  12.650  13.244  14.883
64686W        W37111  11.812   0.800   2.389
64687W        W37112  13.699  41.432  12.393
64688W        W37113  26.163  29.585  10.985
64689W        W37114  14.625   2.821  10.968
64690W        W37115  43.910  19.195   4.220
64691W        W37116  25.162  16.131  13.482
64692W        W37117  42.332  39.493  14.419
64693W        W37118  44.974  36.580  13.869
64694W        W37119  12.323  34.565  12.825
64695W        W37120  28.497  37.988  12.442
64696W        W37121   6.232  13.123  11.916
64697W        W37122  22.551  39.499  12.994
64698W        W37123  29.114  30.940  13.409
64699W        W37124  31.111   4.395  11.385
64700W        W37125   9.246  34.394   4.335
64701W        W37126  17.579   0.942   4.155
64702W        W37127   5.737  22.520   2.760
64703W        W37128  21.531  14.733   2.802
64704W        W37129   1.861  32.124   0.360
64705W        W37130  17.274  44.854   1.783
64706W        W37131  34.540  29.566   3.699
64707W        W37132   3.328   2.298   0.476
64708W        W37133  28.636  33.977   1.732
64709W        W37134  24.043  36.351   1.271
64710W        W37135  14.170  27.962   0.928
64711W        W37136   3.293  10.636  14.961
64712W        W37137  40.404   2.417  14.439
64713W        W37138  29.100   1.939   0.325
64714W        W37139  11.679  29.445   1.841
64715W        W37140  34.581  31.575  14.433
64716W        W37141  21.174  35.045   3.660
64717W        W37142  43.499   3.389  11.946
64718W        W37143  28.605   8.821   1.331
64719W        W37144  34.880  22.686  10.139
64720W        W37145  22.521  33.401   1.448
64721W        W37146  42.825   3.874   1.248
64722W        W37147   5.368  11.335   3.294
64723W        W37148  23.056   9.851   1.791
64724W        W37149   6.862  30.576  12.575
64725W        W37150  39.996  28.173   0.285
64726W        W37151  40.999  16.706  12.494
64727W        W37152   6.769  33.408   3.289
64728W        W37153  23.625  11.131   4.135
64729W        W37154  33.523  14.295  11.571
64730W        W37155  14.102  36.905  11.465
64731W        W37156  33.510  29.073  11.494
64732W        W37157   9.261  15.705  10.632
64733W        W37158  29.956  31.417  11.563
64734W        W37159  33.494  15.796  11.063
64735W        W37160  18.206  24.606  14.913
64736W        W37161  39.950  11.691  12.380
64737W        W37162   9.651  15.721  11.094
64738W        W37163  20.197  21.185  11.087
64739W        W37164  42.821  17.063  13.004
64740W        W37165  30.512  16.750   3.712
64741W        W37166  39.933  24.709  11.879
64742W        W37167  40.432  41.931  13.845
64743W        W37168   9.746  23.618  11.949
64744W        W37169   3.857  41.019  10.449
64745W        W37170  37.481  10.783   1.774
64746W        W37171  28.525   4.307  12.454
64747W        W37172   0.834   2.463  14.383
64748W        W37173  17.732  14.226   2.388
64749W        W37174  19.655   7.825  13.848
64750W        W37175   1.908  19.606  13.380
64751W        W37176   6.322  15.183   1.422
64752W        W37177  15.664  26.168   3.152
64753W        W37178  19.742  28.634   2.828
64754W        W37179  19.739  28.589  13.926
64755W        W37180  38.334  36.431  11.907
64756W        W37181  36.418  25.662  12.022
64757W        W37182  18.745  22.705   2.685
64758W        W37183  24.004  23.146  12.941
64759W        W37184  37.886   7.711   3.730
64760W        W37185  41.889  31.046   4.652
64761W        W37186  27.078  43.415  11.874
64762W        W37187  38.914  25.647   0.337
64763W        W37188  29.467   2.868  11.542
64764W        W37189  22.652  32.058  12.830
64765W        W37190   6.686  21.027  10.406
64766W        W37191  37.533  35.854  12.411
64767W        W37192  10.185  30.419   1.412
64768W        W37193  29.019  44.344  10.892
64769W        W37194  41.837  22.208   1.879
64770W        W37195  26.976   9.881  11.509
64771W        W37196  36.978  42.790  11.611
64772W        W37197   2.922  30.035   0.421
64773W        W37198  37.043  22.542   1.355
64774W        W37199  42.967   3.854  12.577
64775W        W37200  36.428  38.511   4.742
64776W        W37201  28.462  15.262   2.702
64777W        W37202  22.522  36.403   0.905
64778W        W37203  26.952   7.370   3.229
64779W        W37204   9.350  16.215  14.482
64780W        W37205  30.418   4.763  11.552
64781W        W37206   2.437  27.961  11.905
64782W        W37207  19.102  44.431  10.418
64783W        W37208   9.667  19.703  12.421
64784W        W37209  37.514  17.178   4.331
64785W        W37210  33.003  37.974  11.465
64786W        W37211  11.690   0.461   4.194
64787W        W37212  33.098  28.157  10.610
64788W        W37213  41.320   0.329   4.317
64789W        W37214   8.738   3.766  12.528
64790W        W37215   7.311  25.657   4.233
64791W        W37216   5.200   6.226   3.335
64792W        W37217  40.425   0.297  11.005
64793W        W37218  44.477  42.930   2.345
64794W        W37219  17.239  34.048   4.255
64795W        W37220  44.869  24.483  12.021
64796W        W37221   8.797  41.489  12.014
64797W        W37222  24.117  19.751  13.415
64798W        W37223   4.782  40.379   0.726
64799W        W37224  12.176  13.140  12.081
64800W        W37225  35.563  25.015   4.159
64801W        W37226  34.899  17.600   2.412
64802W        W37227  26.550  27.564  13.371
64803W        W37228  14.259   3.354   4.148
64804W        W37229  40.867  28.631   2.364
64805W        W37230  26.638  44.470  12.421
64806W        W37231  24.615  34.890  11.014
64807W        W37232   6.380   6.701  12.401
64808W        W37233  14.147  35.882  11.552
64809W        W37234   7.239  40.036  14.345
64810W        W37235  13.684  21.754  10.549
64811W        W37236  42.381  33.604   0.871
64812W        W37237  21.185  26.086  11.112
64813W        W37238   8.733  20.713   2.715
64814W        W37239  27.979  34.438  13.471
64815W        W37240  17.201  38.411  14.988
64816W        W37241  21.642  39.045  11.944
64817W        W37242   2.322  22.641   0.816
64818W        W37243   8.259  17.295  13.369
64819W        W37244   3.287  11.349  12.830
64820W        W37245  32.114  44.500   3.266
64821W        W37246  30.006  29.128  12.007
64822W        W37247  10.662   9.738  11.984
64823W        W37248  29.427  40.539  13.477
64824W        W37249  36.505  29.964   3.336
64825W        W37250  22.164  33.933  14.477
64826W        W37251  39.861  43.884   1.282
64827W        W37252  17.245   4.348   2.337
64828W        W37253  22.679  20.052  10.978
64829W        W37254  26.591   1.943   3.692
64830W        W37255  26.655  15.610   3.226
64831W        W37256   1.810  40.385  11.014
64832W        W37257  30.004  32.564   1.779
64833W        W37258  33.616  33.895   4.680
64834W        W37259   2.846  12.186  10.583
64835W        W37260  19.569  38.459   1.248
64836W        W37261  39.354  29.025   0.864
64837W        W37262   7.310  25.030   4.222
64838W        W37263  28.548  30.542   0.461
64839W        W37264  33.943  40.899   3.797
64840W        W37265  42.780  29.559  13.987
64841W        W37266   1.923  44.878   4.264
64842W        W37267  43.834  43.823   2.419
64843W        W37268  20.232  31.435   9.563
64844W        W37269  29.489  18.701  11.893
64845W        W37270  33.066  34.950  11.879
64846W        W37271  21.192   0.815  14.496
64847W        W37272  31.027  32.072  13.400
64848W        W37273  32.405  33.560   2.868
64849W        W37274  43.932   9.202   4.770
64850W        W37275  44.937   3.906  12.507
64851W        W37276  39.926   3.303   3.744
64852W        W37277   5.214  31.122  11.517
64853W        W37278   8.165  37.990  12.394
64854W        W37279  20.737   2.891   3.647
64855W        W37280  32.634  13.651   3.818
64856W        W37281  22.186  40.353  12.490
64857W        W37282  34.922  21.714  14.984
64858W        W37283  32.939   9.353  13.354
64859W        W37284   1.953   6.209  11.417
64860W        W37285   0.273   1.358   2.863
64861W        W37286  19.757  44.358  11.471
64862W        W37287  13.764   8.383   2.279
64863W        W37288  24.594  20.172   3.804
64864W        W37289  31.479  30.955   3.791
64865W        W37290  13.242  21.742   0.463
64866W        W37291  31.151   6.718  10.420
64867W        W37292  31.946  18.648   3.635
64868W        W37293   7.881  38.017  12.480
64869W        W37294  28.054   6.337   1.861
64870W        W37295  24.044  41.888   3.795
64871W        W37296  35.468  30.163   3.200
64872W        W37297  33.461  13.244  11.373
64873W        W37298  28.052   3.404   3.237
64874W        W37299  40.816   4.875  12.562
64875W        W37300  30.096  32.903   4.832
64876W        W37301  35.070  40.936   3.196
64877W        W37302  32.012  36.845  11.948
64878W        W37303  11.667  37.869  13.455
64879W        W37304  15.218   9.721  10.955
64880W        W37305  22.230  10.679  10.937
64881W        W37306  34.056   3.938   0.478
64882W        W37307   3.862  14.644  11.065
64883W        W37308   3.216  25.145   0.868
64884W        W37309  15.137  41.896   3.648
64885W        W37310  13.129  34.115   3.653
64886W        W37311  30.954  42.390   2.836
64887W        W37312   7.383  11.752  11.882
64888W        W37313  26.554   5.368  11.498
64889W        W37314  17.687   8.292   2.853
64890W        W37315  14.619  36.075  13.323
64891W        W37316  17.080  13.236   1.703
64892W        W37317  25.150  38.839   2.394
64893W        W37318  17.783  30.640   3.282
64894W        W37319  16.097  35.904   3.638
64895W        W37320  12.789  34.110  14.828
64896W        W37321  28.933  37.372   3.807
64897W        W37322   1.854  13.769  12.004
64898W        W37323  41.896  27.173   0.906
64899W        W37324  33.445   9.309   1.259
64900W        W37325  17.689   5.783  12.919
64901W        W37326  29.490  22.570  10.575
64902W        W37327  39.972  30.609  11.388
64903W        W37328  11.301  27.483   1.881
64904W        W37329  13.681   2.447   4.789
64905W        W37330  40.375  15.665   2.753
64906W        W37331  12.261  11.726   2.748
64907W        W37332  16.596   7.251   2.186
64908W        W37333  15.127  29.599   1.281
64909W        W37334  31.638  17.164   4.613
64910W        W37335  35.484   8.833   4.337
64911W        W37336  36.457  13.706  13.412
64912W        W37337  43.921  42.435  11.584
64913W        W37338  21.140  26.001   3.805
64914W        W37339  31.063   7.743  14.329
64915W        W37340  32.952   8.222   4.832
64916W        W37341  29.936  17.146  13.465
64917W        W37342  25.593  16.177  12.988
64918W        W37343  39.856  44.289  12.910
64919W        W37344  33.535   8.656  11.377
64920W        W37345  13.703  26.967   0.422
64921W        W37346  27.507  20.126   1.818
64922W        W37347  39.538  43.870   4.157
64923W        W37348  31.422  16.310   1.930
64924W        W37349  15.818   9.647  11.440
64925W        W37350  39.477   0.844   0.851
64926W        W37351  40.467  37.497  10.955
64927W        W37352  20.134   2.916   1.293
64928W        W37353  13.109  43.425  12.420
64929W        W37354  39.317  31.132   3.205
64930W        W37355  12.651  11.653  14.383
64931W        W37356  19.065   4.393  11.050
64932W        W37357  12.184   5.276   3.667
64933W        W37358  31.934  40.996  13.840
64934W        W37359  20.119  35.031   3.312
64935W        W37360   8.668  43.002   2.872
64936W        W37361  17.716  20.134  11.508
64937W        W37362  15.122  30.107   3.782
64938W        W37363  38.538   3.385   2.717
64939W        W37364  13.771  28.125  14.006
64940W        W37365   2.399  13.605  13.963
64941W        W37366  26.698  12.188  12.401
64942W        W37367  38.888  38.052   0.420
64943W        W37368  18.690  15.666   5.216
64944W        W37369  30.641   3.254  11.950
64945W        W37370  25.047  30.590  10.575
64946W        W37371   3.756  37.406  14.476
64947W        W37372  37.557  21.514   1.258
64948W        W37373  35.917  41.295   3.840
64949W        W37374   9.380  12.336   2.897
64950W        W37375  44.994  40.852   0.363
64951W        W37376  26.999  36.872   4.817
64952W        W37377   9.658   8.286   1.809
64953W        W37378   5.892   1.396   4.276
64954W        W37379  26.952  22.219  11.552
64955W        W37380   8.292   7.699   5.086
64956W        W37381  32.484  15.645  10.644
64957W        W37382  34.931  28.539  12.995
64958W        W37383   5.751   0.951  11.070
64959W        W37384   8.746  40.466   3.684
64960W        W37385   8.886  10.224   2.704
64961W        W37386   1.314   9.311   0.406
64962W        W37387  31.096   5.338  14.021
64963W        W37388  12.720  22.154  14.338
64964W        W37389  44.887   5.235  12.835
64965W        W37390  12.838  14.722   1.443
64966W        W37391  14.241  28.941  13.527
64967W        W37392  40.462  34.398   4.822
64968W        W37393   5.795   2.266  13.896
64969W        W37394  14.324  27.521  13.047
64970W        W37395   8.705   6.769   1.416
64971W        W37396  29.540  29.599  10.433
64972W        W37397   1.402  25.016  13.907
64973W        W37398  40.432  23.082  13.536
64974W        W37399   4.711  12.767   3.361
64975W        W37400   0.400  11.707   4.812
64976W        W37401  23.632   2.872   1.378
64977W        W37402   9.181  11.857  12.398
64978W        W37403   5.732  38.914   0.283
64979W        W37404  33.445  29.031  11.017
64980W        W37405  25.196  10.861  12.085
64981W        W37406  11.695  26.579   1.222
64982W        W37407  25.709  27.095  12.993
64983W        W37408   3.221   8.783  11.047
64984W        W37409   7.864   5.225  13.058
64985W        W37410  16.579  24.492  14.453
64986W        W37411  30.953  39.945  11.611
64987W        W37412  36.064  16.597   2.729
64988W        W37413   1.921  17.703  14.891
64989W        W37414  29.460  17.079   3.291
64990W        W37415  23.993   5.210   1.275
64991W        W37416  44.377  26.185  11.084
64992W        W37417   7.319  40.467   3.842
64993W        W37418   7.696  16.148   3.315
64994W        W37419  10.664  41.480   0.252
64995W        W37420  39.391   4.306  14.905
64996W        W37421  24.101  14.733  10.996
64997W        W37422  27.453  27.147  12.836
64998W        W37423  24.000  16.170   4.684
64999W        W37424  32.424  38.916  12.072
65000W        W37425  17.278  44.325  14.325
65001W        W37426  37.960   7.402   0.876
65002W        W37427   5.354  23.685   1.350
65003W        W37428  31.148   6.417  13.899
65004W        W37429  39.375  20.249  11.381
65005W        W37430   1.930   6.810   0.480
65006W        W37431   2.455   1.894  11.482
65007W        W37432  35.533  43.453   2.666
65008W        W37433  31.115  32.052   3.664
65009W        W37434   2.378  23.718   2.196
65010W        W37435  19.123   5.431   4.210
65011W        W37436  10.738   5.335   3.328
65012W        W37437   5.933  26.135  10.952
65013W        W37438   3.259   5.819   2.792
65014W        W37439  40.829  32.944   1.882
65015W        W37440  12.704  18.165  11.428
65016W        W37441  37.546   9.753   1.857
65017W        W37442  30.980  21.516   2.771
65018W        W37443  16.629  43.851   3.643
65019W        W37444   9.746  43.019  11.583
65020W        W37445  37.838  21.064   1.743
65021W        W37446  41.393   8.785   4.753
65022W        W37447   1.903  15.815   2.278
65023W        W37448  39.335  36.073   3.365
65024W        W37449  38.501  34.865  14.441
65025W        W37450   1.970  16.272  14.786
65026W        W37451   1.885  11.183   0.311
65027W        W37452  30.468   5.270   1.258
65028W        W37453   7.390  20.601   3.270
65029W        W37454  34.588  21.156   0.890
65030W        W37455  35.388   7.343  10.529
65031W        W37456   5.326  13.259   3.702
65032W        W37457   5.407  33.478   4.297
65033W        W37458  34.555  16.270   4.775
65034W        W37459  41.931  22.589  10.618
65035W        W37460  41.797  33.991  11.912
65036W        W37461   2.758  22.715   0.307
65037W        W37462  31.631  36.543  10.480
65038W        W37463   8.846  44.379  10.976
65039W        W37464  19.540   1.478  10.964
65040W        W37465   2.384  36.367  14.772
65041W        W37466   2.828   2.247  13.894
65042W        W37467  30.447  33.470  12.066
65043W        W37468  10.692  27.514  12.933
65044W        W37469  21.705  31.022  13.827
65045W        W37470   1.422  41.001  12.909
65046W        W37471  30.465  22.602  12.417
65047W        W37472   6.899  30.635  13.897
65048W        W37473  14.196   7.218  13.423
65049W        W37474  11.699  31.121   0.275
65050W        W37475  31.520  16.147   4.672
65051W        W37476  41.346  21.624  11.398
65052W        W37477  27.996  20.258  10.497
65053W        W37478  12.182  11.728  12.986
65054W        W37479  25.186   8.739  11.583
65055W        W37480  25.977  13.199   3.316
65056W        W37481  23.689  38.332  12.435
65057W        W37482  34.051  10.695   3.860
65058W        W37483  38.397  14.224  14.345
65059W        W37484  17.084   6.216  14.365
65060W        W37485  25.650   1.268   3.307
65061W        W37486  28.009  16.727  12.458
65062W        W37487  30.000  12.709   1.313
65063W        W37488  25.145  22.519  13.867
65064W        W37489  13.321  31.551  13.978
65065W        W37490  10.160  38.463   4.297
65066W        W37491  22.081  25.980   0.956
65067W        W37492  40.313  10.813  10.413
65068W        W37493  21.125  36.081   1.890
65069W        W37494  36.454  40.488  12.960
65070W        W37495  37.491   0.984  14.955
65071W        W37496  20.738  26.057   0.917
65072W        W37497  13.248  13.679  11.973
65073W        W37498  21.550  18.255  13.887
65074W        W37499  16.245  37.024   0.905
65075W        W37500   2.884  29.486   1.312
65076W        W37501  37.373  40.909   1.349
65077W        W37502  25.093  20.600  11.386
65078W        W37503  43.514  44.280  10.588
65079W        W37504   8.387  25.975   2.691
65080W        W37505  10.218  31.602   4.264
65081W        W37506  24.676  22.712   4.189
65082W        W37507   9.852  26.104  12.883
65083W        W37508  42.414  36.006  14.303
65084W        W37509  41.482  20.190   2.724
65085W        W37510  18.608  17.742   0.473
65086W        W37511  29.059  31.017  13.965
65087W        W37512   0.253   4.245  11.005
65088W        W37513  21.529  14.661   0.872
65089W        W37514   9.191   5.829   3.309
65090W        W37515   2.926  30.468  12.342
65091W        W37516  21.710   7.399  11.604
65092W        W37517  33.557  32.043  12.365
65093W        W37518  13.292  10.290   0.899
65094W        W37519   0.329   5.729   0.269
65095W        W37520  26.158  36.094   1.933
65096W        W37521  28.447  12.283  14.921
65097W        W37522  27.494  13.618   4.678
65098W        W37523  43.383   8.853   3.805
65099W        W37524  32.570   2.323  14.823
65100W        W37525   6.318  32.106  13.838
65101W        W37526  29.535  44.419   4.342
65102W        W37527   8.681  42.986  13.377
65103W        W37528  25.030  39.316  12.466
65104W        W37529  42.344  18.280   3.324
65105W        W37530  12.622  19.634   1.872
65106W        W37531   9.157  19.609  14.318
65107W        W37532  41.518  20.531   2.259
65108W        W37533  29.930   4.271   2.212
65109W        W37534  22.623  30.120   3.652
65110W        W37535  43.396  25.966   0.818
65111W        W37536  35.528   3.346  10.497
65112W        W37537  31.505  28.166   1.306
65113W        W37538  37.466  28.164   1.240
65114W        W37539  19.052  33.390  12.435
65115W        W37540  38.917  26.123   4.291
65116W        W37541  16.792   0.809   3.293
65117W        W37542  27.680  21.573   1.862
65118W        W37543   8.738  17.801  12.021
65119W        W37544  13.776  36.475   0.436
65120W        W37545  31.910  34.110   4.787
65121W        W37546  42.373  37.862   0.440
65122W        W37547  27.591  36.034   0.754
65123W        W37548  18.188  22.629  11.869
65124W        W37549   2.274   9.311  13.799
65125W        W37550   6.737  41.371  14.419
65126W        W37551   3.254  29.980  11.996
65127W        W37552  34.865   0.416   0.266
65128W        W37553  44.770  42.788  12.055
65129W        W37554   0.478  40.826   1.263
65130W        W37555   6.699  22.674  11.418
65131W        W37556   4.294  25.492  14.823
65132W        W37557  15.755  38.076  11.482
65133W        W37558  18.283  27.519   2.746
65134W        W37559  14.291   3.882   1.883
65135W        W37560  12.232  18.246  13.811
65136W        W37561  34.947   8.329  12.494
65137W        W37562   7.744  36.871   4.173
65138W        W37563  30.010  12.116   1.734
65139W        W37564  28.173   9.680   3.214
65140W        W37565   5.836  20.667  13.529
65141W        W37566  18.138  37.852   2.179
65142W        W37567  19.102  34.382   3.656
65143W        W37568   1.731  20.675  13.420
65144W        W37569  19.590  17.603   0.376
65145W        W37570  17.702  42.517   4.607
65146W        W37571   7.206  18.283   1.259
65147W        W37572  42.949   3.309   5.178
65148W        W37573   8.376   6.907   4.163
65149W        W37574  27.160  11.184  11.583
65150W        W37575  43.503  25.104   4.655
65151W        W37576   0.782  42.357  13.888
65152W        W37577  12.148  14.220  14.320
65153W        W37578  40.003  10.687  13.931
65154W        W37579  17.728  39.867   4.179
65155W        W37580   9.182  11.258   1.421
65156W        W37581   8.769   9.311   3.309
65157W        W37582  11.183  29.064  14.339
65158W        W37583  17.652  44.420   3.156
65159W        W37584  26.613  21.052  12.430
65160W        W37585  35.540   8.254  14.013
65161W        W37586   7.831  27.048   4.810
65162W        W37587  19.137  13.600   3.284
65163W        W37588  28.584  25.518  11.927
65164W        W37589  30.651  22.230  13.469
65165W        W37590  43.377  26.566   1.871
65166W        W37591  41.485  33.964   1.275
65167W        W37592  14.297  33.102   3.799
65168W        W37593  37.395  16.642  14.421
65169W        W37594   6.691  40.930  14.485
65170W        W37595  16.724  13.339  14.462
65171W        W37596  17.782  25.992  11.378
65172W        W37597  35.993  12.278  14.884
65173W        W37598  25.484  24.650   4.811
65174W        W37599   4.398   7.892   0.445
65175W        W37600  18.718  16.784   3.712
65176W        W37601  43.780  21.036  14.828
65177W        W37602  17.145   8.678   3.211
65178W        W37603  35.581   0.773   0.877
65179W        W37604  11.772   6.847  14.427
65180W        W37605  17.127  25.015  14.479
65181W        W37606  14.170  37.010   0.929
65182W        W37607  35.030  35.504   0.744
65183W        W37608   3.832  36.359  10.941
65184W        W37609  34.872  29.012   0.402
65185W        W37610  36.996   8.900   4.211
65186W        W37611  25.166  34.472  11.885
65187W        W37612  22.601  18.738   0.426
65188W        W37613   3.387  21.636  14.842
65189W        W37614  15.610  39.366   1.445
65190W        W37615  30.432  18.659   5.234
65191W        W37616  20.537  43.861   1.758
65192W        W37617  35.062  12.685   1.446
65193W        W37618  32.001  24.085  13.363
65194W        W37619  38.499  16.786  13.821
65195W        W37620  34.019   4.943  14.956
65196W        W37621   3.383  29.571  13.437
65197W        W37622  21.224  29.657   3.180
65198W        W37623  11.639  35.041   5.201
65199W        W37624  12.763  42.904  14.509
65200W        W37625   1.762   9.281  14.876
65201W        W37626  35.898  15.292  13.947
65202W        W37627  13.845   0.783   2.419
65203W        W37628  11.245  31.960   4.227
65204W        W37629  14.204  17.275   0.872
65205W        W37630  12.779  28.572  11.957
65206W        W37631  23.058  34.988   2.338
65207W        W37632  14.718  34.880  14.306
65208W        W37633  43.397  15.207   3.727
65209W        W37634  39.382  32.431  12.414
65210W        W37635   4.402   0.437   2.670
65211W        W37636  13.784   8.207  12.345
65212W        W37637  37.074  11.688  12.530
65213W        W37638  16.638   2.230   3.795
65214W        W37639  34.431  19.641   3.197
65215W        W37640   5.748   2.260   4.756
65216W        W37641  15.605  31.535   0.474
65217W        W37642  29.050   8.805   3.634
65218W        W37643  27.610  20.131   1.353
65219W        W37644  15.255  17.628  13.864
65220W        W37645  25.970  31.041   3.179
65221W        W37646  23.631  26.583   4.709
65222W        W37647  39.447  32.424   3.203
65223W        W37648  18.107  37.397  14.823
65224W        W37649  32.419  33.093  12.967
65225W        W37650  28.554  14.270  11.934
65226W        W37651   8.314  38.435  10.978
65227W        W37652   9.806   1.272   2.355
65228W        W37653  29.155   5.382  12.542
65229W        W37654  20.656   8.278   4.715
65230W        W37655  43.308  32.465   1.374
65231W        W37656  42.792  41.458  10.584
65232W        W37657  16.109   6.702  10.929
65233W        W37658  12.816   0.981   0.749
65234W        W37659  27.162  23.720   1.758
65235W        W37660  12.801  25.996  10.972
65236W        W37661  25.505  17.558  12.460
65237W        W37662  27.457  40.415   2.280
65238W        W37663  40.971  32.635   4.229
65239W        W37664  30.615   0.912  13.362
65240W        W37665  38.938  37.044   4.232
65241W        W37666  30.016  38.044  14.762
65242W        W37667  31.961  11.369  13.866
65243W        W37668  40.055   9.338  14.315
65244W        W37669   5.376  36.422  13.446
65245W        W37670  36.969  32.429   2.322
65246W        W37671  14.653  15.274  11.912
65247W        W37672  24.575   9.657   5.804
65248W        W37673  16.672  11.801   2.288
65249W        W37674   3.828  15.316   4.749
65250W        W37675  21.043  26.993   3.736
65251W        W37676  32.565  37.380  10.477
65252W        W37677  12.791  11.257   0.379
65253W        W37678   8.659  13.719   1.886
65254W        W37679   1.844   2.812   1.872
65255W        W37680  23.052  27.453  10.574
65256W        W37681  33.619  43.786   4.282
65257W        W37682   8.729  22.116   2.195
65258W        W37683  23.999  36.065  10.447
65259W        W37684   6.722  19.710   1.426
65260W        W37685  38.337  39.405   0.796
65261W        W37686  28.997   7.726   3.763
65262W        W37687  32.958  22.515   2.743
65263W        W37688  41.523  43.777  13.053
65264W        W37689   9.782  39.890  12.565
65265W        W37690  13.641   3.947  10.920
65266W        W37691  21.050  10.771   3.231
65267W        W37692  20.115  30.479   1.389
65268W        W37693  26.467  22.727  12.953
65269W        W37694   7.725  19.590   3.730
65270W        W37695  33.875  16.604   9.521
65271W        W37696  28.990  27.665  10.452
65272W        W37697  37.974  18.621  12.070
65273W        W37698   4.801  11.624  12.077
65274W        W37699  38.562  13.741   4.279
65275W        W37700  13.805  32.004  13.524
65276W        W37701  26.086  40.539   0.449
65277W        W37702  26.190  14.779  14.929
65278W        W37703  42.286  31.898   1.366
65279W        W37704  41.300  40.308   2.280
65280W        W37705  31.619  21.627  14.961
65281W        W37706  11.725  41.832   4.602
65282W        W37707  30.915  11.647  14.449
65283W        W37708  28.528   1.307   2.238
65284W        W37709  25.158  11.652  12.079
65285W        W37710  34.948  15.208   2.327
65286W        W37711  35.029  14.643   2.695
65287W        W37712  17.127  20.649  12.980
65288W        W37713  25.609  43.417  11.945
65289W        W37714  35.548  28.081  14.788
65290W        W37715  31.479  42.871  10.140
65291W        W37716  17.601   2.402  10.134
65292W        W37717  32.615   6.702   1.868
65293W        W37718   5.801  44.905  10.642
65294W        W37719  43.968  15.774   0.476
65295W        W37720   5.727  30.983  13.797
65296W        W37721  25.206  28.556   4.183
65297W        W37722  29.016  35.488  13.538
65298W        W37723  12.302  40.811  14.329
65299W        W37724  15.176  43.858  13.838
65300W        W37725  34.945   7.678  11.547
65301W        W37726   7.904  16.304  12.074
65302W        W37727  14.101   5.799  14.430
65303W        W37728  13.760  36.508  10.473
65304W        W37729  20.552  44.312  12.512
65305W        W37730  16.700  10.730   1.426
65306W        W37731  28.111   0.883   0.850
65307W        W37732  18.088  32.605  12.945
65308W        W37733   9.368  42.968   1.373
65309W        W37734  41.975  29.656   4.833
65310W        W37735  13.233  19.274  10.583
65311W        W37736  35.985  40.944  13.003
65312W        W37737  24.196  33.879   4.624
65313W        W37738   9.212   4.218  11.399
65314W        W37739  37.366  29.026  14.786
65315W        W37740   0.278  31.949   0.868
65316W        W37741  31.469  15.754  12.960
65317W        W37742  12.690  25.163   0.815
65318W        W37743  42.005   4.270  13.492
65319W        W37744  21.511   7.328  14.873
65320W        W37745  36.842  15.608   1.440
65321W        W37746  29.471  12.790   1.859
65322W        W37747  34.057  14.205  11.074
65323W        W37748  37.939  26.638   2.716
65324W        W37749   1.830  40.974  11.437
65325W        W37750  23.017   4.750   4.233
65326W        W37751   1.765  15.285  11.096
65327W        W37752   7.203  34.464  10.066
65328W        W37753   5.194   4.936  12.428
65329W        W37754  32.548  17.727  11.084
65330W        W37755   2.857  12.217   0.872
65331W        W37756  34.520  29.605  14.837
65332W        W37757  29.483  35.094  13.061
65333W        W37758   1.431   4.845   3.236
65334W        W37759   3.372  37.036   3.348
65335W        W37760  13.195  10.229   1.704
65336W        W37761  37.389   6.844   0.807
65337W        W37762  32.984  24.544  11.902
65338W        W37763  35.904  43.282  13.852
65339W        W37764  21.172  37.956   1.350
65340W        W37765  28.532   6.729   2.746
65341W        W37766  36.980  28.595  13.478
65342W        W37767  34.053  20.729   4.669
65343W        W37768  40.361  23.241   3.227
65344W        W37769  14.615  22.682   2.695
65345W        W37770  14.732  15.728  11.579
65346W        W37771  24.072   3.253   5.171
65347W        W37772  26.010  11.762  12.981
65348W        W37773  17.278  34.377  10.055
65349W        W37774  41.016   7.832   2.244
65350W        W37775  15.813  10.689   1.716
65351W        W37776  21.699   9.838   0.735
65352W        W37777   7.708  38.918   4.260
65353W        W37778  32.948  40.975   4.655
65354W        W37779  29.118  17.296   4.697
65355W        W37780  28.676  42.428  11.007
65356W        W37781  41.526  21.135  12.441
65357W        W37782  44.783  28.655  10.463
65358W        W37783  31.421  44.755  11.508
65359W        W37784  22.165  19.698  14.772
65360W        W37785  44.978  26.650   5.266
65361W        W37786  38.555  39.924   1.389
65362W        W37787   7.223  16.275   4.706
65363W        W37788  21.707  11.364   2.297
65364W        W37789  29.587  21.198  12.386
65365W        W37790  39.363   5.417  11.081
65366W        W37791  28.634  27.968   3.700
65367W        W37792  19.661  13.830  13.017
65368W        W37793   2.768   2.783   1.324
65369W        W37794  23.549   2.294   4.660
65370W        W37795  18.787  42.304   1.694
65371W        W37796  44.987  28.573  14.409
65372W        W37797  43.453   7.220  10.958
65373W        W37798  11.653  28.116  12.002
65374W        W37799  20.653  44.912  13.996
65375W        W37800  21.151  18.266  13.446
65376W        W37801  41.850   2.734   1.716
65377W        W37802  28.138  41.322   3.677
65378W        W37803  32.400  18.587  10.427
65379W        W37804  37.864  33.438  13.922
65380W        W37805   9.198  43.282   3.332
65381W        W37806  43.468  40.407  14.471
65382W        W37807   0.800  35.958  10.899
65383W        W37808  38.328   0.472  11.508
65384W        W37809  32.999  18.123  11.005
65385W        W37810  28.037   7.290   3.223
65386W        W37811  10.290   8.211  12.085
65387W        W37812  27.946  18.756   9.938
65388W        W37813  14.337  10.231  13.940
65389W        W37814   3.753  41.373   2.811
65390W        W37815  36.870   8.654  12.038
65391W        W37816   8.171   7.898   4.703
65392W        W37817   8.283  18.708   4.179
65393W        W37818   6.706  43.434   0.859
65394W        W37819  42.282  42.434   0.918
65395W        W37820   4.744   6.798   1.922
65396W        W37821  16.198  43.315  11.973
65397W        W37822   7.749  20.575  13.914
65398W        W37823  12.845  22.241   2.219
65399W        W37824   9.756  35.482   5.100
65400W        W37825   7.890  40.814  14.491
65401W        W37826  30.933  12.242  12.394
65402W        W37827   6.216   5.248  14.761
65403W        W37828  32.004  26.556  10.439
65404W        W37829   1.384  22.198  11.417
65405W        W37830  40.857   0.979  12.840
65406W        W37831  22.171   8.816   0.389
65407W        W37832  44.498  37.013   4.713
65408W        W37833  30.625  13.829   0.456
65409W        W37834  37.439  37.066   4.191
65410W        W37835  20.693   2.357   1.447
65411W        W37836   7.226  14.333   1.716
65412W        W37837  23.081  29.547  13.383
65413W        W37838  36.897  17.629   1.764
65414W        W37839  20.637  31.598  11.391
65415W        W37840  25.108   9.378   1.883
65416W        W37841   8.883  42.469  10.944
65417W        W37842  16.206   0.934   0.256
65418W        W37843  36.942  29.966   2.284
65419W        W37844  36.864  37.951  10.469
65420W        W37845  43.003  10.181  13.547
65421W        W37846  43.281   2.240  10.405
65422W        W37847  43.797  20.103   4.829
65423W        W37848  13.748  16.142  12.906
65424W        W37849  22.568   1.771  12.975
65425W        W37850  43.899  25.494  10.514
65426W        W37851   4.266  35.085  13.943
65427W        W37852   1.477  39.982   1.399
65428W        W37853   8.347  38.891   3.380
65429W        W37854  17.799  41.969  12.960
65430W        W37855  21.132  17.671  14.506
65431W        W37856  30.650  27.643   1.800
65432W        W37857   1.457   9.753  12.454
65433W        W37858  33.568  25.017   1.437
65434W        W37859  27.015  35.560  14.321
65435W        W37860   7.411   0.885   0.378
65436W        W37861  12.330  40.488  10.482
65437W        W37862  43.452   3.717   3.387
65438W        W37863  17.712  31.454   3.659
65439W        W37864  18.691  32.624   1.381
65440W        W37865  24.712   0.400   4.609
65441W        W37866  34.033  39.854  14.849
65442W        W37867  24.685  24.104  13.978
65443W        W37868  24.982  18.068   0.412
65444W        W37869  28.133   6.248  11.526
65445W        W37870  28.633  39.382   0.821
65446W        W37871  35.603  44.499   0.907
65447W        W37872   0.873  40.038   2.723
65448W        W37873  30.611  30.562   2.805
65449W        W37874  27.179  23.653  14.992
65450W        W37875  39.993  34.509  11.442
65451W        W37876  26.568  17.757   1.696
65452W        W37877  25.468  31.031   1.740
65453W        W37878   0.929  41.866   3.681
65454W        W37879   8.274  43.461  10.424
65455W        W37880  15.757  32.915   3.778
65456W        W37881  33.002  43.406   4.274
65457W        W37882  11.852  16.162  11.551
65458W        W37883   9.782  37.923   3.246
65459W        W37884  10.855  24.545   1.304
65460W        W37885  29.463  22.532  11.587
65461W        W37886  17.631  34.476  11.873
65462W        W37887  28.181  24.685   2.303
65463W        W37888  17.660  26.120   1.233
65464W        W37889  34.600  33.557   0.915
65465W        W37890  22.213   8.371   3.246
65466W        W37891  33.437  15.633   0.480
65467W        W37892  34.487  17.085  13.015
65468W        W37893   3.279  34.990  12.413
65469W        W37894   6.283  32.957  11.468
65470W        W37895   9.816  12.712  12.025
65471W        W37896  41.397  14.229  14.887
65472W        W37897  29.053   4.794   3.726
65473W        W37898  30.489   0.431   3.858
65474W        W37899   8.168  36.920  12.839
65475W        W37900   6.851  10.742  12.000
65476W        W37901  32.487  36.503  12.917
65477W        W37902  19.203  42.417   2.381
65478W        W37903   3.389   1.920   3.194
65479W        W37904  37.494  11.132   4.793
65480W        W37905   0.279   6.888  12.085
65481W        W37906  32.910  37.447   3.677
65482W        W37907  31.574  40.856  12.547
65483W        W37908  42.336  43.493  13.922
65484W        W37909  18.293  20.033  10.597
65485W        W37910   9.290  43.343   0.847
65486W        W37911  17.592  27.051   4.144
65487W        W37912   1.335  10.780   2.387
65488W        W37913  22.585   2.758   1.836
65489W        W37914  42.411   8.394  12.982
65490W        W37915  37.058  23.143  10.455
65491W        W37916  26.679   9.672  13.370
65492W        W37917  16.180   8.725   1.448
65493W        W37918  29.478  12.631   5.261
65494W        W37919  14.634   8.839  10.063
65495W        W37920   2.770  26.472   2.837
65496W        W37921   6.716   9.691  13.056
65497W        W37922  29.918  16.644   5.258
65498W        W37923  21.043   4.256  14.766
65499W        W37924  10.198  18.770   0.300
65500W        W37925  18.295  23.110  10.956
65501W        W37926  11.181  24.186  10.452
65502W        W37927  25.612   4.361  10.479
65503W        W37928  10.851   1.971   1.928
65504W        W37929  34.521  44.815  14.028
65505W        W37930  24.103  21.054   5.139
65506W        W37931  14.316  24.230  12.936
65507W        W37932  25.149   5.215   2.805
65508W        W37933  15.686  42.422  11.897
65509W        W37934  39.818   6.195  13.447
65510W        W37935  42.318  16.254  11.914
65511W        W37936   1.860  29.648   3.228
65512W        W37937   2.360  27.064  14.915
65513W        W37938  17.252  16.784   1.784
65514W        W37939  44.345  12.826  10.497
65515W        W37940  28.074   3.938   2.203
65516W        W37941  11.327  33.455  14.770
65517W        W37942  13.651  23.659   2.320
65518W        W37943   7.740  36.944  13.002
65519W        W37944  41.422  18.741   0.299
65520W        W37945  14.638   7.867   4.757
65521W        W37946  36.369   0.280   4.750
65522W        W37947  22.177  37.927  11.477
65523W        W37948  11.148  40.801  12.972
65524W        W37949  28.544   3.883   3.347
65525W        W37950  22.143  21.749   4.316
65526W        W37951   8.346   1.784  11.459
65527W        W37952  37.908  12.289   2.742
65528W        W37953   5.344  27.471  10.516
65529W        W37954  39.383   0.767   2.288
65530W        W37955  20.739  12.820  12.911
65531W        W37956  26.065  22.513   4.773
65532W        W37957  41.021  39.492   2.295
65533W        W37958  15.730  41.042   1.707
65534W        W37959  32.521  21.602  14.829
65535W        W37960  28.438  38.374   4.731
65536W        W37961   4.251  21.105  13.925
65537W        W37962  39.899  13.213  11.452
65538W        W37963  15.617   7.901  12.408
65539W        W37964  17.709   0.943  12.824
65540W        W37965   2.355  16.678   3.263
65541W        W37966   6.738  13.775   3.695
65542W        W37967  17.078  29.469  14.300
65543W        W37968  44.266   5.833  12.092
65544W        W37969   5.259  16.688  12.478
65545W        W37970  24.512  31.954   1.440
65546W        W37971  25.588  29.175   4.717
65547W        W37972   5.929  36.579  13.905
65548W        W37973  18.594  36.404  14.944
65549W        W37974  15.696  31.511  13.888
65550W        W37975  17.733  41.909  13.376
65551W        W37976   9.685  16.620  14.372
65552W        W37977  40.367  20.179  12.427
65553W        W37978   6.212  28.005   4.128
65554W        W37979   4.227  20.191  14.819
65555W        W37980  35.468  26.624   4.326
65556W        W37981  33.386   9.331  13.457
65557W        W37982  14.715  43.439   3.643
65558W        W37983  39.480   6.393  14.771
65559W        W37984  15.601  14.704  11.585
65560W        W37985  12.836   6.195  13.518
65561W        W37986  13.650   8.355   1.404
65562W        W37987  24.121  27.497  11.101
65563W        W37988  15.240  44.442  12.865
65564W        W37989   3.712  21.553  14.877
65565W        W37990  37.978  16.676   2.809
65566W        W37991   7.416  33.605  14.861
65567W        W37992  42.857  36.916  14.514
65568W        W37993  30.638  39.339  11.557
65569W        W37994  43.006  26.170  11.061
65570W        W37995   5.255  16.607   4.227
65571W        W37996  25.136   1.276  14.358
65572W        W37997   0.863  13.256  11.095
65573W        W37998  23.561   3.449   1.269
65574W        W37999  35.369   8.743  14.839
65575W        W38000  22.547   0.911   1.245
65576W        W38001  38.495   9.676  13.376
65577W        W38002  28.961  35.497  11.065
65578W        W38003  26.976  28.583   2.710
65579W        W38004  36.053   6.354   3.305
65580W        W38005  40.447  13.706   2.390
65581W        W38006  27.482  31.537   4.208
65582W        W38007  11.792  19.694   9.974
65583W        W38008  40.523  17.674   3.351
65584W        W38009  38.957  40.488   3.223
65585W        W38010  27.009   7.843   1.435
65586W        W38011  41.478  15.130   2.879
65587W        W38012  29.633  20.635   2.880
65588W        W38013  37.882  26.044   4.712
65589W        W38014  36.875   7.782  14.500
65590W        W38015  43.764   7.252   3.368
65591W        W38016  34.459  18.651  11.083
65592W        W38017  14.178  21.558  13.009
65593W        W38018  15.200   0.958   3.243
65594W        W38019  26.622   8.792  11.925
65595W        W38020  23.663   3.255  11.477
65596W        W38021  44.978   3.737   3.387
65597W        W38022  12.149   2.326  14.908
65598W        W38023  35.368  16.596  13.016
65599W        W38024   3.890  30.043  11.457
65600W        W38025  21.711  37.851   2.662
65601W        W38026  43.411  19.088  10.452
65602W        W38027  19.573  11.705   3.236
65603W        W38028  22.109   6.196  11.557
65604W        W38029  39.469  40.492   0.404
65605W        W38030  18.695  31.641   3.316
65606W        W38031  18.674  22.712  13.004
65607W        W38032   7.839  35.602   3.654
65608W        W38033  14.702  43.929   0.835
65609W        W38034   2.321   3.838   1.921
65610W        W38035  43.287   4.298  11.991
65611W        W38036  26.971   0.968   2.267
65612W        W38037  18.051  16.239  12.875
65613W        W38038   7.364  44.806  13.367
65614W        W38039  12.632   7.701   3.256
65615W        W38040  35.913   8.349  14.841
65616W        W38041  43.389  28.105  12.367
65617W        W38042   8.891  16.675  10.048
65618W        W38043   6.308  33.483  12.540
65619W        W38044  41.346  38.340   1.285
65620W        W38045   6.370  22.144   4.702
65621W        W38046   8.229  43.304  11.385
65622W        W38047  31.938  32.524  12.916
65623W        W38048  42.512  15.625  12.968
65624W        W38049  18.068  28.158  14.845
65625W        W38050  38.907  10.342   0.423
65626W        W38051  24.528   7.866   2.292
65627W        W38052  10.302   8.843  13.544
65628W        W38053  22.220   0.781  14.290
65629W        W38054  22.530  26.661   0.428
65630W        W38055  14.694   6.395   2.270
65631W        W38056   2.270  22.167   3.295
65632W        W38057  35.900  40.385  12.083
65633W        W38058   1.898  22.247   1.726
65634W        W38059  31.994  25.553  14.297
65635W        W38060   2.903  23.224   4.308
65636W        W38061  37.476  32.485   0.849
65637W        W38062   9.206  41.412  13.009
65638W        W38063  20.064  44.855  14.932
65639W        W38064   5.867  24.058   4.298
65640W        W38065  19.212  10.775  13.902
65641W        W38066  10.879   3.893   1.820
65642W        W38067  27.557  10.316   3.673
65643W        W38068   6.209  15.289   4.220
65644W        W38069  19.140  12.725  14.464
65645W        W38070  32.937  37.952   3.676
65646W        W38071  34.528  15.761   1.237
65647W        W38072  33.505  43.904   0.445
65648W        W38073  21.579  15.250   2.809
65649W        W38074  34.966   4.268  14.798
65650W        W38075  44.364  37.570  14.775
65651W        W38076  29.071  22.195  11.115
65652W        W38077  34.089  21.525  10.888
65653W        W38078   6.339  16.281   0.359
65654W        W38079  25.102  33.616   5.235
65655W        W38080   4.880  28.061  13.458
65656W        W38081  23.586   9.651   4.826
65657W        W38082  28.532  44.394   3.796
65658W        W38083  33.409  27.476   3.276
65659W        W38084  30.596   6.307  13.015
65660W        W38085  25.624  36.947  13.335
65661W        W38086  25.491  12.816   3.846
65662W        W38087  19.100  37.486   2.892
65663W        W38088  42.329   2.439   1.381
65664W        W38089   5.204  16.609  14.850
65665W        W38090  38.557  30.100  13.857
65666W        W38091  20.601  22.722  11.942
65667W        W38092  27.600  23.658   2.859
65668W        W38093  40.395  44.948   2.674
65669W        W38094  33.032  15.088  12.460
65670W        W38095  19.238  41.473   4.811
65671W        W38096   7.737   6.303  14.893
65672W        W38097  30.063  39.497   1.384
65673W        W38098  29.515  26.201  14.914
65674W        W38099  41.517  15.106  14.506
65675W        W38100   1.802  23.109  11.058
65676W        W38101  38.936  13.287   2.242
65677W        W38102  20.086   0.314  11.888
65678W        W38103  40.361  22.224   4.644
65679W        W38104  38.568  26.147   2.675
65680W        W38105  17.137   2.773  10.498
65681W        W38106  14.685  40.311  10.958
65682W        W38107  22.567  10.178   4.320
65683W        W38108  31.138  24.005  12.520
65684W        W38109  28.008  20.150   1.386
65685W        W38110  25.539  36.940   0.311
65686W        W38111  34.963  39.457  11.993
65687W        W38112  19.547  38.019   2.350
65688W        W38113  29.472  27.167  11.003
65689W        W38114  12.118  42.370  14.864
65690W        W38115  31.023  11.668  10.482
65691W        W38116  21.644  10.647  10.434
65692W        W38117   5.912  43.968  14.309
65693W        W38118  22.656  10.764   3.264
65694W        W38119   1.787  34.570  14.788
65695W        W38120  20.069   3.760   4.281
65696W        W38121  23.058  35.923  11.539
65697W        W38122   7.706  35.024  12.064
65698W        W38123   3.817   6.397  14.946
65699W        W38124  37.049  10.348   3.238
65700W        W38125   8.688  15.615   0.953
65701W        W38126  24.689  38.040  12.367
65702W        W38127   0.807  10.839  14.952
65703W        W38128  18.590  25.648  12.353
65704W        W38129   4.704   0.917   3.644
65705W        W38130   6.826   9.807  10.528
65706W        W38131  24.719  11.371   4.298
65707W        W38132   2.922  16.200   4.352
65708W        W38133  14.114  21.598   0.268
65709W        W38134  15.175  14.604   3.690
65710W        W38135  36.571   7.406   5.224
65711W        W38136   7.339  15.641   2.848
65712W        W38137  43.894   6.737   0.812
65713W        W38138  22.248   5.195  11.415
65714W        W38139   5.779  38.537  14.799
65715W        W38140  37.424  20.131   4.194
65716W        W38141  20.243  10.370  11.897
65717W        W38142  14.624  40.330  11.452
65718W        W38143  31.148   5.414  11.878
65719W        W38144  41.951  14.179   2.236
65720W        W38145  31.435  42.930  13.807
65721W        W38146  11.757  37.534   4.348
65722W        W38147  41.852  36.969  11.502
65723W        W38148  27.539  18.115  10.601
65724W        W38149  35.452  31.094   1.245
65725W        W38150  35.956  21.032   2.214
65726W        W38151  22.566   5.886  10.473
65727W        W38152  28.559  26.491   2.308
65728W        W38153  10.722  39.391   1.906
65729W        W38154  18.123  15.718   1.802
65730W        W38155  15.824   9.258  13.463
65731W        W38156  32.932  40.461  14.410
65732W        W38157   5.848  12.236  13.855
65733W        W38158  22.058  31.408  13.420
65734W        W38159   0.838  15.772   2.893
65735W        W38160  14.770  17.094  13.545
65736W        W38161  27.640  35.107  14.492
65737W        W38162  26.572  17.563  14.868
65738W        W38163   1.270  19.198   1.409
65739W        W38164  18.781  33.470   0.756
65740W        W38165  19.615   4.258  12.538
65741W        W38166  44.863  23.064   2.706
65742W        W38167   7.742  34.009  11.433
65743W        W38168  36.098  14.681   0.848
65744W        W38169  35.957  27.099  12.912
65745W        W38170  21.526  17.259   4.623
65746W        W38171  15.812   7.191  11.595
65747W        W38172  36.495   5.317  12.068
65748W        W38173  38.952  34.495   3.206
65749W        W38174  25.493  10.797  13.028
65750W        W38175  13.201  36.921   2.785
65751W        W38176  39.422  25.493  11.087
65752W        W38177   9.157  14.200   0.333
65753W        W38178   0.262  26.677   2.311
65754W        W38179   4.940  39.947  13.864
65755W        W38180  32.005  36.875  12.502
65756W        W38181   5.319  41.987   1.871
65757W        W38182  11.168  43.379   2.690
65758W        W38183  19.646  43.931  14.425
65759W        W38184  15.592  32.135  10.985
65760W        W38185  34.032  14.689  13.878
65761W        W38186  23.533  26.978   4.194
65762W        W38187  30.131  32.395  11.477
65763W        W38188  21.087  30.015  13.318
65764W        W38189  17.561  15.219   3.336
65765W        W38190   3.376  36.355   0.827
65766W        W38191   1.944  26.611  10.931
65767W        W38192  39.999   2.922   1.210
65768W        W38193  35.539  40.402   4.148
65769W        W38194  34.901  21.552  13.533
65770W        W38195  12.835  16.185   4.711
65771W        W38196  24.111  21.198  13.933
65772W        W38197  26.622  41.024  10.515
65773W        W38198  42.919  31.908  12.474
65774W        W38199  34.108  12.831  11.913
65775W        W38200  15.217   0.772  13.855
65776W        W38201   8.196   8.797   4.322
65777W        W38202   0.865  27.673   0.836
65778W        W38203  17.103  38.451  13.825
65779W        W38204  16.662  32.123  10.405
65780W        W38205   9.353  42.419   3.688
65781W        W38206  42.297  31.634  12.020
65782W        W38207  25.490  13.106  13.831
65783W        W38208  16.201   4.909   4.321
65784W        W38209  29.003  11.205   0.814
65785W        W38210  24.068  24.125   9.938
65786W        W38211  44.366  30.996  10.951
65787W        W38212   7.881  32.100  11.372
65788W        W38213  36.055  15.288  10.620
65789W        W38214  39.017  28.969  10.414
65790W        W38215  26.071  33.380  13.862
65791W        W38216  24.594  18.207   3.276
65792W        W38217  37.577  34.471  11.431
65793W        W38218  28.504  16.233   2.879
65794W        W38219  26.485  29.084  10.558
65795W        W38220   5.294  27.472  14.882
65796W        W38221  32.114   1.886  10.895
65797W        W38222  20.233  27.108  11.432
65798W        W38223  32.627  24.155   2.763
65799W        W38224  38.047  23.573  13.524
65800W        W38225   8.791   4.863   3.257
65801W        W38226  12.181  39.933  11.047
65802W        W38227  30.136  10.638   0.738
65803W        W38228  44.454  44.987  11.528
65804W        W38229  14.759  11.355  13.887
65805W        W38230  17.601   7.786  13.011
65806W        W38231  44.376   2.948  14.030
65807W        W38232  39.916  13.202   3.214
65808W        W38233  26.501  16.776  14.031
65809W        W38234  33.581   1.360   0.746
65810W        W38235  31.900  13.111   1.419
65811W        W38236   0.783  29.062   5.198
65812W        W38237  27.151  20.120  13.338
65813W        W38238  10.734  32.008  13.000
65814W        W38239  43.839  28.582  14.378
65815W        W38240   7.313   3.397   4.207
65816W        W38241  25.469  26.500  12.924
65817W        W38242   9.224  10.308  11.913
65818W        W38243  36.496  37.907   2.365
65819W        W38244   8.245  33.000   2.751
65820W        W38245  23.095  24.197   4.729
65821W        W38246  24.081   3.380  11.008
65822W        W38247  15.295  31.004   1.329
65823W        W38248   3.868  20.767   1.355
65824W        W38249  28.013  38.418  13.926
65825W        W38250   2.788   7.351  11.120
65826W        W38251  43.485  11.715   4.233
65827W        W38252  17.103   7.819   2.368
65828W        W38253  39.470   5.750  13.466
65829W        W38254  21.258  41.474   4.294
65830W        W38255  15.283  18.681  13.931
65831W        W38256  24.562  35.015   1.346
65832W        W38257  26.122   7.366  14.920
65833W        W38258  38.921  41.428   0.950
65834W        W38259  43.476  19.691  11.084
65835W        W38260  23.540  33.897  10.614
65836W        W38261  26.551  34.488  12.569
65837W        W38262  14.685   9.685  11.025
65838W        W38263  37.383  28.119  12.529
65839W        W38264  22.726  15.306  12.442
65840W        W38265  44.791  33.932  12.563
65841W        W38266   1.293   6.761   3.169
65842W        W38267  36.435  16.702   4.806
65843W        W38268  43.960  28.532   4.163
65844W        W38269  25.496  37.493   3.677
65845W        W38270  31.947   5.912   1.343
65846W        W38271  15.207  36.933  14.364
65847W        W38272  21.039  37.389   0.254
65848W        W38273  30.584  21.153  14.496
65849W        W38274  25.496  31.561  10.991
65850W        W38275  10.875  27.531   4.621
65851W        W38276   3.265  20.722  10.987
65852W        W38277   8.727  16.277   2.311
65853W        W38278  44.908  32.997  12.444
65854W        W38279   1.740  33.965  13.829
65855W        W38280  26.461  15.617   1.914
65856W        W38281   4.274   6.805  13.379
65857W        W38282  12.141  12.167   4.339
65858W        W38283   0.396   5.910  14.283
65859W        W38284   8.316  21.146   2.228
65860W        W38285  38.926  41.486  14.507
65861W        W38286  24.109  14.129  12.450
65862W        W38287  12.217  18.109   4.122
65863W        W38288  32.581   7.322  13.865
65864W        W38289   0.457  29.983  12.473
65865W        W38290  15.644   8.840   4.153
65866W        W38291   7.680  26.557   3.715
65867W        W38292  13.742  16.228   4.607
65868W        W38293   6.243   0.411  10.563
65869W        W38294  18.267   9.723  14.923
65870W        W38295  39.559  23.162  12.872
65871W        W38296  27.127  31.572   1.238
65872W        W38297   9.199  33.533  13.342
65873W        W38298   9.173  20.701   4.792
65874W        W38299  10.674  27.470  14.894
65875W        W38300  18.107  32.618  11.074
65876W        W38301  19.551  38.329  14.458
65877W        W38302  35.102  18.558  12.370
65878W        W38303   3.940   5.860  10.904
65879W        W38304  34.445  16.105  13.381
65880W        W38305  33.919  15.663   2.711
65881W        W38306   8.767   0.281  10.921
65882W        W38307  24.570   9.759  14.480
65883W        W38308  14.827  24.007  12.056
65884W        W38309  12.811  20.233   2.272
65885W        W38310  19.777  34.038   4.681
65886W        W38311  19.709   6.226  12.497
65887W        W38312   0.283   9.380  14.372
65888W        W38313   5.743  24.161  14.995
65889W        W38314  20.137   8.402  14.872
65890W        W38315  15.086   0.451   2.884
65891W        W38316  40.382  22.614   4.792
65892W        W38317   7.380  21.222  14.426
65893W        W38318  16.236  28.528  10.993
65894W        W38319   7.176  42.839   2.679
65895W        W38320  16.099  14.295  13.380
65896W        W38321  14.668  37.397  10.954
65897W        W38322  30.445  11.855  13.472
65898W        W38323  36.891  44.805   3.634
65899W        W38324  16.624  36.422  12.476
65900W        W38325  41.024  28.446  14.322
65901W        W38326   9.320  33.487   0.806
65902W        W38327  44.292  24.017  11.511
65903W        W38328  15.617  19.703  13.884
65904W        W38329  36.431  42.403   3.187
65905W        W38330  33.501  22.506  12.479
65906W        W38331  10.185  36.992  12.055
65907W        W38332  11.227  44.491   0.305
65908W        W38333  33.048  18.263  10.025
65909W        W38334  12.618  25.587   3.376
65910W        W38335   2.818  25.499  14.949
65911W        W38336   6.268  14.738   0.431
65912W        W38337  13.769  22.214   9.961
65913W        W38338  23.175  26.547  11.589
65914W        W38339  34.040  10.211   3.261
65915W        W38340  38.448   4.778  13.375
65916W        W38341  42.013  22.216  11.510
65917W        W38342  32.065   5.725   0.439
65918W        W38343  12.685  22.568  13.855
65919W        W38344  18.658  39.328  11.111
65920W        W38345  11.250  38.328   1.280
65921W        W38346  27.479   3.322   0.864
65922W        W38347  28.179  12.125   3.833
65923W        W38348   8.161  12.721   0.946
65924W        W38349  35.454  42.508  13.395
65925W        W38350  44.774  27.536   4.720
65926W        W38351  30.618  16.759  12.565
65927W        W38352  16.217  28.632  12.030
65928W        W38353   9.800   3.452   3.665
65929W        W38354   4.852  15.215  12.364
65930W        W38355  10.177   1.844   3.184
65931W        W38356  44.878  13.345  10.452
65932W        W38357   8.307  25.571   1.802
65933W        W38358  34.421  25.972  10.531
65934W        W38359   6.238  38.347   4.117
65935W        W38360  19.675  24.070  11.098
65936W        W38361  22.056   2.865  13.913
65937W        W38362  29.035  32.499   3.227
65938W        W38363  16.156  22.647   3.267
65939W        W38364  19.719  12.159  12.414
65940W        W38365  17.072  22.034   4.606
65941W        W38366   9.202  30.002  13.473
65942W        W38367  20.239  41.991  11.573
65943W        W38368   5.799  10.195   2.196
65944W        W38369  36.864  26.630  13.024
65945W        W38370  24.139  14.633  13.922
65946W        W38371   3.286  36.521   4.734
65947W        W38372  14.331  34.968  14.459
65948W        W38373  21.567  33.988   1.283
65949W        W38374   4.403  44.283  12.380
65950W        W38375  10.305  34.443  12.499
65951W        W38376  31.946  20.581   4.297
65952W        W38377  11.247  26.586   3.754
65953W        W38378  32.515  22.019   4.243
65954W        W38379  29.121  23.711  13.311
65955W        W38380  14.615  10.764   3.672
65956W        W38381   3.373  41.845  10.455
65957W        W38382  19.270  24.222  11.026
65958W        W38383  32.066   2.728   4.737
65959W        W38384  12.194  16.305   3.673
65960W        W38385  41.853  28.587  14.282
65961W        W38386  21.637  43.876  13.800
65962W        W38387  12.791  19.271  13.001
65963W        W38388   2.813   9.322   3.800
65964W        W38389  13.665  17.297  13.966
65965W        W38390  31.952   1.923   0.793
65966W        W38391  19.536   1.753   4.207
65967W        W38392  15.783   2.309   1.790
65968W        W38393   2.266   5.887   0.919
65969W        W38394   3.791  23.101  11.486
65970W        W38395  17.168  35.028  14.321
65971W        W38396   2.954  35.580  11.464
65972W        W38397  20.263  37.068  13.034
65973W        W38398  32.631  36.888   3.299
65974W        W38399  31.574  27.082   1.842
65975W        W38400  25.130   3.783  14.417
65976W        W38401  19.679  16.269  12.995
65977W        W38402  41.504   4.380   1.806
65978W        W38403   1.737  18.572   4.261
65979W        W38404   6.717  26.464   4.672
65980W        W38405  12.738  16.699  13.898
65981W        W38406   0.414  14.667  13.961
65982W        W38407   4.918  31.058   1.289
65983W        W38408  15.238   1.775  10.467
65984W        W38409   4.704   1.797  12.852
65985W        W38410  35.085   5.901  12.508
65986W        W38411   7.186  34.415   1.215
65987W        W38412  36.931  25.183   0.883
65988W        W38413  30.074  22.095   0.833
65989W        W38414  28.468  12.835  13.448
65990W        W38415  11.629  20.218  11.063
65991W        W38416  20.640  10.870   0.883
65992W        W38417  33.106   1.822   2.212
65993W        W38418   0.785  41.506   4.601
65994W        W38419   5.798  20.547  12.552
65995W        W38420  29.045  16.694  11.064
65996W        W38421  44.767   1.468  12.443
65997W        W38422  25.166   0.757   3.370
65998W        W38423  29.022   8.244  14.922
65999W        W38424  32.027   4.354   1.714
66000W        W38425  19.228  24.973  10.440
66001W        W38426  41.450   4.812   0.324
66002W        W38427  17.160  28.669   1.255
66003W        W38428  43.865  25.048  12.948
66004W        W38429  35.385  27.129  11.474
66005W        W38430   8.303   4.823   1.702
66006W        W38431  40.350  29.613  11.517
66007W        W38432  35.602  14.673  14.801
66008W        W38433  22.583  20.265  13.473
66009W        W38434  20.700  25.155  13.361
66010W        W38435  23.223  33.526   2.321
66011W        W38436  27.002   3.863   4.120
66012W        W38437   6.690  13.740  13.000
66013W        W38438   3.302  36.862  13.389
66014W        W38439  43.472   8.251  14.859
66015W        W38440  13.810   4.778  11.374
66016W        W38441  30.037  30.965  14.933
66017W        W38442   8.736   6.304  14.918
66018W        W38443  31.641  21.157  13.881
66019W        W38444  23.571  20.612   3.326
66020W        W38445   9.676  44.289  14.915
66021W        W38446  44.767  35.895   4.650
66022W        W38447  42.383  33.623   3.866
66023W        W38448  29.462  19.191  12.439
66024W        W38449  44.000   0.333  10.906
66025W        W38450  16.305  28.109  12.018
66026W        W38451  42.516  17.265  14.793
66027W        W38452  27.196  20.673  11.545
66028W        W38453  43.387  15.177   3.184
66029W        W38454  17.790  37.863  12.842
66030W        W38455   0.354  16.217   4.823
66031W        W38456   2.748   6.394   1.925
66032W        W38457   1.851  41.915   0.434
66033W        W38458  37.887   8.878   0.829
66034W        W38459  15.169  40.472   2.731
66035W        W38460  19.091  19.611   1.317
66036W        W38461  31.406  36.513   2.837
66037W        W38462   4.725  30.616   0.864
66038W        W38463  42.802  19.086   3.727
66039W        W38464  42.395  36.979  10.572
66040W        W38465  35.409  43.788   4.752
66041W        W38466  21.721  39.831  11.988
66042W        W38467  22.665   1.238   1.341
66043W        W38468   4.370  13.131  12.931
66044W        W38469  37.480  22.721   1.343
66045W        W38470   8.764   7.407   1.413
66046W        W38471  20.114  20.215   3.283
66047W        W38472  19.568  20.602   4.202
66048W        W38473   7.366  35.052  11.123
66049W        W38474  32.559  19.691  14.806
66050W        W38475  17.703  27.043  10.972
66051W        W38476  24.131  22.196  12.551
66052W        W38477   6.826  43.955   1.366
66053W        W38478  35.104  31.145   4.192
66054W        W38479  27.634  28.977   2.665
66055W        W38480   9.247  36.001  12.531
66056W        W38481  29.008  43.842   1.363
66057W        W38482  38.888  23.532   3.289
66058W        W38483  10.687   8.819  10.101
66059W        W38484  27.064   4.213   4.349
66060W        W38485  35.927  43.801   4.837
66061W        W38486  37.452  35.079  13.024
66062W        W38487   4.235  12.135  14.988
66063W        W38488  19.568  41.922   2.876
66064W        W38489  34.371   5.219  13.857
66065W        W38490  12.343  32.588  14.298
66066W        W38491  14.601  28.487  11.894
66067W        W38492   7.283  27.982   1.810
66068W        W38493  18.105  10.849  11.928
66069W        W38494  31.045  44.759  12.402
66070W        W38495  32.432  27.145   1.237
66071W        W38496  24.169  15.667   4.277
66072W        W38497   6.852  12.835   1.304
66073W        W38498   8.187  37.503  14.297
66074W        W38499  24.055  18.766  13.506
66075W        W38500  27.187  38.391  14.008
66076W        W38501   2.331  43.356   4.284
66077W        W38502  26.574   3.715   4.694
66078W        W38503  44.303  42.958   4.608
66079W        W38504  32.136  24.217  12.431
66080W        W38505  44.495  30.651   1.731
66081W        W38506  17.638  26.576   4.798
66082W        W38507  44.328  16.775   1.420
66083W        W38508  17.643   9.699   2.884
66084W        W38509  11.128  43.782  13.045
66085W        W38510   4.836   5.723   0.309
66086W        W38511  32.116  22.680  14.476
66087W        W38512  21.595  30.939  12.854
66088W        W38513  40.920  15.590  10.419
66089W        W38514  33.940  30.605   3.641
66090W        W38515  16.194  19.757   5.175
66091W        W38516   4.837  30.008  11.574
66092W        W38517   9.867   0.982  11.101
66093W        W38518  35.029  27.502   3.749
66094W        W38519  22.214   4.839   1.402
66095W        W38520  41.321  41.431  12.834
66096W        W38521  13.816  24.018   3.318
66097W        W38522  40.025   5.860  12.904
66098W        W38523  29.972  15.639   1.369
66099W        W38524  19.588  36.584   1.795
66100W        W38525  33.912  35.425   2.257
66101W        W38526  28.104   8.297   4.182
66102W        W38527  36.096  42.492  14.926
66103W        W38528  32.599  14.208   3.295
66104W        W38529  18.285  37.504  12.531
66105W        W38530   8.230  30.436   0.957
66106W        W38531  12.307  15.599  13.395
66107W        W38532  25.496   4.243   0.962
66108W        W38533  36.987  27.508  11.011
66109W        W38534  13.317  32.622   3.692
66110W        W38535  25.564  15.628  14.824
66111W        W38536  28.957  27.625  13.866
66112W        W38537  25.967   1.483  12.996
66113W        W38538  25.213  18.180  14.355
66114W        W38539  31.007  17.600   4.291
66115W        W38540  27.020  44.439  13.345
66116W        W38541  33.029  25.041   3.376
66117W        W38542  38.480  16.810  12.067
66118W        W38543  11.372   3.453  10.454
66119W        W38544  14.812   3.953  11.448
66120W        W38545   3.799  23.000  13.486
66121W        W38546   4.808  18.691   2.304
66122W        W38547   2.284  19.053   2.861
66123W        W38548  35.577   8.223  14.884
66124W        W38549  26.628  31.574   3.823
66125W        W38550  27.512  35.878  10.991
66126W        W38551   1.977  13.154  13.860
66127W        W38552  37.978  23.553   3.857
66128W        W38553  26.581  25.692   4.253
66129W        W38554   4.226  37.571  10.547
66130W        W38555  44.783  14.599   3.740
66131W        W38556  26.643  15.301  11.450
66132W        W38557  44.893   4.718  13.417
66133W        W38558  14.799  13.701  14.485
66134W        W38559  40.519  19.057  10.627
66135W        W38560  31.086  15.672   0.303
66136W        W38561   8.400  13.632   4.819
66137W        W38562  34.006   1.952  13.829
66138W        W38563  13.188   2.753   1.756
66139W        W38564  41.935  42.438  11.520
66140W        W38565  17.622  12.226  12.460
66141W        W38566  43.403  34.597  13.792
66142W        W38567  11.180   6.734  12.432
66143W        W38568  10.152  40.931  13.390
66144W        W38569   0.283  33.420  14.940
66145W        W38570  43.368  10.143  11.380
66146W        W38571   8.338  38.509   1.264
66147W        W38572  41.295  34.011  14.934
66148W        W38573   8.756  19.769   0.261
66149W        W38574  33.595  14.247   3.660
66150W        W38575  32.596   1.404  12.982
66151W        W38576  26.064   3.754  14.377
66152W        W38577   2.804   8.363   1.233
66153W        W38578   7.348  29.487  10.605
66154W        W38579  19.221   3.291   2.209
66155W        W38580   6.427  29.571  11.077
66156W        W38581  15.137   2.739  13.479
66157W        W38582  25.675  10.793   0.242
66158W        W38583  42.516  14.124   1.830
66159W        W38584  17.266   2.413   9.447
66160W        W38585   1.299  15.648   2.246
66161W        W38586  38.907  11.683  12.403
66162W        W38587   3.429  39.046   0.867
66163W        W38588  41.955  13.138   4.613
66164W        W38589   5.772  23.230   0.247
66165W        W38590  31.473  43.006   0.775
66166W        W38591  42.312  22.540  12.977
66167W        W38592  34.065  28.018   3.368
66168W        W38593   0.401  39.368  10.912
66169W        W38594  28.075   1.967  11.921
66170W        W38595  42.298   1.422  14.396
66171W        W38596  13.158   4.796   2.254
66172W        W38597  22.555  12.764   3.379
66173W        W38598  39.556  10.775  10.443
66174W        W38599  29.656   0.258   4.348
66175W        W38600   8.775  15.091   2.684
66176W        W38601  11.757  38.942   0.337
66177W        W38602  36.565  40.830   2.708
66178W        W38603  32.435  31.610   4.701
66179W        W38604  38.404  28.513  12.917
66180W        W38605  18.233  31.115  14.991
66181W        W38606  23.685  38.021  11.461
66182W        W38607  23.113  24.022  10.562
66183W        W38608  32.491  19.548   2.857
66184W        W38609   4.296  41.384  12.358
66185W        W38610  32.474  27.981   1.215
66186W        W38611  26.193  39.818  11.375
66187W        W38612  29.919  36.044   4.129
66188W        W38613  43.287  15.767   3.207
66189W        W38614  13.175  35.071   3.294
66190W        W38615  25.981  17.681   4.334
66191W        W38616  18.096  12.845   3.834
66192W        W38617   6.771   7.837  12.037
66193W        W38618   4.863  20.700  13.548
66194W        W38619   9.668  33.949  12.558
66195W        W38620   5.750  12.259   4.324
66196W        W38621  25.070  19.252   1.877
66197W        W38622   8.774   7.871  11.388
66198W        W38623  18.051  19.674   0.466
66199W        W38624  38.460  32.919  13.308
66200W        W38625  39.479  24.085  12.968
66201W        W38626  40.385   0.260   0.387
66202W        W38627  30.976  15.786   1.221
66203W        W38628   2.925  28.040  13.961
66204W        W38629  17.090  24.107   1.882
66205W        W38630  41.850  22.054  10.914
66206W        W38631  19.627  28.935  14.893
66207W        W38632  10.287  14.815   3.752
66208W        W38633  12.664  35.586   3.700
66209W        W38634  35.493  31.415   3.376
66210W        W38635  25.094  32.445  14.784
66211W        W38636  44.889  26.536   3.863
66212W        W38637  43.803  19.066   3.803
66213W        W38638  27.654  36.926   0.883
66214W        W38639   9.277  37.469   5.166
66215W        W38640  25.155   1.239   4.171
66216W        W38641  34.082  21.567   4.263
66217W        W38642  30.929  34.982  14.827
66218W        W38643   2.305  10.858   3.761
66219W        W38644  20.656  44.454  13.891
66220W        W38645  32.593   8.226   0.471
66221W        W38646  35.536  12.809   1.265
66222W        W38647  10.677  39.886  13.985
66223W        W38648   6.869  40.850   2.383
66224W        W38649   6.894   1.339  14.845
66225W        W38650  34.890  34.382  11.491
66226W        W38651  21.153  44.399   3.845
66227W        W38652  30.993   8.296   4.302
66228W        W38653  44.305  11.641   3.153
66229W        W38654  27.132  24.195   1.849
66230W        W38655  22.023  41.826   0.265
66231W        W38656  32.013  22.179   1.339
66232W        W38657  19.271  34.599   0.858
66233W        W38658  18.200  15.596  14.331
66234W        W38659  38.974   9.832  10.587
66235W        W38660  13.717   9.836   3.277
66236W        W38661  23.077  18.758  12.939
66237W        W38662   7.204  20.674   3.666
66238W        W38663  40.548  23.024  13.056
66239W        W38664  44.399  19.687  14.831
66240W        W38665   1.260  12.739   3.665
66241W        W38666  43.510  41.478  12.578
66242W        W38667  40.847  42.829   5.691
66243W        W38668   9.753   6.890   3.711
66244W        W38669  31.069  28.047  14.506
66245W        W38670   9.886  28.007  10.606
66246W        W38671  36.434  18.786  12.391
66247W        W38672  42.408   7.800   4.122
66248W        W38673   3.778  13.254   1.407
66249W        W38674  19.170  33.888   4.174
66250W        W38675  25.968  40.476   1.785
66251W        W38676   0.833   5.235   1.255
66252W        W38677  40.505  14.249  14.415
66253W        W38678   2.952  38.482   0.813
66254W        W38679  33.389   0.311   3.376
66255W        W38680  38.377  39.365   4.692
66256W        W38681  14.740  32.454  14.812
66257W        W38682  20.722  23.211  13.413
66258W        W38683  25.028   5.860   1.855
66259W        W38684  31.595  23.599   1.712
66260W        W38685  29.526  15.625   0.806
66261W        W38686   0.473  28.596  11.002
66262W        W38687  14.166  17.079  12.431
66263W        W38688   5.861  10.686   3.797
66264W        W38689  34.036  13.321  13.944
66265W        W38690  33.518   6.894   1.703
66266W        W38691   7.382  43.496  14.893
66267W        W38692   0.426  43.845   1.717
66268W        W38693  36.941  41.833  10.481
66269W        W38694  39.477   3.343  11.420
66270W        W38695  13.134  39.047   3.829
66271W        W38696  25.188  43.856   3.657
66272W        W38697  18.650  11.296  10.539
66273W        W38698  30.925  30.424   2.361
66274W        W38699   2.246  23.187   4.298
66275W        W38700  30.924  12.754   4.808
66276W        W38701  41.800  35.873  10.635
66277W        W38702  36.407  13.672  14.331
66278W        W38703  18.593  25.709   1.709
66279W        W38704  30.100  37.832  14.313
66280W        W38705  27.481  22.252  12.877
66281W        W38706   2.929  18.679   2.415
66282W        W38707  40.987  40.035  12.542
66283W        W38708   1.894  14.693   3.771
66284W        W38709  30.656   1.388   3.233
66285W        W38710  43.402  14.295   0.739
66286W        W38711   9.794  44.894   3.162
66287W        W38712   4.804  13.839   2.859
66288W        W38713  35.530   9.644  13.350
66289W        W38714   9.306  30.422  13.948
66290W        W38715   3.952   1.468   3.712
66291W        W38716  17.140   1.342  12.999
66292W        W38717  28.172   6.852   1.858
66293W        W38718  35.961  28.648  12.085
66294W        W38719  11.625  44.991   3.655
66295W        W38720  32.574  15.589  11.012
66296W        W38721  10.282  22.218  13.492
66297W        W38722  20.668  34.414   0.414
66298W        W38723  24.676   8.230   4.709
66299W        W38724  37.348  28.496  13.873
66300W        W38725  25.514  19.640   1.913
66301W        W38726   3.884  22.638   1.268
66302W        W38727   4.227   8.754   3.652
66303W        W38728   3.303  29.426   1.906
66304W        W38729  41.007   9.238  12.496
66305W        W38730   8.747   6.837  12.979
66306W        W38731  14.682   7.191  10.025
66307W        W38732  17.178  22.631   3.758
66308W        W38733  34.069  30.480   0.383
66309W        W38734  13.254  26.603   1.889
66310W        W38735  28.970  14.686   2.277
66311W        W38736   3.369  36.918   0.350
66312W        W38737  26.692  13.724   1.252
66313W        W38738  11.323  13.137   3.841
66314W        W38739  29.664  37.529   3.300
66315W        W38740  38.903  36.973   3.657
66316W        W38741  22.115   6.332  11.869
66317W        W38742  30.983  15.675   2.179
66318W        W38743  12.789  37.962   3.304
66319W        W38744  17.082  10.159  10.947
66320W        W38745  20.528   4.933  11.062
66321W        W38746   2.826  19.110   0.305
66322W        W38747  35.532   4.321   0.855
66323W        W38748   0.322  41.932  13.340
66324W        W38749  43.815  19.043  11.424
66325W        W38750   0.303  12.156   0.243
66326W        W38751  43.276  21.601  13.909
66327W        W38752  19.555  25.037  12.475
66328W        W38753   4.789  24.131  11.061
66329W        W38754  38.048  18.100   1.922
66330W        W38755  25.469  25.617  14.002
66331W        W38756   5.211  17.613   3.683
66332W        W38757  26.204  25.497  12.544
66333W        W38758  29.078  16.311   0.265
66334W        W38759  13.659  25.179  12.046
66335W        W38760  40.998  12.168   4.157
66336W        W38761  30.468  23.499   0.922
66337W        W38762  15.649  35.600   1.798
66338W        W38763  14.666  13.151  14.815
66339W        W38764  34.972   7.850  10.412
66340W        W38765  12.224  26.095   1.718
66341W        W38766  33.074  35.105  10.440
66342W        W38767  30.988  25.522   2.351
66343W        W38768  38.016  17.720  14.485
66344W        W38769  29.956  41.029   4.833
66345W        W38770  43.827   1.943  12.996
66346W        W38771   7.174  40.328   2.667
66347W        W38772   9.377   4.772   0.326
66348W        W38773  20.112  41.443   4.714
66349W        W38774  14.725  25.205   0.347
66350W        W38775  34.973  11.300   1.451
66351W        W38776  28.986   1.845   3.812
66352W        W38777   4.373  10.190   1.722
66353W        W38778  44.871   8.281  14.959
66354W        W38779  24.592  29.521   2.765
66355W        W38780  27.990   1.384   4.303
66356W        W38781  41.466  43.436   0.300
66357W        W38782  27.622   6.795  11.478
66358W        W38783  35.914   8.705   4.599
66359W        W38784  12.171  26.988  13.498
66360W        W38785  41.995  16.147  11.983
66361W        W38786  27.192  35.105  12.459
66362W        W38787  11.204   3.930  10.576
66363W        W38788  13.838  23.574   0.844
66364W        W38789  40.034   7.240   0.325
66365W        W38790   8.665  30.063   0.243
66366W        W38791  42.477   4.323  14.828
66367W        W38792   1.802  22.040  14.928
66368W        W38793  23.508  38.468   1.729
66369W        W38794  23.492  34.478  12.089
66370W        W38795  29.971  18.201   9.646
66371W        W38796  40.836  12.801   2.189
66372W        W38797  18.759  38.022   2.344
66373W        W38798  44.468  44.298  13.534
66374W        W38799  27.661  40.473   1.927
66375W        W38800  39.557  16.761  13.529
66376W        W38801   2.880  31.922  10.444
66377W        W38802  33.095  31.626   1.373
66378W        W38803   5.874   5.262   4.169
66379W        W38804  37.983  18.144   4.792
66380W        W38805  27.152  11.752   0.428
66381W        W38806  13.697  44.755   4.292
66382W        W38807  20.554   6.330  11.532
66383W        W38808   2.846  39.387  13.399
66384W        W38809   2.813  29.962  13.925
66385W        W38810   8.173  31.066   2.722
66386W        W38811  29.497   6.353   1.387
66387W        W38812   2.817  43.413  12.387
66388W        W38813  23.576  13.280   4.737
66389W        W38814  40.958  31.461  12.463
66390W        W38815  29.975  40.514  13.408
66391W        W38816  24.202  15.266   3.805
66392W        W38817  42.976  21.666   4.178
66393W        W38818  33.026  41.876   0.408
66394W        W38819   5.365   3.892   2.253
66395W        W38820  17.262  12.238   4.353
66396W        W38821  29.515  40.411  11.575
66397W        W38822  39.934  18.212   2.370
66398W        W38823  41.888  20.657   4.715
66399W        W38824  20.704   7.869  12.083
66400W        W38825   0.857  39.474  13.539
66401W        W38826  21.151   5.758   1.297
66402W        W38827  32.628  25.571  11.447
66403W        W38828  12.213   4.698  14.899
66404W        W38829  34.420  15.687  10.508
66405W        W38830  23.566  25.507   1.221
66406W        W38831   5.308  15.254   2.231
66407W        W38832  44.858  39.882  10.979
66408W        W38833  26.632   3.785   2.222
66409W        W38834  33.956  27.540   1.873
66410W        W38835   1.258   2.803  10.952
66411W        W38836   7.367   8.196  13.010
66412W        W38837  40.970  34.875  10.562
66413W        W38838  26.480   6.227   3.808
66414W        W38839  35.024   5.892   3.325
66415W        W38840  35.855  30.485   3.630
66416W        W38841   1.876  13.232   3.652
66417W        W38842   5.774  16.155   3.797
66418W        W38843  18.126   8.833  14.890
66419W        W38844  14.667  15.175   1.213
66420W        W38845  25.552  39.342   1.325
66421W        W38846  31.103   7.783   3.230
66422W        W38847  20.078  40.460   3.729
66423W        W38848  16.204   3.845  13.493
66424W        W38849   1.956  39.925   4.668
66425W        W38850  32.098   2.816   3.650
66426W        W38851  24.209  37.038  14.910
66427W        W38852  10.728  11.703  10.461
66428W        W38853  32.398   3.851   4.721
66429W        W38854   7.900  16.208  10.539
66430W        W38855  31.488  38.416  12.831
66431W        W38856  23.624  39.476   3.363
66432W        W38857   4.380  24.089   3.347
66433W        W38858  33.999  22.505  11.900
66434W        W38859  41.991  19.685  10.099
66435W        W38860   1.776  44.382   1.451
66436W        W38861  19.083  20.606  14.478
66437W        W38862   5.195  19.121  14.962
66438W        W38863   5.211   7.849  12.900
66439W        W38864  35.077  41.891   1.728
66440W        W38865  41.454  23.993   3.315
66441W        W38866  43.482   6.322   0.776
66442W        W38867  25.156   6.800   1.308
66443W        W38868  37.896  29.937  10.936
66444W        W38869  21.035  26.650  13.855
66445W        W38870  30.451   7.763   4.351
66446W        W38871  35.976  29.001  11.895
66447W        W38872  38.828  16.570  14.788
66448W        W38873  43.998  26.163  10.562
66449W        W38874  20.259  43.395   2.879
66450W        W38875  33.910  37.032   0.282
66451W        W38876  40.372  24.528   2.192
66452W        W38877   7.234  23.615  10.484
66453W        W38878   3.334   1.900   2.392
66454W        W38879  32.006   0.291  14.019
66455W        W38880  18.712  31.970  13.444
66456W        W38881  16.107  39.407   1.794
66457W        W38882  24.628  16.681  11.575
66458W        W38883  30.082   5.287  14.018
66459W        W38884   1.301   2.437   3.771
66460W        W38885   6.863  10.826   4.663
66461W        W38886  16.162  39.405  11.855
66462W        W38887  27.640  25.527   0.338
66463W        W38888  40.860   4.791   4.150
66464W        W38889   7.852   8.308   9.535
66465W        W38890  36.061  31.050   0.906
66466W        W38891  23.044   0.760   3.741
66467W        W38892  25.711  22.667   1.934
66468W        W38893  41.932  42.784   2.346
66469W        W38894  30.450  25.499  13.834
66470W        W38895  15.287   8.296  12.955
66471W        W38896  34.971  44.442  14.275
66472W        W38897   4.783  10.852  11.398
66473W        W38898  34.078  23.640   2.234
66474W        W38899  12.218  37.892   3.248
66475W        W38900   4.311  43.002   3.860
66476W        W38901  42.469  19.124  12.985
66477W        W38902  28.934  23.064   1.843
66478W        W38903  27.038  14.281  14.365
66479W        W38904  36.053  31.913  14.008
66480W        W38905  34.430   3.271  14.374
66481W        W38906  24.976  16.638   2.320
66482W        W38907  18.641  40.800   3.647
66483W        W38908  19.694  32.927   4.119
66484W        W38909  13.756  37.545   1.214
66485W        W38910  41.520  12.811  12.473
66486W        W38911  13.680  34.506   3.766
66487W        W38912  24.066  12.683  11.858
66488W        W38913  31.466  33.488  11.938
66489W        W38914  40.461   3.741  14.845
66490W        W38915  38.449   0.476  14.378
66491W        W38916  38.859   8.665   2.395
66492W        W38917  16.801   0.771   0.937
66493W        W38918   2.952  26.692   4.149
66494W        W38919  11.742  19.088  10.628
66495W        W38920  44.928   8.308   2.273
66496W        W38921  24.165  20.089   0.900
66497W        W38922   9.165   7.880  10.635
66498W        W38923   6.289  34.048   1.808
66499W        W38924   8.394  30.415  12.028
66500W        W38925   2.332  15.737   0.413
66501W        W38926   3.874   6.726  11.942
66502W        W38927   3.272  29.156   3.256
66503W        W38928  37.933  34.067   1.833
66504W        W38929  22.606  19.108  10.549
66505W        W38930   0.353  19.068   0.909
66506W        W38931  39.003  25.639  13.893
66507W        W38932  26.037  21.755   1.431
66508W        W38933   6.400  13.276   2.231
66509W        W38934  18.078  24.192  13.545
66510W        W38935  40.427  33.568  10.577
66511W        W38936   2.732  38.967   1.295
66512W        W38937   2.343   1.826   1.793
66513W        W38938  36.978  27.069   4.607
66514W        W38939  14.294  24.190   2.287
66515W        W38940   7.851  42.016  13.800
66516W        W38941  27.578  35.480   3.317
66517W        W38942   7.334  13.194  13.479
66518W        W38943  40.944  16.635   0.751
66519W        W38944  31.964   2.827  10.474
66520W        W38945  37.929   3.895  11.610
66521W        W38946  16.708  18.262   4.157
66522W        W38947  38.871  29.131   3.808
66523W        W38948   0.927  35.921   5.096
66524W        W38949  16.764  33.518  12.044
66525W        W38950  29.556  34.494  11.862
66526W        W38951  34.067   4.247   1.315
66527W        W38952  26.197   4.902  14.995
66528W        W38953  27.076   0.265  13.499
66529W        W38954  21.650  16.266  14.901
66530W        W38955  42.354  12.693  14.884
66531W        W38956  14.183   8.373  11.960
66532W        W38957  41.458  29.644  14.024
66533W        W38958  29.095  18.196   3.649
66534W        W38959  15.085  14.704   2.221
66535W        W38960  42.892  21.700  10.436
66536W        W38961  28.579  42.332  13.884
66537W        W38962   3.805  23.735   3.251
66538W        W38963  11.360  41.476  11.564
66539W        W38964   1.440  21.751  10.517
66540W        W38965   5.788  26.648  12.019
66541W        W38966  15.797  17.262  11.543
66542W        W38967  36.524  15.084   1.320
66543W        W38968  12.706  13.628   1.393
66544W        W38969   9.171  40.837   4.613
66545W        W38970  39.946   3.827   2.220
66546W        W38971  28.645  39.517  11.026
66547W        W38972   1.789  27.173   1.903
66548W        W38973  27.668  17.195  10.543
66549W        W38974   4.755  12.636   5.320
66550W        W38975  27.999  25.628   1.793
66551W        W38976  27.563  36.406   1.428
66552W        W38977  22.047  17.573   0.869
66553W        W38978   5.417  28.986  14.479
66554W        W38979   3.819  28.447  13.928
66555W        W38980  17.281   8.687   2.859
66556W        W38981   8.705  11.129   1.864
66557W        W38982  43.022  41.876   1.449
66558W        W38983  36.563   5.193  10.449
66559W        W38984  23.141  26.018  14.298
66560W        W38985  29.455  17.194   5.190
66561W        W38986  15.776  36.437  11.092
66562W        W38987  21.650  10.839  11.518
66563W        W38988  42.890  27.142   4.800
66564W        W38989  42.296  17.101  12.947
66565W        W38990  42.813   5.747  12.019
66566W        W38991  28.151  34.999  12.371
66567W        W38992  29.083  33.915   0.863
66568W        W38993  15.086  37.858   0.843
66569W        W38994   6.767  19.193  14.830
66570W        W38995  29.544   3.320   1.824
66571W        W38996  19.754  15.219   4.288
66572W        W38997  32.965  21.221  10.539
66573W        W38998  40.857  31.023  10.505
66574W        W38999   3.821  36.979   4.696
66575W        W39000  40.911  25.185   3.690
66576W        W39001  27.116  20.547   4.727
66577W        W39002  28.049  41.030  10.554
66578W        W39003  18.129  37.054   0.398
66579W        W39004  37.971  10.279   1.881
66580W        W39005  12.273  16.806  10.452
66581W        W39006  37.555   6.778   4.822
66582W        W39007  36.058   0.879  12.441
66583W        W39008  28.608  17.289   3.867
66584W        W39009  32.893  16.295  13.945
66585W        W39010  21.609  12.623   2.235
66586W        W39011  39.033  25.691  12.547
66587W        W39012   7.227  34.062  13.375
66588W        W39013  12.279   0.398   1.696
66589W        W39014  44.783   1.271  12.960
66590W        W39015   6.273  18.612   4.336
66591W        W39016   7.415  14.204   0.480
66592W        W39017  10.366  44.322   2.692
66593W        W39018  22.127  38.449  13.933
66594W        W39019   6.751  40.897  10.594
66595W        W39020  25.620   9.820  13.938
66596W        W39021   6.234  34.389   3.708
66597W        W39022  34.422  33.930  12.056
66598W        W39023   3.880  19.190   2.249
66599W        W39024  29.471  27.668   3.750
66600W        W39025  34.370  36.464  14.353
66601W        W39026  15.324  36.054   0.885
66602W        W39027   4.883  24.056  14.858
66603W        W39028  42.817   8.760   4.701
66604W        W39029  13.296  15.219  14.932
66605W        W39030  34.004   6.217  12.842
66606W        W39031  27.982  21.527   3.200
66607W        W39032  36.092  23.528  11.403
66608W        W39033   7.190  42.397   0.784
66609W        W39034  24.566  29.613   2.410
66610W        W39035  31.514   1.438   3.760
66611W        W39036  21.561  43.342  11.010
66612W        W39037  10.167  20.638   1.440
66613W        W39038  38.416   7.872   1.724
66614W        W39039  37.883   5.805   0.742
66615W        W39040  41.485  44.875   0.792
66616W        W39041   6.709  23.548   4.248
66617W        W39042  34.899  30.488   3.820
66618W        W39043  17.619  33.541   2.260
66619W        W39044  17.123  29.930  13.899
66620W        W39045  27.565  17.698   2.312
66621W        W39046  44.993  26.566  14.896
66622W        W39047   2.903  17.104   2.248
66623W        W39048  25.096   9.646  13.413
66624W        W39049  43.978  16.591  14.773
66625W        W39050  19.709   4.927   5.102
66626W        W39051  29.484  11.349   1.760
66627W        W39052  10.366  15.103  14.882
66628W        W39053  25.519  38.359  13.828
66629W        W39054  12.133  42.856   1.425
66630W        W39055   7.800  22.085  10.080
66631W        W39056  29.524  13.759   4.146
66632W        W39057  34.371   5.780   4.264
66633W        W39058  34.084  12.339  12.973
66634W        W39059   8.328  25.083  11.082
66635W        W39060   4.389  24.580   4.131
66636W        W39061  38.876  22.582  11.382
66637W        W39062  21.099  34.086  14.906
66638W        W39063  28.556  30.112  10.143
66639W        W39064  19.170   0.806   4.132
66640W        W39065  37.515   6.266  13.867
66641W        W39066  19.686  31.090  14.760
66642W        W39067  30.128   3.853   1.856
66643W        W39068  18.208  16.729  13.904
66644W        W39069  34.580  35.949   2.821
66645W        W39070  17.731  40.533   2.330
66646W        W39071  20.743   5.818   4.836
66647W        W39072  17.179  21.051  13.794
66648W        W39073   3.832   8.259  12.958
66649W        W39074   5.275  31.074   3.264
66650W        W39075  10.142   1.801   4.206
66651W        W39076  19.765  33.472   3.767
66652W        W39077  23.643  41.372   0.264
66653W        W39078  43.904   8.894  10.915
66654W        W39079  37.497  43.778   2.868
66655W        W39080  17.144   4.818  14.372
66656W        W39081   5.915  41.970  13.375
66657W        W39082  25.081  33.518  10.420
66658W        W39083   5.833  36.068   5.591
66659W        W39084  12.191   9.759   4.605
66660W        W39085  27.673  27.482   3.845
66661W        W39086   5.758  13.645  11.101
66662W        W39087  38.562  36.896  12.991
66663W        W39088   3.437  32.931  14.486
66664W        W39089  24.987  16.787   0.929
66665W        W39090  23.146  33.503  12.380
66666W        W39091  15.284  15.127   4.672
66667W        W39092  18.140   8.187  12.025
66668W        W39093  20.732  31.001  14.025
66669W        W39094  24.204   6.328   5.241
66670W        W39095  19.632  22.998   1.915
66671W        W39096  32.105  14.678   3.373
66672W        W39097   3.300  33.058  11.924
66673W        W39098  18.162  27.078   4.664
66674W        W39099  19.075  30.947  12.878
66675W        W39100  23.516  33.018   4.212
66676W        W39101  16.591  38.328  14.805
66677W        W39102  15.097  32.135   2.761
66678W        W39103   8.376  17.156   0.904
66679W        W39104  29.116  17.582   4.161
66680W        W39105  14.154  19.135  11.068
66681W        W39106  11.799  42.958   3.738
66682W        W39107  11.806   8.775  10.105
66683W        W39108  44.967  31.470  11.602
66684W        W39109   0.306  19.226  12.469
66685W        W39110  21.719   0.386   0.748
66686W        W39111   4.774  30.100  14.374
66687W        W39112  19.656  15.158   3.346
66688W        W39113  20.676  15.192   4.345
66689W        W39114  31.993  17.282  11.066
66690W        W39115  32.915  37.524   4.194
66691W        W39116   0.788  18.137   3.753
66692W        W39117  27.144   7.736   4.191
66693W        W39118  34.905  22.013   4.653
66694W        W39119   7.186  13.351   1.262
66695W        W39120  12.767  25.135   1.853
66696W        W39121  24.556  31.117  12.897
66697W        W39122  38.363  29.580   4.142
66698W        W39123  19.168  41.928  10.593
66699W        W39124  12.235  16.721   0.851
66700W        W39125  10.789  32.091   0.274
66701W        W39126  13.322   6.324  10.554
66702W        W39127  32.022  17.648   1.284
66703W        W39128  34.416  40.529  11.094
66704W        W39129  26.163   9.322   1.410
66705W        W39130  35.031  25.980   2.311
66706W        W39131  24.194   2.796   4.202
66707W        W39132  16.259  38.394   2.407
66708W        W39133  44.885   0.375   2.222
66709W        W39134  21.701  23.059   2.315
66710W        W39135  24.122  39.412   1.254
66711W        W39136  27.082  39.437   4.142
66712W        W39137  26.176  26.456  13.489
66713W        W39138  16.690  34.564  10.930
66714W        W39139   0.957  31.607   4.681
66715W        W39140  30.044  15.110  14.968
66716W        W39141  32.998  26.686  11.556
66717W        W39142   9.762  31.575  10.496
66718W        W39143  15.584   6.291   3.328
66719W        W39144  29.169  13.166   1.753
66720W        W39145  29.997  24.043  13.054
66721W        W39146   8.391  24.596   3.376
66722W        W39147  14.209  19.649   3.714
66723W        W39148  37.572  41.295   2.782
66724W        W39149  31.015   5.294  10.512
66725W        W39150  37.957   5.270   3.387
66726W        W39151   7.259  26.541   0.328
66727W        W39152  44.881  38.881   0.423
66728W        W39153  10.314  38.461  12.491
66729W        W39154  18.070  24.612   2.407
66730W        W39155   5.231   9.784   2.851
66731W        W39156  31.600   4.728   1.835
66732W        W39157   0.402   0.264   2.813
66733W        W39158  43.383   9.394   1.444
66734W        W39159  43.781  26.683   2.724
66735W        W39160  44.378   5.203   1.723
66736W        W39161  28.648   3.430  12.398
66737W        W39162  18.624   4.232  12.028
66738W        W39163  18.652   5.202  12.468
66739W        W39164  25.613  39.867   4.607
66740W        W39165  26.191  30.509   0.889
66741W        W39166   0.419  35.004  12.090
66742W        W39167  28.549  23.109  14.513
66743W        W39168  21.547  13.147   1.236
66744W        W39169  22.219  32.995   0.364
66745W        W39170  31.418  14.298   1.295
66746W        W39171  33.598   0.868   0.956
66747W        W39172   9.302  15.600   3.304
66748W        W39173  24.176  18.106  11.043
66749W        W39174  27.461  33.027  13.455
66750W        W39175  32.984  16.122  14.464
66751W        W39176  20.575  39.996   2.406
66752W        W39177   2.412  26.981   4.726
66753W        W39178  28.538   0.929  12.407
66754W        W39179  33.420  10.871   2.187
66755W        W39180   8.370   6.188   2.729
66756W        W39181  18.567  43.337   0.329
66757W        W39182  42.317  12.735  14.417
66758W        W39183  21.644  34.101   0.785
66759W        W39184  39.877  17.674  10.933
66760W        W39185  22.679  12.241  10.988
66761W        W39186  20.135  37.373   2.374
66762W        W39187  42.814  15.265  12.367
66763W        W39188  10.726   8.265  10.973
66764W        W39189  31.088   2.258   3.694
66765W        W39190  19.215  37.978  12.989
66766W        W39191  10.878   3.951   4.801
66767W        W39192  31.022  39.817   3.693
66768W        W39193  36.511  33.881  14.894
66769W        W39194  38.901  38.348   0.377
66770W        W39195  26.638  33.912  12.364
66771W        W39196  35.439  38.472   3.852
66772W        W39197  25.659   8.230  11.416
66773W        W39198  23.006  33.472   4.210
66774W        W39199  33.999  42.422  14.769
66775W        W39200  32.114  13.764  13.061
66776W        W39201  44.792   9.653   1.820
66777W        W39202  23.156  16.109   1.426
66778W        W39203  30.433  44.350   0.369
66779W        W39204   8.242  10.853   3.255
66780W        W39205  29.000   2.434   0.774
66781W        W39206  25.681   1.313   2.322
66782W        W39207  29.668  44.309   0.309
66783W        W39208  12.644  24.040   9.454
66784W        W39209   2.774  41.320  11.952
66785W        W39210  16.099   7.794   0.341
66786W        W39211  34.044  19.688   0.263
66787W        W39212   4.748  34.905  11.406
66788W        W39213  37.502  33.081   4.329
66789W        W39214  12.218  33.033   2.889
66790W        W39215   2.784  33.910   2.821
66791W        W39216   2.318  16.254   0.484
66792W        W39217   3.383  42.033   4.177
66793W        W39218  14.158  17.640   4.227
66794W        W39219  39.828  38.416  11.894
66795W        W39220  26.505  34.986   0.269
66796W        W39221  15.671  35.455  14.409
66797W        W39222  20.085   3.950  12.956
66798W        W39223  34.462  41.451  10.483
66799W        W39224  24.679  23.696   1.726
66800W        W39225  19.240  23.716   1.243
66801W        W39226  16.210  40.016  12.500
66802W        W39227  44.504  30.950   4.716
66803W        W39228  42.305   2.288  12.976
66804W        W39229   5.386   8.294   4.719
66805W        W39230   0.482  38.406  11.877
66806W        W39231  12.775  43.859   1.734
66807W        W39232  41.363   3.845  14.278
66808W        W39233  17.123  34.953  11.400
66809W        W39234  42.901  26.477  11.390
66810W        W39235  37.064  20.692   0.914
66811W        W39236  44.790  19.654   1.337
66812W        W39237  22.546  35.997  10.461
66813W        W39238  10.173   4.797   3.858
66814W        W39239  33.441  29.958  11.856
66815W        W39240   6.703   2.395   3.808
66816W        W39241  40.325   1.267  13.793
66817W        W39242  43.878  27.493   1.449
66818W        W39243   8.841  17.287  14.488
66819W        W39244  33.559  36.388  12.006
66820W        W39245  44.779  26.168   3.338
66821W        W39246  10.700   7.273   4.235
66822W        W39247  19.616  22.043   1.860
66823W        W39248   3.247  25.593  14.789
66824W        W39249  43.933  42.958  13.454
66825W        W39250  26.086  41.842   1.332
66826W        W39251   4.886  10.205   0.472
66827W        W39252  18.579  18.056  13.451
66828W        W39253  39.853  10.841  10.937
66829W        W39254  24.621  32.492  13.434
66830W        W39255  11.159  41.427  10.527
66831W        W39256  31.552  27.640   1.815
66832W        W39257  21.578  41.297   3.179
66833W        W39258  13.744  38.034   2.225
66834W        W39259  23.643  30.454  10.474
66835W        W39260  25.012  12.150  14.384
66836W        W39261  39.926  25.642  13.355
66837W        W39262  14.671  10.343  13.312
66838W        W39263  39.875  36.000   4.118
66839W        W39264  22.116  33.097   1.904
66840W        W39265  36.998  31.448  13.451
66841W        W39266   6.827  37.397   4.319
66842W        W39267  22.997  34.451   2.327
66843W        W39268  32.042  21.655  12.515
66844W        W39269  11.359   3.850  10.938
66845W        W39270   6.425  20.658   2.740
66846W        W39271  23.025  28.616  12.980
66847W        W39272   3.315  11.241   3.771
66848W        W39273   3.400  13.614  14.801
66849W        W39274  43.389  35.518   1.779
66850W        W39275  19.236  16.767   4.177
66851W        W39276  28.139   9.817   3.757
66852W        W39277  31.945  38.978   3.261
66853W        W39278  14.184   0.917  13.975
66854W        W39279  29.970  29.481   1.375
66855W        W39280  11.209  38.414   2.181
66856W        W39281  11.153   5.790  10.471
66857W        W39282  10.764  15.302   0.733
66858W        W39283  33.566   2.335   0.953
66859W        W39284  33.411  28.458   4.191
66860W        W39285  39.429   3.395  14.476
66861W        W39286   6.837  22.744   0.868
66862W        W39287  35.004  30.001   0.776
66863W        W39288  18.267   1.737  12.080
66864W        W39289  41.337  30.915   3.272
66865W        W39290  26.664  25.065  14.883
66866W        W39291  18.754   5.906  14.005
66867W        W39292  32.963  32.897  12.879
66868W        W39293  33.453  19.644  12.830
66869W        W39294  26.009  39.832  12.444
66870W        W39295  15.233   2.362   4.682
66871W        W39296  29.938  15.200  11.038
66872W        W39297  17.636  31.010  10.950
66873W        W39298  11.233  42.449   3.184
66874W        W39299  17.613  37.460   4.758
66875W        W39300  25.494  11.135   3.344
66876W        W39301   9.267  36.437   2.327
66877W        W39302  23.026  31.456  10.613
66878W        W39303  36.358  36.984   0.731
66879W        W39304   1.819  44.995   4.749
66880W        W39305  36.078  38.939  13.493
66881W        W39306  18.700  10.288   0.865
66882W        W39307   5.359  24.588   0.840
66883W        W39308   5.759  23.985  11.376
66884W        W39309  15.273  35.940   3.669
66885W        W39310  42.350   0.910   4.710
66886W        W39311  25.568   2.863  13.494
66887W        W39312  10.255  25.529   2.247
66888W        W39313   7.172   7.733   4.702
66889W        W39314  17.654  42.834   4.298
66890W        W39315  25.655   1.733   3.786
66891W        W39316   0.348  21.548  14.368
66892W        W39317  22.097  22.575   4.245
66893W        W39318  10.311  28.030  12.847
66894W        W39319   4.852  35.999  13.914
66895W        W39320  37.881  26.575  14.280
66896W        W39321   6.877   7.174   2.663
66897W        W39322  41.445  35.411   4.625
66898W        W39323   1.909  44.424  12.548
66899W        W39324  34.080  19.224   4.651
66900W        W39325  21.032   3.924   2.248
66901W        W39326  41.882  19.777   0.335
66902W        W39327  26.545  14.176   0.897
66903W        W39328  18.239  10.318   3.381
66904W        W39329  26.039  31.580  14.974
66905W        W39330  31.121  40.991  14.796
66906W        W39331  37.026  18.112   3.806
66907W        W39332  11.649  41.479  14.903
66908W        W39333   1.750   1.317  12.878
66909W        W39334  11.665  33.070   3.339
66910W        W39335  31.613  16.232   5.101
66911W        W39336  26.460  39.437   4.726
66912W        W39337  34.472  39.417   3.279
66913W        W39338   8.317   9.781   0.796
66914W        W39339  38.874  17.596  11.606
66915W        W39340  35.420  25.682  13.325
66916W        W39341  21.107  19.581   0.896
66917W        W39342  17.567  35.546  13.534
66918W        W39343  19.220  18.614  11.405
66919W        W39344  13.798   4.236  14.361
66920W        W39345  21.659   6.365  12.521
66921W        W39346  16.135  10.804   4.338
66922W        W39347   9.197  19.587   4.802
66923W        W39348  33.490  33.923  14.394
66924W        W39349  41.403   0.897   3.336
66925W        W39350  34.957   7.680  14.858
66926W        W39351  26.983   1.832  13.383
66927W        W39352  38.517  26.091  11.122
66928W        W39353  28.004   0.478  10.055
66929W        W39354  19.552   1.746  12.562
66930W        W39355  17.653  16.689  11.893
66931W        W39356  38.854  25.703   4.597
66932W        W39357  33.923  43.502  11.449
66933W        W39358  18.752  35.878  11.547
66934W        W39359  29.149  20.246  11.539
66935W        W39360  28.166  18.578  13.440
66936W        W39361   0.344   3.258  11.389
66937W        W39362  14.749  29.010  11.503
66938W        W39363  38.022  27.586  10.543
66939W        W39364  12.653  17.270  11.514
66940W        W39365  14.701  28.501   0.742
66941W        W39366  11.621  28.490   0.271
66942W        W39367  39.519   0.877   5.089
66943W        W39368  21.183  15.797   4.720
66944W        W39369   9.365  27.020   3.691
66945W        W39370  15.301  40.905   1.779
66946W        W39371  12.142  18.565   1.435
66947W        W39372  25.178  31.596  14.323
66948W        W39373  40.544  21.088   3.826
66949W        W39374  36.065  38.470   2.304
66950W        W39375  43.895   5.721   4.632
66951W        W39376  42.507  22.139  12.510
66952W        W39377  30.643   4.730   3.205
66953W        W39378  33.937  14.240   4.277
66954W        W39379  17.716  23.637   0.904
66955W        W39380  44.829   5.431  11.077
66956W        W39381  35.543   3.911   2.697
66957W        W39382  26.039  34.414  11.532
66958W        W39383  33.462  36.887  10.640
66959W        W39384  39.053  28.059  13.370
66960W        W39385   7.735  39.538  13.462
66961W        W39386  27.992  30.458  10.533
66962W        W39387  11.264  39.317   3.165
66963W        W39388  21.133  14.814  11.460
66964W        W39389  41.443  40.502  13.000
66965W        W39390  17.566  16.171   4.826
66966W        W39391  26.074  21.152  14.332
66967W        W39392  18.685  41.816   1.449
66968W        W39393  31.029  13.159   1.232
66969W        W39394  31.064  19.219  10.035
66970W        W39395   6.681  41.988   4.267
66971W        W39396  44.833  17.713   4.236
66972W        W39397  19.091   7.701   2.860
66973W        W39398  35.986  36.039   3.266
66974W        W39399   4.384  24.710  13.359
66975W        W39400  38.018  43.469   3.687
66976W        W39401  41.025  43.957   4.768
66977W        W39402  31.897   6.322   1.931
66978W        W39403  28.160  15.120  10.436
66979W        W39404  34.460  23.545  12.927
66980W        W39405  29.124   0.387   1.327
66981W        W39406  42.874  20.629   4.737
66982W        W39407  38.065   7.740  12.543
66983W        W39408  11.289   5.408  12.889
66984W        W39409   3.848  40.396  10.157
66985W        W39410   2.764  30.569  11.442
66986W        W39411   9.842  21.127   1.702
66987W        W39412  32.981  31.938   1.763
66988W        W39413   8.227  12.196  10.458
66989W        W39414  39.420  36.056   2.793
66990W        W39415   3.921  13.313   2.309
66991W        W39416  16.239  20.160   2.206
66992W        W39417  12.766  33.923  13.033
66993W        W39418  27.634   2.379  13.953
66994W        W39419  12.309  15.761   4.805
66995W        W39420  34.898  12.612  14.502
66996W        W39421  40.475   2.960  14.849
66997W        W39422  22.150  25.192  12.877
66998W        W39423  41.425   4.942   3.847
66999W        W39424  23.626  32.116  13.478
67000W        W39425  18.278  11.290   0.308
67001W        W39426  33.494  35.079  11.992
67002W        W39427  43.961  38.490   4.729
67003W        W39428   6.744  26.978   4.340
67004W        W39429   1.784  26.589   5.189
67005W        W39430   5.784  26.675   1.274
67006W        W39431   2.347  39.556   0.886
67007W        W39432   0.942   0.756   3.271
67008W        W39433  41.036  27.154  11.989
67009W        W39434  40.496   3.378  11.883
67010W        W39435  38.929   6.871   3.149
67011W        W39436  24.515   3.830  11.611
67012W        W39437  41.514  21.625  13.910
67013W        W39438  34.893  32.980  13.427
67014W        W39439  26.191  24.690   3.218
67015W        W39440  44.357   9.174  12.943
67016W        W39441   9.248  35.510   1.254
67017W        W39442  28.574  12.259  12.509
67018W        W39443  23.062  26.487   2.843
67019W        W39444  41.939  38.019   4.338
67020W        W39445  24.195  14.234  11.511
67021W        W39446  30.050  44.484  14.890
67022W        W39447   3.243  33.944  13.958
67023W        W39448   8.293  10.234   0.301
67024W        W39449   9.211  13.688  14.417
67025W        W39450  33.598   8.173   1.363
67026W        W39451  27.974  35.505  10.512
67027W        W39452  10.228  41.338   4.304
67028W        W39453   4.408  41.954   3.292
67029W        W39454  33.611  27.541   1.444
67030W        W39455  36.547  11.678   2.716
67031W        W39456  27.143  36.463   0.336
67032W        W39457  32.098   8.382  13.037
67033W        W39458  35.931  42.907   4.218
67034W        W39459  23.008  27.162  14.510
67035W        W39460  42.361  41.863  10.567
67036W        W39461   9.821  27.948  13.958
67037W        W39462  14.332  33.006  14.512
67038W        W39463   1.832   3.443   0.413
67039W        W39464  27.132  14.295   0.789
67040W        W39465  35.859   3.251   2.706
67041W        W39466   5.782   3.336   5.271
67042W        W39467  19.676  14.811  13.943
67043W        W39468  41.874  14.755   4.341
67044W        W39469  19.774   6.725  10.633
67045W        W39470   1.811  42.975   0.769
67046W        W39471  19.744  29.545   0.764
67047W        W39472  23.627  44.259  14.781
67048W        W39473  33.032  23.163   4.696
67049W        W39474   3.346   5.392  12.343
67050W        W39475  28.460  26.040   1.431
67051W        W39476  12.217  22.719  13.968
67052W        W39477  17.216  16.219  11.874
67053W        W39478  27.552  15.189   3.750
67054W        W39479  14.709  26.464   4.630
67055W        W39480  12.739  42.908  12.484
67056W        W39481  34.600  21.646  12.373
67057W        W39482  18.585  23.164  13.367
67058W        W39483   0.772  21.592  14.851
67059W        W39484  13.786  21.098   4.343
67060W        W39485   0.865  35.506  14.347
67061W        W39486   8.327  38.930  11.500
67062W        W39487  20.072  23.723   2.240
67063W        W39488  17.078   5.403   2.396
67064W        W39489  14.279  13.341   3.221
67065W        W39490  30.505   3.911  12.876
67066W        W39491  21.030  15.246  10.970
67067W        W39492  37.005  43.022  12.913
67068W        W39493  44.416   8.162   3.693
67069W        W39494  41.929   0.919  11.983
67070W        W39495  32.939  13.257   1.776
67071W        W39496  20.172   5.793  14.863
67072W        W39497  37.541  40.331  13.027
67073W        W39498   2.928  43.806   1.429
67074W        W39499  43.781  29.980   4.293
67075W        W39500  20.750  37.529  13.412
67076W        W39501  38.837  12.284  10.896
67077W        W39502  42.793  32.623   0.265
67078W        W39503  17.127   2.307   2.668
67079W        W39504  35.392  35.016  13.924
67080W        W39505   6.841  26.130   4.834
67081W        W39506  37.547  41.972   4.230
67082W        W39507  18.603  27.994   1.268
67083W        W39508  25.077  35.555  14.434
67084W        W39509   9.319  23.490  12.876
67085W        W39510  35.452  34.075   3.733
67086W        W39511  20.198  33.604   1.897
67087W        W39512  28.128  37.472  13.793
67088W        W39513  26.178  43.309   2.875
67089W        W39514   8.843  24.987  11.979
67090W        W39515  41.999  31.420  11.379
67091W        W39516   5.877  34.597   1.777
67092W        W39517  30.658   0.927  11.399
67093W        W39518  42.430  25.133  11.455
67094W        W39519  26.113   5.233   4.718
67095W        W39520  30.016  21.120   1.259
67096W        W39521  38.870  11.307  12.553
67097W        W39522   0.429  34.568  14.761
67098W        W39523  38.502  33.002   3.344
67099W        W39524  10.298  18.704   4.134
67100W        W39525  42.435  35.398   0.382
67101W        W39526   6.701  14.303   0.934
67102W        W39527  19.257  13.147   1.383
67103W        W39528  18.565  44.418  10.541
67104W        W39529  21.101  29.050  12.823
67105W        W39530  25.202  34.539   2.258
67106W        W39531  14.141  36.935   3.807
67107W        W39532   4.699  38.877   5.281
67108W        W39533   5.226  25.088  14.465
67109W        W39534   6.693  13.272   2.754
67110W        W39535  40.525   7.818  13.810
67111W        W39536   1.245  20.742   3.220
67112W        W39537   7.246   1.844   0.907
67113W        W39538  31.949  29.430   0.778
67114W        W39539  21.110  11.636  10.942
67115W        W39540  37.398   8.706   4.311
67116W        W39541  15.107  32.926  13.799
67117W        W39542   7.222  34.962   1.926
67118W        W39543  22.569  27.161   4.293
67119W        W39544   4.269  24.101  11.089
67120W        W39545  42.795  32.535   2.186
67121W        W39546  23.702  44.959   3.661
67122W        W39547  30.964  13.119   3.294
67123W        W39548  26.584  38.383  13.374
67124W        W39549   5.800  20.697   0.772
67125W        W39550  25.582   8.767  10.557
67126W        W39551  19.207  42.288  13.410
67127W        W39552  36.384   0.468   0.405
67128W        W39553  17.227  27.451  10.044
67129W        W39554  36.072  24.102  13.048
67130W        W39555   3.390   6.225  11.921
67131W        W39556  19.051  15.592   1.896
67132W        W39557   1.777   0.897   3.375
67133W        W39558  17.793  39.328  11.058
67134W        W39559  20.668  44.996  14.473
67135W        W39560  21.612  33.928   4.640
67136W        W39561   9.220  11.187  13.544
67137W        W39562  40.503  11.676  14.820
67138W        W39563  26.632  39.833  10.567
67139W        W39564  31.528   6.747  12.579
67140W        W39565  43.972  21.517   0.766
67141W        W39566  19.723  22.587   2.815
67142W        W39567  16.126  14.630   4.634
67143W        W39568   2.403  19.281  12.339
67144W        W39569  14.610   9.827  13.490
67145W        W39570  11.828  19.589   2.774
67146W        W39571   9.844  36.392   0.767
67147W        W39572  23.589  10.366   2.708
67148W        W39573  10.323  16.726   0.815
67149W        W39574  24.606  17.576   1.430
67150W        W39575   0.781  15.697  10.050
67151W        W39576  11.773  24.077   9.950
67152W        W39577  20.226  23.546  12.977
67153W        W39578  26.032  16.689  11.882
67154W        W39579  16.696  21.742  13.391
67155W        W39580  21.086  10.822  10.415
67156W        W39581  22.607   4.438   4.179
67157W        W39582  23.045  31.921  14.452
67158W        W39583  43.404  28.678  13.909
67159W        W39584  11.725  32.462  12.369
67160W        W39585   4.293  24.092  10.473
67161W        W39586  21.252  43.474  11.401
67162W        W39587   1.270  29.088  11.067
67163W        W39588  38.985  35.941   0.807
67164W        W39589  44.427   6.248   2.890
67165W        W39590  19.062   8.757  14.900
67166W        W39591  13.681  12.623   3.214
67167W        W39592  13.750  20.754   3.347
67168W        W39593   4.242  10.638  14.970
67169W        W39594   4.365  13.160  13.356
67170W        W39595  13.666  22.033   3.705
67171W        W39596  11.782  33.118  14.379
67172W        W39597  42.962  43.350  10.923
67173W        W39598  25.567   5.255  13.867
67174W        W39599  17.276  13.836  14.907
67175W        W39600  24.184  35.395  11.923
67176W        W39601   2.771  38.009  13.535
67177W        W39602  30.419  27.460  14.911
67178W        W39603  33.063  10.841  14.984
67179W        W39604  14.630  17.731  11.612
67180W        W39605   5.757  43.831   3.294
67181W        W39606  42.292  43.867   3.811
67182W        W39607   8.763  16.688  14.303
67183W        W39608  22.144   0.971   4.128
67184W        W39609   6.775  38.831   3.806
67185W        W39610  18.061  11.726   0.276
67186W        W39611  22.519  29.507  12.438
67187W        W39612   6.376  30.546  13.840
67188W        W39613  15.595  16.673  13.987
67189W        W39614  39.833  12.856  11.990
67190W        W39615  10.162   9.761   3.246
67191W        W39616  41.867  10.660  13.955
67192W        W39617  24.089   8.862   9.458
67193W        W39618  17.261  38.835   4.787
67194W        W39619   4.286  38.340  11.883
67195W        W39620  43.839  26.682   3.323
67196W        W39621  31.615  25.665  13.963
67197W        W39622  43.885  44.781   4.701
67198W        W39623   0.279   8.726   3.347
67199W        W39624   6.360  22.609   4.226
67200W        W39625   2.404  12.659   1.888
67201W        W39626  14.313  15.814   4.760
67202W        W39627  40.806  41.337   3.212
67203W        W39628   8.788  28.496   0.959
67204W        W39629  19.652  39.058  14.905
67205W        W39630  23.175   9.389  11.872
67206W        W39631  30.077  30.102   3.228
67207W        W39632   2.781  44.946  12.487
67208W        W39633  24.131  24.107  13.448
67209W        W39634  24.192  34.420   1.843
67210W        W39635  43.804  22.513   2.229
67211W        W39636  41.337  10.158   3.800
67212W        W39637  16.617  34.005  11.942
67213W        W39638  43.889  29.621  11.443
67214W        W39639  41.527  26.993  11.039
67215W        W39640  35.056  37.426  14.913
67216W        W39641  26.124   4.237   4.235
67217W        W39642  17.709  27.664  12.357
67218W        W39643  43.407   5.325  11.505
67219W        W39644  35.862  41.851   4.603
67220W        W39645  22.996  44.344   3.146
67221W        W39646   5.762  42.014   4.681
67222W        W39647  11.135  12.846  11.930
67223W        W39648  21.698   2.870  10.621
67224W        W39649  22.198  20.052  12.535
67225W        W39650  14.775  13.626  12.491
67226W        W39651   3.313   3.901   5.246
67227W        W39652  27.096   2.296  14.334
67228W        W39653  12.790  29.027  12.473
67229W        W39654  41.356   3.876   0.943
67230W        W39655  11.803  41.970   1.399
67231W        W39656  21.700  34.888   0.744
67232W        W39657  12.664  26.118   0.899
67233W        W39658  23.615  40.917   0.920
67234W        W39659  29.526  39.817   1.229
67235W        W39660  37.355  35.109  14.012
67236W        W39661  18.208  16.177   4.213
67237W        W39662  26.546  27.586   0.296
67238W        W39663  26.676  26.668   3.745
67239W        W39664  37.434  40.428   3.319
67240W        W39665   9.810  24.046   2.284
67241W        W39666  30.466  28.598  14.288
67242W        W39667  40.904  16.719   4.768
67243W        W39668  34.068  27.643   4.772
67244W        W39669  37.841   0.939   0.758
67245W        W39670   0.869  15.655  13.866
67246W        W39671  29.663  12.697  10.979
67247W        W39672  22.708  14.263  11.538
67248W        W39673  19.601  33.064   3.314
67249W        W39674  30.975  23.173   2.374
67250W        W39675   3.890  30.136  12.444
67251W        W39676   7.749  17.632   0.882
67252W        W39677   5.368  37.489  13.433
67253W        W39678   3.872   4.210  10.488
67254W        W39679   3.256  10.692   3.833
67255W        W39680  36.390  22.147  11.401
67256W        W39681   2.899  21.587  10.539
67257W        W39682  39.061  22.234  12.038
67258W        W39683  40.399  33.546   5.153
67259W        W39684  26.587  19.205  14.340
67260W        W39685  33.480  12.698  14.480
67261W        W39686  17.728  11.332   4.198
67262W        W39687  11.768   6.692   0.478
67263W        W39688  19.748  18.718   0.874
67264W        W39689  29.174  13.767   1.806
67265W        W39690  39.006  42.786  13.866
67266W        W39691  15.222  38.041  14.952
67267W        W39692  18.184  29.465  11.909
67268W        W39693   4.786  39.921  11.498
67269W        W39694  12.283  10.663  14.428
67270W        W39695  21.109  26.102   1.357
67271W        W39696   4.267  26.094  13.504
67272W        W39697  37.429  32.898  11.592
67273W        W39698  19.766   9.369   2.202
67274W        W39699  30.023  32.419  12.423
67275W        W39700  22.502  38.447   1.319
67276W        W39701  32.425  36.429  11.533
67277W        W39702  12.710   4.256   4.261
67278W        W39703   2.412   1.915  12.936
67279W        W39704  11.670  13.303  12.992
67280W        W39705  41.870  36.435  12.993
67281W        W39706  10.699  28.506  12.926
67282W        W39707   0.955  25.114   3.156
67283W        W39708   8.308  39.902  13.388
67284W        W39709  10.754  33.076  11.066
67285W        W39710   7.792  37.428   0.380
67286W        W39711  33.950  32.073   2.758
67287W        W39712  13.722   3.754  11.429
67288W        W39713  37.538  27.493  10.567
67289W        W39714  15.767   1.917  12.941
67290W        W39715  21.603  30.480   1.223
67291W        W39716   9.377  22.232  14.000
67292W        W39717  26.653  35.946   1.849
67293W        W39718   8.309  22.620   1.304
67294W        W39719  40.431  28.445  10.438
67295W        W39720   8.767   4.262  11.422
67296W        W39721  37.413  31.065  14.833
67297W        W39722  16.212  35.996   1.930
67298W        W39723  28.959  11.625  13.363
67299W        W39724  34.040   5.866   2.302
67300W        W39725  37.908   4.708   0.345
67301W        W39726   8.763  35.559  10.061
67302W        W39727  28.472  31.139   4.232
67303W        W39728   3.295  37.382   2.189
67304W        W39729   4.871  34.112  14.935
67305W        W39730  21.124  28.125   4.163
67306W        W39731  40.360  21.716   2.396
67307W        W39732  34.092  16.298   4.129
67308W        W39733  21.041  20.059  13.939
67309W        W39734   9.240   0.324   3.811
67310W        W39735  16.108  32.941  11.875
67311W        W39736  18.086  44.962   3.220
67312W        W39737  10.681  28.580  10.414
67313W        W39738   6.265  26.640   4.641
67314W        W39739  38.972  34.093   3.316
67315W        W39740  24.638  15.243   3.316
67316W        W39741   7.336  33.445  11.500
67317W        W39742  12.698  36.366  11.390
67318W        W39743  16.150  15.817   1.349
67319W        W39744  17.611   1.376   9.943
67320W        W39745   0.355  24.195   3.239
67321W        W39746   5.751  17.628   3.688
67322W        W39747  36.968  37.351  14.834
67323W        W39748  16.100  41.801   2.184
67324W        W39749  16.780  31.419  14.869
67325W        W39750  25.000  28.611  14.405
67326W        W39751  35.031  37.531  10.126
67327W        W39752   0.957  26.585   2.813
67328W        W39753  14.323   9.354   4.228
67329W        W39754  24.133  27.130   1.852
67330W        W39755   7.804  18.180   1.726
67331W        W39756  21.733  36.940  13.901
67332W        W39757  11.276  25.064   0.734
67333W        W39758  24.671  43.811   0.366
67334W        W39759  11.216  44.860  14.950
67335W        W39760  35.949  15.309   1.880
67336W        W39761  33.483  24.643  13.419
67337W        W39762   2.409  32.620   2.195
67338W        W39763  22.538   0.370   2.350
67339W        W39764   0.352  28.052  13.845
67340W        W39765  38.337   8.894  13.054
67341W        W39766  29.076   0.332  13.907
67342W        W39767  20.642  38.952   1.745
67343W        W39768  41.293  17.801   3.284
67344W        W39769  28.599  21.511   3.244
67345W        W39770   5.219   3.709  10.612
67346W        W39771  43.865   0.259   0.350
67347W        W39772   9.382   0.783   3.172
67348W        W39773   7.851  15.266  10.961
67349W        W39774  29.038  27.962  10.949
67350W        W39775  23.597  37.443   0.791
67351W        W39776  22.665  42.900  11.954
67352W        W39777  20.525  37.946  11.372
67353W        W39778  32.920   6.201   3.862
67354W        W39779  22.594  38.938  14.462
67355W        W39780  10.168  16.084   4.626
67356W        W39781  34.464  39.421   2.876
67357W        W39782   3.248  35.539  11.501
67358W        W39783   3.898  39.895  14.789
67359W        W39784  41.007  36.348  10.927
67360W        W39785   1.239  24.632  14.989
67361W        W39786  25.694  16.629  11.901
67362W        W39787  22.204  22.036   2.304
67363W        W39788  10.774   9.687   0.295
67364W        W39789  14.171  44.471   2.861
67365W        W39790  25.965  12.815   1.414
67366W        W39791  39.409  16.148  14.428
67367W        W39792  22.252  25.551   4.611
67368W        W39793  11.141  15.237   2.403
67369W        W39794   5.861   6.836   4.260
67370W        W39795  25.100   1.851   0.824
67371W        W39796  22.139  43.461   1.926
67372W        W39797   0.753   8.292   3.240
67373W        W39798   9.332  29.523   1.934
67374W        W39799  30.649  26.622  13.839
67375W        W39800  25.048   9.395  11.613
67376W        W39801  18.232  16.169   1.413
67377W        W39802  25.635  40.314   4.783
67378W        W39803   8.365  23.710   1.863
67379W        W39804  18.127  20.626  12.950
67380W        W39805  21.576  36.373  14.800
67381W        W39806  40.528  15.206  12.054
67382W        W39807  42.443  22.127  10.413
67383W        W39808   9.290   4.349   0.293
67384W        W39809   5.928   0.830  14.836
67385W        W39810  42.326  27.194  12.055
67386W        W39811  35.872  43.892  13.992
67387W        W39812   9.259   7.362  12.385
67388W        W39813   5.291  35.554   3.173
67389W        W39814   7.250  19.106  12.499
67390W        W39815  43.968   0.328   0.807
67391W        W39816  24.640  23.681   2.741
67392W        W39817  25.203  32.034  11.436
67393W        W39818   3.906  17.144   2.356
67394W        W39819  32.978  42.427  11.966
67395W        W39820   9.186  21.656  10.538
67396W        W39821  32.455   1.769  13.851
67397W        W39822  29.425  29.466   0.843
67398W        W39823  11.744  28.062   2.826
67399W        W39824  37.573  33.065  11.856
67400W        W39825  41.497   5.806  14.337
67401W        W39826  14.336  24.219  13.371
67402W        W39827  24.610  11.172  11.556
67403W        W39828   8.189  25.999  11.941
67404W        W39829  44.858   7.241  12.041
67405W        W39830  44.008  16.646  12.339
67406W        W39831  21.635  24.629  13.320
67407W        W39832  35.897  30.004  14.998
67408W        W39833   1.432  28.032   1.906
67409W        W39834   3.902  41.475   0.891
67410W        W39835   5.395   7.863   3.799
67411W        W39836  13.132  14.173   0.342
67412W        W39837  37.048   0.886   3.364
67413W        W39838  40.403  11.367   4.826
67414W        W39839  36.919   3.802  11.859
67415W        W39840  41.314  34.906  11.558
67416W        W39841   0.856   9.292   3.719
67417W        W39842  38.044  25.478  13.048
67418W        W39843   0.901  18.185  14.301
67419W        W39844  18.273  12.241   2.732
67420W        W39845  22.066  17.273   0.931
67421W        W39846  27.493  13.183   4.209
67422W        W39847  24.157  42.290  12.936
67423W        W39848  14.657  33.523   0.455
67424W        W39849  18.074  16.238  13.479
67425W        W39850  26.480  29.477  13.395
67426W        W39851   0.477   4.742  11.082
67427W        W39852  35.455   9.259  14.004
67428W        W39853  35.109  28.073   3.274
67429W        W39854   1.811   4.343  11.560
67430W        W39855   3.776  10.679   0.245
67431W        W39856   7.777  26.142  11.505
67432W        W39857  13.753   8.754  12.393
67433W        W39858   5.736   2.873   4.327
67434W        W39859  30.044  25.644   3.637
67435W        W39860  20.136  39.535  10.592
67436W        W39861  16.121  18.265   2.333
67437W        W39862  37.983  11.668   2.263
67438W        W39863   7.778   4.218  10.407
67439W        W39864   9.850  27.514  14.931
67440W        W39865  42.318  41.007   2.864
67441W        W39866  40.493  18.257  10.440
67442W        W39867  10.703  12.727  12.860
67443W        W39868  21.034  37.833   0.419
67444W        W39869   0.756  37.381  13.346
67445W        W39870   4.334  19.220  14.896
67446W        W39871  38.415  41.522  12.966
67447W        W39872  38.427  16.726  11.407
67448W        W39873  40.054  17.103  14.916
67449W        W39874  25.149  41.440  14.811
67450W        W39875  32.583  26.102  10.616
67451W        W39876  30.654  38.972   0.770
67452W        W39877  30.657   9.888  11.061
67453W        W39878  14.741  30.133  13.879
67454W        W39879  28.671  20.537   3.265
67455W        W39880  31.496  23.542   4.601
67456W        W39881  16.775   8.334  12.503
67457W        W39882   2.921  27.600  10.623
67458W        W39883  22.632  23.491  11.967
67459W        W39884  35.419   4.878   3.178
67460W        W39885  24.007  12.796  13.449
67461W        W39886  34.479  11.836  14.376
67462W        W39887   9.251  33.098   2.393
67463W        W39888  44.329  19.612  11.068
67464W        W39889  23.530  36.443   1.295
67465W        W39890  10.639  31.062   0.862
67466W        W39891   7.210  23.512  13.813
67467W        W39892  12.319  37.347   1.253
67468W        W39893   1.928  23.016   1.398
67469W        W39894   9.811  16.116   2.781
67470W        W39895  43.004   0.771   4.207
67471W        W39896  29.634   7.182   4.826
67472W        W39897  27.004  25.619   3.242
67473W        W39898  34.071  35.573   3.226
67474W        W39899  38.944  34.413   4.149
67475W        W39900  33.914  33.062   0.298
67476W        W39901  42.452  25.167   0.465
67477W        W39902  16.250  15.285   2.310
67478W        W39903  39.875  43.911   4.334
67479W        W39904   8.303   5.205  11.554
67480W        W39905  10.685  19.599   5.081
67481W        W39906  30.947  20.149  12.918
67482W        W39907  13.336  30.935  12.528
67483W        W39908   4.848  22.027  10.421
67484W        W39909  44.799   6.918  12.925
67485W        W39910   3.776  11.651  11.109
67486W        W39911  26.105  29.036   2.324
67487W        W39912  13.646  11.644   4.344
67488W        W39913   8.231  16.572   0.898
67489W        W39914  19.645  31.589  13.876
67490W        W39915  31.479  27.180   4.300
67491W        W39916  34.965  38.531  14.406
67492W        W39917  31.428  31.032  14.916
67493W        W39918  42.344  10.649   3.230
67494W        W39919  35.592  43.351   3.785
67495W        W39920  33.110  29.632   4.278
67496W        W39921   4.364  38.377  11.578
67497W        W39922  37.373   3.737  12.418
67498W        W39923  37.496  18.629   3.765
67499W        W39924  34.015  27.661   4.331
67500W        W39925  22.145   8.740  14.927
67501W        W39926  37.575  34.538   4.186
67502W        W39927  20.543  36.976  13.489
67503W        W39928  10.285  28.979  14.312
67504W        W39929   0.360  16.091   3.728
67505W        W39930  34.487  26.062  12.835
67506W        W39931  41.012  28.154  13.469
67507W        W39932  42.013   0.387   2.683
67508W        W39933   8.261  24.030  11.474
67509W        W39934  12.191  20.203  14.870
67510W        W39935  17.659  21.087   2.373
67511W        W39936  24.186  28.502  13.387
67512W        W39937  16.147  25.672   3.233
67513W        W39938  20.178  15.660  12.436
67514W        W39939   2.330  34.877  12.963
67515W        W39940  29.111  29.114   3.784
67516W        W39941  11.804  29.583   4.177
67517W        W39942  16.155  28.999   4.626
67518W        W39943   6.273  34.011  14.410
67519W        W39944  19.735  31.485   0.810
67520W        W39945  33.613  23.526   0.756
67521W        W39946  38.031  11.332  12.079
67522W        W39947  40.015  41.956   0.433
67523W        W39948  11.286  13.832   2.377
67524W        W39949  34.875  44.859  12.465
67525W        W39950  36.367   9.772  12.508
67526W        W39951  16.715  11.794   3.658
67527W        W39952  33.025  33.920   4.169
67528W        W39953   4.412  30.475   0.266
67529W        W39954  23.585   2.401   1.429
67530W        W39955  40.410  15.819  14.964
67531W        W39956  13.137   3.892  14.470
67532W        W39957  42.377  42.335  13.421
67533W        W39958  23.552   3.254  11.986
67534W        W39959  42.363   3.230   4.822
67535W        W39960  34.518  29.081  13.867
67536W        W39961  27.049  34.600  12.828
67537W        W39962  14.709  15.625   4.258
67538W        W39963   4.845  26.041  12.946
67539W        W39964  22.728   9.780  10.485
67540W        W39965  36.084  24.674   4.680
67541W        W39966  16.661  37.929  14.437
67542W        W39967   2.365  32.594  12.441
67543W        W39968  29.009  28.935  11.541
67544W        W39969  16.238  20.040  14.791
67545W        W39970  18.588   4.772   4.339
67546W        W39971  34.005  35.986   5.254
67547W        W39972  42.524  11.287  13.331
67548W        W39973  26.527  20.252   4.600
67549W        W39974  36.870  34.396  11.541
67550W        W39975  32.400  30.604   5.292
67551W        W39976  35.591  22.241  13.481
67552W        W39977  40.974  29.447   1.857
67553W        W39978   7.344  26.589  10.115
67554W        W39979  44.267  26.198   2.742
67555W        W39980   1.937  44.474   0.872
67556W        W39981  37.540  14.139   3.264
67557W        W39982   7.392  33.577  13.815
67558W        W39983  34.401  16.610  11.433
67559W        W39984  28.639  36.847   0.409
67560W        W39985  26.611  11.267  14.370
67561W        W39986  33.914  33.004   4.187
67562W        W39987   3.784  36.054   4.838
67563W        W39988  41.345  35.880  11.946
67564W        W39989  38.375  10.675  12.077
67565W        W39990  31.084  27.155  10.943
67566W        W39991  10.342  18.112  13.820
67567W        W39992  10.729   3.903   0.784
67568W        W39993  17.645  14.176  10.441
67569W        W39994   5.243   1.472  10.960
67570W        W39995  34.977  40.898   4.655
67571W        W39996  38.409  40.920  12.408
67572W        W39997  10.239   9.215   4.212
67573W        W39998  35.371  20.642   0.433
67574W        W39999  39.823  23.161  14.395
67575W        W40000  20.158  42.798  10.957
67576W        W40001  34.976  30.105  13.031
67577W        W40002   2.852  12.148   3.200
67578W        W40003  31.107  31.115   3.707
67579W        W40004  35.568  32.972  13.458
67580W        W40005   5.387  36.536   3.290
67581W        W40006  31.148   9.732  11.534
67582W        W40007  11.791  31.616  12.363
67583W        W40008  12.704  15.098   2.234
67584W        W40009  31.993  43.483   2.671
67585W        W40010  39.327   7.709  10.408
67586W        W40011   9.833   2.822   3.339
67587W        W40012  29.951  33.428  14.938
67588W        W40013  32.540  42.025   4.196
67589W        W40014   0.297  21.139   1.780
67590W        W40015  15.143  13.186   1.421
67591W        W40016  37.475  35.370  10.562
67592W        W40017  40.435  28.974   3.791
67593W        W40018  20.071  42.412  14.423
67594W        W40019  17.690  30.114   4.743
67595W        W40020  31.595  13.331   1.933
67596W        W40021  32.541  39.866   0.793
67597W        W40022  42.330  28.635   0.415
67598W        W40023  39.464  28.992  12.878
67599W        W40024  16.288  43.849   4.736
67600W        W40025   7.667  31.053   3.256
67601W        W40026  30.606  40.463   1.847
67602W        W40027  21.533  34.947  11.515
67603W        W40028  22.512  23.088  11.033
67604W        W40029  29.984  11.278   1.760
67605W        W40030  21.663  23.018   0.413
67606W        W40031  34.562  26.547   2.819
67607W        W40032  23.605  37.955   3.285
67608W        W40033  44.266   8.327   0.272
67609W        W40034   4.316   0.312   2.265
67610W        W40035  36.883  23.706   3.849
67611W        W40036  10.788  10.253  11.996
67612W        W40037  43.464  43.357   2.833
67613W        W40038  36.991  43.440  14.903
67614W        W40039   6.318  30.136  13.841
67615W        W40040  20.248  24.494  12.967
67616W        W40041  12.843  43.464   3.691
67617W        W40042  28.981  18.744   1.320
67618W        W40043  26.624   2.251  10.963
67619W        W40044   7.888   2.954  10.548
67620W        W40045  20.549  20.172   2.406
67621W        W40046   5.750  19.653  12.078
67622W        W40047   5.310   6.392   2.789
67623W        W40048  35.034   8.694  12.083
67624W        W40049  13.775  11.818   3.160
67625W        W40050   8.375   0.266   1.224
67626W        W40051  33.609  20.753  10.587
67627W        W40052  31.478  37.015  14.869
67628W        W40053   7.830   1.754  12.948
67629W        W40054   8.732   9.756   2.223
67630W        W40055  13.222   1.964   2.755
67631W        W40056  27.147  36.590  13.507
67632W        W40057  39.553  11.148  13.865
67633W        W40058   9.721  31.067   2.892
67634W        W40059  26.608  32.022  11.896
67635W        W40060   8.727  41.455  14.282
67636W        W40061  10.350  37.890   2.804
67637W        W40062  14.816  12.749   1.717
67638W        W40063  27.619  26.107   0.332
67639W        W40064  36.931  30.918   3.270
67640W        W40065   0.898  12.642   1.725
67641W        W40066  19.556  23.727  10.133
67642W        W40067  38.019  27.517  13.476
67643W        W40068  34.472  38.372   4.770
67644W        W40069   9.846  23.053   3.802
67645W        W40070  31.002  13.320  10.426
67646W        W40071  31.419  32.579  13.371
67647W        W40072   7.813   4.378  13.976
67648W        W40073   9.198   7.872   5.149
67649W        W40074  33.572  34.007  13.852
67650W        W40075  35.889   9.395   1.774
67651W        W40076  31.955  36.470   4.645
67652W        W40077  16.177  35.040  10.998
67653W        W40078  29.967  16.608  13.039
67654W        W40079  16.688  31.041  14.455
67655W        W40080  24.990  29.659  14.897
67656W        W40081  24.493   6.837   4.603
67657W        W40082  35.058  15.787  14.967
67658W        W40083  20.096   1.817  14.405
67659W        W40084   2.741  33.464   3.859
67660W        W40085  29.444   2.836   4.166
67661W        W40086  40.869   9.281  14.813
67662W        W40087  27.456  33.604   4.637
67663W        W40088  13.173  26.521  12.927
67664W        W40089   8.679  41.837  11.974
67665W        W40090  14.142  43.938  13.955
67666W        W40091  33.018  11.284   1.915
67667W        W40092  42.863  33.024  12.947
67668W        W40093   3.384  34.865  14.991
67669W        W40094  43.975  14.113  11.867
67670W        W40095  27.589  31.962   2.868
67671W        W40096   9.154  42.880   2.748
67672W        W40097  27.078  22.095  13.820
67673W        W40098  13.766  14.204  13.454
67674W        W40099   2.817   9.168  11.403
67675W        W40100  37.403  33.910  13.006
67676W        W40101  23.994  15.608   5.218
67677W        W40102  11.833  23.731   3.189
67678W        W40103   9.179  21.550  14.932
67679W        W40104  30.965  36.952   2.361
67680W        W40105  24.485  12.820  12.496
67681W        W40106   6.375   9.332  11.122
67682W        W40107  41.864  27.160  14.953
67683W        W40108  10.259  42.479   4.698
67684W        W40109  15.625  31.528   1.424
67685W        W40110  41.911  36.498   3.245
67686W        W40111  19.561  38.905   1.390
67687W        W40112   2.233  39.050   3.155
67688W        W40113   5.750   9.255   4.701
67689W        W40114  35.990  21.519  10.899
67690W        W40115  44.782  28.528   4.657
67691W        W40116  26.009  31.977  13.419
67692W        W40117  37.038  25.204  14.782
67693W        W40118  19.136  33.525   1.380
67694W        W40119  22.104  27.604  10.929
67695W        W40120  34.398  37.534   0.727
67696W        W40121  34.422  17.072  11.014
67697W        W40122  13.780   3.867   1.780
67698W        W40123   0.962   4.792  14.286
67699W        W40124   8.348  30.495   4.773
67700W        W40125  26.533  25.680   0.472
67701W        W40126  25.490  29.116  10.596
67702W        W40127  28.616  29.060   0.332
67703W        W40128  20.619  42.876   2.875
67704W        W40129  34.893  30.036   3.726
67705W        W40130  21.212  40.866  13.859
67706W        W40131   6.307  24.977   0.881
67707W        W40132   4.286  13.805  13.378
67708W        W40133  20.764  40.880  11.861
67709W        W40134  12.811  22.627   2.348
67710W        W40135  19.149  12.656  11.912
67711W        W40136  40.897  26.147  14.423
67712W        W40137   9.704  35.387   3.336
67713W        W40138   1.428  40.411  13.399
67714W        W40139  28.168  38.998   2.767
67715W        W40140  26.565  26.622  12.962
67716W        W40141  43.425   1.941   0.942
67717W        W40142  28.164  38.560  14.825
67718W        W40143  27.623  36.353   2.254
67719W        W40144   1.743  40.919   3.213
67720W        W40145  38.351   2.415   4.781
67721W        W40146   1.968   6.885   4.219
67722W        W40147  14.759   3.855   2.317
67723W        W40148  15.721  39.481   2.394
67724W        W40149   7.385  28.671   1.317
67725W        W40150  31.898  28.629  14.314
67726W        W40151   4.905  19.745  14.829
67727W        W40152   6.887  28.009   1.311
67728W        W40153  16.277   5.399   1.708
67729W        W40154  43.818   3.938   2.317
67730W        W40155  15.174  27.949   1.294
67731W        W40156  20.635   0.846   0.911
67732W        W40157  38.380   0.744  10.892
67733W        W40158  14.634  35.940   0.334
67734W        W40159  28.185   4.443  10.954
67735W        W40160  29.113   9.844   2.247
67736W        W40161  28.681  32.074   0.903
67737W        W40162  20.574  15.780   0.918
67738W        W40163  35.409  42.805  11.090
67739W        W40164  42.929  36.348   0.869
67740W        W40165  41.909  13.620   3.730
67741W        W40166  29.448   4.224   0.821
67742W        W40167  31.498  39.028  13.370
67743W        W40168  21.031  27.597   0.804
67744W        W40169  25.620  21.136  10.945
67745W        W40170  33.942  18.217   0.807
67746W        W40171  15.319  26.123  11.055
67747W        W40172  10.789  38.014  11.994
67748W        W40173  34.583  26.007   1.876
67749W        W40174  28.479   8.299   4.765
67750W        W40175  44.970  31.406   4.254
67751W        W40176   1.763   6.307  11.023
67752W        W40177  23.097  11.736   4.252
67753W        W40178   5.294  18.194   3.331
67754W        W40179  24.498  40.879   0.436
67755W        W40180  43.007  22.552  11.453
67756W        W40181  14.197   3.397  11.967
67757W        W40182  39.539   7.673   3.182
67758W        W40183  44.502  19.727   1.838
67759W        W40184  34.868  31.636  11.956
67760W        W40185  34.044  26.148   0.417
67761W        W40186   5.295  17.582  12.436
67762W        W40187  20.085  15.727   2.760
67763W        W40188  32.026  31.468  12.522
67764W        W40189  31.909  40.343   3.304
67765W        W40190   1.748  20.762   2.194
67766W        W40191  43.790  12.246  10.527
67767W        W40192  18.676  29.427   3.740
67768W        W40193  27.041  14.688   3.686
67769W        W40194  24.681  33.393   0.905
67770W        W40195  35.522  36.912   1.775
67771W        W40196  35.585  12.234   1.324
67772W        W40197  22.020  36.904   0.325
67773W        W40198  34.978  40.966   2.282
67774W        W40199   3.817  26.170   2.276
67775W        W40200  44.275  31.011   1.833
67776W        W40201  12.330  39.843  13.384
67777W        W40202  44.806   1.858   1.766
67778W        W40203  35.920  11.865   3.220
67779W        W40204  29.937  18.790   3.258
67780W        W40205  39.512  28.530  14.789
67781W        W40206  10.808  10.259   1.883
67782W        W40207  21.227  44.947   0.836
67783W        W40208  26.600   5.398   4.217
67784W        W40209  36.359  38.871   1.877
67785W        W40210  27.013  34.435   1.823
67786W        W40211  10.679  12.265  14.915
67787W        W40212   2.428  24.983   3.634
67788W        W40213   1.292  14.723  12.403
67789W        W40214   4.383  11.318  10.899
67790W        W40215  33.070  17.648  14.779
67791W        W40216  28.144   6.808   1.298
67792W        W40217  10.366  30.659  13.984
67793W        W40218  31.015  41.301   0.302
67794W        W40219   6.268  37.457   5.237
67795W        W40220  28.437  40.370   1.376
67796W        W40221  29.007  16.233   1.399
67797W        W40222   0.756  21.236  10.461
67798W        W40223  14.669  17.123   2.206
67799W        W40224  39.056  44.399  11.962
67800W        W40225  23.027  21.142  10.558
67801W        W40226  42.340   9.668  11.386
67802W        W40227  25.705  29.439  13.791
67803W        W40228  44.791   2.859   1.229
67804W        W40229  43.846  10.273   2.297
67805W        W40230   8.216   2.407   0.362
67806W        W40231  37.904  31.947  12.824
67807W        W40232  29.130   4.320   4.669
67808W        W40233  16.169  25.041   2.847
67809W        W40234  39.914  26.511  14.452
67810W        W40235  30.554  15.290   1.728
67811W        W40236   0.310  23.081   2.416
67812W        W40237  11.700   7.332   4.615
67813W        W40238  23.606  10.771  14.465
67814W        W40239  18.165  28.985   4.197
67815W        W40240  11.177  32.636  11.875
67816W        W40241  41.882  25.641   3.186
67817W        W40242  13.152  44.461   2.353
67818W        W40243  36.899   6.899   0.726
67819W        W40244  35.530  29.158   0.841
67820W        W40245  32.535  32.133   2.762
67821W        W40246  21.755  18.269  14.319
67822W        W40247  18.595  26.457  12.433
67823W        W40248  22.587  25.065   4.738
67824W        W40249   0.754  21.707  12.042
67825W        W40250   9.829  35.067   3.216
67826W        W40251  39.354  13.618   0.949
67827W        W40252  43.856  22.704  12.933
67828W        W40253  42.300   0.312   2.246
67829W        W40254  39.819  27.609  10.625
67830W        W40255   2.734   5.331  13.976
67831W        W40256  18.767  40.389   4.339
67832W        W40257  31.460  35.941   4.831
67833W        W40258  24.210  11.690   2.250
67834W        W40259   2.785  29.491   4.279
67835W        W40260  34.961  24.032   3.368
67836W        W40261  19.626   8.783  13.443
67837W        W40262   3.432   3.950  14.926
67838W        W40263  16.242  14.656  11.459
67839W        W40264  38.501  34.479   3.346
67840W        W40265   9.855  35.906  13.458
67841W        W40266  21.034   8.203  11.603
67842W        W40267  41.436   4.278  12.417
67843W        W40268  42.357  34.419  14.772
67844W        W40269  19.592  31.975  10.557
67845W        W40270   2.361  11.260   1.333
67846W        W40271  33.491   0.311  11.426
67847W        W40272  22.055  20.606   2.688
67848W        W40273  44.394  41.934  11.906
67849W        W40274   6.299  39.947   0.340
67850W        W40275  30.651  14.606  12.494
67851W        W40276  20.767  22.218  14.408
67852W        W40277  31.939   3.444  13.391
67853W        W40278  39.444   4.756   4.330
67854W        W40279   6.820  29.598   3.263
67855W        W40280  31.574  27.536   4.673
67856W        W40281   0.486  13.213   2.757
67857W        W40282  21.727  40.905   0.862
67858W        W40283  26.177   0.389  14.476
67859W        W40284  32.418  32.132   0.446
67860W        W40285  16.107  23.618   1.212
67861W        W40286   4.759  21.663  12.420
67862W        W40287  23.038  38.377  14.466
67863W        W40288  36.005  23.736   1.325
67864W        W40289  30.495  16.194   0.314
67865W        W40290  17.195   8.396  10.444
67866W        W40291  28.103  25.573   4.677
67867W        W40292   0.752  35.889  14.421
67868W        W40293  32.530   6.853  14.918
67869W        W40294  42.289  39.392  10.426
67870W        W40295  41.880   1.794   1.859
67871W        W40296  35.877  39.836   1.926
67872W        W40297  14.779  16.711  13.045
67873W        W40298  19.728   1.412   2.369
67874W        W40299  19.690  11.360  10.543
67875W        W40300  41.828  18.724  13.873
67876W        W40301  31.484   2.234  11.955
67877W        W40302  30.030  30.460   0.344
67878W        W40303  31.435  29.157   0.847
67879W        W40304  14.689  42.009   2.747
67880W        W40305  32.472  30.079   1.905
67881W        W40306  26.661  17.153  12.873
67882W        W40307  21.059   2.378   2.241
67883W        W40308  43.851  11.763  13.365
67884W        W40309  22.701  30.546  11.958
67885W        W40310   4.807   0.823  10.904
67886W        W40311  34.441   2.951   4.695
67887W        W40312  15.613   0.346  11.864
67888W        W40313  11.253  29.007   1.226
67889W        W40314   6.298  36.438  10.474
67890W        W40315  22.054  21.206  13.939
67891W        W40316  11.370  41.851   0.479
67892W        W40317   6.315  32.599  11.896
67893W        W40318  19.735   2.752   0.852
67894W        W40319  26.464  19.657  11.956
67895W        W40320  41.415  21.045  13.510
67896W        W40321  30.491  22.502   1.428
67897W        W40322  41.984  19.669  14.869
67898W        W40323  22.547  13.133   3.156
67899W        W40324  17.570  29.175  13.928
67900W        W40325  42.996   3.760  12.961
67901W        W40326  10.250  11.314  11.488
67902W        W40327  36.002  38.031  14.508
67903W        W40328  44.364  29.986  10.968
67904W        W40329  22.221  22.135  14.930
67905W        W40330  39.007  37.345   2.210
67906W        W40331  25.067  40.529   0.953
67907W        W40332  21.029  20.529  14.969
67908W        W40333  20.620  41.795   4.837
67909W        W40334  13.182  32.059   3.792
67910W        W40335  26.604  24.593   0.805
67911W        W40336  39.833  42.821   2.779
67912W        W40337  13.231  30.091  11.431
67913W        W40338  18.143   4.247  13.864
67914W        W40339  25.049  12.303   4.297
67915W        W40340  16.732  40.887  12.866
67916W        W40341  15.203  42.920   2.687
67917W        W40342  35.444  14.336  13.824
67918W        W40343  27.594  31.632  14.416
67919W        W40344  13.267   5.211   0.854
67920W        W40345  31.486   9.820  12.526
67921W        W40346  40.449  16.612   3.209
67922W        W40347  34.571  30.910  13.439
67923W        W40348  30.465  42.360   2.275
67924W        W40349   4.826  41.524   1.773
67925W        W40350  19.120  21.660   2.819
67926W        W40351  15.659  38.883  11.444
67927W        W40352  42.905  35.000   1.900
67928W        W40353  10.327  24.591  11.033
67929W        W40354  40.879  20.625   4.758
67930W        W40355   9.828  34.869  13.964
67931W        W40356  27.096  17.765  14.813
67932W        W40357  34.974  27.530  13.318
67933W        W40358  17.285  37.972   0.928
67934W        W40359  20.224  28.955   3.277
67935W        W40360  41.847  17.205   2.761
67936W        W40361  20.646  13.339   4.243
67937W        W40362  15.314  14.149   2.220
67938W        W40363  30.582   2.774  10.468
67939W        W40364  19.064  36.375  13.980
67940W        W40365  36.385  38.334  12.495
67941W        W40366  42.852  10.672  12.462
67942W        W40367  20.198  23.673  13.374
67943W        W40368  35.940  44.491   1.399
67944W        W40369  43.820  39.503  11.017
67945W        W40370   5.829   7.817   0.795
67946W        W40371  13.159   4.867   4.350
67947W        W40372   8.803  27.679  12.971
67948W        W40373   6.836   2.240   2.798
67949W        W40374  30.471  38.525  13.964
67950W        W40375  43.873  27.115   4.158
67951W        W40376  39.352   6.306   3.868
67952W        W40377  14.303   6.699  11.069
67953W        W40378   7.329  27.068   3.361
67954W        W40379  17.217  44.412   2.902
67955W        W40380   4.834   0.459   3.717
67956W        W40381  16.618  30.561  13.888
67957W        W40382  42.484   8.708  11.406
67958W        W40383  29.171  38.374  14.848
67959W        W40384  26.619  22.714   2.844
67960W        W40385  30.089   5.909  13.367
67961W        W40386  20.083  30.618  12.470
67962W        W40387  28.116  22.071   3.725
67963W        W40388  10.210   9.754   4.277
67964W        W40389   0.975  30.105  13.982
67965W        W40390  12.721   0.780  12.064
67966W        W40391  36.006  13.343   3.723
67967W        W40392  18.624  41.865  14.887
67968W        W40393   3.405   4.910  11.954
67969W        W40394   9.294   2.461   1.861
67970W        W40395   9.687  25.180  14.420
67971W        W40396  27.449  21.554   0.440
67972W        W40397  20.530   8.748   4.114
67973W        W40398   1.325   8.280   1.303
67974W        W40399   7.853  43.506   4.131
67975W        W40400  27.680  39.057   2.786
67976W        W40401  14.249  23.098   0.874
67977W        W40402  29.636  19.153  13.862
67978W        W40403  38.355  42.822   9.507
67979W        W40404   2.269  39.403  13.998
67980W        W40405  20.183  34.420   3.788
67981W        W40406  14.625  29.504   3.676
67982W        W40407  42.940   9.705   0.957
67983W        W40408  42.891  16.209  14.806
67984W        W40409  42.861  31.014  12.495
67985W        W40410  12.671  26.545  11.476
67986W        W40411   6.823  43.904   0.819
67987W        W40412  12.716  31.068   0.409
67988W        W40413  27.044  39.410  13.842
67989W        W40414  43.012  30.565   2.793
67990W        W40415  30.122   5.926   3.661
67991W        W40416  40.548  12.350  13.800
67992W        W40417  22.198  18.101  13.871
67993W        W40418   7.766   5.796   3.856
67994W        W40419  25.545  13.316  11.105
67995W        W40420  28.150  22.212   3.150
67996W        W40421  27.957   3.759   1.285
67997W        W40422  36.524  29.040  11.022
67998W        W40423   5.329  16.677  10.970
67999W        W40424  20.706  40.308  11.874
68000W        W40425   3.442   5.882  14.978
68001W        W40426  18.063  22.085   3.177
68002W        W40427  24.635  31.973   2.189
68003W        W40428   0.794  45.000  13.459
68004W        W40429  33.400  36.998   1.825
68005W        W40430  40.943  19.212  12.499
68006W        W40431  36.469  44.465   3.349
68007W        W40432  10.756  12.143   4.654
68008W        W40433  21.755   5.916   0.967
68009W        W40434  21.078   0.313   1.243
68010W        W40435  34.599  39.897   3.754
68011W        W40436  38.883   8.307   5.120
68012W        W40437  23.635  10.857  11.595
68013W        W40438  42.850   8.717   0.446
68014W        W40439  11.206  20.029  10.567
68015W        W40440  29.603  13.641   0.358
68016W        W40441   5.795   2.262  11.968
68017W        W40442  12.337  13.665   4.138
68018W        W40443   6.861  42.826   2.327
68019W        W40444  27.992  19.605   9.985
68020W        W40445  34.003  18.122   5.211
68021W        W40446  37.955  10.807   4.218
68022W        W40447  24.638  36.952   0.455
68023W        W40448  43.872  18.720  12.354
68024W        W40449  34.398  23.719  14.466
68025W        W40450  18.617  34.097  13.057
68026W        W40451  16.785  41.984  11.438
68027W        W40452  23.047  26.063  13.505
68028W        W40453  33.542  30.546   1.263
68029W        W40454   4.364  36.363  14.938
68030W        W40455  10.733  31.955  11.058
68031W        W40456  10.819  42.306   0.783
68032W        W40457   5.880  38.493  12.525
68033W        W40458  43.806  37.469   5.166
68034W        W40459  39.918   1.774   4.647
68035W        W40460  41.991  33.909  13.947
68036W        W40461  28.088   0.262   0.786
68037W        W40462  40.915  44.409   2.707
68038W        W40463   6.831   2.419   1.264
68039W        W40464  33.071  30.130  10.581
68040W        W40465  12.766  17.669   2.207
68041W        W40466   6.724  11.796   2.751
68042W        W40467  43.886  16.733  12.930
68043W        W40468  31.037   8.793  12.536
68044W        W40469  20.202   1.914  10.116
68045W        W40470   2.275   6.198   1.750
68046W        W40471  31.441  23.146   4.819
68047W        W40472  13.742  30.925  14.890
68048W        W40473  20.261  32.977  14.880
68049W        W40474   6.353  26.191   3.820
68050W        W40475  15.740   8.405  11.003
68051W        W40476  10.837   6.922  12.861
68052W        W40477   7.679  44.006   2.814
68053W        W40478   5.374   1.388  13.318
68054W        W40479  25.704  39.409  11.517
68055W        W40480  25.524   1.775  11.922
68056W        W40481  18.139   1.899   2.208
68057W        W40482  44.998  32.012   4.600
68058W        W40483  31.477   3.309  13.525
68059W        W40484  22.172  13.295   0.246
68060W        W40485  33.027  32.441  14.897
68061W        W40486  35.086   2.861   0.390
68062W        W40487  32.983  28.102  14.804
68063W        W40488  10.747  36.356   3.830
68064W        W40489   4.879  28.089   2.832
68065W        W40490  20.040   4.856   4.780
68066W        W40491   0.387  26.168  11.122
68067W        W40492  25.601  18.690   3.652
68068W        W40493  41.370  26.023  10.968
68069W        W40494  16.122  19.615   2.703
68070W        W40495   5.788  29.956  12.889
68071W        W40496  22.685   9.280   0.758
68072W        W40497  32.012   5.409  14.470
68073W        W40498  42.325  19.275   3.735
68074W        W40499  27.690  42.954   2.342
68075W        W40500  19.204   5.272   0.458
68076W        W40501   5.833  11.654  14.942
68077W        W40502  36.060   7.780   4.216
68078W        W40503  40.503  10.803  12.859
68079W        W40504  29.945   4.270  12.397
68080W        W40505  39.041  19.250  12.923
68081W        W40506  37.926  44.262   3.294
68082W        W40507  13.316  38.824  13.361
68083W        W40508  21.599  15.239   1.925
68084W        W40509  23.176   3.814  10.638
68085W        W40510  39.418  41.435   2.868
68086W        W40511  41.000  40.547  10.988
68087W        W40512   0.924  43.284  11.506
68088W        W40513   0.305  12.622  10.473
68089W        W40514  15.806  30.439  14.479
68090W        W40515  36.851  14.826   1.413
68091W        W40516  37.428  29.080   0.816
68092W        W40517  27.111  12.345  10.524
68093W        W40518   9.329  40.906  12.562
68094W        W40519   6.407   2.731  11.459
68095W        W40520   1.268  41.918   2.311
68096W        W40521  44.278  42.457  12.984
68097W        W40522  43.480  22.022   1.800
68098W        W40523  13.765  23.692   5.115
68099W        W40524  16.670  22.614   1.841
68100W        W40525   5.251   5.421  10.520
68101W        W40526  38.361   6.346   0.796
68102W        W40527   2.955  31.431  14.441
68103W        W40528  44.263  10.821  14.961
68104W        W40529  41.852  21.111   3.853
68105W        W40530  12.764  23.554  14.971
68106W        W40531  19.240  21.259   2.669
68107W        W40532  38.516  22.102   2.688
68108W        W40533  17.583   3.275   0.273
68109W        W40534  14.794  35.539  13.445
68110W        W40535  33.954  16.315  14.799
68111W        W40536  34.881   6.276   1.247
68112W        W40537  39.382  29.963   4.823
68113W        W40538  18.284   3.796   2.879
68114W        W40539   5.231  22.096   0.375
68115W        W40540   5.251  20.173  13.337
68116W        W40541  36.539  43.442  12.357
68117W        W40542   2.951   3.427   2.408
68118W        W40543  44.763  30.020   2.765
68119W        W40544  10.721  21.051   0.363
68120W        W40545  19.721  12.354   0.872
68121W        W40546  35.513  44.894  14.504
68122W        W40547   6.747  12.124  10.579
68123W        W40548  34.535   5.291   3.332
68124W        W40549  36.901  21.699  11.597
68125W        W40550  33.908   0.743   1.438
68126W        W40551  34.525  21.125  13.358
68127W        W40552   9.198   3.921   1.389
68128W        W40553  12.340  33.076  13.962
68129W        W40554  27.497  24.601  11.468
68130W        W40555  26.955  38.482  12.080
68131W        W40556  19.285  33.570   1.743
68132W        W40557   7.770  35.417  14.310
68133W        W40558  23.193  16.185   4.169
68134W        W40559  21.657   0.423   4.210
68135W        W40560  11.854  31.535   4.826
68136W        W40561   0.820  43.808   4.226
68137W        W40562  27.684  33.522   0.323
68138W        W40563  24.183   2.957   2.699
68139W        W40564  28.486  26.480  10.461
68140W        W40565  16.698  22.041  13.060
68141W        W40566  37.887  24.487   0.848
68142W        W40567  18.744   8.242   2.672
68143W        W40568  22.111  34.067   3.790
68144W        W40569   9.718  24.494   4.204
68145W        W40570  38.056  33.101  12.474
68146W        W40571  28.671  23.055   1.393
68147W        W40572  32.556  29.620   3.282
68148W        W40573  18.586  20.253   0.414
68149W        W40574   8.834   5.393   3.648
68150W        W40575  33.977  38.912   3.739
68151W        W40576  38.875  37.536  14.889
68152W        W40577  31.062  38.457  11.906
68153W        W40578   2.410  43.872  11.566
68154W        W40579  10.213  28.958  13.364
68155W        W40580  12.258  28.580  14.962
68156W        W40581  18.063  41.492  14.017
68157W        W40582   8.683  18.096  12.943
68158W        W40583  35.433   5.193   0.818
68159W        W40584  16.253  29.576  13.027
68160W        W40585  23.491  10.198   2.370
68161W        W40586  11.292  20.634   0.351
68162W        W40587  42.777   0.964   5.113
68163W        W40588   5.421  34.890  12.913
68164W        W40589  19.260  35.018  13.498
68165W        W40590  26.634  22.168   2.882
68166W        W40591  18.672  39.417  11.988
68167W        W40592  33.999  18.217   3.824
68168W        W40593   8.856  22.244  14.855
68169W        W40594  34.021   0.484  14.847
68170W        W40595  30.539  31.623   3.149
68171W        W40596  36.024   2.825  12.503
68172W        W40597  41.438  35.411  13.400
68173W        W40598  38.855  41.420   2.715
68174W        W40599  44.433  20.681   4.834
68175W        W40600  24.995  22.196  14.312
68176W        W40601  18.574  22.162  14.419
68177W        W40602  40.345  42.295   1.435
68178W        W40603  28.057  31.631   0.315
68179W        W40604  38.567  37.912   4.323
68180W        W40605  29.520   3.356   0.431
68181W        W40606  32.135   3.812   3.823
68182W        W40607  18.061  23.020   2.829
68183W        W40608  14.101   1.866  10.157
68184W        W40609  34.118   9.322   0.903
68185W        W40610  30.429  10.739   0.351
68186W        W40611  26.493   5.706   2.746
68187W        W40612  10.252   1.336  12.970
68188W        W40613  31.509   1.931   0.872
68189W        W40614   8.890  31.042   1.249
68190W        W40615  36.522  33.550  13.501
68191W        W40616  32.471  12.655   1.835
68192W        W40617  13.752  27.676   4.288
68193W        W40618  20.174   3.939   2.364
68194W        W40619  16.583   5.733  11.923
68195W        W40620  16.727  24.231  13.835
68196W        W40621  26.170  11.373  14.800
68197W        W40622  26.976   1.355   2.898
68198W        W40623  18.619  30.533  12.069
68199W        W40624  25.619  32.526  10.513
68200W        W40625  35.082   6.292   0.425
68201W        W40626  23.557  25.115  12.041
68202W        W40627  20.605  39.033  14.030
68203W        W40628  36.898   4.812   0.356
68204W        W40629   5.912  44.396   2.742
68205W        W40630  27.058  39.400  14.309
68206W        W40631  11.196  23.103  11.895
68207W        W40632  43.779  31.044   4.234
68208W        W40633  20.198   7.241   1.330
68209W        W40634  15.619  39.968  11.036
68210W        W40635   9.645   0.815   1.248
68211W        W40636  35.905  31.445  10.444
68212W        W40637  19.181  41.029   1.413
68213W        W40638  10.878  29.498  13.856
68214W        W40639  31.598  28.439  11.947
68215W        W40640   5.203  18.573   2.339
68216W        W40641  41.423   6.366   1.799
68217W        W40642  27.045  36.588  12.966
68218W        W40643   5.811  27.629  13.348
68219W        W40644  18.678   5.379  10.441
68220W        W40645  26.566  28.055   4.235
68221W        W40646  32.505  22.672  10.604
68222W        W40647  36.347  30.567  12.546
68223W        W40648  38.496  11.738  14.418
68224W        W40649   0.459  16.290   0.930
68225W        W40650  23.543  13.318   1.739
68226W        W40651  39.360  40.411  11.118
68227W        W40652   9.365  40.045   4.179
68228W        W40653  43.941  26.056   1.814
68229W        W40654   3.741  44.959   4.795
68230W        W40655  26.532  17.151   5.180
68231W        W40656  35.513  41.321   0.422
68232W        W40657  26.024  16.141   3.146
68233W        W40658  22.508  26.961  11.987
68234W        W40659   2.257  12.775  12.347
68235W        W40660  10.175  36.579  11.000
68236W        W40661  36.978  39.849   4.231
68237W        W40662  29.119  16.284  13.906
68238W        W40663  11.216  14.828   2.368
68239W        W40664  20.117  28.065  11.386
68240W        W40665  39.367  33.545   4.770
68241W        W40666  13.106   4.885   1.362
68242W        W40667  25.563  39.540  11.939
68243W        W40668  19.744   3.850   2.243
68244W        W40669   9.758  11.823   2.219
68245W        W40670  44.825   5.420   3.181
68246W        W40671  39.932  41.790  13.054
68247W        W40672  20.030   2.405   4.242
68248W        W40673   1.287  10.293  10.560
68249W        W40674  40.832  12.174   1.231
68250W        W40675  11.758  12.279   1.862
68251W        W40676  43.814  17.678   4.782
68252W        W40677  37.960  23.621   4.760
68253W        W40678   6.274   9.738  10.643
68254W        W40679   3.931  38.051  11.997
68255W        W40680  13.745   5.916  12.472
68256W        W40681  29.920  24.705   3.326
68257W        W40682  12.269  25.524  13.053
68258W        W40683   5.801   8.772  11.393
68259W        W40684   0.976  24.206   1.356
68260W        W40685  28.012  21.125   4.762
68261W        W40686  16.744  25.096  13.406
68262W        W40687  26.560  16.631   1.404
68263W        W40688  40.020  16.285   1.705
68264W        W40689  24.673  35.547   1.827
68265W        W40690  35.062   0.428  11.086
68266W        W40691  32.495  40.003  10.606
68267W        W40692  14.319  27.678   2.190
68268W        W40693  39.849  31.974  13.317
68269W        W40694  14.245   5.219  11.917
68270W        W40695  26.460  17.147  11.979
68271W        W40696  37.927  40.926   3.852
68272W        W40697  44.001  42.938  14.774
68273W        W40698  22.701  24.028  10.948
68274W        W40699  37.378   3.394  10.100
68275W        W40700  15.328  14.280  12.867
68276W        W40701  34.086  20.209   4.222
68277W        W40702  14.239  21.615   2.396
68278W        W40703  28.530   9.198  11.122
68279W        W40704   4.234  22.088  14.361
68280W        W40705  30.965  27.484   2.388
68281W        W40706  31.598  28.023   0.885
68282W        W40707  13.795  37.411  11.452
68283W        W40708  25.524  22.536  12.052
68284W        W40709   5.219  10.675  11.450
68285W        W40710  35.874   4.218   1.782
68286W        W40711  35.923   8.754  14.413
68287W        W40712  23.607   7.171  14.496
68288W        W40713  40.809  24.009   4.814
68289W        W40714  36.027  21.680   1.898
68290W        W40715  11.654  38.409  12.024
68291W        W40716  17.789   2.292  12.377
68292W        W40717  17.715  39.908  10.574
68293W        W40718   5.403  13.797  14.032
68294W        W40719  41.790   1.859   5.273
68295W        W40720  13.845  23.237   2.812
68296W        W40721  12.239  12.175  13.391
68297W        W40722  29.983  36.977  14.339
68298W        W40723  33.999  21.682   4.801
68299W        W40724  38.472  16.302   3.165
68300W        W40725  39.052   7.375   4.147
68301W        W40726   1.483   7.741   3.161
68302W        W40727  26.608  10.200   3.188
68303W        W40728   1.828  34.401   2.276
68304W        W40729   4.371   4.762  13.006
68305W        W40730   4.420   2.428   2.777
68306W        W40731  34.524  33.052   4.277
68307W        W40732  32.083  42.286   3.293
68308W        W40733  28.969  11.736   3.363
68309W        W40734  30.930  38.872   0.442
68310W        W40735  17.304   2.375   5.604
68311W        W40736  32.479   3.459   3.859
68312W        W40737  12.320  39.938  11.400
68313W        W40738  10.355  18.661  14.347
68314W        W40739  17.274  15.292   1.847
68315W        W40740  28.984  26.499   5.314
68316W        W40741  24.130   3.845   2.767
68317W        W40742  10.649  29.480   2.719
68318W        W40743   9.717  41.848   4.648
68319W        W40744  20.226  34.511  11.602
68320W        W40745   6.301  41.983  12.825
68321W        W40746  23.014  31.610  11.967
68322W        W40747  37.025   5.768  14.803
68323W        W40748  34.876   9.768   4.336
68324W        W40749  44.435  35.952   1.756
68325W        W40750  11.795   0.963   3.352
68326W        W40751  39.844   4.334   4.159
68327W        W40752  42.480  36.970  10.960
68328W        W40753  40.979  17.642  13.918
68329W        W40754  22.072   8.406  13.863
68330W        W40755  20.744  44.287   0.447
68331W        W40756  25.196  15.318   4.228
68332W        W40757  23.642   8.310  11.917
68333W        W40758  23.095  22.104  14.848
68334W        W40759  16.192  33.559  12.045
68335W        W40760  27.478  31.102   3.292
68336W        W40761  29.590  12.667  11.394
68337W        W40762  32.593  34.045  13.385
68338W        W40763   5.902   7.895  12.452
68339W        W40764  27.956  27.624  11.495
68340W        W40765  22.575  38.893   2.771
68341W        W40766   6.726  15.171   0.255
68342W        W40767  16.287  32.046  10.935
68343W        W40768  38.461  39.495   1.394
68344W        W40769  14.779  39.998  13.855
68345W        W40770  34.879  38.965   0.761
68346W        W40771  31.928  38.835  12.849
68347W        W40772   1.290  16.285  11.567
68348W        W40773  25.475  30.084   2.760
68349W        W40774   3.417  18.717   3.205
68350W        W40775  29.946  26.640   4.299
68351W        W40776  23.657  20.215  11.565
68352W        W40777  26.030  12.125   0.437
68353W        W40778  14.282  22.054  10.995
68354W        W40779  12.310  39.849  12.873
68355W        W40780  36.021   1.809   1.835
68356W        W40781  11.180  12.707  10.971
68357W        W40782  11.203  33.979  13.847
68358W        W40783  40.397  32.452   1.875
68359W        W40784  37.862  35.860   1.435
68360W        W40785  33.475  44.273  13.817
68361W        W40786  31.430   5.377   3.831
68362W        W40787  25.479  26.527  13.835
68363W        W40788  27.130  14.737  13.355
68364W        W40789  34.387  42.888   3.241
68365W        W40790  38.348  16.255  11.012
68366W        W40791  36.448  39.851   3.689
68367W        W40792  27.162  28.025   2.267
68368W        W40793  25.979  36.421   1.390
68369W        W40794   2.798  44.958  13.547
68370W        W40795  16.745  31.439   2.820
68371W        W40796   6.922  38.900   3.356
68372W        W40797   9.339  20.627  10.573
68373W        W40798  32.422  43.461  14.916
68374W        W40799  38.825  32.612   4.745
68375W        W40800  22.632  23.582   2.691
68376W        W40801  22.047  34.488  12.830
68377W        W40802  42.024  15.628   1.780
68378W        W40803  25.196  35.993   9.932
68379W        W40804  28.092  22.560  10.094
68380W        W40805  38.893   8.766  11.587
68381W        W40806  18.678  11.672  12.339
68382W        W40807  14.309  29.443   2.863
68383W        W40808  17.561  19.659  14.400
68384W        W40809   2.309  44.374   2.303
68385W        W40810   5.295  37.890  14.298
68386W        W40811  20.055  18.634   1.224
68387W        W40812  20.069  27.046  10.461
68388W        W40813   0.880   8.366   3.827
68389W        W40814  28.032  30.907   1.896
68390W        W40815  36.543   2.855  13.940
68391W        W40816  10.682  40.918  11.411
68392W        W40817  41.327   1.316   4.240
68393W        W40818  24.095   8.818   5.663
68394W        W40819  41.857  12.282  12.480
68395W        W40820  38.329  30.926   0.906
68396W        W40821  11.749  14.188   1.886
68397W        W40822  38.852  12.843  10.040
68398W        W40823  28.635  19.053  14.284
68399W        W40824  23.646  31.437   3.776
68400W        W40825   4.431  41.912  14.897
68401W        W40826  28.953   3.830  14.435
68402W        W40827   1.480  27.563  12.496
68403W        W40828  32.408  39.948  14.313
68404W        W40829  38.036   5.851   4.598
68405W        W40830   8.179  34.078  13.415
68406W        W40831  24.630  17.205   2.190
68407W        W40832  30.554  18.144   0.955
68408W        W40833   9.217  19.709  12.968
68409W        W40834   0.429  20.764   3.854
68410W        W40835  24.214  35.367   4.613
68411W        W40836  29.962   9.779  13.446
68412W        W40837  22.077   2.410   4.135
68413W        W40838  42.837  42.436   3.204
68414W        W40839  24.536   1.919  12.077
68415W        W40840  26.631  31.966  10.611
68416W        W40841  26.531  25.705  10.500
68417W        W40842  14.192  18.070   3.732
68418W        W40843  11.238  12.638   0.483
68419W        W40844  15.749  18.705   1.396
68420W        W40845  22.131  26.507  14.470
68421W        W40846  35.070  37.516  13.522
68422W        W40847  40.350  41.441   4.325
68423W        W40848  28.085   3.290   2.868
68424W        W40849  27.051  41.985   4.163
68425W        W40850  44.451   1.975   3.747
68426W        W40851   1.254  38.327   0.270
68427W        W40852  25.495  12.804   4.205
68428W        W40853  20.040  10.869  12.481
68429W        W40854  35.978  33.924  11.060
68430W        W40855  11.746   6.856   3.357
68431W        W40856  37.515  39.860   0.739
68432W        W40857  25.991  17.590  14.506
68433W        W40858  38.519  37.365   3.738
68434W        W40859  14.218   2.251  14.020
68435W        W40860  41.472   0.858  12.497
68436W        W40861  29.641  12.807  10.147
68437W        W40862  39.047  21.252   3.274
68438W        W40863  12.656  24.632   2.260
68439W        W40864  42.490  11.310   4.219
68440W        W40865   6.782  29.657  10.889
68441W        W40866  27.994   3.915  14.950
68442W        W40867  38.915  37.023  11.113
68443W        W40868  41.029   9.751   4.656
68444W        W40869  17.295  43.811   3.721
68445W        W40870  14.300   4.364   4.238
68446W        W40871  21.652   3.886   4.299
68447W        W40872  29.141  37.492   2.315
68448W        W40873  15.156  19.779   2.704
68449W        W40874  34.058   9.771   3.714
68450W        W40875  35.100  42.887   0.926
68451W        W40876  39.450  10.634   1.846
68452W        W40877  43.377  21.105  10.521
68453W        W40878  42.865  42.792  12.558
68454W        W40879  28.457  28.536  14.873
68455W        W40880   7.363  33.558   1.886
68456W        W40881  44.843   9.680   4.123
68457W        W40882   0.823  41.310  11.486
68458W        W40883  12.157  40.450  11.468
68459W        W40884  31.984  17.085   3.841
68460W        W40885   4.328   7.372   0.920
68461W        W40886  30.425  24.670   4.654
68462W        W40887  41.399  36.865  11.376
68463W        W40888  20.560  13.276  11.558
68464W        W40889   3.428   1.908   3.723
68465W        W40890  39.819  30.971   3.644
68466W        W40891  12.213   5.415   2.270
68467W        W40892  19.660  44.903   1.256
68468W        W40893  23.044   3.937  13.534
68469W        W40894  17.661   3.337   1.368
68470W        W40895  41.892  40.417   3.160
68471W        W40896  14.171  29.986   2.852
68472W        W40897  33.601  30.106   0.913
68473W        W40898   7.751   0.769   5.143
68474W        W40899  25.065  43.786   3.246
68475W        W40900  18.637   3.241   4.686
68476W        W40901  15.285  36.843  14.837
68477W        W40902  31.637  33.874  11.534
68478W        W40903  43.346  17.640   4.686
68479W        W40904  37.456  23.665   1.406
68480W        W40905  39.431  28.078  10.413
68481W        W40906   4.878  14.815   2.381
68482W        W40907   0.761  33.576  14.280
68483W        W40908  39.397  15.298   1.804
68484W        W40909  31.447  30.432  14.998
68485W        W40910  12.656  44.761   2.332
68486W        W40911   8.226  33.103  11.109
68487W        W40912  15.661   3.786  10.548
68488W        W40913  38.408  25.113  14.985
68489W        W40914  18.685  23.207  10.497
68490W        W40915  43.441   9.870   2.288
68491W        W40916  22.627  13.253   2.766
68492W        W40917   9.196  19.127   2.300
68493W        W40918  19.085   3.726  13.851
68494W        W40919   4.936   3.941  14.383
68495W        W40920  27.183  44.982  12.063
68496W        W40921   9.832  12.833   0.882
68497W        W40922  41.796  38.952  13.006
68498W        W40923  24.201  29.504  10.929
68499W        W40924  16.235  23.701   4.784
68500W        W40925  12.290  39.061   4.131
68501W        W40926  16.694  24.555  10.413
68502W        W40927  12.746  44.798   0.827
68503W        W40928  15.590  28.130  12.503
68504W        W40929  29.060   5.867  13.964
68505W        W40930  15.803   5.421   2.224
68506W        W40931  18.148  24.996   0.785
68507W        W40932   5.821  17.149   3.663
68508W        W40933   4.773  32.024   5.245
68509W        W40934  39.314  19.136   1.790
68510W        W40935  14.133  19.637  10.024
68511W        W40936  32.018  27.980   4.828
68512W        W40937  35.005   9.163  14.313
68513W        W40938  35.875  33.525   1.320
68514W        W40939  42.396   4.739  12.079
68515W        W40940  14.181   6.205   0.812
68516W        W40941  25.469   7.685  11.538
68517W        W40942   6.737  44.277  12.069
68518W        W40943  25.145  10.330  12.404
68519W        W40944  35.525  31.919  12.889
68520W        W40945  34.454  28.156  11.880
68521W        W40946  19.567  14.118   2.405
68522W        W40947  32.063  13.650   0.741
68523W        W40948  33.942  34.597   0.925
68524W        W40949  19.071  42.880  13.916
68525W        W40950  34.939  26.957  13.792
68526W        W40951  38.372  44.265   1.701
68527W        W40952   8.710  25.969  14.463
68528W        W40953   1.318   6.678  13.814
68529W        W40954  42.425  41.473  13.008
68530W        W40955   5.890  21.722  13.314
68531W        W40956  38.826  14.667   0.944
68532W        W40957  24.113  17.648  13.988
68533W        W40958  28.567  23.618  13.352
68534W        W40959  43.373  21.095   2.210
68535W        W40960  29.469   0.806  10.408
68536W        W40961   1.286  38.942  10.893
68537W        W40962  42.847   0.494  10.020
68538W        W40963  24.558  29.171  13.053
68539W        W40964   0.817  11.262   2.178
68540W        W40965  25.587   0.895  14.395
68541W        W40966  33.473  31.076  11.481
68542W        W40967  26.065  25.181   0.310
68543W        W40968   4.369  30.489   1.420
68544W        W40969   6.710  10.764  13.415
68545W        W40970   2.454  43.353  14.864
68546W        W40971   3.234  34.568  14.008
68547W        W40972  32.586  27.139  13.032
68548W        W40973  42.963  38.490  12.543
68549W        W40974  31.125   3.850   1.886
68550W        W40975   5.331  32.583  13.822
68551W        W40976  42.400  29.447   4.779
68552W        W40977  34.994  41.845   4.747
68553W        W40978  10.748   2.955   2.236
68554W        W40979  35.918  27.595  13.901
68555W        W40980  30.648  11.789   0.366
68556W        W40981  40.930  10.189  11.508
68557W        W40982  32.112   3.872   2.244
68558W        W40983  39.827  25.162   0.809
68559W        W40984  11.852   1.240  10.923
68560W        W40985  29.084  27.990  14.016
68561W        W40986  15.263   1.278  11.998
68562W        W40987  43.337  12.146  10.460
68563W        W40988  34.568  38.508  10.504
68564W        W40989  33.610  11.320  10.974
68565W        W40990   4.725  32.464   0.456
68566W        W40991   8.248  15.092  13.009
68567W        W40992  43.957   4.376  13.494
68568W        W40993   3.759  37.457  11.492
68569W        W40994  26.139  11.301   3.729
68570W        W40995  39.415  37.541  11.045
68571W        W40996  26.192  22.649   4.320
68572W        W40997  28.514  34.542   0.821
68573W        W40998  10.339  36.064  14.362
68574W        W40999  12.823  43.358   4.150
68575W        W41000  29.605  23.056  14.440
68576W        W41001  12.729  12.611  14.952
68577W        W41002   9.732  35.985  13.884
68578W        W41003  25.600  14.285   1.813
68579W        W41004   4.408  19.567   2.862
68580W        W41005  36.523   4.245   3.383
68581W        W41006  14.185  23.086  11.024
68582W        W41007  23.063   5.435  12.374
68583W        W41008  26.539  29.606   1.423
68584W        W41009  11.645  15.138   0.954
68585W        W41010  15.122  12.755  14.883
68586W        W41011  11.331   6.690   3.336
68587W        W41012  21.154  19.129  10.517
68588W        W41013  19.108  15.760  11.561
68589W        W41014  42.356  32.445   0.780
68590W        W41015  12.217  36.379   1.706
68591W        W41016   5.398  24.691  13.022
68592W        W41017  13.179  30.656   2.737
68593W        W41018  28.945  27.675  11.861
68594W        W41019  36.049  27.077   0.251
68595W        W41020  17.619  31.509   5.290
68596W        W41021  20.769  37.469  14.406
68597W        W41022  19.137   9.204   1.872
68598W        W41023  17.580  28.002   2.300
68599W        W41024  17.075   3.729   3.315
68600W        W41025   2.742  28.666   1.415
68601W        W41026  29.925  13.206  13.056
68602W        W41027  23.079  15.590   0.442
68603W        W41028  36.526  21.212   1.705
68604W        W41029  38.996  25.017   3.247
68605W        W41030   6.784  13.701   2.815
68606W        W41031   5.250  40.972  10.520
68607W        W41032  30.628  22.545  14.303
68608W        W41033   6.716   7.261   1.882
68609W        W41034  32.393  28.472   1.330
68610W        W41035  43.964  24.540   4.723
68611W        W41036  30.954  18.120   1.829
68612W        W41037   0.391  21.024  12.854
68613W        W41038  24.223  13.185   2.797
68614W        W41039  42.356  32.111  12.074
68615W        W41040  15.100  28.040   4.816
68616W        W41041  17.223  43.812  11.865
68617W        W41042  22.202   7.784  12.372
68618W        W41043  28.496  19.047   2.417
68619W        W41044  16.765  44.819   9.928
68620W        W41045  28.588  41.902  12.835
68621W        W41046   6.327  40.517   4.242
68622W        W41047  33.468  22.118  13.894
68623W        W41048  34.994  29.581   9.960
68624W        W41049  24.670  25.004  14.339
68625W        W41050  17.630  28.464  12.981
68626W        W41051  10.813  35.922   0.796
68627W        W41052  32.947  39.969   1.923
68628W        W41053  44.852   6.247  12.408
68629W        W41054  24.121  31.538  13.820
68630W        W41055   0.973  15.218   0.359
68631W        W41056  29.059  11.703   3.788
68632W        W41057  25.613  11.674   1.231
68633W        W41058   0.415  32.561  12.040
68634W        W41059  28.942  10.211  11.412
68635W        W41060  20.077  21.540   2.355
68636W        W41061  22.533  28.954  12.978
68637W        W41062  16.298   3.815  11.073
68638W        W41063  43.823  34.410  12.552
68639W        W41064   0.389  44.968   4.252
68640W        W41065  29.664  28.481  10.524
68641W        W41066  32.078  28.009  10.576
68642W        W41067  26.690  40.457   0.260
68643W        W41068  23.119   6.355  14.418
68644W        W41069  24.109   5.310  12.346
68645W        W41070  10.693  17.192   0.812
68646W        W41071   2.883   6.782   4.117
68647W        W41072  10.791  33.439  11.561
68648W        W41073  31.411  26.644  12.413
68649W        W41074  24.691  13.171   0.909
68650W        W41075   9.666  44.814   4.210
68651W        W41076  37.471   2.241   0.389
68652W        W41077  27.123  41.013   2.414
68653W        W41078   4.916  25.039   3.752
68654W        W41079  33.112  39.915  14.493
68655W        W41080  24.140   0.986  10.096
68656W        W41081  33.418   6.878   1.351
68657W        W41082   7.696  24.715   1.727
68658W        W41083   6.402   1.314  11.003
68659W        W41084  34.471   5.757   2.287
68660W        W41085  16.255  21.745  13.518
68661W        W41086  30.583  14.743   4.233
68662W        W41087  19.176  30.543  14.938
68663W        W41088   3.454   7.871   1.311
68664W        W41089  19.093  14.124   4.240
68665W        W41090  43.333  34.561   3.778
68666W        W41091   8.318   0.916   4.256
68667W        W41092   3.840   4.325  12.045
68668W        W41093   0.409  25.182  13.418
68669W        W41094  44.320   0.872   0.821
68670W        W41095  13.642   0.368  11.104
68671W        W41096  28.932  16.795   2.386
68672W        W41097  36.472  33.420   2.861
68673W        W41098   2.805  42.362   4.156
68674W        W41099  30.563  38.380  12.842
68675W        W41100  22.501  17.111  10.888
68676W        W41101  12.304  26.989  13.853
68677W        W41102  43.287  15.805   3.732
68678W        W41103   7.338  37.354   5.650
68679W        W41104   1.846   9.219   3.711
68680W        W41105  41.944  36.979   3.206
68681W        W41106  13.216  40.883   4.805
68682W        W41107  19.779  41.988   3.384
68683W        W41108  34.939   4.815   2.354
68684W        W41109   3.906  39.343   0.826
68685W        W41110  43.307  12.766   3.372
68686W        W41111  36.944  20.647  14.375
68687W        W41112  23.107   5.787   3.194
68688W        W41113  11.228  31.482  11.424
68689W        W41114  27.478  25.047  12.454
68690W        W41115   0.952  15.629   0.816
68691W        W41116  27.043  24.039  14.943
68692W        W41117   6.869  18.577   2.182
68693W        W41118  40.481  32.995   1.366
68694W        W41119  23.185  14.119  11.061
68695W        W41120  43.275  15.159  13.806
68696W        W41121   1.263  17.276   3.838
68697W        W41122  11.751  27.996   1.408
68698W        W41123  33.412  14.206   0.476
68699W        W41124   8.848  43.995   2.868
68700W        W41125  27.466   5.364   2.398
68701W        W41126  30.980  41.320  11.026
68702W        W41127  35.077  14.122  14.020
68703W        W41128  32.484  43.850   2.280
68704W        W41129  19.535  12.160  14.394
68705W        W41130  40.999  28.020  14.491
68706W        W41131  36.442   4.240   3.787
68707W        W41132  26.504  23.097  12.069
68708W        W41133  15.649  38.396   1.855
68709W        W41134  44.340  34.607   3.314
68710W        W41135  17.571  32.901  11.527
68711W        W41136   4.361   6.912  12.038
68712W        W41137  12.844  19.262  12.389
68713W        W41138  18.284  24.649  13.534
68714W        W41139  28.175  10.803   3.792
68715W        W41140  22.130  26.004   0.302
68716W        W41141  33.076  43.849   3.221
68717W        W41142  39.400  27.498   2.782
68718W        W41143  30.429  23.984  14.345
68719W        W41144   7.863  16.585   1.860
68720W        W41145  28.105  35.470   2.675
68721W        W41146   3.816   1.281  11.453
68722W        W41147  40.842  21.568  12.531
68723W        W41148  44.418  37.420   9.982
68724W        W41149  36.440   6.393   1.284
68725W        W41150  30.944  26.481  13.851
68726W        W41151  41.966  27.015  10.527
68727W        W41152  43.431  31.648   1.235
68728W        W41153  20.764   9.875   1.854
68729W        W41154  11.814   5.224  14.803
68730W        W41155   8.315   9.336  13.530
68731W        W41156  18.721  21.078  10.478
68732W        W41157  41.836   4.403  13.918
68733W        W41158   8.728  32.588   0.422
68734W        W41159   7.392  25.082  13.425
68735W        W41160  39.555   6.922  12.903
68736W        W41161  40.961  19.609  10.407
68737W        W41162  10.692   9.391   5.129
68738W        W41163  26.492   6.298  10.900
68739W        W41164  34.576  32.496  11.922
68740W        W41165  33.911   4.879  10.978
68741W        W41166  38.393  43.911  13.465
68742W        W41167  24.681  11.127  10.941
68743W        W41168  25.161  36.092  11.872
68744W        W41169  31.932  36.997   4.328
68745W        W41170  16.112  17.128   0.468
68746W        W41171   7.775  32.994   2.688
68747W        W41172  11.679  29.925   3.297
68748W        W41173  32.981  11.693  10.474
68749W        W41174  19.083  25.583  13.874
68750W        W41175   7.295  39.898   4.242
68751W        W41176   5.204  15.323   0.296
68752W        W41177  16.097  17.242  11.110
68753W        W41178  41.840   3.710  10.446
68754W        W41179  41.466  38.476  14.767
68755W        W41180  43.000   0.829   3.168
68756W        W41181   5.422  23.992   4.773
68757W        W41182  25.144  19.712  11.893
68758W        W41183  42.416   5.757   4.182
68759W        W41184  17.660  25.644   2.836
68760W        W41185  33.459   5.737   3.363
68761W        W41186  39.468  10.708  10.908
68762W        W41187  11.238  29.586   4.602
68763W        W41188  11.688  28.991  10.439
68764W        W41189  28.482  37.420   0.431
68765W        W41190   2.470   3.397  13.036
68766W        W41191  16.758  42.835   3.676
68767W        W41192  15.783  36.475   3.207
68768W        W41193  28.020  19.061   0.780
68769W        W41194  22.720  42.970  10.414
68770W        W41195  35.360  28.148   1.727
68771W        W41196   7.216  38.494  13.815
68772W        W41197   5.740  23.527   4.205
68773W        W41198  32.902  18.183  12.398
68774W        W41199  39.969  18.252   4.265
68775W        W41200  15.717  25.616  12.082
68776W        W41201  16.135  10.289   2.785
68777W        W41202  35.993  19.153   1.263
68778W        W41203  27.043  42.997  10.528
68779W        W41204   2.850   8.164   2.291
68780W        W41205   5.406  17.096   3.675
68781W        W41206  33.595   5.753   2.850
68782W        W41207  37.553  11.174   0.854
68783W        W41208  15.138  15.146  12.895
68784W        W41209  31.602   1.850   2.756
68785W        W41210   3.839  28.473   1.776
68786W        W41211  12.661  38.490   2.886
68787W        W41212  30.484  22.187   3.669
68788W        W41213  21.522  29.030   1.419
68789W        W41214   2.921  38.344   2.198
68790W        W41215  16.115   1.384  10.073
68791W        W41216  35.416  10.878  12.557
68792W        W41217  43.508  30.561   1.821
68793W        W41218  38.921   4.410  12.560
68794W        W41219  24.554  42.493   3.659
68795W        W41220  38.392  38.014   1.249
68796W        W41221  37.857  11.715  12.072
68797W        W41222  21.223  43.284  11.931
68798W        W41223   9.219  20.759  11.559
68799W        W41224  36.075  15.715  13.942
68800W        W41225  41.488  20.568   1.304
68801W        W41226  26.027  24.990   2.830
68802W        W41227  33.089  31.505  11.525
68803W        W41228   1.809  41.495   2.695
68804W        W41229  24.679  10.262  12.345
68805W        W41230  14.775   7.843   1.721
68806W        W41231  31.938   9.393   5.086
68807W        W41232  22.529  22.557   3.340
68808W        W41233  20.166  40.500   1.787
68809W        W41234   3.849   8.212   2.267
68810W        W41235  20.668  22.721   4.637
68811W        W41236  30.423  39.381  12.553
68812W        W41237   5.918   8.760  12.490
68813W        W41238  28.096  10.201   5.271
68814W        W41239  38.332   6.879  14.381
68815W        W41240   6.907  39.810   4.711
68816W        W41241  12.242  35.516   4.722
68817W        W41242  12.626   1.869  10.630
68818W        W41243  41.998   8.888   4.256
68819W        W41244   2.383  39.412  10.458
68820W        W41245  30.421  12.282   3.270
68821W        W41246  21.748  36.007  11.467
68822W        W41247  38.877  33.451  14.315
68823W        W41248  34.100   5.413  14.423
68824W        W41249  16.191  23.618  11.886
68825W        W41250  35.898  25.542  12.519
68826W        W41251   4.809  27.982  10.023
68827W        W41252  17.102  23.173   1.238
68828W        W41253  19.689  18.591   4.736
68829W        W41254  39.904  39.860   2.314
68830W        W41255  16.586  31.965   5.206
68831W        W41256  40.884  31.409  14.454
68832W        W41257  23.697  10.859  13.823
68833W        W41258  26.534  34.379  10.498
68834W        W41259  22.143  29.041   3.867
68835W        W41260   5.901  19.062  12.550
68836W        W41261  33.013  22.108  13.942
68837W        W41262   3.856  32.512  10.447
68838W        W41263  39.000  32.447   0.433
68839W        W41264  15.713   1.407  12.923
68840W        W41265   5.235   6.287  11.988
68841W        W41266  27.054   8.299   3.664
68842W        W41267  39.497   1.480   0.427
68843W        W41268  36.575  35.042   1.879
68844W        W41269  38.948  17.693  12.871
68845W        W41270  23.240   4.909   0.914
68846W        W41271   2.337  38.836  10.571
68847W        W41272  26.482  28.634  11.060
68848W        W41273  26.163  39.814   2.811
68849W        W41274  21.246  22.183   1.240
68850W        W41275  15.109   8.713   1.876
68851W        W41276   3.417  41.883  11.549
68852W        W41277  29.074  30.508  14.998
68853W        W41278  21.738   5.378  10.439
68854W        W41279  44.800  44.973   2.275
68855W        W41280  20.272  34.546  10.915
68856W        W41281   1.440  12.644   1.803
68857W        W41282  38.522   7.910  10.899
68858W        W41283  40.335  26.983  14.299
68859W        W41284  34.894  12.296   0.951
68860W        W41285  13.204  40.381   1.921
68861W        W41286  22.691  33.058  10.098
68862W        W41287  31.928   6.873  12.434
68863W        W41288  15.182  29.001   3.788
68864W        W41289   8.881  26.689   5.297
68865W        W41290   3.900  31.135  13.434
68866W        W41291  16.770  21.749  10.520
68867W        W41292   9.844   4.850  14.027
68868W        W41293  12.299  13.225   4.307
68869W        W41294  27.063  44.306  12.975
68870W        W41295  28.929  10.813  12.926
68871W        W41296  10.184  15.741  12.062
68872W        W41297  36.476  11.807  13.791
68873W        W41298  19.621  12.699  14.793
68874W        W41299  36.968  32.962  12.979
68875W        W41300  13.666  14.760  13.519
68876W        W41301  40.035  36.078   3.733
68877W        W41302  17.110  13.605   0.766
68878W        W41303  36.357   8.779  11.519
68879W        W41304  38.855  37.467   3.727
68880W        W41305  23.122  38.949   3.692
68881W        W41306  17.100   3.842  12.425
68882W        W41307   0.350  43.808   3.869
68883W        W41308  18.273  11.757  10.560
68884W        W41309  41.321  38.427  10.458
68885W        W41310  28.028  15.211   0.873
68886W        W41311  27.608  43.765  12.096
68887W        W41312  38.419  23.035  10.006
68888W        W41313  16.087  38.471   3.635
68889W        W41314  30.918  43.849   1.451
68890W        W41315   3.401  26.969   4.663
68891W        W41316  20.268  27.628  14.447
68892W        W41317  26.465  27.114   2.304
68893W        W41318   8.846  30.935   3.266
68894W        W41319  37.360  14.801  10.484
68895W        W41320  19.671  23.591   3.171
68896W        W41321  23.497  25.595  13.896
68897W        W41322  28.022  40.485   0.918
68898W        W41323  28.124   7.327  10.064
68899W        W41324  38.328   2.296   4.128
68900W        W41325  33.445  11.686  13.822
68901W        W41326  22.018  15.317  14.837
68902W        W41327  13.326  13.342   4.135
68903W        W41328  15.789   9.303  12.043
68904W        W41329  35.960  26.626   3.155
68905W        W41330  25.698  18.656  12.992
68906W        W41331   0.903  29.576  12.897
68907W        W41332  23.515  10.696   4.300
68908W        W41333  42.388  30.651   4.124
68909W        W41334  21.145  14.111  13.011
68910W        W41335  24.611  29.488  11.925
68911W        W41336  39.397  17.086  12.008
68912W        W41337  18.646  42.806   2.219
68913W        W41338  29.602  38.344   4.611
68914W        W41339  10.238  18.683   0.888
68915W        W41340   4.316  29.984   2.264
68916W        W41341  37.338   7.824  11.469
68917W        W41342  40.547   5.882   0.755
68918W        W41343  31.118  18.690  13.346
68919W        W41344  38.565   5.357  11.478
68920W        W41345  13.314  26.995  13.049
68921W        W41346  31.140  37.551   1.439
68922W        W41347   2.730  11.746   4.834
68923W        W41348  36.470  16.783   1.383
68924W        W41349  28.942  11.656  11.449
68925W        W41350  36.015   1.922  13.842
68926W        W41351  38.887  16.770   2.887
68927W        W41352  39.853   2.824  12.524
68928W        W41353  13.835  23.119  10.645
68929W        W41354   2.322  16.281  12.046
68930W        W41355   9.845  23.576  13.492
68931W        W41356  32.048   4.292   2.303
68932W        W41357  10.795  29.972   0.779
68933W        W41358  31.973  11.690  10.419
68934W        W41359  41.029  34.528  11.019
68935W        W41360  30.038  25.203   0.857
68936W        W41361  18.685  34.952  13.907
68937W        W41362   6.885   0.796   2.257
68938W        W41363  14.303  31.974  10.517
68939W        W41364  11.238  43.768   1.213
68940W        W41365  35.071  24.136   0.833
68941W        W41366  14.114  20.165  14.291
68942W        W41367   7.752  37.365   2.311
68943W        W41368   9.719  32.989  10.987
68944W        W41369   6.268  42.808   1.258
68945W        W41370  33.946  33.960  13.833
68946W        W41371  17.669  15.189  11.424
68947W        W41372  30.629  28.083   4.289
68948W        W41373  31.401  14.202  10.551
68949W        W41374  39.343  33.117  12.555
68950W        W41375  26.034   2.746   4.116
68951W        W41376  27.091  29.102  14.985
68952W        W41377  42.796  28.995   2.699
68953W        W41378  34.972  21.116   4.656
68954W        W41379  12.175   4.831  11.087
68955W        W41380  37.028  27.139   3.706
68956W        W41381  14.193  19.574   2.282
68957W        W41382   3.755  14.592  11.538
68958W        W41383   8.767  16.228   0.790
68959W        W41384   6.390  42.436  13.458
68960W        W41385  44.485  27.131  14.476
68961W        W41386  19.168   1.950   2.197
68962W        W41387  10.877  21.705  14.827
68963W        W41388  24.154   1.763  13.818
68964W        W41389   8.680  11.349  14.316
68965W        W41390  34.951  23.726  13.893
68966W        W41391  25.998  39.955   4.302
68967W        W41392  36.098  24.501   3.347
68968W        W41393   3.737  30.115   1.284
68969W        W41394  33.516  12.797  14.003
68970W        W41395  44.883  29.081   2.902
68971W        W41396  16.659   8.214  10.420
68972W        W41397  18.744  43.775   2.301
68973W        W41398  14.209  31.082   0.307
68974W        W41399  37.541  41.482  10.499
68975W        W41400  13.751  24.682  12.936
68976W        W41401  19.070  21.164   0.415
68977W        W41402   6.864  17.783   2.210
68978W        W41403   7.329  16.295  12.095
68979W        W41404   0.462   5.839  12.084
68980W        W41405  32.894   0.478   1.324
68981W        W41406  24.559  32.586   1.301
68982W        W41407  24.479  14.675  13.816
68983W        W41408   6.878  17.155   0.825
68984W        W41409  39.412  43.017  14.805
68985W        W41410   5.193  16.684  10.427
68986W        W41411   6.344  19.200  10.595
68987W        W41412  39.413   8.326  12.086
68988W        W41413   7.853  12.136   0.369
68989W        W41414  22.694  30.993  11.558
68990W        W41415  34.556  29.141  14.821
68991W        W41416  38.512  25.067   0.311
68992W        W41417  26.608  44.971   1.846
68993W        W41418  22.151  28.186  13.401
68994W        W41419  44.461  25.087   4.252
68995W        W41420  32.093  13.340  14.293
68996W        W41421   7.232   9.249   2.722
68997W        W41422  30.491  35.369   3.281
68998W        W41423  18.277  14.676   4.166
68999W        W41424  16.084   2.966   3.656
69000W        W41425  25.498  14.249  12.059
69001W        W41426  22.241  33.966   1.322
69002W        W41427   2.266   7.686   0.948
69003W        W41428  21.686  29.609   4.331
69004W        W41429  16.141  23.520   2.288
69005W        W41430  26.102  12.245   4.663
69006W        W41431  44.490  31.974  13.494
69007W        W41432  31.561   7.351   2.228
69008W        W41433  37.049   2.830  11.857
69009W        W41434  17.592  35.489  13.002
69010W        W41435  33.114  37.870   4.669
69011W        W41436  36.526   3.855   2.763
69012W        W41437  39.364  28.991  11.549
69013W        W41438  39.828  35.057  10.567
69014W        W41439   5.387  27.645   3.661
69015W        W41440  30.532  28.560  13.384
69016W        W41441  29.969  44.924   0.450
69017W        W41442  15.779   5.780  14.447
69018W        W41443  37.925  38.566  11.503
69019W        W41444  32.078  22.214   4.748
69020W        W41445  28.540  29.481  10.953
69021W        W41446  23.138  12.185   1.443
69022W        W41447   0.452  34.372  10.897
69023W        W41448  28.592  33.404   3.730
69024W        W41449  28.010  36.031  10.128
69025W        W41450  35.901  38.920   1.815
69026W        W41451  15.720  24.148  12.986
69027W        W41452  31.546  17.287   3.755
69028W        W41453  16.743  44.967  10.598
69029W        W41454   6.239  38.329  11.405
69030W        W41455  42.819   4.763  14.332
69031W        W41456  11.661  30.038  12.950
69032W        W41457   9.288  12.139  14.912
69033W        W41458  42.022  11.216  12.024
69034W        W41459  34.386   5.205   1.232
69035W        W41460  10.242  31.612   3.247
69036W        W41461  15.594  21.193  10.629
69037W        W41462  14.234  20.134   0.919
69038W        W41463  26.538  20.206  12.507
69039W        W41464   9.850  28.158   0.836
69040W        W41465   0.264  23.037  13.378
69041W        W41466   6.847  36.089   9.990
69042W        W41467  28.584  21.534   0.356
69043W        W41468   1.461  25.501   2.305
69044W        W41469  14.833  39.460   0.305
69045W        W41470  20.036  21.201  12.853
69046W        W41471  37.912   1.826   3.633
69047W        W41472  31.648  16.222  13.381
69048W        W41473  28.561  20.609   3.805
69049W        W41474  34.542   0.837   2.218
69050W        W41475  24.039  17.209   0.266
69051W        W41476   5.832   8.864   2.299
69052W        W41477  28.497  16.305  14.288
69053W        W41478  33.060  18.628   5.712
69054W        W41479  41.489  18.778  14.986
69055W        W41480   1.450  29.023  10.588
69056W        W41481  16.765   6.233   1.783
69057W        W41482  38.349  27.564  12.059
69058W        W41483  14.300   7.318  10.563
69059W        W41484  15.763  27.567  11.127
69060W        W41485  24.044  44.784   4.833
69061W        W41486  13.196  11.651  10.147
69062W        W41487  30.478  24.981   2.835
69063W        W41488   8.227  14.701   3.688
69064W        W41489   6.740  41.860  11.093
69065W        W41490  20.582  26.970  12.889
69066W        W41491  35.926   6.420   4.822
69067W        W41492  22.231   8.267  12.855
69068W        W41493  21.628  21.072  11.535
69069W        W41494   1.427  43.386   2.758
69070W        W41495  44.455  34.376  14.911
69071W        W41496  19.100  33.506  14.465
69072W        W41497  30.953  34.022   3.818
69073W        W41498  11.309  35.432  12.496
69074W        W41499   7.754  24.495   4.751
69075W        W41500  28.632  26.101   2.676
69076W        W41501   7.701  27.595   1.769
69077W        W41502  15.326  18.582  11.037
69078W        W41503  12.695  17.571  14.466
69079W        W41504  18.686  31.953   0.475
69080W        W41505  16.106  26.133   1.805
69081W        W41506  25.963  21.118   2.285
69082W        W41507  19.043  37.984  14.022
69083W        W41508  40.528  13.200   0.400
69084W        W41509  39.425  37.059  12.878
69085W        W41510  35.410  23.176   2.875
69086W        W41511   1.953  25.098   2.388
69087W        W41512  32.944  13.226  11.380
69088W        W41513  35.046  15.769   3.738
69089W        W41514  36.500   3.329   5.229
69090W        W41515  31.507   2.456  14.825
69091W        W41516  21.600  28.486   1.285
69092W        W41517  31.434  17.131  10.583
69093W        W41518  30.420  42.358   2.744
69094W        W41519  41.015  24.724  11.463
69095W        W41520  33.469  21.554  10.468
69096W        W41521  20.572   6.872   3.801
69097W        W41522  25.604  19.283   4.635
69098W        W41523  38.492  20.196  13.311
69099W        W41524   9.378   5.344  14.362
69100W        W41525  18.669  29.540   0.755
69101W        W41526  11.690  40.985  13.980
69102W        W41527   3.434  30.601   1.443
69103W        W41528  38.896  27.681  10.602
69104W        W41529  39.373   2.895   2.873
69105W        W41530  36.039  35.032   2.227
69106W        W41531  44.267  35.558  14.845
69107W        W41532  35.581   9.750  14.860
69108W        W41533  27.527   9.205   3.161
69109W        W41534  13.173  30.110   1.397
69110W        W41535  43.015   2.327   4.250
69111W        W41536   0.361  44.892  12.367
69112W        W41537  34.476  11.155   4.648
69113W        W41538  29.461  32.142  14.307
69114W        W41539  25.501  34.878  12.887
69115W        W41540   3.363  36.526   3.154
69116W        W41541  28.509   4.734   0.388
69117W        W41542  42.002   3.827   3.314
69118W        W41543  21.536   8.676   3.803
69119W        W41544  22.687  20.073  14.511
69120W        W41545  19.183   5.260   3.770
69121W        W41546  14.642  20.206  10.504
69122W        W41547  28.482  21.257   4.197
69123W        W41548  27.642  15.154  13.792
69124W        W41549  20.091   9.194  10.541
69125W        W41550  44.922  21.056   0.445
69126W        W41551  29.609  16.722   9.944
69127W        W41552   8.203  37.363  13.869
69128W        W41553  34.970   2.788  14.401
69129W        W41554  27.055  41.789   0.348
69130W        W41555   9.318  17.677   4.597
69131W        W41556  16.704   5.419   2.221
69132W        W41557  43.283  32.548  12.011
69133W        W41558  13.175  13.135  11.866
69134W        W41559  41.888  34.372   4.829
69135W        W41560  43.962   0.929   0.933
69136W        W41561   3.375  32.482  14.865
69137W        W41562  11.222  43.814   2.337
69138W        W41563  44.758  30.927   1.853
69139W        W41564  13.332  22.218   4.619
69140W        W41565  23.141  11.292   5.123
69141W        W41566  32.937   5.312  14.875
69142W        W41567   3.906  24.977   3.383
69143W        W41568  24.693   7.392   3.657
69144W        W41569  13.311  28.970  14.374
69145W        W41570  12.299  33.042  11.510
69146W        W41571   4.427  40.463   2.343
69147W        W41572  22.558  36.355  13.979
69148W        W41573  43.390  12.657   3.631
69149W        W41574   0.911  38.333   1.865
69150W        W41575  21.099  22.211  11.548
69151W        W41576   9.302  39.049   1.771
69152W        W41577   8.881  16.133   2.697
69153W        W41578  40.517   5.737   4.152
69154W        W41579   4.788  27.587  12.568
69155W        W41580   4.254  42.336  14.785
69156W        W41581  43.479  32.021   0.397
69157W        W41582  35.050  24.625  10.967
69158W        W41583  15.671   1.913  12.396
69159W        W41584  30.026  20.528  11.445
69160W        W41585  32.563  29.140  12.996
69161W        W41586  22.703  19.120   0.342
69162W        W41587   1.945  13.323   2.349
69163W        W41588  43.364   4.409   2.682
69164W        W41589  42.944  24.049  12.881
69165W        W41590  36.855  37.564  11.573
69166W        W41591  20.180  23.678   3.820
69167W        W41592   9.887   4.395  11.980
69168W        W41593  17.746  17.639   2.707
69169W        W41594  33.511  14.687   0.836
69170W        W41595  11.271  19.120   3.275
69171W        W41596  26.954   4.765   4.257
69172W        W41597   8.765  15.147   3.155
69173W        W41598  43.951  35.089   3.720
69174W        W41599  37.844  14.125  10.507
69175W        W41600   5.736   9.302   3.728
69176W        W41601  24.002  10.685  13.462
69177W        W41602  18.693  32.922  12.489
69178W        W41603  44.416   1.898  13.394
69179W        W41604  14.768  11.751  10.902
69180W        W41605  19.734  37.408  13.421
69181W        W41606  17.204  35.407   1.912
69182W        W41607  36.930  11.203   2.735
69183W        W41608   1.759  10.282  10.405
69184W        W41609  15.226   1.748  14.403
69185W        W41610  21.647  10.862   0.331
69186W        W41611  23.615  23.499  14.008
69187W        W41612   5.425  18.293   1.359
69188W        W41613  21.057  16.781   4.228
69189W        W41614  28.983  10.727   1.300
69190W        W41615  38.833  32.457  10.993
69191W        W41616  44.375  43.774  12.886
69192W        W41617  12.829  19.042  13.958
69193W        W41618  43.828  22.208  10.617
69194W        W41619  22.223  42.284   1.445
69195W        W41620  23.053  19.646   3.773
69196W        W41621  24.976   6.307  13.486
69197W        W41622  15.299  33.417   3.314
69198W        W41623   4.776  42.834   3.776
69199W        W41624   7.413   1.291  14.464
69200W        W41625  33.015  37.348  14.822
69201W        W41626  36.076  40.970  13.396
69202W        W41627  24.092  23.607  13.879
69203W        W41628   5.752  34.083   3.684
69204W        W41629   2.237  10.802  12.575
69205W        W41630  32.906  24.130  12.475
69206W        W41631   1.266   9.356  13.038
69207W        W41632   2.781  39.055  11.911
69208W        W41633  41.427  41.912  13.410
69209W        W41634  19.578  16.697  12.057
69210W        W41635  17.622  16.302   0.454
69211W        W41636  21.068   4.372  12.895
69212W        W41637  31.942  19.100   5.318
69213W        W41638   3.366  40.549  13.902
69214W        W41639  27.193  25.202  12.430
69215W        W41640  25.691  29.470   3.323
69216W        W41641  42.814  32.980   4.260
69217W        W41642  43.276  11.857   4.824
69218W        W41643  34.492  38.063   3.759
69219W        W41644  12.724  31.560   3.149
69220W        W41645   9.832  20.562   4.147
69221W        W41646   6.786  30.536  14.799
69222W        W41647  13.814  12.236  11.049
69223W        W41648  38.957  23.665  10.931
69224W        W41649  25.677  35.467   2.258
69225W        W41650  13.174  18.078  14.965
69226W        W41651  21.561   5.267   4.816
69227W        W41652  16.110  30.600   0.339
69228W        W41653  17.111  12.225  11.922
69229W        W41654  10.755   1.769  13.915
69230W        W41655   0.399  40.021   0.765
69231W        W41656  31.413  30.643  12.880
69232W        W41657  31.459  10.834   3.173
69233W        W41658   2.810  14.748  11.126
69234W        W41659   5.193  37.505   4.761
69235W        W41660  37.507  38.852   4.670
69236W        W41661  36.977  43.380   4.828
69237W        W41662  38.986   7.784  11.443
69238W        W41663  29.560  11.213   4.815
69239W        W41664  39.979  14.271   4.342
69240W        W41665   6.323  15.689  11.970
69241W        W41666  26.040  19.720   4.752
69242W        W41667  34.942  18.761   4.215
69243W        W41668  14.330  10.796   0.752
69244W        W41669  25.097  26.053   0.913
69245W        W41670  42.776  35.877  11.597
69246W        W41671  22.087  42.503  13.332
69247W        W41672  34.569  26.982  12.838
69248W        W41673  39.049   5.862   3.260
69249W        W41674   6.391   3.813   3.759
69250W        W41675  11.357  19.113  13.892
69251W        W41676  33.886  38.542  11.544
69252W        W41677  42.366  35.941   4.169
69253W        W41678   6.716  10.794  14.925
69254W        W41679  31.567  43.019  12.419
69255W        W41680  22.085  30.094  14.870
69256W        W41681  42.386  20.575   0.286
69257W        W41682  10.685  27.571  11.071
69258W        W41683  43.824  12.124  13.853
69259W        W41684  41.033  39.926   3.773
69260W        W41685   5.265  22.049  12.412
69261W        W41686   7.363  27.539   3.761
69262W        W41687   7.342  22.112  12.426
69263W        W41688  26.996  36.909  13.003
69264W        W41689  19.156  11.779  12.401
69265W        W41690  11.218  35.449   4.180
69266W        W41691  12.225  27.034   4.252
69267W        W41692  18.156  22.167  12.950
69268W        W41693  11.301  31.542  11.900
69269W        W41694  40.458  29.493   1.867
69270W        W41695  28.644  15.213   0.284
69271W        W41696  39.850  36.914   2.300
69272W        W41697  31.049  34.437  13.438
69273W        W41698  32.490  37.345  12.899
69274W        W41699   5.815   1.745  10.620
69275W        W41700  31.404  25.644  11.079
69276W        W41701  32.899   8.348  12.026
69277W        W41702  30.567  36.064  11.448
69278W        W41703  37.886  19.040  12.939
69279W        W41704   7.248  31.110   3.633
69280W        W41705  31.449  18.676  13.468
69281W        W41706  12.725   3.735   2.416
69282W        W41707  10.360  12.625  14.440
69283W        W41708  42.836  31.633  14.977
69284W        W41709  22.659   4.228  11.077
69285W        W41710   4.834  20.647   1.230
69286W        W41711  43.844  44.434  12.934
69287W        W41712  28.977   8.349  14.425
69288W        W41713   3.851  27.966   0.404
69289W        W41714  13.276  37.465   0.268
69290W        W41715  37.522  33.598   5.100
69291W        W41716  29.451  42.806   1.420
69292W        W41717   8.380  25.025  13.050
69293W        W41718  17.073   3.916  14.310
69294W        W41719  37.514  37.872   4.602
69295W        W41720  11.628   0.804  11.963
69296W        W41721  40.936  24.660  14.365
69297W        W41722   3.853  37.555   1.307
69298W        W41723  33.098   2.900  14.830
69299W        W41724   1.732   2.839  12.382
69300W        W41725  14.765  27.060   3.358
69301W        W41726   8.388  15.260  14.419
69302W        W41727  35.922   2.428   1.390
69303W        W41728  26.700  24.678   1.902
69304W        W41729  38.038  42.957   0.269
69305W        W41730  27.658  23.066  13.398
69306W        W41731  36.953  32.607   0.269
69307W        W41732  37.495  24.127   3.729
69308W        W41733  43.783  28.443  11.950
69309W        W41734   2.431  21.148  11.067
69310W        W41735  16.792  35.107   4.282
69311W        W41736  18.574  33.554  11.882
69312W        W41737  30.934  43.451  11.373
69313W        W41738  39.900  24.538   3.150
69314W        W41739   7.294   7.218  13.423
69315W        W41740   4.370  16.284   2.377
69316W        W41741  40.512  25.690   2.854
69317W        W41742  17.700  33.620   0.789
69318W        W41743  39.956  27.500   2.355
69319W        W41744  14.650  33.909  13.377
69320W        W41745  36.030   0.964  10.890
69321W        W41746   9.814  30.073  14.808
69322W        W41747  24.673  15.665   1.823
69323W        W41748  41.927   6.416   2.754
69324W        W41749   7.682  38.329   9.936
69325W        W41750  17.190  10.690   4.197
69326W        W41751   3.383   4.386  10.085
69327W        W41752  39.329  24.019  12.382
69328W        W41753   3.391  36.453   5.231
69329W        W41754  17.636  24.178  11.513
69330W        W41755  43.346   6.423  14.961
69331W        W41756  22.064   5.371   2.870
69332W        W41757   7.715  29.648  14.762
69333W        W41758  10.837  27.485   3.808
69334W        W41759  34.093  11.254   0.839
69335W        W41760  34.459   5.921  14.397
69336W        W41761  20.527  41.379  14.783
69337W        W41762  11.818  26.053  12.506
69338W        W41763   2.901  40.431  14.501
69339W        W41764  23.060   6.702   3.729
69340W        W41765  11.861  11.785   5.299
69341W        W41766   6.364  24.574  10.448
69342W        W41767  18.236   3.380  10.624
69343W        W41768  24.704  29.174   2.371
69344W        W41769  22.620  28.594  12.387
69345W        W41770  40.492   5.741   0.259
69346W        W41771   4.872   7.909  12.955
69347W        W41772  34.097  16.733  11.398
69348W        W41773  13.633  33.459  13.890
69349W        W41774  25.659   2.310  11.595
69350W        W41775   0.384   6.405  12.386
69351W        W41776  10.680  37.337   1.261
69352W        W41777   9.307  17.571  13.432
69353W        W41778   5.697   6.877   3.772
69354W        W41779   4.780   9.834   4.242
69355W        W41780  38.988  31.005  11.867
69356W        W41781  43.947   2.280   2.796
69357W        W41782   8.699  12.808  10.588
69358W        W41783  33.513  30.081   3.222
69359W        W41784  20.558  22.618  12.469
69360W        W41785  18.631  32.419   2.389
69361W        W41786  26.116   8.890  13.901
69362W        W41787  40.025  13.159  12.051
69363W        W41788  18.138   0.276  13.424
69364W        W41789  10.300  21.029  11.569
69365W        W41790   2.335  10.192   0.770
69366W        W41791  38.367   8.198   2.714
69367W        W41792   9.307   1.963   5.247
69368W        W41793  22.141  31.950   5.224
69369W        W41794  15.689  37.856   3.630
69370W        W41795  24.121  12.120  12.440
69371W        W41796   6.785  32.549   2.267
69372W        W41797  11.627   4.879  13.815
69373W        W41798  36.914  41.454  11.907
69374W        W41799  20.755  32.544   0.944
69375W        W41800   8.786   0.382   2.251
69376W        W41801  35.036  37.970   2.399
69377W        W41802  33.968  29.561   0.808
69378W        W41803  44.886   3.284   4.615
69379W        W41804  23.610   6.295   1.770
69380W        W41805  10.706  28.945  14.800
69381W        W41806  37.857  23.058   2.855
69382W        W41807  42.404  12.178  12.923
69383W        W41808  36.552  32.514  11.884
69384W        W41809  29.010  17.232   3.658
69385W        W41810  14.252  26.547  12.447
69386W        W41811  29.990  23.625   4.652
69387W        W41812  16.659  37.490  14.508
69388W        W41813   3.823  12.296   0.826
69389W        W41814  36.522  41.824  11.081
69390W        W41815  22.731  23.045   3.718
69391W        W41816  38.455   3.779  10.420
69392W        W41817  18.258   5.401   4.136
69393W        W41818  28.170  33.946   2.241
69394W        W41819  29.962  29.976  14.354
69395W        W41820   8.270   1.966   1.224
69396W        W41821   9.672   9.248   0.257
69397W        W41822  32.619   4.242   3.183
69398W        W41823  22.565  34.863   1.712
69399W        W41824  43.793  13.654  12.527
69400W        W41825  28.056  33.029   1.796
69401W        W41826  28.033  43.826  10.983
69402W        W41827  25.082  41.347   2.742
69403W        W41828   3.781  21.063   5.218
69404W        W41829  13.288  41.513   5.161
69405W        W41830  12.220  32.935  10.900
69406W        W41831  33.609  43.996  11.516
69407W        W41832   1.956  34.881   4.122
69408W        W41833  18.716  33.958   2.898
69409W        W41834  32.447  22.696   0.336
69410W        W41835  20.259  12.745   2.695
69411W        W41836  16.222  30.029  11.929
69412W        W41837  35.404  41.332  12.357
69413W        W41838   7.214   1.754  13.012
69414W        W41839   5.353  29.030  14.013
69415W        W41840  35.430  21.242   3.284
69416W        W41841  13.826  42.947   4.156
69417W        W41842  33.080  21.589   0.851
69418W        W41843  18.207  38.941   3.821
69419W        W41844  20.203  17.601   1.738
69420W        W41845   7.411  23.043  12.579
69421W        W41846   7.234  26.486   3.363
69422W        W41847  23.560  11.269  13.899
69423W        W41848  36.513  17.179   0.421
69424W        W41849  29.506  28.940   3.853
69425W        W41850  31.104   1.474  10.601
69426W        W41851  42.418  34.897  13.334
69427W        W41852  14.742   2.753  11.473
69428W        W41853  23.693  12.350   3.846
69429W        W41854  44.794  43.867  12.999
69430W        W41855  25.705  11.636  14.945
69431W        W41856  10.372  22.065  12.087
69432W        W41857  31.439  19.279  11.074
69433W        W41858   0.268  37.540   0.451
69434W        W41859  41.419  18.653   0.792
69435W        W41860  14.727  36.561   1.415
69436W        W41861  31.939  44.397   3.860
69437W        W41862  32.000   8.353  12.515
69438W        W41863   2.874  32.033   0.908
69439W        W41864  25.480  29.940   3.333
69440W        W41865  16.646   5.272  12.882
69441W        W41866  10.306   8.803  12.470
69442W        W41867   6.266  35.972   3.166
69443W        W41868  14.623   8.368   4.830
69444W        W41869   0.483  42.994  13.518
69445W        W41870  34.100  38.946   2.763
69446W        W41871  22.204  13.160  10.464
69447W        W41872  14.608  23.155   2.328
69448W        W41873   9.345  10.839   3.768
69449W        W41874   1.462  22.613  11.411
69450W        W41875   4.246  40.333  12.939
69451W        W41876  35.583  37.368   2.338
69452W        W41877  23.175  24.223   2.181
69453W        W41878   7.673   1.338   4.209
69454W        W41879  27.168   0.412  11.508
69455W        W41880  40.938  43.845   1.719
69456W        W41881  43.787  38.906   1.720
69457W        W41882  33.889  34.879  10.945
69458W        W41883  11.774  24.546   2.284
69459W        W41884  37.856  33.401   1.266
69460W        W41885  23.676  31.059   4.148
69461W        W41886  38.398  39.479   3.307
69462W        W41887  30.912  32.584  13.888
69463W        W41888  40.487  38.350   0.329
69464W        W41889   1.904  19.231   3.312
69465W        W41890   2.363   7.720  11.436
69466W        W41891   7.830  43.325  14.778
69467W        W41892   7.888  31.920   5.137
69468W        W41893  14.789  37.949   0.452
69469W        W41894  17.252  23.695   9.940
69470W        W41895   7.352  24.584   4.655
69471W        W41896  30.520  21.755   3.242
69472W        W41897  40.495  29.563   0.322
69473W        W41898  39.978  29.056  14.796
69474W        W41899  25.117  35.540  13.792
69475W        W41900  25.983   8.681   3.635
69476W        W41901   0.776   9.163   2.783
69477W        W41902  23.087  22.028  11.403
69478W        W41903  16.804  36.087   1.345
69479W        W41904   3.890  41.813  12.365
69480W        W41905   5.299   4.223   3.729
69481W        W41906  12.782  11.821  12.545
69482W        W41907  22.084  22.067  13.409
69483W        W41908  24.052  28.607   0.905
69484W        W41909  15.761   6.920   4.119
69485W        W41910  40.019  27.098  13.841
69486W        W41911  40.950  20.049   1.235
69487W        W41912   5.879  21.083   4.192
69488W        W41913  24.686  34.863  13.900
69489W        W41914  23.108  38.540   3.378
69490W        W41915  20.150  29.442  11.031
69491W        W41916  22.736   5.391  10.539
69492W        W41917  37.534  20.752  13.524
69493W        W41918  18.207   2.426   1.318
69494W        W41919  36.056  33.127  13.386
69495W        W41920  31.092   3.386   0.459
69496W        W41921  28.554  23.586   4.714
69497W        W41922   0.302  43.966  10.575
69498W        W41923  12.342  16.133  12.947
69499W        W41924  21.246  23.996  12.095
69500W        W41925  24.493  30.114  12.569
69501W        W41926   1.810  42.014   0.919
69502W        W41927  32.477  43.420  10.628
69503W        W41928  31.435  33.914  10.902
69504W        W41929  28.147  33.947  10.899
69505W        W41930  24.160  31.982   5.191
69506W        W41931  44.930  41.017  11.485
69507W        W41932  33.424  16.220  12.570
69508W        W41933  38.070  36.371   3.805
69509W        W41934  19.780   4.250  10.976
69510W        W41935  34.419  24.086  12.078
69511W        W41936  11.774   6.730   4.253
69512W        W41937  23.673  11.164   9.618
69513W        W41938  43.764  29.089  13.481
69514W        W41939   5.833   6.877   4.786
69515W        W41940  16.256  29.980   4.602
69516W        W41941   1.832  37.837   4.614
69517W        W41942   4.424  36.022  13.368
69518W        W41943  31.599   1.920  13.808
69519W        W41944  23.114  33.084   0.320
69520W        W41945  36.945  21.513  13.543
69521W        W41946   6.843   2.376  13.322
69522W        W41947  40.448   4.701   3.210
69523W        W41948  35.596  33.879   0.296
69524W        W41949  34.549  14.784   3.250
69525W        W41950  21.695  41.803  13.802
69526W        W41951  23.031  39.430   0.300
69527W        W41952  27.459  17.676  13.342
69528W        W41953   3.780  42.896   3.839
69529W        W41954  18.243  17.584  12.420
69530W        W41955  16.265  38.871  12.006
69531W        W41956  32.112   9.813   4.353
69532W        W41957   5.310  37.865   2.674
69533W        W41958   6.405   2.826  13.825
69534W        W41959  18.723  27.473  14.892
69535W        W41960   6.202   7.902   1.856
69536W        W41961  37.941  35.563  13.324
69537W        W41962  17.086  17.626  13.420
69538W        W41963  31.043  33.875   1.369
69539W        W41964  11.224  18.079  14.480
69540W        W41965   8.200  25.157   4.820
69541W        W41966  42.013  34.579   1.762
69542W        W41967  17.622   2.965   3.771
69543W        W41968  33.031   4.796  13.803
69544W        W41969   4.941  35.025   2.802
69545W        W41970  20.243  13.671   3.736
69546W        W41971  17.768  19.075   1.317
69547W        W41972  41.394  20.067  13.401
69548W        W41973  16.770  22.699  14.408
69549W        W41974   2.933  34.558  13.854
69550W        W41975   1.453  15.802  11.591
69551W        W41976  14.802  11.316   2.245
69552W        W41977  36.392  22.658   4.288
69553W        W41978  25.611  24.198   2.380
69554W        W41979  21.060  16.216  13.488
69555W        W41980  25.636  28.953   1.822
69556W        W41981  19.057  34.452  12.883
69557W        W41982  26.992   7.724   2.177
69558W        W41983  32.613   6.798   2.269
69559W        W41984   8.719  18.554  14.321
69560W        W41985  23.660  21.243  10.515
69561W        W41986   8.761  42.922  11.055
69562W        W41987   8.375  33.061  13.016
69563W        W41988  32.542   6.251   2.231
69564W        W41989   7.310   8.827   4.775
69565W        W41990  39.055  41.033   4.153
69566W        W41991  35.097  10.791   4.233
69567W        W41992  22.105  24.190   0.269
69568W        W41993   3.233  33.562   1.250
69569W        W41994  22.032  17.166  14.393
69570W        W41995  17.649  27.541   2.413
69571W        W41996  44.896  30.466   0.847
69572W        W41997  20.685  38.489   1.735
69573W        W41998  32.394   3.813   3.210
69574W        W41999   8.394  36.012  12.909
69575W        W42000  21.141   9.328   0.802
69576W        W42001  38.825  39.043  11.975
69577W        W42002  20.272  41.881   1.414
69578W        W42003   7.275  20.561  13.418
69579W        W42004  18.161  10.835  11.394
69580W        W42005   2.727  16.598  12.920
69581W        W42006  26.159  32.635   4.820
69582W        W42007  12.727  20.186  10.449
69583W        W42008  18.207   7.241  14.850
69584W        W42009  12.839  15.233  14.381
69585W        W42010  15.100  34.604  12.555
69586W        W42011  36.381  22.508   4.807
69587W        W42012  34.464   1.822  13.036
69588W        W42013  40.905  12.334  12.437
69589W        W42014  32.916  38.524  13.953
69590W        W42015  39.527  37.544   1.726
69591W        W42016  32.625  30.511  13.982
69592W        W42017  31.572  17.176   4.346
69593W        W42018  21.096  39.356  13.363
69594W        W42019   8.395  37.038   5.277
69595W        W42020  39.996  20.535  10.887
69596W        W42021  16.225  26.680  13.472
69597W        W42022  10.735  25.196   3.845
69598W        W42023  39.888   1.481   2.726
69599W        W42024  21.199  34.572  12.834
69600W        W42025  11.685  14.605  13.046
69601W        W42026   5.825  28.514  12.406
69602W        W42027  28.992  18.591  11.899
69603W        W42028  36.951  25.585   2.896
69604W        W42029   1.360  24.978   0.773
69605W        W42030  11.669  35.547  13.965
69606W        W42031  19.245  27.189  14.007
69607W        W42032  15.707   2.365  14.366
69608W        W42033  12.173  11.308  13.484
69609W        W42034  35.056  24.163   2.760
69610W        W42035  42.470   4.762   0.391
69611W        W42036  34.866  10.234  13.046
69612W        W42037  28.026  14.795   0.900
69613W        W42038  33.624  33.045  10.133
69614W        W42039  15.280  22.166  11.909
69615W        W42040   1.769  38.038  13.514
69616W        W42041  40.431  24.655  14.954
69617W        W42042  12.253  21.174   4.760
69618W        W42043   3.928  26.596   2.756
69619W        W42044  24.567  13.703   1.881
69620W        W42045  39.929  20.724  12.922
69621W        W42046   3.928  10.698   2.808
69622W        W42047   3.866  33.115   4.697
69623W        W42048   0.889   2.925   1.778
69624W        W42049  24.538  15.262   2.335
69625W        W42050  43.916  14.277   0.271
69626W        W42051   3.425  17.665   1.780
69627W        W42052  29.467  31.535   1.901
69628W        W42053   4.740  31.452  14.362
69629W        W42054  31.414  38.488   4.696
69630W        W42055  43.306  24.010   0.384
69631W        W42056   2.905  21.107   2.205
69632W        W42057  19.593  32.524  11.488
69633W        W42058  43.461  26.008  13.931
69634W        W42059  35.930  14.157  14.808
69635W        W42060   6.852  16.685  13.439
69636W        W42061  31.036  16.806   1.238
69637W        W42062   1.743  37.367   1.814
69638W        W42063  40.035  29.443   3.244
69639W        W42064  36.461  27.095  11.042
69640W        W42065  22.678  43.789  11.423
69641W        W42066  43.473   5.757  14.311
69642W        W42067   2.351  25.052  11.940
69643W        W42068  37.052  38.464  13.932
69644W        W42069  21.513  11.251   1.901
69645W        W42070  26.539   6.189  12.547
69646W        W42071  34.880  42.513  11.094
69647W        W42072   7.882  30.070  13.429
69648W        W42073  36.495  22.244  13.040
69649W        W42074  10.667  17.283   2.674
69650W        W42075  40.916  18.098   4.673
69651W        W42076  34.369  23.040   2.844
69652W        W42077   7.382  36.376  13.972
69653W        W42078   9.708   3.381   2.356
69654W        W42079  11.216  33.131   0.366
69655W        W42080  28.082  12.706  12.351
69656W        W42081  11.641  29.078  14.846
69657W        W42082   4.449  11.289   0.858
69658W        W42083  16.075  32.436  11.964
69659W        W42084  43.450   6.876  13.378
69660W        W42085  22.107  29.918   1.316
69661W        W42086  34.425  12.730  11.109
69662W        W42087  19.247  27.624  11.476
69663W        W42088   6.248  24.999   5.243
69664W        W42089   7.191  12.335  13.476
69665W        W42090  14.121  22.706  14.857
69666W        W42091  14.209  42.365  12.863
69667W        W42092  40.816  33.523   3.838
69668W        W42093   4.804  41.503   2.366
69669W        W42094  32.972  19.093   9.998
69670W        W42095  40.857  19.747   2.357
69671W        W42096  27.030  43.847  12.361
69672W        W42097  19.210  36.907   1.301
69673W        W42098   0.929   7.822  13.044
69674W        W42099  11.788   8.259  11.882
69675W        W42100  22.203  18.650   4.196
69676W        W42101  26.576   3.332  12.480
69677W        W42102  26.701   4.271   0.950
69678W        W42103  43.835  33.527  11.939
69679W        W42104  21.161  18.742  12.364
69680W        W42105  18.112   9.732  12.539
69681W        W42106  38.327  38.408   3.640
69682W        W42107  35.514  11.625   4.298
69683W        W42108  26.538  39.427   1.434
69684W        W42109  22.077   3.787  12.965
69685W        W42110  14.732  17.780   2.833
69686W        W42111  38.021   2.789  14.892
69687W        W42112  39.957  37.524   4.627
69688W        W42113  41.310   0.264   2.213
69689W        W42114  26.621  28.101  11.914
69690W        W42115  19.168  37.478  12.433
69691W        W42116  19.175  44.458   4.323
69692W        W42117  12.811  44.281  12.998
69693W        W42118  14.641  19.673  12.850
69694W        W42119  35.040  17.802  10.642
69695W        W42120  41.975  16.660   4.183
69696W        W42121  32.420   8.728  13.895
69697W        W42122   9.827  11.222  13.956
69698W        W42123  10.712  23.055   2.365
69699W        W42124  36.451  32.134   4.322
69700W        W42125  30.012  29.599  12.377
69701W        W42126  29.481  37.954  10.894
69702W        W42127  43.437  36.871   3.789
69703W        W42128  25.610  18.184   2.181
69704W        W42129  37.940  18.252   0.362
69705W        W42130  12.118  20.626   0.857
69706W        W42131   4.376  38.433   1.737
69707W        W42132  11.668   3.309   4.734
69708W        W42133  11.664   3.246  13.004
69709W        W42134  33.420  12.296  14.337
69710W        W42135  11.342  17.627   1.258
69711W        W42136  11.662  34.548  14.814
69712W        W42137  21.529  37.449  10.941
69713W        W42138  24.723  19.121   0.348
69714W        W42139   6.390  26.039   2.391
69715W        W42140   1.890  26.591   2.222
69716W        W42141  23.077  43.516   0.797
69717W        W42142   3.756   0.278  12.066
69718W        W42143  22.739   1.337   0.825
69719W        W42144  23.506  33.055   1.846
69720W        W42145   9.251  37.841   1.699
69721W        W42146  13.811  28.946  13.861
69722W        W42147  20.214  33.449   3.286
69723W        W42148  27.942  30.144   2.334
69724W        W42149  21.712  37.871  12.548
69725W        W42150  15.211  28.166  13.874
69726W        W42151  31.031   3.713  12.443
69727W        W42152  14.783   7.803   2.810
69728W        W42153  12.191  31.980   1.352
69729W        W42154   4.882   9.804  13.452
69730W        W42155   6.686  11.662   4.144
69731W        W42156   7.191   4.387  11.114
69732W        W42157  26.124  28.061  11.418
69733W        W42158  43.488  13.759  10.890
69734W        W42159  34.541   8.781  14.467
69735W        W42160  35.577  15.288  11.575
69736W        W42161  15.807   5.399  12.478
69737W        W42162  13.684  29.629   4.712
69738W        W42163   1.384  10.767  13.891
69739W        W42164  36.383  22.600  11.915
69740W        W42165   7.754  15.301  14.806
69741W        W42166  13.630  17.605  14.010
69742W        W42167  13.721  40.800   0.884
69743W        W42168   2.280  18.764  11.382
69744W        W42169  38.023  25.570   1.889
69745W        W42170  19.703  43.995  14.918
69746W        W42171  33.491  42.853   3.743
69747W        W42172  25.029   0.903  14.808
69748W        W42173  36.587  15.779   1.807
69749W        W42174   8.181  31.456   0.457
69750W        W42175  39.511  26.957   1.404
69751W        W42176  29.933  25.094  14.389
69752W        W42177   2.424  22.644  11.919
69753W        W42178   1.956  16.649   0.310
69754W        W42179  20.063  36.357  11.374
69755W        W42180   1.733  23.008   0.858
69756W        W42181  44.313  29.461  10.503
69757W        W42182   8.359  32.089  10.576
69758W        W42183  39.438   6.188   0.831
69759W        W42184  40.997  32.106   3.194
69760W        W42185  19.548  31.533   5.173
69761W        W42186  37.416   0.811  12.400
69762W        W42187   7.692  24.109   5.223
69763W        W42188  24.015   0.315   3.735
69764W        W42189  26.181  21.543   1.699
69765W        W42190  20.097  27.981  10.157
69766W        W42191  19.757  44.915  14.882
69767W        W42192   6.814   0.340   2.292
69768W        W42193  22.716   7.282   1.706
69769W        W42194   2.894  38.459  14.296
69770W        W42195  29.057   6.874  10.617
69771W        W42196  11.315  18.205  11.427
69772W        W42197   3.769  29.953  11.031
69773W        W42198  42.312  16.759  12.544
69774W        W42199  18.694  44.441  10.921
69775W        W42200   3.446   4.776   2.274
69776W        W42201  12.663  22.610   1.902
69777W        W42202  28.012   9.742   4.645
69778W        W42203  30.584  39.381  10.498
69779W        W42204  42.835  26.053   4.201
69780W        W42205  25.649   1.756  11.376
69781W        W42206  38.532  22.648   1.773
69782W        W42207  34.007  34.033  12.048
69783W        W42208  37.527  38.444   4.281
69784W        W42209  11.662  21.525   3.728
69785W        W42210   9.361  21.547   4.806
69786W        W42211  30.932  21.550  11.857
69787W        W42212  40.505  10.666  14.995
69788W        W42213  33.025  11.724   1.314
69789W        W42214  14.278  29.002  11.016
69790W        W42215   6.423   3.746  13.862
69791W        W42216  32.013  35.484   2.412
69792W        W42217   8.828  23.190  11.543
69793W        W42218  10.314  38.440   3.792
69794W        W42219  29.475  34.864   1.450
69795W        W42220  37.864   6.193  14.406
69796W        W42221  31.976  37.052   3.219
69797W        W42222  38.380  21.045   3.642
69798W        W42223  33.402  15.255  11.066
69799W        W42224  22.699   1.356   1.777
69800W        W42225  17.645  31.080  12.980
69801W        W42226  44.426  28.984   4.207
69802W        W42227  29.476  21.035   4.814
69803W        W42228  29.939  21.242   4.709
69804W        W42229  18.593   9.747  10.945
69805W        W42230  12.119  27.198   3.770
69806W        W42231  32.465  17.294   0.915
69807W        W42232   7.381  31.608   0.453
69808W        W42233  35.533   9.185  12.532
69809W        W42234  13.313  17.260  11.403
69810W        W42235  12.617   5.352  14.305
69811W        W42236  11.318  14.156   4.183
69812W        W42237  20.538  27.456  11.895
69813W        W42238  39.538   9.152   3.220
69814W        W42239   5.859   2.887   0.832
69815W        W42240  27.197  33.917   0.801
69816W        W42241  42.322   6.803   4.759
69817W        W42242   2.458   8.877   4.187
69818W        W42243  25.612  34.451   3.288
69819W        W42244  11.189   0.978  14.461
69820W        W42245  11.628  35.583  11.563
69821W        W42246  28.985  22.645  10.504
69822W        W42247  42.868   7.290   1.387
69823W        W42248  32.597  43.506  11.867
69824W        W42249  23.075  13.231   1.254
69825W        W42250  14.335  32.590  13.539
69826W        W42251  31.530  22.065  12.356
69827W        W42252   4.324  13.689   3.811
69828W        W42253  44.370  25.141  10.498
69829W        W42254  21.571   8.850  12.996
69830W        W42255  29.643   2.241  14.374
69831W        W42256  41.326   4.875  10.495
69832W        W42257  38.429   1.916  11.947
69833W        W42258   7.386  35.554  11.089
69834W        W42259  24.063  24.495  13.415
69835W        W42260  39.427  17.115   0.395
69836W        W42261   2.875  41.423   0.958
69837W        W42262  36.911  16.088  10.889
69838W        W42263   9.214   6.342  12.482
69839W        W42264  40.307  29.608  13.368
69840W        W42265  30.934   6.709   3.243
69841W        W42266  12.754  26.146  13.368
69842W        W42267  39.961  41.954   4.229
69843W        W42268   2.434  32.420   1.267
69844W        W42269   3.827  27.979   3.692
69845W        W42270  13.198  41.300   3.777
69846W        W42271  36.350  27.087  13.993
69847W        W42272   2.435  24.574   0.408
69848W        W42273  38.072  17.204   0.749
69849W        W42274  20.713  37.018  14.407
69850W        W42275  21.624  25.194  12.409
69851W        W42276  15.086  12.286  12.339
69852W        W42277  11.775  23.177   3.274
69853W        W42278   5.768  33.097   2.666
69854W        W42279  23.172  28.179  12.580
69855W        W42280  40.889   4.788   1.444
69856W        W42281  30.453  12.251  11.893
69857W        W42282  35.859  22.133  11.079
69858W        W42283  21.700  21.709  10.551
69859W        W42284  11.679  28.108  14.923
69860W        W42285  16.797  42.393  13.455
69861W        W42286  10.812  18.689  13.941
69862W        W42287  37.359  37.978  14.985
69863W        W42288  10.162  22.203   1.211
69864W        W42289   3.881   4.899   0.446
69865W        W42290   4.354  37.967   4.600
69866W        W42291  18.269  43.974   4.281
69867W        W42292   7.783  38.498  14.493
69868W        W42293  41.465  35.107   5.111
69869W        W42294  43.297  27.485   2.797
69870W        W42295   8.340  16.131  11.015
69871W        W42296  25.492  29.059   4.148
69872W        W42297  12.164  40.495  11.062
69873W        W42298  10.826  33.505   3.178
69874W        W42299  44.363  44.359   5.293
69875W        W42300   6.720  40.881  12.070
69876W        W42301  39.486  23.075   3.666
69877W        W42302  21.626  35.437  11.518
69878W        W42303   8.834   8.257   3.782
69879W        W42304  17.069  36.562   3.708
69880W        W42305  30.604  14.751   1.702
69881W        W42306  28.582   8.292   0.898
69882W        W42307  38.553  25.494  13.049
69883W        W42308  26.098   2.249  13.454
69884W        W42309  30.939  11.787   1.251
69885W        W42310  34.931  19.249   0.334
69886W        W42311  22.080  41.412  10.599
69887W        W42312   3.749  33.108  11.112
69888W        W42313  27.577  35.105  12.954
69889W        W42314  39.337  22.147  13.036
69890W        W42315  11.166  12.649  13.826
69891W        W42316   7.762  35.529  13.987
69892W        W42317  37.971   0.356  14.998
69893W        W42318   1.914  44.315   2.771
69894W        W42319  15.116  28.182  14.441
69895W        W42320   6.421  41.958   2.699
69896W        W42321  11.171   5.206   1.747
69897W        W42322  11.790  26.547   4.140
69898W        W42323  36.362  26.969  11.372
69899W        W42324   7.797  19.567  12.015
69900W        W42325   2.806  44.822  11.985
69901W        W42326  42.393  15.271  14.887
69902W        W42327  37.562  21.034  14.479
69903W        W42328   8.302   7.405  13.813
69904W        W42329  16.717  15.189  11.536
69905W        W42330  33.078  43.776   4.792
69906W        W42331  17.105  21.655  14.363
69907W        W42332  18.216  26.621  12.023
69908W        W42333  36.524  40.002   3.281
69909W        W42334  24.132  43.497   3.181
69910W        W42335  21.238  41.864  11.586
69911W        W42336  17.613   1.943   3.752
69912W        W42337   9.181  28.607   0.965
69913W        W42338  16.295  43.320   1.718
69914W        W42339   7.400  31.105  11.525
69915W        W42340  19.104   1.761   5.088
69916W        W42341  20.197  33.391  10.527
69917W        W42342  38.843  34.895  13.051
69918W        W42343  37.467  42.862   2.846
69919W        W42344  40.982  44.836  11.856
69920W        W42345   7.717  33.450  10.477
69921W        W42346  19.060  28.111   2.749
69922W        W42347  21.094  21.751  10.598
69923W        W42348   6.428   5.785  13.327
69924W        W42349  20.191  25.979   1.758
69925W        W42350  33.383  36.495  13.489
69926W        W42351  17.065  23.092  14.027
69927W        W42352  37.056  35.440   3.709
69928W        W42353   8.888  17.223   1.840
69929W        W42354  14.649  40.976  14.953
69930W        W42355  25.095  23.006   4.128
69931W        W42356  12.813  33.624  14.399
69932W        W42357  34.083   8.256  10.970
69933W        W42358  10.181   3.288  13.830
69934W        W42359  26.176  37.831   2.829
69935W        W42360  18.053  12.786  11.966
69936W        W42361  21.259  34.119   0.285
69937W        W42362  14.627  31.539   3.253
69938W        W42363  26.087  15.216   4.614
69939W        W42364  15.270  31.076  14.835
69940W        W42365   3.367   8.171  13.892
69941W        W42366   1.465  10.289   2.252
69942W        W42367  27.482  14.293  12.410
69943W        W42368  20.620  30.580   0.423
69944W        W42369  22.141  42.430   4.668
69945W        W42370  35.040  10.839  12.438
69946W        W42371  27.069  37.527  10.940
69947W        W42372  24.140  30.516  14.362
69948W        W42373  30.574  29.066   1.290
69949W        W42374  22.122  32.461   0.726
69950W        W42375  11.204  44.390  13.812
69951W        W42376   6.309  35.594  10.118
69952W        W42377  28.019  36.920  11.110
69953W        W42378   1.909  30.483  13.026
69954W        W42379  19.200  36.586  13.329
69955W        W42380   9.783  42.874  12.844
69956W        W42381  27.611  19.592   1.324
69957W        W42382  12.132  37.339   3.773
69958W        W42383   8.887  10.269  11.566
69959W        W42384  29.627  29.941   2.698
69960W        W42385  33.931  22.161   1.395
69961W        W42386  22.716   9.661   1.933
69962W        W42387  23.997  16.134   4.239
69963W        W42388  11.172  11.372  10.524
69964W        W42389  40.849  24.686  10.897
69965W        W42390  21.669  26.052   3.272
69966W        W42391  23.570  24.139  11.448
69967W        W42392  38.555  21.262  10.427
69968W        W42393  39.380  36.050   3.780
69969W        W42394  12.237  15.233   3.713
69970W        W42395   5.354  14.653   3.801
69971W        W42396  39.435  17.304  11.580
69972W        W42397  42.422  29.100  11.102
69973W        W42398  38.482  39.877   0.346
69974W        W42399  39.846  41.809   2.835
69975W        W42400   0.302  22.233   2.715
69976W        W42401   2.924  39.998   3.669
69977W        W42402   9.278  21.696   3.182
69978W        W42403  37.511  13.766  13.325
69979W        W42404  37.016  34.596  12.021
69980W        W42405  41.404  38.857  12.951
69981W        W42406   3.938  20.105  14.803
69982W        W42407  31.590   1.902  12.046
69983W        W42408   2.882  22.626  12.947
69984W        W42409  12.621   3.775  13.895
69985W        W42410  20.695  23.023   0.344
69986W        W42411  23.633  36.465  11.043
69987W        W42412  29.918  23.998   1.393
69988W        W42413  41.963  19.066  13.030
69989W        W42414  17.620  42.836  12.892
69990W        W42415  13.602  18.062  13.904
69991W        W42416  40.483  14.689  14.961
69992W        W42417  16.112  18.653  11.078
69993W        W42418  38.888  43.899   0.246
69994W        W42419  25.050   3.245  13.540
69995W        W42420  27.473  15.624   0.771
69996W        W42421  41.793  11.824   9.968
69997W        W42422  12.711  17.288  11.866
69998W        W42423  42.446   7.669  14.279
69999W        W42424  13.226  20.070   0.754
70000W        W42425   2.821   2.801   3.737
70001W        W42426  25.129   4.804  12.055
70002W        W42427  10.798  10.238   1.254
70003W        W42428  17.794  11.310   3.262
70004W        W42429   9.254   1.399   2.188
70005W        W42430  42.361  37.444  14.287
70006W        W42431  12.613  35.060   1.214
70007W        W42432  15.582   6.854  11.419
70008W        W42433  18.610  34.425   3.685
70009W        W42434  29.514  12.223   4.137
70010W        W42435  21.754   3.459   0.393
70011W        W42436  25.192   0.319  14.923
70012W        W42437   2.446  25.019  11.490
70013W        W42438  12.334   2.259  12.419
70014W        W42439  43.340  43.386  11.427
70015W        W42440   4.865  23.161   1.835
70016W        W42441  16.156  16.782   0.907
70017W        W42442   4.870  36.852   4.314
70018W        W42443  23.101  13.777  14.387
70019W        W42444   4.290  20.549  14.855
70020W        W42445  13.619   8.734  11.001
70021W        W42446  39.467  23.681   4.322
70022W        W42447  43.396  11.340  12.488
70023W        W42448   9.694   2.458  14.457
70024W        W42449  22.245  42.852  14.916
70025W        W42450  28.150  17.285  13.436
70026W        W42451  28.544  41.017  12.536
70027W        W42452  23.080  32.039  13.417
70028W        W42453  28.121  41.318  13.846
70029W        W42454  32.524  39.979   4.301
70030W        W42455  11.759  34.964   4.198
70031W        W42456  13.180   1.398  10.934
70032W        W42457  43.463  26.513  11.377
70033W        W42458  18.761  17.748   1.810
70034W        W42459   7.331  32.937   0.329
70035W        W42460   0.325   5.801   3.712
70036W        W42461   5.208   8.384  13.916
70037W        W42462  21.550  14.231   4.736
70038W        W42463  27.101  33.003  14.493
70039W        W42464  17.209  22.163  14.450
70040W        W42465  33.584  11.737   0.324
70041W        W42466  41.361  26.165  13.350
70042W        W42467  43.405  43.817  12.001
70043W        W42468  38.016   7.218  12.570
70044W        W42469  22.501  10.826   1.839
70045W        W42470  39.062  28.955   2.264
70046W        W42471  12.244  37.048  12.538
70047W        W42472  42.858  11.830  10.407
70048W        W42473   5.205  39.050  12.993
70049W        W42474  26.484  21.257   2.371
70050W        W42475  23.553  44.008  11.007
70051W        W42476  33.046  16.779  11.065
70052W        W42477  26.081  14.194  13.824
70053W        W42478  24.683  14.124  10.628
70054W        W42479  43.774  28.522   0.438
70055W        W42480  22.078  12.257   3.367
70056W        W42481  35.461  13.319   0.908
70057W        W42482  17.597   1.444  14.936
70058W        W42483  21.077  18.674   2.732
70059W        W42484   4.834   7.254   9.944
70060W        W42485  14.637  25.573   4.786
70061W        W42486  11.762  27.637   4.160
70062W        W42487   7.403   5.271   1.917
70063W        W42488  13.605  24.018  11.931
70064W        W42489   2.960  36.081   2.197
70065W        W42490  37.486   3.733  13.037
70066W        W42491  39.833  35.590  13.850
70067W        W42492  13.293  17.556   3.268
70068W        W42493  27.071  31.060  13.363
70069W        W42494   6.414  34.584  10.561
70070W        W42495  33.007  14.320   1.808
70071W        W42496   4.832  35.514   3.260
70072W        W42497   4.889  44.386   4.322
70073W        W42498  37.499  22.660  11.569
70074W        W42499  44.858   6.812   2.350
70075W        W42500  23.241  23.520   2.726
70076W        W42501  34.374  30.040  14.983
70077W        W42502  12.318  44.472  13.055
70078W        W42503   6.748  27.974  13.314
70079W        W42504  42.474  14.193   4.286
70080W        W42505  10.141  11.171   4.681
70081W        W42506  27.194  40.809   3.152
70082W        W42507  36.856  11.177   3.163
70083W        W42508  18.199  10.832   2.312
70084W        W42509  43.847   1.795  11.557
70085W        W42510   2.843  40.307   0.963
70086W        W42511  29.621  44.863   0.321
70087W        W42512   2.400   6.844   1.836
70088W        W42513  21.205  35.039  13.843
70089W        W42514   2.736  35.588   4.228
70090W        W42515  15.744   8.268  12.090
70091W        W42516  15.270  34.075   0.865
70092W        W42517  31.087  36.383  11.524
70093W        W42518  43.815  20.080   2.669
70094W        W42519   6.341  29.562  14.897
70095W        W42520   0.782  12.357  12.394
70096W        W42521  29.453  23.986   3.297
70097W        W42522  43.340  13.267  11.534
70098W        W42523  40.513  34.034  11.379
70099W        W42524  21.685   6.328   4.203
70100W        W42525  16.260   3.748  13.033
70101W        W42526  27.081   4.825  13.538
70102W        W42527   2.769  12.769  11.059
70103W        W42528   1.803  31.964   1.757
70104W        W42529  28.180   8.216   3.241
70105W        W42530  37.412  33.110  12.957
70106W        W42531  15.112  40.034  12.416
70107W        W42532  30.970   9.163  12.890
70108W        W42533  33.916   3.872  14.409
70109W        W42534  17.629  20.112   4.146
70110W        W42535   7.907  24.709  12.855
70111W        W42536  23.083  21.576   2.743
70112W        W42537  28.520  43.907   3.748
70113W        W42538  14.109  28.058   1.353
70114W        W42539   0.912  22.618  12.347
70115W        W42540  43.351  20.266   4.115
70116W        W42541  41.473  12.216  10.483
70117W        W42542  33.038  11.852  12.392
70118W        W42543  22.502   4.931   0.774
70119W        W42544  44.490  25.491   2.872
70120W        W42545  10.283  44.829   2.754
70121W        W42546   7.798   3.423  10.061
70122W        W42547  32.497  42.328   2.838
70123W        W42548  26.100  29.957   1.714
70124W        W42549  31.460   1.887  12.577
70125W        W42550  18.187  43.427   2.697
70126W        W42551  31.074  14.292  14.985
70127W        W42552  42.374  10.239   4.797
70128W        W42553  14.109  14.155   0.355
70129W        W42554  28.616  21.617  11.104
70130W        W42555  37.582  12.838  11.417
70131W        W42556  22.651  19.160  13.931
70132W        W42557  31.090  15.682  14.003
70133W        W42558  20.630  15.693  13.941
70134W        W42559  43.885   8.893  13.407
70135W        W42560  37.445  37.070   2.226
70136W        W42561  18.276  35.440  13.840
70137W        W42562   7.397  20.268   2.192
70138W        W42563   8.780  30.595  11.925
70139W        W42564  16.259  40.928   0.394
70140W        W42565  14.724   9.816  13.958
70141W        W42566  42.797  23.079  11.909
70142W        W42567  40.977  28.030   1.831
70143W        W42568  32.082  27.169  11.947
70144W        W42569  29.475  10.767  13.019
70145W        W42570   0.421  32.432   4.130
70146W        W42571  31.404  38.938   0.276
70147W        W42572  16.213  11.660  10.405
70148W        W42573  17.143  24.175  10.533
70149W        W42574  24.059  30.602  10.981
70150W        W42575  32.503  21.254  14.877
70151W        W42576   5.294  30.570   1.213
70152W        W42577  34.924   1.418   4.635
70153W        W42578   3.410   8.677   3.282
70154W        W42579  13.750  26.535   4.301
70155W        W42580  39.530   5.389   4.236
70156W        W42581  29.098  32.513  11.994
70157W        W42582  13.313  40.871   2.248
70158W        W42583  38.889  20.261  14.819
70159W        W42584  33.951  26.606  13.368
70160W        W42585  30.080   6.904  13.799
70161W        W42586  12.295  33.467  11.065
70162W        W42587   5.915  23.111   4.643
70163W        W42588  18.161  31.084   0.387
70164W        W42589  25.559   2.903  14.342
70165W        W42590  16.155  35.098   1.837
70166W        W42591  32.103  11.354  14.369
70167W        W42592  12.698  26.148   1.419
70168W        W42593  23.640  17.765  10.912
70169W        W42594  35.917  25.079   5.790
70170W        W42595  44.795  42.349   4.772
70171W        W42596  20.620  27.615  14.008
70172W        W42597  17.261  33.065  14.311
70173W        W42598  31.585  27.491   3.317
70174W        W42599   8.686  27.518   3.281
70175W        W42600   8.221  27.985  12.479
70176W        W42601  36.374  39.052   1.372
70177W        W42602  44.445   4.440  14.972
70178W        W42603   0.875  17.187   4.691
70179W        W42604  11.811  19.081   4.302
70180W        W42605  26.076  42.897  12.950
70181W        W42606  41.922   1.239   3.800
70182W        W42607  22.191  36.386   1.377
70183W        W42608  23.190  18.761   1.841
70184W        W42609  24.591   8.846   1.768
70185W        W42610  25.492  27.007  11.482
70186W        W42611  14.276  18.116  14.771
70187W        W42612  40.438   3.238  14.945
70188W        W42613  25.039  11.866  14.406
70189W        W42614  24.157   6.771  10.472
70190W        W42615  17.205  42.940  12.539
70191W        W42616  44.881  19.271  14.393
70192W        W42617  30.437   8.823   4.335
70193W        W42618  29.518  20.248   4.773
70194W        W42619   5.839   5.379   1.433
70195W        W42620  37.998   1.916   0.256
70196W        W42621  39.329  14.711  13.912
70197W        W42622  42.997  30.499  14.394
70198W        W42623  26.571  33.594   4.133
70199W        W42624  10.659  21.661   0.461
70200W        W42625   6.719  16.241   2.375
70201W        W42626   7.219  38.044   2.879
70202W        W42627  41.455  24.152   3.862
70203W        W42628   5.691  34.453  13.543
70204W        W42629  24.087  11.136  12.418
70205W        W42630  14.616  34.045   4.816
70206W        W42631  18.546  43.981   3.813
70207W        W42632   6.898  37.020   3.848
70208W        W42633  12.756  28.083   2.354
70209W        W42634   7.241   9.244  10.623
70210W        W42635  26.963  43.008   4.782
70211W        W42636  20.255  44.370  10.411
70212W        W42637  18.727  24.544   1.919
70213W        W42638   4.380  41.794  13.388
70214W        W42639  25.147  15.272   1.218
70215W        W42640  24.537  29.604  14.418
70216W        W42641  39.972  21.075   1.288
70217W        W42642  39.902   4.317   0.426
70218W        W42643  18.086  12.646   1.389
70219W        W42644  21.666  34.056  12.379
70220W        W42645  19.269   4.833   4.246
70221W        W42646  26.615  23.059   3.159
70222W        W42647   6.281  12.125  12.062
70223W        W42648  18.232  24.188   1.268
70224W        W42649  35.010  38.959  10.948
70225W        W42650   6.332  22.609  12.915
70226W        W42651  37.431  10.799  10.480
70227W        W42652  27.598   2.796  12.899
70228W        W42653  34.978  39.534  10.645
70229W        W42654  28.066  17.574  13.463
70230W        W42655   4.282  42.510   4.301
70231W        W42656  35.534  19.648  10.964
70232W        W42657  35.365  10.204   4.337
70233W        W42658  34.062  38.389   1.344
70234W        W42659  19.182  31.127   1.812
70235W        W42660  27.616  21.040   0.246
70236W        W42661  27.155  24.003  13.532
70237W        W42662  34.956  26.022   1.273
70238W        W42663   9.163  40.995   3.813
70239W        W42664  19.708   8.826  11.098
70240W        W42665  44.319  41.809   4.270
70241W        W42666  33.081   3.948  12.415
70242W        W42667  34.962   4.833   2.774
70243W        W42668  12.282  40.540   3.292
70244W        W42669  10.356   2.797  13.891
70245W        W42670  12.119  26.614   2.317
70246W        W42671  18.574  16.105  14.784
70247W        W42672  34.934  25.099   0.946
70248W        W42673  21.183  43.278   4.182
70249W        W42674  41.492  38.917  11.541
70250W        W42675  28.645  38.841  11.451
70251W        W42676  28.124  20.738   3.674
70252W        W42677  16.591  43.331  12.376
70253W        W42678  39.979   4.273  13.327
70254W        W42679  37.435  38.039   3.786
70255W        W42680   9.195   5.911  14.847
70256W        W42681  36.452  29.935  13.427
70257W        W42682  43.483  33.120  11.109
70258W        W42683   3.926  23.727  12.087
70259W        W42684  13.807  42.941   3.343
70260W        W42685  42.966   5.887   4.821
70261W        W42686  36.866   8.386  12.873
70262W        W42687  27.176  21.705  12.506
70263W        W42688   3.781  36.553   3.164
70264W        W42689  31.478  21.098   1.884
70265W        W42690  20.094  27.180   2.764
70266W        W42691  34.009  13.719  14.349
70267W        W42692   9.666  43.848   0.353
70268W        W42693   3.814  35.898  14.475
70269W        W42694  34.466  28.159   2.284
70270W        W42695   1.327  31.912  12.562
70271W        W42696  34.457  30.527  13.343
70272W        W42697   2.798  12.736  12.054
70273W        W42698  41.489  39.541  13.903
70274W        W42699  33.072  21.035   0.778
70275W        W42700  33.964  21.713   2.819
70276W        W42701   9.307   8.845   0.302
70277W        W42702   2.901  41.921   1.901
70278W        W42703  39.315  30.949  12.517
70279W        W42704   8.374  17.677  10.470
70280W        W42705  36.591   5.277  14.895
70281W        W42706   0.778  10.204   4.769
70282W        W42707   1.852  40.387  12.827
70283W        W42708  26.673  19.780   3.783
70284W        W42709  43.399  12.233  12.834
70285W        W42710   1.880  43.361   2.230
70286W        W42711  11.740  12.611   3.257
70287W        W42712  11.304   1.828   0.881
70288W        W42713   5.310  42.995   2.405
70289W        W42714  24.205  31.410   0.757
70290W        W42715   2.254  21.213   4.132
70291W        W42716   9.769  23.184   4.721
70292W        W42717   9.188  13.607  12.352
70293W        W42718  33.434  44.807   4.239
70294W        W42719  10.727  37.573   4.231
70295W        W42720  15.720  29.173   2.855
70296W        W42721  15.740  38.941  14.763
70297W        W42722  26.550  22.249   1.841
70298W        W42723  18.087  16.612  13.448
70299W        W42724  11.362  20.206   1.315
70300W        W42725   2.938  32.599   1.287
70301W        W42726   9.395  35.451  14.811
70302W        W42727  13.705  21.249  12.479
70303W        W42728   5.367  10.344  11.532
70304W        W42729  16.662  20.542  13.986
70305W        W42730   3.746  44.262   0.326
70306W        W42731  13.672  43.306   1.783
70307W        W42732  26.540  27.093   4.605
70308W        W42733  21.569  21.058  11.916
70309W        W42734  39.053  26.668  10.461
70310W        W42735  41.380  14.697   0.904
70311W        W42736  23.070   5.215   1.722
70312W        W42737  13.797  14.233   2.350
70313W        W42738  39.948   4.702  14.780
70314W        W42739   0.764  37.973  10.477
70315W        W42740  24.660  37.979  13.358
70316W        W42741  33.575   3.326  14.389
70317W        W42742  26.055  41.304  13.495
70318W        W42743  40.371  26.666   2.692
70319W        W42744  22.728   5.377   0.408
70320W        W42745   9.790  22.624   1.404
70321W        W42746  33.416  21.121  14.304
70322W        W42747  43.328  22.189   2.219
70323W        W42748   4.736  27.477   9.935
70324W        W42749   4.715  44.001   2.720
70325W        W42750  23.987   3.750  10.441
70326W        W42751   5.749  35.934  12.079
70327W        W42752   5.238  27.527  13.542
70328W        W42753  44.312  36.423  10.572
70329W        W42754  21.039  38.982  13.434
70330W        W42755  20.643  18.599   3.693
70331W        W42756  39.423  35.941   1.869
70332W        W42757  10.269  38.389  11.059
70333W        W42758   6.716  16.108  12.899
70334W        W42759  27.134  16.183  13.399
70335W        W42760  30.079  44.299  13.937
70336W        W42761  28.660  19.222   0.341
70337W        W42762   8.698   7.256   3.323
70338W        W42763  18.128  38.834   0.255
70339W        W42764  16.615  28.595   4.213
70340W        W42765   1.467  37.058   2.838
70341W        W42766   0.795  11.804  13.047
70342W        W42767  33.054  14.098   4.812
70343W        W42768  42.921  27.017  11.028
70344W        W42769  23.512  29.429  10.518
70345W        W42770  43.933  21.255  12.020
70346W        W42771   0.824  39.346  10.891
70347W        W42772  10.147  37.072  14.800
70348W        W42773  26.003   8.270   2.825
70349W        W42774  18.746   2.427   4.604
70350W        W42775  21.090  17.069  10.896
70351W        W42776  30.046   9.807   3.692
70352W        W42777  11.718  22.710   0.341
70353W        W42778  30.642  38.838  10.635
70354W        W42779  39.346   4.301  13.428
70355W        W42780  28.141  16.568  11.545
70356W        W42781  31.147  44.401   2.354
70357W        W42782  12.742  36.359  14.975
70358W        W42783  25.489   9.668  10.901
70359W        W42784   0.903  32.082  13.344
70360W        W42785  18.748  44.477   4.307
70361W        W42786  14.694  33.060  13.985
70362W        W42787  12.233  29.538  12.014
70363W        W42788  23.212  18.200   3.660
70364W        W42789  43.768  25.709   0.849
70365W        W42790  24.096   0.958   0.414
70366W        W42791  20.608  43.401  10.590
70367W        W42792  18.254  25.023  14.972
70368W        W42793   8.734  25.988  13.326
70369W        W42794  18.595  33.029   0.850
70370W        W42795  14.691  15.185   0.412
70371W        W42796  12.244  34.552   2.363
70372W        W42797  38.436  39.057  10.936
70373W        W42798  33.532  18.615   9.634
70374W        W42799  26.581  22.176  12.574
70375W        W42800  43.361  23.539   4.323
70376W        W42801   8.400  43.963  14.808
70377W        W42802  28.514  22.576  14.765
70378W        W42803   6.816  17.668   4.182
70379W        W42804  21.732  19.705   3.637
70380W        W42805   4.257   8.236   4.306
70381W        W42806  21.525  20.708   1.885
70382W        W42807  39.508  34.436   1.840
70383W        W42808  42.029   9.715  10.959
70384W        W42809  37.522  38.986  11.883
70385W        W42810   8.730   7.344  13.403
70386W        W42811   1.437  21.661   1.386
70387W        W42812  36.970  22.144  11.587
70388W        W42813   8.698   9.354  13.934
70389W        W42814  16.092  35.059  12.931
70390W        W42815  21.704  18.114  13.403
70391W        W42816  35.056  26.628  14.783
70392W        W42817  31.494  26.591  11.029
70393W        W42818  30.048  28.456  14.356
70394W        W42819  39.518  23.025   2.836
70395W        W42820  32.571  16.678   5.660
70396W        W42821  39.974  21.195  12.367
70397W        W42822  21.189  23.216  13.482
70398W        W42823  20.619  16.799  10.974
70399W        W42824  35.453  14.675   0.379
70400W        W42825  22.666   8.701  13.927
70401W        W42826  31.415  27.633   2.304
70402W        W42827  41.356  39.512   2.758
70403W        W42828  12.779  39.486   1.721
70404W        W42829   9.853  25.156   2.315
70405W        W42830  38.541  42.854  10.955
70406W        W42831  13.711  14.100   0.793
70407W        W42832  25.086   9.247   3.726
70408W        W42833  39.541   5.334  11.545
70409W        W42834  20.205   1.472  11.868
70410W        W42835  33.626  17.785   5.302
70411W        W42836  19.720  21.634   3.304
70412W        W42837  15.304  25.485   3.642
70413W        W42838  38.526  39.347   1.843
70414W        W42839   2.331  24.599  13.820
70415W        W42840  17.303  32.952   0.259
70416W        W42841  44.505  10.246   0.481
70417W        W42842  22.698  21.583  10.503
70418W        W42843  36.573  25.141   1.283
70419W        W42844  23.072   5.730   2.743
70420W        W42845   2.814  35.996   2.687
70421W        W42846  32.537  18.564   5.769
70422W        W42847  41.382  35.087   3.682
70423W        W42848  12.218   2.913   1.720
70424W        W42849   1.781   8.277  14.858
70425W        W42850  24.644  37.403  14.374
70426W        W42851   6.829  34.003  14.468
70427W        W42852   5.207  18.122  12.431
70428W        W42853  34.507   6.813  14.411
70429W        W42854  10.298   1.976  10.505
70430W        W42855  15.721   2.459  14.830
70431W        W42856   7.864  19.723  14.452
70432W        W42857  36.033  16.113   1.282
70433W        W42858  38.824  14.607  13.954
70434W        W42859  40.912  25.642   1.774
70435W        W42860  15.172   5.227  11.598
70436W        W42861  17.281  15.612  12.425
70437W        W42862  23.707  43.886   0.925
70438W        W42863   4.881  11.648  11.386
70439W        W42864  17.636   9.377  12.912
70440W        W42865   3.254  42.288   0.294
70441W        W42866  39.915  42.814  14.908
70442W        W42867  30.443  15.711  11.054
70443W        W42868  41.830  28.125   0.798
70444W        W42869  35.914   3.838  11.882
70445W        W42870  15.596  42.897   2.416
70446W        W42871  17.718  15.766  13.891
70447W        W42872  28.170  17.708   2.207
70448W        W42873  23.695  28.602   0.326
70449W        W42874   8.732  34.953  11.115
70450W        W42875  44.954   1.784  14.441
70451W        W42876  40.531  38.885   0.339
70452W        W42877   7.816  40.018  11.389
70453W        W42878  17.227  30.945  13.485
70454W        W42879  27.069  43.341   1.756
70455W        W42880  34.435  28.538   2.293
70456W        W42881  37.844  21.590  11.863
70457W        W42882  10.143  33.611  13.794
70458W        W42883  28.165  30.644   3.185
70459W        W42884  15.764   3.437  14.343
70460W        W42885   7.378  20.679  11.507
70461W        W42886  12.706  27.641   3.631
70462W        W42887  41.852   0.255   4.155
70463W        W42888  10.815  37.971   4.324
70464W        W42889  19.199  31.965  14.958
70465W        W42890   2.796  35.403   0.795
70466W        W42891  20.644   9.781   2.738
70467W        W42892   7.724  44.791  14.898
70468W        W42893  11.209  23.182  13.370
70469W        W42894  34.958  16.650   2.379
70470W        W42895  15.797  24.999   1.424
70471W        W42896   3.358  37.523   4.315
70472W        W42897  35.871  38.518  12.034
70473W        W42898  34.421  23.554   2.253
70474W        W42899   2.349  22.126   3.853
70475W        W42900  38.445   6.898  11.062
70476W        W42901   5.723  40.362  14.339
70477W        W42902  11.683  33.494  13.513
70478W        W42903  19.123  26.106   0.475
70479W        W42904  12.220  20.080   2.180
70480W        W42905  12.647  17.307  14.898
70481W        W42906  44.866  44.391   0.415
70482W        W42907  27.115  15.195  14.471
70483W        W42908  36.397  44.971  13.487
70484W        W42909  28.593  21.063  14.884
70485W        W42910  32.566  12.121   3.241
70486W        W42911   8.701  21.573  11.968
70487W        W42912  35.062  21.080  11.067
70488W        W42913  13.659  28.051   1.700
70489W        W42914  30.052   5.771  12.417
70490W        W42915  21.069  15.811  13.387
70491W        W42916  19.063  29.967  14.857
70492W        W42917  27.972  44.385  14.930
70493W        W42918  30.532  21.724  10.484
70494W        W42919  18.089  41.013   2.396
70495W        W42920  38.987  31.580   4.123
70496W        W42921   5.386  14.162   0.457
70497W        W42922  23.610  17.751   3.383
70498W        W42923   6.693  21.083   2.716
70499W        W42924   9.393  16.083  13.332
70500W        W42925   5.855   3.335  12.937
70501W        W42926  24.186  28.058   2.378
70502W        W42927  29.099  39.530  14.013
70503W        W42928  19.224   0.327   2.400
70504W        W42929  24.695  42.401  10.990
70505W        W42930  17.072  22.564   2.822
70506W        W42931  30.467  17.186  10.550
70507W        W42932  44.911   2.465  12.917
70508W        W42933  23.653  26.542   0.323
70509W        W42934   1.854  12.693  11.908
70510W        W42935  23.539   3.316  14.416
70511W        W42936   9.819   0.847  10.567
70512W        W42937  35.399   0.290  11.383
70513W        W42938  36.502  14.154   1.311
70514W        W42939  27.164  23.678   3.277
70515W        W42940  24.487  42.493   4.255
70516W        W42941  26.034   8.831   4.221
70517W        W42942  21.691  29.967   2.212
70518W        W42943   2.234  21.536  13.495
70519W        W42944  34.598  33.994   3.736
70520W        W42945  24.582  25.635  12.019
70521W        W42946  38.421  16.607  12.913
70522W        W42947  30.634   7.258   1.710
70523W        W42948   7.874  14.797  10.913
70524W        W42949  12.790  19.630   3.635
70525W        W42950  30.460   8.309  13.521
70526W        W42951   3.824  41.444   4.255
70527W        W42952   1.351  18.236  14.760
70528W        W42953  38.971  27.997  11.902
70529W        W42954  43.464  24.640   0.284
70530W        W42955  28.086  33.514   9.570
70531W        W42956   6.773  32.985  14.007
70532W        W42957  18.775  23.683   3.364
70533W        W42958   2.309  11.137  14.960
70534W        W42959  44.481   1.934   1.804
70535W        W42960  12.652   7.353  11.116
70536W        W42961  32.049  24.594  11.379
70537W        W42962  27.958  26.174  11.489
70538W        W42963  12.626   3.399  14.808
70539W        W42964   8.886  11.261   4.617
70540W        W42965  22.236  12.765   1.847
70541W        W42966  29.511  22.040  13.450
70542W        W42967   9.665  31.457   1.334
70543W        W42968  43.922  24.718   3.655
70544W        W42969  31.130  21.040   1.248
70545W        W42970  21.030  35.478  13.819
70546W        W42971  16.582   8.167   4.817
70547W        W42972  28.149  30.600  11.427
70548W        W42973  14.613   4.708   4.312
70549W        W42974  36.903  37.375  12.357
70550W        W42975  12.669  19.620  11.485
70551W        W42976  36.011   3.231   1.870
70552W        W42977  26.114  16.758  10.463
70553W        W42978  10.812  36.507  10.567
70554W        W42979  13.210  33.005  14.926
70555W        W42980  44.320  12.286   1.313
70556W        W42981   6.777  16.196   4.755
70557W        W42982  29.556  41.389   1.394
70558W        W42983  35.440  15.745  14.991
70559W        W42984  18.567   9.302  11.951
70560W        W42985  36.916  19.637  14.816
70561W        W42986  26.011  31.142  12.930
70562W        W42987  34.427  27.094   2.304
70563W        W42988  18.068   0.870   4.156
70564W        W42989  41.403   3.412   2.417
70565W        W42990  13.719  44.913   0.414
70566W        W42991   4.794  23.691   3.815
70567W        W42992  36.889   2.382  13.961
70568W        W42993  43.442   7.738   2.891
70569W        W42994  37.404  18.762   0.761
70570W        W42995  42.905  41.428   4.766
70571W        W42996  40.308  22.080  14.820
70572W        W42997  25.023  11.172   0.878
70573W        W42998  13.283  14.241   2.187
70574W        W42999  26.999   3.412  12.542
70575W        W43000  26.092  40.991  10.517
70576W        W43001  39.938  37.940   0.391
70577W        W43002  38.348  40.482  11.483
70578W        W43003  15.327  36.064   3.298
70579W        W43004   3.795  33.458   4.824
70580W        W43005   6.686  15.182  14.343
70581W        W43006   4.418   0.795   1.252
70582W        W43007  34.480  30.997   4.743
70583W        W43008  19.259  10.702  12.048
70584W        W43009  39.494  14.626  12.456
70585W        W43010   6.319  44.908  13.466
70586W        W43011  27.000   3.736   0.464
70587W        W43012  16.107  44.757   0.965
70588W        W43013  30.034  33.052   3.177
70589W        W43014  22.068  41.947  14.770
70590W        W43015  10.301  10.681  14.440
70591W        W43016  31.535  18.129   2.309
70592W        W43017   9.332  17.628   2.851
70593W        W43018   4.256   9.779   3.680
70594W        W43019  17.759   5.299   3.752
70595W        W43020  29.500  12.248  12.880
70596W        W43021  14.645  32.938  11.551
70597W        W43022   3.412  32.050  14.772
70598W        W43023   8.724  28.479  11.407
70599W        W43024  25.082  29.985  14.336
70600W        W43025  13.114  30.030  11.880
70601W        W43026  21.548   0.450  13.027
70602W        W43027  38.965  31.589  12.087
70603W        W43028  12.769  33.592   4.694
70604W        W43029  33.565  36.538  12.951
70605W        W43030  21.231   3.789   0.415
70606W        W43031  33.006  14.124  12.935
70607W        W43032   9.283  34.454  14.961
70608W        W43033  41.003  32.414   0.916
70609W        W43034  42.927  28.115  14.013
70610W        W43035  21.519  36.026   4.597
70611W        W43036  10.700  21.261  13.919
70612W        W43037  18.653  13.189  12.544
70613W        W43038  43.395  17.287   0.793
70614W        W43039  21.635  20.266  11.522
70615W        W43040  29.934  39.330  10.466
70616W        W43041  33.054   8.326   1.759
70617W        W43042  38.876  28.439   4.135
70618W        W43043  38.845   9.668  13.417
70619W        W43044  21.141  25.687   4.614
70620W        W43045  14.800  17.652  13.810
70621W        W43046  33.029  31.586  13.448
70622W        W43047  37.935  28.108   4.289
70623W        W43048   0.821  36.420   0.741
70624W        W43049  28.182  15.208   4.814
70625W        W43050   6.753  16.704   1.699
70626W        W43051  35.401  39.397  11.594
70627W        W43052  12.617  44.353   3.385
70628W        W43053  17.607  23.073  14.812
70629W        W43054  17.569   2.733  14.334
70630W        W43055  40.033  33.997   4.300
70631W        W43056   5.387  36.087  12.556
70632W        W43057  28.974   5.233   4.809
70633W        W43058   3.919  43.814   2.256
70634W        W43059  10.766  39.831   0.467
70635W        W43060  36.034  23.571  14.020
70636W        W43061  14.225  13.727   1.911
70637W        W43062  41.305  14.283   5.206
70638W        W43063  15.741  31.133   5.317
70639W        W43064  11.154  28.511  13.522
70640W        W43065  30.418   1.923  11.956
70641W        W43066  19.614  23.726  12.449
70642W        W43067   5.339  23.503   4.694
70643W        W43068   0.787  25.011   2.301
70644W        W43069  17.576  31.644  13.441
70645W        W43070   7.908  27.949  12.573
70646W        W43071   8.811  11.822  14.771
70647W        W43072  42.299  30.041  11.434
70648W        W43073  28.992  10.290  10.408
70649W        W43074  41.019  44.383   3.308
70650W        W43075  35.366   5.872   4.714
70651W        W43076  27.661  18.161   2.199
70652W        W43077  25.211  33.047  13.891
70653W        W43078  25.522  13.786  13.056
70654W        W43079   2.765  20.070  12.467
70655W        W43080  10.711  38.930   2.778
70656W        W43081  19.275   3.881  12.564
70657W        W43082  36.081  26.575  14.001
70658W        W43083   4.330  21.149  11.968
70659W        W43084  28.482  41.303  11.467
70660W        W43085  43.472  30.105   1.295
70661W        W43086  27.119  31.512  13.308
70662W        W43087  21.125   9.369  14.882
70663W        W43088   8.728   4.348  13.880
70664W        W43089  33.613   8.274  11.452
70665W        W43090  11.652  43.998  10.410
70666W        W43091  27.958  18.169  13.874
70667W        W43092  14.214  35.567  13.935
70668W        W43093  21.115   6.211  12.830
70669W        W43094  23.114  29.458   0.835
70670W        W43095  38.959  32.896   5.268
70671W        W43096  40.370  12.352   3.220
70672W        W43097  31.996  21.213  12.579
70673W        W43098  25.051  20.176  11.881
70674W        W43099  28.033   9.183   3.296
70675W        W43100  28.442  35.895  10.641
70676W        W43101   7.394  32.422  10.474
70677W        W43102   1.904   2.784   3.650
70678W        W43103   1.909   1.279   0.817
70679W        W43104  21.700  41.929  10.441
70680W        W43105   7.817  31.087   2.771
70681W        W43106  24.578  42.370  10.447
70682W        W43107   4.917  13.808  10.634
70683W        W43108  36.895  14.258   5.142
70684W        W43109  21.706  26.100  10.614
70685W        W43110   0.858  35.004  10.434
70686W        W43111  22.564  10.214  12.055
70687W        W43112  29.431  36.008   3.673
70688W        W43113  31.128  29.076  10.425
70689W        W43114  23.528   9.369   3.722
70690W        W43115  15.741  36.843   0.294
70691W        W43116  24.094   4.348  14.354
70692W        W43117  30.481  12.787   0.370
70693W        W43118  37.397  35.554   4.712
70694W        W43119  34.045  31.483   4.680
70695W        W43120  29.653  10.214   2.285
70696W        W43121  10.648  33.489   4.276
70697W        W43122  21.514  21.548   2.395
70698W        W43123   0.346  12.311  12.490
70699W        W43124  42.373  11.270   0.293
70700W        W43125  34.079  23.228   4.728
70701W        W43126   2.247   9.705  14.925
70702W        W43127  10.170  41.491  12.431
70703W        W43128   8.747   4.709  11.971
70704W        W43129  21.547   6.718  13.867
70705W        W43130  21.738  37.889   3.754
70706W        W43131  14.318  35.375  11.098
70707W        W43132  14.259   7.676  13.475
70708W        W43133  44.379  11.753  11.106
70709W        W43134  22.502  20.030  14.867
70710W        W43135  44.458  23.080   4.146
70711W        W43136   9.183  41.319   2.288
70712W        W43137  25.197  19.186   0.435
70713W        W43138   6.366  37.039  10.964
70714W        W43139  38.564  23.030   3.675
70715W        W43140  40.028  32.098  12.573
70716W        W43141  31.490  17.630   4.753
70717W        W43142  14.681  24.025   5.753
70718W        W43143  10.302  39.325  11.898
70719W        W43144  20.691   1.932  14.291
70720W        W43145   4.298   3.300  10.622
70721W        W43146  20.090  14.759   2.181
70722W        W43147  34.428   2.794   2.748
70723W        W43148  44.853  41.868  10.425
70724W        W43149  39.528  39.826  13.892
70725W        W43150  31.440  12.340   2.403
70726W        W43151  12.821  21.074   4.723
70727W        W43152   2.748  39.860   1.247
70728W        W43153  33.396  40.819  13.421
70729W        W43154   3.778   8.322  11.460
70730W        W43155   0.417  10.148  11.578
70731W        W43156   0.484  34.957  11.564
70732W        W43157   5.855  40.455   0.849
70733W        W43158   8.663   5.822  11.019
70734W        W43159   5.406   1.936   3.830
70735W        W43160  20.059  29.091   3.772
70736W        W43161  29.513  28.116  14.886
70737W        W43162  33.008  22.231  14.468
70738W        W43163  17.785  43.484   3.630
70739W        W43164  39.948   7.675   3.788
70740W        W43165  40.516  15.672   3.800
70741W        W43166  25.517  22.740  14.366
70742W        W43167  26.014  23.212  13.427
70743W        W43168  16.272  27.081   1.867
70744W        W43169  19.663  27.557  10.973
70745W        W43170  20.205  11.305   0.479
70746W        W43171  28.562   4.275   1.814
70747W        W43172  20.546   7.373  10.931
70748W        W43173  27.169  13.226  11.563
70749W        W43174  26.605  32.976  13.472
70750W        W43175  19.249  32.108  10.083
70751W        W43176  16.133  36.408  14.838
70752W        W43177  35.492  26.188   2.837
70753W        W43178  26.200  27.169  12.997
70754W        W43179  31.152  14.819   1.864
70755W        W43180  14.772  39.497   1.889
70756W        W43181  44.888  32.891  11.430
70757W        W43182  44.304  27.635  12.008
70758W        W43183  42.306  13.195   3.635
70759W        W43184  20.643  22.608   0.891
70760W        W43185  29.607  16.082  14.483
70761W        W43186  24.610  33.582  14.314
70762W        W43187  10.309  25.592  10.561
70763W        W43188  29.532  20.160   4.244
70764W        W43189  27.107   3.854  10.574
70765W        W43190  35.930  12.738  10.889
70766W        W43191  26.670  39.978  13.884
70767W        W43192  35.594  12.294  12.442
70768W        W43193  10.728  20.670  12.020
70769W        W43194  37.556  10.236   2.886
70770W        W43195  36.454  32.630   4.175
70771W        W43196   4.310  24.649   2.276
70772W        W43197   0.762  33.059   3.164
70773W        W43198   9.842  24.075   0.287
70774W        W43199  20.595  14.100  10.452
70775W        W43200  44.270  27.117  13.059
70776W        W43201  23.153  11.674   4.799
70777W        W43202   8.854  25.634  13.799
70778W        W43203  39.424  41.295   9.982
70779W        W43204  29.488   5.250   3.349
70780W        W43205  21.235  18.294   2.813
70781W        W43206   1.251  19.626  11.012
70782W        W43207  43.437  33.426  11.064
70783W        W43208   8.300  32.040   3.766
70784W        W43209  25.062  31.470  13.812
70785W        W43210   4.269  44.824  11.944
70786W        W43211   7.204  34.570  11.921
70787W        W43212   1.311  35.576  10.547
70788W        W43213  34.893  43.413  14.931
70789W        W43214  44.760  22.702   0.796
70790W        W43215  10.727  42.964   4.745
70791W        W43216  11.849  44.848  11.052
70792W        W43217  23.505  39.974  13.416
70793W        W43218  14.742  28.579   2.865
70794W        W43219  39.821  24.637   4.670
70795W        W43220  28.137   1.465   4.787
70796W        W43221  14.742   0.287   0.395
70797W        W43222  10.821  31.982   2.410
70798W        W43223  40.929  24.565   4.692
70799W        W43224  29.463  13.226  14.492
70800W        W43225  33.514  31.970  11.064
70801W        W43226   8.164   6.206   9.982
70802W        W43227  25.603  18.212   0.752
70803W        W43228   6.404  32.948  13.972
70804W        W43229   7.777  40.374   3.242
70805W        W43230   5.691  22.723   0.726
70806W        W43231   6.191   3.330   4.229
70807W        W43232  24.609  36.096  12.906
70808W        W43233  43.863  44.824   3.336
70809W        W43234  17.130  16.777  13.323
70810W        W43235  14.649  13.235   3.286
70811W        W43236  42.515  27.945   4.715
70812W        W43237   3.837  29.160   2.317
70813W        W43238  40.361  19.709  13.011
70814W        W43239  29.137   8.306   4.225
70815W        W43240  24.049  30.158   2.780
70816W        W43241  39.895  12.360   3.722
70817W        W43242  19.536  34.506  10.968
70818W        W43243  38.352  19.650  12.053
70819W        W43244  13.191  36.844   3.808
70820W        W43245   1.751  35.898  10.535
70821W        W43246  11.317  38.066  14.440
70822W        W43247  28.075  36.926  14.873
70823W        W43248  20.187  39.038   4.599
70824W        W43249  42.032   4.391  13.054
70825W        W43250  35.061  38.040   0.924
70826W        W43251  40.990   9.868  11.088
70827W        W43252  35.938  41.022   2.242
70828W        W43253  30.998  15.137   1.446
70829W        W43254  15.665  40.834  10.944
70830W        W43255  12.128  28.016   3.259
70831W        W43256  39.543   6.322  11.042
70832W        W43257  10.743   5.368   1.255
70833W        W43258  37.355   5.220   4.208
70834W        W43259  34.979  24.511   3.186
70835W        W43260  35.485  38.523  13.531
70836W        W43261  44.334  37.070  12.053
70837W        W43262  13.328  22.061  14.426
70838W        W43263   7.676  24.071  12.340
70839W        W43264  36.422  43.996   0.336
70840W        W43265  12.831   8.783  14.982
70841W        W43266  22.068   0.956   3.158
70842W        W43267   0.877  18.087  12.995
70843W        W43268   6.856  42.342   0.335
70844W        W43269  41.303  33.578  10.623
70845W        W43270  29.121   3.233  14.376
70846W        W43271  12.703  28.471   3.764
70847W        W43272  26.619   4.703  13.539
70848W        W43273   0.489  24.087   4.690
70849W        W43274  34.370  26.087   4.259
70850W        W43275   8.167  35.036  10.039
70851W        W43276  39.407  43.945  13.463
70852W        W43277  26.203  32.984   2.662
70853W        W43278  42.331  36.574   1.884
70854W        W43279  37.055  37.364  13.885
70855W        W43280   8.339  36.466  12.361
70856W        W43281  27.640  34.490   0.870
70857W        W43282   9.670  29.958   2.388
70858W        W43283   5.743  23.659   1.450
70859W        W43284  13.767  38.499   3.764
70860W        W43285  16.309  43.495   0.950
70861W        W43286  39.475  26.009  14.394
70862W        W43287  17.697  29.085  13.455
70863W        W43288  31.915  21.259   5.204
70864W        W43289  29.612  22.018   0.906
70865W        W43290  19.178   5.227  12.910
70866W        W43291  35.037  22.676  11.529
70867W        W43292  21.132  37.956  14.301
70868W        W43293  20.700  32.065  11.431
70869W        W43294  18.215  34.492  13.309
70870W        W43295  20.755  36.442  13.371
70871W        W43296  30.040  42.809  11.010
70872W        W43297   7.326  26.171   1.916
70873W        W43298  37.496  31.416  11.044
70874W        W43299  15.600  35.394   0.361
70875W        W43300  44.970  35.560   1.727
70876W        W43301  30.460  35.867  11.036
70877W        W43302  11.673  13.187  13.509
70878W        W43303  26.538  27.977   0.382
70879W        W43304  15.640  43.874   3.807
70880W        W43305  20.257  40.949   2.822
70881W        W43306  34.014  28.622   1.697
70882W        W43307  16.202  20.040  13.806
70883W        W43308  27.657  31.639   0.264
70884W        W43309  18.620   8.246   1.814
70885W        W43310  39.918  13.205   2.191
70886W        W43311  20.662   8.897   1.761
70887W        W43312  42.486   2.841  11.458
70888W        W43313  35.938   2.243  10.460
70889W        W43314  25.662  15.645   5.250
70890W        W43315  18.052  20.230  12.999
70891W        W43316  21.175   1.845  11.483
70892W        W43317  25.974   8.162  12.534
70893W        W43318  13.127  27.475   0.301
70894W        W43319   6.228  10.751  12.370
70895W        W43320   4.889   3.329  14.881
70896W        W43321  41.942  23.124  12.980
70897W        W43322   3.785  30.636   1.926
70898W        W43323  39.020  21.134  13.015
70899W        W43324   0.920  10.205   4.194
70900W        W43325  31.920   5.408   3.160
70901W        W43326  25.690  36.095  14.449
70902W        W43327  30.635   6.817  11.488
70903W        W43328  37.890  40.483   9.928
70904W        W43329  13.281  11.641   5.180
70905W        W43330   1.376  31.115  10.615
70906W        W43331  41.477  22.647  11.590
70907W        W43332  16.613  41.018  10.597
70908W        W43333   7.248  40.316  12.870
70909W        W43334  25.704  37.364  13.890
70910W        W43335  36.385  41.018  12.067
70911W        W43336  36.562  35.930  13.384
70912W        W43337  16.573  17.281   4.221
70913W        W43338  24.496  28.137   3.242
70914W        W43339  37.069  28.671   3.278
70915W        W43340  27.003  11.185   4.235
70916W        W43341  32.083  24.186  13.977
70917W        W43342  11.247   4.922   9.975
70918W        W43343  41.817  43.883   2.688
70919W        W43344  30.923  31.599  14.984
70920W        W43345  42.333  23.074   1.450
70921W        W43346   0.805  41.538   5.171
70922W        W43347  24.062  37.086   1.759
70923W        W43348  30.569  36.482   3.235
70924W        W43349  11.287  19.125   0.262
70925W        W43350  40.960   0.961  14.290
70926W        W43351  39.359  36.936  12.578
70927W        W43352  30.549  43.488   3.237
70928W        W43353   9.371  32.114   0.742
70929W        W43354  34.924  39.445   1.729
70930W        W43355  22.028   1.809   4.242
70931W        W43356   6.279  15.782   9.951
70932W        W43357  12.138   7.791   4.616
70933W        W43358   1.274  43.922   3.781
70934W        W43359   3.392  40.977   1.724
70935W        W43360   0.915  33.056   4.609
70936W        W43361   3.751  15.273   0.835
70937W        W43362  12.739  19.574  11.041
70938W        W43363  28.008  32.554   3.782
70939W        W43364   9.162  28.146   0.910
70940W        W43365  21.631  33.550   2.239
70941W        W43366   0.440   5.418  12.042
70942W        W43367   4.858  44.454   1.903
70943W        W43368   6.780   8.278   0.792
70944W        W43369  38.954  39.499   2.192
70945W        W43370  34.890  36.922   1.399
70946W        W43371  39.540  26.083  10.956
70947W        W43372  38.037  24.178   0.820
70948W        W43373  27.024  43.772   1.923
70949W        W43374  29.514  20.061   0.442
70950W        W43375   3.946   4.860  10.525
70951W        W43376  16.244  29.943  10.486
70952W        W43377  36.931  21.607   4.247
70953W        W43378   6.417  28.524  14.503
70954W        W43379   0.467  27.135   0.370
70955W        W43380  42.001  33.048  14.968
70956W        W43381  21.202  35.010   1.412
70957W        W43382  27.981  12.203  11.377
70958W        W43383  22.090  28.032  11.944
70959W        W43384  42.406  38.968   2.695
70960W        W43385  39.407  39.512   3.724
70961W        W43386   8.676  11.128  14.812
70962W        W43387  13.307  27.154  14.781
70963W        W43388  13.254   4.384   3.294
70964W        W43389  27.189  31.024   2.698
70965W        W43390  35.078  35.995  11.437
70966W        W43391  39.960  17.138   2.186
70967W        W43392  36.022  40.466  12.523
70968W        W43393  20.184  39.323   0.855
70969W        W43394  23.546  31.965   0.414
70970W        W43395  44.497  37.964  10.555
70971W        W43396  24.481  14.791  13.408
70972W        W43397   8.749  11.256  13.955
70973W        W43398   0.932  19.550   1.857
70974W        W43399  15.174   2.467  12.424
70975W        W43400  32.124   3.407  13.047
70976W        W43401  40.963  28.608  11.000
70977W        W43402  35.019  33.430  11.880
70978W        W43403  16.179  25.557   1.273
70979W        W43404  28.966  44.863  14.408
70980W        W43405   4.204   3.871   2.260
70981W        W43406  24.024  39.855  14.478
70982W        W43407  30.540  42.844  10.576
70983W        W43408  14.191  40.352   0.948
70984W        W43409  26.523   1.454  14.505
70985W        W43410  11.766  14.148  12.401
70986W        W43411   8.364  30.062  11.530
70987W        W43412  33.562  19.567   0.407
70988W        W43413  43.506  27.965  11.051
70989W        W43414   4.272   4.792   4.202
70990W        W43415  40.997  15.198  12.943
70991W        W43416   4.411   8.375  12.078
70992W        W43417  32.467  11.186   4.130
70993W        W43418  31.135  24.184  14.350
70994W        W43419  36.360  38.061   1.284
70995W        W43420   1.802  16.074  13.050
70996W        W43421  31.103   3.404   1.229
70997W        W43422  30.154  34.402  14.824
70998W        W43423  22.033  38.027  10.542
70999W        W43424  40.041  44.871   0.391
71000W        W43425  16.208  24.712   0.424
71001W        W43426  26.164  30.574   1.363
71002W        W43427  24.135  19.091   0.467
71003W        W43428   3.770  19.596  12.553
71004W        W43429  27.115  33.065   5.706
71005W        W43430  28.620   3.420  14.952
71006W        W43431  33.916  39.383  13.877
71007W        W43432  12.649   7.910  13.382
71008W        W43433   1.947   4.222  12.572
71009W        W43434   4.784  24.566   4.801
71010W        W43435  33.474  31.933  13.535
71011W        W43436  22.151  11.793   4.678
71012W        W43437  16.261  31.630   3.358
71013W        W43438  33.609  17.653  13.422
71014W        W43439  12.202  18.095  11.566
71015W        W43440  33.076  39.384  12.539
71016W        W43441  31.418   3.283  12.524
71017W        W43442  32.969  26.167   0.836
71018W        W43443  40.414  13.772   0.470
71019W        W43444  33.094  11.755   2.820
71020W        W43445  34.451  43.848  12.970
71021W        W43446  43.444  15.610  10.604
71022W        W43447   7.847  43.349  13.919
71023W        W43448  41.366  42.842  11.502
71024W        W43449  39.324  13.340  13.807
71025W        W43450  38.514  14.136   2.724
71026W        W43451  37.875  33.513   1.905
71027W        W43452   4.269  18.762  11.403
71028W        W43453  32.479  30.028  13.482
71029W        W43454  40.433  12.759  10.485
71030W        W43455  35.944   7.208  14.380
71031W        W43456  34.047  30.585   1.249
71032W        W43457  10.180  20.739  12.835
71033W        W43458  21.218   7.346   4.211
71034W        W43459  29.545  37.430   5.169
71035W        W43460  21.123  10.768   0.328
71036W        W43461  22.555   0.917   3.247
71037W        W43462  16.786  31.516   0.452
71038W        W43463  29.632  33.576  14.437
71039W        W43464   5.722  14.151  11.959
71040W        W43465   0.259  10.753  14.811
71041W        W43466  44.278  31.544   4.170
71042W        W43467  12.715  32.950  10.603
71043W        W43468  23.631  26.028  12.470
71044W        W43469  30.514  25.059  14.291
71045W        W43470  26.529  12.169   4.642
71046W        W43471  27.599  42.382  10.945
71047W        W43472  35.040  32.554   4.188
71048W        W43473  35.898  15.166  13.472
71049W        W43474  19.270  23.074   1.392
71050W        W43475  19.265   0.970   2.787
71051W        W43476  13.732  31.404  14.828
71052W        W43477  42.483  23.033  13.385
71053W        W43478  21.253  32.444   4.709
71054W        W43479  12.854  39.414  13.316
71055W        W43480   5.835  20.259  14.948
71056W        W43481  35.042  30.056   1.766
71057W        W43482  40.304   6.328  13.801
71058W        W43483  36.524  41.827   3.340
71059W        W43484   5.358   1.870   4.765
71060W        W43485  20.102  17.673  10.465
71061W        W43486  24.160   3.391   1.840
71062W        W43487  44.937  36.506   0.931
71063W        W43488  14.293  30.038  11.027
71064W        W43489   6.780   3.944   2.740
71065W        W43490  32.476  12.802  14.407
71066W        W43491  22.712   7.338  13.393
71067W        W43492  16.072  21.655  12.566
71068W        W43493  28.638  30.570  14.442
71069W        W43494   9.795   8.680   5.574
71070W        W43495  36.515  15.776   4.633
71071W        W43496  12.704  41.459   1.768
71072W        W43497   9.262  19.660   2.725
71073W        W43498   8.723  11.671   4.679
71074W        W43499  22.594  22.504   0.417
71075W        W43500  30.422  28.620  10.531
71076W        W43501  26.698   7.767  14.487
71077W        W43502  10.174  26.123   4.687
71078W        W43503  35.519   2.751   1.398
71079W        W43504  19.674   1.247  14.778
71080W        W43505  40.487  36.437  13.343
71081W        W43506  13.805  15.580   4.829
71082W        W43507  26.137  13.627  10.925
71083W        W43508  19.271  13.204  14.852
71084W        W43509   2.277  16.804   1.259
71085W        W43510  41.032  36.362   2.769
71086W        W43511  18.612  22.723  14.932
71087W        W43512   2.825  17.083   3.245
71088W        W43513  30.623   1.396   4.612
71089W        W43514   3.915  29.587  11.512
71090W        W43515  26.114   7.386   2.719
71091W        W43516  23.096  13.207   2.850
71092W        W43517  24.221  19.692   3.154
71093W        W43518  13.210  39.913   2.193
71094W        W43519   4.358  42.804   4.708
71095W        W43520   0.374  21.617  12.959
71096W        W43521  24.641   1.292  14.331
71097W        W43522  20.071  10.372   0.483
71098W        W43523  30.116  10.358  11.092
71099W        W43524  10.185   0.353   3.678
71100W        W43525  12.759  22.234  10.124
71101W        W43526   5.300  22.717  13.007
71102W        W43527  34.995   1.345  12.009
71103W        W43528  11.784  40.426   0.788
71104W        W43529  44.476   3.437   0.813
71105W        W43530  34.417  22.532  12.048
71106W        W43531  35.595  23.235  11.490
71107W        W43532  29.007  37.355  10.421
71108W        W43533  30.954  14.173   2.823
71109W        W43534   6.200  32.114  11.859
71110W        W43535  28.665  22.033  14.020
71111W        W43536  32.000  33.077  12.924
71112W        W43537  28.094  11.724   1.281
71113W        W43538  32.414  14.256   5.271
71114W        W43539   7.345  37.080  13.431
71115W        W43540  42.822  11.232   1.799
71116W        W43541   2.427  37.963  14.947
71117W        W43542  39.960   2.910   4.317
71118W        W43543  10.640   9.740   0.913
71119W        W43544  17.649  27.514   2.884
71120W        W43545  42.972  10.802   4.134
71121W        W43546   2.406  30.540  10.559
71122W        W43547  44.367  31.036   4.182
71123W        W43548   5.392  38.014  10.951
71124W        W43549  19.237  18.179  12.539
71125W        W43550  31.011  22.193   4.162
71126W        W43551  13.286   6.354   1.355
71127W        W43552  13.719  26.031   1.742
71128W        W43553  36.404  23.024   1.755
71129W        W43554  27.522  21.725  13.542
71130W        W43555   4.804  16.813  12.004
71131W        W43556  18.165  19.115   4.230
71132W        W43557  42.404  11.146   0.932
71133W        W43558  25.481   6.867  12.055
71134W        W43559  29.953  17.788  10.116
71135W        W43560  32.039  10.260   1.891
71136W        W43561  42.463  43.779  10.936
71137W        W43562  33.401  11.777  10.928
71138W        W43563  31.011  18.156  12.070
71139W        W43564   0.926  23.026   0.414
71140W        W43565   0.832  30.562   2.748
71141W        W43566  32.963  29.082  14.971
71142W        W43567  14.611  38.460  10.963
71143W        W43568  42.951   1.924   0.330
71144W        W43569  39.013  11.779  11.397
71145W        W43570  37.077  43.998   2.249
71146W        W43571   0.493  28.059  14.930
71147W        W43572  20.702  27.026   2.684
71148W        W43573   3.408  41.520  11.479
71149W        W43574  35.418  30.157  12.578
71150W        W43575  14.126  42.419   2.303
71151W        W43576   0.385  12.312  14.363
71152W        W43577  38.848  36.547   0.738
71153W        W43578   9.809   8.894   5.144
71154W        W43579  26.169   1.735   3.667
71155W        W43580  15.613  17.680   1.910
71156W        W43581  15.278  14.743  11.061
71157W        W43582   0.832  33.053  14.021
71158W        W43583  14.326  35.091  14.985
71159W        W43584  42.400  43.377  12.093
71160W        W43585   0.423  39.017   2.342
71161W        W43586  42.815  14.265  12.390
71162W        W43587  34.463  21.108   3.841
71163W        W43588  28.017  11.189  12.373
71164W        W43589   4.224  16.318  13.833
71165W        W43590  30.610   2.930  12.358
71166W        W43591  31.544  30.543  14.025
71167W        W43592  21.690  37.979  11.444
71168W        W43593  44.957  10.673   1.808
71169W        W43594  30.921  14.611  14.496
71170W        W43595  39.989  43.897  10.619
71171W        W43596   7.319  20.226   3.352
71172W        W43597  30.653   1.902  14.861
71173W        W43598   8.727  34.939   4.832
71174W        W43599  39.361  41.350   1.265
71175W        W43600   6.259  10.695   1.450
71176W        W43601  10.164  10.264  10.951
71177W        W43602  29.044  23.544   0.249
71178W        W43603   5.257  41.449   0.480
71179W        W43604  12.151  21.139  12.017
71180W        W43605  12.242  43.848  14.943
71181W        W43606  43.986  11.652  14.778
71182W        W43607   4.903  21.514   4.619
71183W        W43608  14.330  12.216  13.517
71184W        W43609   2.812  14.828  14.360
71185W        W43610  18.105   4.303  13.417
71186W        W43611  34.121  35.376   1.780
71187W        W43612  15.794   3.343  11.922
71188W        W43613   3.764  22.586  10.024
71189W        W43614  15.702  29.934   3.287
71190W        W43615  28.592  41.329  13.013
71191W        W43616  37.486   1.390  12.976
71192W        W43617   2.767  29.166  13.992
71193W        W43618  14.144  12.757  10.546
71194W        W43619  34.475  35.976  13.543
71195W        W43620  16.185  13.308   2.841
71196W        W43621  18.684   9.298   1.886
71197W        W43622  23.172   4.931  14.300
71198W        W43623  19.619   3.267  13.064
71199W        W43624  37.060  13.737  13.483
71200W        W43625  24.687   5.772   0.394
71201W        W43626   3.848  39.376  12.048
71202W        W43627  15.650  22.022   2.709
71203W        W43628  16.592   7.247  12.081
71204W        W43629  31.055  41.426   3.267
71205W        W43630  20.183  12.141   1.866
71206W        W43631  21.223  17.782  12.011
71207W        W43632  11.814  28.986  11.606
71208W        W43633  25.031  18.742  11.027
71209W        W43634   8.292  25.126  11.434
71210W        W43635  40.032  36.056   1.328
71211W        W43636  16.599  43.293  10.568
71212W        W43637  36.486   3.927  14.027
71213W        W43638  32.455  44.771   0.788
71214W        W43639  14.832  16.264  14.794
71215W        W43640   0.756  11.328   4.662
71216W        W43641  23.628  15.221   2.407
71217W        W43642  32.960   7.324  14.414
71218W        W43643  35.085  19.271  12.003
71219W        W43644  26.020   5.798  11.414
71220W        W43645  41.316  20.188   0.446
71221W        W43646  21.527  41.889  13.413
71222W        W43647   7.697   3.787   2.808
71223W        W43648  44.969  33.126   0.344
71224W        W43649  13.819   8.875  12.925
71225W        W43650  25.190   2.361  10.640
71226W        W43651   8.704  15.091   1.894
71227W        W43652  16.289  36.428  12.062
71228W        W43653  15.687  27.039  12.393
71229W        W43654  18.641  12.623   1.417
71230W        W43655   0.366  37.510  12.369
71231W        W43656  29.085  25.050  11.900
71232W        W43657  38.509   8.695  11.424
71233W        W43658   1.952   5.687  11.091
71234W        W43659  18.568   1.921  11.409
71235W        W43660  15.649  24.126  14.926
71236W        W43661  39.329  12.316  13.978
71237W        W43662  18.730  32.456  13.437
71238W        W43663   3.394  23.150   3.757
71239W        W43664  32.089  20.044   3.211
71240W        W43665  18.741  22.008   1.777
71241W        W43666  42.815  25.560  10.487
71242W        W43667  42.498  14.698   1.722
71243W        W43668   3.257   5.766   4.669
71244W        W43669   6.880  29.615  14.913
71245W        W43670  19.285  39.842  12.877
71246W        W43671  23.543  29.461  14.458
71247W        W43672  27.518  40.477   0.436
71248W        W43673   1.942  43.270   2.714
71249W        W43674  40.845  17.578   0.816
71250W        W43675  30.988  41.317   2.330
71251W        W43676  18.673  14.598   2.709
71252W        W43677  32.054   0.930   1.694
71253W        W43678  19.176  28.004   0.461
71254W        W43679  16.760   7.348  14.497
71255W        W43680  30.507  10.213  12.510
71256W        W43681  14.333  31.478  13.499
71257W        W43682  37.511  34.097  13.525
71258W        W43683  32.515   7.818   0.367
71259W        W43684  28.935   9.221  13.806
71260W        W43685  25.157  40.487   1.698
71261W        W43686   7.352  12.721   3.373
71262W        W43687  25.676  19.043   2.227
71263W        W43688   0.339  41.399   4.777
71264W        W43689  16.766  32.114  13.875
71265W        W43690   8.293  36.568  10.890
71266W        W43691  36.577  36.446   3.207
71267W        W43692  38.941   2.317  12.972
71268W        W43693  19.755  17.189   1.717
71269W        W43694  24.496   3.815  13.045
71270W        W43695  19.582  29.669   4.710
71271W        W43696   4.755  34.473  11.113
71272W        W43697  23.724  30.516   4.662
71273W        W43698  11.636  12.647  12.961
71274W        W43699  19.216  26.582  13.870
71275W        W43700  41.344  19.042  14.896
71276W        W43701  37.029  31.492  11.979
71277W        W43702  41.807   2.765  13.543
71278W        W43703  23.670  40.900   1.373
71279W        W43704  30.912  18.630   2.771
71280W        W43705  16.154  35.070  11.938
71281W        W43706  10.710   8.237  13.895
71282W        W43707  23.651   4.266   3.301
71283W        W43708  28.675   3.253   1.223
71284W        W43709  22.744  38.383  10.981
71285W        W43710   6.282  34.972  14.388
71286W        W43711  20.110  11.194   3.380
71287W        W43712  16.644   4.391  13.927
71288W        W43713   9.813  29.937  11.425
71289W        W43714  28.976   6.393  11.125
71290W        W43715  40.839  33.463  11.016
71291W        W43716  12.318   1.826  13.489
71292W        W43717  24.655  33.123  12.933
71293W        W43718  39.907  23.016  11.456
71294W        W43719   6.369  36.559  14.379
71295W        W43720  32.478  28.567  14.445
71296W        W43721  32.958  26.191  12.991
71297W        W43722  39.038  17.605   1.311
71298W        W43723  43.905  34.024  11.502
71299W        W43724  31.438   7.870   4.637
71300W        W43725  41.036  43.884   3.644
71301W        W43726  14.737  30.158   1.363
71302W        W43727  38.485  29.136   2.784
71303W        W43728  14.770   0.891  12.466
71304W        W43729  27.984   0.780  13.491
71305W        W43730  28.031  20.223  13.953
71306W        W43731  16.735  25.037   1.393
71307W        W43732  28.571  28.626  11.532
71308W        W43733   0.438  38.878   4.597
71309W        W43734  24.182  21.113  11.925
71310W        W43735   0.770  21.722   2.859
71311W        W43736  25.493  34.023   3.212
71312W        W43737  43.885  30.579   2.781
71313W        W43738  26.083   2.254   2.278
71314W        W43739  17.177  11.671  14.389
71315W        W43740  38.443  42.955   0.391
71316W        W43741  39.505   0.951  13.433
71317W        W43742  30.974   4.794   0.283
71318W        W43743  27.067  15.096   0.331
71319W        W43744  14.115  18.149  11.891
71320W        W43745  42.849  37.952   2.224
71321W        W43746  37.900  15.605  11.927
71322W        W43747  17.634  44.870   3.713
71323W        W43748  44.971  32.540   3.726
71324W        W43749  17.720  12.275   2.346
71325W        W43750  15.253  19.607   4.619
71326W        W43751  34.443   6.828  10.535
71327W        W43752   8.247  34.532  10.479
71328W        W43753  10.213  20.212   3.246
71329W        W43754  44.991  32.456   2.271
71330W        W43755  11.177  21.554   0.844
71331W        W43756   3.816  24.027   3.656
71332W        W43757   6.813  30.636   0.292
71333W        W43758   0.466   8.247  14.982
71334W        W43759  30.963  42.943   4.832
71335W        W43760  23.570  27.645  12.052
71336W        W43761  17.105  23.200   3.702
71337W        W43762  13.833  20.615   0.952
71338W        W43763  12.679  24.595   4.788
71339W        W43764  40.054  22.730  12.043
71340W        W43765  28.646  35.935  11.551
71341W        W43766  44.341  18.153   1.428
71342W        W43767  27.629  32.013   2.389
71343W        W43768   8.752   1.792   3.327
71344W        W43769  13.751  20.235   4.141
71345W        W43770  25.113  41.305  11.549
71346W        W43771  42.914  39.833  12.550
71347W        W43772  34.987  24.216  13.934
71348W        W43773  21.540  20.107  13.860
71349W        W43774  12.354  25.493  11.018
71350W        W43775  35.600  39.468   2.711
71351W        W43776  34.610  42.357  12.831
71352W        W43777   7.679  18.684  14.768
71353W        W43778  17.107  26.148  10.061
71354W        W43779  34.422  20.207  13.964
71355W        W43780  13.781  26.133   3.670
71356W        W43781  41.918   7.235  10.078
71357W        W43782  35.932  21.135  13.946
71358W        W43783  42.021  14.772  14.773
71359W        W43784  31.085  14.176  10.445
71360W        W43785   5.785  32.050  14.013
71361W        W43786  27.511  26.975   4.792
71362W        W43787  40.906  44.320  12.973
71363W        W43788   0.900  23.716   3.765
71364W        W43789  30.471  11.707  12.847
71365W        W43790  35.904  35.527  12.920
71366W        W43791  20.704  19.664   4.235
71367W        W43792   9.379  35.862   1.292
71368W        W43793   3.327  32.527   1.315
71369W        W43794   5.923  26.664   3.280
71370W        W43795  29.622  44.986  14.311
71371W        W43796   2.255  11.855  12.891
71372W        W43797  19.647  39.879  11.036
71373W        W43798  31.984  41.035  11.057
71374W        W43799  16.102  32.064  13.876
71375W        W43800  42.978  10.869   4.762
71376W        W43801  28.631  14.637  13.879
71377W        W43802  30.603   1.273  11.490
71378W        W43803  37.457  24.605   4.836
71379W        W43804  38.397  24.562  11.939
71380W        W43805  24.054  33.599  14.790
71381W        W43806  35.031  41.513  14.915
71382W        W43807   9.270  25.072   5.239
71383W        W43808  40.317  42.301   5.311
71384W        W43809   3.779  20.717  12.420
71385W        W43810  36.913  30.566  12.514
71386W        W43811  11.789  22.083  12.446
71387W        W43812  10.818   4.943  10.579
71388W        W43813  21.254  43.953  12.063
71389W        W43814  10.859  37.011   4.683
71390W        W43815  35.861  39.464  12.919
71391W        W43816  18.170  38.345  14.418
71392W        W43817  23.605  31.032  14.446
71393W        W43818  44.824  39.349  14.300
71394W        W43819  18.611   1.283  14.971
71395W        W43820  34.420   4.877   0.460
71396W        W43821  40.003  31.564   4.178
71397W        W43822  34.938   2.735   2.807
71398W        W43823  37.556   6.338  13.027
71399W        W43824  39.829   3.766  12.037
71400W        W43825  25.986  36.545   3.693
71401W        W43826  36.035  30.967  14.846
71402W        W43827  43.468  44.902   1.850
71403W        W43828  24.102  17.230   4.232
71404W        W43829   1.289  41.917   3.702
71405W        W43830  14.595   0.261   3.250
71406W        W43831  10.804  30.058   4.758
71407W        W43832  17.079  35.855  12.851
71408W        W43833  14.123  26.122   3.733
71409W        W43834  42.438   4.281  10.530
71410W        W43835  30.957  19.579   4.683
71411W        W43836  43.814  25.069   3.271
71412W        W43837  17.192  14.774  10.133
71413W        W43838  44.428  13.124  12.824
71414W        W43839  41.486  33.102   3.170
71415W        W43840  19.106  44.398   1.699
71416W        W43841  20.057  27.670   4.135
71417W        W43842   4.212  28.511   2.756
71418W        W43843  17.785  30.112  12.053
71419W        W43844  19.241   2.805   4.349
71420W        W43845  27.671  21.057  12.081
71421W        W43846  43.371  39.988  10.547
71422W        W43847  32.515   5.200   0.858
71423W        W43848  28.994  16.589  11.990
71424W        W43849   0.780  44.764   1.389
71425W        W43850  44.415  42.374   4.819
71426W        W43851  13.204   7.720  12.907
71427W        W43852  16.662  21.170  12.088
71428W        W43853  14.614  32.402  11.392
71429W        W43854  23.670  24.215   2.664
71430W        W43855  25.531  29.028   3.865
71431W        W43856  13.251  43.931  10.491
71432W        W43857   3.398  41.305   1.866
71433W        W43858  22.235  42.843  13.457
71434W        W43859  32.111  25.998   1.773
71435W        W43860  19.773  25.612   4.133
71436W        W43861  21.556  20.111  14.941
71437W        W43862  20.162  24.537   3.654
71438W        W43863  15.695  17.752  12.919
71439W        W43864  35.984  18.629  12.513
71440W        W43865  38.375  41.351   2.767
71441W        W43866  21.229  36.359   2.289
71442W        W43867  23.201  27.529  10.954
71443W        W43868  41.973  25.555  13.981
71444W        W43869  11.659   4.818  10.156
71445W        W43870   7.888  19.758   4.632
71446W        W43871   2.960  37.929   4.769
71447W        W43872   0.952  42.374  12.842
71448W        W43873  25.636  39.862  12.444
71449W        W43874  27.451  11.687  14.293
71450W        W43875  35.519  19.131  10.615
71451W        W43876   8.704   4.367  12.915
71452W        W43877  25.586  16.661   0.475
71453W        W43878  27.140  26.987  11.980
71454W        W43879   0.327  28.496  13.901
71455W        W43880  40.378  19.247  12.513
71456W        W43881   2.367  36.009  12.929
71457W        W43882  19.221   3.393  10.495
71458W        W43883  37.446   4.792   1.775
71459W        W43884  29.514   1.261  11.888
71460W        W43885  13.345  38.040  14.779
71461W        W43886  17.633  19.743  14.780
71462W        W43887  15.763  16.244   0.438
71463W        W43888   0.804   2.923   0.390
71464W        W43889  32.064  26.597  10.900
71465W        W43890  43.797  38.061   3.316
71466W        W43891   1.819  38.905   2.804
71467W        W43892  30.523  13.147  13.941
71468W        W43893  34.610  16.263  12.836
71469W        W43894   8.755   3.853   4.605
71470W        W43895  23.222  20.113  14.315
71471W        W43896   3.401  20.571   0.367
71472W        W43897  27.046  34.579   4.826
71473W        W43898  42.838   3.410  11.907
71474W        W43899  31.458  28.159  13.983
71475W        W43900  39.933  34.041   4.643
71476W        W43901   3.888  25.191  14.030
71477W        W43902  34.952  40.391   3.317
71478W        W43903  40.941   9.712  12.909
71479W        W43904  10.822  38.031   3.212
71480W        W43905  14.770  35.554  12.029
71481W        W43906  43.821  15.310   3.814
71482W        W43907  43.295  41.801  11.917
71483W        W43908  19.601  23.200  12.531
71484W        W43909  38.869  16.105  14.829
71485W        W43910  35.008  15.091   4.295
71486W        W43911  18.296  24.166   4.764
71487W        W43912  20.029   6.752   4.121
71488W        W43913  11.729   2.391  11.098
71489W        W43914   0.850  27.947  12.351
71490W        W43915  34.071  44.760  13.501
71491W        W43916  11.757  37.380  12.505
71492W        W43917  22.651  41.830  11.462
71493W        W43918  33.946  44.278  13.020
71494W        W43919   5.275  26.113  11.558
71495W        W43920  39.021  44.956  10.412
71496W        W43921  12.164  36.379   4.177
71497W        W43922  37.965  37.475   0.965
71498W        W43923   2.870  44.353  14.446
71499W        W43924  27.488  39.942   1.828
71500W        W43925  29.070  33.545  14.292
71501W        W43926  44.342  28.013  14.804
71502W        W43927  38.526   4.356   1.224
71503W        W43928  44.764  35.436   0.800
71504W        W43929  17.578  37.886   4.123
71505W        W43930  15.652  24.014   4.321
71506W        W43931  25.055   7.304  12.453
71507W        W43932  16.223  24.609   0.939
71508W        W43933  14.717  21.722   4.143
71509W        W43934  31.641  44.427  13.477
71510W        W43935  29.453  10.283   3.190
71511W        W43936  41.299  34.467  13.505
71512W        W43937  44.901  13.844   4.247
71513W        W43938  42.795   0.982   1.330
71514W        W43939  28.932  14.323  14.893
71515W        W43940  16.254   6.913   3.380
71516W        W43941  15.317  42.311  13.854
71517W        W43942   2.452  29.559   5.287
71518W        W43943   1.250  30.968  12.831
71519W        W43944  40.827   2.319  11.983
71520W        W43945  42.911  22.666   5.285
71521W        W43946  18.620  34.018   3.185
71522W        W43947   3.445  41.478  12.414
71523W        W43948  19.690   8.289   3.729
71524W        W43949   7.308  23.047   1.393
71525W        W43950   1.421  20.692   1.725
71526W        W43951   3.226  28.442   1.450
71527W        W43952   5.826  13.336  11.029
71528W        W43953   0.431  34.534   1.724
71529W        W43954  17.235  36.389  14.797
71530W        W43955  20.700  16.074   3.841
71531W        W43956  31.604  16.161   3.184
71532W        W43957  33.074   2.962  11.578
71533W        W43958  13.292  32.578  10.436
71534W        W43959   2.917  29.589   0.429
71535W        W43960  12.168  41.831  10.999
71536W        W43961   7.738  39.401  13.793
71537W        W43962  24.511  14.331   4.616
71538W        W43963   4.945  26.559  10.592
71539W        W43964  43.278  23.019   0.851
71540W        W43965  21.050  39.959  14.454
71541W        W43966  23.125  19.642   1.258
71542W        W43967  27.150  12.148   3.172
71543W        W43968  11.369  18.706   0.437
71544W        W43969  43.847  25.974  12.415
71545W        W43970  27.508  15.772   0.387
71546W        W43971  38.024  18.789  13.316
71547W        W43972  28.067  35.386   1.352
71548W        W43973  17.791  19.556  12.392
71549W        W43974   4.869  32.111  11.546
71550W        W43975  18.729  14.229   2.252
71551W        W43976  33.510  17.647  12.874
71552W        W43977  12.748  31.117   3.185
71553W        W43978  39.455  36.506  14.281
71554W        W43979   3.224   2.419  10.503
71555W        W43980  35.061  40.353   4.729
71556W        W43981  32.581  41.022  12.917
71557W        W43982  44.386  14.102  14.888
71558W        W43983  12.226  35.560  14.859
71559W        W43984   7.817   2.816   3.713
71560W        W43985  43.854  22.030   4.322
71561W        W43986  17.788  19.125   0.361
71562W        W43987  44.802  26.560   3.277
71563W        W43988  23.664  12.636   1.362
71564W        W43989  14.288  25.083   4.747
71565W        W43990  19.142  29.166   0.754
71566W        W43991  24.678  21.677  12.480
71567W        W43992  25.102   1.756  12.031
71568W        W43993  40.882  43.452  11.093
71569W        W43994  20.143  38.040  12.082
71570W        W43995  16.272  24.230  12.841
71571W        W43996  35.909  17.659   2.228
71572W        W43997   3.723  34.464  12.868
71573W        W43998  31.112  40.009   0.286
71574W        W43999  15.328   7.229   2.192
71575W        W44000  22.190  29.436  14.892
71576W        W44001  12.855  35.995   2.776
71577W        W44002  27.100  44.331   1.431
71578W        W44003   6.229  24.684  12.899
71579W        W44004  33.584  12.727  13.504
71580W        W44005  16.196  35.096  13.932
71581W        W44006  44.414  19.572   1.217
71582W        W44007  29.639  12.776  14.804
71583W        W44008  23.167  23.682   3.822
71584W        W44009   2.384   1.455   3.859
71585W        W44010  22.525  37.397  14.422
71586W        W44011  43.890  24.140  10.965
71587W        W44012  12.672  31.059  12.076
71588W        W44013  11.645  11.823  14.845
71589W        W44014  12.259  34.602   2.711
71590W        W44015  22.540  38.959  10.511
71591W        W44016  40.525   7.393  12.946
71592W        W44017  20.542  31.927   4.600
71593W        W44018  26.086   9.831  11.510
71594W        W44019  29.522   3.281  12.530
71595W        W44020  36.020  25.516   1.448
71596W        W44021  23.140   2.875   0.480
71597W        W44022  36.968  21.122  10.426
71598W        W44023  32.083  23.657   5.251
71599W        W44024  25.998  34.962  12.015
71600W        W44025   4.204  40.914   4.727
71601W        W44026   3.790  13.707   2.365
71602W        W44027   4.377  18.108   0.751
71603W        W44028  30.948  25.021   1.281
71604W        W44029  15.678  10.835  14.022
71605W        W44030  38.357  30.047   1.320
71606W        W44031   5.373  23.039   2.666
71607W        W44032   6.426  39.037   1.301
71608W        W44033  19.121  32.621   3.226
71609W        W44034  15.231  32.477  13.803
71610W        W44035   9.691   5.862  12.506
71611W        W44036   9.887   7.694   3.862
71612W        W44037  16.137  28.599  14.464
71613W        W44038  42.786  34.508  12.047
71614W        W44039   1.928  42.476  14.014
71615W        W44040   0.289  13.838   3.652
71616W        W44041  18.066  20.690  11.867
71617W        W44042  32.549  13.795   3.279
71618W        W44043  24.478  44.491  13.342
71619W        W44044  20.094   7.355  12.837
71620W        W44045   3.354  22.090   4.278
71621W        W44046  18.758  43.342  14.419
71622W        W44047  14.805  18.604   4.285
71623W        W44048   8.727  17.187  12.036
71624W        W44049  21.143  30.490   1.823
71625W        W44050  31.952   4.283  10.526
71626W        W44051  44.996   8.273  11.568
71627W        W44052  11.650   9.242   0.349
71628W        W44053  13.196  39.040  12.368
71629W        W44054  14.597  24.033   4.673
71630W        W44055  37.027  21.213   4.610
71631W        W44056  11.839  37.038   3.239
71632W        W44057  28.654  12.168  11.966
71633W        W44058   3.429  44.770   4.338
71634W        W44059  31.402  33.618   1.770
71635W        W44060  26.012  38.904   4.342
71636W        W44061   4.314  28.032  12.413
71637W        W44062  36.864  10.873  13.876
71638W        W44063  16.282  10.857  13.951
71639W        W44064  39.540   7.309  12.070
71640W        W44065  33.959  41.859  13.038
71641W        W44066   7.869  17.747  12.981
71642W        W44067  18.072  19.757  14.899
71643W        W44068  32.559   0.352   2.721
71644W        W44069  36.512   3.280   1.297
71645W        W44070  18.206   5.779  13.448
71646W        W44071  13.110  23.521   4.786
71647W        W44072  33.405  33.579  10.525
71648W        W44073  44.916  32.531   1.444
71649W        W44074  10.672  20.761   2.900
71650W        W44075  25.106  12.243   1.342
71651W        W44076  30.086  13.133  10.974
71652W        W44077   8.187   3.942  13.045
71653W        W44078   1.920  36.973   3.327
71654W        W44079  29.508   6.745   3.866
71655W        W44080  19.040  14.111   3.245
71656W        W44081  11.751  28.096  14.461
71657W        W44082  28.958  23.091   0.737
71658W        W44083  23.072   2.823  10.579
71659W        W44084   5.928  35.898  10.932
71660W        W44085  33.104  11.779  11.380
71661W        W44086   5.239  21.515  10.518
71662W        W44087  31.648  37.511  10.457
71663W        W44088   3.813  42.350   0.816
71664W        W44089   1.746  23.015  12.401
71665W        W44090  35.028   4.883  14.477
71666W        W44091  14.254  23.121   2.740
71667W        W44092  37.010  43.810   3.266
71668W        W44093  24.485  15.233  12.848
71669W        W44094  38.501  39.415   0.450
71670W        W44095  12.272  44.947   1.359
71671W        W44096   4.903  11.225  13.331
71672W        W44097  27.095  42.809  12.420
71673W        W44098  21.225  40.455   2.788
71674W        W44099  32.060  39.909  12.026
71675W        W44100   0.845  23.533   1.293
71676W        W44101  34.531   9.273  11.111
71677W        W44102  35.568   4.857   2.860
71678W        W44103  36.928   9.320  11.994
71679W        W44104  18.214  10.752  14.832
71680W        W44105  39.996  15.205  13.965
71681W        W44106   6.196  21.138  10.921
71682W        W44107  13.638   5.343   2.783
71683W        W44108  22.686  17.700   2.379
71684W        W44109  30.635  44.843  14.827
71685W        W44110   0.778   1.864   1.782
71686W        W44111  31.906  24.627   0.369
71687W        W44112  35.358  44.960  11.407
71688W        W44113  29.949   4.892  12.931
71689W        W44114  14.161  19.621   4.759
71690W        W44115   2.771  38.393   1.309
71691W        W44116  38.499  31.534   1.439
71692W        W44117  34.426   9.300   0.895
71693W        W44118  11.350  40.035  14.399
71694W        W44119  41.794  28.509  14.854
71695W        W44120  11.704  16.291   1.829
71696W        W44121  36.390  38.853   3.263
71697W        W44122  35.869  29.114  14.844
71698W        W44123  33.526  41.294  14.362
71699W        W44124  35.100  27.519  12.836
71700W        W44125  41.017  43.800   0.957
71701W        W44126  34.873  25.209  12.542
71702W        W44127   4.333  39.912  12.386
71703W        W44128  10.708  14.141  14.760
71704W        W44129  17.609  18.166   3.687
71705W        W44130   4.409   9.289   0.359
71706W        W44131  14.832  16.074   1.361
71707W        W44132  31.557  32.517   0.312
71708W        W44133  23.010   8.173   3.180
71709W        W44134  16.668  13.838   4.279
71710W        W44135  22.552   2.256   0.453
71711W        W44136  12.850  37.014   2.761
71712W        W44137  23.578  34.042   3.385
71713W        W44138  41.460  35.431  14.857
71714W        W44139  13.251   8.344  14.508
71715W        W44140  15.818  43.515   0.453
71716W        W44141   2.843  31.132   0.290
71717W        W44142   6.738  38.455   4.655
71718W        W44143   1.975  42.407  10.451
71719W        W44144  26.995  29.974  10.542
71720W        W44145  28.107  18.255   1.373
71721W        W44146  27.570  14.698  12.921
71722W        W44147  15.186  29.074  14.015
71723W        W44148  30.953  36.488   4.680
71724W        W44149  11.840  36.943  13.010
71725W        W44150  39.962  41.427   0.916
71726W        W44151  38.067  17.637   3.691
71727W        W44152  39.487   7.374   2.186
71728W        W44153  18.625  41.016  11.047
71729W        W44154  43.785  39.414   4.737
71730W        W44155  16.665  21.670   2.187
71731W        W44156  41.518  28.995  12.547
71732W        W44157   9.346  36.034   0.827
71733W        W44158  29.447  30.993   9.523
71734W        W44159  34.533   3.242  13.352
71735W        W44160  21.639  26.133   2.881
71736W        W44161  33.106   0.356   3.310
71737W        W44162   9.361   4.248  11.087
71738W        W44163   2.347  22.568  12.448
71739W        W44164  26.080  27.960  14.343
71740W        W44165   4.876  38.333   2.688
71741W        W44166  21.563  11.320  11.114
71742W        W44167   7.765   3.443  11.942
71743W        W44168  23.112  39.422  11.375
71744W        W44169  33.940  30.041  11.987
71745W        W44170  40.315  34.553   5.307
71746W        W44171   9.747   1.820  14.938
71747W        W44172  39.891   5.317  11.113
71748W        W44173  41.979  19.701  14.428
71749W        W44174  10.651  13.293  11.110
71750W        W44175  18.560  31.413  12.933
71751W        W44176   3.295   5.878   1.869
71752W        W44177  17.727  31.517   1.333
71753W        W44178  32.480  44.796  14.370
71754W        W44179   0.353  18.294   2.863
71755W        W44180  20.669  39.523   3.655
71756W        W44181  37.919  23.203  12.515
71757W        W44182  36.364  26.593  13.859
71758W        W44183  34.940  32.913  14.360
71759W        W44184  27.475  12.646   0.917
71760W        W44185  43.912  41.796  13.498
71761W        W44186  18.603  22.674   2.180
71762W        W44187   9.665  37.400   3.770
71763W        W44188  12.218  12.322  14.353
71764W        W44189  11.834  26.080   0.341
71765W        W44190  32.934  27.047   0.772
71766W        W44191  22.595  38.912   0.377
71767W        W44192  41.973  36.062   4.242
71768W        W44193  21.094  16.159  10.562
71769W        W44194  27.062  15.087  11.951
71770W        W44195  39.355  10.848   3.860
71771W        W44196  41.478  24.063   4.148
71772W        W44197  40.419  38.888   4.239
71773W        W44198  26.668  21.566   4.725
71774W        W44199   3.359  10.361  11.109
71775W        W44200  23.062  30.478  13.486
71776W        W44201   2.728   1.841  13.336
71777W        W44202  10.839  22.025   2.888
71778W        W44203   2.960   1.802  14.793
71779W        W44204  36.357  42.795   2.742
71780W        W44205  33.082  31.146   1.353
71781W        W44206  35.853   6.288   0.793
71782W        W44207   5.843  34.482  14.938
71783W        W44208  34.559  18.226   4.119
71784W        W44209  16.699  12.318   2.704
71785W        W44210  14.126  43.983  14.944
71786W        W44211  40.356  30.106   4.313
71787W        W44212  25.499   9.726   2.244
71788W        W44213  39.476  23.595   1.247
71789W        W44214   2.905  37.971   4.113
71790W        W44215  15.254  27.501  10.969
71791W        W44216  13.329   2.382   4.750
71792W        W44217  41.400  16.569   1.218
71793W        W44218   6.807   9.245  10.966
71794W        W44219  30.939  10.858   0.432
71795W        W44220   9.211   2.413   2.669
71796W        W44221  22.063  18.652  13.016
71797W        W44222  14.223  21.726  12.026
71798W        W44223   5.290  32.454   1.834
71799W        W44224  35.414  28.470   0.330
71800W        W44225  29.551  26.507  11.963
71801W        W44226  20.560   5.793   0.807
71802W        W44227  14.107  28.548   1.376
71803W        W44228  11.288  34.615  14.852
71804W        W44229   8.402  41.832  14.006
71805W        W44230  26.703  20.202   5.193
71806W        W44231  23.635   8.277   2.758
71807W        W44232  22.129   3.265   5.153
71808W        W44233  15.083  12.720  11.106
71809W        W44234  28.672  24.975   2.286
71810W        W44235  32.627  31.612  13.544
71811W        W44236  38.043   3.851   4.607
71812W        W44237  34.002   8.773   2.276
71813W        W44238  29.023  12.261  12.342
71814W        W44239  12.739  35.937   2.280
71815W        W44240   8.731   4.206   0.771
71816W        W44241   6.257   1.477  13.895
71817W        W44242   6.397  19.557  14.826
71818W        W44243  23.089  34.416   3.163
71819W        W44244  28.933   6.790   1.361
71820W        W44245  28.454  28.964  10.579
71821W        W44246  26.494  34.422   1.931
71822W        W44247  10.182  32.027  13.939
71823W        W44248  42.948  10.785  10.984
71824W        W44249   9.272  36.039  14.500
71825W        W44250  19.696  23.113   3.857
71826W        W44251   3.737   1.823   2.188
71827W        W44252  14.130  10.672  14.799
71828W        W44253  39.920   2.265  12.985
71829W        W44254   5.307  39.998   3.718
71830W        W44255  17.614  13.809  13.949
71831W        W44256  33.943   8.230   2.838
71832W        W44257  42.351   8.654   1.359
71833W        W44258   1.456  32.066   3.850
71834W        W44259  16.794   3.363  10.482
71835W        W44260  26.558  37.071   1.359
71836W        W44261  41.801  14.737   2.714
71837W        W44262  18.697  25.072  13.337
71838W        W44263   2.823  25.611   4.747
71839W        W44264  11.727  42.304   1.395
71840W        W44265  10.216   1.910   2.307
71841W        W44266   6.817  32.927  14.437
71842W        W44267  33.557   3.278  14.812
71843W        W44268  44.765  41.895   1.420
71844W        W44269  27.469  10.743  14.870
71845W        W44270  14.723  29.549   0.449
71846W        W44271  30.561   8.806   0.874
71847W        W44272  22.516  13.635  14.006
71848W        W44273  10.214  36.531   2.299
71849W        W44274   0.811   7.764   1.287
71850W        W44275  36.559  43.505   1.247
71851W        W44276   5.305  25.472  11.020
71852W        W44277  11.358  42.802   4.673
71853W        W44278  14.171  13.255   3.810
71854W        W44279  16.650  27.004   1.702
71855W        W44280   7.759  13.331  10.486
71856W        W44281  17.775  38.454  14.457
71857W        W44282  36.073   6.317   1.332
71858W        W44283  26.955  15.678   1.376
71859W        W44284   6.717  29.522   4.280
71860W        W44285  20.640  22.091   4.217
71861W        W44286  27.479   3.856   0.962
71862W        W44287   8.786   7.799  10.937
71863W        W44288  30.611  21.141   1.708
71864W        W44289  33.490  41.454  13.955
71865W        W44290  14.255  27.054   4.332
71866W        W44291  19.216  17.095   3.685
71867W        W44292  41.002   8.832   0.252
71868W        W44293   4.860   9.710   4.793
71869W        W44294  43.828  31.496   3.721
71870W        W44295  29.941  32.579  13.478
71871W        W44296   7.779  43.917  14.462
71872W        W44297  41.416  17.105   0.850
71873W        W44298  34.547  19.184   4.775
71874W        W44299  44.896  42.949   0.945
71875W        W44300  27.564  16.792   1.911
71876W        W44301  11.708   5.880  10.527
71877W        W44302  26.497  30.616   4.141
71878W        W44303  31.466  18.571   2.783
71879W        W44304  31.924   3.319   0.248
71880W        W44305   6.761  42.948  11.390
71881W        W44306   3.768  41.383   2.241
71882W        W44307  38.542  42.316   4.609
71883W        W44308  33.888   0.479   1.725
71884W        W44309  26.071  41.791  11.976
71885W        W44310  32.057  23.078   3.367
71886W        W44311   8.704  35.446  13.854
71887W        W44312  16.769  30.072  14.339
71888W        W44313  38.326   5.301  13.486
71889W        W44314  10.178  10.287  14.992
71890W        W44315  31.924  31.590  14.922
71891W        W44316  25.052  26.123  11.856
71892W        W44317  29.616   7.301   2.883
71893W        W44318   1.741  32.952   4.738
71894W        W44319  40.448  30.920   1.358
71895W        W44320  10.330  34.900   1.283
71896W        W44321  27.559   8.349  14.877
71897W        W44322  21.212   7.713  13.863
71898W        W44323  23.503  35.501  14.461
71899W        W44324  35.398  40.348  14.973
71900W        W44325  35.493  22.210  11.511
71901W        W44326  16.737  26.586  11.578
71902W        W44327  14.670  17.250   2.890
71903W        W44328  19.583  22.511  11.380
71904W        W44329  42.295  36.405  10.415
71905W        W44330  32.083  17.661  13.874
71906W        W44331   8.840  28.097   1.768
71907W        W44332  36.464  35.909   0.776
71908W        W44333  35.923   2.281  12.526
71909W        W44334  41.452   5.291   0.325
71910W        W44335  40.331  44.448   4.257
71911W        W44336  11.232  15.821  12.086
71912W        W44337  42.855   0.419   0.801
71913W        W44338   6.337  15.239   2.699
71914W        W44339   4.711  32.494  10.629
71915W        W44340   7.723  25.672   1.256
71916W        W44341  22.203   3.241   1.342
71917W        W44342  28.071   9.709  11.010
71918W        W44343  22.536  41.473   4.197
71919W        W44344  16.184   5.436   2.740
71920W        W44345  29.009  18.778  11.108
71921W        W44346  30.563  23.222  11.462
71922W        W44347  23.017  15.268   4.657
71923W        W44348   7.308  29.063  14.293
71924W        W44349   3.770  29.958   4.342
71925W        W44350  25.699  39.878   2.212
71926W        W44351  14.660   2.759  14.785
71927W        W44352  38.418  41.887  14.837
71928W        W44353  44.422   6.346  10.556
71929W        W44354  35.063  29.448   4.146
71930W        W44355  43.784  13.218   1.768
71931W        W44356  22.709  25.213  10.074
71932W        W44357   2.880  29.073   1.761
71933W        W44358  27.591  10.653   3.244
71934W        W44359  36.018  36.953   0.958
71935W        W44360  11.295  32.561  14.315
71936W        W44361  16.108  32.428   4.736
71937W        W44362  17.160  28.471   4.271
71938W        W44363  13.135  15.593  12.457
71939W        W44364   0.350  24.180  14.389
71940W        W44365   6.404   4.730  13.441
71941W        W44366  39.922  32.608   4.802
71942W        W44367  28.550   8.400   1.431
71943W        W44368   3.773  43.777   3.667
71944W        W44369  35.952  36.874   4.187
71945W        W44370  21.671   4.725  12.920
71946W        W44371   8.351  41.342   2.851
71947W        W44372   9.817  28.957  11.473
71948W        W44373  15.089  32.010  14.278
71949W        W44374   8.671  30.554   4.703
71950W        W44375  23.555  14.709  11.071
71951W        W44376  38.846  30.143   3.358
71952W        W44377   7.716  27.961  10.478
71953W        W44378   0.875  22.580   1.340
71954W        W44379  13.199  30.647   0.384
71955W        W44380  39.848   0.396   2.703
71956W        W44381  29.586  39.003   5.211
71957W        W44382  19.576  24.539  13.973
71958W        W44383  11.696  24.533   3.734
71959W        W44384  17.132  20.671  12.399
71960W        W44385  22.675  15.601  12.414
71961W        W44386   0.257  13.214  12.841
71962W        W44387  31.646  40.382  10.442
71963W        W44388  39.044  35.001   0.944
71964W        W44389  44.372   9.258   4.156
71965W        W44390  36.981  39.998  14.846
71966W        W44391   5.230  33.561   0.408
71967W        W44392  31.993   8.733   3.273
71968W        W44393  13.744  33.406   4.230
71969W        W44394  27.680  30.137   2.414
71970W        W44395   6.676   2.320   0.270
71971W        W44396  31.041  27.000   1.305
71972W        W44397  41.930  36.420   4.813
71973W        W44398  13.248  16.793  11.091
71974W        W44399  43.423   7.892   1.709
71975W        W44400   6.748   2.866   1.238
71976W        W44401  31.096   7.888   1.219
71977W        W44402  27.566  31.136  14.388
71978W        W44403  40.010  41.364  14.282
71979W        W44404   6.909   7.775  10.567
71980W        W44405   8.355  12.339   1.776
71981W        W44406   9.242  27.999   4.827
71982W        W44407   9.810  30.418  13.834
71983W        W44408  33.558  21.683  10.952
71984W        W44409  44.483  21.609  12.005
71985W        W44410   4.405  42.022   2.840
71986W        W44411  16.157  12.334  11.489
71987W        W44412   7.904  10.349   3.176
71988W        W44413   9.341  38.497   4.804
71989W        W44414  43.958   7.268   3.680
71990W        W44415  41.463  11.176   1.728
71991W        W44416  13.148   6.416   4.622
71992W        W44417  40.934  35.968  13.503
71993W        W44418  25.137  38.833   1.860
71994W        W44419  11.776  42.787  12.029
71995W        W44420  29.005  34.396  12.564
71996W        W44421  16.131  36.989  10.493
71997W        W44422   8.263   2.301   1.375
71998W        W44423   3.911  30.127  14.335
71999W        W44424  37.975  25.056  14.397
72000W        W44425  35.599  16.194   3.172
72001W        W44426  29.162  39.905   2.304
72002W        W44427   8.787  35.451  12.454
72003W        W44428  43.481  15.241   1.864
72004W        W44429  11.758  24.072  14.994
72005W        W44430  19.725  38.853   4.277
72006W        W44431  27.946   4.350   2.395
72007W        W44432  37.338  34.425  13.973
72008W        W44433  11.645  29.986   1.405
72009W        W44434  30.489  31.102   2.206
72010W        W44435   7.873  36.064  10.513
72011W        W44436   5.390  37.073  12.963
72012W        W44437  32.962   0.983  11.921
72013W        W44438  28.633   7.326   2.818
72014W        W44439  15.252   4.862  12.393
72015W        W44440  16.095  36.986   3.228
72016W        W44441  32.069  33.005   0.299
72017W        W44442   0.776  19.637  11.985
72018W        W44443   2.355   4.809   1.697
72019W        W44444   4.351  44.938   3.856
72020W        W44445   6.795  35.051  10.576
72021W        W44446  18.654  33.486   1.348
72022W        W44447  44.475  20.541   2.270
72023W        W44448   2.786  43.822   2.668
72024W        W44449  32.048   5.285  13.481
72025W        W44450   4.772  23.647   4.172
72026W        W44451  28.050  22.536   2.758
72027W        W44452  22.702  36.518   1.822
72028W        W44453  14.312   7.891   4.222
72029W        W44454  11.281   8.253   3.713
72030W        W44455  28.118  34.505  12.982
72031W        W44456  19.063   3.742   3.284
72032W        W44457  10.189  19.144   3.229
72033W        W44458  16.682   6.280  14.502
72034W        W44459   3.884  26.177  10.951
72035W        W44460  26.170  13.203  13.016
72036W        W44461  35.996  43.844   4.208
72037W        W44462  41.453  37.493  10.931
72038W        W44463  29.454   2.261  12.383
72039W        W44464  18.189  33.075   3.757
72040W        W44465  34.107  26.525   1.791
72041W        W44466  38.923  10.341   0.940
72042W        W44467   6.894   4.304   2.750
72043W        W44468   4.307   2.805  13.406
72044W        W44469   3.318   2.739  13.932
72045W        W44470   3.860  22.095  11.556
72046W        W44471  34.447  12.634   1.292
72047W        W44472  20.118  27.522   3.673
72048W        W44473  36.360   8.740  12.897
72049W        W44474   7.305   3.924  14.030
72050W        W44475   5.750  25.495   2.179
72051W        W44476  35.870   6.796   3.384
72052W        W44477  31.036  37.916   1.231
72053W        W44478  12.198  26.094   0.887
72054W        W44479  13.227  34.462   4.315
72055W        W44480  27.561  24.118  14.465
72056W        W44481  31.629  21.591  14.482
72057W        W44482  17.145  32.482  14.388
72058W        W44483  10.245  31.060   4.288
72059W        W44484  22.694  28.163   4.629
72060W        W44485  26.478  35.576  13.899
72061W        W44486  28.999  39.973  14.372
72062W        W44487  10.853  40.319  14.901
72063W        W44488  22.548  20.592  11.475
72064W        W44489  43.838   8.300   4.651
72065W        W44490  36.502  19.094  14.917
72066W        W44491   9.662  25.679  12.896
72067W        W44492  14.835  39.831  10.542
72068W        W44493  14.164  41.401   0.360
72069W        W44494  10.353  12.237   4.113
72070W        W44495  15.119  42.031   1.814
72071W        W44496  32.593  40.417   3.221
72072W        W44497  16.201  42.023  13.871
72073W        W44498  18.115   1.792  13.828
72074W        W44499  44.457  44.492   4.727
72075W        W44500  39.495  19.062  13.928
72076W        W44501  38.553  32.550  12.535
72077W        W44502   8.839   6.912   2.211
72078W        W44503  34.033  20.165   0.448
72079W        W44504   9.852  22.574  10.540
72080W        W44505  12.121  39.050   1.789
72081W        W44506   1.783   8.832  10.466
72082W        W44507  33.543  17.681   3.305
72083W        W44508  35.535  44.853  13.431
72084W        W44509  10.637  32.921   1.893
72085W        W44510  29.474  29.626   3.709
72086W        W44511   9.865  18.611   0.940
72087W        W44512  20.041  11.841   3.224
72088W        W44513  35.369   2.882  14.926
72089W        W44514  27.083   1.325  13.432
72090W        W44515  16.229  33.943  11.419
72091W        W44516  33.881   6.705   1.241
72092W        W44517  37.929  25.097  13.411
72093W        W44518  28.999  36.957   0.275
72094W        W44519  29.458  31.127   3.281
72095W        W44520  11.140   8.253  12.032
72096W        W44521  27.560   2.810   2.662
72097W        W44522  38.484  44.292   2.337
72098W        W44523  18.147  23.991   1.858
72099W        W44524  35.441  14.202  14.314
72100W        W44525   4.808  35.947   3.374
72101W        W44526  14.680  42.980  10.082
72102W        W44527  20.631  32.915  12.964
72103W        W44528  38.999  43.326  12.945
72104W        W44529  13.216   8.356   0.289
72105W        W44530  42.374  15.613  11.893
72106W        W44531  11.190  25.089   1.389
72107W        W44532  41.306  29.949   0.361
72108W        W44533  28.023  28.565  12.030
72109W        W44534  18.571  10.772  14.918
72110W        W44535  15.596  28.948  10.512
72111W        W44536  41.876   6.900  14.783
72112W        W44537  38.892  26.977  14.494
72113W        W44538  34.911  39.506  11.068
72114W        W44539   2.839  16.748   4.152
72115W        W44540  36.075  25.069  10.148
72116W        W44541   4.389   8.674  13.810
72117W        W44542  33.535   6.267  13.319
72118W        W44543  37.520  32.539   1.807
72119W        W44544   0.922  11.858  10.416
72120W        W44545  32.089  10.227   2.247
72121W        W44546  34.535  40.904  11.389
72122W        W44547   5.797  19.164  10.534
72123W        W44548  39.975  34.602   4.149
72124W        W44549  22.735  29.957  13.848
72125W        W44550  16.272  24.670   1.780
72126W        W44551  38.880   3.815   2.817
72127W        W44552   2.266  21.099   2.739
72128W        W44553  39.514   3.765   4.628
72129W        W44554  10.826  17.592   4.830
72130W        W44555  11.827  26.485  11.396
72131W        W44556  30.470  42.942  13.446
72132W        W44557   0.860  34.374  13.894
72133W        W44558  23.164  13.172  13.006
72134W        W44559  17.707   3.844  11.476
72135W        W44560  21.257  36.394   1.935
72136W        W44561   0.748  31.992   3.286
72137W        W44562  29.986   8.245  14.989
72138W        W44563  44.342   7.189  10.925
72139W        W44564   0.935  39.851  11.860
72140W        W44565  39.970  41.837   1.219
72141W        W44566  20.149  29.994   3.834
72142W        W44567  16.147   8.318   1.865
72143W        W44568   2.275  10.286   3.327
72144W        W44569  39.872   3.419  10.593
72145W        W44570  11.833   6.352  12.449
72146W        W44571  41.915  36.574   0.423
72147W        W44572   9.307  43.991  14.952
72148W        W44573   5.339  24.142  13.397
72149W        W44574  31.552  14.717   0.333
72150W        W44575  23.994  18.057  12.461
72151W        W44576  26.661  20.759  11.928
72152W        W44577  19.141   4.297   4.712
72153W        W44578  33.925  23.230  13.026
72154W        W44579   0.868  29.982   4.817
72155W        W44580  14.257   5.877   2.885
72156W        W44581  21.542  33.460   4.158
72157W        W44582   0.810  14.320  11.051
72158W        W44583   2.863  39.915  10.591
72159W        W44584  28.645  37.837  12.903
72160W        W44585  43.789  41.041   3.385
72161W        W44586   7.390   2.458   4.817
72162W        W44587  27.035   5.859   3.308
72163W        W44588  27.534   2.923  11.855
72164W        W44589  43.786  15.185  12.452
72165W        W44590  18.623  40.369  14.945
72166W        W44591  13.201  22.652  10.024
72167W        W44592   7.316  17.201   4.641
72168W        W44593   7.847  12.846  13.532
72169W        W44594  21.547  41.526  11.564
72170W        W44595  31.104   8.685   3.756
72171W        W44596  30.146   8.791   3.847
72172W        W44597   7.395   3.427   3.832
72173W        W44598  22.093   9.850  13.340
72174W        W44599  38.502  44.831   0.333
72175W        W44600  28.992  21.697  13.864
72176W        W44601  30.957   8.828  13.394
72177W        W44602  11.662   0.952   3.655
72178W        W44603  19.575  13.815  13.309
72179W        W44604  36.546  40.012  12.921
72180W        W44605   1.828  17.250  13.399
72181W        W44606  43.408  16.198  12.058
72182W        W44607  44.418  10.805   3.350
72183W        W44608  20.028  22.131   0.425
72184W        W44609   9.874   3.329   4.618
72185W        W44610  29.617  11.292   3.337
72186W        W44611  21.096  44.453   0.298
72187W        W44612  30.007  20.144  14.934
72188W        W44613  43.422  27.974   3.805
72189W        W44614   9.236   8.356   2.788
72190W        W44615  37.080   6.837   1.302
72191W        W44616  32.416  40.375  13.867
72192W        W44617  36.376  18.167   4.718
72193W        W44618  26.189  25.477  14.373
72194W        W44619   4.397  39.880   4.149
72195W        W44620   3.258  21.212  14.405
72196W        W44621  33.032  14.147  12.074
72197W        W44622  13.669  37.842  14.443
72198W        W44623   3.899   7.219  11.955
72199W        W44624   6.763  34.527   1.918
72200W        W44625  24.992  36.549   2.408
72201W        W44626  18.058   6.762   1.830
72202W        W44627  36.851  23.239   1.804
72203W        W44628  39.469  31.572   2.795
72204W        W44629  13.346  38.403   0.869
72205W        W44630  35.011  26.025  13.008
72206W        W44631   2.767  18.781  13.009
72207W        W44632  44.368  40.802   4.598
72208W        W44633   4.775  12.125   4.305
72209W        W44634   0.967   7.813  14.798
72210W        W44635  26.475   8.376   3.178
72211W        W44636   2.918  44.461   0.729
72212W        W44637  14.143  12.138  12.843
72213W        W44638  33.579  43.882   3.840
72214W        W44639  34.609   8.235   4.247
72215W        W44640  19.205  15.749   3.235
72216W        W44641  10.273  10.203  14.475
72217W        W44642  11.851  20.213  11.894
72218W        W44643   0.355   0.913   1.886
72219W        W44644  16.598   5.772   3.260
72220W        W44645   7.411  44.315  11.985
72221W        W44646   6.788   0.295   3.676
72222W        W44647  20.263   1.907  13.867
72223W        W44648  27.654  14.163  12.870
72224W        W44649   5.779   2.943   2.195
72225W        W44650   3.835  27.068  10.605
72226W        W44651  40.054  43.979  14.397
72227W        W44652  29.933  23.040   4.142
72228W        W44653   3.907   8.692  14.843
72229W        W44654  27.162  13.204  10.898
72230W        W44655   8.267  28.990  10.637
72231W        W44656  42.997  19.157  14.339
72232W        W44657  26.000  24.188   0.850
72233W        W44658  18.265  32.020  13.064
72234W        W44659   5.754   9.149  11.485
72235W        W44660  15.805  41.031  10.536
72236W        W44661  28.993  29.160   1.869
72237W        W44662  29.467   9.829  13.966
72238W        W44663  33.922  23.609   3.367
72239W        W44664  37.015  32.944   1.863
72240W        W44665  10.836  17.092   3.227
72241W        W44666   8.811  22.650   2.326
72242W        W44667  39.985  40.860  13.391
72243W        W44668  34.548  16.805  11.028
72244W        W44669  40.384  37.462  14.492
72245W        W44670  20.035  40.897  14.927
72246W        W44671  18.641  35.987  13.927
72247W        W44672  30.936   6.821  14.866
72248W        W44673  43.402   1.871  12.504
72249W        W44674  33.098  17.631  11.521
72250W        W44675  25.674  30.444   5.156
72251W        W44676  40.927   6.327  14.908
72252W        W44677  10.765  24.208  10.513
72253W        W44678  35.060  33.125   1.930
72254W        W44679  38.013   9.381  11.966
72255W        W44680  26.186   2.916  10.442
72256W        W44681  37.564  17.165   1.787
72257W        W44682  19.540  40.819   4.652
72258W        W44683   8.678  18.704  11.541
72259W        W44684  34.521  21.612  14.879
72260W        W44685  12.636   2.851   4.178
72261W        W44686   5.859  36.881   9.461
72262W        W44687  40.506  10.723   0.265
72263W        W44688   9.374  24.488  14.795
72264W        W44689  35.561  37.451  12.888
72265W        W44690  30.047  24.691   0.448
72266W        W44691   0.317  34.011   3.351
72267W        W44692  31.033  18.271  12.563
72268W        W44693  29.654  43.804  11.087
72269W        W44694  14.697   3.309  12.003
72270W        W44695  40.804  20.174   4.148
72271W        W44696  28.504  24.152  12.514
72272W        W44697  34.878  31.934   9.945
72273W        W44698  20.714  30.138   2.289
72274W        W44699   9.211  42.487   2.384
72275W        W44700  43.001  37.053  13.481
72276W        W44701  22.564  36.507  12.952
72277W        W44702  15.322  35.074   0.264
72278W        W44703   7.219  24.596   1.843
72279W        W44704  20.568  13.802   2.824
72280W        W44705  22.510  11.245  12.535
72281W        W44706  21.734  12.667  10.605
72282W        W44707   8.743  17.146   1.356
72283W        W44708  41.535   1.800  13.043
72284W        W44709  32.970  19.091  11.547
72285W        W44710   5.761   6.783  12.829
72286W        W44711   0.793   8.765   2.690
72287W        W44712  43.855  38.331  10.503
72288W        W44713  32.614   2.399  13.385
72289W        W44714  16.578   5.880  12.489
72290W        W44715  33.992  22.123  12.436
72291W        W44716  22.009  44.830  10.918
72292W        W44717  24.725  37.567   4.783
72293W        W44718  30.104   9.239  12.557
72294W        W44719  30.421  33.933  13.916
72295W        W44720  32.126  20.270   3.708
72296W        W44721  35.876  26.586  11.559
72297W        W44722  14.248  38.444   3.850
72298W        W44723  38.383  32.493   2.188
72299W        W44724  39.330  33.533  10.962
72300W        W44725  24.672  30.981   2.272
72301W        W44726  24.511  26.008  10.431
72302W        W44727  27.982   7.319   2.730
72303W        W44728   1.933  21.668   3.317
72304W        W44729  29.923  26.538  14.874
72305W        W44730  40.435  31.402  13.042
72306W        W44731  37.370  22.158   0.436
72307W        W44732  40.314   3.955  14.279
72308W        W44733  39.814  39.434  12.481
72309W        W44734  43.774  24.079  12.008
72310W        W44735  10.659  43.353   3.756
72311W        W44736   2.831  41.462  12.514
72312W        W44737  31.026  26.149   1.356
72313W        W44738   0.842   2.737  14.332
72314W        W44739  23.624   7.291   3.691
72315W        W44740   5.355  42.944   2.799
72316W        W44741   9.653  24.195   4.299
72317W        W44742  11.330   8.842  13.007
72318W        W44743   8.203  30.609  12.571
72319W        W44744  17.746  30.584  13.894
72320W        W44745   5.269   9.160   1.763
72321W        W44746  22.630  30.047   4.831
72322W        W44747  37.038  28.670  12.479
72323W        W44748  23.099  33.949  14.437
72324W        W44749  36.527  26.081   4.720
72325W        W44750  31.154  28.647  14.452
72326W        W44751  36.916  14.122  12.903
72327W        W44752  29.986  39.343  14.978
72328W        W44753   2.226  34.425   3.703
72329W        W44754  38.483  22.660  11.407
72330W        W44755   7.195  21.518  13.384
72331W        W44756   3.392  11.749  14.978
72332W        W44757   3.426  41.334   4.740
72333W        W44758  38.838  33.091  10.435
72334W        W44759  19.083  32.983  10.478
72335W        W44760  24.574  35.104  11.604
72336W        W44761   4.768   8.394   2.789
72337W        W44762  44.808  38.912   4.246
72338W        W44763   5.413  13.600  10.978
72339W        W44764  39.497  20.622   2.822
72340W        W44765  40.046  23.711   1.698
72341W        W44766  13.163  38.958  12.066
72342W        W44767  39.454  11.292  12.939
72343W        W44768  11.688  37.019  11.942
72344W        W44769  35.082   0.870   1.802
72345W        W44770   6.262  39.522   3.183
72346W        W44771  32.417   2.944   1.221
72347W        W44772  30.415  40.428  11.092
72348W        W44773  42.302  15.640   2.248
72349W        W44774  32.942  34.023  14.977
72350W        W44775   4.278   6.717   2.181
72351W        W44776  33.912   2.931   2.841
72352W        W44777  11.730  44.342   1.773
72353W        W44778  40.376  29.005  11.548
72354W        W44779  34.900  20.170   3.258
72355W        W44780   6.364  32.067   4.776
72356W        W44781  10.189   8.733  13.009
72357W        W44782  12.760  29.071   2.282
72358W        W44783  33.070  42.394  11.487
72359W        W44784   2.796   1.746   0.875
72360W        W44785   3.358  12.838  13.055
72361W        W44786  23.063  11.244   3.366
72362W        W44787  12.818  24.205   4.129
72363W        W44788  14.276  36.409  13.044
72364W        W44789  32.474   5.925   3.812
72365W        W44790  20.109  28.080   4.171
72366W        W44791   2.406  41.803   4.177
72367W        W44792   9.858  38.003  10.997
72368W        W44793  13.663  27.109  14.889
72369W        W44794  41.928  36.003   3.209
72370W        W44795  24.713  14.761   3.329
72371W        W44796   6.277  14.337   0.450
72372W        W44797  32.492  22.220   3.676
72373W        W44798  44.778  13.223   4.261
72374W        W44799  31.065  29.517  10.462
72375W        W44800  15.224  18.589  12.015
72376W        W44801   6.262  18.620   1.218
72377W        W44802  34.472  31.606  12.477
72378W        W44803  32.954  30.432  12.992
72379W        W44804  31.959   9.260   0.742
72380W        W44805  39.471  38.333   4.221
72381W        W44806  38.528  44.826  13.404
72382W        W44807   3.930  44.004   4.192
72383W        W44808   9.721  24.623   3.769
72384W        W44809  23.055   3.785  14.459
72385W        W44810  10.791   4.925   2.673
72386W        W44811   2.234   8.309   1.264
72387W        W44812  30.469  35.504  10.475
72388W        W44813  20.084  26.103   0.353
72389W        W44814  20.620  11.704  11.986
72390W        W44815  27.629  23.048   2.844
72391W        W44816  33.409   1.467   3.690
72392W        W44817  41.512  37.895  14.027
72393W        W44818  20.543  42.888   4.799
72394W        W44819  16.730  26.096  14.370
72395W        W44820  11.208  43.383   1.262
72396W        W44821   0.324  41.856   4.245
72397W        W44822  40.464   7.289  11.862
72398W        W44823  43.915  24.694   1.371
72399W        W44824  23.517  43.318   0.289
72400W        W44825  32.482   6.351  10.088
72401W        W44826  24.659  33.960  11.048
72402W        W44827  12.267  38.429  10.565
72403W        W44828   2.447  18.194   2.893
72404W        W44829  13.759  21.573  13.797
72405W        W44830  25.064  44.882  12.833
72406W        W44831  14.121  17.207   3.382
72407W        W44832  27.082  42.392   2.397
72408W        W44833   6.364  34.557   0.936
72409W        W44834  24.011  38.547  12.939
72410W        W44835  19.246  15.584   2.768
72411W        W44836  29.648   3.713  14.995
72412W        W44837  13.272   8.856   0.371
72413W        W44838  26.083   1.948   2.737
72414W        W44839  20.616  44.374  12.994
72415W        W44840  39.515  31.959  13.978
72416W        W44841  32.453  35.391   1.729
72417W        W44842  42.804  24.138   0.890
72418W        W44843  23.558  40.913   4.661
72419W        W44844  19.072  24.184   4.180
72420W        W44845  44.842  13.339   1.913
72421W        W44846  35.078   7.218   0.827
72422W        W44847   2.311   7.347   1.862
72423W        W44848   8.679  43.876  13.880
72424W        W44849  26.502  19.544  13.509
72425W        W44850  10.780   5.223  11.920
72426W        W44851   5.844  21.131  13.342
72427W        W44852  31.064  20.730  11.408
72428W        W44853  11.161   8.256   0.892
72429W        W44854   4.873   4.790  14.859
72430W        W44855  33.484  19.196   2.182
72431W        W44856  15.709   5.702   1.307
72432W        W44857   3.380  17.725   2.339
72433W        W44858  25.656   1.858  13.514
72434W        W44859  11.769  34.080  10.965
72435W        W44860   3.912  29.040  12.370
72436W        W44861  31.476  39.004  13.998
72437W        W44862  15.205  40.943   3.683
72438W        W44863  12.747   0.253  14.343
72439W        W44864  34.023  16.806   0.295
72440W        W44865  41.512  13.243   4.264
72441W        W44866   6.414  10.736   2.789
72442W        W44867  27.573  17.080  11.521
72443W        W44868  44.272  30.522  13.542
72444W        W44869  19.237  11.194   4.713
72445W        W44870  27.189   6.792   1.763
72446W        W44871  34.450  21.575   0.841
72447W        W44872  40.930  32.438  12.069
72448W        W44873   8.292   9.827  13.914
72449W        W44874  24.581  36.425  10.526
72450W        W44875  37.489   6.793  13.938
72451W        W44876   6.897  36.435   3.328
72452W        W44877  12.697  41.457  12.930
72453W        W44878   8.378   7.282   3.632
72454W        W44879  21.108  37.528   3.664
72455W        W44880   8.313  17.709   1.295
72456W        W44881  25.557  42.282  12.831
72457W        W44882  19.096  21.601  14.485
72458W        W44883  24.498  27.173  10.566
72459W        W44884  18.629  36.433  14.388
72460W        W44885   4.325  41.428  11.953
72461W        W44886  43.279  20.738  12.452
72462W        W44887  11.802   5.762  11.946
72463W        W44888  21.695  16.795  14.315
72464W        W44889  34.897   5.341  10.485
72465W        W44890   4.332  25.983  13.974
72466W        W44891   9.872  39.522   4.262
72467W        W44892  17.150  21.025  11.497
72468W        W44893   8.268  42.359  13.381
72469W        W44894  32.561  17.230  13.325
72470W        W44895  40.829   7.317   0.888
72471W        W44896  30.488  16.154  12.997
72472W        W44897  29.978  31.109  11.997
72473W        W44898  17.146  32.631  12.544
72474W        W44899  29.153  39.847   3.799
72475W        W44900  15.630  26.080   4.742
72476W        W44901  32.970   6.787   1.391
72477W        W44902  15.209  10.178  10.622
72478W        W44903  11.167   6.224   4.728
72479W        W44904   4.268   7.734  11.042
72480W        W44905   2.442  33.038  14.899
72481W        W44906  19.069   2.274  13.889
72482W        W44907  23.081  29.985   3.362
72483W        W44908  34.553   2.879  11.461
72484W        W44909  23.498  30.068  11.965
72485W        W44910  27.449   4.293   3.781
72486W        W44911  13.286  28.498  12.945
72487W        W44912  13.194  21.683  14.837
72488W        W44913  34.999  12.285  13.315
72489W        W44914  36.089   5.764   2.388
72490W        W44915  10.641   5.369  14.463
72491W        W44916  17.712  21.092  12.847
72492W        W44917   0.831  35.903   0.869
72493W        W44918  34.405  22.559   1.361
72494W        W44919  43.431  12.668  12.982
72495W        W44920  14.805  32.560  13.935
72496W        W44921  26.514  30.950   4.638
72497W        W44922   3.372  16.748  14.774
72498W        W44923  32.018   2.847   2.717
72499W        W44924  30.062   9.875   4.686
72500W        W44925   6.869   8.888   1.704
72501W        W44926  13.232   7.398  11.047
72502W        W44927  14.303  19.058  10.637
72503W        W44928   5.929  15.136   1.293
72504W        W44929   7.882  27.963   2.764
72505W        W44930  21.559  13.111  13.453
72506W        W44931   6.410  36.863   5.589
72507W        W44932  26.168   4.705  10.561
72508W        W44933   9.239  23.519  12.376
72509W        W44934  18.766  21.032   2.282
72510W        W44935  39.849  19.739  12.871
72511W        W44936  37.913  21.183  10.598
72512W        W44937  44.873  40.839   3.262
72513W        W44938  11.756  29.921   2.668
72514W        W44939  36.377  36.076  12.416
72515W        W44940   3.917  12.173   0.290
72516W        W44941  38.966  10.346   4.260
72517W        W44942   1.763  18.610   0.407
72518W        W44943  29.139  27.119   1.781
72519W        W44944  38.819  21.729   4.296
72520W        W44945  30.991  40.417   2.846
72521W        W44946  24.222  42.974   1.864
72522W        W44947  32.129  12.206  11.914
72523W        W44948  41.361   1.382  14.352
72524W        W44949   3.943  11.704  10.512
72525W        W44950   4.218  21.681   3.638
72526W        W44951  12.143  24.167   4.270
72527W        W44952  11.835  41.787   0.946
72528W        W44953   6.814  40.343  14.935
72529W        W44954  14.686  30.615   1.935
72530W        W44955  29.521  33.552   2.857
72531W        W44956   2.444   3.439  13.957
72532W        W44957   8.792  28.660  11.868
72533W        W44958  13.247  10.184  12.828
72534W        W44959  27.643   9.664   2.736
72535W        W44960  16.085  29.163  12.368
72536W        W44961   1.479  43.401  14.821
72537W        W44962   1.874  28.628   2.328
72538W        W44963   6.703  33.491  14.424
72539W        W44964  32.489  38.411   0.809
72540W        W44965  35.581  23.725  10.934
72541W        W44966  17.632  26.620   2.903
72542W        W44967   5.351  40.449  11.577
72543W        W44968  30.974  20.569  11.110
72544W        W44969  15.278  14.253   2.747
72545W        W44970   4.379  17.726  11.011
72546W        W44971  24.533  15.173  11.607
72547W        W44972  37.474  14.231   4.244
72548W        W44973  38.342  15.762  13.964
72549W        W44974  30.157  16.618  10.448
72550W        W44975  39.954  32.043   2.688
72551W        W44976   3.896  31.543  11.450
72552W        W44977  22.516  43.986   3.237
72553W        W44978  35.406   3.238  14.860
72554W        W44979  31.054   2.364   1.909
72555W        W44980  22.520  30.021  12.531
72556W        W44981   0.267  20.646   1.371
72557W        W44982  33.412  22.505   4.643
72558W        W44983  27.462  14.801  11.036
72559W        W44984   2.318  27.139   1.391
72560W        W44985   2.334  33.568   2.354
72561W        W44986  36.065  28.511  10.910
72562W        W44987  43.495  13.107  13.393
72563W        W44988   3.393   0.888   0.839
72564W        W44989   7.869  16.211   4.759
72565W        W44990  37.070   6.917   2.365
72566W        W44991   3.247  13.183   2.852
72567W        W44992  26.484  24.026   3.256
72568W        W44993  13.825  20.081  13.418
72569W        W44994  42.960  13.274   2.228
72570W        W44995  43.481   7.721   3.772
72571W        W44996  39.424  34.065  13.453
72572W        W44997   5.384  32.078  11.423
72573W        W44998  38.957  24.524   5.316
72574W        W44999  12.145  18.738   4.127
72575W        W45000  21.068  24.707  10.437
72576W        W45001  18.769   6.318   3.725
72577W        W45002  12.116  28.626   1.812
72578W        W45003   1.888   1.845   3.687
72579W        W45004  27.111  22.150   3.658
72580W        W45005  36.067   4.410   0.945
72581W        W45006   0.358   0.980   2.353
72582W        W45007  16.260   8.763   1.826
72583W        W45008  21.256  14.808  12.018
72584W        W45009  35.093  30.484   2.314
72585W        W45010  24.076  26.472   0.416
72586W        W45011  28.456  27.662   0.460
72587W        W45012  15.619   5.422  11.481
72588W        W45013   6.217  35.023   4.148
72589W        W45014   1.384  27.133  11.062
72590W        W45015  10.768   8.835   2.264
72591W        W45016   7.718  20.722  14.799
72592W        W45017  13.149  29.517  10.920
72593W        W45018  34.369  32.893  13.333
72594W        W45019  43.940  16.211  11.426
72595W        W45020   0.817  42.523   0.252
72596W        W45021  21.171   8.678   4.677
72597W        W45022  39.361  44.002   0.803
72598W        W45023  13.613   2.823  11.128
72599W        W45024   9.288  33.896   2.235
72600W        W45025  18.765  29.021   2.889
72601W        W45026  12.843  12.194   3.720
72602W        W45027  21.621  20.240   1.390
72603W        W45028  25.151  14.335   4.137
72604W        W45029  13.745  40.312   0.283
72605W        W45030  30.150  34.602  13.855
72606W        W45031  19.758   9.779   3.742
72607W        W45032  28.635  22.152  10.554
72608W        W45033  36.084  13.820   3.816
72609W        W45034  11.168  44.388  11.919
72610W        W45035   0.413  26.042   1.858
72611W        W45036  27.107  36.973   3.780
72612W        W45037  28.655   3.852  10.413
72613W        W45038   8.796  20.668  11.100
72614W        W45039   7.757  32.539  10.988
72615W        W45040   7.838  18.688   1.422
72616W        W45041  18.601   7.288  13.354
72617W        W45042  30.526  12.750  12.038
72618W        W45043  27.684  18.293   1.727
72619W        W45044  28.492   3.314  14.501
72620W        W45045  36.408  21.239  13.905
72621W        W45046   3.885  42.433  14.280
72622W        W45047  20.183  40.931  14.004
72623W        W45048  35.534  36.896   2.354
72624W        W45049  42.910  12.248  14.880
72625W        W45050   1.414  20.682   3.656
72626W        W45051  43.271  19.765   0.846
72627W        W45052   8.880   8.710   5.291
72628W        W45053  31.406  35.974  12.541
72629W        W45054   5.351   2.728   4.288
72630W        W45055  37.084  31.458   4.276
72631W        W45056  18.689  42.003  10.561
72632W        W45057   2.297   3.293  13.411
72633W        W45058  13.160   6.730  12.905
72634W        W45059   1.945   3.416   4.660
72635W        W45060   7.740   2.345   4.167
72636W        W45061   5.316   7.729   4.788
72637W        W45062  36.984  22.038   4.212
72638W        W45063  21.736  16.181  13.907
72639W        W45064  13.160  12.140  14.401
72640W        W45065  31.009  11.707   5.274
72641W        W45066  41.414  26.527   0.952
72642W        W45067  40.930  29.049  14.011
72643W        W45068   4.207   4.273   3.230
72644W        W45069  17.301  39.824   1.215
72645W        W45070  29.592  25.032   1.276
72646W        W45071  22.006  15.248   3.373
72647W        W45072   9.266  30.534  14.501
72648W        W45073  28.167  23.548  11.930
72649W        W45074  37.951  12.823   9.997
72650W        W45075  36.409  21.019   2.193
72651W        W45076  18.104  27.970  12.401
72652W        W45077   9.241  29.133   1.891
72653W        W45078  44.341   3.282   2.736
72654W        W45079   9.733   5.366  12.097
72655W        W45080  10.747  41.961   1.447
72656W        W45081  20.157  35.012  14.449
72657W        W45082  15.163  38.538   3.206
72658W        W45083   0.257  26.190  12.878
72659W        W45084  23.736  15.788   2.201
72660W        W45085  32.434  10.795  13.062
72661W        W45086  11.324  20.221   0.308
72662W        W45087  17.193  30.567   9.585
72663W        W45088  25.593   2.733   2.798
72664W        W45089  41.431  18.599  12.530
72665W        W45090  14.327  26.131  12.547
72666W        W45091  25.615  17.777  10.977
72667W        W45092   0.406  31.456  14.856
72668W        W45093  11.643  15.274   0.242
72669W        W45094  23.713  26.025  14.459
72670W        W45095  25.486   8.667  13.035
72671W        W45096  37.082  44.360  10.604
72672W        W45097  41.388  34.865   1.382
72673W        W45098  11.748  38.981   2.251
72674W        W45099  10.687  27.976  13.452
72675W        W45100  27.563  13.345   3.289
72676W        W45101   4.804   4.278  12.571
72677W        W45102  32.625  37.962   3.233
72678W        W45103  15.667  33.954  12.977
72679W        W45104  24.089  30.162  12.848
72680W        W45105  20.635  27.102  11.390
72681W        W45106  34.870  36.419   4.341
72682W        W45107   0.489  12.253  13.307
72683W        W45108   9.850  11.734  11.042
72684W        W45109  28.574  21.170   3.147
72685W        W45110  20.728  26.133   0.471
72686W        W45111   4.335  42.292   0.377
72687W        W45112  11.346  28.018  12.874
72688W        W45113   1.808  21.695   4.679
72689W        W45114   1.239  14.280   0.298
72690W        W45115  15.794   4.321  12.888
72691W        W45116  28.117   1.767  13.436
72692W        W45117  10.643  35.982  14.494
72693W        W45118  25.678  22.617   4.805
72694W        W45119  44.321  12.263   4.667
72695W        W45120  21.203  28.677   4.675
72696W        W45121  27.025  30.990   3.224
72697W        W45122  42.022  28.969   3.676
72698W        W45123  14.737  18.205   0.836
72699W        W45124  12.287  35.899  13.429
72700W        W45125   5.727  27.974   0.426
72701W        W45126  33.514  17.656   1.735
72702W        W45127  34.605  31.016   0.890
72703W        W45128   4.902   2.269  13.349
72704W        W45129  14.653  20.657   3.755
72705W        W45130  21.595  15.601   1.889
72706W        W45131   1.349  37.949  13.543
72707W        W45132  12.241  40.017  14.993
72708W        W45133  24.519  18.057  13.860
72709W        W45134  11.323   4.847   3.689
72710W        W45135  26.108  33.620  11.428
72711W        W45136  34.466  41.932   1.795
72712W        W45137  32.454  38.869  13.830
72713W        W45138  28.537  39.550   3.272
72714W        W45139   4.274   2.446   4.351
72715W        W45140  24.546   0.940   0.262
72716W        W45141  29.104  18.288   3.202
72717W        W45142  43.845   7.314   0.465
72718W        W45143  13.741  35.061  10.461
72719W        W45144  37.473  36.387   0.732
72720W        W45145  14.627  11.797  10.043
72721W        W45146  16.576   3.395   2.330
72722W        W45147  12.755  19.234  13.535
72723W        W45148   9.340  41.526   5.113
72724W        W45149  20.033  42.329  12.825
72725W        W45150   4.923  38.528   0.263
72726W        W45151  42.365  22.180   3.149
72727W        W45152  32.570  40.419  14.854
72728W        W45153  30.517  41.331   1.753
72729W        W45154  29.660  42.933   0.929
72730W        W45155  28.031  26.021   0.727
72731W        W45156  35.083  33.609   5.300
72732W        W45157  27.050  23.497  13.917
72733W        W45158   4.397  37.907  13.865
72734W        W45159  20.036  34.561  12.437
72735W        W45160  14.739  11.788   3.749
72736W        W45161  20.169  31.647  13.466
72737W        W45162  20.557   9.727  11.057
72738W        W45163  30.927  31.052  12.834
72739W        W45164  36.007  19.189  12.371
72740W        W45165  43.775  33.430   2.780
72741W        W45166  17.095  43.899   4.749
72742W        W45167  23.032   8.688  13.356
72743W        W45168  15.769  34.540   2.312
72744W        W45169  31.405  22.522   3.187
72745W        W45170   9.205   6.406   9.947
72746W        W45171   1.872   0.812  12.406
72747W        W45172  32.885   2.935  10.486
72748W        W45173   1.327  13.193   0.798
72749W        W45174  25.548  37.844  14.801
72750W        W45175  43.910  28.462  11.471
72751W        W45176  34.932   5.691   1.895
72752W        W45177  22.150   4.420  14.901
72753W        W45178   5.889  27.514  12.564
72754W        W45179  15.128  36.966  12.507
72755W        W45180  12.124  42.871  14.846
72756W        W45181  20.099  21.753   3.673
72757W        W45182  39.326  12.828  12.472
72758W        W45183   6.184  26.460  11.458
72759W        W45184  23.499  16.128  13.409
72760W        W45185   9.802  35.378  14.491
72761W        W45186  10.729  28.456  10.896
72762W        W45187  15.701  30.068   1.786
72763W        W45188  28.454  38.048   1.268
72764W        W45189  29.551  33.558   1.707
72765W        W45190   5.726  25.133  14.397
72766W        W45191  35.979  27.681  14.986
72767W        W45192   5.719  11.859  14.416
72768W        W45193   0.745  40.945  11.428
72769W        W45194  41.827  41.970  10.462
72770W        W45195  31.038   8.406   1.755
72771W        W45196  32.534  37.451  14.846
72772W        W45197  37.539  21.622  13.360
72773W        W45198   7.749  11.810   4.720
72774W        W45199  29.070   6.274   2.246
72775W        W45200  29.550   3.823   0.336
72776W        W45201  25.216   5.887   3.260
72777W        W45202   0.878  32.117  14.436
72778W        W45203  41.397  20.217  12.418
72779W        W45204   5.858  37.375  10.440
72780W        W45205  12.196  10.360   2.701
72781W        W45206  25.474  37.924   0.364
72782W        W45207  38.352  23.733   2.859
72783W        W45208   2.302  30.417  12.067
72784W        W45209  20.269  30.424   3.808
72785W        W45210  37.374  33.475  14.784
72786W        W45211   7.832  39.506   3.355
72787W        W45212   5.247   0.877   1.721
72788W        W45213   2.780  16.769  11.963
72789W        W45214  31.631  10.691  13.984
72790W        W45215   9.680  18.199  12.080
72791W        W45216  34.020   7.266   1.442
72792W        W45217  16.259  19.264   2.362
72793W        W45218  21.736   4.329   3.335
72794W        W45219   2.805  13.298   2.687
72795W        W45220   8.275   7.714  14.978
72796W        W45221  12.784   1.419  12.022
72797W        W45222  28.616  16.300   0.473
72798W        W45223  29.157  15.702  14.819
72799W        W45224  22.638   0.777   2.802
72800W        W45225  29.977  42.460   4.173
72801W        W45226  10.862  23.180  13.826
72802W        W45227  10.729  35.079  12.861
72803W        W45228  10.705  38.405   2.373
72804W        W45229  23.668   7.754  13.839
72805W        W45230  19.684   3.241   5.272
72806W        W45231  17.207   9.752  13.451
72807W        W45232  38.945  27.523  14.455
72808W        W45233  18.160   9.349  14.334
72809W        W45234  20.259  12.812  11.533
72810W        W45235  34.590  18.176  10.491
72811W        W45236   7.885  23.629  13.315
72812W        W45237  10.233  16.146   3.681
72813W        W45238  13.198  29.151  13.856
72814W        W45239   0.894  28.586   4.712
72815W        W45240   6.405  42.030   0.822
72816W        W45241  41.351   6.892   2.395
72817W        W45242  38.562  15.815  13.452
72818W        W45243   6.918   6.242  11.875
72819W        W45244   0.917  20.265  13.460
72820W        W45245  35.992  44.439   0.879
72821W        W45246   7.324  20.214   3.651
72822W        W45247  27.971   0.747  14.462
72823W        W45248  28.011   7.248  11.014
72824W        W45249  42.408   8.370   2.691
72825W        W45250  40.493   8.869  12.353
72826W        W45251  14.635   9.736   4.815
72827W        W45252  30.092  19.277   1.763
72828W        W45253  26.151  18.582  13.965
72829W        W45254   8.175  29.967   3.189
72830W        W45255  34.456   8.301   3.317
72831W        W45256  10.192  38.562   4.636
72832W        W45257  33.470   3.778  11.390
72833W        W45258   8.405  22.021  13.036
72834W        W45259  15.164  43.915  11.021
72835W        W45260  22.550  30.461  12.955
72836W        W45261   4.205  30.583   0.829
72837W        W45262   3.377   3.842  11.604
72838W        W45263  21.648  18.072  14.973
72839W        W45264   1.870   8.346   4.725
72840W        W45265   2.445  28.652   1.229
72841W        W45266  32.390  23.677   2.868
72842W        W45267   1.833  34.990  11.071
72843W        W45268  44.825  42.890   3.797
72844W        W45269  10.800  28.068   9.968
72845W        W45270   2.745  25.968  12.378
72846W        W45271  14.187  32.040  12.421
72847W        W45272   9.767  25.524  14.427
72848W        W45273  26.677  35.958  14.963
72849W        W45274  39.397   2.472  10.941
72850W        W45275  28.603  20.073  11.986
72851W        W45276  36.509   3.292  13.809
72852W        W45277  16.801   7.411   0.417
72853W        W45278  35.034   9.783   1.715
72854W        W45279  33.012  20.258   4.297
72855W        W45280  20.202  34.406  10.549
72856W        W45281  12.704  38.977  13.060
72857W        W45282  19.073  38.033   0.787
72858W        W45283   8.856  39.489   0.840
72859W        W45284  36.894  38.357  14.970
72860W        W45285  43.964  11.257  11.532
72861W        W45286   0.967  28.165   3.348
72862W        W45287  19.239  42.959  11.101
72863W        W45288  12.680  13.224   2.187
72864W        W45289  12.274   1.757   1.821
72865W        W45290  29.455  35.107  10.643
72866W        W45291  33.415  37.067  10.955
72867W        W45292  17.585  25.684  10.976
72868W        W45293  17.574   6.877   4.778
72869W        W45294  34.467  43.317  13.832
72870W        W45295  41.871   7.718   1.772
72871W        W45296  23.649  33.390  10.631
72872W        W45297  30.094   0.819   0.446
72873W        W45298  35.401  22.616   1.421
72874W        W45299  26.637  22.558  10.611
72875W        W45300  13.184   9.777   4.744
72876W        W45301  23.080   7.854  10.464
72877W        W45302   9.296  34.892  12.835
72878W        W45303   3.948  19.661  10.475
72879W        W45304  22.136   9.888   1.873
72880W        W45305  44.483   9.746   3.376
72881W        W45306  29.457  17.295   1.755
72882W        W45307  37.531  37.022   1.284
72883W        W45308  17.237  15.151  12.879
72884W        W45309   4.310  18.759   4.183
72885W        W45310  36.849   6.894   3.237
72886W        W45311   5.900  38.946   2.869
72887W        W45312  34.944  13.686   0.910
72888W        W45313  19.081   0.403   0.851
72889W        W45314  25.701  35.905   3.245
72890W        W45315  42.846  24.650   1.906
72891W        W45316   1.836  10.291   5.255
72892W        W45317  16.715   5.278  14.372
72893W        W45318   9.213  38.075  14.979
72894W        W45319  33.541  18.725   4.313
72895W        W45320   7.243  21.666   1.405
72896W        W45321   6.288  11.626   1.808
72897W        W45322   5.255  12.346   3.344
72898W        W45323  37.349   0.858   1.263
72899W        W45324  22.037  24.687   3.346
72900W        W45325  28.588  11.769  11.504
72901W        W45326   8.160  41.881  10.536
72902W        W45327  38.410  21.195  12.557
72903W        W45328   1.741  39.815   3.208
72904W        W45329  40.958  42.311   2.794
72905W        W45330   0.939  44.499   2.276
72906W        W45331  29.646  37.417   4.638
72907W        W45332  19.209   2.338   0.956
72908W        W45333  27.608  13.174  14.996
72909W        W45334  39.331  10.333   1.877
72910W        W45335  14.226  42.885   5.146
72911W        W45336   3.740   2.352  10.416
72912W        W45337   0.868   4.293  10.429
72913W        W45338   7.747  22.086   0.429
72914W        W45339  29.551   3.736   3.303
72915W        W45340   0.365  15.111   0.794
72916W        W45341  14.701  41.862  11.093
72917W        W45342  18.074   3.296  13.814
72918W        W45343  15.688   2.234  13.022
72919W        W45344   0.306  35.454  12.446
72920W        W45345  31.118  24.043  13.463
72921W        W45346  11.801  10.731   4.648
72922W        W45347  13.220  43.334   4.147
72923W        W45348  35.853  32.986   4.192
72924W        W45349  25.620   4.908   1.842
72925W        W45350  44.460   1.378   4.602
72926W        W45351  17.125   9.365  11.005
72927W        W45352  14.133  25.985   1.892
72928W        W45353  30.626  40.383   3.181
72929W        W45354  42.900  11.259  12.438
72930W        W45355  17.149   8.347   3.377
72931W        W45356   4.266   9.261   1.215
72932W        W45357  25.068  20.644  12.975
72933W        W45358  14.328  16.576   2.682
72934W        W45359  36.347  42.371   0.927
72935W        W45360   7.678  36.406  10.621
72936W        W45361  39.832  41.411   0.419
72937W        W45362  28.143  35.442   3.220
72938W        W45363  26.136   1.333   4.282
72939W        W45364  16.146  27.532   0.482
72940W        W45365  43.284  11.825  11.401
72941W        W45366   4.374  42.398  13.025
72942W        W45367   8.178  33.103   1.339
72943W        W45368   9.839  35.049   0.378
72944W        W45369  27.117   2.873  11.459
72945W        W45370  41.530  18.779  13.334
72946W        W45371  41.940   9.745   2.180
72947W        W45372  19.617  14.162  10.513
72948W        W45373  39.980  28.068   4.756
72949W        W45374  21.734  41.459   1.926
72950W        W45375  44.848  18.116  14.994
72951W        W45376  23.714  35.475   0.346
72952W        W45377  43.485   0.973   0.367
72953W        W45378  26.181  18.111  12.886
72954W        W45379  39.833   8.689  13.900
72955W        W45380  44.985  32.419  14.293
72956W        W45381  21.569  17.691  11.877
72957W        W45382   9.708  23.054   0.754
72958W        W45383  37.997   4.873  13.533
72959W        W45384   9.881  31.438   0.845
72960W        W45385  12.283   2.310   4.697
72961W        W45386  29.090  42.024  14.964
72962W        W45387  29.498   6.399   2.280
72963W        W45388  42.343  37.884   4.828
72964W        W45389   7.267  16.601  11.439
72965W        W45390  40.054  26.573   1.292
72966W        W45391  17.161  42.386  13.852
72967W        W45392  21.111  37.867   0.876
72968W        W45393  32.050  17.202  13.023
72969W        W45394   8.284  27.094   3.231
72970W        W45395  15.168  13.228  12.516
72971W        W45396  10.193  21.130   3.343
72972W        W45397  13.635  10.157   0.378
72973W        W45398  28.069   5.432   3.848
72974W        W45399  38.910  23.054  10.468
72975W        W45400  27.608  16.088   0.479
72976W        W45401  39.332  39.916   1.840
72977W        W45402  28.609   6.257  14.493
72978W        W45403   7.367  19.049   2.389
72979W        W45404  26.539  30.971  13.908
72980W        W45405  11.229   2.870   0.464
72981W        W45406  40.992  15.199   1.896
72982W        W45407  17.785  32.103  10.435
72983W        W45408  39.052   1.926   4.190
72984W        W45409  24.201   3.374  13.882
72985W        W45410   7.869  32.456  10.462
72986W        W45411  22.551  22.053   0.379
72987W        W45412   9.239  35.441   0.846
72988W        W45413  21.193   3.241   1.823
72989W        W45414  20.611  13.717  13.009
72990W        W45415  37.581  19.535   1.421
72991W        W45416  43.846  26.493   4.732
72992W        W45417  31.982   5.433  11.901
72993W        W45418   0.287  23.727   3.183
72994W        W45419   8.871  24.558  14.924
72995W        W45420   9.810  30.101   3.294
72996W        W45421   8.900   8.404  12.473
72997W        W45422  43.421  36.897   1.921
72998W        W45423  13.646  42.781  13.032
72999W        W45424   8.799  41.516   0.466
73000W        W45425   3.238  30.042   3.747
73001W        W45426  21.097   9.826   4.138
73002W        W45427  41.525   6.683  12.528
73003W        W45428  28.579  37.965   0.272
73004W        W45429  28.514  13.796  12.539
73005W        W45430  30.029  40.351  11.088
73006W        W45431   6.189  22.648   5.163
73007W        W45432  32.637   7.271  12.944
73008W        W45433  11.862  20.690  12.341
73009W        W45434  13.630  10.756  14.826
73010W        W45435   0.465  22.591  14.979
73011W        W45436   1.447  40.340  11.075
73012W        W45437  39.952   0.971  10.088
73013W        W45438  35.032  32.937  11.976
73014W        W45439  29.656  18.603  11.125
73015W        W45440   3.396  18.572   1.307
73016W        W45441  41.337  44.487  12.943
73017W        W45442  44.288  40.846   3.770
73018W        W45443  25.164   3.746  10.922
73019W        W45444  40.986  37.023  14.891
73020W        W45445   3.232  24.186   2.773
73021W        W45446   5.783  33.899   1.213
73022W        W45447   8.826  15.700   1.694
73023W        W45448  43.921  24.534  13.536
73024W        W45449  29.567  41.950   4.709
73025W        W45450  33.471  43.981  14.762
73026W        W45451  21.594   8.715  11.561
73027W        W45452  36.860  27.660   0.831
73028W        W45453   4.443  42.024  14.464
73029W        W45454  20.558  44.420   2.372
73030W        W45455  32.940   3.842  12.033
73031W        W45456  41.392  15.328   4.740
73032W        W45457  39.894  12.240   4.268
73033W        W45458  26.075   1.798   0.391
73034W        W45459  21.089  23.013  14.889
73035W        W45460  10.827  31.413  13.957
73036W        W45461  11.807  33.522   4.767
73037W        W45462  31.515   7.268   1.258
73038W        W45463  22.704   0.263   3.189
73039W        W45464   0.406   4.933   4.644
73040W        W45465  20.266  33.927  14.419
73041W        W45466  18.164  32.550   3.278
73042W        W45467  30.521   2.841   0.371
73043W        W45468   7.385  29.532   3.272
73044W        W45469  35.074  43.306  12.562
73045W        W45470  21.741  15.794   4.770
73046W        W45471  27.014  25.059   5.265
73047W        W45472   5.439  28.582  13.007
73048W        W45473  39.433  22.093   4.283
73049W        W45474  26.496   0.864   1.761
73050W        W45475  19.075  42.406  14.393
73051W        W45476  32.072  29.062   3.268
73052W        W45477  37.470  23.021   0.371
73053W        W45478  21.711   3.330   1.320
73054W        W45479  10.695   5.923  14.997
73055W        W45480  24.643  40.869  11.526
73056W        W45481  44.335  33.096   3.704
73057W        W45482  44.794   8.782   0.749
73058W        W45483  42.939  36.921  10.412
73059W        W45484  38.326  14.287   4.140
73060W        W45485  10.201  28.129  10.620
73061W        W45486  12.348   5.866  13.855
73062W        W45487  24.554  15.692  14.902
73063W        W45488  35.505  44.331   4.347
73064W        W45489  25.636   8.264   0.913
73065W        W45490  33.060   7.177  12.346
73066W        W45491   7.711   8.343  13.949
73067W        W45492  21.079  19.111   1.290
73068W        W45493  30.608  19.254   1.738
73069W        W45494   9.359  31.438   3.775
73070W        W45495  24.694  39.353   0.386
73071W        W45496  23.627   4.333  13.515
73072W        W45497  32.570  43.357   0.741
73073W        W45498  38.942  15.238  13.424
73074W        W45499   1.311  31.636  13.033
73075W        W45500  41.338  31.074  12.833
73076W        W45501  13.155  42.851   1.853
73077W        W45502  31.408  23.110   3.790
73078W        W45503  27.478   4.450   4.688
73079W        W45504   7.274  13.659  12.448
73080W        W45505   7.910  29.496  13.447
73081W        W45506  24.993  34.900  10.920
73082W        W45507  14.312  14.219   0.807
73083W        W45508   0.366  39.503  10.532
73084W        W45509   6.221  22.727  11.912
73085W        W45510   2.272  23.520  13.986
73086W        W45511  21.080  10.186  11.004
73087W        W45512  17.063  24.568  11.440
73088W        W45513  11.245   6.259   1.890
73089W        W45514  13.185   4.897  13.395
73090W        W45515  30.652  43.347   4.181
73091W        W45516  33.051  34.604  10.612
73092W        W45517  40.328  13.194   4.606
73093W        W45518  36.364   9.663   4.636
73094W        W45519   3.807  17.218  14.504
73095W        W45520  18.711   3.406   5.274
73096W        W45521   7.311   2.358   2.712
73097W        W45522  12.224  29.175  11.089
73098W        W45523  34.558   6.676   1.901
73099W        W45524  44.455  23.212  14.000
73100W        W45525  13.119  36.402  11.526
73101W        W45526  38.518  37.896  13.924
73102W        W45527  37.345  20.101  14.771
73103W        W45528  30.634  28.438   0.374
73104W        W45529  27.492  20.548   1.287
73105W        W45530   3.813  38.333  10.893
73106W        W45531   3.285  14.114   1.264
73107W        W45532  37.443  27.617  12.869
73108W        W45533  23.238  14.668  13.510
73109W        W45534   0.751  27.052   1.923
73110W        W45535  23.691   8.740   2.320
73111W        W45536  26.534   5.735  11.061
73112W        W45537  44.313   4.236   3.825
73113W        W45538   0.794  32.971   0.869
73114W        W45539  35.063   4.346   4.336
73115W        W45540   0.866  34.518   1.294
73116W        W45541  43.493   3.713  14.796
73117W        W45542   3.268  24.628  13.323
73118W        W45543  12.724  33.396  14.976
73119W        W45544  43.950  42.498  14.302
73120W        W45545  44.865  21.112  14.810
73121W        W45546  24.625  12.846   1.828
73122W        W45547  38.879  16.783  13.524
73123W        W45548  35.938  42.353  11.476
73124W        W45549  35.884  14.663   4.240
73125W        W45550  11.156  30.113  14.927
73126W        W45551  29.533  24.174  13.816
73127W        W45552  41.002  21.712   0.353
73128W        W45553  43.318  32.029   4.328
73129W        W45554  37.452  30.626   0.474
73130W        W45555  18.684   5.291  11.573
73131W        W45556   0.849  18.725   1.450
73132W        W45557   3.331  33.031  10.019
73133W        W45558  30.022  24.173  13.894
73134W        W45559   1.867  33.923   3.636
73135W        W45560  30.490  21.175   0.316
73136W        W45561  26.667  30.953  13.526
73137W        W45562   0.417  35.472  13.321
73138W        W45563  32.617  27.081  11.036
73139W        W45564  36.349   7.273  10.118
73140W        W45565  17.260   8.813  13.491
73141W        W45566  41.398  28.575   1.915
73142W        W45567  12.769  37.902   0.734
73143W        W45568  21.239  17.148   2.233
73144W        W45569  18.131  26.016   3.821
73145W        W45570  17.075  40.014   3.702
73146W        W45571  34.898  19.625  12.356
73147W        W45572  35.521   3.384  12.399
73148W        W45573   7.214  26.054  11.381
73149W        W45574  13.830  30.550   2.179
73150W        W45575  26.982  39.863   1.873
73151W        W45576  33.539  18.703  11.471
73152W        W45577  20.609  33.518   0.286
73153W        W45578  14.714  37.953   3.286
73154W        W45579  22.107  36.414  11.103
73155W        W45580  26.980  28.087   2.833
73156W        W45581  41.349  31.016  12.396
73157W        W45582  43.467  22.198  14.439
73158W        W45583  10.758  37.950  11.006
73159W        W45584  18.137  21.734  10.599
73160W        W45585  11.670  41.930   4.149
73161W        W45586  34.492  32.964  14.478
73162W        W45587   0.846  36.951   1.424
73163W        W45588  18.591  19.766  14.290
73164W        W45589  19.764  30.020   9.645
73165W        W45590  24.139  22.598  13.832
73166W        W45591  18.656  21.740   0.895
73167W        W45592  35.079  32.896  12.368
73168W        W45593  36.899  13.844   0.458
73169W        W45594  27.484  20.189   2.299
73170W        W45595  37.976  19.076   0.869
73171W        W45596  36.019  28.066   4.223
73172W        W45597  16.232  43.366  14.764
73173W        W45598   7.728  26.580  10.160
73174W        W45599  22.150  22.630   4.691
73175W        W45600  27.193   1.291  10.434
73176W        W45601  33.584  38.871   5.296
73177W        W45602  43.419  20.728  12.088
73178W        W45603  39.985  17.142   1.863
73179W        W45604  22.069   7.827  13.054
73180W        W45605   4.859  28.093   4.196
73181W        W45606  18.721  15.219   1.757
73182W        W45607  20.587  16.625  12.935
73183W        W45608  37.478  34.987   4.771
73184W        W45609  15.583  19.104   4.732
73185W        W45610  37.385  20.117   4.624
73186W        W45611  38.414   8.243   4.659
73187W        W45612  13.683  38.418  10.920
73188W        W45613  27.153  25.990   0.955
73189W        W45614  27.455  42.857   3.226
73190W        W45615  15.729  21.065  10.961
73191W        W45616  32.425  41.292  13.930
73192W        W45617  19.766  41.873   2.419
73193W        W45618  14.161  35.377   3.241
73194W        W45619   9.161   5.345   0.767
73195W        W45620   9.873  34.975  11.522
73196W        W45621   1.354  27.075  13.424
73197W        W45622  16.790  30.963  12.422
73198W        W45623  39.952   0.794   3.686
73199W        W45624  13.302   5.378   3.666
73200W        W45625   3.307  40.842  12.830
73201W        W45626   4.724  22.728  11.439
73202W        W45627  25.185  38.927  13.484
73203W        W45628  37.985  14.625   3.194
73204W        W45629  11.254  23.161   9.985
73205W        W45630  35.886  35.527   4.820
73206W        W45631  16.581   5.928  10.995
73207W        W45632  43.998  42.906  12.526
73208W        W45633   8.319  23.024  11.516
73209W        W45634   2.737  13.794   0.842
73210W        W45635  44.888  19.260  10.498
73211W        W45636  28.944  33.470   1.889
73212W        W45637  15.641  43.513   0.932
73213W        W45638  26.489  13.745   1.729
73214W        W45639  12.696   8.253   4.159
73215W        W45640  21.681   4.213   2.387
73216W        W45641  11.233  16.139  12.463
73217W        W45642  29.485  14.705  10.540
73218W        W45643  30.652  18.717  11.982
73219W        W45644  29.924  27.658   2.879
73220W        W45645  42.325  40.015   2.224
73221W        W45646   1.405  41.350   0.331
73222W        W45647  21.742  38.569   2.364
73223W        W45648  40.910  43.008   0.375
73224W        W45649  32.484  44.935  14.896
73225W        W45650  10.144  38.945   0.787
73226W        W45651  13.609  22.681  11.855
73227W        W45652  41.408   5.339  12.913
73228W        W45653  19.638  33.509  14.798
73229W        W45654  43.988   6.310   1.819
73230W        W45655  34.592  31.122  13.938
73231W        W45656   7.410  25.672   1.719
73232W        W45657  24.616  11.691   0.371
73233W        W45658  34.417  40.427   3.850
73234W        W45659  26.105   4.338  11.598
73235W        W45660   4.280  14.669   1.772
73236W        W45661  13.607   1.859  14.817
73237W        W45662   3.942  12.668   2.418
73238W        W45663  40.941  13.696  12.365
73239W        W45664  15.773  11.221  14.864
73240W        W45665  32.588  29.572   1.272
73241W        W45666  30.091  24.694  14.814
73242W        W45667  43.917  28.177  12.078
73243W        W45668  11.135  31.079   3.808
73244W        W45669  16.630  44.388  13.987
73245W        W45670  23.216  36.347  12.339
73246W        W45671  28.067  32.939   9.442
73247W        W45672  39.456  31.525  11.064
73248W        W45673   9.204   5.717   3.749
73249W        W45674  22.661  23.526   1.893
73250W        W45675   9.220  14.106  14.456
73251W        W45676   3.785  26.083  13.865
73252W        W45677   7.345  16.135  12.519
73253W        W45678  18.282   8.755   3.230
73254W        W45679  23.116   7.668  14.959
73255W        W45680  11.198   6.781  11.077
73256W        W45681  25.476  35.386   3.793
73257W        W45682  24.674   8.833  12.431
73258W        W45683   2.312  28.048  13.370
73259W        W45684  30.033  33.581  13.792
73260W        W45685   1.864  35.401  13.504
73261W        W45686  26.022   0.352  11.948
73262W        W45687  14.670   3.753   4.253
73263W        W45688  42.347  16.766  11.520
73264W        W45689  26.693  31.909  14.438
73265W        W45690  20.646  25.133   3.260
73266W        W45691  17.157  26.585  11.934
73267W        W45692  25.036  43.456   4.332
73268W        W45693   3.231   8.882   4.311
73269W        W45694  18.688  21.211  14.292
73270W        W45695  20.080  35.516  14.512
73271W        W45696  18.759   7.909  12.004
73272W        W45697  31.958   6.212  14.764
73273W        W45698  17.099  13.649  13.975
73274W        W45699  27.945  33.036   4.707
73275W        W45700  36.986  34.551  12.363
73276W        W45701   4.289  17.293  14.008
73277W        W45702  21.211  15.692   3.271
73278W        W45703   6.710  40.331   1.437
73279W        W45704  35.953  16.746  11.981
73280W        W45705  14.287  11.241  14.362
73281W        W45706   0.960  39.046  11.944
73282W        W45707  32.964  20.624   4.790
73283W        W45708  10.309  29.170  10.987
73284W        W45709   5.281  35.897  11.106
73285W        W45710  27.590  34.962   0.273
73286W        W45711  27.692   5.830   2.676
73287W        W45712  43.350  20.685   2.815
73288W        W45713  35.560  39.462  11.869
73289W        W45714  13.702  21.697   9.440
73290W        W45715  33.063  41.382  10.452
73291W        W45716  41.438   1.373  12.863
73292W        W45717  16.265  15.138   1.239
73293W        W45718  30.961   9.721  13.809
73294W        W45719   8.833  10.373  11.959
73295W        W45720   9.365   7.291   0.921
73296W        W45721  41.420   3.895  12.548
73297W        W45722  32.104  15.748   1.714
73298W        W45723  41.482  12.611   4.312
73299W        W45724  20.258  23.552   1.257
73300W        W45725  30.007   2.281   4.835
73301W        W45726  35.450  29.424  13.866
73302W        W45727  19.668   9.666  12.829
73303W        W45728  23.227  40.410   1.718
73304W        W45729   6.272  11.219  10.977
73305W        W45730  14.830  41.786   0.839
73306W        W45731  31.524  31.426  14.995
73307W        W45732  20.039  38.507  10.922
73308W        W45733   2.811  12.300  11.101
73309W        W45734  25.965  37.869  12.519
73310W        W45735  33.529   1.753   3.734
73311W        W45736  41.455  29.139   1.353
73312W        W45737  23.992  40.027  14.816
73313W        W45738  14.761  25.991   1.301
73314W        W45739  37.413  33.477  11.551
73315W        W45740   5.853  28.047  10.999
73316W        W45741  14.636   1.414   1.913
73317W        W45742  22.067   3.721   1.405
73318W        W45743   8.230  23.137  13.930
73319W        W45744  22.014  27.458   0.863
73320W        W45745  42.786  21.018   3.192
73321W        W45746  14.206   6.331  13.835
73322W        W45747   3.222   7.382  10.522
73323W        W45748  37.866   5.422  12.001
73324W        W45749  13.804  23.071   0.890
73325W        W45750  29.638  34.076  11.938
73326W        W45751  18.128  41.997   0.872
73327W        W45752  20.159  15.200   4.192
73328W        W45753   2.836  33.945  13.312
73329W        W45754  25.095  40.802   4.602
73330W        W45755  39.491  22.252  12.093
73331W        W45756  17.128  22.726   5.132
73332W        W45757  12.230  38.479   3.629
73333W        W45758  21.243  24.987   0.966
73334W        W45759  42.506  29.426  14.785
73335W        W45760  10.328   1.881  12.883
73336W        W45761  15.667   7.826   5.294
73337W        W45762  21.547  10.718  11.862
73338W        W45763  10.806  29.051  13.345
73339W        W45764  18.163  35.603  11.492
73340W        W45765  29.055  32.949   2.336
73341W        W45766  11.717  14.224  10.526
73342W        W45767  25.971  25.025  10.538
73343W        W45768   2.378   2.275  14.833
73344W        W45769  17.567  27.634   1.743
73345W        W45770  16.119  11.669  12.394
73346W        W45771  31.051   5.359   2.869
73347W        W45772  28.667   5.205   1.326
73348W        W45773  34.940  10.266   2.706
73349W        W45774  18.218  25.042  12.346
73350W        W45775  18.250  37.027   3.635
73351W        W45776   9.349  18.054   0.826
73352W        W45777  30.004  13.288  14.889
73353W        W45778   0.900  27.116  10.616
73354W        W45779  43.958  22.684   2.884
73355W        W45780   1.411  38.333   2.785
73356W        W45781  30.633  13.310   2.194
73357W        W45782   4.882  35.497  12.995
73358W        W45783   2.870  43.008   2.391
73359W        W45784  26.622  43.917  11.488
73360W        W45785  20.674  12.276   4.195
73361W        W45786  32.522  18.226   9.945
73362W        W45787  34.580   0.480   4.290
73363W        W45788  13.775   3.222  10.900
73364W        W45789   9.380   7.701  11.128
73365W        W45790  20.072  15.134  10.620
73366W        W45791  15.211   0.350  12.515
73367W        W45792  44.281   8.791  10.645
73368W        W45793  22.242   0.880  11.526
73369W        W45794  11.765  21.156  13.862
73370W        W45795  13.247  33.489   3.794
73371W        W45796  24.544   1.871   3.732
73372W        W45797  18.107   5.197   2.408
73373W        W45798   1.302  35.084   2.389
73374W        W45799  22.675   0.268   0.769
73375W        W45800   7.894  42.923  11.557
73376W        W45801  39.828  17.262  14.469
73377W        W45802  26.062   8.893  10.906
73378W        W45803  16.708   4.923   1.921
73379W        W45804  32.582  36.440   0.254
73380W        W45805  40.951  22.559   0.437
73381W        W45806  29.533  29.101  13.502
73382W        W45807  16.701  30.423   4.118
73383W        W45808  29.994  43.497   2.264
73384W        W45809  40.381  32.038  11.096
73385W        W45810  29.028  43.484   1.831
73386W        W45811  27.095   8.729   0.860
73387W        W45812  13.747  35.474  11.903
73388W        W45813  37.473   0.454   3.271
73389W        W45814   5.272  30.600  12.462
73390W        W45815  12.226  32.042   4.627
73391W        W45816  23.492  24.982  13.819
73392W        W45817  37.479  31.612  10.412
73393W        W45818  29.986  17.741   0.876
73394W        W45819   4.861  30.561   2.680
73395W        W45820   6.293   9.841  12.496
73396W        W45821  27.507  19.049  14.315
73397W        W45822  30.639  30.522  14.434
73398W        W45823  24.505  32.607  11.894
73399W        W45824  37.993  23.584   4.135
73400W        W45825   2.921  18.790  11.926
73401W        W45826  43.802  32.138   1.241
73402W        W45827  28.062   7.332   4.794
73403W        W45828  44.991  15.290  14.365
73404W        W45829   6.806  41.967  13.968
73405W        W45830   4.321   9.220  14.410
73406W        W45831  19.068  41.452   2.265
73407W        W45832  15.127  17.603  11.074
73408W        W45833   6.738  19.194   1.356
73409W        W45834  13.797  43.867  11.016
73410W        W45835  10.831  24.138   1.915
73411W        W45836  21.060   6.389   3.650
73412W        W45837  35.860  25.666   3.659
73413W        W45838  26.585  26.676  14.490
73414W        W45839  44.379  10.872   1.387
73415W        W45840  39.975  17.601  11.560
73416W        W45841  28.940   8.398   2.196
73417W        W45842   2.889  26.515  11.383
73418W        W45843  28.557  35.590  13.036
73419W        W45844  40.043  17.681  10.424
73420W        W45845  36.919  39.908   3.292
73421W        W45846   9.749  26.969   3.774
73422W        W45847   4.442  39.018  14.830
73423W        W45848  11.237  12.250   3.817
73424W        W45849   6.350  25.489  10.593
73425W        W45850  32.065  15.806   3.290
73426W        W45851  44.385  24.672   0.898
73427W        W45852  13.326   5.218   1.915
73428W        W45853   7.672  11.796  13.319
73429W        W45854   6.189   6.888   1.319
73430W        W45855  36.393  11.281   1.397
73431W        W45856  17.584  34.602   2.854
73432W        W45857  24.081  42.869   0.452
73433W        W45858  22.731  14.282   0.757
73434W        W45859  41.474  26.678  14.317
73435W        W45860  31.010  39.326  11.083
73436W        W45861  11.138  44.496   3.798
73437W        W45862  12.856  32.925   3.797
73438W        W45863  12.672  21.707   0.967
73439W        W45864  44.384  38.364   1.902
73440W        W45865  17.305  17.104   2.315
73441W        W45866  19.650  23.005  10.526
73442W        W45867  10.267  32.043   9.953
73443W        W45868  34.111  38.923   4.340
73444W        W45869  13.758   1.476   4.147
73445W        W45870  24.533  41.357   3.285
73446W        W45871  38.559   1.362  13.945
73447W        W45872   7.793  26.621   5.210
73448W        W45873  31.987  12.224  12.968
73449W        W45874  28.537   3.939  12.831
73450W        W45875   3.383   9.254   0.295
73451W        W45876  22.142  36.067   4.188
73452W        W45877  11.224  16.619   2.816
73453W        W45878   4.368  32.491  11.528
73454W        W45879  42.410  21.234  10.083
73455W        W45880   1.915  34.913   0.435
73456W        W45881  33.113   5.197   0.264
73457W        W45882  13.119  23.128  11.505
73458W        W45883  28.462  36.460  11.965
73459W        W45884  10.218  27.478  11.481
73460W        W45885  31.074  14.117   1.212
73461W        W45886  30.110  21.686  11.431
73462W        W45887  44.301   2.293  11.476
73463W        W45888  42.776  32.954  11.868
73464W        W45889  11.231   1.879  14.379
73465W        W45890  16.762   5.841  11.479
73466W        W45891   4.938  40.405   2.306
73467W        W45892  14.641  38.327   3.859
73468W        W45893  35.543  30.582  11.516
73469W        W45894  43.938  10.353  13.429
73470W        W45895   6.858  22.099  14.802
73471W        W45896  31.471  34.087   3.770
73472W        W45897  18.631  22.234  13.971
73473W        W45898  40.344   3.834   4.265
73474W        W45899  39.344   4.761  12.466
73475W        W45900   8.846  33.537  12.551
73476W        W45901  11.631  30.476  14.399
73477W        W45902  28.079  14.181   4.733
73478W        W45903  37.341  12.221   2.345
73479W        W45904  12.611  12.853   3.812
73480W        W45905  21.120  41.897  12.928
73481W        W45906   2.239  23.043  12.928
73482W        W45907   6.417   8.888   0.800
73483W        W45908  27.497  43.783  13.525
73484W        W45909   3.358  14.763  11.958
73485W        W45910  38.049   1.357   2.784
73486W        W45911  13.254   2.361  12.407
73487W        W45912   5.421  17.124  14.279
73488W        W45913  37.579   4.846   4.279
73489W        W45914  23.236  40.898   1.223
73490W        W45915   0.963   0.439  11.877
73491W        W45916  35.954  36.412   0.353
73492W        W45917  16.138  23.112   3.725
73493W        W45918   8.189  15.805   3.656
73494W        W45919  34.936  44.973  10.965
73495W        W45920   1.836  21.228  12.008
73496W        W45921  29.497  29.601  11.596
73497W        W45922  33.501   7.216  10.154
73498W        W45923   1.976  42.915  14.839
73499W        W45924  30.145  16.803  13.417
73500W        W45925   6.379  30.982  14.888
73501W        W45926   5.698  12.857   1.896
73502W        W45927  43.396  25.122   4.240
73503W        W45928  14.249  33.557   1.924
73504W        W45929  29.586  37.477  14.322
73505W        W45930   4.226  36.845  11.420
73506W        W45931  21.685   5.815  13.006
73507W        W45932  44.320  29.007   1.891
73508W        W45933  25.703  21.059   1.312
73509W        W45934  21.621   9.789   3.771
73510W        W45935  27.611  42.490  11.610
73511W        W45936  11.798   8.831  11.401
73512W        W45937  42.372  23.522  12.882
73513W        W45938  12.850  26.005  13.984
73514W        W45939  17.092  15.818  11.964
73515W        W45940  32.994  17.097  11.586
73516W        W45941  23.087  14.283   0.818
73517W        W45942  32.091  19.660   2.808
73518W        W45943  27.078   2.848  14.306
73519W        W45944  14.304   2.897  11.125
73520W        W45945  35.060   6.911   4.832
73521W        W45946  21.133  38.500   1.916
73522W        W45947   3.425  39.318  10.517
73523W        W45948  30.422   8.859  11.040
73524W        W45949  20.184  13.242   3.726
73525W        W45950   7.872  37.886   5.175
73526W        W45951  25.098  12.235  11.534
73527W        W45952  41.337   4.273   3.216
73528W        W45953  44.870  23.135   0.905
73529W        W45954  13.623  26.681  10.082
73530W        W45955  35.594  15.673   3.259
73531W        W45956  18.760  21.568   2.726
73532W        W45957  40.505  44.864  14.326
73533W        W45958  11.680  33.047   0.772
73534W        W45959   4.249  44.430  11.085
73535W        W45960  32.564  10.728  11.415
73536W        W45961   6.214  25.214  10.551
73537W        W45962  30.447  33.545   0.307
73538W        W45963  37.523   1.885   2.319
73539W        W45964   6.698  23.030   3.190
73540W        W45965  27.093  42.947   3.208
73541W        W45966  24.127  37.487   1.912
73542W        W45967   1.748   5.238   3.252
73543W        W45968   8.259  19.089   2.343
73544W        W45969  21.656  24.630  12.426
73545W        W45970  13.196  40.475   4.757
73546W        W45971  44.477  44.944  12.939
73547W        W45972  31.466  15.152   0.372
73548W        W45973  37.004  43.294  14.448
73549W        W45974  33.095  30.576   0.869
73550W        W45975  15.699  22.648  11.438
73551W        W45976  40.510  13.621  13.963
73552W        W45977  16.617   2.930  14.978
73553W        W45978  26.206   1.374   1.809
73554W        W45979   2.856  43.430  14.380
73555W        W45980  35.411  42.491   4.156
73556W        W45981   7.238  11.341  13.510
73557W        W45982   1.773   0.378  14.382
73558W        W45983  20.139  20.188   1.891
73559W        W45984  32.088  13.278   0.836
73560W        W45985  36.587  30.027  11.919
73561W        W45986  36.860   6.865  13.976
73562W        W45987  22.569  35.957  11.462
73563W        W45988  30.597  39.410   4.185
73564W        W45989  43.357  20.033  13.824
73565W        W45990  22.723   4.857   0.411
73566W        W45991  36.509   8.257  13.548
73567W        W45992   0.895   5.746  10.528
73568W        W45993  10.795  23.041   0.283
73569W        W45994  12.191  17.171   3.730
73570W        W45995  42.970  40.464   2.415
73571W        W45996   1.797  23.205   3.353
73572W        W45997   3.375  14.113   3.337
73573W        W45998  12.652   0.909   1.442
73574W        W45999  44.412  11.632  11.999
73575W        W46000  39.032  10.792  12.464
73576W        W46001  30.451   7.907   1.895
73577W        W46002  43.833  24.651   4.348
73578W        W46003  12.215  12.296   2.357
73579W        W46004  17.761  31.532   4.218
73580W        W46005  40.965   9.169   3.313
73581W        W46006   9.756  30.582   2.792
73582W        W46007  13.716  42.833  11.002
73583W        W46008  20.133   5.832   1.853
73584W        W46009   3.907   4.776   3.223
73585W        W46010  18.572  28.947   3.729
73586W        W46011  13.635  43.368   4.781
73587W        W46012  38.990  21.260  11.596
73588W        W46013  41.433  31.142  13.891
73589W        W46014  15.581  15.707  13.322
73590W        W46015  41.480  44.848  14.882
73591W        W46016   6.294   0.421   2.816
73592W        W46017  30.650  24.029   3.635
73593W        W46018   8.249  44.311  14.421
73594W        W46019  13.670  18.172  14.331
73595W        W46020  41.377  12.762  13.323
73596W        W46021  35.048   7.811   3.148
73597W        W46022   3.788  22.047   1.350
73598W        W46023  14.700  19.542  11.082
73599W        W46024  25.010  28.457  10.575
73600W        W46025  32.518  18.780   4.735
73601W        W46026   3.241  25.089  13.438
73602W        W46027   3.739  34.583  10.973
73603W        W46028  14.143  10.193  10.949
73604W        W46029  31.047  18.220   2.382
73605W        W46030  29.993   0.931  12.900
73606W        W46031  11.792   8.853  11.081
73607W        W46032  29.487   3.373  14.478
73608W        W46033   6.414  35.885   2.365
73609W        W46034  18.203  29.489   0.421
73610W        W46035  35.362  44.355   3.334
73611W        W46036  13.636  29.074   3.224
73612W        W46037  39.503  29.104  14.513
73613W        W46038  10.301  23.657   5.279
73614W        W46039  38.425  16.201   4.165
73615W        W46040  21.040   2.244  14.018
73616W        W46041  15.249  37.463  13.905
73617W        W46042  38.326  28.112   4.298
73618W        W46043  38.338  35.573   4.625
73619W        W46044  21.158  29.093   2.189
73620W        W46045   4.723  36.061  10.954
73621W        W46046  20.688  33.936  12.023
73622W        W46047  34.051  37.555   1.386
73623W        W46048   6.747  17.237   1.852
73624W        W46049  29.512  27.174   1.757
73625W        W46050   5.294  18.614   4.673
73626W        W46051  14.675  29.482   3.247
73627W        W46052  15.175   2.738  12.852
73628W        W46053  18.597  40.949   2.743
73629W        W46054   1.795  24.589   1.293
73630W        W46055   8.279  39.885   1.819
73631W        W46056  18.225  32.018  12.483
73632W        W46057  26.533  29.536   2.410
73633W        W46058   6.187   0.783  14.838
73634W        W46059  22.740   2.936  10.607
73635W        W46060   0.341  26.549  14.469
73636W        W46061   9.713  39.541  11.011
73637W        W46062  38.414  18.695   4.833
73638W        W46063  19.755  13.815   3.267
73639W        W46064  41.911  15.222  13.345
73640W        W46065  19.610  38.930   1.754
73641W        W46066  21.094  36.534   2.668
73642W        W46067  13.189  18.138   3.859
73643W        W46068  28.073  29.665  14.341
73644W        W46069  17.772   4.719   1.778
73645W        W46070   1.801   2.809  14.827
73646W        W46071   0.460  42.822  12.851
73647W        W46072  38.418  35.990   4.769
73648W        W46073  16.172  44.479   1.737
73649W        W46074   5.434  41.889   0.896
73650W        W46075  18.254   6.791   4.670
73651W        W46076   7.337  13.616  12.034
73652W        W46077   6.896  36.532   4.327
73653W        W46078  40.810  40.972  10.444
73654W        W46079  25.064   2.737   1.232
73655W        W46080  20.726  42.776  13.032
73656W        W46081  25.586  42.294  10.634
73657W        W46082  16.602  23.565  12.825
73658W        W46083  22.532  15.722  14.476
73659W        W46084  44.977  27.969  11.950
73660W        W46085   2.325   8.807   2.335
73661W        W46086   2.380  27.618  14.814
73662W        W46087  25.059  12.621   4.616
73663W        W46088  21.232   5.378   0.338
73664W        W46089   0.314   7.401   3.658
73665W        W46090  33.407  44.758   0.363
73666W        W46091  15.620   4.290  14.847
73667W        W46092  26.137   5.427  13.010
73668W        W46093  36.860  43.386  13.016
73669W        W46094  27.537  43.474   4.123
73670W        W46095  22.177  24.676   0.898
73671W        W46096   5.249  11.642  11.549
73672W        W46097  20.747  10.302   1.313
73673W        W46098  23.005  38.982   1.224
73674W        W46099  17.589   7.739   2.337
73675W        W46100  18.178   9.726  11.004
73676W        W46101  25.075  26.974   2.895
73677W        W46102  18.192  25.476   2.682
73678W        W46103  16.095  15.793   4.159
73679W        W46104  32.395  24.201   3.851
73680W        W46105  13.794  30.420  11.071
73681W        W46106  27.145  12.857  14.489
73682W        W46107   3.854   6.305   1.448
73683W        W46108  40.489  30.943  14.502
73684W        W46109  18.098  31.641  12.540
73685W        W46110  19.068  26.107  10.903
73686W        W46111  17.627  34.410  12.367
73687W        W46112   3.710  18.645   1.312
73688W        W46113  15.231  29.074   1.265
73689W        W46114   6.728   1.316   1.796
73690W        W46115  37.954  33.591   2.209
73691W        W46116  11.213  13.740  14.981
73692W        W46117   2.293  35.449  10.994
73693W        W46118  12.210   6.846   3.690
73694W        W46119  20.185  39.028  14.359
73695W        W46120  25.612  26.498   5.121
73696W        W46121  16.258  10.785  10.504
73697W        W46122  12.301   9.372   0.372
73698W        W46123   2.460  20.564  14.963
73699W        W46124   6.373  24.135  10.424
73700W        W46125   2.892  22.742  12.455
73701W        W46126  31.125  28.010  10.014
73702W        W46127  19.072  25.663  10.463
73703W        W46128   1.238  35.918   4.629
73704W        W46129  40.376   7.766   2.271
73705W        W46130  35.589  15.295  12.471
73706W        W46131  22.729  11.228  10.904
73707W        W46132  41.301   0.790  14.412
73708W        W46133  35.080  42.010   0.250
73709W        W46134  28.476  13.732  11.373
73710W        W46135  30.016   0.969   4.645
73711W        W46136  27.014  12.633  14.978
73712W        W46137   1.762   7.310   1.794
73713W        W46138  37.396  14.134  13.008
73714W        W46139  16.579   8.701   5.123
73715W        W46140   0.929  11.233  10.453
73716W        W46141  37.398  33.914  14.353
73717W        W46142  26.513  21.658   0.895
73718W        W46143  30.470  21.263   3.778
73719W        W46144  11.812  43.973  12.097
73720W        W46145  28.046  33.449  14.974
73721W        W46146  17.639   1.806   1.854
73722W        W46147  31.551   9.332  11.542
73723W        W46148  28.559  28.135  14.932
73724W        W46149  41.387  31.984  11.397
73725W        W46150  22.549  10.651   2.665
73726W        W46151  31.960   9.803   0.448
73727W        W46152  35.932   2.445  11.530
73728W        W46153  41.303  16.737   2.403
73729W        W46154  43.337  38.855   0.256
73730W        W46155   7.384   8.296   9.935
73731W        W46156  21.204  42.841  14.339
73732W        W46157  27.152  34.048  13.041
73733W        W46158   9.877  13.694   4.162
73734W        W46159  24.167  24.209   2.754
73735W        W46160  37.353   6.900   1.882
73736W        W46161  32.627  13.769   4.252
73737W        W46162  38.077  11.754  13.368
73738W        W46163  18.667  40.366  11.987
73739W        W46164  27.490  18.660   1.887
73740W        W46165  30.471  12.711   4.635
73741W        W46166  20.047  19.689  12.088
73742W        W46167  37.870  24.121   0.364
73743W        W46168  24.043  20.535  14.346
73744W        W46169   3.773  36.521   2.211
73745W        W46170  35.978  39.940   4.830
73746W        W46171  17.765  28.951   3.863
73747W        W46172  26.521  43.857   1.354
73748W        W46173  24.534  29.485   4.822
73749W        W46174  43.828  36.863  11.037
73750W        W46175  25.042  13.661  12.363
73751W        W46176  40.833  20.103  11.577
73752W        W46177  39.339  12.218  12.522
73753W        W46178   1.253  39.919   4.602
73754W        W46179  13.222  28.659  12.064
73755W        W46180  15.654  13.674   4.206
73756W        W46181   8.656   8.378  12.050
73757W        W46182   8.195  14.637  12.465
73758W        W46183  40.868  21.117  13.797
73759W        W46184   4.282   2.426  14.867
73760W        W46185   9.672  21.679   2.262
73761W        W46186  18.701  43.391   3.800
73762W        W46187  12.678  28.172  13.934
73763W        W46188   3.871  22.564   4.757
73764W        W46189   6.770  29.487   2.276
73765W        W46190  39.024   5.363  12.532
73766W        W46191  30.045  26.174  10.980
73767W        W46192  19.040   3.899   2.368
73768W        W46193   8.352   2.412  14.458
73769W        W46194  42.974  41.848  12.485
73770W        W46195  21.546  21.539  12.339
73771W        W46196   8.714   5.353  11.472
73772W        W46197  43.359  21.086  14.832
73773W        W46198  24.638  27.490  10.447
73774W        W46199  37.399  20.737   4.812
73775W        W46200  25.530   9.324   4.161
73776W        W46201   4.428  31.522  11.076
73777W        W46202  36.442  25.052  12.930
73778W        W46203  26.207  35.374  12.827
73779W        W46204  13.225  15.202  11.447
73780W        W46205  16.213  33.911  10.960
73781W        W46206  22.647   2.416  13.517
73782W        W46207  12.185  38.857  13.495
73783W        W46208   7.851  29.440  12.994
73784W        W46209  30.997  30.631   1.930
73785W        W46210  17.690  25.470  12.967
73786W        W46211  27.460   3.353  11.577
73787W        W46212  13.748  24.532  10.558
73788W        W46213   0.368   5.703   2.764
73789W        W46214  27.641   3.742  13.541
73790W        W46215   1.447  10.247   2.893
73791W        W46216  31.600  19.102   0.762
73792W        W46217  10.312   8.181  10.615
73793W        W46218  24.490  41.464  10.962
73794W        W46219   1.377  30.057  11.092
73795W        W46220  10.191   7.717   1.401
73796W        W46221  41.834  30.437   9.946
73797W        W46222  25.642  10.259   1.903
73798W        W46223  12.835  34.574   2.679
73799W        W46224   0.875  21.237   1.266
73800W        W46225  14.816  24.102  14.278
73801W        W46226  35.435  38.902   1.823
73802W        W46227  20.751  31.151   3.791
73803W        W46228   3.884  39.945  12.364
73804W        W46229  40.373   9.802  12.078
73805W        W46230   3.773  12.752   3.866
73806W        W46231   2.794   3.310  13.513
73807W        W46232  43.901  16.146   3.699
73808W        W46233  13.663  28.943   4.321
73809W        W46234  39.487   0.404   4.238
73810W        W46235  27.654   0.745   3.735
73811W        W46236   3.232  37.990  10.643
73812W        W46237  36.047   6.838  10.609
73813W        W46238  27.068  39.542  14.928
73814W        W46239  43.355   2.298   1.933
73815W        W46240   8.854  37.872   1.907
73816W        W46241  43.466  10.818   1.394
73817W        W46242  37.545  19.070  14.886
73818W        W46243  39.451   5.783   0.412
73819W        W46244  41.510  35.390  12.832
73820W        W46245  11.144  29.142  12.958
73821W        W46246   8.360   3.842   0.349
73822W        W46247  23.156  22.608  13.861
73823W        W46248   7.856  31.560  13.527
73824W        W46249   9.866  35.058   2.775
73825W        W46250   2.331  36.949  12.477
73826W        W46251  44.462  38.892  14.414
73827W        W46252  23.112  13.287   0.728
73828W        W46253   7.739  33.007   3.357
73829W        W46254  18.645   7.792   2.724
73830W        W46255   8.724  32.894  13.945
73831W        W46256  11.276  20.729   3.679
73832W        W46257  12.294  17.284   2.260
73833W        W46258  41.993  18.608  13.461
73834W        W46259  42.014  21.240   0.435
73835W        W46260   3.407  31.604   0.795
73836W        W46261  19.662  41.380  11.072
73837W        W46262  29.566  24.226   2.300
73838W        W46263  22.548  18.615   2.788
73839W        W46264  11.803  17.676  11.110
73840W        W46265  40.546  38.909  11.436
73841W        W46266  35.981  14.252   0.268
73842W        W46267  17.747  39.947  12.422
73843W        W46268  18.103  44.763  12.918
73844W        W46269  25.990  40.868  13.951
73845W        W46270  35.551  24.159   9.926
73846W        W46271  13.765  39.552  12.077
73847W        W46272  34.970   1.835   4.338
73848W        W46273  18.570  22.716  13.424
73849W        W46274  14.656  13.694   4.132
73850W        W46275   0.790   4.261  13.483
73851W        W46276  31.617   9.248   2.705
73852W        W46277  24.224  23.627   1.893
73853W        W46278  37.484  31.919  14.369
73854W        W46279  17.582   7.179   3.331
73855W        W46280   5.362  19.072  12.930
73856W        W46281  10.256  15.800   1.839
73857W        W46282  41.872  32.434   4.746
73858W        W46283  18.551   1.434   5.755
73859W        W46284  37.077  35.524   0.732
73860W        W46285  26.463  28.049  13.944
73861W        W46286  17.231  25.501   4.673
73862W        W46287  34.006  13.328   4.236
73863W        W46288  20.747  25.625   3.858
73864W        W46289  12.165  32.897  12.831
73865W        W46290  24.599   2.839  14.797
73866W        W46291  31.024   5.364   3.207
73867W        W46292  30.030  18.209  11.454
73868W        W46293  20.202  36.421   3.248
73869W        W46294  34.896  12.683  11.881
73870W        W46295  24.654  16.801  12.507
73871W        W46296  20.656  36.910   1.739
73872W        W46297  11.786  22.245  13.425
73873W        W46298   3.820  13.713  12.061
73874W        W46299   7.726   3.404   1.263
73875W        W46300  42.827   9.170  12.375
73876W        W46301  42.913  23.627  13.039
73877W        W46302  44.982  25.494  11.531
73878W        W46303  13.790  18.069   0.763
73879W        W46304  32.520  28.148   3.241
73880W        W46305  16.267  11.827  14.938
73881W        W46306  40.455   6.914  12.824
73882W        W46307   3.328   3.259   3.264
73883W        W46308  23.502  19.543   1.411
73884W        W46309   2.287  20.226   3.335
73885W        W46310  11.156   9.170  10.910
73886W        W46311  23.193   3.756  12.826
73887W        W46312   7.864   5.718   4.275
73888W        W46313  38.909  15.318  12.038
73889W        W46314  23.586  37.529   2.812
73890W        W46315  15.284  22.214   1.278
73891W        W46316   6.811  44.755   3.641
73892W        W46317  17.582  25.106  10.572
73893W        W46318  25.519  32.074   0.467
73894W        W46319  42.983   5.876   3.181
73895W        W46320  30.100  43.765  14.328
73896W        W46321  21.182  43.888   3.645
73897W        W46322  17.100   0.393  14.437
73898W        W46323  44.798   1.271  11.584
73899W        W46324  19.765  20.542  13.396
73900W        W46325  20.637  38.328   0.795
73901W        W46326  43.003  38.051   0.787
73902W        W46327  38.985   1.363  13.950
73903W        W46328   9.359  10.752   4.824
73904W        W46329  32.919  21.519  12.079
73905W        W46330  26.191  33.400  10.941
73906W        W46331  28.046  24.680   4.319
73907W        W46332  30.154  24.665   4.290
73908W        W46333  17.250   7.176  12.842
73909W        W46334  17.793   4.324   0.727
73910W        W46335  10.200  28.661   1.269
73911W        W46336  40.396  38.504  12.889
73912W        W46337  20.257  34.563  14.792
73913W        W46338   7.176  21.041  14.875
73914W        W46339   7.890   1.784  10.618
73915W        W46340  18.608   7.320   0.408
73916W        W46341   7.870  36.973  10.153
73917W        W46342   9.809  22.513   0.251
73918W        W46343  22.596  42.295   1.422
73919W        W46344  24.673  13.336   4.230
73920W        W46345  18.664   1.399   0.269
73921W        W46346  38.382  27.077  13.419
73922W        W46347  10.743  23.131  11.530
73923W        W46348   1.740  33.471   0.483
73924W        W46349  16.673   2.944  14.402
73925W        W46350   2.814  43.514   3.156
73926W        W46351  13.252   9.856  13.507
73927W        W46352  43.509  32.066  12.094
73928W        W46353  29.149  12.726  14.985
73929W        W46354  30.503  42.281   1.449
73930W        W46355  21.742  42.007  14.842
73931W        W46356  29.025  10.363   4.231
73932W        W46357  35.572  37.469  14.417
73933W        W46358  37.903   1.362  12.485
73934W        W46359  15.751  10.319  12.024
73935W        W46360  27.150  40.857   4.201
73936W        W46361  43.868  15.232   3.172
73937W        W46362  14.104   5.722   4.732
73938W        W46363   8.193  10.341  12.950
73939W        W46364  33.943  30.100   0.293
73940W        W46365  20.068  36.445  10.453
73941W        W46366  25.549  30.021  11.547
73942W        W46367   5.764  42.283  13.317
73943W        W46368   6.321  21.187   5.163
73944W        W46369  35.049   4.826  13.406
73945W        W46370  43.787  44.382   0.925
73946W        W46371  11.779   1.417   0.451
73947W        W46372  14.641  24.978   1.369
73948W        W46373   1.797  19.218  13.962
73949W        W46374  13.809  29.922   4.338
73950W        W46375   1.394  43.982   1.308
73951W        W46376  16.076  12.632  14.772
73952W        W46377  28.071   4.734  14.825
73953W        W46378  25.526   0.329  14.779
73954W        W46379   3.274  32.116  10.473
73955W        W46380  24.038  22.217   1.728
73956W        W46381   6.879  15.099   3.238
73957W        W46382  15.625  37.338  13.827
73958W        W46383  40.920  18.674   4.624
73959W        W46384  44.961  38.017   4.200
73960W        W46385  29.446  16.789   0.838
73961W        W46386   6.864  14.631  12.461
73962W        W46387  28.113  31.914   2.878
73963W        W46388  17.706  30.148   3.313
73964W        W46389   2.354  11.865   2.795
73965W        W46390  17.695  41.511   3.168
73966W        W46391  18.584   2.910  11.912
73967W        W46392  35.485  25.087  10.908
73968W        W46393  28.590  40.877  14.842
73969W        W46394  24.539  37.477  11.096
73970W        W46395  29.623  21.170   4.164
73971W        W46396  44.909  43.930   3.229
73972W        W46397  19.730  43.403  11.492
73973W        W46398  35.047  18.622  10.530
73974W        W46399  42.963  36.538   5.133
73975W        W46400  22.745  44.366   5.220
73976W        W46401   3.831  41.888  14.971
73977W        W46402  12.721  17.740  11.902
73978W        W46403  13.665  16.318  11.989
73979W        W46404  17.781  12.272  14.975
73980W        W46405   5.356  20.768   2.248
73981W        W46406  24.690   2.265   3.362
73982W        W46407   7.197  18.094  10.963
73983W        W46408  33.123  30.104  11.072
73984W        W46409  28.605  11.264   3.669
73985W        W46410  39.896  36.431   3.203
73986W        W46411  29.077  21.042  10.456
73987W        W46412  32.035  21.221   4.696
73988W        W46413  32.579   3.769   3.844
73989W        W46414  10.874   4.356   1.763
73990W        W46415  28.986  40.974   3.835
73991W        W46416  18.585   6.680  14.976
73992W        W46417  33.581  37.066  13.538
73993W        W46418  14.162   0.756   3.818
73994W        W46419  37.986  17.218   9.998
73995W        W46420  40.313  25.150   4.681
73996W        W46421  13.163  30.460   1.288
73997W        W46422  15.155  11.748   4.151
73998W        W46423  11.147   8.394  14.886
73999W        W46424  24.042  38.837  14.837
74000W        W46425  10.359  12.785  11.610
74001W        W46426  32.116  38.333  12.368
74002W        W46427  27.986  34.502   2.361
74003W        W46428  38.492  10.703  12.971
74004W        W46429   9.666  25.017   3.299
74005W        W46430  18.109   6.699   0.338
74006W        W46431  44.877  21.586  13.004
74007W        W46432   3.868  17.732  11.522
74008W        W46433  10.317   1.882  11.462
74009W        W46434  37.371  36.024   1.779
74010W        W46435  12.757  16.600   0.937
74011W        W46436  38.411  20.240   2.282
74012W        W46437  42.808  36.054  11.030
74013W        W46438  34.611  13.130   2.303
74014W        W46439  36.409   1.778  11.911
74015W        W46440  35.971   6.203  10.463
74016W        W46441   8.712  27.173   3.383
74017W        W46442  11.637  24.080  13.362
74018W        W46443  24.484   2.330   3.735
74019W        W46444   2.416  30.074  13.883
74020W        W46445  17.073  44.869   4.288
74021W        W46446  33.939  29.966   1.409
74022W        W46447  42.315  37.990   1.217
74023W        W46448  30.960  29.022  14.379
74024W        W46449   9.282  11.159   4.299
74025W        W46450  24.693   5.896   0.777
74026W        W46451  16.616   5.360   3.365
74027W        W46452  26.463  30.481  10.508
74028W        W46453  18.173  16.210   3.315
74029W        W46454   4.377  37.922  10.449
74030W        W46455  40.438  34.005   1.910
74031W        W46456  28.034  31.008  13.920
74032W        W46457  40.851   0.254  11.059
74033W        W46458   5.307  31.921   2.242
74034W        W46459  19.057  11.843   0.464
74035W        W46460  25.099  34.875   1.818
74036W        W46461  24.047   3.304  13.499
74037W        W46462  39.416  29.525  14.406
74038W        W46463  41.517  42.431   4.119
74039W        W46464   4.279  10.250  11.522
74040W        W46465  37.516  26.545   1.346
74041W        W46466   5.238  34.388   4.331
74042W        W46467  38.336  40.404  12.080
74043W        W46468  16.318  36.958   4.150
74044W        W46469  14.292  32.401  12.459
74045W        W46470  38.989  41.433   3.740
74046W        W46471  31.520  24.705  13.403
74047W        W46472   3.440  41.533   2.789
74048W        W46473   1.778  35.381  13.933
74049W        W46474  17.635  42.399  13.419
74050W        W46475  39.014   1.876   0.930
74051W        W46476  37.956  20.618  12.347
74052W        W46477   7.258  10.669   1.342
74053W        W46478  37.064  43.824   1.437
74054W        W46479   8.846  17.573   2.719
74055W        W46480   9.796  16.194  13.928
74056W        W46481  43.478  27.466   3.220
74057W        W46482  35.470  22.221  14.882
74058W        W46483  29.106  22.250  12.343
74059W        W46484  31.566  42.425   0.394
74060W        W46485  40.493  13.176  14.012
74061W        W46486  22.027  35.888  11.427
74062W        W46487  20.219  13.304  13.336
74063W        W46488   0.411  33.496  12.021
74064W        W46489   2.444  14.325  13.386
74065W        W46490   0.897  14.588   2.390
74066W        W46491   1.895   1.909  10.512
74067W        W46492  24.165  20.748   2.196
74068W        W46493  42.023  39.045  13.801
74069W        W46494  29.556  33.575  11.964
74070W        W46495  31.516  41.995   4.154
74071W        W46496   0.450   7.263   2.418
74072W        W46497  16.214  19.768   0.808
74073W        W46498  15.176  14.242   1.364
74074W        W46499  31.635  24.091  14.291
74075W        W46500  25.496  35.038  12.085
74076W        W46501  19.681  44.939  14.442
74077W        W46502   7.909   5.220  13.520
74078W        W46503  35.943   1.243  12.515
74079W        W46504  29.479  43.370  12.574
74080W        W46505   7.197  37.479   2.340
74081W        W46506  25.001   2.953   0.735
74082W        W46507  44.452  22.653  11.564
74083W        W46508  10.150   7.175   4.657
74084W        W46509  34.044  20.677   2.856
74085W        W46510  42.386  22.042  14.449
74086W        W46511  29.619  21.678  14.030
74087W        W46512  31.934  21.681  14.912
74088W        W46513   6.689  18.283   4.661
74089W        W46514  39.551  20.255  10.531
74090W        W46515  13.841  43.891   3.218
74091W        W46516  44.907  23.125   1.851
74092W        W46517  44.886  24.017  11.909
74093W        W46518   8.290  21.580  14.968
74094W        W46519  36.083   1.371   1.306
74095W        W46520  21.232  24.713   2.242
74096W        W46521  12.200  30.051   1.249
74097W        W46522  35.945  31.612  13.997
74098W        W46523  34.585  36.564  13.482
74099W        W46524  20.245  14.294  12.898
74100W        W46525  11.212  36.411   0.780
74101W        W46526   4.865  28.504  13.422
74102W        W46527  23.733  35.367   4.355
74103W        W46528  23.697  17.197  13.822
74104W        W46529   8.884  30.495   2.729
74105W        W46530  14.210  21.107  10.410
74106W        W46531  41.393  37.567   0.432
74107W        W46532  38.018   4.232  11.613
74108W        W46533  23.618   9.655   3.857
74109W        W46534   8.220  26.609   2.204
74110W        W46535  15.157   5.905   4.156
74111W        W46536  26.175  33.936  11.127
74112W        W46537  43.475   9.343  12.060
74113W        W46538  35.932  13.654   2.896
74114W        W46539  38.559  25.201   2.206
74115W        W46540  10.705  39.910   2.675
74116W        W46541   2.960  22.107   1.782
74117W        W46542  38.559  31.917   4.116
74118W        W46543  35.877  18.120   2.333
74119W        W46544  35.970  19.240   2.279
74120W        W46545  21.584  31.916   0.261
74121W        W46546  31.922  12.165  14.990
74122W        W46547  27.014   1.767  14.319
74123W        W46548  27.631  16.567   0.967
74124W        W46549  17.757   2.442  13.470
74125W        W46550  23.202  34.510   1.232
74126W        W46551  16.680  28.455   0.247
74127W        W46552  19.173  12.810  13.912
74128W        W46553  30.961  27.084  14.497
74129W        W46554  30.529   9.748  14.980
74130W        W46555  31.090  21.051   4.765
74131W        W46556  38.820  17.239  12.087
74132W        W46557  34.469  19.677   0.265
74133W        W46558   3.754  18.116   2.366
74134W        W46559  10.170  20.081   0.742
74135W        W46560   5.369  15.280  13.460
74136W        W46561   8.397  27.167  10.500
74137W        W46562  36.891   8.763  14.849
74138W        W46563  19.557  35.857  14.976
74139W        W46564  41.834  15.589   4.167
74140W        W46565  43.963  43.485   1.315
74141W        W46566  35.492  31.943  13.956
74142W        W46567  29.526  23.593   1.412
74143W        W46568  43.829  42.380  11.874
74144W        W46569  38.038  11.788   4.151
74145W        W46570  35.397  13.732  13.325
74146W        W46571  35.566  41.805  12.867
74147W        W46572  30.066  42.823  14.017
74148W        W46573  27.060  23.131  14.968
74149W        W46574   9.785   8.690   2.837
74150W        W46575  11.298  23.024  14.326
74151W        W46576   2.419  24.131  12.085
74152W        W46577  12.259  31.897   2.313
74153W        W46578  34.566  24.231   1.321
74154W        W46579  18.547  39.951   0.343
74155W        W46580  37.519  39.979  11.020
74156W        W46581  39.937   4.314   2.897
74157W        W46582  20.162  33.046  10.888
74158W        W46583  33.539  33.016   1.715
74159W        W46584  31.499   3.882   1.924
74160W        W46585  23.606   2.729  10.892
74161W        W46586  38.439  42.894   9.995
74162W        W46587  17.112  33.114   1.306
74163W        W46588  42.889  13.250  12.013
74164W        W46589   7.729  42.507   3.242
74165W        W46590  13.257  12.143  13.826
74166W        W46591  17.251  28.119   3.762
74167W        W46592   2.919  37.464   3.282
74168W        W46593  41.524  15.689   4.249
74169W        W46594   3.363  19.087  10.572
74170W        W46595   2.839  36.070   1.293
74171W        W46596  23.206  42.989   1.299
74172W        W46597  19.266  18.604   1.351
74173W        W46598  35.051  30.986   0.881
74174W        W46599  18.558   8.721   0.735
74175W        W46600   6.806  41.372  11.096
74176W        W46601  18.169  13.349   3.753
74177W        W46602  43.768  19.179  14.419
74178W        W46603  37.523  29.951   2.369
74179W        W46604  32.511  24.988   1.250
74180W        W46605   3.421  41.021   2.275
74181W        W46606  13.252   6.365   3.195
74182W        W46607  35.579  14.777  14.351
74183W        W46608  34.586  35.360   2.347
74184W        W46609  14.591  11.784   0.313
74185W        W46610  13.214  29.074   0.839
74186W        W46611   1.803  27.579  13.046
74187W        W46612  20.647  21.076   2.884
74188W        W46613  23.062  26.961   1.349
74189W        W46614  34.964  16.117  10.489
74190W        W46615  37.964   2.287   4.243
74191W        W46616  44.345  11.781  12.575
74192W        W46617  28.954  29.956  12.915
74193W        W46618  32.518   9.870   3.188
74194W        W46619  41.021   3.302   2.774
74195W        W46620  13.188  40.960   3.686
74196W        W46621  24.559  35.061  14.782
74197W        W46622  44.964  36.880   4.821
74198W        W46623  24.123   5.788  13.424
74199W        W46624  33.110  19.546   3.241
74200W        W46625   8.836  37.008   3.734
74201W        W46626   2.764  25.007   2.269
74202W        W46627  33.098  37.460   1.865
74203W        W46628  25.061   6.718   0.795
74204W        W46629  25.652   7.247  10.548
74205W        W46630   8.251  30.606  13.898
74206W        W46631  16.243  24.146   1.450
74207W        W46632  40.540  41.799   5.113
74208W        W46633   8.835  15.629   3.230
74209W        W46634   5.272   2.307  11.445
74210W        W46635  16.086  26.637   1.415
74211W        W46636  27.642  15.315  13.465
74212W        W46637   2.815  27.601   1.828
74213W        W46638  22.040  34.029  11.928
74214W        W46639  33.541  16.114   4.824
74215W        W46640  44.353  20.136  14.769
74216W        W46641   5.754  36.520  12.568
74217W        W46642  38.528   2.839  13.989
74218W        W46643  41.917   2.280  10.910
74219W        W46644  20.202  17.269   9.978
74220W        W46645  25.995   7.833   4.314
74221W        W46646   0.337  37.556  14.367
74222W        W46647  44.409  42.297  10.409
74223W        W46648  29.558  38.557  14.773
74224W        W46649  29.983   9.879  14.778
74225W        W46650   0.286  16.630   2.776
74226W        W46651  21.164   5.765   4.636
74227W        W46652  20.616  44.909   2.886
74228W        W46653   4.791  11.356  11.400
74229W        W46654  42.030   8.887   2.792
74230W        W46655   4.429  15.785  11.409
74231W        W46656  19.096  33.427   2.901
74232W        W46657  42.954   2.873   1.241
74233W        W46658  33.905  25.012   2.755
74234W        W46659   0.900  20.175  11.975
74235W        W46660  19.579  23.239  10.905
74236W        W46661   2.779  41.336   2.314
74237W        W46662  10.266  42.321   4.160
74238W        W46663  35.074  32.918  14.880
74239W        W46664  11.294   1.284   2.802
74240W        W46665  16.086  25.595   4.192
74241W        W46666   6.200  23.051   3.241
74242W        W46667   1.282  37.466  10.468
74243W        W46668  34.388  10.844   2.212
74244W        W46669   3.833  12.666  12.435
74245W        W46670  44.430  22.581   1.404
74246W        W46671  35.867  22.693  10.955
74247W        W46672  36.904  21.189   4.158
74248W        W46673  23.662  17.789  12.386
74249W        W46674   4.384  24.020   4.207
74250W        W46675  38.569  40.484   1.809
74251W        W46676  11.195  18.752  10.450
74252W        W46677  18.151  13.254   4.316
74253W        W46678  17.591  22.608  12.012
74254W        W46679  33.560  37.387  12.987
74255W        W46680  20.068  22.662   4.674
74256W        W46681  36.479  33.442  12.843
74257W        W46682   3.944  44.881  11.959
74258W        W46683  18.658  13.825  11.857
74259W        W46684   2.390  41.313  14.917
74260W        W46685   8.660  14.222  14.978
74261W        W46686   9.288  13.225  11.555
74262W        W46687  40.971  24.193   0.428
74263W        W46688   2.865  26.996  12.957
74264W        W46689  36.466  44.466   4.780
74265W        W46690  38.982  10.257  10.617
74266W        W46691  25.693   7.203  11.958
74267W        W46692  43.363  18.057  12.347
74268W        W46693  30.924  22.178   2.714
74269W        W46694  22.025  43.917   0.476
74270W        W46695   8.204  20.199   1.861
74271W        W46696  25.006  24.039   2.681
74272W        W46697  34.444  33.595   2.680
74273W        W46698  42.420  24.174   4.707
74274W        W46699  39.390  25.199   1.363
74275W        W46700  43.282   9.767   4.716
74276W        W46701  14.762  32.412   4.801
74277W        W46702  14.130  17.277  12.887
74278W        W46703  16.103  43.861   0.312
74279W        W46704  43.324  29.574  13.517
74280W        W46705  16.081  12.658   4.147
74281W        W46706   6.293  26.620  13.052
74282W        W46707   9.875  40.868   1.888
74283W        W46708  13.608  38.337   4.260
74284W        W46709  29.615  41.529   2.282
74285W        W46710  26.498  12.766  10.131
74286W        W46711  34.984   0.893   1.376
74287W        W46712  25.070  10.378   3.665
74288W        W46713  40.315  37.053  13.364
74289W        W46714   8.748  13.830   0.358
74290W        W46715   7.393  44.505  13.939
74291W        W46716   7.780   3.883  14.979
74292W        W46717  24.209  23.994  11.128
74293W        W46718  26.974  23.573  11.036
74294W        W46719  44.854  14.337  11.474
74295W        W46720   7.725  22.144   1.873
74296W        W46721  11.286  13.329   2.670
74297W        W46722   1.965  18.609  12.021
74298W        W46723  18.088  16.193   2.201
74299W        W46724  24.663  44.494   1.884
74300W        W46725  23.161  10.299  12.854
74301W        W46726   9.670  24.143  13.829
74302W        W46727  34.397   8.212  10.413
74303W        W46728  32.481   8.896  12.939
74304W        W46729   8.209  43.350  13.944
74305W        W46730  39.385  21.061  14.917
74306W        W46731   3.370  35.475  12.402
74307W        W46732   7.889  34.495  14.026
74308W        W46733  35.022   3.372   0.397
74309W        W46734  10.648  32.035   4.181
74310W        W46735  32.995  11.243  12.996
74311W        W46736  28.979  43.496  12.459
74312W        W46737  26.626  10.250   4.642
74313W        W46738   0.943  15.753   1.873
74314W        W46739  18.567  28.622   4.600
74315W        W46740   3.873  27.949  11.496
74316W        W46741  24.204  32.062  12.903
74317W        W46742  19.602  35.560  11.950
74318W        W46743  12.798  21.110   0.745
74319W        W46744  33.391  38.014  13.045
74320W        W46745  11.823  36.370   2.847
74321W        W46746  18.546  44.887  12.364
74322W        W46747   8.174  10.335  10.084
74323W        W46748   5.751  24.692   3.657
74324W        W46749   1.294  12.339  14.764
74325W        W46750  40.494   8.223  13.480
74326W        W46751  41.961   5.249  10.581
74327W        W46752   6.213  44.824  12.928
74328W        W46753  42.969   4.872   2.680
74329W        W46754  39.868  43.424   3.854
74330W        W46755  26.570  30.094   4.808
74331W        W46756  15.185  10.717   0.281
74332W        W46757  40.411  32.585  13.923
74333W        W46758  22.614   2.917  10.906
74334W        W46759   2.773  17.639  10.644
74335W        W46760  22.089  24.648  10.626
74336W        W46761  11.737  43.451   4.668
74337W        W46762  39.348  22.049  12.561
74338W        W46763  40.019  11.301  14.897
74339W        W46764   4.212  43.971   3.238
74340W        W46765  43.474  44.292   2.413
74341W        W46766   3.854   8.662  10.529
74342W        W46767  38.058  16.210   4.215
74343W        W46768  19.230   9.759  12.559
74344W        W46769  26.504  14.257  13.937
74345W        W46770  34.098  19.552  13.850
74346W        W46771  10.260  40.444  13.877
74347W        W46772  14.170  22.007   0.735
74348W        W46773   8.320  28.065  13.797
74349W        W46774  22.652  23.188   2.807
74350W        W46775  44.994  32.916  11.039
74351W        W46776  38.913  21.576  11.970
74352W        W46777  28.629   7.689   0.354
74353W        W46778   2.736  26.122   3.695
74354W        W46779  24.000  37.984  12.395
74355W        W46780   8.272  40.978   1.935
74356W        W46781  35.435   9.720   0.458
74357W        W46782   1.334   8.258  10.532
74358W        W46783  20.667  10.213  10.083
74359W        W46784  39.991  26.667   5.156
74360W        W46785  18.058  34.613   1.862
74361W        W46786  34.466  43.414   0.449
74362W        W46787  17.656  36.888  11.002
74363W        W46788  31.921  16.605  13.838
74364W        W46789  34.559  20.691   4.179
74365W        W46790  27.119  23.027  12.453
74366W        W46791  34.951   2.458   3.334
74367W        W46792  12.832  41.936  13.518
74368W        W46793  25.163  37.501  11.465
74369W        W46794  16.299  16.075  10.457
74370W        W46795  21.125  23.519   0.892
74371W        W46796  24.612  39.961   2.805
74372W        W46797  27.535  23.691   3.861
74373W        W46798   7.311  38.860   4.708
74374W        W46799  42.885   8.295  10.555
74375W        W46800   3.225  35.105   4.698
74376W        W46801  29.106  11.193   2.199
74377W        W46802  15.208  30.997  12.077
74378W        W46803   1.363   6.741   0.860
74379W        W46804  25.022  17.658   2.359
74380W        W46805  20.746  24.614   3.816
74381W        W46806  40.029  17.062   0.759
74382W        W46807  18.655  35.073  14.995
74383W        W46808   8.790  10.796  10.627
74384W        W46809  21.660  13.844   1.783
74385W        W46810  20.535  15.220   1.242
74386W        W46811  22.720  27.467  14.464
74387W        W46812  22.204  21.049   1.788
74388W        W46813  37.900  43.874  11.039
74389W        W46814  14.110   6.894  14.901
74390W        W46815   4.380  11.797   2.893
74391W        W46816  40.822  13.166  10.970
74392W        W46817  11.221   8.848  11.425
74393W        W46818  17.568  37.006   4.805
74394W        W46819  24.004   0.912   2.707
74395W        W46820  15.656   9.182   2.855
74396W        W46821   9.156  21.742  10.946
74397W        W46822  17.739  18.061   3.368
74398W        W46823  11.176   7.348  10.013
74399W        W46824   3.244  27.553   3.152
74400W        W46825  20.160  13.138  14.794
74401W        W46826  30.135   3.924   1.224
74402W        W46827  12.207   9.311  10.452
74403W        W46828  10.800  32.948  13.906
74404W        W46829  22.505  22.047   2.179
74405W        W46830  23.116   6.265   1.840
74406W        W46831   6.916  17.100  10.608
74407W        W46832  35.495  33.622   2.379
74408W        W46833  22.156  20.238  13.840
74409W        W46834  13.228  25.123  11.938
74410W        W46835  26.684  39.992   4.217
74411W        W46836  39.315  43.802  10.066
74412W        W46837  13.709  38.524   1.884
74413W        W46838  13.271  19.187   3.635
74414W        W46839   9.838  14.596  14.337
74415W        W46840  14.819   0.338   2.693
74416W        W46841  38.849   4.362   3.214
74417W        W46842  10.679  25.215   4.138
74418W        W46843  30.551  29.937   0.876
74419W        W46844   3.714  28.141   4.343
74420W        W46845  10.871   7.372  10.570
74421W        W46846  22.196  17.694   3.351
74422W        W46847   0.883  37.494   2.781
74423W        W46848  36.971   0.744   2.397
74424W        W46849  20.546  39.849   2.662
74425W        W46850  17.650  10.362  12.441
74426W        W46851  34.936  42.792   4.698
74427W        W46852   7.873  34.489   9.671
74428W        W46853   2.792  33.972  11.413
74429W        W46854  18.668  33.897  13.979
74430W        W46855  12.618  12.663  14.465
74431W        W46856   5.276  24.193  14.928
74432W        W46857  23.530  20.143  12.550
74433W        W46858  41.508  17.785   2.815
74434W        W46859  30.572  25.588  12.931
74435W        W46860  13.175  18.096   4.321
74436W        W46861  36.568   2.427   0.478
74437W        W46862   2.329  39.973   1.282
74438W        W46863  18.644  13.814  10.454
74439W        W46864  13.116  14.605  12.430
74440W        W46865  43.854  44.849   2.230
74441W        W46866  34.998  30.569  10.639
74442W        W46867  43.478  33.487   3.152
74443W        W46868  24.988  36.366  11.983
74444W        W46869  34.067   1.888  14.361
74445W        W46870  18.294  29.077   5.607
74446W        W46871  20.153  34.925  11.950
74447W        W46872  15.199  19.760   0.283
74448W        W46873  24.219  23.662   0.890
74449W        W46874   6.360  44.953   3.356
74450W        W46875  20.646   2.276  12.851
74451W        W46876  39.436   1.451   1.269
74452W        W46877  24.484   0.431   0.436
74453W        W46878  27.159  43.478  11.498
74454W        W46879  17.086  20.190   1.910
74455W        W46880  20.537  23.215   3.183
74456W        W46881   9.738  18.593   3.190
74457W        W46882  24.989  10.691  11.507
74458W        W46883  13.334  43.785   2.813
74459W        W46884   8.768  36.379   0.881
74460W        W46885   0.820  19.262   1.843
74461W        W46886  22.620  16.678  12.476
74462W        W46887  41.852  44.372   3.733
74463W        W46888  29.997  27.539  13.482
74464W        W46889   6.366  30.161  14.775
74465W        W46890  42.523   0.410  13.855
74466W        W46891  15.585  14.643  11.120
74467W        W46892  19.767  17.291   3.756
74468W        W46893  13.792  10.725   0.943
74469W        W46894  29.056  26.959  13.792
74470W        W46895   5.776  10.640   4.634
74471W        W46896  41.835  24.087  10.535
74472W        W46897  10.829  14.810   0.275
74473W        W46898  32.546  44.495  14.325
74474W        W46899   9.286  19.130  13.543
74475W        W46900  21.635  34.379   4.328
74476W        W46901  32.565  28.469  11.485
74477W        W46902  31.126  41.791  11.017
74478W        W46903  43.015  32.572  14.790
74479W        W46904  24.615  19.610   4.338
74480W        W46905   7.825  18.636  11.059
74481W        W46906  21.213  38.422   2.239
74482W        W46907  44.908  39.846   1.800
74483W        W46908  25.153  18.275  10.035
74484W        W46909  11.180  29.453   0.469
74485W        W46910  11.660  15.596   1.291
74486W        W46911  22.581  26.189   4.350
74487W        W46912  28.457   4.805  10.891
74488W        W46913  40.994   4.245  12.930
74489W        W46914  25.049   5.198  11.026
74490W        W46915  43.420  23.149  14.387
74491W        W46916   6.689  44.921  14.027
74492W        W46917  21.258  22.210   4.816
74493W        W46918  23.586  20.733  10.596
74494W        W46919  35.956   4.250  13.527
74495W        W46920  12.248  43.882  12.856
74496W        W46921   5.295   6.686   1.382
74497W        W46922  13.831  21.139  12.951
74498W        W46923  42.807   4.887  14.883
74499W        W46924  38.854  12.243   0.245
74500W        W46925  37.578  41.820   2.410
74501W        W46926  18.093  38.543  14.881
74502W        W46927  34.518  37.367   4.638
74503W        W46928   4.793   3.847   4.691
74504W        W46929  28.438  28.151   0.895
74505W        W46930  27.477  32.075  14.360
74506W        W46931  38.542  43.923  11.578
74507W        W46932  21.211   0.436  11.868
74508W        W46933  42.031  29.520  11.109
74509W        W46934  30.532   2.859  14.844
74510W        W46935  37.364  38.515   1.294
74511W        W46936  14.325  44.006  11.067
74512W        W46937  29.957  26.470   3.339
74513W        W46938   6.788  38.883  12.919
74514W        W46939   8.356  19.541  11.862
74515W        W46940  31.523  16.796   2.356
74516W        W46941  36.858  28.651  11.100
74517W        W46942   7.840  37.478  12.960
74518W        W46943  41.498  30.487  11.389
74519W        W46944   6.685   5.728  11.940
74520W        W46945  42.497  34.955   0.448
74521W        W46946   8.366  44.975  14.984
74522W        W46947   5.408   3.393   4.816
74523W        W46948  37.491  13.719   1.716
74524W        W46949  19.060   9.296  12.847
74525W        W46950  29.557   0.398  12.824
74526W        W46951  10.250  10.864   3.251
74527W        W46952  21.690  40.860  13.028
74528W        W46953   9.353  30.954  13.408
74529W        W46954   4.448  17.153  11.096
74530W        W46955  21.701  11.709  10.138
74531W        W46956  20.257  39.918   4.277
74532W        W46957  39.407  11.806  11.041
74533W        W46958  23.023  36.466   0.934
74534W        W46959   4.325  15.175   4.327
74535W        W46960  34.884  14.795   1.767
74536W        W46961   4.934  32.994   1.250
74537W        W46962   2.384  16.274   1.922
74538W        W46963  25.144  12.684  12.533
74539W        W46964  25.137  23.029   3.221
74540W        W46965  35.418  19.700  13.901
74541W        W46966  37.364  43.350  12.971
74542W        W46967  29.556   3.334   3.374
74543W        W46968   8.324   6.796   3.286
74544W        W46969  42.287   9.686  12.519
74545W        W46970  31.417  25.637   3.644
74546W        W46971  27.540   3.912   4.336
74547W        W46972  36.023  39.495   0.353
74548W        W46973  11.350  31.134  13.793
74549W        W46974   8.693   4.847   3.727
74550W        W46975  38.022  21.102  14.512
74551W        W46976   7.304  26.065  10.978
74552W        W46977  11.366   7.837   2.192
74553W        W46978  30.012  32.014  14.861
74554W        W46979  28.620  18.681   0.952
74555W        W46980  39.043  44.862  14.873
74556W        W46981   7.732  16.283   2.734
74557W        W46982  28.557  25.533   0.412
74558W        W46983  33.430  38.334   0.815
74559W        W46984  31.429  23.537  14.809
74560W        W46985  25.147  33.429   4.609
74561W        W46986  42.330  10.638   4.787
74562W        W46987   8.175   8.191  10.089
74563W        W46988  44.961  29.641  11.605
74564W        W46989  36.403  28.628  12.382
74565W        W46990  23.631  30.160  13.986
74566W        W46991  12.212  25.548  14.332
74567W        W46992  36.971  38.928   0.901
74568W        W46993  39.916  23.493  12.835
74569W        W46994  10.159   4.737   2.815
74570W        W46995  41.852  32.588  14.914
74571W        W46996   2.855  24.009  11.560
74572W        W46997  36.901  11.262   0.908
74573W        W46998  42.780   6.905   4.696
74574W        W46999  14.228   2.332  11.467
74575W        W47000  13.761  33.922  13.384
74576W        W47001  19.651  13.724   0.398
74577W        W47002  30.018  16.806   0.301
74578W        W47003  36.438  17.239  11.914
74579W        W47004  14.213  32.585   4.714
74580W        W47005  15.784  30.551   3.291
74581W        W47006  35.029   6.401  10.892
74582W        W47007  25.017  37.022   1.837
74583W        W47008  20.214  32.403   5.151
74584W        W47009  40.520  33.935  12.424
74585W        W47010  27.502   5.871   0.926
74586W        W47011   7.211  24.518  14.777
74587W        W47012  17.601   9.765   4.662
74588W        W47013   0.915  20.614  14.484
74589W        W47014   8.260  32.017  13.822
74590W        W47015   1.427  20.687  12.526
74591W        W47016  30.047   9.806   1.351
74592W        W47017  35.424  31.944   3.796
74593W        W47018  25.090  32.931  13.051
74594W        W47019  26.001  12.770   1.741
74595W        W47020  32.487   8.311   2.829
74596W        W47021  21.605   2.387  11.420
74597W        W47022  29.441   4.806   3.331
74598W        W47023  43.438  30.159   2.329
74599W        W47024  27.000  19.564   4.691
74600W        W47025  42.837  17.302   3.273
74601W        W47026  35.040   9.216   2.671
74602W        W47027  36.432  39.451   1.311
74603W        W47028  44.436   4.265   4.173
74604W        W47029  33.531  42.867  13.884
74605W        W47030  40.870  41.005   1.402
74606W        W47031   0.946  30.973  14.879
74607W        W47032  18.198   4.275   0.828
74608W        W47033  35.525   9.249   4.602
74609W        W47034  30.966  36.556  14.813
74610W        W47035   7.855   7.810   1.437
74611W        W47036  27.480   5.281  12.855
74612W        W47037  39.927   4.290   1.297
74613W        W47038  29.445   4.415   2.184
74614W        W47039  22.671  12.619   1.428
74615W        W47040  43.969  20.229  13.500
74616W        W47041  24.065  10.220  14.485
74617W        W47042  20.081  20.585   0.739
74618W        W47043  43.342   5.306   1.745
74619W        W47044   3.446  44.010   2.304
74620W        W47045  17.798  23.047  12.919
74621W        W47046  43.856   5.208  14.913
74622W        W47047  38.568  17.684   0.342
74623W        W47048  44.466  35.426  13.993
74624W        W47049  43.917  17.114   2.869
74625W        W47050   4.260  31.457  14.395
74626W        W47051  21.097  13.640   1.223
74627W        W47052  32.944   8.238  13.844
74628W        W47053  32.458  32.982   4.191
74629W        W47054   5.890  25.605   0.903
74630W        W47055   4.326   3.835  12.009
74631W        W47056  27.449   9.390   0.316
74632W        W47057   2.419  37.870   1.351
74633W        W47058  27.455   2.265   0.431
74634W        W47059  22.711   8.898   9.504
74635W        W47060  43.440  37.880  11.447
74636W        W47061  11.793   4.315   2.243
74637W        W47062  30.644  19.718  13.873
74638W        W47063  26.154  15.102   2.403
74639W        W47064  18.092   8.864  11.528
74640W        W47065  14.275  39.537   0.960
74641W        W47066   2.429  32.574   0.863
74642W        W47067  17.644  12.343   0.386
74643W        W47068   2.267  36.054  14.866
74644W        W47069  43.810  25.196   4.648
74645W        W47070  39.922  22.702   3.150
74646W        W47071   1.931  19.156  10.453
74647W        W47072  16.304  33.105  14.939
74648W        W47073   5.414   7.415   0.285
74649W        W47074  41.906  14.637  13.821
74650W        W47075  30.566  43.330   0.286
74651W        W47076  24.562   0.870  14.840
74652W        W47077  30.549  25.199   5.152
74653W        W47078  34.508   4.350  13.421
74654W        W47079  33.537   8.767   5.129
74655W        W47080  28.529  44.901  13.855
74656W        W47081  42.913  11.716   5.166
74657W        W47082  18.747  16.199   1.726
74658W        W47083  13.739  24.570  12.580
74659W        W47084  15.771   3.224   3.735
74660W        W47085  33.079   8.820   1.724
74661W        W47086  32.405  33.525   3.819
74662W        W47087  37.049  26.174  13.874
74663W        W47088  18.726  25.155  14.848
74664W        W47089  21.076  34.074   3.846
74665W        W47090  20.701  44.820  14.914
74666W        W47091   4.292   5.211   1.418
74667W        W47092  18.066   5.726  10.906
74668W        W47093   5.300  18.686  11.859
74669W        W47094  30.142   1.957   1.244
74670W        W47095   6.321   6.245   2.891
74671W        W47096  43.006  29.570   4.245
74672W        W47097  26.161  25.068   2.208
74673W        W47098  42.286   0.420  11.860
74674W        W47099  30.418  21.556  11.931
74675W        W47100  38.328  11.321   1.828
74676W        W47101  25.509  12.150  13.439
74677W        W47102  18.226  22.152  14.959
74678W        W47103  25.013  17.777  12.057
74679W        W47104  44.388  41.010   4.137
74680W        W47105  25.173   3.446  14.380
74681W        W47106  11.169  16.674  14.338
74682W        W47107  15.108  10.870  11.561
74683W        W47108  31.545  43.913  11.497
74684W        W47109  27.046  16.109  10.582
74685W        W47110  31.131  17.246  14.778
74686W        W47111   2.819  15.195  13.987
74687W        W47112  24.173  15.173  13.906
74688W        W47113  30.035   2.373  13.466
74689W        W47114  22.032  29.566   3.854
74690W        W47115  27.578   8.287   1.399
74691W        W47116  26.650   8.396  14.429
74692W        W47117  41.301  10.843  10.999
74693W        W47118   9.713  22.599  14.883
74694W        W47119  11.255  31.030   2.248
74695W        W47120  41.927  42.423   4.801
74696W        W47121  36.360  27.583  10.552
74697W        W47122  27.117  23.519   4.708
74698W        W47123  17.254  14.239  12.832
74699W        W47124   9.293   8.199   5.701
74700W        W47125  20.740  24.133   1.914
74701W        W47126  21.747  14.109  12.868
74702W        W47127  26.689  27.183   1.227
74703W        W47128   1.358  39.515   0.926
74704W        W47129  40.930  16.232   4.668
74705W        W47130   4.749  34.391   1.357
74706W        W47131   7.807  36.529  12.894
74707W        W47132  10.867   2.413  13.895
74708W        W47133  11.852  33.505   3.649
74709W        W47134  28.462  30.560   2.763
74710W        W47135  44.873  12.242  13.438
74711W        W47136  31.615  40.925   1.918
74712W        W47137   8.868  31.902   3.848
74713W        W47138  32.974  35.564  11.520
74714W        W47139  16.745  19.594   3.744
74715W        W47140  42.299  42.974  10.453
74716W        W47141  15.699  14.647   4.739
74717W        W47142  13.320   3.785  13.846
74718W        W47143  12.830   1.357   0.964
74719W        W47144   9.264   2.337  14.496
74720W        W47145  19.197  16.159   1.364
74721W        W47146  19.645  22.074  10.450
74722W        W47147  36.569  25.991   5.204
74723W        W47148  12.329   7.310   2.358
74724W        W47149   7.708  42.935   5.320
74725W        W47150  22.201   7.670   3.742
74726W        W47151  23.650  16.175   2.270
74727W        W47152   3.736  32.137   4.306
74728W        W47153  34.444  25.581  10.919
74729W        W47154  44.342   8.686   4.626
74730W        W47155  34.410  15.135  13.900
74731W        W47156  44.917   9.837  12.446
74732W        W47157  42.517   5.254   2.330
74733W        W47158  16.728   9.189  14.769
74734W        W47159   7.182  19.075  12.079
74735W        W47160  25.163  36.584   4.697
74736W        W47161  36.593  18.161  10.471
74737W        W47162  38.529  24.097  11.469
74738W        W47163  21.636  33.990  14.998
74739W        W47164  43.323  30.552  12.537
74740W        W47165  27.140  20.144  11.377
74741W        W47166  16.574  17.256   1.899
74742W        W47167   5.924   7.299   0.964
74743W        W47168  11.702  19.700  10.602
74744W        W47169  42.900   2.282  13.865
74745W        W47170  17.188   5.211  12.477
74746W        W47171  28.136  10.796  14.448
74747W        W47172  12.171  25.508   1.309
74748W        W47173  28.107  43.835   2.726
74749W        W47174  28.128   6.744  14.898
74750W        W47175  13.829  39.513  13.351
74751W        W47176  28.039  32.511   4.130
74752W        W47177  40.885  11.309  10.508
74753W        W47178  37.031  44.297   4.239
74754W        W47179   6.283   7.288  14.962
74755W        W47180  33.949  21.604  13.907
74756W        W47181   1.869  37.502  14.020
74757W        W47182   9.180  17.705  10.935
74758W        W47183  32.626  29.941   0.863
74759W        W47184   2.751  21.545   1.325
74760W        W47185   0.797  32.018   5.103
74761W        W47186  34.396  19.058   2.287
74762W        W47187  44.362  38.448   0.915
74763W        W47188  18.595  21.105  13.389
74764W        W47189   9.668  28.681  11.384
74765W        W47190   6.849  20.729  11.863
74766W        W47191  26.044  27.950   1.292
74767W        W47192  27.462  31.974   1.881
74768W        W47193  35.105  19.728  13.361
74769W        W47194  29.664  35.422  12.923
74770W        W47195   7.171  43.409   1.847
74771W        W47196  15.307  17.258  11.385
74772W        W47197  25.523  40.396   0.402
74773W        W47198  38.848  27.609   0.965
74774W        W47199   3.461   1.436  11.896
74775W        W47200  38.829  15.219   2.786
74776W        W47201  32.558  34.962  13.547
74777W        W47202   2.317  17.081   5.134
74778W        W47203   3.758   3.367  10.430
74779W        W47204  20.051  24.628   2.374
74780W        W47205   5.408  33.508   4.832
74781W        W47206  28.596  41.320   1.912
74782W        W47207  30.920  37.508   9.956
74783W        W47208  29.576  28.050  14.497
74784W        W47209   2.242  29.621  10.535
74785W        W47210  42.988  40.852  14.489
74786W        W47211  37.431  43.946  11.467
74787W        W47212  34.397  39.932   3.350
74788W        W47213   6.257   1.427  12.058
74789W        W47214  16.600  21.174  13.429
74790W        W47215  43.301  12.245  12.092
74791W        W47216  42.415  38.473  13.480
74792W        W47217  12.235  43.478   0.846
74793W        W47218   9.151  24.023  12.388
74794W        W47219  24.122  41.931   3.266
74795W        W47220  27.498   6.826  12.073
74796W        W47221   8.395  13.821  13.393
74797W        W47222  12.680  17.629  12.384
74798W        W47223   0.953  41.876   1.218
74799W        W47224  18.553   4.312  12.382
74800W        W47225  12.223   6.360  14.952
74801W        W47226  27.155   0.821  12.357
74802W        W47227  36.390  12.716  12.927
74803W        W47228  16.728  31.920  11.592
74804W        W47229  13.784   2.270  13.355
74805W        W47230   6.715  29.997   3.649
74806W        W47231   2.315   4.823  14.931
74807W        W47232  32.090  38.030  10.979
74808W        W47233  11.636  31.059   1.252
74809W        W47234  33.053   6.237  10.420
74810W        W47235  12.775  36.884   0.926
74811W        W47236  37.974   3.385   4.838
74812W        W47237  16.759  28.159  12.434
74813W        W47238  21.660   0.889  14.907
74814W        W47239  42.008  33.892   2.391
74815W        W47240  21.710  13.329   4.652
74816W        W47241  20.590  13.641  13.466
74817W        W47242  27.029  21.050  14.975
74818W        W47243  31.074  44.496   4.314
74819W        W47244  13.286   1.239  12.423
74820W        W47245  31.953  15.722   4.734
74821W        W47246  21.126  39.894  11.570
74822W        W47247  32.427  21.080  13.360
74823W        W47248  32.141  16.724   0.436
74824W        W47249   1.887   4.765  10.891
74825W        W47250  21.035  13.812   3.261
74826W        W47251   0.294  24.682   2.196
74827W        W47252  42.019   6.731  12.877
74828W        W47253  34.585  22.584   0.312
74829W        W47254  41.489  42.014  13.970
74830W        W47255  10.186  21.572  12.429
74831W        W47256  42.859  15.674  14.308
74832W        W47257  33.947   7.405   2.273
74833W        W47258  44.972  24.113   4.669
74834W        W47259  11.770  21.516   4.354
74835W        W47260  18.290  39.967  12.906
74836W        W47261  22.734  22.520  14.989
74837W        W47262  24.990  21.537  13.793
74838W        W47263  25.622  19.146   2.697
74839W        W47264  12.255  12.239  11.101
74840W        W47265  28.015  26.202  13.413
74841W        W47266  44.919  18.649   2.215
74842W        W47267  43.281  16.747  14.003
74843W        W47268  41.996   7.756  12.831
74844W        W47269  27.171  10.848  14.841
74845W        W47270  29.156   6.193   2.684
74846W        W47271  31.461  25.093   0.820
74847W        W47272   5.908  41.344  12.457
74848W        W47273  44.305   2.410  12.826
74849W        W47274  11.170  37.386  12.547
74850W        W47275  38.829  23.692  13.512
74851W        W47276  35.976  35.966  12.537
74852W        W47277  41.814   2.838   0.307
74853W        W47278  42.968  32.944   3.172
74854W        W47279   4.352   3.855  13.920
74855W        W47280  17.627  40.431   3.325
74856W        W47281  33.927  21.040  10.615
74857W        W47282  41.458  37.941   3.281
74858W        W47283  20.760  17.097  10.610
74859W        W47284  38.041   7.380  11.859
74860W        W47285  16.166   4.731  10.494
74861W        W47286  39.428  20.635   3.154
74862W        W47287  24.622  42.290  13.925
74863W        W47288  19.758  38.516   2.821
74864W        W47289  42.481  43.477  12.499
74865W        W47290  14.719  43.300  11.394
74866W        W47291  28.447  10.819  12.930
74867W        W47292  27.957  32.493   2.753
74868W        W47293  31.110   9.784   2.880
74869W        W47294  26.951  29.650   0.915
74870W        W47295  10.247  29.560  12.531
74871W        W47296  43.441  30.992   4.812
74872W        W47297   1.315  43.318  12.468
74873W        W47298  29.649  38.335   4.136
74874W        W47299   7.844   5.431   4.651
74875W        W47300  37.472   7.299   3.825
74876W        W47301   6.184  12.305  14.023
74877W        W47302   2.802   2.300   0.461
74878W        W47303  44.493  38.558   2.704
74879W        W47304  39.498  19.621  13.819
74880W        W47305  16.698  33.435  13.445
74881W        W47306  26.987  22.245   2.361
74882W        W47307  11.795  10.248  13.835
74883W        W47308  32.554  29.460  12.087
74884W        W47309  36.959  23.603  12.491
74885W        W47310  42.464  26.493  10.444
74886W        W47311   1.295  38.534   2.390
74887W        W47312  41.490  36.592  14.829
74888W        W47313  30.444  35.995  11.914
74889W        W47314  10.223   8.318  13.834
74890W        W47315  41.985  21.054  13.852
74891W        W47316   1.870  35.391   1.812
74892W        W47317  43.503   6.918   2.311
74893W        W47318  44.424  11.639   1.425
74894W        W47319  21.176   6.349  14.930
74895W        W47320  35.995  12.339  10.539
74896W        W47321  39.383  40.003   0.461
74897W        W47322  20.222  42.812  14.824
74898W        W47323   9.298  40.969   0.923
74899W        W47324  17.696  13.268  12.035
74900W        W47325   0.332  43.802  10.945
74901W        W47326  30.026   5.370   3.687
74902W        W47327  36.536  23.615   2.822
74903W        W47328  23.013  27.495  11.485
74904W        W47329  34.607   5.399   4.752
74905W        W47330   0.953  28.947  14.407
74906W        W47331  18.247  31.139   2.712
74907W        W47332   8.376  41.368  11.936
74908W        W47333  10.729  35.544   3.702
74909W        W47334   0.471  12.249   3.359
74910W        W47335  14.708  13.657   2.752
74911W        W47336  31.410  32.986  13.402
74912W        W47337  12.136  19.743  11.398
74913W        W47338  22.199  13.249  12.882
74914W        W47339   2.469  12.288   0.776
74915W        W47340  43.415  38.891  10.551
74916W        W47341  28.124   9.326   0.403
74917W        W47342  17.146  21.043   5.195
74918W        W47343  12.213  26.521  14.487
74919W        W47344   0.477  21.738   1.717
74920W        W47345  41.976  19.195  12.557
74921W        W47346  17.128  32.041   3.700
74922W        W47347  12.340  42.999   0.803
74923W        W47348   8.758  29.518  13.432
74924W        W47349   4.853  13.601   0.872
74925W        W47350  43.002  38.824  11.008
74926W        W47351  37.858  10.221  13.034
74927W        W47352  18.071   2.757   4.812
74928W        W47353  33.394  18.684   2.313
74929W        W47354   5.734  39.989   3.771
74930W        W47355  24.219  34.957  11.459
74931W        W47356  22.129  20.573  12.072
74932W        W47357  32.569   3.882  10.544
74933W        W47358  22.202  35.859   3.801
74934W        W47359  41.375  14.267  14.445
74935W        W47360  41.950  22.134   0.408
74936W        W47361  35.872  42.418  11.901
74937W        W47362  37.012  41.395  14.796
74938W        W47363  27.992  37.448  10.427
74939W        W47364  30.534  31.090  11.589
74940W        W47365  23.141  41.795  12.023
74941W        W47366  41.973  24.174  14.872
74942W        W47367  33.510  22.637   1.249
74943W        W47368  40.934   4.865  12.847
74944W        W47369  44.852   8.196   0.776
74945W        W47370  19.213  25.019   4.772
74946W        W47371   9.690   4.867  12.889
74947W        W47372  11.686  12.358   3.180
74948W        W47373  36.858  38.826   1.219
74949W        W47374  25.069   9.680  11.864
74950W        W47375  32.067  27.692  14.311
74951W        W47376  40.452  11.662  12.949
74952W        W47377  14.217   1.754  12.983
74953W        W47378   6.417  41.376  14.776
74954W        W47379  37.947  18.724   0.446
74955W        W47380  17.082  30.943   0.835
74956W        W47381  12.155  39.061  10.613
74957W        W47382  30.913   4.944   1.233
74958W        W47383  42.821  17.726  11.859
74959W        W47384  35.936   2.925  12.899
74960W        W47385  36.383  34.936   2.202
74961W        W47386  37.903  23.504   3.330
74962W        W47387  27.099  23.124   2.208
74963W        W47388  16.612   6.701  10.621
74964W        W47389  29.106   9.318   3.190
74965W        W47390  43.939  13.156  10.598
74966W        W47391  13.236  27.167  14.297
74967W        W47392   7.396  39.359   0.852
74968W        W47393  14.612   0.479   4.171
74969W        W47394  12.853  35.889   3.695
74970W        W47395   4.370  42.390   1.740
74971W        W47396  14.153   4.749   2.276
74972W        W47397  40.867  10.769  14.915
74973W        W47398   2.430  42.783   4.740
74974W        W47399  43.283  11.246   1.928
74975W        W47400   9.329   3.712   0.269
74976W        W47401  31.489  43.271  14.902
74977W        W47402   2.227  32.473  13.901
74978W        W47403  14.130  24.623   3.386
74979W        W47404   7.709  13.167  13.029
74980W        W47405  26.545  41.354   3.344
74981W        W47406  43.357   0.782   3.853
74982W        W47407   5.284  33.011  10.988
74983W        W47408  41.817  31.523   2.237
74984W        W47409  24.569  31.514   3.777
74985W        W47410   4.848  20.165  10.950
74986W        W47411  27.467  33.386  14.375
74987W        W47412  26.057   9.302  14.334
74988W        W47413  29.485  10.315   4.797
74989W        W47414  35.941  10.341   3.707
74990W        W47415   8.698  41.796   1.347
74991W        W47416  22.017  19.575  13.043
74992W        W47417  34.967   2.303   4.192
74993W        W47418   7.829  15.126   2.776
74994W        W47419  16.712  33.955   3.742
74995W        W47420   8.378   5.745   0.431
74996W        W47421   5.307  40.443  13.472
74997W        W47422  10.348  23.735  11.389
74998W        W47423  40.042  36.875   2.779
74999W        W47424  20.086  37.989  10.593
75000W        W47425   9.856  22.106   4.146
75001W        W47426  23.638  24.537   2.705
75002W        W47427  27.477  10.740   3.704
75003W        W47428   8.773  35.514  11.902
75004W        W47429  20.723  35.914   4.269
75005W        W47430  34.403   9.292   1.233
75006W        W47431  42.286  30.462  11.402
75007W        W47432  18.109  41.382  14.372
75008W        W47433  17.257   5.915  11.459
75009W        W47434  43.778   8.392   0.813
75010W        W47435   2.789   9.342   2.872
75011W        W47436  18.617  41.513   2.874
75012W        W47437  12.255  39.498  13.901
75013W        W47438  21.680  29.549   3.234
75014W        W47439  26.672  30.079   0.279
75015W        W47440   0.433  39.829   2.865
75016W        W47441  29.988  20.258  12.480
75017W        W47442   3.405  14.106  10.926
75018W        W47443  34.595  10.765  14.928
75019W        W47444  35.911  42.805  13.546
75020W        W47445  28.005  13.725  13.434
75021W        W47446  16.574  11.665  12.097
75022W        W47447  35.587  24.621   9.531
75023W        W47448   2.442   6.771   1.221
75024W        W47449  40.840  25.571  10.914
75025W        W47450  36.583  37.339  12.825
75026W        W47451  26.140  42.894   3.323
75027W        W47452  44.890   6.710   4.353
75028W        W47453  21.184  11.651  12.956
75029W        W47454  38.402   3.429  13.013
75030W        W47455  24.557  37.946  11.454
75031W        W47456  13.279  15.593   1.435
75032W        W47457  27.968  12.683   0.730
75033W        W47458   3.797  30.004  11.889
75034W        W47459  13.345  19.709   2.803
75035W        W47460  17.770  20.619  11.422
75036W        W47461   7.260  22.503  11.610
75037W        W47462  11.666   1.434   4.835
75038W        W47463  35.461  32.928   3.646
75039W        W47464  18.777   3.455   1.854
75040W        W47465  42.476   7.252  11.064
75041W        W47466   5.896  27.954  11.593
75042W        W47467  34.081  13.326   4.718
75043W        W47468  18.145  24.543   1.866
75044W        W47469  11.193  29.007   4.724
75045W        W47470  20.631  11.863   3.384
75046W        W47471  19.703  32.892  10.963
75047W        W47472   6.323  10.346   4.685
75048W        W47473  36.052  37.044   3.167
75049W        W47474   5.288  27.055   4.228
75050W        W47475   1.355  29.060   1.919
75051W        W47476  11.359  44.904   0.772
75052W        W47477  21.516   1.796  10.065
75053W        W47478  39.917  41.868   5.654
75054W        W47479  19.757  26.670   2.381
75055W        W47480  23.696   0.868  11.059
75056W        W47481  20.066  17.571   2.900
75057W        W47482  34.965  33.596   0.265
75058W        W47483  15.786  38.392  13.904
75059W        W47484  30.600   6.393  14.992
75060W        W47485  32.490  41.458  11.448
75061W        W47486  11.280   3.924   3.765
75062W        W47487  20.233  26.168  10.505
75063W        W47488  44.404  24.520   3.200
75064W        W47489  10.243  34.958   4.245
75065W        W47490  41.989   9.648  13.456
75066W        W47491  25.659  44.818  14.919
75067W        W47492   0.946  26.055  10.428
75068W        W47493   7.686  10.663   3.154
75069W        W47494   3.786  15.192  13.505
75070W        W47495   0.285  14.305  11.073
75071W        W47496  43.352  37.372   1.224
75072W        W47497  21.249  26.635  11.486
75073W        W47498   5.788  26.472  11.118
75074W        W47499  18.297  29.482  11.116
75075W        W47500  23.552  35.550  10.626
75076W        W47501  15.799  14.200   2.281
75077W        W47502  20.750  35.602   3.299
75078W        W47503  18.170  41.891  13.482
75079W        W47504  27.638  37.953   3.796
75080W        W47505  30.102  41.326  13.841
75081W        W47506  38.516   0.445   0.270
75082W        W47507  24.047  27.006   2.399
75083W        W47508   6.836   5.319   4.636
75084W        W47509  12.631   4.934  13.522
75085W        W47510   6.709  42.496  14.020
75086W        W47511   3.865  43.936  13.373
75087W        W47512   1.922  26.112   1.838
75088W        W47513  31.958  44.886   1.265
75089W        W47514  44.997   3.716   1.794
75090W        W47515  11.655  38.826  11.111
75091W        W47516  33.511  18.179  13.487
75092W        W47517  21.721   2.320   4.668
75093W        W47518  16.199   9.308  10.458
75094W        W47519  35.459   8.213   4.642
75095W        W47520  17.273  42.477  12.989
75096W        W47521  11.782  28.978  13.501
75097W        W47522  16.754  15.313  10.645
75098W        W47523   5.326   6.727   0.398
75099W        W47524  27.009  29.045   3.833
75100W        W47525  22.170  40.424  12.970
75101W        W47526  40.531  29.027   2.716
75102W        W47527  13.806  18.289   4.130
75103W        W47528   0.262  13.808   4.273
75104W        W47529  27.604  17.089   3.271
75105W        W47530  25.547  23.630   2.246
75106W        W47531  19.603  29.553  12.893
75107W        W47532  16.149   9.677  11.537
75108W        W47533  19.052   8.808   2.896
75109W        W47534  27.011  20.527  13.980
75110W        W47535  43.785  40.967  10.497
75111W        W47536   5.408   1.807   1.231
75112W        W47537  42.345  21.604   4.753
75113W        W47538  18.194  44.309  12.838
75114W        W47539  14.807  16.179  13.861
75115W        W47540  15.690   3.438  13.402
75116W        W47541  27.162  43.786   2.736
75117W        W47542  33.962   0.742  13.514
75118W        W47543  38.337  32.977  14.904
75119W        W47544  21.598   4.860   1.770
75120W        W47545   2.885   7.327   2.761
75121W        W47546   3.277  27.679   4.808
75122W        W47547  14.103  18.149  11.554
75123W        W47548   5.885  28.183  14.291
75124W        W47549  37.080  17.104  14.814
75125W        W47550  19.066  35.095   1.920
75126W        W47551   1.310  28.468   2.250
75127W        W47552  32.489  25.203  12.877
75128W        W47553  26.092   4.768   0.351
75129W        W47554  18.262   5.373  12.495
75130W        W47555  39.019  36.037  11.564
75131W        W47556  15.692  37.953  14.281
75132W        W47557   9.360  29.502  13.985
75133W        W47558  27.496   9.225  10.923
75134W        W47559  26.512  24.123  11.480
75135W        W47560  37.454   8.351   3.702
75136W        W47561  27.979   4.207   4.343
75137W        W47562   6.388  44.362  13.391
75138W        W47563  11.206  29.139  11.985
75139W        W47564  39.382   3.428  10.463
75140W        W47565  19.141  13.820  14.814
75141W        W47566  22.034  43.934  14.795
75142W        W47567  35.531  11.646  11.107
75143W        W47568  44.301   5.208  13.442
75144W        W47569  34.432  38.047   3.360
75145W        W47570  28.569   7.371   1.733
75146W        W47571  15.247   6.263   3.835
75147W        W47572  27.601   4.282  13.039
75148W        W47573  31.415  42.850   0.404
75149W        W47574  37.521  40.494  14.935
75150W        W47575  38.465  24.480   3.150
75151W        W47576  44.487  11.312  12.434
75152W        W47577  22.204  40.524  14.789
75153W        W47578   4.816  33.074   0.751
75154W        W47579  22.729  14.779  12.374
75155W        W47580   4.932   7.828   2.681
75156W        W47581  38.841  37.428  11.463
75157W        W47582  10.694  18.574  12.076
75158W        W47583   2.295  39.413   2.735
75159W        W47584  31.436  11.827   0.360
75160W        W47585  24.699  19.220   3.296
75161W        W47586   9.211   4.227  13.045
75162W        W47587   8.270  21.520   0.261
75163W        W47588  18.713  33.474  13.502
75164W        W47589   8.715  29.597  12.489
75165W        W47590  18.598  41.496   3.805
75166W        W47591   3.456  36.962  10.494
75167W        W47592   3.943  24.524   4.194
75168W        W47593  12.723  42.918   4.835
75169W        W47594   7.312  27.966   5.100
75170W        W47595   8.875  42.895   5.110
75171W        W47596  40.943  38.456  13.537
75172W        W47597  26.063  31.120   2.848
75173W        W47598   3.293  22.713   2.370
75174W        W47599  16.136  12.166  13.039
75175W        W47600  22.244  20.243   4.150
75176W        W47601  18.654   5.797   2.394
75177W        W47602  19.209  18.642  12.093
75178W        W47603  28.455  14.706   3.791
75179W        W47604  10.380  29.593   0.823
75180W        W47605   0.810   5.896   3.253
75181W        W47606  34.614   2.761  11.126
75182W        W47607   7.896  11.222  10.639
75183W        W47608  24.634  38.832  13.415
75184W        W47609  16.123   8.298   3.260
75185W        W47610  21.559  33.423  14.350
75186W        W47611   3.715  44.289  14.300
75187W        W47612   8.856  33.596  14.417
75188W        W47613  12.767  37.002   0.314
75189W        W47614  41.330   7.243  12.373
75190W        W47615  41.972  15.761  13.959
75191W        W47616   2.253  20.635   0.965
75192W        W47617  40.827  31.533  11.384
75193W        W47618  32.994   5.340  13.867
75194W        W47619   8.265  37.380   2.302
75195W        W47620  21.144   1.863  14.021
75196W        W47621  23.723  39.038   2.819
75197W        W47622  21.145  11.277   1.725
75198W        W47623   0.858  23.073   0.899
75199W        W47624   1.394  43.998  12.553
75200W        W47625  19.601  23.086   0.846
75201W        W47626   4.426  38.486  13.868
75202W        W47627  38.523  40.490   0.966
75203W        W47628  38.962   3.792   3.778
75204W        W47629  10.782  32.490  12.877
75205W        W47630  32.442   3.711  14.514
75206W        W47631  18.137  12.632  13.046
75207W        W47632  20.140  30.428  13.005
75208W        W47633  42.948   6.197  12.943
75209W        W47634  40.537  39.444   4.763
75210W        W47635  10.200  28.462   1.851
75211W        W47636  34.419  17.797  10.588
75212W        W47637  30.127  27.563  14.383
75213W        W47638  30.057  14.309  13.032
75214W        W47639  26.531  41.386  14.893
75215W        W47640  28.969   7.186   0.748
75216W        W47641  16.612  11.753   4.683
75217W        W47642  20.552  15.125  12.888
75218W        W47643  20.198  37.435   2.827
75219W        W47644  15.139  34.532   0.801
75220W        W47645  25.577  16.148  11.019
75221W        W47646   6.400  12.714   9.985
75222W        W47647   7.249  30.932   3.357
75223W        W47648   3.446  42.423   3.171
75224W        W47649  44.283  24.660   4.750
75225W        W47650  26.664   1.827   9.950
75226W        W47651  31.078  37.371   0.477
75227W        W47652   3.395  35.900  14.348
75228W        W47653   6.215  34.472  12.994
75229W        W47654   9.798  27.057  14.795
75230W        W47655   8.714  11.142   3.659
75231W        W47656  14.615   1.347   3.724
75232W        W47657   7.375   9.883   1.872
75233W        W47658  23.066  13.122   4.184
75234W        W47659  16.265  34.464  11.011
75235W        W47660  19.123  22.238   4.771
75236W        W47661   1.371  40.481  13.975
75237W        W47662  14.731  13.661  11.945
75238W        W47663  44.319  32.417   0.262
75239W        W47664  30.987  25.628  14.778
75240W        W47665  19.548  40.922   3.146
75241W        W47666  23.661   1.847   0.909
75242W        W47667  26.141   8.662   2.738
75243W        W47668  40.847  28.078  10.529
75244W        W47669  17.782  39.523   3.174
75245W        W47670   6.679  40.517   1.811
75246W        W47671  28.634   9.838  10.418
75247W        W47672   5.888  37.029   0.319
75248W        W47673  25.704  33.966   2.402
75249W        W47674  16.744  41.933   4.321
75250W        W47675  24.587  13.176   0.274
75251W        W47676  12.356   1.736  12.005
75252W        W47677  23.216  34.949  14.859
75253W        W47678  36.950  31.520  11.014
75254W        W47679  32.012   1.739  11.587
75255W        W47680  19.533  34.451   2.355
75256W        W47681   9.808   2.373   2.248
75257W        W47682  37.490   2.235  12.953
75258W        W47683  26.012  16.696   1.768
75259W        W47684  38.993   2.874  12.926
75260W        W47685   3.779   3.774  13.801
75261W        W47686  27.458   4.743   1.227
75262W        W47687  40.497  41.523  13.962
75263W        W47688  37.376  16.264  12.557
75264W        W47689  36.963  29.039  14.868
75265W        W47690  32.556  25.607  12.468
75266W        W47691  23.729  28.102   1.776
75267W        W47692  33.996  26.525   9.987
75268W        W47693  14.706  18.192   4.267
75269W        W47694  44.438  23.566  13.494
75270W        W47695  25.127  18.614   3.334
75271W        W47696  40.030  20.206  14.998
75272W        W47697  14.640  13.696   1.807
75273W        W47698  32.556  11.271  12.895
75274W        W47699  19.214  29.603   0.437
75275W        W47700  36.946  15.195  14.477
75276W        W47701  35.910  10.281   3.251
75277W        W47702  34.373  12.242   1.285
75278W        W47703  24.001   6.237   2.816
75279W        W47704  38.848  37.467  14.020
75280W        W47705  41.917  17.738   2.183
75281W        W47706  44.391  28.495   2.231
75282W        W47707  11.751   0.347   2.389
75283W        W47708  28.585  19.224   3.203
75284W        W47709  21.614   3.888   0.283
75285W        W47710   6.228  10.753  12.865
75286W        W47711  15.637   0.941  14.433
75287W        W47712  11.793  30.944   2.191
75288W        W47713  13.342  33.588  11.581
75289W        W47714  30.450  26.140   2.268
75290W        W47715  17.196  38.870  10.581
75291W        W47716   5.433  41.829  14.479
75292W        W47717  21.584   4.898   4.325
75293W        W47718  18.582  31.917   0.758
75294W        W47719  26.121  36.082   2.841
75295W        W47720  39.405  42.977   4.724
75296W        W47721  37.933  13.626  11.903
75297W        W47722  10.678  25.546  14.933
75298W        W47723  32.006  18.692   5.683
75299W        W47724  15.123  29.642   3.642
75300W        W47725  27.026  39.422   3.659
75301W        W47726   2.872  11.274   3.797
75302W        W47727  24.089   7.196  14.814
75303W        W47728  40.434   0.463   9.938
75304W        W47729  19.184   7.312  14.904
75305W        W47730   9.209  44.368  10.160
75306W        W47731  32.920  18.702  14.400
75307W        W47732  44.769  27.194   0.873
75308W        W47733  14.778  38.055  11.021
75309W        W47734  18.071  24.491  13.862
75310W        W47735   1.741   0.798  10.501
75311W        W47736  43.818  26.990  14.863
75312W        W47737   6.816   0.398  14.828
75313W        W47738   6.741   6.341   0.431
75314W        W47739  34.511  24.179  13.324
75315W        W47740  32.073  17.282   0.940
75316W        W47741  20.182   1.785  14.809
75317W        W47742  40.418  38.855   2.213
75318W        W47743  33.062  42.390   0.445
75319W        W47744  38.975   0.291   4.618
75320W        W47745  30.511  30.560  11.019
75321W        W47746   1.804  30.088  12.547
75322W        W47747  29.426  25.469   4.809
75323W        W47748   7.409   0.332   3.195
75324W        W47749  43.318  20.728  13.493
75325W        W47750  30.922  42.939  12.940
75326W        W47751  25.699  24.581   0.396
75327W        W47752  14.126   9.848   2.236
75328W        W47753  19.215  15.226   4.612
75329W        W47754  17.786  33.433  10.442
75330W        W47755  25.689  43.908   4.650
75331W        W47756  36.084   9.189   1.343
75332W        W47757  27.589  18.552   4.725
75333W        W47758  26.698   1.945  14.004
75334W        W47759   2.471  18.115  13.334
75335W        W47760  34.023   2.429   4.247
75336W        W47761  21.044  38.377  11.004
75337W        W47762  12.338  38.433   2.393
75338W        W47763  13.203   4.234  10.499
75339W        W47764  13.653   9.249  10.515
75340W        W47765  18.597  25.485  10.448
75341W        W47766  26.652  41.871  11.466
75342W        W47767  29.035  24.589   0.846
75343W        W47768  23.733  34.389  13.811
75344W        W47769  11.160   7.821   5.632
75345W        W47770  35.985  30.154   0.352
75346W        W47771  21.206  20.213   1.748
75347W        W47772  18.755  24.667  12.943
75348W        W47773  26.082  31.591   0.851
75349W        W47774  41.391  19.235   0.372
75350W        W47775  30.922  37.887  10.437
75351W        W47776   0.810  38.350  14.984
75352W        W47777  28.939   3.285  13.542
75353W        W47778   8.326  21.571   3.690
75354W        W47779  14.257  22.226   4.716
75355W        W47780  22.727  42.387  13.519
75356W        W47781  31.972  31.911  12.068
75357W        W47782   8.199  20.680   3.195
75358W        W47783  17.764   7.816   0.322
75359W        W47784  33.101   0.932  14.987
75360W        W47785  28.535  27.143  11.431
75361W        W47786  24.706  20.694   3.862
75362W        W47787  12.692  41.930   1.236
75363W        W47788  42.419  13.114  11.587
75364W        W47789  16.716  42.936  13.319
75365W        W47790   7.231   5.886   1.911
75366W        W47791  41.913  28.567   1.256
75367W        W47792  28.970  37.862   4.126
75368W        W47793  38.502  19.133  10.413
75369W        W47794  36.906  20.763  12.007
75370W        W47795  14.179  43.800   3.223
75371W        W47796  44.294  14.213   1.252
75372W        W47797  27.467  38.535   3.652
75373W        W47798  31.081  41.852  12.415
75374W        W47799   8.895  14.817   3.177
75375W        W47800  12.736  26.525  13.802
75376W        W47801  44.403  27.101  13.847
75377W        W47802  21.193  10.738  10.019
75378W        W47803   0.371   4.865   2.340
75379W        W47804  38.856  24.010  12.880
75380W        W47805  35.557  38.004  13.377
75381W        W47806  35.067  39.818  11.987
75382W        W47807  22.147  33.012  13.342
75383W        W47808  38.913  42.507   9.477
75384W        W47809  37.005  15.591  10.487
75385W        W47810  28.093  37.838   0.421
75386W        W47811  31.521  43.312  11.539
75387W        W47812  13.783  36.390  14.935
75388W        W47813  14.322  14.169  14.779
75389W        W47814  40.399  37.066   2.345
75390W        W47815  19.708   6.381   5.243
75391W        W47816  14.336  37.045  14.291
75392W        W47817  15.810  11.219  12.481
75393W        W47818  32.097  30.095   4.743
75394W        W47819  27.128   1.466   3.207
75395W        W47820  20.672  41.322   1.388
75396W        W47821  19.554  38.008  10.493
75397W        W47822   1.830   6.345   4.643
75398W        W47823  13.639  21.629   9.996
75399W        W47824  18.568  31.463  10.533
75400W        W47825  31.437  13.681   4.230
75401W        W47826   5.222   7.798  10.515
75402W        W47827  17.120  33.948   3.285
75403W        W47828  29.000  31.149   1.914
75404W        W47829  11.712  15.255   3.859
75405W        W47830  28.522  28.552   3.767
75406W        W47831  38.945  16.673  14.352
75407W        W47832  40.997  26.622  10.526
75408W        W47833   4.865  13.667  10.962
75409W        W47834  16.145   6.401  10.949
75410W        W47835  37.489  42.313  12.487
75411W        W47836  30.907  21.240  12.079
75412W        W47837  39.454  14.203  14.377
75413W        W47838  21.590  17.639  14.376
75414W        W47839  29.623  39.512   3.781
75415W        W47840  17.791  44.838  12.408
75416W        W47841  37.058   8.718   5.321
75417W        W47842  32.080  28.938  11.990
75418W        W47843  33.013  41.968  12.914
75419W        W47844  40.442  21.078  11.063
75420W        W47845  12.618   3.234  13.852
75421W        W47846  38.394   9.276  11.879
75422W        W47847  15.646  18.144   3.696
75423W        W47848  34.973  41.989   2.752
75424W        W47849   4.771  21.701  11.535
75425W        W47850  34.481  18.163  13.929
75426W        W47851  25.671  43.859   2.370
75427W        W47852  18.179  33.065  14.845
75428W        W47853  21.628  20.639   0.405
75429W        W47854  20.634   1.272   0.955
75430W        W47855  23.035  15.269  13.348
75431W        W47856  43.941  41.360  15.000
75432W        W47857  40.384   3.908   1.889
75433W        W47858  37.842  39.525  13.818
75434W        W47859  41.941  44.865  12.068
75435W        W47860   4.705  40.344  14.909
75436W        W47861  11.643  11.852   1.866
75437W        W47862  34.016  10.662   0.950
75438W        W47863  44.939  32.066  12.004
75439W        W47864   1.341  35.975   3.720
75440W        W47865  13.292  16.752   1.254
75441W        W47866  18.175  28.441   2.891
75442W        W47867   8.404   4.700   4.200
75443W        W47868  19.185  35.418   3.700
75444W        W47869   9.781  40.412  10.556
75445W        W47870   8.794  24.226   2.278
75446W        W47871  10.381   3.742   1.293
75447W        W47872  16.154  29.058  14.461
75448W        W47873  17.187  14.112   1.220
75449W        W47874  41.333  30.472  10.917
75450W        W47875  26.614  15.740   2.685
75451W        W47876  27.140  38.993   9.930
75452W        W47877   9.726  31.022   3.729
75453W        W47878  28.997  28.603   2.295
75454W        W47879   6.916  25.469   2.241
75455W        W47880  18.773  18.642  12.967
75456W        W47881  28.575   9.256   0.904
75457W        W47882  34.395  41.940  11.933
75458W        W47883   2.311  21.204   3.756
75459W        W47884  14.109   7.184   2.347
75460W        W47885  24.645   1.963  14.281
75461W        W47886  43.966  18.553   2.772
75462W        W47887  22.502  41.511  13.885
75463W        W47888  41.354  11.170   3.712
75464W        W47889  26.685  11.257  11.127
75465W        W47890  24.074  21.160   0.832
75466W        W47891   3.397  16.247  14.514
75467W        W47892  34.944  11.735   3.371
75468W        W47893  10.209   9.195   0.891
75469W        W47894   0.250  27.089  14.274
75470W        W47895  19.222  34.608   0.434
75471W        W47896  38.517  34.581   2.352
75472W        W47897  18.188  23.724   0.375
75473W        W47898   6.301  23.057   4.699
75474W        W47899  22.147  36.593   1.917
75475W        W47900  10.218  39.529   1.369
75476W        W47901  13.281  32.550  11.397
75477W        W47902   5.892  25.661  11.118
75478W        W47903   8.217  41.502   0.733
75479W        W47904  34.114  34.475   1.324
75480W        W47905  28.171  12.181   2.714
75481W        W47906  11.832  15.615  12.824
75482W        W47907  28.012  19.541  12.455
75483W        W47908  20.676  15.144  14.354
75484W        W47909  27.044  18.150  13.001
75485W        W47910  40.448  14.145  13.058
75486W        W47911  20.205  33.591   2.688
75487W        W47912  38.523  35.910   2.306
75488W        W47913  42.284  29.943  10.623
75489W        W47914   4.940  36.560   2.791
75490W        W47915  29.082   2.773   0.244
75491W        W47916   8.302  20.731  13.409
75492W        W47917   2.723   9.180  13.440
75493W        W47918  40.894  10.303   3.157
75494W        W47919  10.769  12.302   3.814
75495W        W47920  40.844  40.416   2.335
75496W        W47921  22.673  30.590   2.883
75497W        W47922   0.880  23.496  12.567
75498W        W47923  23.575  23.515   3.190
75499W        W47924  26.642   2.260  14.277
75500W        W47925  29.942   5.368  13.365
75501W        W47926  18.777  42.992   5.268
75502W        W47927  33.886  20.608   1.258
75503W        W47928  21.664  28.526  12.488
75504W        W47929  19.671  34.436   4.662
75505W        W47930  28.981  15.154  13.491
75506W        W47931  44.895   8.725   0.477
75507W        W47932  15.183  15.284   0.263
75508W        W47933  44.489  20.733   2.876
75509W        W47934  10.852   3.914  13.328
75510W        W47935  11.266  33.877   1.293
75511W        W47936   1.940  17.666  13.894
75512W        W47937  23.135  11.239   4.195
75513W        W47938   2.262  34.072   1.346
75514W        W47939  19.193  25.158   3.746
75515W        W47940  32.108  40.484  14.881
75516W        W47941  36.353  12.771   0.928
75517W        W47942  24.601  43.790   4.657
75518W        W47943  41.447  24.515  12.846
75519W        W47944  37.570  24.196   1.779
75520W        W47945  37.062   7.195  14.991
75521W        W47946  11.281  19.138   3.642
75522W        W47947  33.004  25.098  14.956
75523W        W47948  22.618   2.278  12.993
75524W        W47949  32.078  34.502  14.807
75525W        W47950  28.615  43.845  12.986
75526W        W47951  41.976  13.195  11.992
75527W        W47952   7.736  10.308  12.838
75528W        W47953  16.578  21.651   3.325
75529W        W47954   0.322   4.358  13.998
75530W        W47955  16.698  19.194  12.066
75531W        W47956  12.758  31.629  10.899
75532W        W47957  25.666  21.104   4.625
75533W        W47958  39.046  22.097   5.082
75534W        W47959   4.924  20.116  12.533
75535W        W47960  12.314  26.556   2.755
75536W        W47961   0.331  28.952  12.522
75537W        W47962  25.697  19.721   3.860
75538W        W47963  32.924  27.097   0.307
75539W        W47964  12.116  13.172  12.399
75540W        W47965  42.318  39.384   1.747
75541W        W47966   1.281  12.342   2.371
75542W        W47967  32.133  18.147  13.956
75543W        W47968  20.569  27.139   1.308
75544W        W47969   7.353  21.076  12.378
75545W        W47970  27.190  14.264   2.360
75546W        W47971  33.933  35.004  12.878
75547W        W47972  41.952  34.392  12.007
75548W        W47973   1.874  30.961  10.499
75549W        W47974  40.494  31.899   1.393
75550W        W47975  10.233  35.508  11.947
75551W        W47976  42.858  36.002   2.757
75552W        W47977  15.267  26.681  11.553
75553W        W47978   5.783  37.416   3.206
75554W        W47979   2.314  34.930  10.109
75555W        W47980   6.348  39.895  13.449
75556W        W47981  19.707  17.688   2.354
75557W        W47982  14.610   3.369  10.887
75558W        W47983  12.284  37.973   0.882
75559W        W47984  37.575  33.442   3.829
75560W        W47985  22.513  44.946  13.529
75561W        W47986  35.489  17.200   0.363
75562W        W47987  39.059  34.525   1.894
75563W        W47988  29.934  35.585  12.373
75564W        W47989  35.365  27.635  10.421
75565W        W47990  38.360  24.035  12.901
75566W        W47991  15.593  31.015  13.443
75567W        W47992   6.807  28.137   0.269
75568W        W47993   4.342  14.747  13.500
75569W        W47994  37.439  17.565  13.811
75570W        W47995  43.973  30.592   3.748
75571W        W47996  13.200  41.534  13.498
75572W        W47997  17.245   6.185   0.364
75573W        W47998  33.382  15.153  11.508
75574W        W47999  42.829  12.161  13.514
75575W        W48000   4.362  38.971   0.880
75576W        W48001  17.142   4.267  10.514
75577W        W48002  42.019  39.019  13.330
75578W        W48003  38.963  40.446   1.818
75579W        W48004  36.437  12.157  11.010
75580W        W48005   8.388  35.926   1.218
75581W        W48006  34.511  27.106  11.456
75582W        W48007  18.187   2.406   4.138
75583W        W48008  37.546   6.730  14.884
75584W        W48009  21.243  34.060  13.878
75585W        W48010  33.038  13.696   0.937
75586W        W48011  13.694  19.772   4.240
75587W        W48012  13.786  12.260  11.993
75588W        W48013  28.952  17.225  12.085
75589W        W48014  12.616   7.348   2.719
75590W        W48015   7.373  38.428   4.678
75591W        W48016  34.929  40.008  14.423
75592W        W48017  40.532   6.762  11.084
75593W        W48018   6.739  37.990   0.849
75594W        W48019  30.093  34.937  14.907
75595W        W48020  13.230  12.626   1.817
75596W        W48021  14.273  35.933   4.636
75597W        W48022  40.340  22.007   1.753
75598W        W48023  14.256   9.730  13.889
75599W        W48024  29.980  42.968  14.342
75600W        W48025  23.092  17.273  12.048
75601W        W48026  39.947   2.230   1.815
75602W        W48027   4.232  40.039   2.301
75603W        W48028   6.772  24.067  13.391
75604W        W48029  39.467  42.886  14.380
75605W        W48030   3.259  23.172  14.934
75606W        W48031   7.223   7.314   2.288
75607W        W48032   3.290  22.192  11.548
75608W        W48033  26.197  41.387   2.885
75609W        W48034   1.771  14.755  13.026
75610W        W48035  33.428   5.292   4.723
75611W        W48036  41.377  27.969   4.628
75612W        W48037  34.002  25.611   4.117
75613W        W48038  19.194   8.176  11.473
75614W        W48039   4.905  43.912   0.345
75615W        W48040  10.830  42.849   2.813
75616W        W48041  12.253  14.790   4.754
75617W        W48042   9.707   2.390   0.731
75618W        W48043  28.937   6.345   0.361
75619W        W48044   3.271  37.372  10.954
75620W        W48045  36.073   8.793  13.050
75621W        W48046  44.914  35.377  13.925
75622W        W48047  26.056  40.816   0.792
75623W        W48048  13.245  20.125   2.838
75624W        W48049   8.692  39.415   1.904
75625W        W48050  36.070  15.649   3.289
75626W        W48051  31.013   0.809  14.276
75627W        W48052  32.461  40.435   1.737
75628W        W48053  31.483  14.194   3.256
75629W        W48054  19.245  38.822   3.740
75630W        W48055  22.663  21.573   4.679
75631W        W48056  22.229  41.443   0.908
75632W        W48057  17.208  20.136  10.058
75633W        W48058  10.863  27.623  14.398
75634W        W48059  21.032  17.773   3.295
75635W        W48060  21.533  29.665   2.897
75636W        W48061  21.603  24.699  14.280
75637W        W48062  10.687  14.240   2.255
75638W        W48063  42.521  41.979  13.053
75639W        W48064   9.830   2.909  14.808
75640W        W48065   6.750  11.644   0.350
75641W        W48066  29.426  26.969  12.375
75642W        W48067   2.301  38.051  12.906
75643W        W48068  38.444  42.798  14.284
75644W        W48069   2.433   2.254   1.259
75645W        W48070  39.874  10.722   4.795
75646W        W48071  27.633  27.940  13.060
75647W        W48072   0.395  32.405   1.340
75648W        W48073   1.757  36.855   0.956
75649W        W48074  18.281  17.585  11.037
75650W        W48075  26.144  33.434   1.897
75651W        W48076  24.710  31.113   2.669
75652W        W48077  40.831  30.993  14.992
75653W        W48078  27.953  37.022  12.455
75654W        W48079  40.006   1.474  11.880
75655W        W48080  37.937  24.612   1.427
75656W        W48081   1.463  44.318   2.754
75657W        W48082   7.894  35.026  12.485
75658W        W48083   7.247  29.467   0.369
75659W        W48084  22.728  18.286   3.634
75660W        W48085  14.195  28.111   0.271
75661W        W48086   6.261  36.592   3.720
75662W        W48087  39.994  10.237   1.921
75663W        W48088  20.722  10.730  14.366
75664W        W48089  44.478   5.284   2.829
75665W        W48090  15.633  44.992  10.610
75666W        W48091  13.775  42.864  11.469
75667W        W48092  29.044  11.325  10.441
75668W        W48093  31.948  39.052   5.174
75669W        W48094  16.144  14.705   3.382
75670W        W48095   6.263  39.505   2.769
75671W        W48096   6.217  18.743   3.181
75672W        W48097  44.277   8.312  11.080
75673W        W48098  18.668  19.541   4.239
75674W        W48099  14.754  30.561   3.810
75675W        W48100   0.901  16.592  13.801
75676W        W48101  30.067  40.968   1.762
75677W        W48102   5.720  13.237  14.022
75678W        W48103  35.564  20.649   2.372
75679W        W48104   3.321  39.823   0.903
75680W        W48105  33.489   0.390   1.434
75681W        W48106  37.424  23.025   1.431
75682W        W48107  25.056   1.454  12.968
75683W        W48108   8.393  37.532   5.592
75684W        W48109  32.073  37.523   1.261
75685W        W48110   6.399  17.146   1.257
75686W        W48111   4.302  26.203  11.000
75687W        W48112  36.010  31.898  11.061
75688W        W48113  34.095  13.814  12.405
75689W        W48114  33.969   7.697  14.513
75690W        W48115  23.202   5.297  13.966
75691W        W48116  12.750  42.859   0.457
75692W        W48117  36.930  12.297  14.797
75693W        W48118  42.443  19.685   3.379
75694W        W48119  29.933  19.111   0.822
75695W        W48120  31.634  21.650  12.999
75696W        W48121  14.101   7.892   1.306
75697W        W48122  16.299   6.218   0.869
75698W        W48123  18.732  12.753  10.456
75699W        W48124  18.727   9.694   2.213
75700W        W48125  33.082  22.640  11.913
75701W        W48126  13.697  10.245  12.509
75702W        W48127  18.055  11.131  14.839
75703W        W48128  37.382  37.923  13.429
75704W        W48129  15.743  30.444   5.232
75705W        W48130  33.977  14.264   2.859
75706W        W48131   0.373  13.138   1.393
75707W        W48132  26.133  43.317  13.543
75708W        W48133   2.239  38.424   4.178
75709W        W48134   3.862  11.201   4.287
75710W        W48135  15.223  15.313  13.495
75711W        W48136  32.528  16.287  13.445
75712W        W48137  41.384  16.604  13.485
75713W        W48138  33.077  13.151   1.242
75714W        W48139  21.184  43.299  10.543
75715W        W48140  17.083   7.379  10.407
75716W        W48141  19.630  42.907  14.908
75717W        W48142  33.554  10.682  14.416
75718W        W48143   1.343  31.927  12.864
75719W        W48144  14.752  37.446  13.808
75720W        W48145  35.562   2.765  10.967
75721W        W48146   7.184  28.533   4.807
75722W        W48147  33.077  21.640   3.178
75723W        W48148  19.710  22.560  13.954
75724W        W48149   4.449  18.561  13.958
75725W        W48150  15.241  32.090  13.416
75726W        W48151   2.803  41.841  13.422
75727W        W48152  18.563  23.602   4.120
75728W        W48153  26.106  15.647   3.240
75729W        W48154   3.876  30.985   4.786
75730W        W48155   1.779  29.168  12.966
75731W        W48156  44.398  27.629   0.925
75732W        W48157   0.821  11.346  11.052
75733W        W48158   3.319  44.492  14.972
75734W        W48159  20.078  38.556  12.065
75735W        W48160  35.502  12.169   3.671
75736W        W48161  10.295  19.237  14.280
75737W        W48162  39.552  41.960   3.680
75738W        W48163  40.358  30.503  12.933
75739W        W48164  35.363  32.139   0.466
75740W        W48165  32.572  21.621  13.922
75741W        W48166  28.491  14.234   0.771
75742W        W48167  41.935  42.869   1.813
75743W        W48168  31.462  37.838  11.126
75744W        W48169  21.154  44.339  11.588
75745W        W48170  22.518   0.478   1.750
75746W        W48171  43.963  10.645  14.876
75747W        W48172  14.287  30.955   3.804
75748W        W48173  38.877  16.136   1.392
75749W        W48174  41.973  27.629   3.823
75750W        W48175  10.867  10.245   3.688
75751W        W48176  37.372  32.550  12.441
75752W        W48177  17.220  28.005  12.458
75753W        W48178  37.530  15.262   3.653
75754W        W48179  15.244  21.694   3.296
75755W        W48180   2.955  14.340   2.194
75756W        W48181  29.119  42.942  14.416
75757W        W48182   3.850   8.845  11.553
75758W        W48183  44.269   0.399  12.833
75759W        W48184  36.566  22.180  13.332
75760W        W48185  14.207  14.185  11.565
75761W        W48186  13.170  12.269   3.263
75762W        W48187  44.298   7.853   1.384
75763W        W48188   3.755   8.222  14.346
75764W        W48189   6.738   5.432  11.390
75765W        W48190  32.016  23.985   4.183
75766W        W48191  29.480   9.357   1.715
75767W        W48192  33.097  33.616   3.247
75768W        W48193  21.705  36.390  11.476
75769W        W48194  24.600  35.068  10.550
75770W        W48195  31.998   4.899   1.409
75771W        W48196  23.156  41.483   3.714
75772W        W48197  23.579  23.209  13.064
75773W        W48198  15.622   1.459  10.911
75774W        W48199  14.318  30.491   2.825
75775W        W48200   7.909  10.694  13.853
75776W        W48201  24.037   2.264   2.395
75777W        W48202  39.980  44.944  13.029
75778W        W48203  32.034  29.436   1.817
75779W        W48204  25.665   5.810  11.092
75780W        W48205  10.733  35.060   0.786
75781W        W48206  17.555  32.556  12.942
75782W        W48207  32.586   5.841  14.310
75783W        W48208  28.005   5.256   0.293
75784W        W48209  33.408  22.640  13.853
75785W        W48210  41.474   5.911  11.034
75786W        W48211   5.352  36.411  14.289
75787W        W48212   5.928  16.640   4.786
75788W        W48213  24.131  40.375  14.372
75789W        W48214  12.248   6.781   4.333
75790W        W48215  43.909   2.827  11.961
75791W        W48216  42.355  39.044   0.307
75792W        W48217  23.073  11.844   9.551
75793W        W48218  24.508  37.460   1.735
75794W        W48219  14.676  10.227  10.445
75795W        W48220  19.127  12.663  11.396
75796W        W48221  14.196  19.577  13.978
75797W        W48222  41.476   2.870  14.978
75798W        W48223  16.641  39.855   2.315
75799W        W48224  38.037  34.934  13.057
75800W        W48225  18.704   4.713  10.955
75801W        W48226  16.211  11.175  13.973
75802W        W48227   3.869  29.518   0.394
75803W        W48228   3.864  36.383   1.375
75804W        W48229  35.860   5.868   1.349
75805W        W48230  29.060  22.166   1.247
75806W        W48231   0.902  44.800   0.301
75807W        W48232   7.883  32.542  11.970
75808W        W48233  39.400  22.729   1.795
75809W        W48234  31.902   7.681   2.777
75810W        W48235  35.005  20.094   0.789
75811W        W48236  16.606  16.073  14.764
75812W        W48237   4.906  33.043   2.306
75813W        W48238  15.679  22.624   4.661
75814W        W48239  21.533  44.486  12.500
75815W        W48240  32.598   7.329   4.672
75816W        W48241   3.921  42.406   1.845
75817W        W48242   0.812  26.691   4.139
75818W        W48243  15.133  31.108  11.410
75819W        W48244   8.801  40.427  11.608
75820W        W48245  11.793  44.461  11.923
75821W        W48246  26.016  15.666  14.288
75822W        W48247  40.509  17.243  12.392
75823W        W48248  32.413  16.727  10.622
75824W        W48249  23.176  40.834  11.966
75825W        W48250  21.017  44.270   2.336
75826W        W48251  31.567  35.522  12.543
75827W        W48252  26.960  18.199  11.387
75828W        W48253  37.421  23.129  11.391
75829W        W48254   6.307  21.725   2.411
75830W        W48255  16.238   2.304  11.112
75831W        W48256  25.162  29.512   2.813
75832W        W48257  29.924  44.358  11.477
75833W        W48258   0.756  16.160  14.475
75834W        W48259  32.915  23.575  13.967
75835W        W48260   4.876  24.694   4.251
75836W        W48261  17.096  12.148  14.020
75837W        W48262   7.767   0.323   2.225
75838W        W48263  35.499   5.227   1.760
75839W        W48264   0.894  10.261  13.431
75840W        W48265  32.101  26.096  14.945
75841W        W48266  15.142  27.099  11.456
75842W        W48267  19.137   4.799   0.371
75843W        W48268  44.966   8.866  13.023
75844W        W48269  19.592  27.681   4.672
75845W        W48270  14.670  27.530  13.934
75846W        W48271  14.291  33.528  14.491
75847W        W48272  43.890  33.108  11.441
75848W        W48273  27.097   6.738   2.311
75849W        W48274  24.611   3.735  10.523
75850W        W48275   3.383   3.454  12.491
75851W        W48276  22.617  20.035   4.673
75852W        W48277  32.992  11.866  13.822
75853W        W48278  10.748  16.759   3.271
75854W        W48279  18.755   1.342  13.827
75855W        W48280  15.668   4.700  14.513
75856W        W48281  29.008  43.334  10.434
75857W        W48282  40.897   3.413  13.381
75858W        W48283  38.992  19.661  14.999
75859W        W48284  31.468  31.943  14.347
75860W        W48285  16.192  24.641   2.865
75861W        W48286   7.749   0.923  10.100
75862W        W48287   6.795  27.143  14.982
75863W        W48288  15.689  32.916  13.968
75864W        W48289  42.366  28.610  11.050
75865W        W48290  25.032  25.177  13.976
75866W        W48291  24.012   2.807   0.351
75867W        W48292   9.325  33.561  11.111
75868W        W48293  24.683   3.260   4.622
75869W        W48294  17.139  22.052   3.307
75870W        W48295   0.274   2.731  14.961
75871W        W48296   6.315  30.606   3.650
75872W        W48297   0.822  25.013   9.956
75873W        W48298  25.980   0.843   2.339
75874W        W48299  33.548  12.319  13.494
75875W        W48300   5.267  15.323  14.395
75876W        W48301   6.415   7.188   2.728
75877W        W48302   4.925  36.022  13.441
75878W        W48303   5.899  31.083  11.021
75879W        W48304  18.082  28.540   0.840
75880W        W48305  15.107  29.438  13.323
75881W        W48306  13.754  39.862   1.925
75882W        W48307   2.815   9.302   0.884
75883W        W48308   7.688  21.019  12.883
75884W        W48309  30.550  22.023  13.989
75885W        W48310  14.665  27.507  14.926
75886W        W48311  27.970  28.015   3.673
75887W        W48312  31.089  31.990   1.775
75888W        W48313  22.700  19.655   0.960
75889W        W48314  19.207  32.450   9.990
75890W        W48315  14.329  36.544   4.823
75891W        W48316  33.118  43.286  13.357
75892W        W48317  28.673   6.311  11.483
75893W        W48318  33.577  31.980  11.968
75894W        W48319  30.520  21.167  14.780
75895W        W48320  29.538   5.341   1.709
75896W        W48321   1.899  28.534   0.423
75897W        W48322  25.519  12.303   4.220
75898W        W48323  30.481  18.617  14.855
75899W        W48324  34.603   9.320   4.329
75900W        W48325   5.352  22.132  13.952
75901W        W48326  38.368  43.996  11.034
75902W        W48327  44.777  14.184   2.185
75903W        W48328  33.613  37.458  11.977
75904W        W48329  13.338  19.110   1.696
75905W        W48330   0.887   8.281   4.345
75906W        W48331  19.554  17.170  11.125
75907W        W48332  24.193  36.979  14.499
75908W        W48333  24.563  19.547   0.816
75909W        W48334   1.817  18.708  14.446
75910W        W48335  15.202  14.601   4.799
75911W        W48336  28.090  21.079  10.982
75912W        W48337  36.896  36.037  14.906
75913W        W48338   1.420  32.917   0.726
75914W        W48339   5.855  18.759   4.154
75915W        W48340   1.916   6.280   4.248
75916W        W48341   1.243  30.592  12.569
75917W        W48342  26.068  33.112  12.531
75918W        W48343  29.589  15.822   2.293
75919W        W48344  11.805  17.219   3.719
75920W        W48345  27.064   9.818  11.927
75921W        W48346  11.625  28.979   4.760
75922W        W48347  29.003  20.236   3.193
75923W        W48348  27.447  27.187  14.027
75924W        W48349  37.878  28.456  10.478
75925W        W48350  20.032  41.378   2.404
75926W        W48351  17.285  34.437   3.721
75927W        W48352  23.610  25.651   4.140
75928W        W48353   4.737  30.536  12.928
75929W        W48354  22.703  41.512   2.366
75930W        W48355  29.098   8.731  14.926
75931W        W48356   3.418   1.957   1.378
75932W        W48357  43.797  38.446  13.472
75933W        W48358  11.666  30.473   1.431
75934W        W48359   4.337  23.653  14.439
75935W        W48360  36.879  23.724  14.398
75936W        W48361  16.126   4.926  14.446
75937W        W48362  27.090  17.703   2.813
75938W        W48363  26.627  13.141   2.837
75939W        W48364  38.553  33.045  14.326
75940W        W48365  27.556  19.700  13.891
75941W        W48366  17.126  23.509  13.508
75942W        W48367  27.990  19.062  11.533
75943W        W48368  28.028  40.547   1.742
75944W        W48369  30.915   6.707  12.340
75945W        W48370  43.780  10.875   4.246
75946W        W48371  21.602  25.056   3.176
75947W        W48372  23.033  14.187   1.448
75948W        W48373  11.281  37.560   1.280
75949W        W48374  10.724  31.067  11.104
75950W        W48375  11.847  31.639  14.487
75951W        W48376  38.883  22.049  11.573
75952W        W48377  34.882  13.312   4.244
75953W        W48378  40.406  13.606   1.240
75954W        W48379  41.835  39.409  10.422
75955W        W48380  13.107   3.270  12.455
75956W        W48381   6.284   3.285   3.680
75957W        W48382  38.039  37.347   4.136
75958W        W48383  24.682  44.009  14.026
75959W        W48384  31.067  19.061   5.739
75960W        W48385  34.006  17.305   3.240
75961W        W48386  28.573  21.158  14.391
75962W        W48387  36.416  37.839   3.770
75963W        W48388  32.897  38.505   3.384
75964W        W48389   6.374   2.897   2.412
75965W        W48390  20.702  41.961   4.118
75966W        W48391   6.878  14.679   3.199
75967W        W48392  39.527  42.972   3.161
75968W        W48393  34.002   6.724   0.824
75969W        W48394   6.897  34.047   3.843
75970W        W48395   9.296   3.845   1.873
75971W        W48396  22.073  20.696   3.357
75972W        W48397  29.437   3.946   0.743
75973W        W48398  31.473  31.566  13.541
75974W        W48399  42.889   4.753   4.668
75975W        W48400  11.818   9.720   1.212
75976W        W48401  11.162  26.599  12.397
75977W        W48402  15.127  36.368   3.823
75978W        W48403  43.498  31.973   0.809
75979W        W48404  37.083  33.398   4.732
75980W        W48405  23.008  30.631   3.770
75981W        W48406  12.362   8.242   0.338
75982W        W48407  29.959  19.189  14.955
75983W        W48408  32.897  15.291   0.875
75984W        W48409   5.876   5.822  12.400
75985W        W48410   9.280  21.086  11.859
75986W        W48411  34.379   9.648   4.351
75987W        W48412  15.619  36.090  12.424
75988W        W48413   8.192  25.525  11.441
75989W        W48414  40.348   0.256  10.551
75990W        W48415  12.211  34.522  14.380
75991W        W48416  22.627  12.827   4.688
75992W        W48417  22.210   4.428  10.630
75993W        W48418   3.342   9.388  14.403
75994W        W48419  16.678  25.167  10.535
75995W        W48420  34.385   7.872   3.345
75996W        W48421  20.204  32.550  13.307
75997W        W48422  25.041   5.837  13.820
75998W        W48423   3.930  32.589  11.488
75999W        W48424  18.262  39.931  14.478
76000W        W48425   1.769  20.242  14.909
76001W        W48426   2.275  23.719  10.941
76002W        W48427  24.111  19.096  11.962
76003W        W48428  20.769  32.016  14.513
76004W        W48429  17.173  32.513   0.744
76005W        W48430   6.863  15.646   0.417
76006W        W48431  23.569   1.836  10.963
76007W        W48432  31.449   4.298   1.443
76008W        W48433  35.942   5.759   3.183
76009W        W48434   8.891   0.926   0.328
76010W        W48435  26.547  14.678  10.493
76011W        W48436  17.608   7.843  10.955
76012W        W48437  18.597   9.770  10.454
76013W        W48438  44.361  38.413  11.119
76014W        W48439  29.039  30.155   2.832
76015W        W48440  13.759  27.170  10.484
76016W        W48441   5.716   1.378   1.813
76017W        W48442   5.252   4.750  13.463
76018W        W48443  43.822  32.485  12.414
76019W        W48444  35.960  19.588  11.398
76020W        W48445  37.409  28.633   4.272
76021W        W48446   9.875  30.444   3.345
76022W        W48447   0.936  40.890  13.446
76023W        W48448   6.886  35.870   3.359
76024W        W48449   9.783  17.698   0.797
76025W        W48450  10.820  44.835   1.859
76026W        W48451  17.639  17.297   2.808
76027W        W48452  36.940  35.475  12.025
76028W        W48453  40.020  29.641  10.490
76029W        W48454  26.134   6.423   1.780
76030W        W48455  34.393  10.216   2.729
76031W        W48456   9.713  13.129  10.952
76032W        W48457  23.173  36.364  13.531
76033W        W48458  18.052  25.007   2.804
76034W        W48459  12.313  29.496  11.549
76035W        W48460  22.704  17.605   0.274
76036W        W48461  10.855  12.197   2.254
76037W        W48462  27.584   7.230   1.744
76038W        W48463  13.327   8.658   1.871
76039W        W48464  31.502   3.814   3.356
76040W        W48465  18.740  19.599   4.761
76041W        W48466   8.265  37.936  10.000
76042W        W48467  14.784  35.443   3.357
76043W        W48468  33.498  15.760   3.161
76044W        W48469   6.278  11.647   1.447
76045W        W48470  36.850  25.184  12.458
76046W        W48471  16.257  38.037  11.000
76047W        W48472  30.962  39.492  12.403
76048W        W48473   2.879  23.108   2.836
76049W        W48474  18.148  34.561  14.402
76050W        W48475  33.921  22.580  12.580
76051W        W48476   5.759  22.567   4.184
76052W        W48477   1.479  28.066  11.951
76053W        W48478  32.927  15.165  13.808
76054W        W48479  41.789  38.042   1.228
76055W        W48480  12.161  41.812  12.983
76056W        W48481  18.612  20.544   4.322
76057W        W48482  36.407  14.305   0.352
76058W        W48483  41.328   6.766   1.709
76059W        W48484   7.677   5.384   2.862
76060W        W48485  19.203  18.096  14.864
76061W        W48486  10.858  43.854   1.256
76062W        W48487   7.732  15.086  11.998
76063W        W48488  25.030  27.475  13.497
76064W        W48489  17.285  24.124  11.126
76065W        W48490  39.949   9.361  11.584
76066W        W48491  32.127  23.666  10.552
76067W        W48492  21.619   2.461   0.375
76068W        W48493   3.258   2.241   3.774
76069W        W48494  12.342  41.459  11.427
76070W        W48495  38.325  12.194   1.423
76071W        W48496  37.071  23.700   5.121
76072W        W48497  20.620   4.793   1.293
76073W        W48498   2.461  24.016  13.819
76074W        W48499   3.300  26.068  14.994
76075W        W48500  20.590   5.227   0.880
76076W        W48501  22.577   5.825  13.447
76077W        W48502  37.463  11.699   1.776
76078W        W48503   8.265  23.717   4.194
76079W        W48504  44.796   3.315   1.751
76080W        W48505  38.360  26.022   4.652
76081W        W48506  22.126  18.148  13.005
76082W        W48507  17.076  40.530  11.983
76083W        W48508   9.344  31.443  14.991
76084W        W48509  39.864  30.989   4.756
76085W        W48510  27.971  42.790   0.355
76086W        W48511  39.459  11.752  13.024
76087W        W48512  19.585  20.228  10.630
76088W        W48513  31.015   0.354   0.752
76089W        W48514  31.599  15.620  12.036
76090W        W48515  27.047   5.758   0.455
76091W        W48516  30.655  17.270   4.125
76092W        W48517  18.576  16.577   2.693
76093W        W48518   6.839  17.748  11.573
76094W        W48519  14.593   5.808   0.284
76095W        W48520   8.806  25.183   4.804
76096W        W48521  11.282  15.643  11.572
76097W        W48522  26.465  38.506   0.393
76098W        W48523  43.380  13.738  11.986
76099W        W48524  28.652  26.956  11.925
76100W        W48525  17.665  34.562  13.541
76101W        W48526   3.761  22.564   3.234
76102W        W48527  26.961  40.992  13.940
76103W        W48528  10.776  41.973   0.834
76104W        W48529  36.414  37.578   0.963
76105W        W48530   6.912   9.771   1.720
76106W        W48531  36.409  10.323  13.333
76107W        W48532   5.242  41.500  12.031
76108W        W48533   0.340  30.650  11.438
76109W        W48534  11.253  17.270   0.942
76110W        W48535  35.417   0.322  10.944
76111W        W48536   1.742  38.075   0.329
76112W        W48537  36.530  17.194   2.342
76113W        W48538  19.610  28.172   2.829
76114W        W48539  10.213  16.811  12.093
76115W        W48540   7.781  41.309  13.501
76116W        W48541  12.788  28.484  11.114
76117W        W48542  37.336  14.746   2.900
76118W        W48543  14.326  26.075   4.713
76119W        W48544   1.849   8.259  11.913
76120W        W48545   6.774   8.306   3.718
76121W        W48546  42.950   1.247  14.805
76122W        W48547  24.016  22.746   3.288
76123W        W48548  27.094   9.724   4.141
76124W        W48549  18.182  26.532  12.886
76125W        W48550  12.819  32.629   4.784
76126W        W48551  15.140   4.837   4.180
76127W        W48552  43.466  38.003  10.589
76128W        W48553  40.965  20.227   3.352
76129W        W48554  16.220  37.384   0.831
76130W        W48555  15.175  31.507   0.884
76131W        W48556  26.075  38.033  11.071
76132W        W48557   3.273  10.266   5.095
76133W        W48558  13.252  36.425   1.419
76134W        W48559  44.911   6.849   1.247
76135W        W48560  14.766  19.241  11.057
76136W        W48561  44.345  29.474  13.858
76137W        W48562  18.590  23.669   0.338
76138W        W48563   8.837   8.823   4.600
76139W        W48564  38.445  10.244   0.431
76140W        W48565  27.941   7.893   3.309
76141W        W48566  29.665  44.992  13.402
76142W        W48567  26.626  35.868  11.555
76143W        W48568   3.431  12.214  11.887
76144W        W48569   2.277  38.935  10.013
76145W        W48570  19.714   9.269   3.656
76146W        W48571   9.765  24.576   4.765
76147W        W48572  39.381  29.087   1.901
76148W        W48573   0.482  28.525  12.393
76149W        W48574  39.874  23.658  14.383
76150W        W48575  40.386  35.410   0.731
76151W        W48576  38.445  38.042   0.861
76152W        W48577  36.443  40.805  14.475
76153W        W48578  28.990  21.552   2.313
76154W        W48579  34.542  31.989   1.901
76155W        W48580  20.135  11.193   1.243
76156W        W48581  12.744  37.416  14.349
76157W        W48582  38.895   5.385   1.742
76158W        W48583   7.867  31.126  12.852
76159W        W48584  36.564  33.895  10.521
76160W        W48585  18.265  29.660   2.857
76161W        W48586  32.913  38.846  10.498
76162W        W48587   9.295  22.663  14.946
76163W        W48588  25.174  43.777  14.415
76164W        W48589   2.808  23.507  10.552
76165W        W48590  42.957  13.647   3.159
76166W        W48591  39.496  25.034  12.908
76167W        W48592   0.268  32.939  14.765
76168W        W48593  26.970  43.490  10.904
76169W        W48594  43.449  39.361  11.418
76170W        W48595  32.940  34.002  13.345
76171W        W48596  35.442  23.578   1.912
76172W        W48597  10.652  31.012  12.881
76173W        W48598  22.999  36.386  11.564
76174W        W48599  12.321  21.112   0.912
76175W        W48600  23.671  12.726   4.128
76176W        W48601  30.439   9.773   0.810
76177W        W48602  30.932   8.315  13.314
76178W        W48603   8.710  18.252   3.723
76179W        W48604  34.570  38.897   2.717
76180W        W48605  20.147   2.402  11.508
76181W        W48606  20.097  32.903  12.462
76182W        W48607  41.346  23.496   2.353
76183W        W48608  35.490  16.766   2.195
76184W        W48609  36.415   9.170  14.899
76185W        W48610   8.730  31.089   4.682
76186W        W48611  31.563  14.161  14.018
76187W        W48612   9.270  19.070   3.653
76188W        W48613   4.206  25.147  10.543
76189W        W48614  33.464   3.746   0.392
76190W        W48615   9.738  27.452   3.286
76191W        W48616   1.294  38.361   3.636
76192W        W48617   3.796  22.569   1.795
76193W        W48618   3.756  19.568   2.352
76194W        W48619  10.716  10.371   0.255
76195W        W48620  13.737  15.145  10.960
76196W        W48621  20.589  37.570  12.871
76197W        W48622   2.411  43.378  11.029
76198W        W48623  30.593  43.996   4.814
76199W        W48624   2.250   0.915   1.360
76200W        W48625  11.223  35.055   4.599
76201W        W48626  26.638  18.189  10.155
76202W        W48627   2.249  14.132   3.845
76203W        W48628  33.390   2.388  11.504
76204W        W48629  26.607  16.779  10.561
76205W        W48630  44.418  42.293  10.896
76206W        W48631  34.581  28.122  14.501
76207W        W48632   6.334  14.117   1.238
76208W        W48633  33.513  33.878   1.918
76209W        W48634  30.113  43.347  11.479
76210W        W48635  33.571  19.731  12.354
76211W        W48636  23.509  33.984  10.895
76212W        W48637  36.844   3.859   0.418
76213W        W48638   3.895  34.385   1.712
76214W        W48639   7.391  35.997  11.545
76215W        W48640  30.002  24.014   1.737
76216W        W48641   4.444  44.308   1.770
76217W        W48642  40.809  37.537  14.418
76218W        W48643   4.940  35.938   0.451
76219W        W48644  29.664  23.684  13.541
76220W        W48645  32.438  26.153   4.662
76221W        W48646  31.073   6.778  13.542
76222W        W48647  42.858  30.579  12.919
76223W        W48648  25.614  15.244  12.535
76224W        W48649   9.292  43.324  11.493
76225W        W48650  26.482   8.239   1.242
76226W        W48651  32.632  10.196   3.673
76227W        W48652  39.885  32.134  11.601
76228W        W48653   1.275   6.920   2.798
76229W        W48654   0.348  33.407   2.777
76230W        W48655  38.968  13.831   4.145
76231W        W48656  33.995  32.922  14.838
76232W        W48657  33.593   8.313  13.930
76233W        W48658   9.245   7.859   2.679
76234W        W48659  30.440  13.762  14.873
76235W        W48660  44.439  18.713  11.028
76236W        W48661  26.974  18.154  13.833
76237W        W48662  22.566  19.555  14.923
76238W        W48663  24.187  12.313   0.420
76239W        W48664  19.272   7.412  12.444
76240W        W48665  16.810   0.750  14.292
76241W        W48666  38.895  21.175   4.685
76242W        W48667  41.951   5.716   4.268
76243W        W48668  44.918  41.360   4.183
76244W        W48669  29.612   2.858   1.814
76245W        W48670  21.160  34.397   0.772
76246W        W48671  36.969  36.590   3.815
76247W        W48672  15.283   3.301   3.264
76248W        W48673  33.409  44.435   2.866
76249W        W48674  11.181  29.935  10.556
76250W        W48675  42.347  21.137   0.778
76251W        W48676   3.244  19.596  11.570
76252W        W48677  32.904  40.858  13.899
76253W        W48678  34.380  14.680  14.302
76254W        W48679   8.189  20.669   0.309
76255W        W48680  38.950  20.618  11.535
76256W        W48681  39.848  13.317   1.809
76257W        W48682  24.098   4.369  11.934
76258W        W48683   4.816  17.246   3.276
76259W        W48684  16.083   0.473  10.973
76260W        W48685  13.838   3.390   4.690
76261W        W48686   6.422  35.525  12.876
76262W        W48687  19.080  29.445  11.587
76263W        W48688   1.350  33.883   4.725
76264W        W48689  26.107   9.737  13.811
76265W        W48690  34.997  28.976   3.631
76266W        W48691  43.833  41.409  11.536
76267W        W48692  41.854  22.049   2.378
76268W        W48693  37.906  12.817  14.798
76269W        W48694  12.843  44.270  10.534
76270W        W48695  43.888  38.075  12.880
76271W        W48696   2.906  22.737   3.747
76272W        W48697  28.460   9.280   1.249
76273W        W48698  39.472  10.640  14.383
76274W        W48699   8.367   9.348   0.367
76275W        W48700  34.554   2.323  11.599
76276W        W48701  18.180  13.255  14.787
76277W        W48702  29.500  24.557   1.367
76278W        W48703  14.622  43.817   0.438
76279W        W48704  20.202   0.484  14.966
76280W        W48705  10.737  29.520   2.221
76281W        W48706  23.163   1.739  10.427
76282W        W48707  11.706  25.559  10.902
76283W        W48708  11.709  42.318  13.338
76284W        W48709  21.544  35.365   2.701
76285W        W48710  31.626  43.934   4.638
76286W        W48711  25.056  30.098   2.339
76287W        W48712  40.939  39.537   0.270
76288W        W48713  17.185  31.899   9.590
76289W        W48714  13.346  33.522   5.118
76290W        W48715  37.977  27.455   0.326
76291W        W48716  31.003  33.994  10.628
76292W        W48717  44.498  29.603   4.316
76293W        W48718  18.590  22.132   4.182
76294W        W48719  10.375  27.599  10.133
76295W        W48720   6.845  28.162  12.479
76296W        W48721  17.174  38.369   0.484
76297W        W48722  36.067   3.338  14.432
76298W        W48723  43.278  40.497   1.312
76299W        W48724  16.308  20.062   0.822
76300W        W48725  19.554  28.562  12.021
76301W        W48726  25.971   6.687   0.866
76302W        W48727  17.205  29.589   1.317
76303W        W48728  40.044  39.375   4.803
76304W        W48729  43.867  43.961  13.984
76305W        W48730  36.001  34.494   4.241
76306W        W48731  35.943  17.699  14.369
76307W        W48732  12.697  41.513   4.217
76308W        W48733  42.373  34.380  13.321
76309W        W48734  26.537  19.195   4.265
76310W        W48735  23.138  40.916  10.540
76311W        W48736  24.532  12.741   0.380
76312W        W48737   7.364  15.305   0.831
76313W        W48738  21.243   2.232   4.770
76314W        W48739  32.923  25.124  13.009
76315W        W48740  13.790  16.753   1.790
76316W        W48741  22.147  12.215   2.386
76317W        W48742  41.840   7.368  12.501
76318W        W48743  30.420  10.752  14.278
76319W        W48744  13.308   4.935   5.103
76320W        W48745  20.070  16.106   3.856
76321W        W48746  30.468  24.070   0.468
76322W        W48747   0.971  34.596  10.903
76323W        W48748  24.512  36.005   4.733
76324W        W48749  23.712  37.493  13.368
76325W        W48750  40.371  37.046  11.548
76326W        W48751   2.804  22.997   4.797
76327W        W48752  42.833  44.754  13.538
76328W        W48753  23.504  36.466  14.785
76329W        W48754  31.634   2.459   3.666
76330W        W48755  12.813  43.478   1.396
76331W        W48756  34.075  16.228  11.436
76332W        W48757  10.735  31.045   2.706
76333W        W48758   7.731  12.819   3.165
76334W        W48759  22.170  26.668  12.508
76335W        W48760   7.369  34.475  11.401
76336W        W48761  23.628   0.438  11.597
76337W        W48762  32.897  39.525   3.768
76338W        W48763  22.681  29.670   0.276
76339W        W48764  43.475  43.507  14.381
76340W        W48765  39.373  23.660  10.621
76341W        W48766  26.530  30.511   3.159
76342W        W48767  17.594   5.302  13.952
76343W        W48768  21.537  34.429   0.415
76344W        W48769   1.289  40.417   1.911
76345W        W48770  31.054  26.524   1.282
76346W        W48771  33.504  35.428   3.250
76347W        W48772   4.890  30.636   4.250
76348W        W48773  16.238  23.010  11.602
76349W        W48774  40.988  16.705   0.426
76350W        W48775   1.247  33.464  13.883
76351W        W48776  12.625  10.864   2.274
76352W        W48777  37.372  15.717   1.935
76353W        W48778   6.245  14.243   4.732
76354W        W48779   8.751   8.773   9.439
76355W        W48780  22.028  30.531   2.271
76356W        W48781  44.966  10.367  14.318
76357W        W48782  13.836  24.089   1.861
76358W        W48783  37.484  18.210   2.275
76359W        W48784   6.777  14.831   1.867
76360W        W48785   6.193   1.828   1.306
76361W        W48786  23.200   3.238   2.399
76362W        W48787  41.402  16.120   0.312
76363W        W48788  40.961  11.137   1.852
76364W        W48789  12.697   8.236  14.494
76365W        W48790  26.557   8.694   0.840
76366W        W48791  44.488   6.350  12.580
76367W        W48792   8.349   5.839   1.352
76368W        W48793  24.054   8.732  13.321
76369W        W48794  12.747  19.168   2.837
76370W        W48795  42.816   4.444  10.074
76371W        W48796  31.539  10.308  10.978
76372W        W48797   3.359  37.838   2.299
76373W        W48798  44.845  10.862  10.445
76374W        W48799  15.292  21.561  13.806
76375W        W48800   0.927  29.979   1.902
76376W        W48801  17.627  11.159   4.819
76377W        W48802   3.814  42.462   2.202
76378W        W48803  39.957   4.274   0.749
76379W        W48804  19.154  16.648  11.436
76380W        W48805  23.650  39.899  10.551
76381W        W48806  44.990  44.386   2.351
76382W        W48807  12.791  31.570  14.507
76383W        W48808  10.247  37.417   0.873
76384W        W48809  17.190  23.102  13.059
76385W        W48810  10.302  27.635   3.689
76386W        W48811  17.615  10.791   1.741
76387W        W48812  19.172  28.036   1.933
76388W        W48813  10.845   8.669  12.897
76389W        W48814  34.466   6.379   2.777
76390W        W48815  22.617  35.411  12.985
76391W        W48816  30.132  11.342  13.333
76392W        W48817  32.105   4.408   0.875
76393W        W48818  26.102  12.135  11.399
76394W        W48819  21.102  42.775   9.982
76395W        W48820   2.460  32.065   0.256
76396W        W48821  42.312  36.414   4.197
76397W        W48822   6.916   3.818  14.891
76398W        W48823  10.168  15.601  14.447
76399W        W48824  29.995  36.858   3.355
76400W        W48825  32.503  22.166  11.415
76401W        W48826  31.949  37.075  13.912
76402W        W48827  28.177   2.840   1.318
76403W        W48828  19.225  19.093   3.261
76404W        W48829  11.849  21.646   1.411
76405W        W48830  40.979  15.116  13.347
76406W        W48831  29.613  17.265  11.073
76407W        W48832  20.262  16.803   0.264
76408W        W48833   5.740  27.167  13.876
76409W        W48834  17.688  25.470   4.785
76410W        W48835   2.463  13.350   1.739
76411W        W48836  37.868  11.246  11.584
76412W        W48837  38.333   7.232   0.389
76413W        W48838  29.585   0.806  12.069
76414W        W48839  13.836  15.111   4.337
76415W        W48840  26.077  16.579  14.983
76416W        W48841  34.519   1.969  13.351
76417W        W48842  42.866  28.596  10.970
76418W        W48843   1.809  28.123   4.796
76419W        W48844  26.494  33.077   1.235
76420W        W48845   4.904  12.735   0.296
76421W        W48846  30.077   7.858   0.320
76422W        W48847  37.580   1.856   4.612
76423W        W48848  13.351  41.413  10.894
76424W        W48849  14.097  10.312   1.910
76425W        W48850   4.919  24.154  11.421
76426W        W48851  12.289  43.921   4.197
76427W        W48852  21.071  14.334  10.434
76428W        W48853  17.673  17.298   0.934
76429W        W48854  38.551  33.099   3.847
76430W        W48855  11.675  43.420  14.770
76431W        W48856  44.365   1.843  11.465
76432W        W48857  22.741   4.265  12.059
76433W        W48858  40.893  37.348  14.780
76434W        W48859  19.707  30.517   9.982
76435W        W48860  19.250  26.511  12.504
76436W        W48861  22.073  34.389  10.466
76437W        W48862  42.441  39.815   2.756
76438W        W48863  11.178   2.245   1.288
76439W        W48864   6.315  35.025   1.325
76440W        W48865  29.581  31.064  10.982
76441W        W48866  38.836   6.704   4.163
76442W        W48867  22.196  29.140   4.144
76443W        W48868  23.491   9.172  12.540
76444W        W48869  43.928  21.156  12.481
76445W        W48870  34.905  40.329   9.977
76446W        W48871   0.789  30.628   3.185
76447W        W48872  12.238  24.177   5.264
76448W        W48873  39.849  18.141  10.463
76449W        W48874  42.781   6.206   2.226
76450W        W48875  17.657  42.939  11.470
76451W        W48876  34.461  35.082   3.638
76452W        W48877  26.508  12.329  10.481
76453W        W48878  44.451  39.530   3.783
76454W        W48879  31.419  31.600   0.466
76455W        W48880  16.605   4.752  11.984
76456W        W48881   1.975  30.929   3.761
76457W        W48882  39.456   5.806   4.166
76458W        W48883  16.159  22.620   0.249
76459W        W48884  39.367  41.971  13.478
76460W        W48885  18.774  38.432   0.775
76461W        W48886  44.327  19.581   0.797
76462W        W48887  10.170   9.836   0.403
76463W        W48888  11.803  20.053   2.681
76464W        W48889  18.070  30.431   3.257
76465W        W48890  40.386  20.608   1.256
76466W        W48891  26.018  12.644   0.938
76467W        W48892   3.254  14.190  13.422
76468W        W48893   6.715  28.456  12.567
76469W        W48894  41.837  10.178   3.271
76470W        W48895  41.521  44.468  12.580
76471W        W48896   5.418   6.406  11.591
76472W        W48897  15.714  18.293   4.659
76473W        W48898   5.788  44.831   2.865
76474W        W48899   0.402  36.369  14.822
76475W        W48900  14.692  38.352  14.341
76476W        W48901   8.262  11.639  10.469
76477W        W48902  29.135   0.756   3.856
76478W        W48903  38.466  27.947   2.896
76479W        W48904  18.558  32.556   4.176
76480W        W48905  24.630  15.619   4.251
76481W        W48906  41.915   4.754  12.045
76482W        W48907  13.155  42.343   4.144
76483W        W48908  12.278   8.886  10.557
76484W        W48909   5.697  29.013  12.419
76485W        W48910  13.662  44.294  11.592
76486W        W48911   8.688  19.595  13.531
76487W        W48912  13.313  33.423   0.824
76488W        W48913  26.175  11.711   1.431
76489W        W48914  19.118  25.659   2.243
76490W        W48915  43.982  33.525   0.368
76491W        W48916   3.898   6.830  13.007
76492W        W48917  17.791   2.789  12.982
76493W        W48918   0.850   7.330  14.349
76494W        W48919  27.648   5.775   1.361
76495W        W48920  38.029  40.014  13.429
76496W        W48921  23.516  24.055   4.834
76497W        W48922   9.187   5.265   9.957
76498W        W48923  14.693  25.045  12.496
76499W        W48924  30.507  36.007   3.810
76500W        W48925  36.009  16.653  13.331
76501W        W48926  43.364  25.538  14.938
76502W        W48927  36.996   4.237   2.740
76503W        W48928  15.815  44.299  10.633
76504W        W48929  10.707  16.659   4.740
76505W        W48930  23.150  34.966   3.869
76506W        W48931  36.412  29.087   1.407
76507W        W48932   2.388  23.676   0.823
76508W        W48933  12.282   9.292   1.847
76509W        W48934   0.260  25.648  14.349
76510W        W48935  10.659  34.415  14.475
76511W        W48936  17.727  24.177   3.779
76512W        W48937  27.974  30.141   4.354
76513W        W48938  43.327  21.145   3.196
76514W        W48939  30.533   6.380   1.303
76515W        W48940   6.364  11.845  11.918
76516W        W48941   3.806  29.506  12.916
76517W        W48942   8.746  25.615   0.341
76518W        W48943  42.976   3.359   0.458
76519W        W48944   5.330  40.407  12.497
76520W        W48945  36.579  37.001  14.780
76521W        W48946  21.143   2.400  11.050
76522W        W48947  33.459  14.638  11.386
76523W        W48948  43.335  10.258  11.957
76524W        W48949  11.833  30.031  13.387
76525W        W48950  27.976  12.829   1.218
76526W        W48951  16.160   6.906  11.597
76527W        W48952  11.840  43.314  13.522
76528W        W48953  21.641   5.697   3.698
76529W        W48954  27.089  31.022   1.223
76530W        W48955  38.482  29.080   3.755
76531W        W48956  14.698  22.659  10.453
76532W        W48957  30.122  24.697  10.622
76533W        W48958   7.334   4.776   0.452
76534W        W48959  10.380   7.202  14.998
76535W        W48960  24.600   0.404   2.719
76536W        W48961  24.191  15.783  13.320
76537W        W48962   9.823  18.279  10.948
76538W        W48963  44.287  32.532  12.031
76539W        W48964  22.580  38.467   0.757
76540W        W48965  42.901   6.869  14.312
76541W        W48966  18.709   7.375  14.289
76542W        W48967  18.158   0.306   2.683
76543W        W48968  20.031  32.495  10.997
76544W        W48969  37.933  40.356   4.745
76545W        W48970  13.331  27.191   2.250
76546W        W48971  41.000  16.084  12.530
76547W        W48972  24.057  35.985  13.993
76548W        W48973  40.342   9.330  11.064
76549W        W48974  29.484   7.689   1.736
76550W        W48975   3.257  30.037   1.899
76551W        W48976  10.746   6.427  10.125
76552W        W48977  33.092  18.617  11.083
76553W        W48978  15.751   4.408  10.561
76554W        W48979   6.880   6.847   3.697
76555W        W48980  12.358  27.974   3.807
76556W        W48981  23.191  44.378  13.890
76557W        W48982  37.466  30.454   1.370
76558W        W48983  32.978  33.439  12.980
76559W        W48984  38.880  28.062   1.434
76560W        W48985   0.976  18.731  13.430
76561W        W48986  29.072  31.636   0.429
76562W        W48987   6.909  20.683   3.153
76563W        W48988   0.322  10.374   3.668
76564W        W48989  43.949   6.773   2.779
76565W        W48990  23.098  40.375  11.585
76566W        W48991  20.745  12.612  13.528
76567W        W48992  12.709  31.594  13.045
76568W        W48993  37.895  34.978  12.552
76569W        W48994  28.971  27.120   1.269
76570W        W48995  13.349  40.443   0.456
76571W        W48996  11.814  33.036  13.031
76572W        W48997  41.876   9.300   0.765
76573W        W48998  11.716  26.646   0.265
76574W        W48999  17.768  17.610   0.331
76575W        W49000  36.373  25.662   4.265
76576W        W49001  37.894  44.312  12.033
76577W        W49002   2.285  41.481  13.520
76578W        W49003  10.239  11.257  12.516
76579W        W49004  29.156   8.838  13.833
76580W        W49005  38.564  20.689  11.580
76581W        W49006  28.470  23.002  10.890
76582W        W49007  17.269  16.631   4.311
76583W        W49008  10.868   6.750   3.164
76584W        W49009   8.394  32.522  11.011
76585W        W49010  13.631  41.926   1.900
76586W        W49011  32.911  29.129  12.428
76587W        W49012  42.880   6.862  12.942
76588W        W49013   2.796  32.076  12.978
76589W        W49014   6.273  14.721  11.112
76590W        W49015  32.456  16.251  11.105
76591W        W49016  26.134  23.548  13.025
76592W        W49017  21.545  22.724  13.454
76593W        W49018  43.300  37.379  13.926
76594W        W49019   5.812  33.034   1.223
76595W        W49020  35.024  22.669   3.670
76596W        W49021  16.579  25.207   0.729
76597W        W49022   0.967   8.383   0.918
76598W        W49023  29.940  37.962   1.425
76599W        W49024  27.965  43.392   1.703
76600W        W49025  43.931  18.732  11.546
76601W        W49026  21.197  11.150   2.400
76602W        W49027   0.274  34.026   1.228
76603W        W49028  30.452  33.462  13.399
76604W        W49029  15.658   7.796   2.820
76605W        W49030   9.294  41.380  14.278
76606W        W49031  10.241  42.480   2.695
76607W        W49032   8.351  37.869   9.450
76608W        W49033  44.809  43.914  13.471
76609W        W49034  16.669  18.136  12.564
76610W        W49035  42.020  43.419   1.791
76611W        W49036  30.555  13.676   4.766
76612W        W49037   5.894  17.100   4.114
76613W        W49038  43.463  37.031   2.825
76614W        W49039   5.207  41.793   4.340
76615W        W49040  15.668  36.549   1.418
76616W        W49041  24.080  29.026  14.854
76617W        W49042   9.700  16.723  13.882
76618W        W49043  31.087  17.129   0.830
76619W        W49044  13.806   8.203   4.142
76620W        W49045  37.068  19.135   0.382
76621W        W49046  30.046  43.284   1.275
76622W        W49047  31.960  30.466   2.376
76623W        W49048  28.037  37.564  14.325
76624W        W49049  14.324  13.751   4.129
76625W        W49050  18.177  41.027   3.230
76626W        W49051  38.463  44.369  14.784
76627W        W49052  11.304  12.173   1.334
76628W        W49053   9.677   5.754   1.870
76629W        W49054  38.013  18.125   2.824
76630W        W49055  35.415   3.412  14.286
76631W        W49056  40.379  33.033   3.344
76632W        W49057  35.939  23.111   2.254
76633W        W49058  37.530  30.070   4.305
76634W        W49059   6.899  26.617   2.403
76635W        W49060  11.655  31.972   1.793
76636W        W49061  38.888  14.821   0.477
76637W        W49062   3.404  40.912   3.158
76638W        W49063  28.545   1.759   3.286
76639W        W49064  44.344  15.764   5.269
76640W        W49065  28.075  34.426  10.986
76641W        W49066  31.445  27.155  11.950
76642W        W49067   2.851  23.206   2.259
76643W        W49068  38.423  15.646  14.856
76644W        W49069  14.198  37.486   4.239
76645W        W49070  29.147   1.439  12.875
76646W        W49071  42.988  24.595  11.986
76647W        W49072  21.550   7.799   2.764
76648W        W49073  16.709  12.297   4.324
76649W        W49074   7.746  13.329  14.509
76650W        W49075  24.563  19.649  13.058
76651W        W49076  21.516   3.364   2.317
76652W        W49077   8.194  14.139   0.908
76653W        W49078  26.585   8.805   3.821
76654W        W49079  28.646  28.680  12.378
76655W        W49080  21.234  23.220   0.343
76656W        W49081  19.546   4.290  11.501
76657W        W49082  42.282  12.796   2.365
76658W        W49083  25.168  39.514  14.913
76659W        W49084  35.464  27.181  13.319
76660W        W49085  33.920   1.377  12.495
76661W        W49086  36.469  43.512   2.352
76662W        W49087   5.355   9.252  14.513
76663W        W49088   7.801  12.610  12.565
76664W        W49089  18.208  18.696  10.899
76665W        W49090   1.265  14.145  14.451
76666W        W49091  12.803  41.003  11.078
76667W        W49092   6.296  14.207   9.932
76668W        W49093  20.525  36.084  11.898
76669W        W49094  44.429  17.632  11.975
76670W        W49095  22.606  29.429   1.739
76671W        W49096  29.967   1.337  12.939
76672W        W49097   6.378  22.154  13.440
76673W        W49098   4.895  16.099  14.850
76674W        W49099   3.803  44.264   9.972
76675W        W49100  22.704  11.711   0.893
76676W        W49101  40.349  39.020  12.435
76677W        W49102  36.411  40.044   0.773
76678W        W49103   5.762   9.293   0.765
76679W        W49104  28.942  23.703  14.422
76680W        W49105  24.075  33.040   4.664
76681W        W49106  28.099  17.203   1.817
76682W        W49107   0.974  15.152  11.054
76683W        W49108  15.327  29.518  14.870
76684W        W49109  25.063  17.589   4.757
76685W        W49110   2.797  41.461   0.458
76686W        W49111  34.931  44.774   4.659
76687W        W49112  25.158  13.655   1.374
76688W        W49113  20.032  41.022   2.239
76689W        W49114   2.889   9.674   3.325
76690W        W49115   6.326  10.343   0.858
76691W        W49116  29.084  44.829   3.332
76692W        W49117  19.709  34.971  12.895
76693W        W49118  43.924   3.300   2.248
76694W        W49119  22.227  22.708   0.953
76695W        W49120  25.601  41.386   0.429
76696W        W49121  26.624  10.824   3.772
76697W        W49122  33.103  26.684   4.254
76698W        W49123   4.326   5.753   4.813
76699W        W49124  23.735  43.933  14.836
76700W        W49125  13.240   7.192   0.934
76701W        W49126   6.269  40.309   1.788
76702W        W49127  39.511  20.210  13.409
76703W        W49128  11.352  31.526  12.549
76704W        W49129  15.759  17.254  10.892
76705W        W49130  16.799  13.343  12.880
76706W        W49131  16.587  24.515   4.642
76707W        W49132  40.938   4.761   1.798
76708W        W49133  40.971   0.813  10.519
76709W        W49134  42.359  34.371   4.163
76710W        W49135  37.552  10.309  13.799
76711W        W49136  31.405  36.872   1.320
76712W        W49137   7.703  39.542   3.792
76713W        W49138  34.926  32.491  14.472
76714W        W49139   7.785  27.191   0.916
76715W        W49140  28.596  22.722  14.287
76716W        W49141   5.689  25.468   3.631
76717W        W49142  29.173  41.889   0.408
76718W        W49143   6.902  43.966   0.269
76719W        W49144  38.538   3.303  11.098
76720W        W49145  26.625   8.384  12.058
76721W        W49146  29.935   3.917  14.512
76722W        W49147  42.003  17.760   4.325
76723W        W49148  42.814  33.106  14.423
76724W        W49149  43.786  31.107  12.565
76725W        W49150  36.937   8.220   3.702
76726W        W49151  37.454  27.534   4.352
76727W        W49152  23.024  26.688  14.002
76728W        W49153   6.265   3.274   5.109
76729W        W49154  36.448  38.056   1.879
76730W        W49155  13.816   4.839   3.290
76731W        W49156  16.185  33.480   1.738
76732W        W49157   8.745  18.148  12.463
76733W        W49158  28.068   1.832  14.418
76734W        W49159  34.106   5.327   0.287
76735W        W49160  36.479   5.214  13.994
76736W        W49161   2.891  14.305   1.874
76737W        W49162  37.564  28.536   3.684
76738W        W49163  19.176  31.138  12.492
76739W        W49164   8.662  10.278  10.984
76740W        W49165  22.518  26.012   4.727
76741W        W49166  28.971   7.409   2.242
76742W        W49167  24.679  31.028  13.920
76743W        W49168  43.302  18.565  13.324
76744W        W49169  25.067  34.459  10.049
76745W        W49170  28.068  35.565   0.867
76746W        W49171  43.021   5.206  14.795
76747W        W49172  16.805  10.639   2.356
76748W        W49173   0.374   6.408  10.502
76749W        W49174  12.756  23.724   4.268
76750W        W49175  29.027  17.694   1.323
76751W        W49176   9.781   9.379  13.536
76752W        W49177   9.750  17.230  12.356
76753W        W49178   2.308  19.728  10.537
76754W        W49179  27.163   1.771   5.210
76755W        W49180   1.352  14.216   1.298
76756W        W49181  23.586   4.902   3.178
76757W        W49182  24.214  25.105   1.355
76758W        W49183  15.618  11.254   3.835
76759W        W49184  23.041  13.256  11.990
76760W        W49185  13.789  29.035   0.406
76761W        W49186  28.030  27.963  14.880
76762W        W49187  23.051  19.135  10.595
76763W        W49188  38.871  15.312   1.782
76764W        W49189   7.327   8.828   2.264
76765W        W49190   7.735  21.671   3.712
76766W        W49191  29.506  38.898  12.885
76767W        W49192  24.017   9.326   2.698
76768W        W49193  11.278  26.510  13.314
76769W        W49194  10.803  19.773   0.251
76770W        W49195  39.041   2.769   2.852
76771W        W49196   1.935  43.422   1.912
76772W        W49197  17.132  29.587   1.694
76773W        W49198  35.513   1.354   2.263
76774W        W49199  21.040   1.330  12.540
76775W        W49200  24.184  12.814  14.973
76776W        W49201   6.833  15.115  13.031
76777W        W49202  35.447   4.215   1.217
76778W        W49203  25.550  29.461  12.931
76779W        W49204   7.885  18.613   1.881
76780W        W49205  12.181  39.471   2.201
76781W        W49206   6.315  11.781  13.822
76782W        W49207  28.566  16.241  11.465
76783W        W49208  39.905  44.381   0.866
76784W        W49209  44.319  32.951  11.422
76785W        W49210  16.652   5.695   4.139
76786W        W49211  32.917   8.765  11.398
76787W        W49212   3.405   8.682  12.519
76788W        W49213  30.636  12.856   1.410
76789W        W49214  34.064  36.880   2.782
76790W        W49215  34.407  20.175  12.440
76791W        W49216  29.951  29.083   3.246
76792W        W49217  20.270  13.205   1.282
76793W        W49218  29.589   8.742  11.598
76794W        W49219  43.007  24.030   4.810
76795W        W49220  30.478  40.435   0.453
76796W        W49221  34.484  10.290  10.417
76797W        W49222  10.770   5.322  14.865
76798W        W49223   0.783  10.361  10.603
76799W        W49224  25.531   3.320   4.604
76800W        W49225  22.652  18.083   4.262
76801W        W49226  23.063  42.974   0.341
76802W        W49227  15.812  15.242   1.372
76803W        W49228  25.042  37.474   4.744
76804W        W49229  25.588  17.178   9.939
76805W        W49230  36.067   7.689  14.502
76806W        W49231  34.909  40.842   3.841
76807W        W49232   7.180  32.893  12.461
76808W        W49233  39.498  36.879  10.599
76809W        W49234  25.686  21.629   0.245
76810W        W49235   1.764  19.254  11.573
76811W        W49236  26.532  21.240  13.053
76812W        W49237   8.858  17.256  12.833
76813W        W49238   8.770  42.826   0.349
76814W        W49239  23.112  44.760   2.385
76815W        W49240  44.309   9.875   3.799
76816W        W49241  20.657  14.096  13.059
76817W        W49242   3.813   3.932   0.285
76818W        W49243   2.255   1.399   4.615
76819W        W49244  44.425  11.179   1.771
76820W        W49245  10.220  31.152   2.336
76821W        W49246  36.508  37.994  14.908
76822W        W49247   4.231  12.725   2.231
76823W        W49248  21.245  39.374   1.911
76824W        W49249  20.088  32.075   5.602
76825W        W49250   5.396   3.780   1.303
76826W        W49251  12.234  28.934   3.756
76827W        W49252  27.957  22.006   0.282
76828W        W49253  44.891  15.194  12.407
76829W        W49254  42.836  38.957  11.503
76830W        W49255  21.747  43.300   0.799
76831W        W49256  10.323  11.132   2.245
76832W        W49257   8.330   3.842   2.728
76833W        W49258  14.811  43.783  14.427
76834W        W49259  39.433  40.838   0.422
76835W        W49260  19.165   1.974  14.452
76836W        W49261  20.206  23.104  10.975
76837W        W49262  25.558  40.923   4.233
76838W        W49263  43.489  10.194   2.227
76839W        W49264  34.587   4.717  13.859
76840W        W49265  27.099  33.986  10.528
76841W        W49266  25.170  29.478  13.313
76842W        W49267   1.737  22.130   3.349
76843W        W49268  40.493  42.308   9.599
76844W        W49269  11.237  32.420   2.901
76845W        W49270  18.587  17.117  11.021
76846W        W49271  24.697  15.595  13.017
76847W        W49272   9.666  11.339  14.471
76848W        W49273   9.738  33.875   4.243
76849W        W49274  44.984  24.488   0.828
76850W        W49275  21.534  17.065  12.080
76851W        W49276  22.597  13.199  14.350
76852W        W49277  30.460  26.165  13.049
76853W        W49278  41.842   8.259   1.227
76854W        W49279  21.113  17.649   1.737
76855W        W49280  35.397  24.094  11.409
76856W        W49281  10.231   1.885  14.292
76857W        W49282  29.652  30.139  13.327
76858W        W49283  23.628  28.544  10.942
76859W        W49284  24.696  13.258   1.923
76860W        W49285  12.808  29.936  12.097
76861W        W49286  19.676  21.247   1.891
76862W        W49287  18.589   0.882   3.259
76863W        W49288  19.646  11.240   2.899
76864W        W49289  36.346  11.666   3.333
76865W        W49290  34.601  44.886   2.386
76866W        W49291  23.721  19.615  11.384
76867W        W49292  23.630  32.969  11.435
76868W        W49293  27.511  31.405   1.403
76869W        W49294  17.770  41.942   4.622
76870W        W49295  26.115   8.664  14.503
76871W        W49296  42.518  16.585   1.725
76872W        W49297   5.871  38.847  11.520
76873W        W49298  17.575   2.847   1.241
76874W        W49299   5.919  43.463   4.321
76875W        W49300  11.744  15.104  14.372
76876W        W49301  43.429  41.972  14.478
76877W        W49302  33.546  39.888  14.811
76878W        W49303   4.719   0.911  14.424
76879W        W49304  15.241  16.220   2.237
76880W        W49305   4.313  41.449  13.799
76881W        W49306  16.191  21.249   1.824
76882W        W49307  11.212  35.859  11.868
76883W        W49308   9.764   7.238   1.432
76884W        W49309  42.843  33.100   0.767
76885W        W49310  17.698   1.867   5.751
76886W        W49311  33.108  38.407  11.933
76887W        W49312  33.020   2.391  12.834
76888W        W49313   3.920   5.839  13.016
76889W        W49314   3.447  18.155  10.413
76890W        W49315   8.670  23.688  12.424
76891W        W49316  26.590  19.259  10.635
76892W        W49317  25.680   7.773  14.404
76893W        W49318   8.384  41.014  11.549
76894W        W49319   6.342  10.839  11.480
76895W        W49320  23.517  30.612  11.508
76896W        W49321  11.674  10.140   3.768
76897W        W49322  31.459   6.863  14.338
76898W        W49323  13.193   2.299  13.914
76899W        W49324   5.879  32.135   1.382
76900W        W49325   0.340  13.214  12.573
76901W        W49326  39.894  42.386   5.708
76902W        W49327  11.266  31.420   0.396
76903W        W49328  21.659  11.129   0.931
76904W        W49329  28.446  36.045  13.917
76905W        W49330  27.105  15.791  10.431
76906W        W49331  30.114  18.179   4.649
76907W        W49332  16.713  35.949  11.021
76908W        W49333  11.757  12.752  14.997
76909W        W49334  21.237  39.457   4.695
76910W        W49335   2.752  27.455   4.779
76911W        W49336  31.469   4.293  11.475
76912W        W49337  28.084  44.393   0.244
76913W        W49338  22.124  37.901  14.515
76914W        W49339  13.798  13.300  11.871
76915W        W49340  29.059   1.365  13.470
76916W        W49341   9.716  27.508  12.989
76917W        W49342  37.875  24.089  12.433
76918W        W49343   5.930  39.535   4.277
76919W        W49344  36.457  23.064   2.861
76920W        W49345  18.209  14.178  10.460
76921W        W49346  16.742  15.177  11.008
76922W        W49347  17.758  41.417  12.899
76923W        W49348   8.895  29.627   5.311
76924W        W49349  26.190  33.567  14.417
76925W        W49350  35.471   2.329   1.260
76926W        W49351  21.025  25.566  11.970
76927W        W49352  14.821  16.138   3.215
76928W        W49353  20.059  40.037   0.403
76929W        W49354   0.302   7.820  13.007
76930W        W49355  17.234  40.985   4.213
76931W        W49356   5.922  16.683  11.471
76932W        W49357  10.820  11.850  14.936
76933W        W49358  30.553  18.210   2.870
76934W        W49359   9.249  33.917  14.009
76935W        W49360  44.389  15.140   4.276
76936W        W49361  39.521  29.524  12.527
76937W        W49362  39.374  41.418  14.459
76938W        W49363  18.636   1.280  13.330
76939W        W49364  14.195  20.706   3.793
76940W        W49365  16.702  16.647   1.736
76941W        W49366  20.528  27.154  14.345
76942W        W49367  34.578  41.879   1.343
76943W        W49368   4.282  39.042  10.514
76944W        W49369   9.310  43.861   1.450
76945W        W49370  32.949  28.154  14.514
76946W        W49371  39.387   1.834  11.411
76947W        W49372  44.877  15.621   2.749
76948W        W49373  13.684  11.362  14.780
76949W        W49374  16.745  17.586   4.779
76950W        W49375  19.163   8.267   2.738
76951W        W49376  14.188   9.151  12.872
76952W        W49377  39.538   4.343  10.536
76953W        W49378  27.054  31.070   5.606
76954W        W49379  32.049  22.740   1.415
76955W        W49380  25.116  38.427   0.395
76956W        W49381  39.869   4.769  10.416
76957W        W49382  36.468  42.316   1.770
76958W        W49383  23.682   2.463  13.981
76959W        W49384  41.965  32.011  14.864
76960W        W49385  37.425  30.415  13.934
76961W        W49386  41.837   6.358   1.808
76962W        W49387   6.856  32.075  11.593
76963W        W49388  35.372  21.527  12.473
76964W        W49389  27.069  10.832  11.952
76965W        W49390   9.653  25.580   0.303
76966W        W49391  37.986  40.804   1.263
76967W        W49392  26.158  35.433   3.205
76968W        W49393  35.986  36.584  14.487
76969W        W49394   7.398  16.688   4.219
76970W        W49395  10.776  15.138   4.204
76971W        W49396  29.536  25.070  11.396
76972W        W49397  18.737  27.640   2.757
76973W        W49398  41.532  43.843   4.200
76974W        W49399  28.100   7.741   1.893
76975W        W49400  24.553  26.692  13.981
76976W        W49401   4.398  12.747   0.367
76977W        W49402  36.921   6.361  11.996
76978W        W49403   7.252  15.723  11.861
76979W        W49404  37.851  17.695  12.868
76980W        W49405  23.112  23.146   2.668
76981W        W49406  12.782  13.297   2.855
76982W        W49407   3.769  18.613   4.667
76983W        W49408  17.590   9.178   3.741
76984W        W49409  43.773  32.424  14.838
76985W        W49410  16.628  36.850  13.920
76986W        W49411  38.051  37.992  14.327
76987W        W49412  10.285  31.963   2.414
76988W        W49413  18.268  14.212  13.500
76989W        W49414  13.262  21.214   0.256
76990W        W49415   2.273  34.583  10.548
76991W        W49416  17.776  35.466   2.286
76992W        W49417  22.525  27.449  12.914
76993W        W49418  18.221   8.275   3.750
76994W        W49419   0.800   1.915   5.128
76995W        W49420  34.586  11.368  13.902
76996W        W49421   0.476  10.268   1.362
76997W        W49422  44.441  23.715  10.136
76998W        W49423   3.390  32.603  14.449
76999W        W49424  15.174   2.326  14.804
77000W        W49425  24.701  11.193   0.915
77001W        W49426  31.052  13.674  14.891
77002W        W49427  39.468  27.644   0.301
77003W        W49428   3.719   4.304  14.923
77004W        W49429   5.278  28.108   0.359
77005W        W49430  15.729  12.693   5.271
77006W        W49431  19.211  39.982  12.340
77007W        W49432  21.724  23.154   0.778
77008W        W49433   3.844   4.934  14.918
77009W        W49434   3.328   6.905  12.381
77010W        W49435  18.071  31.625  13.399
77011W        W49436   9.702  22.246  13.422
77012W        W49437  30.610  20.236   1.389
77013W        W49438   1.834  16.101  12.451
77014W        W49439  38.487  26.633  13.022
77015W        W49440  37.058  33.057  13.825
77016W        W49441  21.616  28.544   2.199
77017W        W49442  12.778  37.483   0.784
77018W        W49443  37.455  17.666  10.465
77019W        W49444   8.814  16.188   1.245
77020W        W49445  22.588  29.427  12.860
77021W        W49446   4.424  30.478  12.985
77022W        W49447  22.555  36.914   4.793
77023W        W49448   2.411  14.273  11.886
77024W        W49449  11.674  29.564   2.221
77025W        W49450  43.909  30.636  14.362
77026W        W49451  24.622  42.495   1.250
77027W        W49452  39.390   0.750   4.673
77028W        W49453  30.998  40.355   3.186
77029W        W49454  31.432  41.946  12.416
77030W        W49455  36.003   6.737  14.417
77031W        W49456   4.309  14.122  14.782
77032W        W49457   7.292  32.590   3.693
77033W        W49458  24.184  20.695   2.872
77034W        W49459  42.527   1.369   1.359
77035W        W49460  25.171  24.654  10.579
77036W        W49461  29.000  16.126  14.285
77037W        W49462  10.874   5.933   5.200
77038W        W49463  21.060  32.552   1.344
77039W        W49464   2.904  32.530   1.741
77040W        W49465  25.159  24.499   1.799
77041W        W49466  41.325  35.470  13.875
77042W        W49467  27.982  18.777   0.333
77043W        W49468  30.996  10.868   4.808
77044W        W49469  12.758   8.687   3.780
77045W        W49470  20.535  35.109   2.813
77046W        W49471  36.435  22.130   2.804
77047W        W49472  33.608   3.898  14.768
77048W        W49473  11.814  41.029  12.580
77049W        W49474  44.961   9.839  14.890
77050W        W49475  43.790  33.021  14.435
77051W        W49476  35.944  22.610   2.301
77052W        W49477  10.860  21.142   0.796
77053W        W49478  14.139  44.296   1.703
77054W        W49479  30.597  18.132   1.840
77055W        W49480  34.391  29.158   0.322
77056W        W49481   7.219  17.782  12.937
77057W        W49482   9.156  29.138  10.434
77058W        W49483  12.223  10.331   3.347
77059W        W49484  35.941  38.968  12.060
77060W        W49485  30.554  34.070  13.536
77061W        W49486  12.213  25.567  12.580
77062W        W49487  36.069  20.103  12.405
77063W        W49488  35.031  37.528  12.467
77064W        W49489  37.511   1.819   3.160
77065W        W49490  37.906   4.717  14.383
77066W        W49491   9.360  26.672  10.058
77067W        W49492  28.149  37.555  12.955
77068W        W49493  26.594  44.910   3.692
77069W        W49494  25.602  13.828  10.986
77070W        W49495  44.490  36.493  14.936
77071W        W49496   5.786  32.602  10.593
77072W        W49497  13.633  24.614   3.244
77073W        W49498  36.458  28.050  10.947
77074W        W49499   3.445  14.215  14.868
77075W        W49500  16.303  36.879  12.517
77076W        W49501  31.424  31.142   3.154
77077W        W49502  11.203  22.163   1.775
77078W        W49503  13.212  24.196   0.422
77079W        W49504  21.075  22.521  11.976
77080W        W49505  15.244   7.838  11.967
77081W        W49506   5.275  25.139   4.677
77082W        W49507  43.455  10.309   2.801
77083W        W49508   2.744  23.002  14.285
77084W        W49509  11.329  33.038  12.976
77085W        W49510   1.740   8.293  11.073
77086W        W49511  11.348  43.967  11.406
77087W        W49512  16.089  24.168   1.723
77088W        W49513   3.882  24.056  12.490
77089W        W49514  14.264  44.867   3.687
77090W        W49515  11.782  29.520   3.155
77091W        W49516  39.854  43.391  14.288
77092W        W49517  16.632   2.770   2.799
77093W        W49518  18.276  44.447   0.348
77094W        W49519  28.155  24.976  10.100
77095W        W49520  31.945  23.072  14.795
77096W        W49521   3.733   7.702   3.650
77097W        W49522  14.225   0.491  10.966
77098W        W49523  29.054  18.192  11.552
77099W        W49524  28.941  24.001  12.537
77100W        W49525  31.014   7.885  12.359
77101W        W49526  29.475  18.057   4.792
77102W        W49527   8.172  41.312  12.933
77103W        W49528  44.933  20.768   0.788
77104W        W49529  37.461  23.548   0.948
77105W        W49530   4.790   9.163  11.109
77106W        W49531  31.006  34.907  13.517
77107W        W49532  20.728   0.485   2.196
77108W        W49533  15.597  32.488   1.294
77109W        W49534  17.124  41.002  10.974
77110W        W49535  19.597   7.288   0.282
77111W        W49536  40.449   2.889  10.467
77112W        W49537  12.784  39.486   2.796
77113W        W49538  10.769  13.821   2.761
77114W        W49539  26.670  25.469  11.413
77115W        W49540  37.350  40.981   3.641
77116W        W49541  12.773  38.030  11.602
77117W        W49542   4.857  21.597   2.850
77118W        W49543  22.076  11.848   3.146
77119W        W49544  13.263  23.497   2.712
77120W        W49545  35.855   6.238  14.996
77121W        W49546  37.900  32.034  14.017
77122W        W49547  25.045  13.110  11.561
77123W        W49548  39.351  17.750   2.813
77124W        W49549   8.874  42.382   3.833
77125W        W49550  37.024   0.455  13.543
77126W        W49551  28.141   2.257  13.414
77127W        W49552  22.038  19.754  14.363
77128W        W49553  43.976  22.153   2.412
77129W        W49554  41.018  18.566   1.895
77130W        W49555  27.544  28.144   3.148
77131W        W49556  44.317  19.279   2.362
77132W        W49557   8.830  44.443   3.331
77133W        W49558   8.860  11.146  12.846
77134W        W49559   5.743  13.306  13.332
77135W        W49560   6.307  36.017  12.494
77136W        W49561  25.995  26.702  12.958
77137W        W49562   0.872  33.027   1.702
77138W        W49563  12.769  23.061   0.275
77139W        W49564  13.740  38.440  12.568
77140W        W49565  32.074  22.594  12.938
77141W        W49566  20.183  33.981   0.956
77142W        W49567  17.182  18.757   2.257
77143W        W49568   5.785   7.184  10.918
77144W        W49569  27.045  14.605   0.372
77145W        W49570  22.745  23.562   0.934
77146W        W49571  33.010  21.123  13.994
77147W        W49572  11.644  35.360   0.846
77148W        W49573   6.271  24.146  13.390
77149W        W49574  40.541  44.339   5.215
77150W        W49575  35.422  16.692   4.746
77151W        W49576  17.172   7.348   1.262
77152W        W49577  28.520  10.796   2.319
77153W        W49578  24.095   4.235  13.841
77154W        W49579  34.456  24.578  12.095
77155W        W49580  24.200  37.930  12.918
77156W        W49581  30.918   2.829   4.600
77157W        W49582  27.973   6.806  13.897
77158W        W49583  21.060  28.104   3.728
77159W        W49584  13.257  28.934   4.236
77160W        W49585  13.633  25.157  11.489
77161W        W49586   8.317   6.395   4.689
77162W        W49587   9.662   6.810  13.056
77163W        W49588  23.112  23.698  14.372
77164W        W49589  32.503  11.711   4.611
77165W        W49590  22.160   9.769   2.783
77166W        W49591  27.668   1.791   3.233
77167W        W49592  33.412   2.772   1.259
77168W        W49593  25.052  32.934   3.304
77169W        W49594  38.454  29.085  10.579
77170W        W49595  25.573  24.620   1.451
77171W        W49596  18.055  12.348  10.549
77172W        W49597   9.298   9.268   4.658
77173W        W49598   7.827  30.043  11.394
77174W        W49599  33.101  42.943  14.318
77175W        W49600  13.223   8.249   2.834
77176W        W49601  25.477  15.687   4.290
77177W        W49602  10.304  36.980  13.320
77178W        W49603  38.424  14.792   1.764
77179W        W49604  17.742  42.324  10.888
77180W        W49605  10.803  28.481  13.978
77181W        W49606  27.559   6.766   2.221
77182W        W49607  40.813  40.373   0.922
77183W        W49608   6.836  44.412   2.338
77184W        W49609  42.817  33.003  14.786
77185W        W49610   1.307  36.083   0.822
77186W        W49611  11.269  23.157  13.055
77187W        W49612  19.715  29.514  14.496
77188W        W49613  17.562   7.672  13.545
77189W        W49614   4.327   7.341  10.948
77190W        W49615  16.588   4.318   4.625
77191W        W49616   4.240  40.036   4.623
77192W        W49617  29.632  10.186  14.499
77193W        W49618  31.991  44.815  14.491
77194W        W49619  40.836  14.610  12.382
77195W        W49620  20.028  27.029  12.867
77196W        W49621  35.390  33.891  10.477
77197W        W49622  20.061  38.514   1.413
77198W        W49623   6.827  15.683  12.385
77199W        W49624  14.680  32.950  10.472
77200W        W49625  34.956  38.557  12.838
77201W        W49626   1.899  25.510  11.981
77202W        W49627  12.625  11.290  11.015
77203W        W49628  43.454  32.029  13.813
77204W        W49629  34.034  21.039  11.484
77205W        W49630  25.691   5.713   2.231
77206W        W49631   4.246   1.362  10.890
77207W        W49632  23.604  24.589  11.457
77208W        W49633  24.122   4.849   1.933
77209W        W49634  20.628  21.172   3.793
77210W        W49635  41.378  21.036   9.953
77211W        W49636   7.392   3.851   3.352
77212W        W49637  31.505  34.553   0.741
77213W        W49638  36.851   4.386   1.706
77214W        W49639   3.906  12.847   4.322
77215W        W49640   0.283  29.124   4.648
77216W        W49641   2.283  42.911  12.852
77217W        W49642  12.835  41.830   1.723
77218W        W49643  37.021   3.837   1.265
77219W        W49644  13.225   7.200   5.228
77220W        W49645  41.994   2.936  12.554
77221W        W49646  13.809  42.955  12.096
77222W        W49647  15.085   3.417  11.113
77223W        W49648   7.339  15.580  12.465
77224W        W49649  20.197   7.751  10.924
77225W        W49650  15.742  12.322  10.973
77226W        W49651  10.808  17.641  10.445
77227W        W49652  40.811  30.124  11.963
77228W        W49653  40.541  17.594  14.412
77229W        W49654   2.313   7.244  11.861
77230W        W49655  16.225  43.881   1.222
77231W        W49656  33.528  26.013   4.611
77232W        W49657  35.109   5.433  10.997
77233W        W49658  36.389  35.385  13.017
77234W        W49659  21.692  22.201   0.930
77235W        W49660  34.103  27.629   3.784
77236W        W49661  27.117  18.675   0.779
77237W        W49662  25.632  22.627  10.968
77238W        W49663   8.841  32.015  12.485
77239W        W49664  23.135  33.585  12.879
77240W        W49665  44.777  19.137   4.684
77241W        W49666   6.402  11.218  13.537
77242W        W49667  25.009  19.267   4.607
77243W        W49668   6.822  12.119  11.587
77244W        W49669  43.388  44.965  13.020
77245W        W49670   7.299   0.877  11.911
77246W        W49671  24.704  28.043  10.459
77247W        W49672  33.606  29.081  13.978
77248W        W49673  34.386  22.063  14.786
77249W        W49674  30.118  31.624   3.161
77250W        W49675  33.464  39.473  13.499
77251W        W49676  12.772  16.209  11.517
77252W        W49677  36.381  13.671  14.911
77253W        W49678  32.909  36.418  11.983
77254W        W49679   9.194  29.158  11.543
77255W        W49680  10.817  42.016   3.385
77256W        W49681  21.073  31.445   2.775
77257W        W49682  25.184  17.678  14.846
77258W        W49683  12.807   5.314  13.417
77259W        W49684  32.943   6.370   2.329
77260W        W49685   0.367   8.758   1.400
77261W        W49686   3.802   6.402   0.369
77262W        W49687  35.585  21.093  14.887
77263W        W49688  42.503  43.867   0.459
77264W        W49689  33.939  25.633   0.750
77265W        W49690  11.816  31.013  12.869
77266W        W49691  36.936  21.191   2.812
77267W        W49692  15.767   1.380  10.051
77268W        W49693  17.567  25.208  11.602
77269W        W49694  19.276  18.641   4.628
77270W        W49695  35.431  19.078   3.713
77271W        W49696   9.798   5.313  12.446
77272W        W49697  25.519  32.001  11.095
77273W        W49698  12.745  40.488   1.822
77274W        W49699  38.895  37.535  11.029
77275W        W49700  44.501  23.598  13.010
77276W        W49701  37.415  19.750  14.814
77277W        W49702  28.630  13.830  14.370
77278W        W49703   7.667  19.593  11.119
77279W        W49704  28.674   6.250  10.942
77280W        W49705   2.271  34.431  11.375
77281W        W49706  44.497  29.945   4.602
77282W        W49707  41.887  11.175   4.160
77283W        W49708  33.103  39.937   0.811
77284W        W49709  41.894  24.620   0.930
77285W        W49710  41.521  40.312  11.934
77286W        W49711   2.294  27.096   0.956
77287W        W49712   7.179  32.565  13.790
77288W        W49713   4.894  43.764   4.206
77289W        W49714  35.039  34.045  11.886
77290W        W49715  14.822  34.463   4.761
77291W        W49716  24.010  30.155  13.823
77292W        W49717  32.905   7.882   3.209
77293W        W49718  37.038  40.847  11.923
77294W        W49719  18.121  23.025   0.346
77295W        W49720  36.914   3.898  13.515
77296W        W49721  33.583  42.326  11.396
77297W        W49722  24.168  37.907   0.440
77298W        W49723  23.009   6.232   1.395
77299W        W49724  25.645  33.966   3.660
77300W        W49725  21.557  18.691   2.829
77301W        W49726   4.394  29.997  12.413
77302W        W49727  41.797  14.617  13.543
77303W        W49728  42.968  26.998   4.272
77304W        W49729  26.982   4.251   1.364
77305W        W49730  42.430  41.445  11.993
77306W        W49731   2.246  16.793   2.671
77307W        W49732  40.535  39.471  10.974
77308W        W49733  35.928  31.138  12.567
77309W        W49734  23.607  16.567  12.934
77310W        W49735  29.525   6.715  10.551
77311W        W49736  17.736   0.879  12.531
77312W        W49737  38.995  31.562   9.961
77313W        W49738  10.170  10.295   4.135
77314W        W49739  42.456  40.023   1.396
77315W        W49740  31.048   7.769  12.903
77316W        W49741  26.105  10.182   0.294
77317W        W49742  43.878  41.931   3.784
77318W        W49743   4.280  36.038   4.817
77319W        W49744  15.093  38.466   4.733
77320W        W49745  31.531   9.708  14.381
77321W        W49746   5.221  43.382   3.319
77322W        W49747  20.615  31.941   4.231
77323W        W49748  38.833  44.832  11.015
77324W        W49749  14.640   4.894  10.945
77325W        W49750  31.495  12.130  11.542
77326W        W49751   8.177  18.559   2.190
77327W        W49752  37.871  42.998  10.522
77328W        W49753  41.523  26.000   0.264
77329W        W49754  14.629   6.363  13.458
77330W        W49755  31.085  21.615   1.434
77331W        W49756   3.362  23.677  11.117
77332W        W49757  33.599  19.773  13.819
77333W        W49758  36.894  40.935  14.292
77334W        W49759   7.388  10.175  14.874
77335W        W49760   5.766  27.117  14.463
77336W        W49761  31.146  25.604  10.456
77337W        W49762  43.811  42.459   1.844
77338W        W49763  13.351  24.637   0.728
77339W        W49764  41.414   7.673   1.747
77340W        W49765  16.242  26.554  11.898
77341W        W49766  41.812  43.906  12.520
77342W        W49767  11.778  11.287   1.222
77343W        W49768   9.778  13.761  13.977
77344W        W49769  31.136   0.794   0.333
77345W        W49770  21.524  33.403  14.956
77346W        W49771  32.936  23.110   1.284
77347W        W49772  33.482  44.005  12.485
77348W        W49773  26.082  27.053  14.950
77349W        W49774  13.759  14.324  13.959
77350W        W49775  35.552  20.146   4.324
77351W        W49776  29.597  22.503  14.326
77352W        W49777  37.558   1.469  10.422
77353W        W49778  37.362  22.132   0.788
77354W        W49779  39.989  43.769   2.376
77355W        W49780   2.871  21.089   2.714
77356W        W49781  37.571  34.084   0.467
77357W        W49782  34.437  17.093  11.967
77358W        W49783  38.543  20.757  13.319
77359W        W49784  42.991   7.382   2.778
77360W        W49785   2.948   5.901  13.476
77361W        W49786  12.250  18.167  10.934
77362W        W49787  32.575  14.619   1.781
77363W        W49788  25.992  24.980  13.347
77364W        W49789  16.221   2.722   4.114
77365W        W49790  21.654  10.366   2.290
77366W        W49791   8.297  12.208  13.465
77367W        W49792   8.853  14.803  12.980
77368W        W49793  41.788  27.129  14.318
77369W        W49794  34.930   5.704   2.351
77370W        W49795  24.702  22.708  12.993
77371W        W49796   3.337  11.249  10.403
77372W        W49797  27.160  27.592   0.924
77373W        W49798  16.133  15.146   4.766
77374W        W49799  41.818   0.882   3.223
77375W        W49800   2.324  38.049   1.843
77376W        W49801  24.988  30.455   2.409
77377W        W49802  13.165  43.502  14.352
77378W        W49803  44.837   8.833   2.814
77379W        W49804  11.326  16.256   0.918
77380W        W49805  31.139  24.636   4.172
77381W        W49806  35.519  23.631  11.990
77382W        W49807   4.266  31.444  13.045
77383W        W49808   9.823  31.414  14.821
77384W        W49809  25.597  26.144  14.882
77385W        W49810  24.068  27.616   0.905
77386W        W49811  37.507   1.254  13.978
77387W        W49812  26.552   2.227   2.208
77388W        W49813   7.887  26.670   1.895
77389W        W49814  43.923  24.013   3.731
77390W        W49815  44.367  21.126  11.895
77391W        W49816  20.179  38.889  10.994
77392W        W49817  28.435  34.487  14.960
77393W        W49818   3.456  17.127  14.983
77394W        W49819   0.847  36.947   2.740
77395W        W49820   7.812   3.324   3.752
77396W        W49821   7.711  34.399   5.266
77397W        W49822  16.098  21.672   0.361
77398W        W49823  35.409  33.597  14.463
77399W        W49824  10.259   4.865  10.571
77400W        W49825  13.675   1.764   0.940
77401W        W49826  30.633   7.740   0.383
77402W        W49827   0.865  33.468   2.225
77403W        W49828   8.232  42.282  10.431
77404W        W49829   8.893   8.865   4.267
77405W        W49830  35.409  29.544   4.318
77406W        W49831  10.759   9.812   1.703
77407W        W49832  23.597  22.085   4.159
77408W        W49833  20.251  11.817  11.997
77409W        W49834  11.710  40.357   5.280
77410W        W49835  11.220  27.649  12.492
77411W        W49836  40.335   8.888  13.821
77412W        W49837  38.952  21.078  11.117
77413W        W49838   3.935  30.024   4.723
77414W        W49839  27.030  38.539  12.849
77415W        W49840  23.217  37.889  11.593
77416W        W49841  28.640  44.374   0.768
77417W        W49842  42.411  18.174  14.506
77418W        W49843  21.119   4.329   0.860
77419W        W49844   5.749  27.142  14.797
77420W        W49845   8.404  31.968   0.829
77421W        W49846  36.383  43.385   1.786
77422W        W49847  41.953  18.749   0.889
77423W        W49848  39.008  32.101   1.217
77424W        W49849  19.568  28.643   1.887
77425W        W49850  39.552  24.211   3.841
77426W        W49851  19.148   2.911   0.955
77427W        W49852  11.789  27.022   2.863
77428W        W49853  25.999  36.865   2.219
77429W        W49854  18.685  27.546   3.759
77430W        W49855   1.756  28.007  12.076
77431W        W49856  17.230   8.250  13.316
77432W        W49857  21.536  17.160   9.986
77433W        W49858   6.908   6.339   1.336
77434W        W49859  44.400  31.500  13.885
77435W        W49860   2.785   9.737   0.282
77436W        W49861  36.864   2.935   2.809
77437W        W49862   5.311  22.647  11.974
77438W        W49863  27.185  17.123   0.736
77439W        W49864  42.467  13.117   3.375
77440W        W49865   0.471  19.651  11.396
77441W        W49866  32.568  25.697  13.823
77442W        W49867  26.133   4.305  11.982
77443W        W49868   2.932   5.864  11.032
77444W        W49869  19.713  41.325   0.877
77445W        W49870  28.446   6.299  13.536
77446W        W49871  32.403  22.148   2.354
77447W        W49872  44.287   0.840   1.715
77448W        W49873  32.919  24.216  14.283
77449W        W49874  29.969  30.515   2.717
77450W        W49875  44.816   7.802   0.765
77451W        W49876   4.291   2.258   1.828
77452W        W49877  24.058  21.114   2.701
77453W        W49878  20.184  33.549  10.156
77454W        W49879  14.260   2.236   3.172
77455W        W49880  13.110   0.456   0.945
77456W        W49881   0.483  25.064  12.999
77457W        W49882   6.696   5.220   3.155
77458W        W49883  24.552   4.707  11.591
77459W        W49884  22.605  28.590   2.186
77460W        W49885  11.671   9.199   2.865
77461W        W49886  22.185   7.888   3.228
77462W        W49887  17.691  16.676  10.991
77463W        W49888  24.587  20.154  14.823
77464W        W49889  14.261  21.635  10.038
77465W        W49890  26.184   2.850  14.809
77466W        W49891  30.429  27.598  11.521
77467W        W49892  12.188   9.190  11.901
77468W        W49893  31.539  30.535  10.574
77469W        W49894  36.891  30.990  13.028
77470W        W49895  31.502   2.780  12.037
77471W        W49896   3.829   3.442   0.949
77472W        W49897  22.548  18.643  11.972
77473W        W49898  21.548  43.470   3.335
77474W        W49899  38.333  34.412  10.514
77475W        W49900  40.948  13.299  10.523
77476W        W49901  30.008  36.964   2.353
77477W        W49902   7.731  37.877  10.429
77478W        W49903  17.216  16.592  10.551
77479W        W49904  12.264  12.626   4.129
77480W        W49905   9.369   9.285   9.941
77481W        W49906  42.448   6.249   2.664
77482W        W49907  38.933  40.378  12.083
77483W        W49908  32.041   1.939  12.341
77484W        W49909  19.774  20.650  12.065
77485W        W49910   3.936   1.842  10.570
77486W        W49911  41.422  16.709   1.776
77487W        W49912   1.842   9.329   4.631
77488W        W49913  14.281   4.905  12.576
77489W        W49914   8.388  16.702  13.817
77490W        W49915  24.638  21.758   1.372
77491W        W49916   0.318  40.913  11.028
77492W        W49917  19.242  18.743  12.571
77493W        W49918   4.231  27.521  11.440
77494W        W49919   7.786  16.311  12.576
77495W        W49920  29.507  21.613   4.656
77496W        W49921  12.300  30.523  12.904
77497W        W49922  44.818  24.068   3.702
77498W        W49923  32.469   3.383  11.920
77499W        W49924   0.333  35.000   4.354
77500W        W49925  30.543  39.459   2.730
77501W        W49926  14.806  25.006  14.417
77502W        W49927   7.374   4.418   3.250
77503W        W49928  36.980  35.103  14.374
77504W        W49929   4.370  44.879  10.486
77505W        W49930  31.915  25.135   1.339
77506W        W49931  16.296   3.229   3.229
77507W        W49932  24.663  17.782  11.577
77508W        W49933  18.061  28.677   4.237
77509W        W49934  44.324  18.572  13.313
77510W        W49935  29.484  18.565  13.405
77511W        W49936  28.040  39.880  14.440
77512W        W49937  27.682  27.958   0.451
77513W        W49938  24.584  32.528   3.666
77514W        W49939   8.310  25.596  13.314
77515W        W49940  21.231   4.843  11.117
77516W        W49941   6.737   7.345  11.436
77517W        W49942  36.952  32.957   4.728
77518W        W49943  23.490  42.445   4.640
77519W        W49944  22.558   7.199  14.937
77520W        W49945  32.437  13.130   0.366
77521W        W49946  28.999   7.413  13.052
77522W        W49947  22.623  39.411   4.682
77523W        W49948  20.766  27.659  14.961
77524W        W49949  34.099  12.338   1.836
77525W        W49950  10.774   2.831   3.869
77526W        W49951  41.001  21.096   1.708
77527W        W49952  21.625  41.927   2.287
77528W        W49953  12.208  37.464   2.317
77529W        W49954   9.319  36.465  13.431
77530W        W49955   9.300  23.028   2.684
77531W        W49956   5.370  21.674  14.969
77532W        W49957  41.876   1.754  11.940
77533W        W49958   8.280   3.881  10.488
77534W        W49959  42.005  23.148   1.424
77535W        W49960  19.151  32.885  13.404
77536W        W49961   3.885   7.818   4.608
77537W        W49962  20.657  15.669   0.427
77538W        W49963  15.810  31.059   3.775
77539W        W49964  28.951  14.608   3.255
77540W        W49965   8.795  36.493  11.598
77541W        W49966  14.274  30.012  14.860
77542W        W49967   5.927   9.843   4.726
77543W        W49968  18.579  18.223  14.362
77544W        W49969  18.586   1.853  12.492
77545W        W49970  27.143  10.801   1.749
77546W        W49971  40.866  28.942  13.381
77547W        W49972   6.274  25.695   4.117
77548W        W49973  21.152  20.723  12.975
77549W        W49974  27.557  27.517  12.439
77550W        W49975   7.182  10.704   2.419
77551W        W49976  29.110  39.488   1.242
77552W        W49977  13.268  28.645   2.662
77553W        W49978  43.424  31.560  14.300
77554W        W49979  38.851  44.458   1.844
77555W        W49980  17.662  42.863  12.549
77556W        W49981   2.894   1.760   1.274
77557W        W49982   0.979   4.741   2.419
77558W        W49983  20.110  22.178  14.440
77559W        W49984  41.319  28.013   1.701
77560W        W49985  44.498  30.620   0.894
77561W        W49986  40.526  20.255   1.417
77562W        W49987   8.403   0.883  15.000
77563W        W49988  40.545   8.209  10.894
77564W        W49989  39.946  20.573  12.063
77565W        W49990  23.001   4.309   4.353
77566W        W49991  23.560  35.379   0.729
77567W        W49992  24.221  19.764  12.366
77568W        W49993  33.072  13.160   2.327
77569W        W49994  17.763  39.930  13.851
77570W        W49995  21.102  11.237  12.874
77571W        W49996   1.975  41.394  11.448
77572W        W49997  38.425   5.890  11.885
77573W        W49998   1.254  24.229  14.828
77574W        W49999   8.893   6.734   4.657
77575W        W50000  43.405  19.130  12.550
77576W        W50001  22.230  20.115  11.128
77577W        W50002  16.138  17.199  11.477
77578W        W50003   5.234  11.827  13.969
77579W        W50004  42.956  18.199  12.378
77580W        W50005   7.777  29.083   3.718
77581W        W50006  32.032  25.686  12.863
77582W        W50007   8.702  24.656  10.452
77583W        W50008  25.526  25.631  13.445
77584W        W50009  20.207  33.013  11.908
77585W        W50010  35.908  44.890   3.701
77586W        W50011  20.127   1.782   2.385
77587W        W50012  12.209  36.967  11.512
77588W        W50013  34.395  12.732   2.760
77589W        W50014  44.883  36.402   0.480
77590W        W50015  25.533  16.080   1.337
77591W        W50016  26.068  37.371   4.157
77592W        W50017  35.047  42.840   0.251
77593W        W50018  33.936  17.780  13.874
77594W        W50019   3.258   7.712  11.502
77595W        W50020   6.420  22.062  13.998
77596W        W50021  12.686  28.024   2.851
77597W        W50022  37.924  41.416  11.475
77598W        W50023  11.203  16.731   0.763
77599W        W50024  38.443  44.854   1.350
77600W        W50025  42.397  23.014  14.001
77601W        W50026  25.130   4.368  13.474
77602W        W50027   1.276  15.308   1.789
77603W        W50028   5.920  10.758   3.211
77604W        W50029  42.876  20.242  12.512
77605W        W50030  20.750  36.522  10.909
77606W        W50031  30.417  35.421  13.324
77607W        W50032   2.800  40.415   4.764
77608W        W50033   1.891  23.634  13.477
77609W        W50034  44.831  41.828   3.675
77610W        W50035  36.007  21.036  12.991
77611W        W50036  12.173  33.900   2.822
77612W        W50037   6.393  44.481  13.027
77613W        W50038   0.855  34.875   0.893
77614W        W50039  34.457   1.258   0.413
77615W        W50040   5.781   3.362  11.459
77616W        W50041   7.177  40.371   5.298
77617W        W50042  16.205  37.056  14.820
77618W        W50043  36.082  40.036  11.492
77619W        W50044  18.272  15.158  14.758
77620W        W50045  20.147  16.292   1.870
77621W        W50046   1.464  24.528   0.730
77622W        W50047  31.137  39.872   2.380
77623W        W50048   2.290  35.864  14.290
77624W        W50049  31.453  37.561   3.819
77625W        W50050  33.121  29.975   4.822
77626W        W50051  26.093  37.574  11.503
77627W        W50052  36.086  20.075   2.879
77628W        W50053  27.682  29.051   0.301
77629W        W50054  27.173  36.515   1.739
77630W        W50055   4.361   4.301  14.500
77631W        W50056   6.411  15.736  10.498
77632W        W50057  29.966  11.795  13.053
77633W        W50058  29.105  26.692   3.318
77634W        W50059  26.536  30.035  11.886
77635W        W50060  32.612  21.518  13.471
77636W        W50061  13.297  15.634   0.856
77637W        W50062  18.724  44.775   3.280
77638W        W50063  22.088  40.844   2.671
77639W        W50064  15.154  35.512   0.309
77640W        W50065  36.851   5.230   4.791
77641W        W50066  43.806   5.694  14.356
77642W        W50067  26.988  27.467  10.417
77643W        W50068  23.066  10.852  14.288
77644W        W50069  12.800  40.436  10.552
77645W        W50070  37.035  29.465   0.758
77646W        W50071  17.762  31.448   2.188
77647W        W50072  26.678  34.938  12.990
77648W        W50073  25.188  12.129   2.253
77649W        W50074  41.300  28.551   2.902
77650W        W50075   0.286   0.304  10.427
77651W        W50076  18.707  24.042  11.570
77652W        W50077  26.130  41.895  13.443
77653W        W50078  37.838   6.229  13.347
77654W        W50079  23.107  43.346   4.629
77655W        W50080  17.181  11.243   3.823
77656W        W50081  38.364  34.449  11.451
77657W        W50082  43.826   7.343  12.984
77658W        W50083   3.738  31.106  11.862
77659W        W50084  43.970  17.716   0.738
77660W        W50085  34.391  28.480  12.533
77661W        W50086  12.839   2.844   2.182
77662W        W50087  10.170  32.552   1.926
77663W        W50088   7.824  19.551  13.488
77664W        W50089  39.011  32.395  11.896
77665W        W50090  35.044   6.744   1.858
77666W        W50091  29.571  31.590  11.879
77667W        W50092  41.535  13.670  13.520
77668W        W50093  43.463   4.240   3.698
77669W        W50094   5.401  19.113   0.437
77670W        W50095  19.731  24.705  14.308
77671W        W50096  27.954  26.960   1.305
77672W        W50097  30.522  17.782  14.996
77673W        W50098  10.327  32.930  13.314
77674W        W50099  42.307  12.638  12.876
77675W        W50100  23.233   8.672   5.778
77676W        W50101  37.549  24.541   0.864
77677W        W50102  29.427  33.882   4.715
77678W        W50103  29.030  20.227   1.923
77679W        W50104   5.930  33.397  11.554
77680W        W50105  17.171  26.195  12.871
77681W        W50106  36.062  17.567  11.566
77682W        W50107   2.929  40.335  14.844
77683W        W50108   7.798  11.152   4.225
77684W        W50109  27.054  43.894   2.273
77685W        W50110  12.294  14.679   3.315
77686W        W50111  35.876  20.233   0.792
77687W        W50112  29.532   7.829   3.336
77688W        W50113  38.412  38.350   1.430
77689W        W50114  15.751  21.739   1.267
77690W        W50115  25.535  30.434  14.021
77691W        W50116  33.994  16.232  11.081
77692W        W50117   4.368  24.633   0.379
77693W        W50118  39.814  12.667   1.295
77694W        W50119   6.726  25.179  10.992
77695W        W50120   1.923   7.804   3.290
77696W        W50121   4.311  30.945   3.168
77697W        W50122   8.682  28.518   3.816
77698W        W50123  27.537   0.988  10.935
77699W        W50124  19.108  23.999  14.922
77700W        W50125   6.249  25.072   3.224
77701W        W50126   7.202  39.893  12.531
77702W        W50127   2.731  15.666   3.383
77703W        W50128  44.865  13.609   0.732
77704W        W50129  16.256  22.721   2.188
77705W        W50130  24.006  19.261   4.737
77706W        W50131  35.429  17.222   2.382
77707W        W50132  44.929  33.613   0.357
77708W        W50133   6.381  12.850   2.337
77709W        W50134  35.395  35.429  11.559
77710W        W50135  32.117  22.633  11.407
77711W        W50136  29.949  34.902  13.972
77712W        W50137   7.412  34.394   5.175
77713W        W50138   4.859  17.128  11.007
77714W        W50139  43.939  32.025  14.825
77715W        W50140  30.473  42.006   2.286
77716W        W50141   3.899  34.478   0.351
77717W        W50142   8.748  26.965  10.464
77718W        W50143  29.967  42.444   0.352
77719W        W50144  33.128   6.765   2.788
77720W        W50145  20.107   3.873   4.676
77721W        W50146   8.285   4.365   2.686
77722W        W50147  15.658  36.987   2.805
77723W        W50148   4.212  24.175  12.548
77724W        W50149  27.010  38.042   4.755
77725W        W50150  42.345  42.938  14.316
77726W        W50151   3.738   7.789  12.941
77727W        W50152  24.603   1.309   4.240
77728W        W50153   3.747  35.990   5.137
77729W        W50154  26.112  23.098  14.323
77730W        W50155  37.372  14.640  11.373
77731W        W50156  18.631  44.754  13.381
77732W        W50157   2.230  35.406  11.564
77733W        W50158  24.986   1.306  10.487
77734W        W50159  41.441  37.863  14.496
77735W        W50160   3.950  15.319  14.903
77736W        W50161   6.701   9.238  11.855
77737W        W50162  36.012  27.950   1.308
77738W        W50163  34.918  15.671   3.374
77739W        W50164  36.926   8.201   1.748
77740W        W50165  27.044  22.077   3.146
77741W        W50166  12.761  14.339   0.384
77742W        W50167  11.783  39.485   1.726
77743W        W50168   8.760  42.319  12.435
77744W        W50169  34.052  20.737  14.910
77745W        W50170  42.889  44.431   1.866
77746W        W50171  35.433  18.096   4.642
77747W        W50172  21.665  11.723  10.564
77748W        W50173  28.969  37.004   0.786
77749W        W50174  40.899  43.994   4.284
77750W        W50175  18.107  33.522  12.898
77751W        W50176  10.223  27.632  14.783
77752W        W50177  29.931   3.923  13.964
77753W        W50178  21.183   4.711   1.322
77754W        W50179  11.738  36.940   1.268
77755W        W50180   6.705   1.869   2.809
77756W        W50181  37.566  21.048  10.123
77757W        W50182  39.927  12.719   2.368
77758W        W50183  11.186  28.645   0.266
77759W        W50184   0.756  43.293   0.934
77760W        W50185  44.325  42.382  13.366
77761W        W50186  41.924  17.111  10.560
77762W        W50187   4.895  15.276   2.241
77763W        W50188  29.591  37.544   4.216
77764W        W50189  33.110  32.106   3.175
77765W        W50190  36.961   6.384   4.236
77766W        W50191  31.547  27.612  12.372
77767W        W50192   4.239  18.279  13.012
77768W        W50193  11.792   4.331   1.828
77769W        W50194  31.052  26.113   4.718
77770W        W50195  31.555  23.237   1.857
77771W        W50196   8.707  30.557  11.454
77772W        W50197  30.008  18.754  14.367
77773W        W50198   5.924   9.791   2.318
77774W        W50199  29.439   1.442  13.454
77775W        W50200  39.431  37.947  14.949
77776W        W50201  13.309   6.384  10.143
77777W        W50202  41.926  11.809   2.728
77778W        W50203  31.481  25.019  13.792
77779W        W50204  29.604  42.291   2.875
77780W        W50205  15.733   5.791  13.312
77781W        W50206  33.071   0.292   3.783
77782W        W50207  22.586  43.841  12.397
77783W        W50208  41.454  44.268   5.706
77784W        W50209   6.706   4.782   4.630
77785W        W50210   5.308  26.040   0.268
77786W        W50211  27.027  18.265  10.602
77787W        W50212   0.960  25.090   4.330
77788W        W50213  10.164   1.396  10.600
77789W        W50214   9.371   7.869  11.568
77790W        W50215  27.050  44.316  10.591
77791W        W50216   3.233  14.728   0.242
77792W        W50217  37.875  14.293  11.490
77793W        W50218  21.234  30.463  13.484
77794W        W50219  26.618  21.197  13.424
77795W        W50220  38.490   8.216   2.340
77796W        W50221  28.080  18.219  14.893
77797W        W50222   8.398  29.940   2.268
77798W        W50223  41.971  33.953   2.902
77799W        W50224   5.227  16.211  11.082
77800W        W50225  22.223  40.007  14.454
77801W        W50226  16.731  22.610  13.954
77802W        W50227  12.241  34.406   0.395
77803W        W50228  20.040   5.408  14.421
77804W        W50229  23.666   6.902  14.866
77805W        W50230  43.512  36.962   4.163
77806W        W50231  14.681  16.692  11.042
77807W        W50232  24.631  30.914   1.795
77808W        W50233  40.420  33.547   3.150
77809W        W50234  34.552  33.514   0.418
77810W        W50235  24.136  21.262   9.981
77811W        W50236  25.163  16.131   0.405
77812W        W50237  28.522  18.675  12.936
77813W        W50238  19.112  23.693  14.955
77814W        W50239  43.896  35.881  13.875
77815W        W50240  20.163  12.651   1.857
77816W        W50241   5.290  12.276  11.403
77817W        W50242  40.844   8.754  11.472
77818W        W50243  35.467   6.701   0.441
77819W        W50244  18.120  42.903  13.936
77820W        W50245  42.391  19.185  11.607
77821W        W50246   8.848   7.695  13.903
77822W        W50247  15.660  28.649  14.928
77823W        W50248  37.450  23.106   9.990
77824W        W50249   7.667  23.132  12.515
77825W        W50250  31.107  16.139   0.271
77826W        W50251  17.793   3.946  10.925
77827W        W50252   8.727  35.410  10.977
77828W        W50253  31.052  43.849   3.844
77829W        W50254  31.024  10.161  11.914
77830W        W50255   2.430  15.789  13.464
77831W        W50256  36.974  16.721  10.899
77832W        W50257  42.988  40.841   2.685
77833W        W50258  21.531   5.721   4.253
77834W        W50259  11.254  27.036  13.409
77835W        W50260  36.928  38.889  12.841
77836W        W50261   9.802  35.363  10.612
77837W        W50262  28.446  40.537  11.589
77838W        W50263  41.329  11.789   5.227
77839W        W50264  34.911  11.787  11.401
77840W        W50265  36.862  26.164   1.237
77841W        W50266   2.463  15.295  12.094
77842W        W50267  34.059   0.442   4.159
77843W        W50268  27.521  38.541   3.362
77844W        W50269  10.345  16.106  13.446
77845W        W50270  29.590  13.822   3.172
77846W        W50271  13.732  15.682   0.417
77847W        W50272  34.042   7.244  11.473
77848W        W50273  38.949  32.951   1.281
77849W        W50274  32.555  18.296  11.958
77850W        W50275   1.421  33.997   2.778
77851W        W50276  32.138  26.641   4.119
77852W        W50277  18.113  28.574   1.252
77853W        W50278   2.850  36.971   2.831
77854W        W50279  24.624  37.569  13.433
77855W        W50280  30.656  36.934   1.219
77856W        W50281  15.233   5.890  12.476
77857W        W50282  19.540  40.533  14.790
77858W        W50283  38.072   2.233   2.375
77859W        W50284   0.413   4.297  13.056
77860W        W50285   8.211  44.975  12.078
77861W        W50286  12.313   2.236  11.459
77862W        W50287  32.464   4.440  13.807
77863W        W50288  26.975  35.974   1.909
77864W        W50289   8.181  29.609  10.580
77865W        W50290   4.922  38.468  10.532
77866W        W50291  40.865  33.050   4.285
77867W        W50292  19.653  19.118  11.061
77868W        W50293  11.251   2.262   0.248
77869W        W50294  26.993  33.910   2.259
77870W        W50295  23.025  15.202   1.833
77871W        W50296  33.998  11.688   4.319
77872W        W50297  30.002  23.037  10.421
77873W        W50298  25.026  32.014  13.977
77874W        W50299  15.619  16.744  12.401
77875W        W50300  32.131  14.238  12.484
77876W        W50301  42.911  14.680  14.953
77877W        W50302   5.730  31.925  11.100
77878W        W50303  31.606   0.463  12.947
77879W        W50304  35.925  35.028  10.611
77880W        W50305  41.794  31.128  13.535
77881W        W50306  42.519  40.326  14.327
77882W        W50307  34.522  20.037  14.941
77883W        W50308   4.756   1.238   2.720
77884W        W50309  35.484  34.380   1.231
77885W        W50310  39.946  19.167   3.218
77886W        W50311  44.395   6.734   0.887
77887W        W50312  40.891  30.009   1.925
77888W        W50313  39.853  26.984   3.179
77889W        W50314  41.448  21.158   4.737
77890W        W50315   0.901   6.902  12.931
77891W        W50316  20.562   6.388  14.828
77892W        W50317   1.386  14.313  13.976
77893W        W50318  23.576  10.196  12.350
77894W        W50319  44.491  33.615   4.288
77895W        W50320   2.780  16.607   0.929
77896W        W50321  29.631  13.214   3.862
77897W        W50322  12.723  15.137  10.977
77898W        W50323  10.282  20.181   2.373
77899W        W50324   9.803  26.175   1.856
77900W        W50325  34.988  23.625   3.702
77901W        W50326  11.199  28.502   4.171
77902W        W50327  26.540  10.700   1.225
77903W        W50328  13.715   7.212   1.327
77904W        W50329  20.531  28.077   3.691
77905W        W50330  10.319  27.556   4.765
77906W        W50331  24.700  35.062  12.372
77907W        W50332  14.154  27.653   2.867
77908W        W50333  40.504  40.422   4.159
77909W        W50334  34.402  36.408  12.048
77910W        W50335  22.577  38.966  13.315
77911W        W50336  32.080   1.839   0.283
77912W        W50337  28.617  35.409  14.891
77913W        W50338  41.456  38.037   2.186
77914W        W50339  22.018  38.380  13.509
77915W        W50340  19.756   0.357  12.950
77916W        W50341  39.961  18.050   4.626
77917W        W50342  44.976  14.809  14.477
77918W        W50343   6.727   3.752   3.859
77919W        W50344  28.936  41.452  11.443
77920W        W50345   5.264  28.469  13.969
77921W        W50346  15.157  24.563  14.412
77922W        W50347  27.098  17.791   0.737
77923W        W50348   0.842  34.959  11.046
77924W        W50349  14.728  35.509   0.396
77925W        W50350  14.700  28.607   4.271
77926W        W50351  38.932  35.579  12.452
77927W        W50352  22.725  13.703  12.911
77928W        W50353  18.562  20.052  10.961
77929W        W50354  40.400  39.464  13.812
77930W        W50355   9.216  10.848   1.741
77931W        W50356  39.866  42.359   5.254
77932W        W50357  19.696   2.848  14.408
77933W        W50358  23.988  23.083  14.305
77934W        W50359   0.489  16.244  12.576
77935W        W50360  31.088  27.617   4.268
77936W        W50361  25.038  31.099  10.928
77937W        W50362  41.519  34.408  10.617
77938W        W50363  27.607  34.090   3.632
77939W        W50364  11.154  34.062   4.706
77940W        W50365  44.301  28.034   3.342
77941W        W50366   2.442  11.824  10.993
77942W        W50367  31.149   9.216  13.831
77943W        W50368  30.609  14.674  11.536
77944W        W50369  30.485  20.673  12.971
77945W        W50370  29.623   8.391  13.515
77946W        W50371   8.361   0.451   4.820
77947W        W50372   6.322  41.383   3.230
77948W        W50373  38.506   9.237  13.833
77949W        W50374  32.030  13.638  13.866
77950W        W50375  18.783   3.891  13.989
77951W        W50376  27.957  42.496   2.413
77952W        W50377  12.784  29.512   1.326
77953W        W50378  37.523  35.544  11.923
77954W        W50379  41.406  37.072   4.162
77955W        W50380  11.234  25.641   1.377
77956W        W50381  43.012  37.929   5.247
77957W        W50382  26.687  12.684   2.759
77958W        W50383  27.452  28.021   4.204
77959W        W50384  36.572  14.673  10.981
77960W        W50385  26.603  15.163  12.067
77961W        W50386  29.616  14.213  13.913
77962W        W50387  40.483  18.722   2.382
77963W        W50388  23.731   9.758   1.910
77964W        W50389  37.457  41.383   4.798
77965W        W50390  13.738  13.778  14.492
77966W        W50391   9.872  10.822  11.586
77967W        W50392  11.279  38.516   3.222
77968W        W50393  30.148  36.514   1.358
77969W        W50394  13.248   3.817  12.918
77970W        W50395  40.381  27.140  13.350
77971W        W50396  34.091   3.914  11.581
77972W        W50397  30.596   8.678   2.848
77973W        W50398  22.103   3.347   2.379
77974W        W50399  37.001  18.642   3.210
77975W        W50400   6.260  42.011   3.643
77976W        W50401   8.756  37.484   4.267
77977W        W50402   3.794  28.137  14.770
77978W        W50403  21.537   3.842  14.830
77979W        W50404  18.611  36.446  12.040
77980W        W50405  38.472  18.697   0.323
77981W        W50406  37.375  42.929  12.463
77982W        W50407  28.126  40.480  13.918
77983W        W50408  39.992  25.177  13.486
77984W        W50409  17.161  42.304  12.441
77985W        W50410  10.332  35.007   0.317
77986W        W50411  42.287  28.083  13.799
77987W        W50412   5.303  39.360  14.342
77988W        W50413  17.250  37.517   2.865
77989W        W50414   3.351  14.128   4.247
77990W        W50415  29.974   1.910  12.381
77991W        W50416  24.203  32.949  10.636
77992W        W50417  22.068  27.121  10.903
77993W        W50418  42.427  26.518   2.396
77994W        W50419  28.130  39.967  11.010
77995W        W50420   6.878  35.523   5.653
77996W        W50421  43.509  31.955  13.058
77997W        W50422  37.489  37.482  11.537
77998W        W50423   7.773   7.780  10.582
77999W        W50424  34.049   8.675  13.997
78000W        W50425  27.556   8.714  14.932
78001W        W50426  31.941  36.457   3.769
78002W        W50427   0.960  36.053   2.202
78003W        W50428  11.766  14.260  13.964
78004W        W50429   6.416  36.540   0.793
78005W        W50430   0.875   8.874  14.803
78006W        W50431  13.197  14.743   1.269
78007W        W50432  38.893  24.531   2.217
78008W        W50433   3.936  39.897  10.564
78009W        W50434   5.740  40.396  10.947
78010W        W50435   8.741  13.835   4.149
78011W        W50436  38.447   9.340  14.906
78012W        W50437  24.530   2.848   0.460
78013W        W50438  36.433  13.123  13.494
78014W        W50439  38.930  28.540   0.367
78015W        W50440  13.656  32.636   4.210
78016W        W50441  42.784  18.206   4.690
78017W        W50442  14.652  14.192  10.020
78018W        W50443  44.500  32.391  14.891
78019W        W50444  28.049  32.926  11.511
78020W        W50445   9.175  26.513  13.350
78021W        W50446  33.122  32.013   1.217
78022W        W50447  16.598  11.331  11.456
78023W        W50448  35.934  14.243  12.341
78024W        W50449  10.145  36.940  11.428
78025W        W50450  21.181   5.217  14.916
78026W        W50451  19.765  44.770  10.973
78027W        W50452  23.506  18.217   4.321
78028W        W50453  40.005  37.455  14.890
78029W        W50454   5.417  31.105  13.433
78030W        W50455  30.124  35.474   1.278
78031W        W50456  33.409  29.633  13.898
78032W        W50457  43.390  32.913   2.776
78033W        W50458   2.958  37.978   1.738
78034W        W50459  16.763  10.224   0.423
78035W        W50460  44.456  22.998  10.623
78036W        W50461  14.148   2.364   4.223
78037W        W50462  38.852  44.893   5.172
78038W        W50463  43.281   5.340  10.417
78039W        W50464  13.810  21.735   5.706
78040W        W50465  44.863  23.651  11.080
78041W        W50466  44.439  12.848   3.227
78042W        W50467  44.944  28.111   3.306
78043W        W50468  13.636   9.235  12.044
78044W        W50469  21.534  30.080  13.832
78045W        W50470  34.531   8.796   3.383
78046W        W50471   0.937  14.718   3.240
78047W        W50472  13.171  15.637  14.933
78048W        W50473   8.269  35.906   4.238
78049W        W50474  32.129  20.639   0.800
78050W        W50475  25.016   6.878   3.287
78051W        W50476   9.717  25.052   4.818
78052W        W50477  19.216  26.489   2.401
78053W        W50478  32.463  41.415  14.935
78054W        W50479  18.145  14.755  12.406
78055W        W50480  39.828  15.287  11.513
78056W        W50481  15.152  24.004   9.628
78057W        W50482  25.061   8.788  14.837
78058W        W50483  41.909  26.027  13.830
78059W        W50484  42.910  35.478   3.828
78060W        W50485  11.309  38.509  12.551
78061W        W50486   6.350  31.527   0.269
78062W        W50487  42.311  23.615  11.992
78063W        W50488  43.803  39.396  14.341
78064W        W50489  27.601  35.577  13.901
78065W        W50490  37.411  14.591   4.186
78066W        W50491  17.186  18.102   1.401
78067W        W50492  13.344   3.234   2.243
78068W        W50493  39.859  29.654  11.523
78069W        W50494  42.368  18.097   4.220
78070W        W50495  21.057  12.816   4.623
78071W        W50496  29.155   2.852  14.000
78072W        W50497  40.419   6.710   2.187
78073W        W50498  32.595  40.808   0.820
78074W        W50499  43.448  44.905  13.339
78075W        W50500  27.642  39.977  10.912
78076W        W50501  10.699   3.260  11.537
78077W        W50502  27.956   2.935  13.443
78078W        W50503  30.925  43.872  10.439
78079W        W50504  24.196  35.091   4.735
78080W        W50505   1.861  42.319  11.080
78081W        W50506   9.644  27.163  10.596
78082W        W50507  14.124  34.437  11.073
78083W        W50508  14.208   7.371   3.331
78084W        W50509  40.546  17.129  11.018
78085W        W50510  34.883  13.176  14.998
78086W        W50511  43.501  24.120   2.413
78087W        W50512  18.648   7.259   2.727
78088W        W50513   7.237  13.142  11.048
78089W        W50514  30.507  26.999   1.358
78090W        W50515  33.124  35.948  12.830
78091W        W50516  11.829   5.222   1.312
78092W        W50517  42.010  33.615  10.919
78093W        W50518  11.625  13.745  12.945
78094W        W50519  39.381  44.329  13.835
78095W        W50520  20.039  38.551   0.326
78096W        W50521  37.448   8.302   4.604
78097W        W50522  36.927   1.287   1.256
78098W        W50523  39.485  24.024  14.366
78099W        W50524  23.065  27.575   0.879
78100W        W50525  35.920  34.390  13.367
78101W        W50526  34.553  35.104  11.994
78102W        W50527  16.789  38.473   3.169
78103W        W50528  16.296  13.787   4.162
78104W        W50529   6.365  17.611   1.720
78105W        W50530  15.679  32.054   2.284
78106W        W50531  36.953  39.383  11.549
78107W        W50532  29.492   5.869  13.317
78108W        W50533  15.329   0.964  14.412
78109W        W50534  22.185   1.432   3.813
78110W        W50535  11.266  12.617   2.780
78111W        W50536  29.505   6.833  13.307
78112W        W50537  26.156  42.465   1.266
78113W        W50538   9.191  28.166  11.070
78114W        W50539   3.238  13.767  13.422
78115W        W50540  34.530  32.450   1.391
78116W        W50541  19.728  15.174   1.338
78117W        W50542  20.740   7.217  12.349
78118W        W50543  42.444  16.077  11.117
78119W        W50544   0.349  34.440   4.228
78120W        W50545   1.481  28.048   1.244
78121W        W50546   2.874  39.325  12.479
78122W        W50547  42.409   7.702   2.773
78123W        W50548  42.870  18.695   3.705
78124W        W50549  30.469  13.264  10.411
78125W        W50550  37.524  17.067  12.406
78126W        W50551  40.351  44.840  10.541
78127W        W50552  13.843   7.390  12.513
78128W        W50553   4.924  40.828  14.806
78129W        W50554   3.925  33.106  12.361
78130W        W50555  33.553  27.685   1.918
78131W        W50556  44.954  15.119  10.984
78132W        W50557   3.253  40.413   3.864
78133W        W50558  15.169  25.116  13.830
78134W        W50559   0.342  42.854  14.444
78135W        W50560  29.667   0.967   3.268
78136W        W50561  24.991  18.273   1.375
78137W        W50562  31.049  43.878   2.385
78138W        W50563  22.227  16.103  13.940
78139W        W50564  19.739  21.632   2.178
78140W        W50565  21.723   1.466   4.670
78141W        W50566  17.240  10.275  10.072
78142W        W50567  34.508   3.371   1.292
78143W        W50568  39.450  23.698  11.858
78144W        W50569   2.903  38.955   0.434
78145W        W50570  43.924  26.680  14.412
78146W        W50571  25.567  17.703  14.918
78147W        W50572  20.576  41.970  12.094
78148W        W50573  28.575  40.970  13.459
78149W        W50574  11.284  24.643   3.187
78150W        W50575  37.500  14.768   3.787
78151W        W50576   6.228  20.041  11.573
78152W        W50577  39.538   7.777  12.983
78153W        W50578  33.515  26.635  13.513
78154W        W50579  37.460  10.316   3.790
78155W        W50580   2.356  16.176  10.496
78156W        W50581   3.313   6.815  10.490
78157W        W50582  30.001  26.512  13.031
78158W        W50583  24.494  26.955  14.335
78159W        W50584  30.106  35.904   1.734
78160W        W50585  31.637  11.720   3.688
78161W        W50586  42.409  21.623  14.488
78162W        W50587  21.737  25.036  12.917
78163W        W50588  22.623  41.512  12.059
78164W        W50589  16.801  10.146  10.938
78165W        W50590   5.295  34.018  14.935
78166W        W50591  13.614   0.331   1.831
78167W        W50592  17.113  15.613   0.281
78168W        W50593   0.265   2.965   4.660
78169W        W50594  13.237   7.758   2.358
78170W        W50595  18.296  28.030  13.051
78171W        W50596  26.092  21.581  14.370
78172W        W50597  29.008  32.546   1.779
78173W        W50598  21.243  34.930   2.840
78174W        W50599  22.111  12.624  11.965
78175W        W50600   3.906  20.765   3.164
78176W        W50601  15.124  30.976  12.490
78177W        W50602  20.093   1.900   3.683
78178W        W50603  17.630  25.074   2.732
78179W        W50604  27.077   0.364   3.339
78180W        W50605   0.760   2.295   0.875
78181W        W50606  30.617  19.196  14.944
78182W        W50607   8.832  29.495   2.191
78183W        W50608  21.605  38.515  14.809
78184W        W50609   4.371  35.503   1.838
78185W        W50610  17.276  22.572  12.849
78186W        W50611  44.438   3.235   4.309
78187W        W50612  12.743  27.051   4.672
78188W        W50613  10.241  23.699  12.908
78189W        W50614  37.060   1.817   2.764
78190W        W50615  10.676  14.287  14.006
78191W        W50616  43.959   3.786   1.431
78192W        W50617  26.617   7.852   0.936
78193W        W50618  23.641   6.861   4.697
78194W        W50619  12.762   8.671   1.433
78195W        W50620   9.737  15.119  14.443
78196W        W50621   5.302  34.053  10.411
78197W        W50622  22.222  31.093   4.215
78198W        W50623  27.553  42.521  14.829
78199W        W50624  31.980  44.451   5.152
78200W        W50625  20.542   2.738  10.893
78201W        W50626  16.118  23.082   1.836
78202W        W50627   7.849  18.563   3.310
78203W        W50628  12.346   2.230  14.276
78204W        W50629  16.197  14.698  11.984
78205W        W50630  21.561  36.578   3.869
78206W        W50631  23.725  29.049  13.460
78207W        W50632  35.471  28.541  14.920
78208W        W50633  44.000   1.273   3.711
78209W        W50634  21.027  41.820  13.929
78210W        W50635   2.310   4.379   2.263
78211W        W50636  19.061  11.779   3.196
78212W        W50637   1.813  19.742  11.901
78213W        W50638   6.303   7.177  11.573
78214W        W50639  16.249   7.388   4.627
78215W        W50640   0.765   0.378   2.667
78216W        W50641   6.706  24.698  13.910
78217W        W50642  44.403  25.143  14.386
78218W        W50643   7.781  40.911  11.391
78219W        W50644  30.508  32.500   3.347
78220W        W50645  38.905  27.124   2.309
78221W        W50646  42.984  36.910  12.850
78222W        W50647  35.410  10.340   3.187
78223W        W50648  42.882  33.095   3.682
78224W        W50649  41.936  36.971   1.414
78225W        W50650  10.220   0.863  13.378
78226W        W50651  34.449  23.114  14.818
78227W        W50652   2.965  11.324   2.784
78228W        W50653  41.405  40.877  12.401
78229W        W50654  19.130  14.260   1.215
78230W        W50655  38.018  14.336   2.327
78231W        W50656  26.496  40.046  14.916
78232W        W50657  11.741  35.374   0.476
78233W        W50658  20.031  20.704   3.201
78234W        W50659  14.643  40.856   4.220
78235W        W50660  40.937  24.166  10.931
78236W        W50661   7.885  24.563  14.932
78237W        W50662  37.039   1.809  12.525
78238W        W50663  27.531  43.508   4.777
78239W        W50664   6.836  10.824  12.981
78240W        W50665   7.735   6.227  14.287
78241W        W50666  25.110  27.115   4.800
78242W        W50667   2.438  22.048  11.506
78243W        W50668  14.750  12.667  12.834
78244W        W50669   4.351  23.500  11.989
78245W        W50670  21.137  42.902  13.898
78246W        W50671  23.224  33.025  12.928
78247W        W50672  37.891  42.026   0.252
78248W        W50673  28.167  38.000   3.381
78249W        W50674  18.743  14.812  10.951
78250W        W50675  24.530  35.577  14.504
78251W        W50676   9.324  37.553   1.438
78252W        W50677   2.230  26.680   4.142
78253W        W50678  13.156  26.657   4.114
78254W        W50679   5.879  42.865   4.228
78255W        W50680  42.461  36.954   1.279
78256W        W50681  42.383  19.237  13.344
78257W        W50682   0.901  41.873  11.969
78258W        W50683  39.008  12.247  13.496
78259W        W50684  33.547  14.122   2.241
78260W        W50685  32.069  37.338   3.174
78261W        W50686  35.087  13.250   1.751
78262W        W50687  12.162  13.298  13.316
78263W        W50688  11.715  18.598  12.541
78264W        W50689  16.139  42.496  13.405
78265W        W50690  40.512   4.752  11.512
78266W        W50691  32.569  20.599  12.000
78267W        W50692   6.743  23.732  14.933
78268W        W50693  21.558  10.199   5.756
78269W        W50694  35.914   5.415   4.750
78270W        W50695  19.106   9.675  14.994
78271W        W50696  25.131   8.731   3.325
78272W        W50697   9.224  17.144  14.416
78273W        W50698   7.367  11.171   2.354
78274W        W50699   4.755  24.669   0.737
78275W        W50700   7.361  19.670   0.740
78276W        W50701  19.259  30.478   4.123
78277W        W50702   2.781   4.781  13.054
78278W        W50703   3.712  27.164  13.394
78279W        W50704  18.129  11.164  11.551
78280W        W50705  43.767  28.945  10.495
78281W        W50706  17.126   0.804   3.251
78282W        W50707  43.464  29.638  11.560
78283W        W50708  18.696   8.307  10.436
78284W        W50709  34.556  12.306  14.347
78285W        W50710   9.335   2.384  13.505
78286W        W50711  43.417   2.930   1.407
78287W        W50712  12.626  11.350   4.679
78288W        W50713  30.447  26.668   4.689
78289W        W50714  32.087  23.213   0.342
78290W        W50715  16.566  19.231  12.379
78291W        W50716  44.956  42.796   1.770
78292W        W50717  15.668  12.242   2.310
78293W        W50718   3.801  29.644   1.866
78294W        W50719  41.025  20.095   3.856
78295W        W50720   6.845  23.534   0.844
78296W        W50721   5.879  33.545  14.791
78297W        W50722   8.836  24.539   0.417
78298W        W50723   3.325  14.759   1.743
78299W        W50724  32.978  33.119  12.348
78300W        W50725  19.219  11.361  12.877
78301W        W50726  31.568  20.568  12.995
78302W        W50727   7.691  39.908  11.104
78303W        W50728  31.991   6.191   1.327
78304W        W50729  37.350  34.911   2.211
78305W        W50730  14.593  16.297  12.038
78306W        W50731  37.464   7.789  12.981
78307W        W50732  15.766   6.878  12.569
78308W        W50733   1.375  37.022   0.787
78309W        W50734  33.427  31.556   1.325
78310W        W50735  26.996  36.016  13.863
78311W        W50736  16.201   9.794   4.262
78312W        W50737  37.510  36.466   1.448
78313W        W50738  24.550  19.253  12.563
78314W        W50739  29.080  32.396  14.443
78315W        W50740  28.533  37.934  10.537
78316W        W50741  25.197  11.313  14.507
78317W        W50742  19.057  15.709  14.802
78318W        W50743  23.019  27.499  13.542
78319W        W50744  38.984  34.530   2.385
78320W        W50745  25.702   8.704  10.944
78321W        W50746   9.153  40.488  12.484
78322W        W50747  37.337  43.308   0.266
78323W        W50748  24.118   4.259  12.862
78324W        W50749  16.670  16.753  12.500
78325W        W50750   0.338  26.020  14.962
78326W        W50751   4.285   0.304  12.994
78327W        W50752  32.117  31.606   3.298
78328W        W50753  31.465  12.287  13.795
78329W        W50754   3.420  43.514   3.287
78330W        W50755   5.201  24.484   2.826
78331W        W50756  24.478  38.903  13.037
78332W        W50757  43.919  41.791   0.372
78333W        W50758   5.354   5.233   3.631
78334W        W50759  10.370  24.014  10.517
78335W        W50760  35.004  16.203   0.478
78336W        W50761  15.313   1.296   5.594
78337W        W50762  10.144  12.690   1.269
78338W        W50763  11.770   7.855  11.979
78339W        W50764  36.970  17.104   3.663
78340W        W50765  28.635  10.320  14.840
78341W        W50766  36.964  27.654  13.444
78342W        W50767  42.957  10.220   5.284
78343W        W50768  33.410  12.612   5.321
78344W        W50769  10.651  44.817   1.338
78345W        W50770  40.342  19.262  11.413
78346W        W50771  24.024  14.178  11.959
78347W        W50772  42.378  37.473  11.071
78348W        W50773  30.482  31.513  14.837
78349W        W50774   3.284  31.010   4.241
78350W        W50775  30.634  42.007  13.351
78351W        W50776  38.368  16.163  14.901
78352W        W50777  32.952   0.442   2.812
78353W        W50778  28.552  27.562  12.415
78354W        W50779   6.209  27.488   3.349
78355W        W50780  20.224   5.920   0.245
78356W        W50781   8.792  27.156  11.028
78357W        W50782   8.739  19.104  14.418
78358W        W50783   5.385  25.197   1.382
78359W        W50784  20.652  37.046  11.456
78360W        W50785  14.265  29.510  11.065
78361W        W50786  31.897  29.613  10.890
78362W        W50787   1.474  18.720   2.806
78363W        W50788   6.786  17.067  10.953
78364W        W50789  11.766  15.152   3.164
78365W        W50790  13.128   7.818   2.850
78366W        W50791  32.608  36.039   0.386
78367W        W50792  36.412   0.448  10.895
78368W        W50793  23.164  12.320  10.999
78369W        W50794  35.592  27.950  13.906
78370W        W50795   5.852  43.825   2.312
78371W        W50796  13.217   3.366   4.194
78372W        W50797   1.467  33.463   2.784
78373W        W50798  23.156  25.163  13.857
78374W        W50799   2.315   3.763  13.352
78375W        W50800  35.999  32.074  14.299
78376W        W50801  11.201  11.146   3.304
78377W        W50802  43.278  27.602  11.007
78378W        W50803  35.867  22.100   0.760
78379W        W50804   7.353  10.271  10.100
78380W        W50805  39.934   1.339  13.843
78381W        W50806  13.762   9.643   0.409
78382W        W50807  13.142  14.225   1.263
78383W        W50808   4.899  37.580  14.471
78384W        W50809   2.791   2.887  12.574
78385W        W50810  11.209  35.506   1.807
78386W        W50811  30.924  23.076   3.248
78387W        W50812   1.303  34.441  11.895
78388W        W50813  23.667   9.801  10.516
78389W        W50814  40.508  16.578  10.633
78390W        W50815  37.884   3.414  11.859
78391W        W50816  39.964  19.135   3.724
78392W        W50817  12.297  44.945   3.328
78393W        W50818   7.338  16.747  13.876
78394W        W50819  34.563  25.151  13.049
78395W        W50820   1.247  11.866  10.494
78396W        W50821   3.270  28.929   4.183
78397W        W50822  25.172  24.651   0.850
78398W        W50823   4.940  10.257   4.777
78399W        W50824  17.214   2.924   2.193
78400W        W50825  44.409  44.909   1.257
78401W        W50826   0.753  40.870  10.559
78402W        W50827  23.082   5.792  12.559
78403W        W50828  35.410  24.550   2.213
78404W        W50829  28.099   2.788  10.482
78405W        W50830  30.539   7.746  12.010
78406W        W50831  30.506  28.086  14.946
78407W        W50832  32.981  44.337  11.403
78408W        W50833  17.305  13.173  11.392
78409W        W50834   5.278  43.768  10.549
78410W        W50835   8.208  39.985   3.274
78411W        W50836  40.855  40.516  11.611
78412W        W50837  17.169  19.690   1.374
78413W        W50838  10.374  40.048  10.410
78414W        W50839  41.498  37.336  13.926
78415W        W50840  44.950  37.955  13.367
78416W        W50841  24.590   3.349  10.585
78417W        W50842  20.148  15.758   1.403
78418W        W50843   7.182  35.384  11.501
78419W        W50844  35.005  39.855   0.800
78420W        W50845  37.955  12.340  13.545
78421W        W50846  36.501  18.729   1.751
78422W        W50847  35.941  43.448   2.756
78423W        W50848  21.590  44.960   2.670
78424W        W50849  32.959  15.133   1.805
78425W        W50850  42.033  33.530   1.921
78426W        W50851   8.208  13.321  11.546
78427W        W50852  14.772  29.077   4.194
78428W        W50853  14.136  29.136   4.807
78429W        W50854  41.475  40.025   1.822
78430W        W50855   8.256  10.786   4.776
78431W        W50856  34.603  27.670   1.791
78432W        W50857   6.903  34.945  14.791
78433W        W50858   5.798  24.613   0.284
78434W        W50859   9.314  28.443  11.386
78435W        W50860  14.642  11.636  12.957
78436W        W50861   1.373  26.013   4.794
78437W        W50862  43.768  40.308   0.800
78438W        W50863  39.405  24.010  12.062
78439W        W50864  38.955  17.611   0.386
78440W        W50865  23.145   7.821   1.300
78441W        W50866  21.244  33.070   4.788
78442W        W50867   4.334   7.775  12.480
78443W        W50868   2.414  42.351  14.880
78444W        W50869  27.120   9.726  10.460
78445W        W50870  12.822  44.338   0.766
78446W        W50871   8.374  32.493   2.795
78447W        W50872  36.980  24.146  14.997
78448W        W50873   4.286   7.218   4.162
78449W        W50874  25.628  34.447   2.857
78450W        W50875  25.534  43.467  10.470
78451W        W50876  15.316  20.710  11.382
78452W        W50877  29.434  36.061   2.196
78453W        W50878  41.440  41.998  14.879
78454W        W50879  13.211  30.454   1.924
78455W        W50880   6.314  38.480   2.210
78456W        W50881  19.245  11.310  10.889
78457W        W50882  10.360  42.447   0.447
78458W        W50883   7.172  12.128  13.937
78459W        W50884  27.487  37.478   4.705
78460W        W50885  39.972  22.555  14.032
78461W        W50886  39.503  23.227  11.061
78462W        W50887  29.456  38.384   3.334
78463W        W50888   4.940  26.019  14.462
78464W        W50889  33.516   1.933  13.946
78465W        W50890  14.632  28.961   3.209
78466W        W50891  40.543  34.390   2.682
78467W        W50892  18.247  12.300   4.676
78468W        W50893  22.565  41.813   1.314
78469W        W50894  25.102   0.766  13.044
78470W        W50895  43.487  30.570   4.691
78471W        W50896  32.933  16.227  12.345
78472W        W50897  26.041  35.894  14.781
78473W        W50898  43.395  33.896  13.398
78474W        W50899   7.268  31.416   4.280
78475W        W50900  39.552  39.541  11.033
78476W        W50901  13.812  12.729   2.889
78477W        W50902  21.645   6.785   2.178
78478W        W50903  17.188   8.237  11.571
78479W        W50904  36.891   6.236  13.797
78480W        W50905  35.046  42.325   1.405
78481W        W50906  30.020   0.805  14.905
78482W        W50907  23.993  37.525  12.005
78483W        W50908   3.934  14.735  12.467
78484W        W50909   6.419   9.327   2.268
78485W        W50910  16.243  17.595  12.516
78486W        W50911  29.566  16.758  13.490
78487W        W50912  13.676  25.158   9.562
78488W        W50913  42.304  32.074  14.451
78489W        W50914  28.073  27.656  14.326
78490W        W50915  19.149  24.651  12.992
78491W        W50916  18.589  28.931   2.224
78492W        W50917   4.246  26.985  14.831
78493W        W50918   2.864  31.578  14.013
78494W        W50919   7.216  14.189   4.274
78495W        W50920  16.700   1.785   0.794
78496W        W50921   0.287  29.160   3.221
78497W        W50922   2.919  25.069  14.960
78498W        W50923  31.063  41.312   3.684
78499W        W50924  13.747  31.444  10.471
78500W        W50925  42.846  29.060   3.667
78501W        W50926  24.095  13.129  10.590
78502W        W50927  13.263  43.821  13.362
78503W        W50928  43.890  16.102  14.905
78504W        W50929  33.548  28.438  12.340
78505W        W50930  17.232  27.122   1.800
78506W        W50931  40.323  30.146   4.625
78507W        W50932  26.476  10.335  13.388
78508W        W50933  27.029  21.675   4.718
78509W        W50934  31.594  15.291  11.430
78510W        W50935  32.507  15.329   4.184
78511W        W50936   1.354  31.426  14.870
78512W        W50937  42.300  31.476  10.921
78513W        W50938  27.077  32.582   5.606
78514W        W50939  21.251  33.439   4.722
78515W        W50940   2.278  30.499   3.869
78516W        W50941  16.644  11.859  12.527
78517W        W50942  36.096  37.915   0.919
78518W        W50943  15.773   0.248   4.242
78519W        W50944  11.662  20.552  10.638
78520W        W50945  28.085  27.173   0.927
78521W        W50946  14.769   7.679   2.280
78522W        W50947   0.976  17.079   0.851
78523W        W50948  30.076  32.617   9.485
78524W        W50949  23.734  40.906  12.006
78525W        W50950   4.367   6.338  11.923
78526W        W50951   9.694  24.626  12.417
78527W        W50952  14.304   0.257  13.316
78528W        W50953  39.417   5.234  10.432
78529W        W50954  27.606  19.705  13.473
78530W        W50955  12.290  39.867  10.492
78531W        W50956  10.257  36.382   4.158
78532W        W50957  28.977  44.449   0.386
78533W        W50958   0.885  41.335   3.814
78534W        W50959  24.626  24.097   0.409
78535W        W50960  19.706   1.299   4.732
78536W        W50961  32.094  28.568  13.951
78537W        W50962   9.760  30.457  14.832
78538W        W50963   0.363  16.708   1.215
78539W        W50964  13.797  37.046   2.898
78540W        W50965  24.124  43.886   2.297
78541W        W50966  35.538  24.016  13.909
78542W        W50967  14.631   1.771  10.447
78543W        W50968   8.248   6.792   2.390
78544W        W50969  19.141  11.750   2.343
78545W        W50970  33.067  41.855   2.364
78546W        W50971  23.132  15.630  13.489
78547W        W50972  29.543  20.137   3.695
78548W        W50973  15.095   3.343   0.919
78549W        W50974   7.822  43.929  12.349
78550W        W50975   2.835  30.520  13.968
78551W        W50976  22.163  15.140   4.286
78552W        W50977  11.653  18.067   0.327
78553W        W50978  16.754  15.159  12.929
78554W        W50979  13.190  40.902  13.395
78555W        W50980  24.502  20.686  11.919
78556W        W50981  13.731  16.182   4.279
78557W        W50982  42.313  43.279   4.819
78558W        W50983  14.740  37.395   2.687
78559W        W50984  36.368  22.691   0.738
78560W        W50985  43.509  24.077  14.952
78561W        W50986  11.629  30.978  14.994
78562W        W50987  43.963  37.335   1.422
78563W        W50988  41.482  15.323   3.699
78564W        W50989  29.548  41.534  13.994
78565W        W50990   1.450  10.165   1.918
78566W        W50991  19.758  17.077  11.583
78567W        W50992  17.166  25.198   3.765
78568W        W50993  38.439   5.342   2.797
78569W        W50994  20.523  33.877   4.309
78570W        W50995  20.531  24.166  12.906
78571W        W50996  29.551  29.130  14.896
78572W        W50997  11.318  14.758   0.435
78573W        W50998  17.222  39.490   0.406
78574W        W50999  29.998  23.214   3.738
78575W        W51000  24.973  19.746   3.664
78576W        W51001   1.942  12.751  13.377
78577W        W51002  29.535  11.774  13.901
78578W        W51003  17.166  29.138   3.199
78579W        W51004   9.695  17.178  11.541
78580W        W51005  30.426  38.929   2.871
78581W        W51006  25.489  17.577   4.799
78582W        W51007  37.914  39.328   0.397
78583W        W51008  36.016  43.464  11.536
78584W        W51009  15.749  18.788   0.811
78585W        W51010  33.421   2.351   2.297
78586W        W51011  12.777  33.104  14.985
78587W        W51012  30.087  11.270  11.564
78588W        W51013   4.909  30.074   1.698
78589W        W51014  31.114  15.290   4.700
78590W        W51015  39.400  14.151   1.924
78591W        W51016  32.100  12.342   4.180
78592W        W51017  14.620  40.518  14.350
78593W        W51018   6.864  13.650   1.360
78594W        W51019   4.727  13.231   2.716
78595W        W51020  25.085   3.936  13.503
78596W        W51021  38.444  17.767   1.351
78597W        W51022   5.430  34.582   3.810
78598W        W51023  27.967  31.637  11.973
78599W        W51024  12.297  12.229  11.935
78600W        W51025  26.659  23.013  14.015
78601W        W51026  29.437  34.889   3.795
78602W        W51027  34.453   0.377  11.060
78603W        W51028  43.515  40.326   4.656
78604W        W51029  19.113  12.324  12.484
78605W        W51030  23.542   7.305   2.340
78606W        W51031  40.391  15.276   1.766
78607W        W51032   1.370  18.605   0.287
78608W        W51033   3.907   6.364  13.051
78609W        W51034  19.153  30.452   4.671
78610W        W51035  16.788  41.304   1.387
78611W        W51036  33.037   9.691   3.331
78612W        W51037  18.609   0.451  13.972
78613W        W51038   8.888  29.951   4.129
78614W        W51039   2.907  32.929   0.851
78615W        W51040  35.082   5.747   1.289
78616W        W51041   4.724  43.871  13.410
78617W        W51042  21.722   5.926  10.968
78618W        W51043   2.869   6.725   0.755
78619W        W51044  15.681  24.680   3.207
78620W        W51045  29.921  11.644   0.306
78621W        W51046  42.451   8.263  14.024
78622W        W51047  18.173   8.392  14.827
78623W        W51048  28.660  34.060  11.929
78624W        W51049  34.395  29.166  12.060
78625W        W51050  15.302  37.975  12.580
78626W        W51051  23.198   9.318  12.540
78627W        W51052  22.612  40.995  13.890
78628W        W51053  11.695  41.469  10.889
78629W        W51054  38.938  14.307   4.145
78630W        W51055  31.149   5.762   2.782
78631W        W51056  41.456  35.905  14.423
78632W        W51057  37.009   0.820  13.938
78633W        W51058   8.833   2.936  11.041
78634W        W51059  36.071  38.344   0.861
78635W        W51060  18.183   2.818   1.906
78636W        W51061  14.764  17.768  12.570
78637W        W51062   3.763   9.800  14.289
78638W        W51063  20.743   7.227  13.368
78639W        W51064  13.742  17.070   3.671
78640W        W51065   4.746  23.130  14.783
78641W        W51066   5.424  41.435  10.990
78642W        W51067  42.021  20.726   4.289
78643W        W51068  36.412  33.990  11.394
78644W        W51069   9.665  13.785  14.422
78645W        W51070  37.498  39.919  14.464
78646W        W51071  15.663  30.946  12.067
78647W        W51072  21.096  21.245   4.345
78648W        W51073  15.810  34.967  11.996
78649W        W51074  31.141  20.729   3.807
78650W        W51075  28.973  41.527   2.312
78651W        W51076  25.545  23.145  11.601
78652W        W51077  42.502  43.894  12.504
78653W        W51078  34.419  34.945  13.867
78654W        W51079   8.235  23.007  11.936
78655W        W51080  25.066   7.697   5.260
78656W        W51081  38.943  38.536  12.844
78657W        W51082   0.479  24.224   2.665
78658W        W51083   0.425  41.885   1.721
78659W        W51084   3.276   3.298   2.226
78660W        W51085  42.970  21.567  13.026
78661W        W51086  38.414  16.652   3.334
78662W        W51087  31.629  35.476  13.503
78663W        W51088  36.389   9.295  13.950
78664W        W51089  40.809   0.757   3.347
78665W        W51090  19.191  12.133  10.557
78666W        W51091  28.466  37.996  13.497
78667W        W51092  12.739   1.460   4.186
78668W        W51093  16.782  26.010  10.548
78669W        W51094  36.454  41.454   0.813
78670W        W51095  10.774  18.702  10.991
78671W        W51096   4.727  37.483   3.722
78672W        W51097  42.497   1.361  11.898
78673W        W51098   1.744  25.140   4.651
78674W        W51099  19.771   7.898   4.763
78675W        W51100  34.460   3.913  13.931
78676W        W51101  33.607  39.431  14.856
78677W        W51102  24.523  25.707   2.761
78678W        W51103   8.217   5.821   2.411
78679W        W51104  12.789   0.933   2.767
78680W        W51105  38.946   3.327   4.233
78681W        W51106  16.799  42.979   4.119
78682W        W51107  29.542  10.877  13.315
78683W        W51108  30.506  37.066   4.645
78684W        W51109  20.140  37.486   3.195
78685W        W51110  13.175  13.227  13.822
78686W        W51111   4.912  27.512   0.292
78687W        W51112   9.724  16.746  10.419
78688W        W51113   3.717  17.170   4.253
78689W        W51114  42.914  44.764  10.465
78690W        W51115   3.803  20.713  14.352
78691W        W51116  24.213   1.480  12.039
78692W        W51117  26.636   5.195   3.264
78693W        W51118  20.051  27.966  13.468
78694W        W51119  21.689  42.864   3.832
78695W        W51120   7.253  10.827  14.903
78696W        W51121  41.980  34.064   0.312
78697W        W51122  29.102   1.254   1.791
78698W        W51123  30.136  42.009   4.833
78699W        W51124  27.109  24.576   0.736
78700W        W51125  31.529  37.927   2.721
78701W        W51126  35.502  33.108   1.832
78702W        W51127   6.723  34.511   3.274
78703W        W51128  17.075  19.776   0.895
78704W        W51129  44.302  21.175   0.953
78705W        W51130   8.346  36.971  10.080
78706W        W51131   3.256  43.839   4.824
78707W        W51132  42.945  17.229  11.471
78708W        W51133  42.407  12.780   1.231
78709W        W51134  20.648  29.981  11.559
78710W        W51135  21.521   5.347   0.397
78711W        W51136  26.988   3.330  13.863
78712W        W51137  41.893  22.695   0.337
78713W        W51138  12.794   6.756   3.154
78714W        W51139  36.578   3.895   1.242
78715W        W51140   7.219  43.813   4.802
78716W        W51141  31.538  32.563  13.807
78717W        W51142  17.303  17.703   4.829
78718W        W51143  40.041  44.762   9.936
78719W        W51144  24.655  37.032   0.818
78720W        W51145  32.627  10.219   3.204
78721W        W51146  34.029  31.119  13.425
78722W        W51147  28.557  34.966   4.612
78723W        W51148  14.813  24.537   4.604
78724W        W51149  42.417  32.403  14.280
78725W        W51150  26.661  20.743  10.943
78726W        W51151  14.725   7.908  11.485
78727W        W51152  34.921  41.310   3.176
78728W        W51153  30.967  18.263  13.051
78729W        W51154  12.290  42.452   0.950
78730W        W51155   8.781  16.610  12.418
78731W        W51156  34.084   9.289  10.465
78732W        W51157   7.237  32.441  13.437
78733W        W51158  35.924  17.179   2.381
78734W        W51159  19.239   3.264   3.376
78735W        W51160  17.767  26.638   0.304
78736W        W51161   8.803  42.820  11.396
78737W        W51162  21.517  11.820   0.403
78738W        W51163   6.408  29.433   3.668
78739W        W51164  31.096  35.958  10.926
78740W        W51165   9.305   5.800  13.012
78741W        W51166   4.447  38.935   0.470
78742W        W51167  42.422  12.677  11.434
78743W        W51168  14.616   6.346  10.151
78744W        W51169  31.430  17.149  12.485
78745W        W51170  13.827  22.694  11.462
78746W        W51171   1.881  24.128   4.608
78747W        W51172  30.148  38.015   3.219
78748W        W51173  16.752  36.416  13.945
78749W        W51174  25.109   0.846  11.003
78750W        W51175  35.520  36.098  11.544
78751W        W51176  41.018  22.122   2.856
78752W        W51177  11.658  13.132   9.961
78753W        W51178  31.483   0.292   1.717
78754W        W51179  41.420  18.641  11.457
78755W        W51180  43.274  31.032   0.439
78756W        W51181   5.890   2.239  14.506
78757W        W51182  23.527  29.047   2.782
78758W        W51183  28.505  33.541  11.955
78759W        W51184  26.138  41.981  13.907
78760W        W51185  42.489   6.702   0.261
78761W        W51186  38.015  34.541  13.840
78762W        W51187  10.257   4.932   4.245
78763W        W51188  39.855   3.263  13.418
78764W        W51189  37.452  24.123  10.601
78765W        W51190  31.594  26.664  14.346
78766W        W51191  23.663  33.037  10.576
78767W        W51192   9.646   6.824  14.949
78768W        W51193  36.879  19.674   0.859
78769W        W51194  34.382  20.127   3.638
78770W        W51195  31.100  19.171   3.156
78771W        W51196  43.364   8.819   3.189
78772W        W51197  41.501  16.093   4.266
78773W        W51198  30.106  41.458   0.735
78774W        W51199   6.274  35.894   1.426
78775W        W51200  26.114  19.696  13.367
78776W        W51201  38.399  35.583  14.350
78777W        W51202  21.699  36.851   1.386
78778W        W51203  25.015   2.410  14.015
78779W        W51204  27.679  17.712  14.857
78780W        W51205  14.605  17.237   3.734
78781W        W51206  17.304  15.141  11.383
78782W        W51207  26.002  41.801   2.858
78783W        W51208   5.210  41.444  13.391
78784W        W51209   6.373  40.507   0.477
78785W        W51210  15.138  40.850  13.904
78786W        W51211  14.229  36.578  13.419
78787W        W51212   1.359  28.458   3.276
78788W        W51213  41.335  21.713  12.887
78789W        W51214  22.713  37.358   4.216
78790W        W51215  30.935  27.507  12.477
78791W        W51216  30.987  16.598  14.472
78792W        W51217  39.555  15.201   4.830
78793W        W51218  23.036  21.095   3.838
78794W        W51219   0.434  39.838  11.584
78795W        W51220   1.790   4.448  14.347
78796W        W51221  34.486   2.844   4.134
78797W        W51222  32.110  24.694   1.442
78798W        W51223   5.243   1.901  12.497
78799W        W51224  32.077   5.884   4.127
78800W        W51225  33.112  11.679  13.352
78801W        W51226  26.198  44.368  14.353
78802W        W51227  36.963  23.990  10.405
78803W        W51228  29.668  26.958  12.057
78804W        W51229   4.807   6.683   2.406
78805W        W51230  40.845  35.591   1.328
78806W        W51231   4.262  22.746   1.714
78807W        W51232   1.257  36.387  10.631
78808W        W51233   3.396   6.366  11.103
78809W        W51234   7.198  15.780  13.850
78810W        W51235   9.730  14.634  13.837
78811W        W51236  31.013  36.435   3.267
78812W        W51237  34.981  41.295  10.942
78813W        W51238   0.756  32.939  10.016
78814W        W51239  29.087  31.999  13.453
78815W        W51240  25.488   6.789   1.320
78816W        W51241   1.344  36.856   0.397
78817W        W51242  29.064  39.370  14.852
78818W        W51243  37.943  25.616  13.360
78819W        W51244  36.023  31.627   3.658
78820W        W51245  31.109  33.523   1.343
78821W        W51246  15.109  37.062   2.340
78822W        W51247   1.414  23.635  12.394
78823W        W51248  39.392  33.524   1.876
78824W        W51249  40.448  42.376  13.898
78825W        W51250  27.117  37.350   1.249
78826W        W51251  29.451  29.624  10.937
78827W        W51252   4.787  18.745  14.450
78828W        W51253  26.024  34.437   2.865
78829W        W51254  32.440  44.779   2.694
78830W        W51255  10.801  43.378   2.198
78831W        W51256  13.230  23.117   3.863
78832W        W51257  39.341  40.498   2.798
78833W        W51258   4.867  34.118  11.423
78834W        W51259  34.499  40.335   4.117
78835W        W51260   4.864  23.664  12.485
78836W        W51261  21.176  25.023  12.489
78837W        W51262  26.179  19.775  13.840
78838W        W51263   4.378   1.924   2.266
78839W        W51264   9.721  19.241   4.736
78840W        W51265  16.696  39.539  11.922
78841W        W51266  12.613  39.887   3.294
78842W        W51267  38.514   5.697   3.832
78843W        W51268  22.583  10.229  12.940
78844W        W51269  39.930  24.090  13.418
78845W        W51270   0.281  34.590   3.356
78846W        W51271  28.555   1.279  12.966
78847W        W51272  25.675  14.306  11.090
78848W        W51273   2.815  36.542  11.400
78849W        W51274  37.455  14.685   5.236
78850W        W51275   9.313   6.301   0.913
78851W        W51276  10.160  40.822   3.286
78852W        W51277  39.556  19.581  13.448
78853W        W51278  40.477  14.685  11.863
78854W        W51279   0.784  34.099   3.357
78855W        W51280   5.764  12.276   0.358
78856W        W51281  15.670   6.346   2.679
78857W        W51282  23.562  32.037  13.899
78858W        W51283  33.068  12.633  13.403
78859W        W51284  12.806  35.498  11.406
78860W        W51285  12.172  19.277  13.886
78861W        W51286  31.897  36.452   5.091
78862W        W51287  29.630  28.154  11.066
78863W        W51288   1.933  10.780   0.279
78864W        W51289  10.350  14.110   0.397
78865W        W51290  11.663  18.177  13.485
78866W        W51291  42.785   9.294   3.261
78867W        W51292  30.483  13.251   0.759
78868W        W51293  25.986  32.948   4.811
78869W        W51294  18.292  32.404   1.291
78870W        W51295   8.371  35.887   1.820
78871W        W51296   6.760  13.265  13.466
78872W        W51297  36.013   6.695  13.357
78873W        W51298  25.579  25.114  11.941
78874W        W51299   9.272  32.407   2.798
78875W        W51300  27.033  42.445   3.151
78876W        W51301  30.557   0.946   5.228
78877W        W51302  23.117  18.780   1.398
78878W        W51303   9.824  14.659  14.771
78879W        W51304  24.037  36.058   3.645
78880W        W51305  30.160  33.103  13.805
78881W        W51306  21.044  39.966   3.701
78882W        W51307  19.188   2.252  14.803
78883W        W51308  18.741  37.410  10.421
78884W        W51309  26.104  39.470   4.766
78885W        W51310  35.513  43.402   2.221
78886W        W51311  26.502  39.011  11.459
78887W        W51312  25.607   8.255   2.664
78888W        W51313  22.529  13.296  12.860
78889W        W51314  16.187  20.092   3.781
78890W        W51315  27.033  22.691  11.974
78891W        W51316  17.164  40.950  14.319
78892W        W51317  11.654  40.488  14.795
78893W        W51318  38.465  14.793  11.539
78894W        W51319  35.078  24.982  10.934
78895W        W51320   2.744  23.114   3.178
78896W        W51321  22.645  18.601   0.926
78897W        W51322   4.324  12.830   4.656
78898W        W51323  36.517  41.888   4.763
78899W        W51324  10.643   3.756   3.773
78900W        W51325  30.622  37.043   2.308
78901W        W51326  35.370  24.601   4.163
78902W        W51327   0.372   6.282  11.561
78903W        W51328  12.765  25.074   2.366
78904W        W51329  35.512  31.510   0.395
78905W        W51330  23.007  27.063   1.862
78906W        W51331   7.338  18.662   1.783
78907W        W51332  31.120  16.707   3.183
78908W        W51333  29.632  42.845  14.380
78909W        W51334  18.687  12.182   1.920
78910W        W51335   0.297  37.468   4.283
78911W        W51336  15.762  27.940  10.411
78912W        W51337  24.689  42.884  12.016
78913W        W51338  19.183  43.982  11.578
78914W        W51339   5.914  30.157  11.551
78915W        W51340  39.461  31.578  10.476
78916W        W51341  12.148  31.596   3.692
78917W        W51342  41.497  25.668  12.960
78918W        W51343  15.312   3.797   3.791
78919W        W51344   6.733  43.921  14.895
78920W        W51345  38.511  30.576  14.419
78921W        W51346  44.456  16.634   4.775
78922W        W51347  21.112   9.689  14.298
78923W        W51348  28.164  38.993   1.873
78924W        W51349  25.069   4.891   3.265
78925W        W51350  37.348  10.828  12.009
78926W        W51351  13.806  33.616  11.456
78927W        W51352  27.049  38.537   2.184
78928W        W51353  36.095   6.305  12.527
78929W        W51354  22.110  44.763  11.877
78930W        W51355  23.630  19.207   2.310
78931W        W51356  36.074  27.979   2.302
78932W        W51357  29.478  23.613  11.438
78933W        W51358  25.037  30.123  12.563
78934W        W51359   7.414  37.921  11.093
78935W        W51360  23.608  44.786  12.031
78936W        W51361  39.332   9.197   1.326
78937W        W51362  14.103  40.509  10.993
78938W        W51363  17.230  18.201   2.223
78939W        W51364  44.831  24.055  13.907
78940W        W51365  30.073  18.138   4.156
78941W        W51366  12.124   5.911  10.897
78942W        W51367  14.186  19.537   4.312
78943W        W51368  31.605  13.667   3.691
78944W        W51369  17.788  40.864  12.837
78945W        W51370  38.892  25.097   1.315
78946W        W51371  32.960   0.825   2.678
78947W        W51372   8.890   5.913  12.066
78948W        W51373   1.731  29.627   2.280
78949W        W51374  14.322  27.132   3.817
78950W        W51375  21.049  42.795  14.909
78951W        W51376  19.757   7.333  10.934
78952W        W51377  17.207  31.565   1.832
78953W        W51378  12.127  42.526  13.995
78954W        W51379  40.028   0.954  12.439
78955W        W51380  23.019  14.114  12.520
78956W        W51381   8.331  18.777   2.794
78957W        W51382  26.540  11.237  12.403
78958W        W51383   5.896   4.261  11.431
78959W        W51384   6.388  23.717  13.527
78960W        W51385   0.444  32.395   4.749
78961W        W51386  39.422  25.214   0.322
78962W        W51387  18.160  42.012  13.825
78963W        W51388  31.153  30.018   3.668
78964W        W51389  29.428  22.012   3.205
78965W        W51390  16.280  28.510   3.252
78966W        W51391  33.578   0.985   4.344
78967W        W51392  36.904  15.717   2.799
78968W        W51393   1.345  27.571   3.171
78969W        W51394  17.195   7.269   2.802
78970W        W51395  40.347  20.615  10.459
78971W        W51396  16.252  15.629  10.629
78972W        W51397  38.363   9.392   3.169
78973W        W51398  25.050  19.142  10.543
78974W        W51399  23.190  22.164   0.835
78975W        W51400  32.430  17.584  12.526
78976W        W51401  40.817  12.628  11.529
78977W        W51402   7.900   5.320   0.940
78978W        W51403   1.378  35.984  13.842
78979W        W51404  33.118  33.906   3.654
78980W        W51405  23.164   7.858  13.345
78981W        W51406  21.126  38.991   1.848
78982W        W51407   1.386  42.285  12.918
78983W        W51408  30.933  42.491   1.359
78984W        W51409   2.293  29.101  11.061
78985W        W51410  39.937  28.469   4.713
78986W        W51411  31.919   7.230   3.842
78987W        W51412  42.432   0.428  14.779
78988W        W51413   9.383  43.004   4.719
78989W        W51414  35.957  11.782  13.875
78990W        W51415  43.385  13.690   3.254
78991W        W51416  18.596  42.785   3.683
78992W        W51417   1.360   6.706  12.560
78993W        W51418  32.073  23.550   3.204
78994W        W51419  24.085  14.111  13.422
78995W        W51420  34.976  26.959   2.194
78996W        W51421  15.658   5.850   3.694
78997W        W51422  14.626  18.679   3.383
78998W        W51423  30.026  30.049  13.889
78999W        W51424  37.954  41.936   4.207
79000W        W51425   4.232  25.000   0.773
79001W        W51426  31.934  27.537  12.530
79002W        W51427  29.991  16.105   4.818
79003W        W51428  33.515  39.524   1.320
79004W        W51429   6.227  25.051   1.348
79005W        W51430  21.100  20.528  10.492
79006W        W51431  21.735   7.388  12.089
79007W        W51432  44.981  27.592   0.877
79008W        W51433   0.817  29.658  14.826
79009W        W51434  39.043  22.657   0.849
79010W        W51435   2.437  41.943   3.254
79011W        W51436   3.807  11.745   1.341
79012W        W51437   0.407  39.026  13.453
79013W        W51438  30.588  43.923  12.020
79014W        W51439  10.379  15.623  13.947
79015W        W51440  31.099  28.086   3.311
79016W        W51441  28.088   1.934   3.292
79017W        W51442  29.558   0.354   2.892
79018W        W51443  36.482  11.746   0.730
79019W        W51444  17.625  21.095  10.452
79020W        W51445   1.402  23.010  13.941
79021W        W51446   5.367   0.912  11.958
79022W        W51447  44.291  39.449  10.969
79023W        W51448  30.151  32.628   3.772
79024W        W51449  12.676  20.104  14.493
79025W        W51450  15.580  40.496   4.685
79026W        W51451  14.330   3.221  14.863
79027W        W51452  20.756   0.979  13.343
79028W        W51453  33.588   9.198  10.943
79029W        W51454  23.558  32.904   2.212
79030W        W51455  23.023  14.303  10.610
79031W        W51456   5.838  25.577  14.420
79032W        W51457  33.555   1.340  13.861
79033W        W51458  22.052  22.128  12.912
79034W        W51459  13.200   4.223  10.917
79035W        W51460  27.673  32.536   0.944
79036W        W51461  35.591   9.259  10.512
79037W        W51462  33.549  20.630  11.436
79038W        W51463  14.274  21.191   3.748
79039W        W51464  42.879  18.085  10.009
79040W        W51465  27.501  12.291  13.447
79041W        W51466  32.926   2.754  14.500
79042W        W51467  11.685  35.537  12.027
79043W        W51468  29.448   4.299   0.450
79044W        W51469  16.799   8.384   1.784
79045W        W51470  30.478  32.553  11.885
79046W        W51471  36.998  40.922   4.118
79047W        W51472  12.683   6.187  10.547
79048W        W51473  12.824  40.421  12.352
79049W        W51474  42.480   1.972  14.026
79050W        W51475  43.931  34.513   4.314
79051W        W51476  36.428  43.799   2.181
79052W        W51477  26.591  41.975  11.129
79053W        W51478  19.063  38.528  11.062
79054W        W51479  20.717   3.452  10.474
79055W        W51480  14.219   3.732   3.289
79056W        W51481  33.041   8.866   0.309
79057W        W51482  24.722  10.753  12.388
79058W        W51483  10.304  39.369  12.887
79059W        W51484   9.858  20.259   2.219
79060W        W51485  32.021   2.761   0.330
79061W        W51486  17.190  13.654   0.469
79062W        W51487   7.222  32.507   0.289
79063W        W51488   1.758  44.784  14.279
79064W        W51489  32.611  29.146  10.403
79065W        W51490  13.734  40.341   0.856
79066W        W51491   3.380   7.346  13.428
79067W        W51492  28.062  26.972   3.791
79068W        W51493  23.665  35.068   0.369
79069W        W51494  40.913  21.532  13.343
79070W        W51495  41.871   3.426  13.918
79071W        W51496  32.903  41.016   2.836
79072W        W51497  24.034  24.500   3.758
79073W        W51498   1.251  31.605   1.388
79074W        W51499  15.160  33.591  11.011
79075W        W51500   5.371  26.132  12.526
79076W        W51501  26.611  13.264   1.850
79077W        W51502  34.571  41.919  11.404
79078W        W51503  18.699  34.979   1.698
79079W        W51504  22.200  20.048   0.798
79080W        W51505   9.659  11.349   4.763
79081W        W51506  43.440  33.444   4.820
79082W        W51507  20.082   6.866   3.159
79083W        W51508  12.798  27.093   2.860
79084W        W51509  23.075  43.386   0.335
79085W        W51510  19.549   8.843   0.351
79086W        W51511  18.640  42.473  13.794
79087W        W51512  12.809  40.387   2.755
79088W        W51513  21.230  28.150  14.498
79089W        W51514  33.418   9.316   2.223
79090W        W51515  23.655   5.841   0.337
79091W        W51516   5.894  24.607  10.641
79092W        W51517  36.401  25.554  10.581
79093W        W51518  26.015   9.766   3.659
79094W        W51519  18.103  14.819   0.795
79095W        W51520  42.321  25.159  11.100
79096W        W51521  31.481  19.089   1.252
79097W        W51522   8.385  28.593   2.782
79098W        W51523   7.319  28.975   0.435
79099W        W51524  25.971  28.029   4.697
79100W        W51525  21.625  25.963   4.679
79101W        W51526  25.468  44.930   2.851
79102W        W51527  37.037   4.896  11.866
79103W        W51528  43.419   2.823  10.553
79104W        W51529   6.209  30.598   1.371
79105W        W51530  18.066   8.333  13.056
79106W        W51531  43.846  39.425   4.192
79107W        W51532  19.178  27.468   2.388
79108W        W51533   3.290  33.515  14.277
79109W        W51534  20.047  43.872   0.740
79110W        W51535  23.163  33.129  14.906
79111W        W51536   5.387   9.292   1.399
79112W        W51537  29.009  31.899   0.310
79113W        W51538  20.537  14.143   3.798
79114W        W51539  34.947  28.140   1.420
79115W        W51540  37.082  26.066  12.937
79116W        W51541  22.699  22.637  10.003
79117W        W51542  44.362   6.754   3.341
79118W        W51543   4.437  41.846  12.415
79119W        W51544  30.112  28.550   1.285
79120W        W51545  38.062  43.399  11.051
79121W        W51546  17.235  20.121  12.473
79122W        W51547  40.378  16.164   2.675
79123W        W51548  15.167  24.211   4.676
79124W        W51549  39.485  36.979  13.535
79125W        W51550   1.889  35.481   0.931
79126W        W51551  42.843  23.074   1.847
79127W        W51552   0.365  23.567   4.345
79128W        W51553   3.936  31.917  14.966
79129W        W51554  37.493  28.143  10.932
79130W        W51555  22.534  19.551   1.841
79131W        W51556  11.860   2.768   0.338
79132W        W51557  10.773  33.039  13.392
79133W        W51558  43.899  35.858  12.991
79134W        W51559  44.948  29.056   1.425
79135W        W51560  15.305  42.790  12.089
79136W        W51561  12.791   0.464  10.430
79137W        W51562  40.476  32.030   3.153
79138W        W51563  28.158  27.042  10.127
79139W        W51564  22.664   0.894  11.903
79140W        W51565   3.248  34.443   4.251
79141W        W51566  18.295  16.303   1.868
79142W        W51567  34.111   3.434   1.765
79143W        W51568  27.537  22.100   2.231
79144W        W51569  41.473  31.948   3.324
79145W        W51570  43.021  30.917  10.624
79146W        W51571  36.571  22.191   2.298
79147W        W51572  44.976  30.966   0.853
79148W        W51573  14.676  26.965  14.764
79149W        W51574  30.495   9.838  12.930
79150W        W51575  23.490  10.228   4.331
79151W        W51576   3.319  41.448  11.127
79152W        W51577  15.672  18.224  12.964
79153W        W51578  40.901  35.476   0.864
79154W        W51579   9.380  44.323  13.911
79155W        W51580  18.747   0.804  11.017
79156W        W51581  10.377  35.901   1.914
79157W        W51582  26.652  36.358  14.965
79158W        W51583   8.866  24.022  13.061
79159W        W51584  39.443  37.839  11.396
79160W        W51585  29.590  19.076   1.284
79161W        W51586   6.265  39.033   0.739
79162W        W51587   1.413  18.650   3.154
79163W        W51588   8.896  27.949  12.532
79164W        W51589   4.301  32.394   0.296
79165W        W51590  14.136   6.238  12.551
79166W        W51591  24.668  33.415  14.814
79167W        W51592  44.969  27.657   2.758
79168W        W51593  44.383   1.365  12.890
79169W        W51594  11.715  18.212  14.832
79170W        W51595  14.599  37.462   3.746
79171W        W51596  26.599  21.592  12.864
79172W        W51597  32.611  44.287  11.067
79173W        W51598   8.341   5.913  11.456
79174W        W51599  17.062  21.747  12.554
79175W        W51600  22.519  11.259  13.800
79176W        W51601  37.059  24.063   3.360
79177W        W51602   4.861  40.898  14.504
79178W        W51603   4.885  33.538   0.339
79179W        W51604  35.419  41.469  12.984
79180W        W51605  39.353   3.255  14.848
79181W        W51606  20.046  31.576  10.536
79182W        W51607  19.590  25.484  10.999
79183W        W51608  23.527  30.425   2.305
79184W        W51609   7.257  14.139   2.199
79185W        W51610   1.967   9.675   0.939
79186W        W51611  41.844  37.509  13.018
79187W        W51612  15.139  38.564  14.875
79188W        W51613  42.474  33.978   0.941
79189W        W51614  43.323  27.636   4.171
79190W        W51615  23.206  30.474  12.480
79191W        W51616  33.526  40.008   9.955
79192W        W51617  15.797   5.334  14.782
79193W        W51618  24.611  38.446   3.226
79194W        W51619  42.339  23.589   1.896
79195W        W51620   0.753  25.700  13.988
79196W        W51621   9.759  20.667   1.861
79197W        W51622  25.078  23.187   0.289
79198W        W51623  22.171  19.051   2.750
79199W        W51624   6.370  21.528   1.383
79200W        W51625  18.630  23.090  10.908
79201W        W51626  23.640  41.827  13.930
79202W        W51627  11.677   7.774   0.952
79203W        W51628  19.128   3.369   1.360
79204W        W51629  43.828  30.495   2.306
79205W        W51630  17.286  23.002   2.758
79206W        W51631  38.513  23.987  14.428
79207W        W51632  37.555  29.593   3.329
79208W        W51633  33.570   2.737  12.451
79209W        W51634  36.912  17.588   0.825
79210W        W51635  10.273  14.134  12.871
79211W        W51636  15.704  16.742  14.884
79212W        W51637  15.791   5.292   4.700
79213W        W51638  35.523  10.740  14.505
79214W        W51639  10.695  43.349  12.896
79215W        W51640  36.899  39.995   2.815
79216W        W51641   8.733  27.477  14.942
79217W        W51642  27.569   9.787  14.441
79218W        W51643  38.865  20.543  14.276
79219W        W51644  15.165  14.682   4.199
79220W        W51645  28.444  21.188  13.361
79221W        W51646  41.332   5.803  10.479
79222W        W51647  14.775  24.980   0.741
79223W        W51648  22.148   1.957  12.094
79224W        W51649   4.888  42.944   5.214
79225W        W51650   2.234   9.821   2.668
79226W        W51651   8.894  11.822   1.754
79227W        W51652  28.505  13.702   3.856
79228W        W51653  18.110  40.050  14.867
79229W        W51654  34.111  44.358   2.192
79230W        W51655  35.885  31.509   2.702
79231W        W51656  24.004  22.692   4.810
79232W        W51657  39.901   0.279   1.313
79233W        W51658  39.863   1.387   0.959
79234W        W51659  17.662  27.463  11.020
79235W        W51660  19.588   2.808  12.884
79236W        W51661  40.907  36.062   3.371
79237W        W51662   6.387  16.090   1.232
79238W        W51663  31.572  39.900  13.511
79239W        W51664  33.449  38.466   0.443
79240W        W51665  16.764  33.451  13.823
79241W        W51666  11.146   5.433   2.178
79242W        W51667  18.771  22.063   2.883
79243W        W51668  32.540  42.354   0.734
79244W        W51669  34.474  20.602  10.575
79245W        W51670  14.594   6.704  14.305
79246W        W51671  37.409   9.330  11.595
79247W        W51672   5.417  39.507   0.266
79248W        W51673  13.181   5.719   4.280
79249W        W51674  24.219  41.537  10.524
79250W        W51675  12.766   2.427  13.356
79251W        W51676   7.346  33.921   1.896
79252W        W51677  15.232  13.839   2.218
79253W        W51678   5.788  25.160  11.076
79254W        W51679  37.050  23.145   2.730
79255W        W51680  12.657  41.522  10.614
79256W        W51681   4.928  20.123   3.647
79257W        W51682   5.916  27.477   3.635
79258W        W51683  38.330  24.222   2.300
79259W        W51684  42.422   5.367  13.016
79260W        W51685  30.629   2.354   4.305
79261W        W51686  26.207  25.992   2.663
79262W        W51687   0.312  15.149   2.742
79263W        W51688  36.911   1.416  12.395
79264W        W51689  16.741  44.971  13.422
79265W        W51690  36.019  28.027   2.776
79266W        W51691  35.568   2.461   3.787
79267W        W51692  26.068  21.743  11.859
79268W        W51693  43.930  30.638  14.766
79269W        W51694  12.336  39.846  14.460
79270W        W51695   3.403  29.005   2.851
79271W        W51696  32.612  18.716  11.519
79272W        W51697  24.674  27.468   1.405
79273W        W51698  44.934  16.731  14.989
79274W        W51699  30.159  23.153  12.824
79275W        W51700  44.328  30.912  13.853
79276W        W51701  17.730   9.789   1.695
79277W        W51702  29.541   8.232   2.195
79278W        W51703  20.197  27.673  12.409
79279W        W51704  16.656  26.968   0.327
79280W        W51705  30.103  26.000  14.372
79281W        W51706  31.916  33.967  10.952
79282W        W51707  39.330   1.344   2.291
79283W        W51708  43.459  22.721   0.788
79284W        W51709  25.041  19.266  14.909
79285W        W51710  36.966  41.352  13.814
79286W        W51711   2.955  25.090   3.745
79287W        W51712   0.916   7.700  11.561
79288W        W51713   1.366  31.063   2.810
79289W        W51714  37.087  34.934  11.404
79290W        W51715  40.041   6.793   2.266
79291W        W51716   2.809  41.535   2.728
79292W        W51717  30.132  23.679   3.663
79293W        W51718  22.226  15.638   0.254
79294W        W51719  21.728   9.262   4.348
79295W        W51720   1.929  25.136   3.648
79296W        W51721  15.682  35.372  12.904
79297W        W51722  11.192  43.957  10.979
79298W        W51723  24.580   8.287   0.377
79299W        W51724  44.389  28.618   0.903
79300W        W51725  42.379  27.035   1.855
79301W        W51726   9.848  12.183  14.997
79302W        W51727  22.150   2.239   3.320
79303W        W51728   2.295   3.346  12.508
79304W        W51729  39.905   6.869  12.487
79305W        W51730  37.930  20.161  14.778
79306W        W51731  37.411  16.789   3.306
79307W        W51732  41.856  42.490  11.992
79308W        W51733  12.847  15.592  10.523
79309W        W51734  27.163   1.459  14.989
79310W        W51735  22.243  41.884  13.995
79311W        W51736  33.882   7.896  12.524
79312W        W51737   3.925  26.552   3.661
79313W        W51738  14.684   4.308  11.487
79314W        W51739   8.243  23.561   2.736
79315W        W51740  14.180   8.785  12.007
79316W        W51741  19.746  22.071   4.819
79317W        W51742   7.366   2.314  13.811
79318W        W51743  30.923  23.074   2.750
79319W        W51744  14.199  25.629  12.958
79320W        W51745   1.946  31.120   5.286
79321W        W51746   1.838  21.162   0.794
79322W        W51747  40.823  26.458   4.607
79323W        W51748   7.852   7.772  13.974
79324W        W51749  24.176  29.001   0.811
79325W        W51750  30.081  16.751   9.529
79326W        W51751  20.759   5.873  12.828
79327W        W51752  16.659   1.263   2.267
79328W        W51753  33.416  30.950  10.551
79329W        W51754  25.564   5.713   4.743
79330W        W51755  13.727  26.098   0.915
79331W        W51756   8.220  40.816   3.639
79332W        W51757  27.985  29.140  13.849
79333W        W51758  13.703  28.140  10.526
79334W        W51759   3.902  42.779  11.428
79335W        W51760   8.684   0.281  11.505
79336W        W51761  39.506   1.445   3.359
79337W        W51762  18.614  14.826  14.935
79338W        W51763  43.936   1.411   0.833
79339W        W51764  30.575  31.516   3.792
79340W        W51765  12.291  22.517  14.911
79341W        W51766  15.114  21.730   3.845
79342W        W51767   6.328  34.897   4.796
79343W        W51768  12.788   5.430  13.892
79344W        W51769  32.942  17.579   0.964
79345W        W51770  24.090  22.166   0.417
79346W        W51771   5.821  36.078   2.270
79347W        W51772  27.047  29.162   0.911
79348W        W51773  21.724   1.813   5.317
79349W        W51774   7.866  20.116   2.301
79350W        W51775  35.949  18.756  13.367
79351W        W51776  21.630  29.095  12.462
79352W        W51777   4.273  42.989  11.925
79353W        W51778  18.650   4.431  10.967
79354W        W51779  31.541  36.356   0.799
79355W        W51780  20.581  36.929  11.088
79356W        W51781  17.302   5.898   2.758
79357W        W51782  27.489   7.799  13.496
79358W        W51783  14.608  22.632   0.935
79359W        W51784  30.105  35.392   1.894
79360W        W51785  31.003  17.114  14.010
79361W        W51786  38.493  13.183  10.407
79362W        W51787   0.250  10.765   3.858
79363W        W51788  13.643  12.825  13.872
79364W        W51789   7.306  38.492   3.292
79365W        W51790   2.413   1.780   2.330
79366W        W51791  36.453  21.688  13.860
79367W        W51792   7.276  20.078   1.323
79368W        W51793  34.370  43.376  12.411
79369W        W51794  31.604  22.010  10.572
79370W        W51795  43.793  30.648   4.648
79371W        W51796  23.184  14.194  13.048
79372W        W51797   5.297   2.859  13.499
79373W        W51798   0.438  27.143   1.218
79374W        W51799  43.769  21.118   0.882
79375W        W51800  36.509  43.819   4.823
79376W        W51801  42.423  18.612  13.427
79377W        W51802  28.034  36.910  10.439
79378W        W51803   7.873  35.473  11.464
79379W        W51804  37.081  28.184   4.160
79380W        W51805  24.020  35.469  11.521
79381W        W51806  10.756  36.370  13.804
79382W        W51807  21.540  11.708  12.846
79383W        W51808  41.454   6.809  11.421
79384W        W51809  19.209  22.072  14.327
79385W        W51810  17.737  24.083  11.091
79386W        W51811  29.153  38.438  13.969
79387W        W51812  33.402  23.492  11.422
79388W        W51813   4.898   5.830   1.228
79389W        W51814   7.362  37.065   0.269
79390W        W51815  19.231  41.857  13.307
79391W        W51816  16.260   6.375   4.115
79392W        W51817  41.359  12.709  11.856
79393W        W51818  39.934  16.584   3.838
79394W        W51819  21.665  30.622   2.888
79395W        W51820  18.191  39.987  12.069
79396W        W51821   2.348  35.089   5.145
79397W        W51822   1.806  18.755  13.896
79398W        W51823  11.748  30.988   0.888
79399W        W51824   3.395   6.365   1.817
79400W        W51825   4.448  37.919   3.720
79401W        W51826   0.469  28.640   0.440
79402W        W51827   8.301  35.010   0.325
79403W        W51828  20.574  43.343  13.411
79404W        W51829  20.093  27.096  13.518
79405W        W51830  40.852  41.389  10.992
79406W        W51831  11.352  27.181  11.475
79407W        W51832   1.888  35.497  12.432
79408W        W51833  26.209   0.933  10.965
79409W        W51834  40.393  31.135  12.002
79410W        W51835  38.551  36.518   2.383
79411W        W51836  19.137  41.980   4.713
79412W        W51837  38.449  19.649  14.829
79413W        W51838   0.329  10.632  11.928
79414W        W51839  36.980  28.619   1.747
79415W        W51840  22.022   1.314  10.969
79416W        W51841   3.372   7.674  13.428
79417W        W51842   2.954  19.264  14.999
79418W        W51843  14.833   9.675  14.281
79419W        W51844  33.622  30.518  12.489
79420W        W51845   7.313  11.638   1.864
79421W        W51846  23.066  24.539   0.308
79422W        W51847  11.157  43.427  14.902
79423W        W51848  32.533  16.580  13.341
79424W        W51849  38.923  30.479   0.891
79425W        W51850  30.453  40.309  12.477
79426W        W51851  23.058  20.218  12.008
79427W        W51852  39.473  28.141   4.293
79428W        W51853   8.861   4.912   0.944
79429W        W51854   0.386  41.923  10.640
79430W        W51855  29.024  34.425   1.710
79431W        W51856   4.401   0.475  14.028
79432W        W51857   8.395  12.645  10.941
79433W        W51858  35.014  42.825   2.762
79434W        W51859  19.136  19.547  13.457
79435W        W51860  17.271  24.593   2.719
79436W        W51861   1.455  37.849   2.873
79437W        W51862  36.468   2.418  11.406
79438W        W51863  32.602  31.022   2.732
79439W        W51864  11.291  37.559   1.729
79440W        W51865  23.125  29.945   2.301
79441W        W51866  44.442  41.899   0.928
79442W        W51867  12.227  31.959   0.361
79443W        W51868  16.218  36.950   0.394
79444W        W51869  29.438  29.029   2.853
79445W        W51870  16.794  31.554  14.279
79446W        W51871  20.032  24.182  12.530
79447W        W51872  37.427  41.930   4.722
79448W        W51873  13.149   6.884  14.334
79449W        W51874  36.517   1.967   2.666
79450W        W51875  15.654  21.642   3.353
79451W        W51876  36.389  16.298  11.402
79452W        W51877  22.017  30.583  14.987
79453W        W51878  41.459  25.644  11.440
79454W        W51879   2.256   7.329  10.066
79455W        W51880  27.050  42.481  13.015
79456W        W51881  37.554  15.624   2.687
79457W        W51882  31.010  40.014  11.871
79458W        W51883  12.643  32.924   2.787
79459W        W51884  16.807  26.669   0.947
79460W        W51885  16.728  42.507  12.507
79461W        W51886  31.982   4.829  10.987
79462W        W51887   6.833  29.608   1.759
79463W        W51888   0.458  32.103  12.377
79464W        W51889  19.122  19.575  11.586
79465W        W51890  13.664  10.795  11.504
79466W        W51891  15.629   4.443  10.119
79467W        W51892  29.084   5.925   1.419
79468W        W51893  43.286  27.597  14.759
79469W        W51894  17.287  13.172   1.296
79470W        W51895  15.320   4.878   2.196
79471W        W51896  40.910  24.627  12.398
79472W        W51897  22.675  35.584  10.633
79473W        W51898  38.391  44.849   4.698
79474W        W51899  37.886  19.588  14.777
79475W        W51900  40.404   7.739  14.326
79476W        W51901  24.186  29.100  13.335
79477W        W51902   0.968  22.134  11.898
79478W        W51903   3.379  13.706   2.763
79479W        W51904   2.346  31.049   3.717
79480W        W51905  38.449  27.050  13.019
79481W        W51906  28.067  21.549   3.810
79482W        W51907  11.180  19.044   1.783
79483W        W51908  16.572  11.272  10.416
79484W        W51909  43.372  14.733  12.417
79485W        W51910  14.319  14.097   1.849
79486W        W51911  29.947   9.277  10.580
79487W        W51912   4.350   5.914   2.778
79488W        W51913   6.836  29.028   0.965
79489W        W51914   0.491  18.658   2.770
79490W        W51915   7.794   2.919  12.400
79491W        W51916   5.713  32.437  14.847
79492W        W51917  26.675  44.505  13.050
79493W        W51918  22.099  41.414   4.128
79494W        W51919  36.962  24.555   2.297
79495W        W51920  29.948  27.672  14.014
79496W        W51921  20.683  37.083   3.219
79497W        W51922  21.667  22.043   4.224
79498W        W51923  38.457  17.161   4.196
79499W        W51924   4.824  41.985   1.903
79500W        W51925  16.810  41.932   3.772
79501W        W51926  19.093  14.662   0.375
79502W        W51927  42.460  30.991   0.888
79503W        W51928  40.008  16.648  10.412
79504W        W51929  34.419  31.909   1.268
79505W        W51930  20.067  26.961  12.414
79506W        W51931  11.667  38.026  10.005
79507W        W51932   1.856  22.122   2.309
79508W        W51933  33.461   6.774  12.367
79509W        W51934  15.615   2.775   0.836
79510W        W51935  42.786  14.273   2.791
79511W        W51936  43.341   0.967  13.383
79512W        W51937  23.530  27.112  13.916
79513W        W51938  41.843   3.864  11.045
79514W        W51939  37.488  20.243  11.569
79515W        W51940   2.786  24.998   4.173
79516W        W51941  21.186  44.877   3.816
79517W        W51942  28.162  31.505   1.335
79518W        W51943  30.930  13.776  13.825
79519W        W51944  12.172  12.276   0.364
79520W        W51945   4.255  36.071  14.337
79521W        W51946  36.913   9.241  14.363
79522W        W51947   9.289   0.406  12.875
79523W        W51948  30.452  24.162   5.306
79524W        W51949  13.830  31.477  11.858
79525W        W51950  10.348  18.050   0.482
79526W        W51951  41.865  33.113   1.700
79527W        W51952  17.716  22.040  11.517
79528W        W51953  17.580  26.096   3.631
79529W        W51954  17.285  11.193   4.225
79530W        W51955   7.796   4.772  14.790
79531W        W51956   5.690  16.128   1.297
79532W        W51957  30.486  19.569  12.946
79533W        W51958  21.152  29.638   3.684
79534W        W51959   0.803  32.019   0.372
79535W        W51960  27.081   4.212  11.930
79536W        W51961  13.108  31.919   4.180
79537W        W51962  21.140  12.620   1.360
79538W        W51963  16.780   1.352   4.692
79539W        W51964  14.268   3.422   5.248
79540W        W51965   2.856   1.867  13.885
79541W        W51966  29.024   7.199   4.273
79542W        W51967  19.672  36.394  11.991
79543W        W51968   3.770  24.570  12.966
79544W        W51969  22.743  44.356   0.311
79545W        W51970  18.615  35.549   2.866
79546W        W51971  34.997  37.421  12.088
79547W        W51972   8.198  19.664   4.833
79548W        W51973  28.460   7.332  13.512
79549W        W51974   5.807  42.321   4.115
79550W        W51975   2.384  20.052  12.973
79551W        W51976  23.001  42.408   1.775
79552W        W51977  13.237  43.992   0.740
79553W        W51978   1.421  13.679   0.408
79554W        W51979  23.117  36.928   1.756
79555W        W51980  20.555  40.834   4.207
79556W        W51981  28.493   4.937   4.156
79557W        W51982  32.093  25.962   3.670
79558W        W51983  11.244  16.280  14.330
79559W        W51984  23.002  40.457   4.281
79560W        W51985   8.773   8.654  11.931
79561W        W51986   1.848  36.853   3.667
79562W        W51987  15.638  41.423   1.867
79563W        W51988  39.850  42.800  14.407
79564W        W51989  29.601  18.251  11.405
79565W        W51990  41.808  15.673   9.932
79566W        W51991   7.878   7.215  14.003
79567W        W51992  19.628  25.040  11.126
79568W        W51993  17.626  22.029  11.073
79569W        W51994   8.810  26.670   4.216
79570W        W51995  20.722   4.737   2.693
79571W        W51996  12.846  43.362   2.382
79572W        W51997  16.312  27.096  14.979
79573W        W51998  10.725  10.356  14.904
79574W        W51999  37.416   3.815   0.447
79575W        W52000   5.349  16.291   0.912
79576W        W52001  29.004  26.136  11.009
79577W        W52002  13.137  15.134  13.535
79578W        W52003  27.688  32.902   5.732
79579W        W52004  13.623  13.155  13.408
79580W        W52005  44.455  20.720  13.938
79581W        W52006  24.617   3.372  11.435
79582W        W52007   8.259  28.043   3.706
79583W        W52008  14.817  11.637   4.615
79584W        W52009  36.558  29.573   4.241
79585W        W52010  33.120  35.410  12.580
79586W        W52011  23.177  24.106   0.874
79587W        W52012   2.338  19.126  11.054
79588W        W52013   4.301  23.603   4.761
79589W        W52014  20.029  23.534   2.675
79590W        W52015   6.791  16.674   2.787
79591W        W52016  40.825  15.279  14.909
79592W        W52017  43.885  30.144   0.962
79593W        W52018   1.959   5.898  13.025
79594W        W52019  33.511  21.053  14.812
79595W        W52020  43.432  36.534  11.540
79596W        W52021  17.148  42.344   1.858
79597W        W52022  21.595  42.858  12.087
79598W        W52023   9.723  15.656   0.734
79599W        W52024  43.431  40.471  13.431
79600W        W52025   7.307  29.159  11.537
79601W        W52026   2.291  11.149   4.206
79602W        W52027   8.175   8.897   3.223
79603W        W52028  12.691   3.337   4.204
79604W        W52029  29.056   5.273   4.190
79605W        W52030  35.520  10.214   1.712
79606W        W52031  27.615  38.873   4.210
79607W        W52032  28.173   7.212  12.425
79608W        W52033  20.063  33.910  13.827
79609W        W52034  32.913   4.754   4.628
79610W        W52035   2.794  30.978   3.722
79611W        W52036   1.282  41.800  11.405
79612W        W52037  24.599   5.797  12.477
79613W        W52038   2.373  11.218   2.780
79614W        W52039   3.333  14.637   0.784
79615W        W52040   6.818  12.793  14.409
79616W        W52041  37.342  22.142   1.761
79617W        W52042  26.037  33.483  11.983
79618W        W52043  43.388  13.241   4.600
79619W        W52044   8.298  31.462  14.285
79620W        W52045  34.982   9.759  12.934
79621W        W52046  23.234  36.068   2.271
79622W        W52047  39.436  14.759  11.422
79623W        W52048  27.050  12.308   3.760
79624W        W52049  26.504  43.285   4.628
79625W        W52050  30.161   0.416  12.076
79626W        W52051  33.047  24.655   2.745
79627W        W52052   3.273  33.473   0.906
79628W        W52053  30.618  12.657  14.479
79629W        W52054   7.727   7.286   4.599
79630W        W52055  15.188  27.006  10.547
79631W        W52056   9.193  39.065   2.694
79632W        W52057  31.646   2.808  11.420
79633W        W52058   9.811   5.792  14.820
79634W        W52059  13.286  35.448  11.376
79635W        W52060  37.074  14.136  13.936
79636W        W52061  12.136   0.287  10.486
79637W        W52062  11.365   1.855   4.778
79638W        W52063   1.882  10.670  14.784
79639W        W52064  32.589  20.549  10.504
79640W        W52065  33.934  27.037   3.237
79641W        W52066  18.753  32.939   1.839
79642W        W52067   2.908   4.277  11.584
79643W        W52068  22.113   9.807   0.842
79644W        W52069   3.820   0.347   0.916
79645W        W52070  28.094  30.119  13.488
79646W        W52071  35.438  44.353  12.375
79647W        W52072  28.509  17.065  10.946
79648W        W52073  43.936  26.128  10.989
79649W        W52074  35.386  17.718   4.598
79650W        W52075  11.189   8.688   1.739
79651W        W52076  14.250  41.981   2.832
79652W        W52077  19.618   6.794  13.011
79653W        W52078   3.420  34.095  13.389
79654W        W52079  40.826  29.654   0.472
79655W        W52080   5.270  30.478  14.457
79656W        W52081  12.212  10.336  13.544
79657W        W52082  36.899  26.599   0.250
79658W        W52083  40.464  31.058   4.231
79659W        W52084  33.079  40.019   2.255
79660W        W52085   6.212  15.279   2.181
79661W        W52086  17.173  30.968  11.029
79662W        W52087  43.487  24.090   4.666
79663W        W52088  20.585   2.926   2.204
79664W        W52089  17.236  42.810   4.223
79665W        W52090  38.486   4.792   0.334
79666W        W52091   3.759   7.376  11.526
79667W        W52092  28.953  41.341   4.215
79668W        W52093  10.341  26.647   2.190
79669W        W52094  15.157  19.701   2.331
79670W        W52095   5.384  19.160   0.754
79671W        W52096  14.219  32.987   1.335
79672W        W52097  41.894  39.063  10.560
79673W        W52098  31.418  31.590   2.343
79674W        W52099  21.690  30.044  14.914
79675W        W52100  10.870  33.010   0.865
79676W        W52101   9.381  35.944   9.515
79677W        W52102  36.512  11.707   1.718
79678W        W52103  10.255   9.350  10.478
79679W        W52104  44.322  17.186   2.419
79680W        W52105   3.838  18.112  14.310
79681W        W52106  21.598  39.916   3.746
79682W        W52107  10.323  41.357   1.232
79683W        W52108  23.032  38.488   1.262
79684W        W52109  23.189  15.656   0.819
79685W        W52110  17.201  39.933  12.082
79686W        W52111  37.021  32.131  11.053
79687W        W52112   6.900   7.311   4.153
79688W        W52113  30.042  10.253  14.026
79689W        W52114  24.161   4.931   1.302
79690W        W52115   0.431  22.146   4.771
79691W        W52116   2.777  34.429   4.814
79692W        W52117  19.739   6.707  11.389
79693W        W52118   2.409  23.218  13.849
79694W        W52119   3.765   0.899  13.947
79695W        W52120  24.582  23.110  10.920
79696W        W52121  41.022   6.830   2.198
79697W        W52122  27.566  15.200   4.670
79698W        W52123  31.969  16.248  10.924
79699W        W52124   8.378  10.180   4.627
79700W        W52125  19.092  24.591   1.789
79701W        W52126  21.675  42.283   2.890
79702W        W52127  16.733  44.895  12.904
79703W        W52128  43.002  39.904  11.018
79704W        W52129  23.731  19.700  12.459
79705W        W52130  42.347  22.033   0.389
79706W        W52131  42.933   4.902  12.342
79707W        W52132   8.711  19.282   0.279
79708W        W52133  33.107  27.599  14.377
79709W        W52134   5.227  38.365  10.640
79710W        W52135  22.146  30.045  14.341
79711W        W52136   4.254   1.418  13.490
79712W        W52137  29.138  31.091  14.805
79713W        W52138  37.489  27.529  11.468
79714W        W52139  40.797  11.292  11.882
79715W        W52140  23.724   2.317   2.719
79716W        W52141   4.235  18.293   4.335
79717W        W52142  38.010   5.875  10.591
79718W        W52143  15.700  33.438   1.360
79719W        W52144  40.012   8.303  14.433
79720W        W52145   1.767   9.870   2.218
79721W        W52146  30.991  43.402  12.548
79722W        W52147  27.069  31.071   4.165
79723W        W52148  18.643  13.187  12.831
79724W        W52149   2.335  40.985   1.890
79725W        W52150  43.790   3.719  14.945
79726W        W52151   0.402  11.713  14.342
79727W        W52152  16.786   3.856   3.188
79728W        W52153  41.348  33.541   4.745
79729W        W52154   2.894   6.346  14.319
79730W        W52155  27.170  12.648  11.415
79731W        W52156  31.573  22.054   0.947
79732W        W52157  11.781   2.229   2.741
79733W        W52158  21.688  37.083  12.933
79734W        W52159   1.785  33.397   0.925
79735W        W52160  23.186  33.396  13.997
79736W        W52161   4.774  26.539   1.836
79737W        W52162  10.356  10.877  13.827
79738W        W52163  40.938  15.726   3.297
79739W        W52164   3.388  31.641   4.318
79740W        W52165  10.730  18.590   1.881
79741W        W52166   2.237  14.194   3.206
79742W        W52167  13.760  11.710  14.814
79743W        W52168  35.068   4.920   3.648
79744W        W52169  36.908  16.282   4.799
79745W        W52170  36.924  18.749   0.795
79746W        W52171  24.583   2.314  10.633
79747W        W52172  27.109  36.592   4.808
79748W        W52173  28.468  30.003   0.298
79749W        W52174  19.638  40.959  12.910
79750W        W52175  30.986  28.106  11.082
79751W        W52176  36.508  37.344  13.536
79752W        W52177  34.571  39.836  14.988
79753W        W52178  16.166  17.595   0.752
79754W        W52179   8.192  13.663   0.960
79755W        W52180  39.513   0.439  10.553
79756W        W52181  25.057   0.423  13.047
79757W        W52182  43.458  11.234  10.603
79758W        W52183  32.577  19.769  11.895
79759W        W52184  10.213  37.346   4.794
79760W        W52185  33.446  38.008   0.342
79761W        W52186  23.186  10.645   9.586
79762W        W52187  26.009  16.229  14.478
79763W        W52188  27.572  15.171   2.762
79764W        W52189   6.300  16.196  13.380
79765W        W52190  30.528  41.818   1.931
79766W        W52191  11.769   5.374   4.257
79767W        W52192  22.072  30.996  12.395
79768W        W52193  24.144  33.380  12.345
79769W        W52194  12.172  25.542   3.849
79770W        W52195  27.451  40.813  13.309
79771W        W52196  18.153  19.226  14.486
79772W        W52197   3.445  37.440  12.928
79773W        W52198  28.956  25.173   0.797
79774W        W52199  37.855  14.261  14.388
79775W        W52200  40.504  14.205  12.580
79776W        W52201   4.318   1.350  12.401
79777W        W52202  39.812  17.237   4.316
79778W        W52203  18.267   7.793   2.783
79779W        W52204  35.451  23.992   3.636
79780W        W52205  39.916   9.307   0.413
79781W        W52206  30.616  43.934  11.129
79782W        W52207  21.587   6.339  11.069
79783W        W52208  22.721  26.600  11.062
79784W        W52209  17.715   2.925   4.208
79785W        W52210  40.538   5.884   3.174
79786W        W52211  10.806  20.224  12.003
79787W        W52212  31.476  22.600  13.020
79788W        W52213  39.485  35.980   1.389
79789W        W52214  31.042  27.507   3.347
79790W        W52215  20.765  11.290   3.773
79791W        W52216  33.979  27.629   0.450
79792W        W52217  39.924  11.728  14.023
79793W        W52218  44.887   7.350  14.795
79794W        W52219   9.207  28.936   4.253
79795W        W52220  12.227  28.633  14.467
79796W        W52221  32.487  32.599   3.295
79797W        W52222   9.277  16.780  14.949
79798W        W52223  37.945  38.443   0.404
79799W        W52224  11.135  27.654   0.269
79800W        W52225  39.006  43.445  11.545
79801W        W52226  13.199  30.638  12.538
79802W        W52227  25.962  40.529  10.619
79803W        W52228   7.375  37.023  10.603
79804W        W52229   6.716  19.061  10.469
79805W        W52230  41.512  24.152   1.288
79806W        W52231  31.973  43.452   2.222
79807W        W52232  35.999  38.387   4.691
79808W        W52233  32.086  15.207   4.609
79809W        W52234  22.142  40.051   4.783
79810W        W52235  43.411  44.409  11.924
79811W        W52236  25.056  37.381  10.484
79812W        W52237  33.935  29.074  14.920
79813W        W52238  44.489   7.307   2.248
79814W        W52239  32.472   1.306   4.610
79815W        W52240  37.894  23.570  12.547
79816W        W52241  19.720  36.094   0.478
79817W        W52242  37.880  42.326  14.495
79818W        W52243  43.787  19.585   1.218
79819W        W52244  27.125  12.841   2.301
79820W        W52245  32.968   2.772   1.825
79821W        W52246  36.068  33.517   1.713
79822W        W52247  41.473  21.638   2.727
79823W        W52248   4.717  33.399   4.665
79824W        W52249   7.798   0.837  12.536
79825W        W52250  18.762  34.404   1.835
79826W        W52251  20.672  19.081   4.618
79827W        W52252   7.720  31.429   0.815
79828W        W52253  15.220   4.924   2.699
79829W        W52254  39.397  28.118   0.734
79830W        W52255  15.222  31.564   4.274
79831W        W52256  41.979   7.204  13.865
79832W        W52257  31.537   6.259   3.845
79833W        W52258  37.074   6.406   1.265
79834W        W52259  10.725  27.640   3.314
79835W        W52260  42.364   6.423   4.720
79836W        W52261  26.103   3.356   4.250
79837W        W52262  30.470   4.808   5.220
79838W        W52263  43.826  42.403  10.456
79839W        W52264  15.599  15.225   3.869
79840W        W52265   1.763  33.504  13.841
79841W        W52266  29.592  34.020  13.866
79842W        W52267  20.127  21.596   2.866
79843W        W52268  33.915  42.515   1.354
79844W        W52269  28.051  32.943   9.979
79845W        W52270  15.823  30.587  10.939
79846W        W52271  37.011  14.804  11.981
79847W        W52272  26.010  33.561   4.633
79848W        W52273  21.571  15.301  12.954
79849W        W52274   1.453   2.431   0.775
79850W        W52275   5.398  10.238   2.901
79851W        W52276   9.172  13.109   2.322
79852W        W52277  10.821   5.924  11.898
79853W        W52278  22.556  30.953   2.893
79854W        W52279  44.851  32.011  14.383
79855W        W52280  35.937  16.272  14.354
79856W        W52281  28.980  15.124   1.743
79857W        W52282  26.644  14.719  13.852
79858W        W52283  13.179  13.232   4.690
79859W        W52284  20.665  41.395  14.014
79860W        W52285   2.379   4.212   0.458
79861W        W52286   6.337  29.092  14.420
79862W        W52287  39.908  11.184   1.831
79863W        W52288  32.025  32.489  13.420
79864W        W52289  26.042  23.641  12.387
79865W        W52290   6.809  28.509   3.303
79866W        W52291  39.817   0.803  14.346
79867W        W52292  44.871  18.074  13.979
79868W        W52293  27.196  15.590   1.825
79869W        W52294   8.765   8.204  13.960
79870W        W52295   3.306   8.191  11.883
79871W        W52296  44.455  34.399  11.946
79872W        W52297  14.171  21.676   9.494
79873W        W52298  39.392  28.961   2.816
79874W        W52299  33.882  22.727  10.914
79875W        W52300  24.044  23.684   0.314
79876W        W52301   3.439  24.096   0.285
79877W        W52302   9.345  23.998   1.783
79878W        W52303  18.766   1.754  10.991
79879W        W52304  36.039  17.734  10.416
79880W        W52305   9.286  33.072  10.573
79881W        W52306   5.824   8.346   0.453
79882W        W52307  17.668  24.506  10.916
79883W        W52308  23.552  26.681   3.313
79884W        W52309  27.996  18.695  10.539
79885W        W52310  35.046   5.911  12.880
79886W        W52311  29.641  40.834  14.467
79887W        W52312   2.288  31.528   3.174
79888W        W52313  35.408  10.856  14.922
79889W        W52314   1.244  35.482   2.866
79890W        W52315  17.136  17.107  14.379
79891W        W52316   4.811   5.400  14.962
79892W        W52317  19.642   7.342  13.954
79893W        W52318  13.323  28.103   1.853
79894W        W52319  33.986   0.787  10.428
79895W        W52320  21.222  33.094   9.940
79896W        W52321  42.005  16.718   4.796
79897W        W52322  12.837  35.501  10.967
79898W        W52323  44.870  44.370  13.033
79899W        W52324  23.596  10.202  11.523
79900W        W52325  13.826   2.399  10.982
79901W        W52326  40.992  16.156  14.014
79902W        W52327  29.942  19.145  14.505
79903W        W52328   6.708  11.776  14.298
79904W        W52329  40.904  19.171  12.968
79905W        W52330  11.628  33.599   2.206
79906W        W52331  12.289  29.467  13.364
79907W        W52332  15.715  35.542   1.449
79908W        W52333  15.154  33.483   3.771
79909W        W52334  21.235   1.800  14.440
79910W        W52335  44.387   2.832  14.850
79911W        W52336  25.492  39.556   0.471
79912W        W52337  39.352   9.645  12.884
79913W        W52338   9.681  11.765  12.354
79914W        W52339  15.130   7.197  14.009
79915W        W52340  27.188   4.215   0.454
79916W        W52341  37.365  29.425  14.502
79917W        W52342   0.317   9.695  12.425
79918W        W52343  27.169  22.170   1.707
79919W        W52344  25.027   3.791   4.785
79920W        W52345  19.545   0.381  13.477
79921W        W52346   2.914  18.146   0.911
79922W        W52347   3.802  31.944  11.989
79923W        W52348   1.785  19.759   2.801
79924W        W52349  41.844  23.705   1.369
79925W        W52350  22.131  12.335  10.944
79926W        W52351  33.126   3.848  14.818
79927W        W52352  38.393   4.709  11.419
79928W        W52353  11.708   4.414   4.730
79929W        W52354  29.147  33.494  11.034
79930W        W52355  11.335  22.524  13.361
79931W        W52356  29.985   4.769   3.231
79932W        W52357  11.275  31.063  10.625
79933W        W52358  20.609  33.525   1.300
79934W        W52359   3.240  43.873  14.459
79935W        W52360  18.758  40.871  11.401
79936W        W52361  12.139  15.116  12.950
79937W        W52362  15.208  34.046   4.623
79938W        W52363  12.171   6.295  13.478
79939W        W52364  22.158  13.834  11.548
79940W        W52365   1.912  37.918   1.283
79941W        W52366   9.832  41.408   3.788
79942W        W52367  12.179  28.637   3.852
79943W        W52368  10.320  19.698  14.798
79944W        W52369  40.018  27.176  10.407
79945W        W52370  32.128  34.894  10.624
79946W        W52371  29.085  12.721  13.887
79947W        W52372  11.830  37.518   1.228
79948W        W52373  38.525  38.852   4.278
79949W        W52374  43.990  28.121  10.614
79950W        W52375  29.028  40.892   1.867
79951W        W52376  25.073  15.736  13.863
79952W        W52377  21.212  26.614   2.673
79953W        W52378  25.119  22.031   1.353
79954W        W52379  30.126  44.348  10.635
79955W        W52380  29.924   7.304   0.850
79956W        W52381  17.116   2.861   4.752
79957W        W52382  43.949  22.538   3.148
79958W        W52383  33.882  30.977   0.753
79959W        W52384  15.236  27.662   3.173
79960W        W52385   7.799  30.431  12.438
79961W        W52386  44.313  25.548   3.810
79962W        W52387  43.294  13.778  13.914
79963W        W52388  19.564  33.517   2.861
79964W        W52389  41.385   9.648   2.415
79965W        W52390   8.785   9.168   5.307
79966W        W52391   1.343  40.035  14.778
79967W        W52392   6.804  39.443   2.316
79968W        W52393  10.811  11.779   4.745
79969W        W52394   2.239  18.078  14.396
79970W        W52395  35.591  23.216  12.081
79971W        W52396   4.294  21.666   2.707
79972W        W52397  44.376   4.727  14.017
79973W        W52398  15.115   2.384   3.819
79974W        W52399   8.656  41.871   2.371
79975W        W52400   5.329  11.370   4.673
79976W        W52401  42.286   9.168   4.826
79977W        W52402  43.969  19.256   0.446
79978W        W52403  14.207   3.383   3.833
79979W        W52404  40.467  24.214  12.041
79980W        W52405  12.630  35.472   2.666
79981W        W52406  25.673  31.923   4.794
79982W        W52407   3.338   7.182   4.182
79983W        W52408  32.480   2.964   2.293
79984W        W52409  29.460  19.212   4.305
79985W        W52410   3.306  30.142  10.541
79986W        W52411  15.130  44.486  11.890
79987W        W52412  39.366  32.475  11.032
79988W        W52413  19.135  26.688  13.309
79989W        W52414  16.073  44.292  12.840
79990W        W52415  40.401  17.696   2.754
79991W        W52416  26.141  13.153   1.247
79992W        W52417  42.288   2.802  12.016
79993W        W52418  32.938   9.709  12.904
79994W        W52419   1.961   9.888  10.467
79995W        W52420   2.396   4.829  11.991
79996W        W52421  27.105  16.608   2.839
79997W        W52422  39.001  32.899  13.887
79998W        W52423  38.045  10.246   4.157
79999W        W52424  16.712   1.399   0.920
80000W        W52425  23.509  18.753  11.970
80001W        W52426  11.704   1.791  13.015
80002W        W52427   8.400  41.311  14.990
80003W        W52428  15.591  10.702  13.464
80004W        W52429   3.461   8.221   2.190
80005W        W52430  37.445  16.114  10.530
80006W        W52431  36.886   3.915   4.280
80007W        W52432  29.522  34.502   4.789
80008W        W52433  40.911   4.713  13.433
80009W        W52434  14.768  10.300  11.047
80010W        W52435   6.366  44.386   5.237
80011W        W52436  30.122  18.660   4.154
80012W        W52437   4.747   5.266   0.277
80013W        W52438  14.618  23.507  14.478
80014W        W52439  26.459  38.967   0.893
80015W        W52440  19.094  41.039   0.865
80016W        W52441   4.865  12.288  14.284
80017W        W52442   3.872  37.341   2.847
80018W        W52443  26.022  44.459   1.347
80019W        W52444   3.903  34.971  11.021
80020W        W52445  26.074  18.755  10.515
80021W        W52446   0.291  40.040   0.248
80022W        W52447  21.613  15.301   0.291
80023W        W52448  13.329  35.066   0.753
80024W        W52449  17.620  36.031  14.775
80025W        W52450   1.972   1.847   2.293
80026W        W52451  23.051  14.816   4.812
80027W        W52452  41.790   7.384  13.333
80028W        W52453  40.815  42.331   4.214
80029W        W52454  25.536  10.849   2.221
80030W        W52455   5.333  11.658  12.027
80031W        W52456  39.897  14.110  14.953
80032W        W52457  37.940  15.647   0.951
80033W        W52458  17.635  31.926   5.699
80034W        W52459   6.302  23.629   1.224
80035W        W52460  12.831  17.232   4.641
80036W        W52461  23.239  26.011   2.882
80037W        W52462  22.569   8.708   1.910
80038W        W52463   1.737  15.615  11.029
80039W        W52464  28.964  38.994   3.233
80040W        W52465   2.791  23.611   3.696
80041W        W52466  28.672  44.871  12.062
80042W        W52467  15.803   0.421  12.474
80043W        W52468  39.522  42.383   5.299
80044W        W52469  11.373  37.919  11.999
80045W        W52470  16.116  34.030  14.397
80046W        W52471  33.521  25.084  13.531
80047W        W52472  36.491   4.345  12.965
80048W        W52473  38.473   7.357  12.351
80049W        W52474  24.480  22.172   1.279
80050W        W52475  10.765  14.693   3.153
80051W        W52476  37.571   7.189   4.130
80052W        W52477   2.262   9.810   2.206
80053W        W52478   5.239   9.696  11.913
80054W        W52479   0.829  28.095   4.243
80055W        W52480  39.384  18.244   2.398
80056W        W52481  14.655  40.352   0.339
80057W        W52482  35.898   9.648  11.538
80058W        W52483  30.519  17.636  14.423
80059W        W52484  24.053  29.607  10.538
80060W        W52485   1.932   5.845  13.545
80061W        W52486  43.777  37.877   1.211
80062W        W52487  10.163  43.775   0.247
80063W        W52488  33.034  44.757  13.861
80064W        W52489  38.910   0.273   3.316
80065W        W52490  23.577  11.682  10.047
80066W        W52491  20.686  17.122  14.449
80067W        W52492  27.130  26.629  12.883
80068W        W52493  19.242   8.664  12.022
80069W        W52494  42.284  18.176  12.919
80070W        W52495   0.395  10.194  13.396
80071W        W52496  17.263  41.895   1.751
80072W        W52497  14.742   9.221  13.991
80073W        W52498  35.869  39.871  10.445
80074W        W52499  37.944  22.178  10.426
80075W        W52500  34.530  11.312   2.761
80076W        W52501  36.945  16.812   1.349
80077W        W52502  17.742  33.005  12.481
80078W        W52503  43.346   1.383   3.777
80079W        W52504   9.371  41.437   4.179
80080W        W52505  25.624   7.404   0.275
80081W        W52506  29.075   1.478   4.196
80082W        W52507  13.681  42.457   3.777
80083W        W52508  22.196  26.576   4.116
80084W        W52509  21.665  35.108   3.374
80085W        W52510  38.930  13.834   4.597
80086W        W52511  28.162   7.835   4.334
80087W        W52512  22.130  27.047  12.466
80088W        W52513  14.190  11.777   0.341
80089W        W52514  44.308   1.880  10.035
80090W        W52515  15.783  36.878  12.023
80091W        W52516  27.637  10.779   0.361
80092W        W52517  33.472  16.734  10.003
80093W        W52518   2.428  44.307  10.918
80094W        W52519  43.331  16.762   0.362
80095W        W52520   5.344  30.625  11.892
80096W        W52521  13.166  27.970  11.008
80097W        W52522  36.385  37.413  11.979
80098W        W52523  44.914  31.527  13.393
80099W        W52524  34.873  16.602  10.637
80100W        W52525  30.035  14.191   0.849
80101W        W52526   0.910  13.652  14.021
80102W        W52527   0.975  28.476  10.642
80103W        W52528  35.425  38.558   4.166
80104W        W52529  33.005  27.100  12.829
80105W        W52530  12.170  31.510  11.547
80106W        W52531  30.433  29.503  12.086
80107W        W52532  15.315  19.149   2.739
80108W        W52533  19.680  18.052   4.697
80109W        W52534   0.429   0.883  13.477
80110W        W52535  32.985  44.973  11.558
80111W        W52536  19.166   5.343  11.445
80112W        W52537  16.756  18.064   3.179
80113W        W52538  30.636   0.820   4.154
80114W        W52539  16.098   6.693   0.420
80115W        W52540  34.486  22.110   1.313
80116W        W52541   9.764  15.272  10.488
80117W        W52542  14.189  34.454  13.922
80118W        W52543  17.251   5.202  11.864
80119W        W52544  37.469   3.304  12.090
80120W        W52545  43.454   9.720   4.290
80121W        W52546  11.233   2.902  13.794
80122W        W52547   2.430  25.470  14.495
80123W        W52548  28.064  11.707   4.703
80124W        W52549  22.627  22.707  11.566
80125W        W52550   1.786  19.635   2.365
80126W        W52551   6.732  33.552  11.017
80127W        W52552   2.875  15.285   0.846
80128W        W52553   1.865  20.751  12.832
80129W        W52554   4.264   6.750  13.922
80130W        W52555  18.544   8.256   1.389
80131W        W52556  21.547   7.728   4.618
80132W        W52557   9.386   1.862   2.740
80133W        W52558  35.047  15.187  11.005
80134W        W52559  28.447  13.111   0.868
80135W        W52560   9.885  22.066  11.374
80136W        W52561  18.063  28.564  11.123
80137W        W52562  17.788  43.811  14.411
80138W        W52563  41.935   8.656   2.241
80139W        W52564   4.373  35.562  13.488
80140W        W52565  12.316  17.293   4.723
80141W        W52566  42.818   9.754  12.037
80142W        W52567   7.673  18.639   4.176
80143W        W52568  11.372  27.050   3.155
80144W        W52569  16.745   1.805   2.687
80145W        W52570  15.656  36.007   0.257
80146W        W52571   5.851  42.916  13.808
80147W        W52572  15.321   1.259   2.777
80148W        W52573   6.839  28.617  12.828
80149W        W52574  42.788  21.076   1.904
80150W        W52575  40.802   2.776  11.035
80151W        W52576  20.725  27.582   2.679
80152W        W52577  24.556   5.806  14.002
80153W        W52578  33.995  40.903  10.455
80154W        W52579  16.111  34.910   0.416
80155W        W52580  17.610  16.663   3.766
80156W        W52581  41.000   1.472  12.474
80157W        W52582  43.866  17.082  11.866
80158W        W52583  23.087   1.403   2.684
80159W        W52584  30.561  35.923   2.252
80160W        W52585   7.790  15.244   3.730
80161W        W52586  21.517  13.793  12.992
80162W        W52587  28.935  41.928   4.166
80163W        W52588   6.285  26.584   0.353
80164W        W52589   6.271  19.555  13.484
80165W        W52590  23.506   6.427  12.562
80166W        W52591  11.850  42.859  11.441
80167W        W52592  28.653  14.293  12.497
80168W        W52593  22.587   8.764  13.320
80169W        W52594  16.078  21.219  10.095
80170W        W52595  11.665  44.952  12.985
80171W        W52596  32.528  21.055  10.445
80172W        W52597  38.440  39.060  12.454
80173W        W52598  38.535  10.247  14.387
80174W        W52599  29.989  20.123  12.833
80175W        W52600  40.916  42.501   9.932
80176W        W52601  43.900  38.542   1.845
80177W        W52602  18.276  33.620   0.814
80178W        W52603  41.894   1.249   2.787
80179W        W52604  16.246  16.585   4.673
80180W        W52605  27.550  30.518  10.591
80181W        W52606  18.703  29.536  10.502
80182W        W52607  44.820  41.795   3.378
80183W        W52608  14.133   3.410   2.828
80184W        W52609   0.293  22.529  11.451
80185W        W52610  19.194   1.271   4.834
80186W        W52611  12.753  44.379  11.980
80187W        W52612  27.040  39.995  10.413
80188W        W52613  31.426  32.950   2.239
80189W        W52614  39.419  32.453   1.750
80190W        W52615  13.728  25.655   1.380
80191W        W52616   0.373  14.111  13.991
80192W        W52617  26.540  23.715  12.065
80193W        W52618  15.803  38.540   0.388
80194W        W52619   0.867  20.143  11.390
80195W        W52620   8.853  16.632  11.436
80196W        W52621  19.124   6.717  12.549
80197W        W52622   8.355   7.861  14.338
80198W        W52623  27.665   9.395  13.504
80199W        W52624  19.733  34.023  14.920
80200W        W52625  10.681  42.811  14.454
80201W        W52626  19.709   0.937  10.620
80202W        W52627  33.909  18.261   2.684
80203W        W52628  22.586   1.811  10.545
80204W        W52629  17.277  39.410   2.684
80205W        W52630  34.872  25.690  13.532
80206W        W52631  43.825  32.484  11.962
80207W        W52632  33.541  37.001   0.321
80208W        W52633  22.707  39.057  10.991
80209W        W52634   6.860   7.850  12.990
80210W        W52635   2.929  20.579   2.370
80211W        W52636  27.959  13.170   9.981
80212W        W52637  21.738  32.610  11.032
80213W        W52638   8.661   6.222   1.400
80214W        W52639  23.614  22.061  14.389
80215W        W52640  24.026  26.058  10.452
80216W        W52641  19.225  19.648   2.663
80217W        W52642  24.501  38.995  14.014
80218W        W52643  43.305  30.031   0.352
80219W        W52644  42.315  32.963  11.118
80220W        W52645  17.110  37.503  10.913
80221W        W52646   0.766  42.841   3.193
80222W        W52647  33.035  42.895   0.429
80223W        W52648  44.909  32.008   2.408
80224W        W52649  13.699   3.234  11.501
80225W        W52650   5.369  44.834  13.810
80226W        W52651  26.697  16.623  10.938
80227W        W52652  20.583  22.045   1.893
80228W        W52653  22.559  17.632  14.937
80229W        W52654  13.631  42.301   2.392
80230W        W52655  34.497   0.927   4.327
80231W        W52656  37.342  30.468  12.561
80232W        W52657  24.531  16.187  14.904
80233W        W52658  30.942  37.846   4.174
80234W        W52659  34.100  40.491   2.694
80235W        W52660  36.855  44.973  13.359
80236W        W52661  30.588   6.736  14.974
80237W        W52662   9.680   0.253  13.982
80238W        W52663  22.701   6.403  10.971
80239W        W52664  37.373  23.576   3.715
80240W        W52665  11.673  35.378   4.676
80241W        W52666  15.169  27.046   4.181
80242W        W52667  20.539   9.700   0.818
80243W        W52668   7.253  12.842  11.908
80244W        W52669  21.228   4.296   1.696
80245W        W52670  44.859  31.989   0.300
80246W        W52671  36.932  42.988  12.342
80247W        W52672  26.052  24.622  11.494
80248W        W52673   3.333  32.977   2.867
80249W        W52674  15.790  22.085   1.903
80250W        W52675  18.687  24.173   2.810
80251W        W52676  19.123  42.331   1.861
80252W        W52677   5.771  38.532   2.240
80253W        W52678   6.911  25.207  12.828
80254W        W52679  35.474  22.582  12.847
80255W        W52680  10.294  35.890   1.261
80256W        W52681  32.058  21.179   1.280
80257W        W52682  28.674   5.714   0.729
80258W        W52683  28.587  41.489  14.295
80259W        W52684  42.430  35.078  12.989
80260W        W52685  35.366  25.632  14.875
80261W        W52686  39.485  13.170  11.932
80262W        W52687  17.078  34.879  12.896
80263W        W52688  32.966   5.698  13.825
80264W        W52689   3.830  28.172  12.846
80265W        W52690  32.141  37.860   0.335
80266W        W52691   6.748  11.804   3.684
80267W        W52692  37.873  11.803  14.441
80268W        W52693  15.583  15.632  11.903
80269W        W52694   3.309  35.433  13.898
80270W        W52695  29.925  39.400   2.186
80271W        W52696   0.977  10.257   2.285
80272W        W52697  43.310  29.609   3.313
80273W        W52698  33.467  29.608   2.348
80274W        W52699   3.302  19.592   2.709
80275W        W52700  14.322  29.080  14.911
80276W        W52701  30.644  40.324  13.398
80277W        W52702  12.183  42.492   3.238
80278W        W52703  43.448  35.079  11.937
80279W        W52704  24.479   9.754   0.414
80280W        W52705   2.257  35.856  10.432
80281W        W52706  14.277  29.022   3.377
80282W        W52707  41.494  15.704   3.862
80283W        W52708  31.495  32.017   1.231
80284W        W52709  35.596   3.406  11.056
80285W        W52710  30.929  15.710  12.407
80286W        W52711  15.328   6.766  14.887
80287W        W52712  33.501   5.240   0.933
80288W        W52713  34.385  38.437   0.843
80289W        W52714  38.500  27.084   0.349
80290W        W52715  37.003  17.103   1.749
80291W        W52716  13.810  39.004   0.935
80292W        W52717  15.666  41.485  11.409
80293W        W52718  19.176   7.713   0.889
80294W        W52719   5.349  14.278   5.133
80295W        W52720  30.960  15.634   0.781
80296W        W52721  28.632   0.797   3.757
80297W        W52722  29.535  30.148  10.922
80298W        W52723  26.022  11.819  12.050
80299W        W52724   9.369  17.238  10.945
80300W        W52725  17.605   7.709  10.595
80301W        W52726  24.540   7.760   0.888
80302W        W52727  15.303  11.231  11.121
80303W        W52728  20.128  41.015  11.450
80304W        W52729  18.171  16.759   0.249
80305W        W52730  27.580  19.094   2.722
80306W        W52731  21.141   5.877  14.973
80307W        W52732   8.400  12.222  12.401
80308W        W52733  10.325   0.406  10.447
80309W        W52734  13.273  25.999   2.672
80310W        W52735  15.690  33.595  14.449
80311W        W52736   8.835  16.713  10.614
80312W        W52737  43.442  33.547   0.286
80313W        W52738  29.160   8.730   4.635
80314W        W52739  21.078  38.956  14.772
80315W        W52740  41.028  44.890   1.869
80316W        W52741  34.925  34.544   0.401
80317W        W52742  38.054   0.341  12.463
80318W        W52743  12.626  13.691  12.376
80319W        W52744  26.959  31.436   4.653
80320W        W52745  41.499  23.557  13.915
80321W        W52746  27.495   7.263   4.790
80322W        W52747  11.733  15.645  10.616
80323W        W52748  28.975  13.266   4.757
80324W        W52749   4.886  18.072  13.830
80325W        W52750  31.963  12.717  11.394
80326W        W52751  12.733   2.940  11.395
80327W        W52752  26.175  37.874  10.531
80328W        W52753  39.480   7.415  13.420
80329W        W52754   3.917   7.881   2.342
80330W        W52755  40.355  19.588   3.808
80331W        W52756  32.114   6.778   4.789
80332W        W52757  24.687  38.426   0.420
80333W        W52758  13.301  24.577   5.301
80334W        W52759  42.860  26.702  14.770
80335W        W52760  19.602  38.495   0.875
80336W        W52761  13.226  21.522  12.578
80337W        W52762  35.393   9.828  13.912
80338W        W52763  26.013  12.157   4.122
80339W        W52764  22.197   2.440   1.334
80340W        W52765   0.925  35.480  10.427
80341W        W52766   8.836   6.258   9.581
80342W        W52767  32.970   7.417   4.256
80343W        W52768  10.710  29.060  11.432
80344W        W52769  27.636   1.391  13.852
80345W        W52770  30.026  43.434   4.644
80346W        W52771   6.288  10.761  12.044
80347W        W52772  40.497  12.711   5.286
80348W        W52773   5.413  11.682   2.810
80349W        W52774  42.000   8.234  11.887
80350W        W52775   6.770  44.945   1.324
80351W        W52776  20.721  18.253   4.599
80352W        W52777  39.404  42.333   1.842
80353W        W52778  15.263  19.687   3.248
80354W        W52779  13.756   2.323  12.551
80355W        W52780  34.921  34.949   3.254
80356W        W52781  27.114  31.944   1.350
80357W        W52782  38.053  16.116   2.268
80358W        W52783  24.515  30.103  13.818
80359W        W52784  38.502   3.411   4.133
80360W        W52785  14.226  22.647   3.292
80361W        W52786  36.400  32.096  14.018
80362W        W52787  36.447   9.356  10.492
80363W        W52788   8.750  31.582   0.294
80364W        W52789  36.049   7.903  13.033
80365W        W52790   9.163  13.149  12.542
80366W        W52791  34.049   8.343  13.372
80367W        W52792   4.304   0.390  11.943
80368W        W52793  30.918   8.682  10.535
80369W        W52794  18.125  34.441   0.794
80370W        W52795   4.243   0.970   0.392
80371W        W52796  33.566  28.042  12.382
80372W        W52797  32.043   4.770   0.770
80373W        W52798   5.865  27.578  10.902
80374W        W52799  22.642  28.136   3.155
80375W        W52800  25.135   6.805  14.771
80376W        W52801  36.933  41.429  11.499
80377W        W52802  44.282  38.517  10.533
80378W        W52803  23.538  43.376  14.362
80379W        W52804  37.992  27.616   1.231
80380W        W52805  10.640  19.644   1.357
80381W        W52806  44.839  35.416   3.266
80382W        W52807  41.864   1.343   2.231
80383W        W52808  32.095  36.416   0.849
80384W        W52809  24.530  18.646  11.921
80385W        W52810  40.425  22.593   3.346
80386W        W52811  27.062   8.389  12.077
80387W        W52812   2.835  27.971  11.001
80388W        W52813   0.359   8.164  13.530
80389W        W52814  33.444  40.896   4.812
80390W        W52815  11.248  42.292   4.248
80391W        W52816  21.190  25.584   3.692
80392W        W52817  12.119  24.154  11.467
80393W        W52818  38.959  12.813  13.456
80394W        W52819  34.443   0.339  10.508
80395W        W52820   1.309  23.576  10.484
80396W        W52821   7.911  11.261   2.880
80397W        W52822   3.737  23.151  10.555
80398W        W52823  24.150   0.823  12.064
80399W        W52824   8.348  15.690   4.193
80400W        W52825   2.239  23.594   1.865
80401W        W52826  23.232   1.364   4.654
80402W        W52827  16.190  34.595  12.963
80403W        W52828  13.262  43.398  13.841
80404W        W52829  17.210  32.448  11.404
80405W        W52830  22.220  15.279   0.279
80406W        W52831  42.503   1.746   0.940
80407W        W52832  41.521  39.038   3.294
80408W        W52833  27.633  28.503  13.002
80409W        W52834  35.074  39.911   4.707
80410W        W52835  21.516  21.148  14.505
80411W        W52836   0.476  39.340   1.726
80412W        W52837  29.429   5.346  13.050
80413W        W52838  38.872  37.950   0.804
80414W        W52839  26.608  31.986  12.970
80415W        W52840  37.486  34.464   2.766
80416W        W52841  44.810   2.298  13.893
80417W        W52842  12.635  20.690   1.280
80418W        W52843   5.866  12.260  11.015
80419W        W52844  44.477  11.780   0.841
80420W        W52845  26.104   8.899   0.329
80421W        W52846  20.120  30.649  10.048
80422W        W52847  26.081  18.152  10.533
80423W        W52848  19.754  26.618  14.007
80424W        W52849  10.275   8.242   3.149
80425W        W52850  12.659  24.636  12.855
80426W        W52851  19.661  15.782  14.809
80427W        W52852   9.281   9.728   0.822
80428W        W52853  24.498  16.074  11.888
80429W        W52854  37.516  26.694  11.393
80430W        W52855  34.038   1.413   2.768
80431W        W52856   7.728  32.900  13.999
80432W        W52857  43.332   5.769  12.367
80433W        W52858  11.801   8.828   3.219
80434W        W52859  14.831  35.987   4.151
80435W        W52860   1.246  13.283   3.352
80436W        W52861  19.724  11.843   3.719
80437W        W52862  14.205  43.969   2.821
80438W        W52863  35.073  10.855   1.290
80439W        W52864  11.238  29.610  13.914
80440W        W52865  33.123  29.658  12.841
80441W        W52866  26.062  18.780   1.794
80442W        W52867   2.345  21.633   4.272
80443W        W52868  44.289   4.857  11.476
80444W        W52869  15.303   2.232   0.750
80445W        W52870  27.455   4.339  13.523
80446W        W52871  10.701  16.177  12.031
80447W        W52872  29.432  26.040   4.322
80448W        W52873  41.801   2.846   2.262
80449W        W52874  25.058  42.439  10.479
80450W        W52875   1.973  11.631   3.335
80451W        W52876  44.337  14.216  12.823
80452W        W52877  23.116  36.436   2.864
80453W        W52878  40.332   8.829   2.328
80454W        W52879  30.074  44.919   3.156
80455W        W52880  13.232  23.510  12.017
80456W        W52881  25.538  39.839  12.920
80457W        W52882   8.364   1.813   3.208
80458W        W52883  37.411  39.508   3.819
80459W        W52884   8.401  17.749  13.358
80460W        W52885   4.221  31.597  12.089
80461W        W52886  13.826  16.594   2.844
80462W        W52887  24.177  31.014   1.858
80463W        W52888  16.303   0.349  13.403
80464W        W52889  16.149  44.886   4.680
80465W        W52890   6.253  33.569   4.613
80466W        W52891  21.141  40.353   0.941
80467W        W52892  41.528   4.733   2.694
80468W        W52893  42.935  37.508   4.257
80469W        W52894  15.665  15.306   0.297
80470W        W52895   3.336  40.921   4.150
80471W        W52896  24.688  35.906   3.691
80472W        W52897  22.074  32.137   2.825
80473W        W52898  18.680  36.398  12.494
80474W        W52899  21.735  39.333   3.835
80475W        W52900   2.401   8.857  10.408
80476W        W52901   5.238  20.242   3.238
80477W        W52902  36.873  29.082   0.920
80478W        W52903  23.578  21.645   3.346
80479W        W52904  21.747  17.608  12.456
80480W        W52905  28.103   9.760   0.275
80481W        W52906  27.507  43.487  12.088
80482W        W52907  44.327  15.709  13.870
80483W        W52908  28.991  31.129   9.961
80484W        W52909  11.753  17.576   2.826
80485W        W52910  35.103  23.116   4.835
80486W        W52911  17.724  20.570  10.938
80487W        W52912  11.310  13.149   0.841
80488W        W52913  24.030   6.891  11.489
80489W        W52914   8.712  10.168  14.281
80490W        W52915  18.280  14.137   0.767
80491W        W52916  36.995  22.536   0.964
80492W        W52917   2.470  13.205   5.300
80493W        W52918   6.386  22.188   3.150
80494W        W52919  28.556   4.379  12.076
80495W        W52920  28.018  30.078   3.709
80496W        W52921  15.682  23.188  12.487
80497W        W52922   9.651   5.341  10.645
80498W        W52923  22.727  29.125   9.925
80499W        W52924  39.852   6.730   4.673
80500W        W52925  11.234  14.295  10.411
80501W        W52926   1.799  38.489  11.583
80502W        W52927  44.258  33.011   1.334
80503W        W52928   3.871  24.027  14.771
80504W        W52929  43.378  33.895   2.792
80505W        W52930  38.009   9.297   0.338
80506W        W52931  31.911  28.081  11.540
80507W        W52932  35.494  15.787   2.215
80508W        W52933  20.130  16.613  10.891
80509W        W52934  32.962  17.224   5.108
80510W        W52935  34.517  17.279   3.226
80511W        W52936  11.645  44.811   0.761
80512W        W52937  28.929  38.386  12.847
80513W        W52938  24.647  17.240  10.604
80514W        W52939  27.170  23.238   3.700
80515W        W52940  16.173  20.630   4.278
80516W        W52941   8.731  14.798   2.267
80517W        W52942   5.902  39.935   3.146
80518W        W52943  37.924  28.140  11.407
80519W        W52944  23.050  28.604  14.411
80520W        W52945  44.259  15.271   3.213
80521W        W52946   9.326   5.791  11.401
80522W        W52947  27.124   7.836  10.496
80523W        W52948  33.037  14.634   2.804
80524W        W52949   4.396   6.242   2.224
80525W        W52950  14.737  36.010   2.381
80526W        W52951  44.354  30.091   3.728
80527W        W52952  37.367  16.646   2.733
80528W        W52953   4.775  22.550  12.513
80529W        W52954  34.940   9.204  11.400
80530W        W52955   1.826  30.576  14.412
80531W        W52956   9.161  15.096  11.524
80532W        W52957  13.137  30.633   3.821
80533W        W52958  18.194  20.121  11.030
80534W        W52959  14.134  37.985   0.966
80535W        W52960  37.384   6.858  11.536
80536W        W52961  18.126  42.868   4.727
80537W        W52962  32.086  39.869  14.006
80538W        W52963  33.480   6.343   4.754
80539W        W52964  10.186  33.573  12.578
80540W        W52965  29.468  38.067   1.225
80541W        W52966   1.941  12.325  13.350
80542W        W52967  41.425  27.583  14.310
80543W        W52968  44.853  44.932  11.949
80544W        W52969  18.283  29.155   0.302
80545W        W52970  36.420  35.544  12.355
80546W        W52971  30.923  29.173  12.388
80547W        W52972  20.236  14.611   4.684
80548W        W52973   2.881  19.634  11.497
80549W        W52974  34.418  16.763  10.450
80550W        W52975  23.529  20.538  14.333
80551W        W52976  21.545  20.682  12.340
80552W        W52977   1.438  19.686   0.741
80553W        W52978  25.531  29.540   0.946
80554W        W52979  31.560  20.630  12.369
80555W        W52980  35.565  12.695  13.349
80556W        W52981  11.767  13.749   2.401
80557W        W52982   9.298  38.857  11.044
80558W        W52983  17.140  24.134  12.471
80559W        W52984   4.832  13.730   3.255
80560W        W52985  43.271  25.158   2.190
80561W        W52986  31.955  39.425  10.620
80562W        W52987  10.707  40.871  13.013
80563W        W52988  23.615  30.087  12.454
80564W        W52989  29.521  11.290   1.448
80565W        W52990  41.408  29.937   2.710
80566W        W52991  16.206  25.022  11.411
80567W        W52992  11.321   1.883  12.441
80568W        W52993  20.186  30.909   2.788
80569W        W52994  10.286  41.955  14.980
80570W        W52995   7.207   5.716  10.442
80571W        W52996   0.347  24.121  11.384
80572W        W52997  29.132  29.657  13.001
80573W        W52998   1.295  22.189   1.890
80574W        W52999  23.231   1.350  12.349
80575W        W53000   0.403   5.263   4.303
80576W        W53001  38.865  40.022  10.620
80577W        W53002  34.068  36.984  12.962
80578W        W53003  27.623  31.051  14.808
80579W        W53004  13.271  24.184  14.816
80580W        W53005  35.524  26.969  10.510
80581W        W53006  16.318  12.116   3.694
80582W        W53007  16.600   5.725   1.354
80583W        W53008  32.575   9.833  11.051
80584W        W53009  15.299  22.252   3.304
80585W        W53010  30.541  30.468  11.935
80586W        W53011  25.965  41.906  11.071
80587W        W53012   1.966  35.006  13.889
80588W        W53013   6.887  40.538  13.981
80589W        W53014  28.573  26.192   3.189
80590W        W53015  37.902  12.644  11.477
80591W        W53016  15.124  37.469  11.510
80592W        W53017   9.721  13.206  13.918
80593W        W53018  21.638   6.408  12.968
80594W        W53019  31.948  11.833  14.401
80595W        W53020   6.382  36.892  12.361
80596W        W53021  19.619  22.598  14.954
80597W        W53022  29.497   5.818   4.675
80598W        W53023   9.193  14.593  12.856
80599W        W53024  35.596  17.269   1.233
80600W        W53025  11.355   5.887  11.448
80601W        W53026  19.701  11.761   2.217
80602W        W53027   9.356  42.467   4.277
80603W        W53028  38.821  16.195  11.525
80604W        W53029  37.423   9.819  11.127
80605W        W53030  29.482  11.633   4.821
80606W        W53031  17.654  13.200  13.852
80607W        W53032  23.170  20.539   4.837
80608W        W53033  32.591   5.375  11.523
80609W        W53034  34.035  42.944   4.113
80610W        W53035  30.449   2.434  11.102
80611W        W53036  12.258   0.754  11.058
80612W        W53037  44.313  32.910  14.946
80613W        W53038  35.936  40.474   5.174
80614W        W53039  37.846   1.383  10.569
80615W        W53040  15.180  27.449  12.892
80616W        W53041  33.877  35.589   4.291
80617W        W53042  19.046  23.155   3.868
80618W        W53043  21.032  23.068   3.222
80619W        W53044  10.795  20.190   4.683
80620W        W53045   2.250   6.239  12.419
80621W        W53046  19.209  44.274   2.186
80622W        W53047  21.042  25.696  10.613
80623W        W53048  12.154  36.032   4.606
80624W        W53049  32.922  32.459   0.848
80625W        W53050  19.058   4.835  13.033
80626W        W53051   2.928  21.588   0.746
80627W        W53052   0.825  17.206  14.331
80628W        W53053   0.430   7.381   4.256
80629W        W53054  29.484   2.343   2.234
80630W        W53055  26.953  33.478  12.988
80631W        W53056  16.107   1.442   0.357
80632W        W53057  22.694  15.694   0.326
80633W        W53058  41.294  41.464   4.213
80634W        W53059  35.986  34.897   4.237
80635W        W53060   3.896  19.762   1.211
80636W        W53061  32.056  19.739   1.917
80637W        W53062   8.342  19.281  12.988
80638W        W53063  28.668  28.545  14.016
80639W        W53064   8.676  41.308   4.752
80640W        W53065  44.340  43.883   2.376
80641W        W53066  21.224  34.913   5.319
80642W        W53067  22.672   8.782  11.372
80643W        W53068  32.494   9.221  12.429
80644W        W53069  18.548   3.866   4.645
80645W        W53070  43.491  22.611  13.923
80646W        W53071  17.203   4.769   1.893
80647W        W53072   4.848  34.883   3.852
80648W        W53073  36.395  14.719   4.780
80649W        W53074  44.005  11.249  10.533
80650W        W53075   8.718  13.125  14.492
80651W        W53076   7.249   3.892   4.195
80652W        W53077   9.305  36.931   3.675
80653W        W53078  25.592  16.110  14.922
80654W        W53079  38.550  18.175   3.179
80655W        W53080  33.972  24.197  12.515
80656W        W53081  15.616  31.031   2.190
80657W        W53082  22.723  29.137   5.120
80658W        W53083  12.134  30.552  14.022
80659W        W53084  11.269   5.719  13.334
80660W        W53085  12.331  18.546  14.332
80661W        W53086  18.089  11.725   4.725
80662W        W53087  34.427  18.671   0.742
80663W        W53088  28.176  13.349   2.362
80664W        W53089  39.974   4.867   4.728
80665W        W53090  16.243  27.115  13.918
80666W        W53091   4.377  12.755   2.782
80667W        W53092  23.129   2.388   4.609
80668W        W53093   8.702  20.573  11.465
80669W        W53094  39.033   9.280  12.081
80670W        W53095  35.882  37.972   2.792
80671W        W53096  15.206  42.432  13.367
80672W        W53097  24.069  12.248   4.617
80673W        W53098  44.987  23.645   1.283
80674W        W53099  44.907  18.241   1.808
80675W        W53100  16.093  30.617  11.543
80676W        W53101  10.820   1.285   3.349
80677W        W53102   3.732  39.342   3.660
80678W        W53103  21.702   2.316   1.367
80679W        W53104  17.081  21.024   0.823
80680W        W53105  10.779  15.690  13.514
80681W        W53106  11.176   1.902  14.830
80682W        W53107   8.816  28.561   3.235
80683W        W53108  10.183   5.796   9.671
80684W        W53109  30.573  35.980  13.846
80685W        W53110  16.812  38.937  14.842
80686W        W53111  11.710  30.963   3.839
80687W        W53112   0.482  21.219  11.120
80688W        W53113  37.946  41.436   1.755
80689W        W53114  12.188  28.162   1.332
80690W        W53115   0.796  38.846  10.512
80691W        W53116  16.658  36.582   1.840
80692W        W53117  15.267  32.973   0.854
80693W        W53118  33.087  26.510   2.284
80694W        W53119  21.117   3.311  12.530
80695W        W53120  40.462  32.116  10.533
80696W        W53121  20.555  26.207   3.312
80697W        W53122  35.489  24.646   5.732
80698W        W53123   3.362  43.907  11.106
80699W        W53124  37.947   6.839   0.324
80700W        W53125  39.062  11.718   1.846
80701W        W53126   9.184   6.397  14.919
80702W        W53127   0.958  18.195  12.417
80703W        W53128  17.205  14.806   0.853
80704W        W53129  25.539   7.687  10.420
80705W        W53130  35.531  23.162  12.511
80706W        W53131  15.189  43.957   3.740
80707W        W53132  14.712  44.895   4.349
80708W        W53133  11.249  19.629   1.380
80709W        W53134  32.020  24.192   2.851
80710W        W53135  31.003  42.964  12.344
80711W        W53136  12.695   5.324   2.750
80712W        W53137  14.263  19.051   0.431
80713W        W53138  38.474   9.748   0.738
80714W        W53139   9.860  44.499  14.332
80715W        W53140   0.750   0.444  14.778
80716W        W53141  27.590  43.310  13.526
80717W        W53142  25.061   3.867   2.279
80718W        W53143  38.433   9.758   2.259
80719W        W53144  42.869  13.254   0.945
80720W        W53145  21.535   7.239  12.988
80721W        W53146   7.294  42.844  13.321
80722W        W53147   8.665  38.458   0.367
80723W        W53148   1.734  28.147   0.850
80724W        W53149   3.733   2.435  11.961
80725W        W53150  13.778  30.475   4.209
80726W        W53151   0.858  12.835  11.004
80727W        W53152  38.886  30.520  14.912
80728W        W53153  26.087  18.095   3.257
80729W        W53154  25.006   9.317   0.417
80730W        W53155   9.749   8.841   3.777
80731W        W53156  23.675  33.625  11.562
80732W        W53157  18.734  42.786   0.425
80733W        W53158  26.491  25.658   3.262
80734W        W53159  13.614  18.626  14.893
80735W        W53160   4.741  12.171   4.658
80736W        W53161  36.861  28.029  13.036
80737W        W53162  43.891  31.477  12.541
80738W        W53163  43.292  13.204   2.805
80739W        W53164  37.573   4.411  12.358
80740W        W53165  16.581  26.609  13.812
80741W        W53166   6.371  35.366  12.066
80742W        W53167  25.159  27.631  12.555
80743W        W53168  43.949   8.753   1.408
80744W        W53169   7.865  29.101   2.738
80745W        W53170  31.584   4.813  14.940
80746W        W53171  26.008   8.345   2.332
80747W        W53172   0.313  34.938   4.789
80748W        W53173   8.169  16.628   4.173
80749W        W53174  22.231  41.853   3.365
80750W        W53175   3.268  39.855   4.643
80751W        W53176  22.251  39.914  13.409
80752W        W53177  34.004  30.593  11.901
80753W        W53178  39.336  25.142  10.471
80754W        W53179  32.105  27.655   1.870
80755W        W53180  31.420  16.313  12.903
80756W        W53181  37.078  40.459   3.301
80757W        W53182  10.300  30.577  13.394
80758W        W53183  21.540  35.580   1.351
80759W        W53184  31.119  27.187  14.000
80760W        W53185  21.694   8.252   2.302
80761W        W53186  28.465  15.730   1.288
80762W        W53187  31.540  30.523  11.454
80763W        W53188   2.281  41.336   5.289
80764W        W53189  43.395  41.849   0.397
80765W        W53190  19.118  23.606  12.880
80766W        W53191  30.948   7.299  12.531
80767W        W53192  25.663  27.558  11.941
80768W        W53193   4.357   7.269   1.712
80769W        W53194  27.618  30.581  13.917
80770W        W53195  31.019  26.695   4.719
80771W        W53196  25.102  25.623  12.463
80772W        W53197  26.100   7.679  13.883
80773W        W53198  34.058   8.845  11.456
80774W        W53199  44.999  10.248  11.948
80775W        W53200  16.748  33.402   4.329
80776W        W53201  32.461   4.840   1.855
80777W        W53202  15.221  15.798  10.955
80778W        W53203   0.398  24.210  10.930
80779W        W53204  38.865  19.658  12.549
80780W        W53205  14.660  36.478  11.589
80781W        W53206   6.333  40.047   4.340
80782W        W53207  39.994  11.262   4.192
80783W        W53208  21.192  18.713   3.271
80784W        W53209  18.680   8.856   3.198
80785W        W53210  44.808   4.711  11.922
80786W        W53211  35.044  39.830   4.247
80787W        W53212  41.882  32.461   4.174
80788W        W53213  43.343   8.656  13.995
80789W        W53214  14.652  30.159  11.412
80790W        W53215   2.910   7.223  14.975
80791W        W53216  21.242  17.068   3.866
80792W        W53217  16.091   2.464   0.358
80793W        W53218  18.553  23.572   2.187
80794W        W53219  23.984  42.868   5.111
80795W        W53220  24.128  40.542  11.911
80796W        W53221  29.542  32.525   2.811
80797W        W53222  42.416  25.542  14.890
80798W        W53223  38.368  22.653   3.272
80799W        W53224  15.697  31.083   2.667
80800W        W53225  33.475  39.448  12.444
80801W        W53226   9.792  24.635  10.407
80802W        W53227  32.003   5.734   2.738
80803W        W53228  21.640  30.076  12.957
80804W        W53229  11.667  27.606   1.734
80805W        W53230  26.143  24.712  13.017
80806W        W53231  28.543   3.243   1.885
80807W        W53232  37.342  24.543  12.530
80808W        W53233  28.657  15.618   3.810
80809W        W53234  32.898  17.161  14.843
80810W        W53235  15.092  33.474   1.850
80811W        W53236  10.273   0.384  12.858
80812W        W53237   5.358  24.996  11.391
80813W        W53238  30.007  13.687   4.207
80814W        W53239  30.476  15.229  12.370
80815W        W53240  36.076  10.200  11.022
80816W        W53241  38.517   8.898   1.407
80817W        W53242   1.749  36.883   2.319
80818W        W53243  41.376  35.916   0.872
80819W        W53244  13.246  39.344  11.557
80820W        W53245   8.252  29.966  13.960
80821W        W53246   4.228  27.660   2.208
80822W        W53247  41.366  11.298   4.348
80823W        W53248  34.588  26.562  13.062
80824W        W53249   2.278  11.849   1.839
80825W        W53250   3.828  13.642  11.005
80826W        W53251  10.377  31.952  10.449
80827W        W53252  12.132   2.375   0.868
80828W        W53253  24.612  25.499  14.790
80829W        W53254  30.139  40.502   4.199
80830W        W53255  13.205  43.791   3.811
80831W        W53256   0.794   8.898   3.333
80832W        W53257  29.984  36.491   1.832
80833W        W53258  24.520   0.856  14.424
80834W        W53259  15.737  36.877  12.972
80835W        W53260  24.093  23.722  14.358
80836W        W53261  14.133  15.732   1.292
80837W        W53262  17.647  43.341  14.446
80838W        W53263  14.102  31.616   1.781
80839W        W53264  11.732  29.469   5.245
80840W        W53265  38.501  10.321   0.830
80841W        W53266  31.052  22.535  12.097
80842W        W53267   2.299  28.975  12.454
80843W        W53268  25.564  40.803  14.952
80844W        W53269  19.177   3.457  14.489
80845W        W53270  30.426  42.471  11.966
80846W        W53271  29.495  31.060  13.917
80847W        W53272  15.613   9.743  10.425
80848W        W53273  41.021   0.284  12.532
80849W        W53274  14.222  27.569   4.831
80850W        W53275  42.960  11.144   3.242
80851W        W53276  42.009  21.154  12.847
80852W        W53277   3.453  38.340  11.881
80853W        W53278  27.474  17.096  14.327
80854W        W53279  25.161   9.815  13.053
80855W        W53280   5.711  44.894   3.792
80856W        W53281   9.183  36.868  12.051
80857W        W53282  37.034  12.342  10.521
80858W        W53283  44.848  42.502  10.517
80859W        W53284   2.293  32.620   0.364
80860W        W53285   9.858  23.987   2.670
80861W        W53286  23.995  23.197  11.950
80862W        W53287  19.230  32.953   2.685
80863W        W53288  42.480  38.540  12.439
80864W        W53289  25.711   7.670  14.999
80865W        W53290  32.098  34.042  10.586
80866W        W53291  20.196  24.612  13.834
80867W        W53292  25.694  18.206  13.802
80868W        W53293   7.207  20.737  10.478
80869W        W53294   1.280  31.032   0.477
80870W        W53295  31.003  41.946  10.619
80871W        W53296  44.958  14.822  11.494
80872W        W53297   4.909  27.143   2.856
80873W        W53298  23.684   8.244   5.310
80874W        W53299  42.457   5.915  13.809
80875W        W53300  35.874  21.193   2.684
80876W        W53301  29.079  18.648   1.784
80877W        W53302  36.894  41.333   3.784
80878W        W53303  12.819   6.844   2.895
80879W        W53304  35.407  38.535  11.992
80880W        W53305  23.073  38.912   4.276
80881W        W53306   5.326   6.812   0.749
80882W        W53307  10.218  24.105   0.857
80883W        W53308  19.143  42.325   2.825
80884W        W53309  20.557  14.297  11.597
80885W        W53310   4.344  16.156   2.758
80886W        W53311   2.849  16.201  13.951
80887W        W53312  35.545  24.688   5.305
80888W        W53313  33.476  15.181   2.661
80889W        W53314   2.342  40.931   3.267
80890W        W53315   0.980   5.831   1.758
80891W        W53316  23.643  18.076  13.963
80892W        W53317  10.293  27.061   4.330
80893W        W53318  11.769  35.602  12.946
80894W        W53319  31.566  20.526   0.784
80895W        W53320  42.852  42.427   1.344
80896W        W53321   7.832  17.194   0.952
80897W        W53322  21.584  17.645   3.724
80898W        W53323  38.962   5.232   3.266
80899W        W53324  24.990  39.408   4.712
80900W        W53325  32.517   3.825   1.917
80901W        W53326  14.794  17.091   4.305
80902W        W53327  37.380  34.959   1.248
80903W        W53328   3.925  32.624  14.899
80904W        W53329  37.422  24.596   3.353
80905W        W53330  17.644  38.444  13.822
80906W        W53331  14.767  22.155  11.956
80907W        W53332  11.647  25.103   0.297
80908W        W53333  15.175  23.671  11.867
80909W        W53334  40.918  35.869  10.571
80910W        W53335  17.208  24.991  12.081
80911W        W53336  18.054  21.564   0.758
80912W        W53337  35.469  28.143   3.740
80913W        W53338  24.478  44.961   1.836
80914W        W53339  29.119   6.698   3.213
80915W        W53340  27.683  24.143   3.865
80916W        W53341  18.692  31.420   3.766
80917W        W53342  27.136  24.124   3.194
80918W        W53343  37.581  29.448  12.054
80919W        W53344  17.641  19.182   2.758
80920W        W53345  17.064  16.249   2.400
80921W        W53346  34.004  37.533   3.793
80922W        W53347  35.603   3.902  11.001
80923W        W53348  15.115  40.922  12.358
80924W        W53349  18.727  26.549  10.981
80925W        W53350   3.726   5.417   2.775
80926W        W53351   0.384  31.599  10.472
80927W        W53352   2.461  22.622   0.299
80928W        W53353  20.692  37.524  11.901
80929W        W53354   7.268  33.408   2.695
80930W        W53355  40.329  12.291   4.816
80931W        W53356  42.882  12.852  13.792
80932W        W53357  15.632   4.421  11.427
80933W        W53358   2.729  11.715   3.739
80934W        W53359  35.986  21.162  12.450
80935W        W53360  37.343  26.489  12.554
80936W        W53361  17.139  35.056   2.414
80937W        W53362  36.547  10.865   4.235
80938W        W53363  22.502   3.862   0.852
80939W        W53364  36.967  44.890  12.495
80940W        W53365  16.640  41.963   3.349
80941W        W53366  39.390   0.966  11.086
80942W        W53367  14.617  17.095  10.982
80943W        W53368   0.865  22.140  13.345
80944W        W53369   3.217   0.460   0.886
80945W        W53370   8.287  37.470   4.612
80946W        W53371  28.966  15.114  12.939
80947W        W53372  42.815  26.468   3.244
80948W        W53373  14.799  35.589   2.194
80949W        W53374  34.921  16.661   3.385
80950W        W53375  28.446  13.284   2.712
80951W        W53376  26.619  43.368  13.352
80952W        W53377  32.498  44.945  13.009
80953W        W53378  27.087  43.423  12.867
80954W        W53379  19.536  38.047   1.739
80955W        W53380  22.052  37.012  13.398
80956W        W53381  17.219  24.006  14.867
80957W        W53382   4.764  37.434  13.409
80958W        W53383  37.538   6.746   2.713
80959W        W53384  42.405  36.406   2.330
80960W        W53385  25.132  20.152  12.532
80961W        W53386  23.220  39.503  14.381
80962W        W53387  17.700  35.579   0.334
80963W        W53388  14.595  28.595   3.179
80964W        W53389  39.393  23.552   3.647
80965W        W53390  30.106   4.700  12.033
80966W        W53391  42.934  29.431   4.778
80967W        W53392   5.722  23.986   0.364
80968W        W53393  34.578   3.894   3.797
80969W        W53394  24.006  14.654  11.509
80970W        W53395  37.377  15.303   0.296
80971W        W53396   3.772  37.509   0.448
80972W        W53397  19.714  37.513  12.397
80973W        W53398  22.677   3.242   2.860
80974W        W53399   6.739  35.535  11.445
80975W        W53400   6.240  41.817  13.344
80976W        W53401  29.507  42.520  12.418
80977W        W53402  37.857  37.497   4.650
80978W        W53403  19.238   7.748   1.928
80979W        W53404  13.120  12.327   0.786
80980W        W53405  33.582  25.629   3.845
80981W        W53406  19.234  31.592   1.374
80982W        W53407  39.949  30.507   1.443
80983W        W53408  40.850  20.141  11.009
80984W        W53409  36.963  15.782   5.272
80985W        W53410  25.064  34.414  11.062
80986W        W53411   4.930  37.479   4.306
80987W        W53412  16.138  38.862  14.001
80988W        W53413  12.760  29.993   4.303
80989W        W53414  18.773   7.351   1.821
80990W        W53415  19.603  26.140  14.965
80991W        W53416  22.702  12.685  14.514
80992W        W53417  21.585  12.627   4.752
80993W        W53418  29.513  14.302   2.393
80994W        W53419   8.293  11.206   3.746
80995W        W53420   2.412  40.031   0.953
80996W        W53421   1.757  16.108  11.374
80997W        W53422   0.944   2.237  14.988
80998W        W53423   5.431  14.799  14.414
80999W        W53424  37.485  26.137   3.834
81000W        W53425  14.669   2.307   0.915
81001W        W53426  28.649   7.256   1.299
81002W        W53427  30.421  32.501   3.831
81003W        W53428  26.647   4.837   5.141
81004W        W53429  44.280  29.427   1.703
81005W        W53430   5.349  43.826   4.301
81006W        W53431  11.673  38.538   4.135
81007W        W53432  31.151   7.416  10.941
81008W        W53433   7.910  40.540  13.937
81009W        W53434  13.634  17.109   2.788
81010W        W53435   7.714  35.853  12.945
81011W        W53436   9.330  42.289  13.343
81012W        W53437  25.510  27.527  14.939
81013W        W53438  18.635  31.465  14.314
81014W        W53439  25.479  15.235  14.990
81015W        W53440  14.176  30.059   3.231
81016W        W53441  19.598  41.333   4.234
81017W        W53442  44.425  26.545  13.894
81018W        W53443   2.911  40.869  14.761
81019W        W53444   0.418  14.698  13.534
81020W        W53445   1.263  11.284  12.536
81021W        W53446  22.227  35.584   3.800
81022W        W53447   1.741  19.621   1.213
81023W        W53448   9.876  13.778   4.626
81024W        W53449  10.758  23.088   0.931
81025W        W53450  10.779  10.371  13.335
81026W        W53451   0.960  22.104   0.348
81027W        W53452  18.206  44.464   4.664
81028W        W53453  26.622  41.886   2.882
81029W        W53454  28.495   2.436   2.751
81030W        W53455  31.121  22.199  12.476
81031W        W53456  20.588  14.643   1.426
81032W        W53457   3.319  19.707   4.658
81033W        W53458  14.609  17.114   3.277
81034W        W53459  37.991  44.947   0.348
81035W        W53460  14.778  21.600  11.060
81036W        W53461  32.976  12.123  11.585
81037W        W53462  34.882  40.512  14.883
81038W        W53463  23.203  40.509  11.877
81039W        W53464  17.734  25.492   4.310
81040W        W53465   5.807  32.905  14.434
81041W        W53466  17.145   6.852  12.974
81042W        W53467  24.973  42.333   4.151
81043W        W53468  20.091  23.008   3.687
81044W        W53469  39.475  22.012   3.323
81045W        W53470  14.765  41.879   4.748
81046W        W53471  25.127  16.146   0.958
81047W        W53472  25.079  33.506   2.209
81048W        W53473  24.707   6.837   1.430
81049W        W53474  44.339  24.700   1.410
81050W        W53475  27.180  40.364  10.902
81051W        W53476   0.843  28.149  13.327
81052W        W53477   6.313  43.948   3.823
81053W        W53478   3.422  42.458  13.318
81054W        W53479  15.137  26.696   3.311
81055W        W53480   2.724  42.981   0.921
81056W        W53481   2.869  35.476   4.635
81057W        W53482  25.106  21.757   0.726
81058W        W53483  15.125  13.611   2.851
81059W        W53484   3.724  44.307   3.719
81060W        W53485  36.394  12.357   0.437
81061W        W53486  37.085  16.309  13.953
81062W        W53487  29.444   7.337   5.209
81063W        W53488  13.312  10.294   4.642
81064W        W53489  20.693  34.072   0.248
81065W        W53490  21.052   9.168  11.414
81066W        W53491   2.920  40.425   1.243
81067W        W53492   7.772  30.941   0.946
81068W        W53493  14.241  39.325   1.811
81069W        W53494  18.110  25.502   1.887
81070W        W53495  14.144  28.941  13.865
81071W        W53496   7.328  14.816  14.933
81072W        W53497  23.596  40.895   3.686
81073W        W53498  34.891   3.910   0.249
81074W        W53499   4.396   3.385   4.276
81075W        W53500  24.060   0.350   2.339
81076W        W53501  31.587   3.901   0.379
81077W        W53502  10.757  43.885  14.299
81078W        W53503  44.903  25.986  10.592
81079W        W53504  11.135  24.523  11.512
81080W        W53505  36.031   0.955   0.744
81081W        W53506  26.167  12.139  14.766
81082W        W53507  30.048  33.068   4.339
81083W        W53508  26.654   0.768   4.256
81084W        W53509   0.379  32.087   3.239
81085W        W53510  30.990  14.834   4.751
81086W        W53511  13.190   2.942  12.543
81087W        W53512  37.879  30.557   0.958
81088W        W53513  31.623  36.937  14.299
81089W        W53514  28.454   2.291  14.380
81090W        W53515  39.553  33.612   4.348
81091W        W53516  22.073  33.581  14.027
81092W        W53517  15.164  43.341   4.789
81093W        W53518  40.871   5.849  10.572
81094W        W53519   4.299  11.254   4.274
81095W        W53520  37.026  16.573   3.744
81096W        W53521   8.172  35.860   2.223
81097W        W53522  27.182   3.816   1.767
81098W        W53523  24.110  25.636   3.784
81099W        W53524   0.261   1.860   3.692
81100W        W53525  43.802  11.640   1.382
81101W        W53526   6.262  21.072  13.968
81102W        W53527  20.256  20.561   2.792
81103W        W53528  44.787  34.075  12.987
81104W        W53529  40.356   8.196  11.886
81105W        W53530  37.367  22.714   3.212
81106W        W53531  31.583  14.708  13.062
81107W        W53532  15.662  25.150   1.933
81108W        W53533  39.370  29.592  11.557
81109W        W53534  21.662   5.333   3.206
81110W        W53535  16.239  20.735  14.371
81111W        W53536  35.405  11.639  14.328
81112W        W53537  11.691   8.703  10.549
81113W        W53538  24.485  12.151  11.941
81114W        W53539  43.897  27.474  11.872
81115W        W53540  35.438  25.085   2.695
81116W        W53541  24.073   1.318   3.212
81117W        W53542  26.113  14.210  12.913
81118W        W53543  26.052  23.185   3.650
81119W        W53544   2.959  35.023   4.194
81120W        W53545  41.042  29.600   2.740
81121W        W53546  41.879  39.419   3.745
81122W        W53547  12.680   2.378   0.923
81123W        W53548  37.864   0.755  12.373
81124W        W53549  38.910   5.233  13.896
81125W        W53550  41.902  12.149  12.909
81126W        W53551   8.323  19.592   1.769
81127W        W53552  37.900  28.020  10.553
81128W        W53553  10.297  17.121  14.766
81129W        W53554  17.600   5.418  12.448
81130W        W53555  27.170  13.743  14.491
81131W        W53556  30.966   9.322   1.416
81132W        W53557  43.995  44.973  11.485
81133W        W53558  14.188  15.174   1.210
81134W        W53559  43.375  30.046  13.915
81135W        W53560  31.026  19.700   1.304
81136W        W53561   9.652  12.627   1.391
81137W        W53562  12.270  28.053   0.397
81138W        W53563   8.811   8.872  11.381
81139W        W53564   6.768  33.582  12.882
81140W        W53565  34.586  15.624   0.758
81141W        W53566   4.834  41.382  13.518
81142W        W53567  42.909  34.541   0.876
81143W        W53568  42.451  24.043   2.320
81144W        W53569  27.536  15.312  14.909
81145W        W53570  32.980  19.661   4.219
81146W        W53571  37.951  34.591   3.868
81147W        W53572  39.945  15.171   4.732
81148W        W53573  42.460   6.852  14.493
81149W        W53574   8.329  36.570   2.295
81150W        W53575  38.935  43.890   3.701
81151W        W53576  17.795  17.665  12.373
81152W        W53577  26.000  26.578  11.978
81153W        W53578   7.771   8.276  11.415
81154W        W53579  23.560  12.697   3.322
81155W        W53580  40.306  42.360  10.438
81156W        W53581  30.053  27.983  12.824
81157W        W53582  15.676  36.005   4.223
81158W        W53583  40.510  21.753  12.059
81159W        W53584   1.481  32.406   3.188
81160W        W53585  18.266   5.259  12.938
81161W        W53586  19.667  31.973  14.869
81162W        W53587  23.712   6.196   2.662
81163W        W53588  12.116  15.147  14.468
81164W        W53589  20.168  31.105   5.228
81165W        W53590  33.427  14.246  12.982
81166W        W53591  19.280  37.913   2.393
81167W        W53592  14.707  14.297  13.898
81168W        W53593  30.941  27.171   3.826
81169W        W53594  26.598  35.890  13.332
81170W        W53595  29.940   1.931  11.051
81171W        W53596  35.594   6.239  12.442
81172W        W53597  38.533  39.983  11.021
81173W        W53598  24.710  22.727   0.351
81174W        W53599  40.303   4.207   4.200
81175W        W53600  23.526  42.506   1.826
81176W        W53601  30.610  40.052  10.599
81177W        W53602  44.890  27.001  10.476
81178W        W53603  20.649  33.394  11.428
81179W        W53604  23.676   1.381  10.488
81180W        W53605   3.459  41.869  14.480
81181W        W53606   8.276  30.149  10.639
81182W        W53607  15.754  32.445  11.031
81183W        W53608   5.258   2.934  14.382
81184W        W53609  34.603  22.685   0.915
81185W        W53610   1.477   2.472   1.935
81186W        W53611  39.931  27.617   2.676
81187W        W53612  36.442  19.065  12.868
81188W        W53613  23.984   5.773   0.330
81189W        W53614   8.895  18.250  14.492
81190W        W53615  17.268  44.492   4.147
81191W        W53616  41.027  42.777   2.811
81192W        W53617  15.171   3.263  14.338
81193W        W53618  11.746   2.306   1.734
81194W        W53619  29.585  24.045   5.123
81195W        W53620  39.917  38.410  10.537
81196W        W53621  11.184  23.119   5.145
81197W        W53622  33.915  30.468  10.564
81198W        W53623   2.859   5.811   0.903
81199W        W53624   1.961  23.539  13.948
81200W        W53625  27.156  35.547   1.415
81201W        W53626  36.546  21.019   4.753
81202W        W53627  23.632  36.947  11.047
81203W        W53628  43.356   1.346   0.900
81204W        W53629   3.709   9.787   4.727
81205W        W53630   9.155  26.168   4.259
81206W        W53631  10.189  31.139   0.394
81207W        W53632  22.140   5.233  10.475
81208W        W53633  11.694   2.765   2.364
81209W        W53634  14.725  24.523  12.378
81210W        W53635  16.615  25.664  11.069
81211W        W53636  40.923   1.284   1.881
81212W        W53637  21.653  21.656  14.336
81213W        W53638   1.442  34.053  11.031
81214W        W53639   5.269  36.057  12.091
81215W        W53640  44.778  20.618   4.672
81216W        W53641   8.320  44.885  12.398
81217W        W53642   1.961  40.413   0.919
81218W        W53643  13.348   6.869   1.222
81219W        W53644   3.270  17.188  14.313
81220W        W53645  41.399   5.926  12.511
81221W        W53646  39.883  18.269  12.993
81222W        W53647   2.353  17.213  13.313
81223W        W53648  25.635   5.743   4.115
81224W        W53649  18.547   2.279  12.544
81225W        W53650  26.659   1.867  12.069
81226W        W53651   3.251   0.454   1.764
81227W        W53652  28.524  34.963  14.878
81228W        W53653  28.498  19.163  11.098
81229W        W53654  27.628  16.318  14.788
81230W        W53655  11.132  43.857   0.869
81231W        W53656   5.239  22.179   2.756
81232W        W53657  41.892  12.745   3.363
81233W        W53658  13.241  41.500   1.916
81234W        W53659  44.897  20.732  10.554
81235W        W53660   0.873  14.189   2.380
81236W        W53661   2.408  25.076   1.740
81237W        W53662  24.136  37.965   3.775
81238W        W53663  14.777  39.415   0.964
81239W        W53664  21.204  42.013  14.912
81240W        W53665  38.520  11.820   3.265
81241W        W53666  29.022  28.981  14.965
81242W        W53667  26.636  35.905  10.965
81243W        W53668   8.874  18.081  13.319
81244W        W53669  20.747   7.235   1.348
81245W        W53670   7.858   1.802  11.075
81246W        W53671   6.888  38.513  12.085
81247W        W53672   7.827  32.095   3.754
81248W        W53673  24.062  26.526  14.402
81249W        W53674   6.254  25.629   2.321
81250W        W53675  17.197  17.291  14.875
81251W        W53676  30.998  10.320   1.798
81252W        W53677  24.091  17.651   4.838
81253W        W53678  28.013   1.401   1.231
81254W        W53679  22.727  14.164  13.446
81255W        W53680   1.335  10.165   0.360
81256W        W53681   1.378  43.944  11.589
81257W        W53682  26.956  27.040  11.495
81258W        W53683  24.109  39.037  10.620
81259W        W53684   8.742   9.193   1.695
81260W        W53685  13.630   2.824   1.892
81261W        W53686  28.021  20.539   4.131
81262W        W53687  40.008  31.436   2.279
81263W        W53688   7.821  18.626   3.853
81264W        W53689   7.222  42.465  12.451
81265W        W53690  26.962  19.634   2.726
81266W        W53691   2.248  39.400  11.574
81267W        W53692  43.827  10.190  14.826
81268W        W53693  17.236  25.185  10.081
81269W        W53694  31.072   3.304   3.281
81270W        W53695  44.834  27.970   3.849
81271W        W53696  21.169  37.342   4.756
81272W        W53697   2.251  44.321  13.045
81273W        W53698  28.467  28.123  13.960
81274W        W53699  15.745  23.632   0.773
81275W        W53700  22.508  13.834   0.479
81276W        W53701  40.444  34.918   0.341
81277W        W53702  38.387  11.195   0.354
81278W        W53703  26.557  26.555  12.511
81279W        W53704   6.368  13.302  12.847
81280W        W53705  17.097  13.643  13.455
81281W        W53706   9.858  42.453   2.666
81282W        W53707  28.101  28.018  10.558
81283W        W53708  33.104  34.011   1.874
81284W        W53709   6.276   0.986   4.605
81285W        W53710   9.684  16.568   3.340
81286W        W53711  43.496  31.622  11.064
81287W        W53712  30.086   2.769  10.641
81288W        W53713  24.508   5.412   4.741
81289W        W53714  42.832  28.454  12.505
81290W        W53715  30.984  14.779  13.358
81291W        W53716  23.561  24.629  10.606
81292W        W53717  16.210  36.507  10.582
81293W        W53718  23.620  31.406   0.850
81294W        W53719  43.821  44.879  14.375
81295W        W53720  41.003  41.351   1.861
81296W        W53721  26.952  16.651   4.307
81297W        W53722  16.188  12.335   1.232
81298W        W53723  28.510  39.996   1.356
81299W        W53724  12.705  22.056   9.450
81300W        W53725  15.183  25.105   3.285
81301W        W53726  40.538  13.178  11.530
81302W        W53727  18.654  13.667   3.791
81303W        W53728  39.839  33.480   2.386
81304W        W53729  43.848  37.416   4.678
81305W        W53730  26.636   9.184   4.339
81306W        W53731  37.921  41.508   5.141
81307W        W53732  16.569  27.652  14.336
81308W        W53733   0.275  34.552  13.393
81309W        W53734   1.916   1.238   4.761
81310W        W53735  29.022  30.472  14.475
81311W        W53736  14.808   8.345  11.436
81312W        W53737  31.440  38.489  11.479
81313W        W53738  17.068   0.967  13.387
81314W        W53739  18.767  37.016   0.872
81315W        W53740  41.457  11.199  10.566
81316W        W53741  41.869  26.674  11.126
81317W        W53742  43.478  37.979  12.932
81318W        W53743   7.275  16.094   0.248
81319W        W53744  36.084   3.726   4.345
81320W        W53745  36.907  36.470  14.887
81321W        W53746  25.661   0.436  12.894
81322W        W53747  38.559  26.627  11.110
81323W        W53748  34.047  20.266  14.792
81324W        W53749  11.653  41.838   0.341
81325W        W53750   9.681  24.163  10.627
81326W        W53751   8.230  12.213  13.804
81327W        W53752  32.564  27.637  13.380
81328W        W53753   8.677  22.571  12.355
81329W        W53754  32.488  17.212  12.542
81330W        W53755   0.293  27.456   1.222
81331W        W53756  23.131  17.147   2.712
81332W        W53757   8.230  32.964   0.246
81333W        W53758  30.155  39.872  11.115
81334W        W53759  11.315  25.608  11.057
81335W        W53760  27.002  12.234  14.480
81336W        W53761  15.151   8.378  10.511
81337W        W53762   6.860   3.345   3.695
81338W        W53763  15.231  27.022  11.960
81339W        W53764  35.401  44.757  12.943
81340W        W53765  34.534  43.853   0.280
81341W        W53766   8.682  20.037   0.298
81342W        W53767  34.482  34.014  13.797
81343W        W53768  35.451  33.584  11.516
81344W        W53769  24.509  30.034   1.921
81345W        W53770  43.959   4.759   3.195
81346W        W53771  19.067   4.758  12.466
81347W        W53772  41.504  16.176  11.423
81348W        W53773  25.532  18.576   1.431
81349W        W53774   5.416  15.250  11.050
81350W        W53775  33.912  41.457   1.410
81351W        W53776  12.748  43.282  14.364
81352W        W53777  14.734  32.480   1.790
81353W        W53778   6.735  32.527   0.812
81354W        W53779  26.979  14.656   2.852
81355W        W53780  22.542  13.807   4.354
81356W        W53781  23.129  19.088   2.884
81357W        W53782   7.719   5.320   0.247
81358W        W53783  34.555  44.806   4.261
81359W        W53784   5.366  25.487   1.894
81360W        W53785  22.998  11.658  10.978
81361W        W53786  44.782  21.735   4.259
81362W        W53787  19.103  24.714  12.399
81363W        W53788  37.516  36.866  14.419
81364W        W53789  34.937   9.369   2.355
81365W        W53790  25.488  37.878   4.282
81366W        W53791   6.779  15.200  11.468
81367W        W53792  13.603  25.020  14.479
81368W        W53793  13.204   0.483  14.983
81369W        W53794  29.065  26.642   4.834
81370W        W53795  25.681  30.936   3.678
81371W        W53796   6.701  40.894  14.994
81372W        W53797  16.300  22.528  14.869
81373W        W53798   5.874  21.250   2.383
81374W        W53799  44.280  17.235   9.953
81375W        W53800  42.850   8.697  12.011
81376W        W53801   5.336  33.975  12.366
81377W        W53802  27.178  36.544   0.837
81378W        W53803  41.908  37.427  12.472
81379W        W53804  25.542  25.007   4.307
81380W        W53805  12.158  29.541   4.821
81381W        W53806  22.196  13.731   2.718
81382W        W53807  32.070  15.258   1.249
81383W        W53808  27.964  40.907   0.889
81384W        W53809   1.474  39.953   3.229
81385W        W53810  35.923  35.475  13.932
81386W        W53811  41.512  23.984  12.388
81387W        W53812  43.801  20.056   3.338
81388W        W53813   5.821  24.539  12.882
81389W        W53814   8.176  43.790  13.316
81390W        W53815   3.869  19.232  11.484
81391W        W53816  35.471  31.986  14.434
81392W        W53817  39.037  38.025  12.984
81393W        W53818  21.728  28.137  12.499
81394W        W53819  37.860  26.142  10.501
81395W        W53820  33.940  40.323  12.972
81396W        W53821   2.866  37.410   1.430
81397W        W53822  40.334  31.132   0.813
81398W        W53823  41.299  36.859   0.383
81399W        W53824  11.847  35.027  13.835
81400W        W53825  25.160  33.573  11.864
81401W        W53826  13.619  29.508   3.346
81402W        W53827  20.635  18.558  13.374
81403W        W53828   3.795  40.829  12.528
81404W        W53829  17.598  37.850  14.499
81405W        W53830  29.992  28.025  11.986
81406W        W53831  23.644  13.287  11.567
81407W        W53832  38.844  29.065   1.243
81408W        W53833  13.140   6.911  11.504
81409W        W53834  24.994  31.966   3.162
81410W        W53835  17.744  16.729   0.848
81411W        W53836  32.950  40.425  13.516
81412W        W53837  40.510  21.658  11.383
81413W        W53838  41.306  33.068  13.523
81414W        W53839  12.272   6.350  10.628
81415W        W53840   0.276   0.403  13.970
81416W        W53841  33.490  38.974   1.409
81417W        W53842  25.055   2.425   2.331
81418W        W53843  15.691   9.204   1.394
81419W        W53844  39.950  16.693  14.798
81420W        W53845  23.210  16.234   3.373
81421W        W53846  31.096  20.638   2.276
81422W        W53847  22.212  21.691   2.249
81423W        W53848   0.431   5.844   1.291
81424W        W53849  28.543  32.969   9.469
81425W        W53850  14.736   6.316   4.216
81426W        W53851  32.909   1.862  12.375
81427W        W53852  37.933   3.315   2.259
81428W        W53853   4.297  24.179  12.089
81429W        W53854  36.864  41.912  14.503
81430W        W53855  21.586  11.790   4.782
81431W        W53856  34.108  10.243  12.573
81432W        W53857  35.001  24.672   3.838
81433W        W53858  16.734  32.905  13.464
81434W        W53859  13.285  27.030   3.287
81435W        W53860  19.717  11.338   0.870
81436W        W53861   0.962  17.634   4.199
81437W        W53862  28.481   6.754   1.787
81438W        W53863  26.152  26.045  13.467
81439W        W53864   2.263  21.720   2.709
81440W        W53865  41.799  17.589  12.916
81441W        W53866  38.881  25.666   1.265
81442W        W53867  30.465  10.786   3.743
81443W        W53868  12.743   9.661   1.705
81444W        W53869   9.245  10.255  13.053
81445W        W53870   7.414  11.269   1.822
81446W        W53871  36.508   8.745  14.372
81447W        W53872  11.273   2.822   2.780
81448W        W53873  32.043  32.110  10.484
81449W        W53874  14.675  10.683  13.806
81450W        W53875   6.822  17.136   3.151
81451W        W53876   8.721  34.084   3.258
81452W        W53877   2.746  11.623  14.834
81453W        W53878  19.256   8.834  14.397
81454W        W53879  33.435  31.441   2.333
81455W        W53880  32.955  17.733   3.249
81456W        W53881  29.499  16.757  13.049
81457W        W53882  26.043  33.022  14.380
81458W        W53883   5.915  16.308  12.420
81459W        W53884  43.352  31.112   3.675
81460W        W53885   7.330  22.620   2.274
81461W        W53886  11.861  20.711  14.772
81462W        W53887  18.115  31.950  10.632
81463W        W53888  12.647  21.631   4.680
81464W        W53889  41.341   6.214  11.948
81465W        W53890  24.712  16.273  13.496
81466W        W53891  20.109  40.512   1.355
81467W        W53892  26.160   5.395  10.927
81468W        W53893  18.569  35.897   2.414
81469W        W53894  13.266  24.522  13.372
81470W        W53895  36.876  29.121  14.343
81471W        W53896  18.264  38.824  12.977
81472W        W53897   8.900  42.914   2.266
81473W        W53898   2.309  44.789   0.393
81474W        W53899  42.332  19.130   2.689
81475W        W53900   6.917   6.837  10.445
81476W        W53901  12.803   2.848  14.331
81477W        W53902   1.258   0.778  13.958
81478W        W53903  24.179  19.090   1.786
81479W        W53904  36.520  29.069   4.236
81480W        W53905  34.609  40.957  13.033
81481W        W53906   3.941  27.971   1.838
81482W        W53907   7.412  39.063  12.971
81483W        W53908   9.715  24.201  14.348
81484W        W53909   0.893  14.328   5.181
81485W        W53910   1.927  15.178   4.350
81486W        W53911  44.789  37.011   1.396
81487W        W53912  24.634  42.900  12.416
81488W        W53913   7.867  32.933   4.121
81489W        W53914  35.886  27.607  12.005
81490W        W53915  31.944   7.782  10.976
81491W        W53916  35.399   5.200  11.938
81492W        W53917  28.030   4.235   1.307
81493W        W53918  38.932  18.709   0.451
81494W        W53919  32.532  20.642   4.728
81495W        W53920  36.363   0.327  11.413
81496W        W53921  11.690  13.315   0.958
81497W        W53922  10.211  34.503   0.364
81498W        W53923  23.069   7.334  11.510
81499W        W53924   4.700  26.486   5.209
81500W        W53925  39.378  10.693   3.349
81501W        W53926  44.856  43.826   1.779
81502W        W53927  32.007  38.923  10.901
81503W        W53928  36.423  35.003   0.439
81504W        W53929   4.248   4.770  10.980
81505W        W53930  32.511  13.113   3.226
81506W        W53931  17.700  36.539  14.486
81507W        W53932  32.902  17.217   9.954
81508W        W53933  16.777  44.879  12.392
81509W        W53934  44.939  18.615   3.699
81510W        W53935  16.631  14.124  11.089
81511W        W53936  22.726  28.970   0.300
81512W        W53937  20.576  17.086  13.935
81513W        W53938  44.499  35.946  10.516
81514W        W53939  33.911  37.940  11.068
81515W        W53940   4.450  28.989  12.919
81516W        W53941  27.093  18.583  10.914
81517W        W53942  13.272  17.229   0.441
81518W        W53943   0.870   7.764  12.344
81519W        W53944  14.720   9.808   2.807
81520W        W53945  31.905  41.844  14.302
81521W        W53946   2.840  36.440   3.835
81522W        W53947  36.953  37.403  10.423
81523W        W53948  18.127  39.885  13.531
81524W        W53949  21.637  10.376  14.348
81525W        W53950   3.904  39.355  10.417
81526W        W53951  32.905  10.323  12.998
81527W        W53952  36.959  25.208  10.420
81528W        W53953  19.774  26.117  14.410
81529W        W53954  44.287  12.318  13.528
81530W        W53955  22.127   7.281  10.424
81531W        W53956   6.364   5.713   0.450
81532W        W53957  20.734  18.691  14.457
81533W        W53958  23.055   7.206  11.982
81534W        W53959  12.162  24.225  10.413
81535W        W53960  38.895  13.218   1.287
81536W        W53961   0.963  10.869   1.306
81537W        W53962  31.528  14.201  13.432
81538W        W53963  28.580  43.433   1.383
81539W        W53964  28.031  28.551  14.988
81540W        W53965  18.221   9.334   3.780
81541W        W53966   3.808  30.527   2.199
81542W        W53967  22.588  24.174  13.931
81543W        W53968   1.270  21.701  12.072
81544W        W53969  20.226   4.881   1.926
81545W        W53970   3.216  26.166   2.799
81546W        W53971  33.876  23.071  11.374
81547W        W53972   4.299  24.567   1.926
81548W        W53973  37.456  44.331  10.023
81549W        W53974  30.099   4.763  12.542
81550W        W53975  23.117  12.747   2.217
81551W        W53976   3.756   2.767   3.165
81552W        W53977   5.723  42.483  12.499
81553W        W53978  31.081   7.368  10.042
81554W        W53979  34.997  35.915   5.199
81555W        W53980  41.971  20.686   2.224
81556W        W53981  15.329  28.487   3.639
81557W        W53982  14.102  15.230  12.025
81558W        W53983  39.517  36.454   0.770
81559W        W53984  14.783   1.943  13.813
81560W        W53985   1.866   2.799  12.018
81561W        W53986  32.422   0.271  10.985
81562W        W53987   5.784  17.288   1.297
81563W        W53988  30.573  30.464   2.391
81564W        W53989  27.106  41.297  12.907
81565W        W53990  43.774  13.698  10.637
81566W        W53991   4.441  26.980   4.605
81567W        W53992   5.371  33.451  11.592
81568W        W53993  43.320  16.140   4.617
81569W        W53994  16.670  15.145  12.386
81570W        W53995  33.976  27.125  13.512
81571W        W53996  38.554   2.868   2.809
81572W        W53997   4.335  28.586  14.285
81573W        W53998   8.283  39.895  14.289
81574W        W53999  19.586   5.924  11.030
81575W        W54000   3.233  38.440  13.007
81576W        W54001  27.091  21.034  11.960
81577W        W54002  28.557  20.206   3.732
81578W        W54003  19.704  15.205   3.842
81579W        W54004  41.482  17.672  14.927
81580W        W54005  37.841   8.662  13.853
81581W        W54006  17.705  13.618   1.264
81582W        W54007  34.923  25.700  14.935
81583W        W54008   6.788  11.359  13.855
81584W        W54009   1.284  24.203  13.492
81585W        W54010  18.213  27.651   1.870
81586W        W54011  36.050   3.799  14.927
81587W        W54012  29.557  44.299   4.741
81588W        W54013  13.169   5.831   0.837
81589W        W54014  42.794  23.110  13.045
81590W        W54015   8.739  40.472  10.418
81591W        W54016  29.504  27.565   2.689
81592W        W54017  34.978   0.301   9.925
81593W        W54018  15.724  27.558   2.837
81594W        W54019  31.610  21.735   2.811
81595W        W54020   7.748  35.422  14.882
81596W        W54021  23.704  35.542   3.207
81597W        W54022  35.484  34.553   3.251
81598W        W54023  15.620   1.402   3.279
81599W        W54024  30.960  33.974  13.318
81600W        W54025  39.497   3.456  13.796
81601W        W54026   3.887   8.268   0.261
81602W        W54027  18.714  25.137  10.054
81603W        W54028  35.960  38.821  12.421
81604W        W54029  30.118  27.040   1.259
81605W        W54030  20.269  39.476  12.537
81606W        W54031  34.047  41.907   2.256
81607W        W54032  44.754   6.826   0.824
81608W        W54033  13.606   1.897   0.459
81609W        W54034  38.433  15.212   2.221
81610W        W54035  23.188  30.953   1.879
81611W        W54036  29.663  22.715  12.381
81612W        W54037  25.020   0.813  14.277
81613W        W54038  15.792  38.851  12.847
81614W        W54039   1.846  40.385  10.469
81615W        W54040  13.319  14.785  13.830
81616W        W54041   2.403  44.342  13.495
81617W        W54042   3.249  32.054   5.297
81618W        W54043  24.590  40.343   3.712
81619W        W54044  25.702  21.532   3.782
81620W        W54045  22.525   6.767  10.088
81621W        W54046   8.405  42.979   2.348
81622W        W54047  21.253  24.718  13.386
81623W        W54048  12.243  29.593  12.952
81624W        W54049  13.757  17.786   2.709
81625W        W54050  44.810  30.585  10.944
81626W        W54051  27.118  14.606   1.319
81627W        W54052  20.663   9.162   2.260
81628W        W54053  43.498  24.071   0.937
81629W        W54054  28.676  19.572   0.281
81630W        W54055   4.443  30.493  11.861
81631W        W54056  30.132  44.401   3.720
81632W        W54057  42.962   2.407  13.321
81633W        W54058  32.429  40.479  12.892
81634W        W54059  17.757   3.369  14.945
81635W        W54060  22.115  40.887   0.780
81636W        W54061  26.952   3.735   4.679
81637W        W54062   9.770  11.780   2.816
81638W        W54063  20.569  35.463  11.117
81639W        W54064   4.809   4.322  14.310
81640W        W54065  38.417  32.921  12.342
81641W        W54066   2.443   7.276   5.240
81642W        W54067  33.072  20.075   1.322
81643W        W54068   7.319   2.334  14.344
81644W        W54069  14.313  31.616  13.966
81645W        W54070  31.448  20.233  12.036
81646W        W54071  35.052  34.394   9.981
81647W        W54072  28.643  13.323   1.852
81648W        W54073  16.654   0.925  14.842
81649W        W54074  14.677  10.677  10.582
81650W        W54075  20.648   7.731   0.319
81651W        W54076  16.661  30.520  11.973
81652W        W54077  27.455   4.835   1.743
81653W        W54078  33.963  30.573  13.366
81654W        W54079  10.342  10.638  10.580
81655W        W54080   8.884  24.532  12.918
81656W        W54081   1.370   5.706   2.748
81657W        W54082  10.274  15.294  11.022
81658W        W54083  25.109  22.044  10.029
81659W        W54084  42.518   9.740   1.253
81660W        W54085  20.065  14.687   1.338
81661W        W54086  16.632   7.231  10.991
81662W        W54087  21.098  31.044  10.450
81663W        W54088   9.258  27.086   1.254
81664W        W54089  23.059  33.406   1.268
81665W        W54090  33.526  40.872  12.064
81666W        W54091  19.237  13.671  13.352
81667W        W54092  13.313  44.401   1.701
81668W        W54093  44.476  34.031  12.541
81669W        W54094  34.610  15.091   2.817
81670W        W54095  31.518   6.192  12.914
81671W        W54096  17.084  14.277  10.555
81672W        W54097   6.231   3.412  11.436
81673W        W54098  13.611  17.561  12.854
81674W        W54099  19.212  23.490   1.851
81675W        W54100  24.608  22.588  13.880
81676W        W54101  29.986  24.176   2.253
81677W        W54102   9.718  18.053  14.792
81678W        W54103  22.009  19.764   3.805
81679W        W54104  32.398   5.262  14.942
81680W        W54105  10.733  15.281  13.387
81681W        W54106  43.016  30.449   3.723
81682W        W54107   2.727  14.293   4.183
81683W        W54108   6.330  22.704  14.425
81684W        W54109  10.878  38.883   3.660
81685W        W54110   9.749  21.701  12.560
81686W        W54111  25.586   8.753  13.377
81687W        W54112  19.670   9.879   1.292
81688W        W54113  10.261  38.850   5.190
81689W        W54114  28.488  15.760   0.367
81690W        W54115  27.997  41.918   5.171
81691W        W54116   4.233  33.125   4.828
81692W        W54117   6.725  20.219  12.488
81693W        W54118  31.534   4.358   3.145
81694W        W54119  24.127  32.010  14.277
81695W        W54120  26.206  15.758  12.080
81696W        W54121  21.173   5.406   2.774
81697W        W54122  39.491  16.694   2.378
81698W        W54123   4.237  27.966  13.375
81699W        W54124  10.699  37.032   0.393
81700W        W54125  29.479  37.861   0.814
81701W        W54126  38.052  22.205   0.459
81702W        W54127  40.313   0.884  14.785
81703W        W54128   9.755   3.732   2.766
81704W        W54129  11.373  38.824  12.948
81705W        W54130  12.620   1.413  10.933
81706W        W54131   5.809  14.329  12.879
81707W        W54132   3.808  15.140   1.268
81708W        W54133  22.221   5.761  14.970
81709W        W54134  43.857  11.247   2.259
81710W        W54135  12.208  18.683   2.748
81711W        W54136   8.270  14.207   4.243
81712W        W54137  28.123  40.928   2.699
81713W        W54138  44.836  15.104  11.451
81714W        W54139  23.696  43.972   3.791
81715W        W54140   8.726  24.122  14.771
81716W        W54141   4.702   0.930   4.632
81717W        W54142   1.422  36.485   2.899
81718W        W54143  36.048   4.374  13.990
81719W        W54144  36.565  22.229  14.817
81720W        W54145  41.935  28.944  13.010
81721W        W54146  28.162  21.084  12.996
81722W        W54147  30.443  44.271   4.220
81723W        W54148  11.186   1.480  14.978
81724W        W54149   7.669  30.619   5.247
81725W        W54150  42.885  42.448  11.032
81726W        W54151  14.097   9.178   4.794
81727W        W54152  40.967   3.242   3.822
81728W        W54153  15.646  10.231   2.354
81729W        W54154  26.641  43.347  10.560
81730W        W54155   2.331  25.634  14.810
81731W        W54156  32.561  29.667  10.496
81732W        W54157   6.808  43.988   3.295
81733W        W54158  43.931  28.553   1.435
81734W        W54159  37.932   0.837  13.527
81735W        W54160  13.203   0.852  11.548
81736W        W54161  40.880  17.192  11.115
81737W        W54162  42.009  34.091  10.520
81738W        W54163  39.909  32.934  14.993
81739W        W54164   2.861  23.098   3.852
81740W        W54165  23.551   8.727   0.286
81741W        W54166  16.119  38.884  14.398
81742W        W54167  24.079  37.399   0.342
81743W        W54168   3.329   6.814   1.380
81744W        W54169  11.764  20.720   3.313
81745W        W54170  38.562  30.944  13.916
81746W        W54171  40.405  34.975   0.782
81747W        W54172  32.028   3.336  14.379
81748W        W54173  11.842   1.804  14.442
81749W        W54174  13.743   8.755   2.199
81750W        W54175  39.337  15.084  13.501
81751W        W54176  43.370  40.353   2.222
81752W        W54177   5.746  36.585   0.897
81753W        W54178   0.982  34.029  10.895
81754W        W54179   2.894  42.927  12.895
81755W        W54180  18.248  12.143   1.845
81756W        W54181  42.320  11.752  14.816
81757W        W54182   3.325  26.124   0.354
81758W        W54183  33.611   7.901  12.924
81759W        W54184  41.361  31.898   4.608
81760W        W54185  32.412  41.786  11.105
81761W        W54186  23.647   1.905   4.252
81762W        W54187   5.736  13.351   3.285
81763W        W54188  17.139  40.802  13.920
81764W        W54189  20.669   1.288  10.484
81765W        W54190  23.171  17.625  10.548
81766W        W54191  12.127  42.974  12.521
81767W        W54192  32.591  17.557   4.745
81768W        W54193  12.801   4.226  10.935
81769W        W54194   8.217  34.472   0.801
81770W        W54195   7.909  11.799   3.186
81771W        W54196   3.283  24.195  10.980
81772W        W54197  41.446  15.297   1.324
81773W        W54198   7.189  37.349  10.113
81774W        W54199  10.329  24.176  13.464
81775W        W54200   9.791  23.024  12.929
81776W        W54201  34.484  41.474   3.330
81777W        W54202  27.685  14.155  13.307
81778W        W54203  25.566  17.173   2.387
81779W        W54204  26.469   6.379   5.174
81780W        W54205  23.025  26.483  12.575
81781W        W54206   2.361  42.470  12.376
81782W        W54207  31.107  40.311  10.973
81783W        W54208   9.365   7.181   4.222
81784W        W54209  24.148   9.283  12.835
81785W        W54210   2.332  15.187   4.812
81786W        W54211  26.661   6.283  12.029
81787W        W54212  28.676  17.651  12.924
81788W        W54213   9.830   4.406  11.020
81789W        W54214  23.505  19.600   4.766
81790W        W54215  22.062  35.012  11.438
81791W        W54216  40.338  42.382   3.650
81792W        W54217  15.325  42.325  10.439
81793W        W54218  39.916  29.061   1.307
81794W        W54219  14.118   4.891   1.311
81795W        W54220  27.178  20.703  13.404
81796W        W54221   3.904  27.082  13.873
81797W        W54222   7.879  22.243  12.398
81798W        W54223   2.765   0.854  13.855
81799W        W54224   8.240   5.912   2.902
81800W        W54225  41.511  42.344  14.903
81801W        W54226  16.133  24.200   3.835
81802W        W54227  37.561  22.622   5.126
81803W        W54228  26.544  13.695  11.409
81804W        W54229  25.605   8.765  13.829
81805W        W54230  13.351   8.177  12.527
81806W        W54231  11.317  17.783  14.829
81807W        W54232  42.293  25.122   2.227
81808W        W54233  40.319  15.116   1.393
81809W        W54234  32.435  39.540   0.863
81810W        W54235  40.965  12.638   4.160
81811W        W54236  40.857  36.902   3.653
81812W        W54237  21.075   6.711  13.937
81813W        W54238  10.177  19.656   1.813
81814W        W54239  19.672  19.274   3.698
81815W        W54240  27.526  28.173  13.930
81816W        W54241  33.028   7.907  13.500
81817W        W54242  44.933  34.487   0.934
81818W        W54243   1.363   0.292  12.370
81819W        W54244  14.095  36.962  10.519
81820W        W54245   1.891   2.323   0.852
81821W        W54246  30.028  39.966  11.909
81822W        W54247  20.059  23.004  12.926
81823W        W54248  35.883  24.033   2.396
81824W        W54249  26.113  42.986  14.278
81825W        W54250  30.135  27.001  12.934
81826W        W54251  15.169  43.929  13.389
81827W        W54252  17.606  23.187  11.027
81828W        W54253  15.796  33.960   1.299
81829W        W54254  30.592   2.286  10.512
81830W        W54255  19.169  13.127   4.201
81831W        W54256  23.022   8.813   0.290
81832W        W54257  39.879  38.464  11.467
81833W        W54258  29.970  36.491  11.876
81834W        W54259  43.889  35.515  13.979
81835W        W54260  42.898  29.599   2.179
81836W        W54261  22.533  41.886   2.818
81837W        W54262  16.611  36.526   4.794
81838W        W54263  15.089  27.626  11.386
81839W        W54264  17.300   4.383  14.393
81840W        W54265  39.558   1.470  11.542
81841W        W54266  43.435  17.801   4.232
81842W        W54267   8.170  34.567  11.886
81843W        W54268  33.383  38.948  12.360
81844W        W54269  38.986  14.597   1.351
81845W        W54270  19.727  14.148   0.902
81846W        W54271  24.508  13.732  11.080
81847W        W54272  36.563   6.241   3.325
81848W        W54273   1.444   0.268   0.781
81849W        W54274  33.928  30.576   4.825
81850W        W54275  38.422  23.546   3.843
81851W        W54276  41.806  13.282   4.162
81852W        W54277  25.665   0.421  10.436
81853W        W54278  25.615   3.317  13.450
81854W        W54279  37.993  22.037  14.865
81855W        W54280  40.805   0.367  13.961
81856W        W54281  30.931   1.822  13.026
81857W        W54282  27.123   9.865   0.296
81858W        W54283  28.454  31.085  13.450
81859W        W54284  17.258  17.124  11.427
81860W        W54285  39.063   4.314  10.146
81861W        W54286  38.448  35.426  13.887
81862W        W54287  37.053  29.059   4.659
81863W        W54288  30.550  32.491   4.166
81864W        W54289  23.141  24.610   4.162
81865W        W54290   1.251   5.727  11.001
81866W        W54291  34.528  14.686  13.985
81867W        W54292  28.503  44.962   1.397
81868W        W54293  36.425  34.442   3.377
81869W        W54294   2.459   9.262   1.773
81870W        W54295  35.561   8.670   2.334
81871W        W54296  26.031   7.787   1.830
81872W        W54297   9.825  19.222   0.294
81873W        W54298  18.165  42.863  11.450
81874W        W54299  27.186  10.729   3.262
81875W        W54300  37.079  13.830  10.525
81876W        W54301  29.652   8.762   2.269
81877W        W54302   2.259  10.689   4.701
81878W        W54303  37.921   9.348   2.855
81879W        W54304  19.695  29.020   2.882
81880W        W54305  11.245  36.040   2.222
81881W        W54306  13.760  32.896  14.778
81882W        W54307  16.675  10.173  11.427
81883W        W54308   1.829   3.844   0.832
81884W        W54309  14.156  37.469  12.826
81885W        W54310  37.494  14.799  13.329
81886W        W54311   3.295  17.785  11.505
81887W        W54312  28.530  11.858   4.730
81888W        W54313  32.052  25.186  12.391
81889W        W54314  38.391   1.326   2.694
81890W        W54315   3.723   8.347  10.457
81891W        W54316  35.918  31.401  13.529
81892W        W54317  23.144   9.825  13.885
81893W        W54318  36.463  21.585  11.604
81894W        W54319   7.381  27.611   1.448
81895W        W54320  15.141  34.098   0.386
81896W        W54321  10.712  17.621  10.968
81897W        W54322  35.085  15.808   4.602
81898W        W54323  29.539   6.392  11.049
81899W        W54324  31.644   0.391  10.450
81900W        W54325   9.822  22.246   0.875
81901W        W54326  43.916  22.584   3.650
81902W        W54327  35.072  22.057   0.750
81903W        W54328  12.129   6.794  14.017
81904W        W54329  20.257  16.126   2.378
81905W        W54330  35.432  15.737   0.293
81906W        W54331  41.935  28.026  12.952
81907W        W54332   6.203  10.800   2.187
81908W        W54333   9.728  38.910   0.398
81909W        W54334  38.062  30.610   2.802
81910W        W54335  43.468  41.358  14.369
81911W        W54336  22.160   1.271   3.327
81912W        W54337  18.220   1.417  10.916
81913W        W54338  21.655  42.362  13.873
81914W        W54339  27.477  39.347  11.915
81915W        W54340   5.324  24.597  11.525
81916W        W54341  41.959  23.229   3.774
81917W        W54342  37.015  42.876   3.808
81918W        W54343   6.426   7.197   0.420
81919W        W54344  31.102   0.883  13.360
81920W        W54345  18.566  18.623   1.229
81921W        W54346  26.143   0.334  13.965
81922W        W54347  10.747  17.201   9.948
81923W        W54348  26.693   4.918  10.948
81924W        W54349  12.225  35.932  13.939
81925W        W54350  20.586  30.480   0.811
81926W        W54351  20.666  42.334   0.802
81927W        W54352  41.482   5.368   0.918
81928W        W54353  30.593  10.248  10.539
81929W        W54354  19.202  33.035   0.243
81930W        W54355  27.581  30.912  12.579
81931W        W54356  36.430   6.254  12.430
81932W        W54357  27.128  40.520   4.274
81933W        W54358   0.809  40.013   3.730
81934W        W54359   7.767  42.012   4.120
81935W        W54360  39.383  15.139   2.383
81936W        W54361  33.401   5.885   4.250
81937W        W54362  25.991  30.043  14.908
81938W        W54363  44.880  19.117  13.399
81939W        W54364   8.740  16.134   4.754
81940W        W54365   7.314   5.234  13.395
81941W        W54366  17.556  22.590  12.937
81942W        W54367  36.075  25.018   1.842
81943W        W54368  33.536  35.480  12.575
81944W        W54369  17.565  13.669   4.339
81945W        W54370  40.452  12.774   0.381
81946W        W54371  26.550   1.391   2.731
81947W        W54372  38.479  27.484   0.817
81948W        W54373  23.016  39.497   3.315
81949W        W54374  34.467  17.110  14.773
81950W        W54375  35.425   4.845  14.007
81951W        W54376  23.135   4.399  11.543
81952W        W54377  26.511   6.909  10.495
81953W        W54378  23.734  12.195  12.002
81954W        W54379  36.355  34.070   0.967
81955W        W54380  10.794   9.877  11.477
81956W        W54381  12.651  28.586   3.275
81957W        W54382  41.389  34.886  14.431
81958W        W54383   7.826   2.918  14.790
81959W        W54384  25.041  24.215  11.552
81960W        W54385  35.547   0.276   0.404
81961W        W54386   4.234  15.266  13.538
81962W        W54387  32.591  22.564  11.111
81963W        W54388  10.659  44.281   3.206
81964W        W54389  20.106  38.840  12.384
81965W        W54390  19.130  17.268  14.425
81966W        W54391  37.519  28.520  12.089
81967W        W54392   2.931   4.816   4.610
81968W        W54393  23.699  18.110   2.800
81969W        W54394  33.475  41.005   0.399
81970W        W54395  11.663   7.786   4.211
81971W        W54396  16.150  24.723   3.335
81972W        W54397  36.866  15.205  11.058
81973W        W54398  24.603  26.679  14.984
81974W        W54399  30.623   1.951   1.365
81975W        W54400  34.386   4.830   2.706
81976W        W54401  26.662  32.114  11.016
81977W        W54402  12.206  29.632   2.755
81978W        W54403  43.969  28.026   0.396
81979W        W54404  32.579   4.366  11.553
81980W        W54405  29.012  27.602   1.371
81981W        W54406   1.816   1.412  14.767
81982W        W54407  29.590  24.655   4.308
81983W        W54408  30.512   3.453   9.966
81984W        W54409  22.577  29.438   3.342
81985W        W54410   8.383   9.273  11.887
81986W        W54411  35.377  15.121  14.344
81987W        W54412  33.616  39.450   3.697
81988W        W54413   3.359  21.031  11.489
81989W        W54414  39.966   4.829  12.427
81990W        W54415  38.403  36.954  10.481
81991W        W54416  17.684  19.276  12.997
81992W        W54417  15.587  28.579   3.640
81993W        W54418  44.291  30.972   3.744
81994W        W54419   6.847  44.328  13.952
81995W        W54420  44.423  28.099  13.351
81996W        W54421  23.197  17.223   0.963
81997W        W54422  15.745  27.075  11.550
81998W        W54423  19.062  39.899   3.649
81999W        W54424   9.730  35.552   1.845
82000W        W54425  43.864  31.555  13.520
82001W        W54426  23.024  37.433  14.310
82002W        W54427   1.949  14.226  10.516
82003W        W54428   3.273  21.515  13.412
82004W        W54429  20.591   4.295   0.470
82005W        W54430  28.435   1.882  13.402
82006W        W54431  25.689   3.428  11.963
82007W        W54432   1.413   2.765  10.550
82008W        W54433  26.699  23.086   0.342
82009W        W54434   7.821  30.489   3.301
82010W        W54435  29.467  43.897  12.357
82011W        W54436   2.754   6.823  14.970
82012W        W54437   4.813   3.908  11.867
82013W        W54438   9.383   5.802   4.763
82014W        W54439  25.695  28.519   4.714
82015W        W54440   3.345  22.035  14.766
82016W        W54441  40.834  14.620  13.434
82017W        W54442   8.172  29.087  11.978
82018W        W54443  17.604  30.471  12.528
82019W        W54444   8.332   7.293  11.107
82020W        W54445  39.387   2.860  13.899
82021W        W54446  17.204  11.184   1.259
82022W        W54447  41.316  10.271   4.191
82023W        W54448  12.356  41.466  13.981
82024W        W54449  35.393  29.618   4.790
82025W        W54450   2.740  38.471   3.836
82026W        W54451   2.436  31.026   0.944
82027W        W54452  16.222  27.511  13.410
82028W        W54453   5.829   8.814  14.481
82029W        W54454  43.449  13.798  13.055
82030W        W54455   9.671  30.603  13.325
82031W        W54456  39.441   0.483   3.679
82032W        W54457   1.361   4.930  10.928
82033W        W54458  38.825  27.657   1.332
82034W        W54459  29.564  35.392   2.796
82035W        W54460  39.822  11.804  13.453
82036W        W54461  13.659  30.921  11.450
82037W        W54462   0.906  14.755   0.424
82038W        W54463  39.910  39.555  13.543
82039W        W54464  12.793   2.288   1.724
82040W        W54465   1.282   4.843   4.759
82041W        W54466  32.904  28.055   3.356
82042W        W54467  37.016  12.717   0.446
82043W        W54468  44.803  28.566  13.912
82044W        W54469   2.735  17.580   2.292
82045W        W54470  42.780  22.510  14.882
82046W        W54471   3.433  17.132   3.378
82047W        W54472  32.897  41.858   3.288
82048W        W54473  15.770   8.831  10.036
82049W        W54474   1.803   3.237  14.482
82050W        W54475  40.326   3.311   0.416
82051W        W54476  29.968   0.983  11.876
82052W        W54477  24.205  14.285  10.903
82053W        W54478  31.490   2.291   3.355
82054W        W54479  27.099   4.290   2.835
82055W        W54480  16.182  22.512   3.659
82056W        W54481  21.090  12.846   0.418
82057W        W54482  38.484  22.718  13.866
82058W        W54483  33.897  33.990  12.885
82059W        W54484  23.489  41.912  10.915
82060W        W54485  23.687  38.941  13.887
82061W        W54486   9.723  44.403  12.475
82062W        W54487  39.005  41.518  11.565
82063W        W54488  28.957  31.986   1.783
82064W        W54489  26.497  10.331  13.815
82065W        W54490   9.825  39.941   3.843
82066W        W54491   6.902  32.009  14.351
82067W        W54492  28.494  24.591  12.059
82068W        W54493   2.830  17.161  13.876
82069W        W54494  17.168   3.366   0.935
82070W        W54495   6.813  16.706   0.892
82071W        W54496   2.810   7.172   1.275
82072W        W54497   2.461  15.625   2.285
82073W        W54498  31.588  27.585  11.877
82074W        W54499  33.512  22.231   4.691
82075W        W54500  15.174  25.696   0.766
82076W        W54501  38.069  21.521  13.471
82077W        W54502  26.688  35.515   3.366
82078W        W54503  33.922  44.406  12.062
82079W        W54504  40.358  11.805   2.845
82080W        W54505  28.539  22.632  10.606
82081W        W54506  11.832  26.031   1.222
82082W        W54507  34.939  16.750  13.822
82083W        W54508   1.733  22.166  10.538
82084W        W54509  19.636   7.775   3.689
82085W        W54510  13.704  17.632  14.504
82086W        W54511   0.491  24.124  12.555
82087W        W54512   5.205   3.875  12.477
82088W        W54513  44.980  14.250   5.174
82089W        W54514  13.750  22.147  13.525
82090W        W54515  32.534  44.495  13.061
82091W        W54516  16.646  15.640  10.423
82092W        W54517  34.999   8.854   1.295
82093W        W54518   8.777   4.701   0.410
82094W        W54519   0.492  11.812   4.248
82095W        W54520  14.694  30.438  12.456
82096W        W54521  19.285   9.369   4.349
82097W        W54522  38.001  26.075   2.209
82098W        W54523  36.464   9.688  11.507
82099W        W54524  11.714   6.352  13.918
82100W        W54525  14.827  42.862  11.906
82101W        W54526  11.139  34.407   0.780
82102W        W54527  18.156  13.653   2.784
82103W        W54528  33.402  33.626   1.854
82104W        W54529  30.134  34.525  12.418
82105W        W54530  16.095  22.034  14.983
82106W        W54531  16.660  40.033   4.279
82107W        W54532   0.800   2.790  11.441
82108W        W54533  25.604   7.249  12.420
82109W        W54534  23.011  31.920   2.179
82110W        W54535  44.860  35.926  13.458
82111W        W54536  26.104  30.558   0.347
82112W        W54537   6.323  20.710  13.817
82113W        W54538  29.653  32.524  10.123
82114W        W54539  44.295  27.996   5.263
82115W        W54540  43.286   2.964   3.362
82116W        W54541  29.528  42.874  13.474
82117W        W54542  24.150  12.660  12.567
82118W        W54543   4.315  42.896  12.879
82119W        W54544   6.317   7.366  10.972
82120W        W54545  22.678   1.934  11.425
82121W        W54546  17.675  40.838   2.351
82122W        W54547  37.462  11.780   2.738
82123W        W54548  21.224  44.892  12.889
82124W        W54549  31.904  41.341   2.758
82125W        W54550   6.728  32.403  12.073
82126W        W54551  29.158  12.271  10.404
82127W        W54552   6.758  44.316  12.920
82128W        W54553  34.966   1.301   1.877
82129W        W54554  28.554  18.717   2.677
82130W        W54555  13.339  44.899   1.441
82131W        W54556  37.953  30.526   2.357
82132W        W54557  41.021  21.055   1.288
82133W        W54558  10.816  21.546   3.273
82134W        W54559   8.362   0.286   0.280
82135W        W54560  11.206   2.375  14.935
82136W        W54561  34.906  31.056  13.468
82137W        W54562  22.622  28.590  13.359
82138W        W54563   0.870  35.426  14.991
82139W        W54564   9.339  22.122  11.051
82140W        W54565   0.855  26.652  10.410
82141W        W54566  33.383  16.226   0.383
82142W        W54567  30.619   7.413  11.892
82143W        W54568  40.353  33.544  12.544
82144W        W54569  20.272  26.549  13.864
82145W        W54570   4.927  10.296   3.280
82146W        W54571  15.232   0.436   1.917
82147W        W54572  28.617  32.430  11.393
82148W        W54573  21.069  15.157   1.236
82149W        W54574  23.234  26.109   4.200
82150W        W54575  36.087  23.987  13.323
82151W        W54576  26.667  40.014   9.956
82152W        W54577  15.085   7.283   1.874
82153W        W54578  25.572  18.178   4.773
82154W        W54579  13.163   4.360   2.734
82155W        W54580  26.558   3.945  12.829
82156W        W54581   2.940  42.464   2.821
82157W        W54582   4.841  43.913  14.976
82158W        W54583  35.050   8.797   5.082
82159W        W54584   4.709   4.760  14.401
82160W        W54585  11.719   0.347   4.766
82161W        W54586   8.309  16.299   1.232
82162W        W54587   7.264  14.133   0.953
82163W        W54588  35.895   2.237   4.691
82164W        W54589  20.255   9.781  11.547
82165W        W54590  39.352  38.378   4.717
82166W        W54591  12.208   8.709   2.219
82167W        W54592  21.521  32.391  12.423
82168W        W54593   6.683  41.533   1.233
82169W        W54594  43.384  36.565  12.981
82170W        W54595  42.417  18.124   3.695
82171W        W54596  33.904  39.373   2.664
82172W        W54597  42.010  36.430   3.847
82173W        W54598  27.075  13.350  13.877
82174W        W54599  18.087  27.480  12.965
82175W        W54600  32.581  43.919  10.949
82176W        W54601  17.720  27.048   3.163
82177W        W54602   4.354  23.161  10.644
82178W        W54603  18.790  35.402  14.351
82179W        W54604   9.711   7.220   2.717
82180W        W54605  21.141   7.755  13.052
82181W        W54606  28.979  44.504   1.368
82182W        W54607   0.903  38.553   1.261
82183W        W54608  37.410  34.876   0.313
82184W        W54609  32.500  24.053  14.396
82185W        W54610  41.996   1.918   2.181
82186W        W54611  10.253  37.475   0.369
82187W        W54612  28.058  24.489  14.335
82188W        W54613  34.909  42.468   4.707
82189W        W54614  28.011   1.411  14.376
82190W        W54615   4.823   0.956   5.214
82191W        W54616  15.813  44.429   3.853
82192W        W54617  19.202  37.061   4.206
82193W        W54618  11.255  19.703  13.033
82194W        W54619  25.083  35.103   0.296
82195W        W54620  21.176  42.376   2.346
82196W        W54621   1.946   4.347   2.697
82197W        W54622  40.466  10.220   4.661
82198W        W54623  12.764  25.142   2.773
82199W        W54624  32.481   3.445  14.307
82200W        W54625  40.303  25.089  14.368
82201W        W54626  34.866  32.946  13.886
82202W        W54627  25.044  14.781  12.556
82203W        W54628  14.616  34.948   2.678
82204W        W54629   3.392  31.060   0.792
82205W        W54630  29.655  44.313   5.204
82206W        W54631  25.125  29.952  14.835
82207W        W54632   6.202  19.209   4.710
82208W        W54633   1.833   4.818  11.461
82209W        W54634  40.947   0.370  12.079
82210W        W54635  39.341  16.242  10.461
82211W        W54636  40.872  12.685  13.326
82212W        W54637  34.426  27.047   3.684
82213W        W54638  12.191   0.330   1.336
82214W        W54639  13.838  34.531  13.892
82215W        W54640  44.324   7.833  13.941
82216W        W54641  40.971   7.349  11.405
82217W        W54642  38.510  25.518   5.174
82218W        W54643  16.124  17.245   2.203
82219W        W54644  19.214  26.693  10.994
82220W        W54645  42.968   7.857  14.391
82221W        W54646  32.974   8.279   2.304
82222W        W54647  42.006  41.453  12.376
82223W        W54648  25.097  32.620   4.138
82224W        W54649   6.291  28.137  11.126
82225W        W54650  10.818  29.433   1.210
82226W        W54651  26.162  34.583   0.826
82227W        W54652  17.676   0.810   0.827
82228W        W54653  37.073  15.117   3.728
82229W        W54654  20.162  13.784   2.379
82230W        W54655   2.896  18.748   2.693
82231W        W54656  31.646  38.497   4.240
82232W        W54657  42.471  37.054   2.401
82233W        W54658  40.963  44.771   1.292
82234W        W54659  24.225  34.470   4.742
82235W        W54660  22.581  31.473   3.352
82236W        W54661  10.701  43.810  11.870
82237W        W54662  21.707   9.318  13.475
82238W        W54663  21.579  35.486  10.555
82239W        W54664   3.402  17.786  12.838
82240W        W54665  44.755  11.847  13.881
82241W        W54666  14.294  40.005   4.214
82242W        W54667  16.243   9.711  12.008
82243W        W54668  29.123  27.545   1.763
82244W        W54669  38.036  19.063  10.433
82245W        W54670  18.547  14.256  14.815
82246W        W54671  35.384  31.979   4.180
82247W        W54672  22.704  35.580   4.330
82248W        W54673  34.109  37.937   2.746
82249W        W54674  24.147  42.300  13.497
82250W        W54675  16.199  18.058   3.707
82251W        W54676  38.448   7.851  12.980
82252W        W54677  16.574  42.348   4.833
82253W        W54678  44.976  24.527   2.329
82254W        W54679  35.503  13.114  13.833
82255W        W54680  39.533   5.382   3.320
82256W        W54681  35.595  22.733  12.082
82257W        W54682  12.816  34.948   2.244
82258W        W54683   7.197   2.230  12.039
82259W        W54684   1.304  21.698   3.281
82260W        W54685  17.800  10.670  10.933
82261W        W54686  18.789  12.144   4.779
82262W        W54687  24.627  39.354   1.849
82263W        W54688   1.945  29.566  12.455
82264W        W54689   5.394  20.585  11.941
82265W        W54690  10.788  36.416   1.900
82266W        W54691  31.515   6.379  12.467
82267W        W54692  39.877  40.049  12.486
82268W        W54693  26.975   5.274  13.518
82269W        W54694  22.022  17.247  12.557
82270W        W54695  28.986   3.849  14.886
82271W        W54696  11.689  37.557  14.892
82272W        W54697  35.415  37.968  11.584
82273W        W54698  34.048  11.626   3.215
82274W        W54699  41.881   4.375   1.856
82275W        W54700  31.620  25.057   3.373
82276W        W54701  30.935  19.185  14.934
82277W        W54702   6.241  31.494   4.746
82278W        W54703  18.789  42.831  11.545
82279W        W54704  20.234  36.472   0.331
82280W        W54705  12.704  40.315   4.610
82281W        W54706  42.399   5.823   2.869
82282W        W54707  17.102  11.196   2.391
82283W        W54708   1.384   1.959   3.651
82284W        W54709  20.155  12.262  14.933
82285W        W54710  43.290   4.930  12.440
82286W        W54711  25.518  16.189   0.325
82287W        W54712  10.778  16.767   2.403
82288W        W54713  15.678  26.680  14.788
82289W        W54714  20.659  42.448  11.014
82290W        W54715  18.246  23.701   1.380
82291W        W54716  14.261  21.656   5.687
82292W        W54717  11.777  31.456  12.955
82293W        W54718  26.656   1.913  10.488
82294W        W54719  26.458   7.879   1.774
82295W        W54720   2.423  32.073  10.926
82296W        W54721  25.525  14.616  14.877
82297W        W54722  42.343   5.773   0.936
82298W        W54723  21.702  37.342  13.543
82299W        W54724   6.425  35.545   5.647
82300W        W54725  35.387  36.050   0.302
82301W        W54726  22.062  38.953   4.165
82302W        W54727  19.720  33.446  10.945
82303W        W54728  17.283  18.777   3.272
82304W        W54729  41.493   6.337  11.034
82305W        W54730  22.598  20.193   0.245
82306W        W54731   9.886  33.485   2.707
82307W        W54732  19.694  19.158  12.351
82308W        W54733  24.989  28.476  14.990
82309W        W54734  35.591  25.207   0.761
82310W        W54735  27.109  35.491   0.399
82311W        W54736  31.477  12.332  10.521
82312W        W54737  42.937  17.788  11.496
82313W        W54738  24.140  17.626  12.838
82314W        W54739  15.142  23.165  12.347
82315W        W54740   1.798  16.095   3.634
82316W        W54741   6.719  40.336  11.379
82317W        W54742  42.879  31.416   3.202
82318W        W54743  32.582  35.022   2.233
82319W        W54744   8.383  40.847  10.961
82320W        W54745  39.908  22.569  14.481
82321W        W54746  30.030   6.834   1.906
82322W        W54747  36.497  41.868  10.434
82323W        W54748  26.180  39.435   0.279
82324W        W54749  17.088  33.443  10.503
82325W        W54750  23.581  29.558   3.668
82326W        W54751  31.916   7.368   2.718
82327W        W54752  41.809  37.956  14.793
82328W        W54753  25.650  13.256  11.538
82329W        W54754  37.943  43.822   4.660
82330W        W54755  35.494  13.775   4.706
82331W        W54756  44.501  40.815  11.919
82332W        W54757  13.819  21.541   2.777
82333W        W54758  29.974   7.761   4.653
82334W        W54759  38.829  30.445   2.342
82335W        W54760  30.585  44.498   0.744
82336W        W54761  39.927  30.951   1.739
82337W        W54762   5.387  40.452  14.008
82338W        W54763  10.264   9.353  13.319
82339W        W54764  33.477   1.874  11.926
82340W        W54765   0.866  41.900  11.447
82341W        W54766  41.356  24.020   2.264
82342W        W54767  29.168  29.493   3.640
82343W        W54768   1.308  18.162  10.898
82344W        W54769   4.307  35.587   3.218
82345W        W54770  15.735  21.533  14.382
82346W        W54771  25.124  43.460   2.357
82347W        W54772  14.149   2.727   1.799
82348W        W54773  19.607  35.935  14.444
82349W        W54774  28.172   9.266   2.871
82350W        W54775  26.685  42.491   1.383
82351W        W54776   7.766   2.307   2.355
82352W        W54777  35.075  38.423  10.897
82353W        W54778  14.747  35.049   0.379
82354W        W54779  10.712   4.866  13.808
82355W        W54780  18.292  43.487   0.475
82356W        W54781  11.861  12.756   4.262
82357W        W54782  35.984  40.858  14.788
82358W        W54783  26.086  38.493  12.988
82359W        W54784  25.646  41.988   4.821
82360W        W54785  17.716  44.976  12.039
82361W        W54786  17.290  42.032  13.037
82362W        W54787  34.001  24.540  13.444
82363W        W54788  11.744  43.794   1.849
82364W        W54789   7.257  20.197   0.264
82365W        W54790  22.624  15.203  12.991
82366W        W54791  19.695  29.529  13.901
82367W        W54792  22.511  23.005   4.297
82368W        W54793  37.387  16.089   3.761
82369W        W54794  18.175  30.003  11.929
82370W        W54795  29.543  42.322   3.176
82371W        W54796  11.178   0.814  11.030
82372W        W54797  34.491  43.814   1.774
82373W        W54798  30.996  29.003  13.395
82374W        W54799  18.682  15.712   3.151
82375W        W54800  30.448  40.323  11.425
82376W        W54801   8.217   3.293  14.877
82377W        W54802  41.978  10.266   2.232
82378W        W54803  44.862  43.334   4.289
82379W        W54804  26.602   5.226  14.765
82380W        W54805  17.723  42.329   3.721
82381W        W54806  35.882  33.542   3.806
82382W        W54807  29.591  10.157  12.533
82383W        W54808  12.674  23.238  11.551
82384W        W54809   0.423  32.036  13.799
82385W        W54810  33.119  26.973  11.052
82386W        W54811  12.159   1.954   4.822
82387W        W54812  43.298  18.189  13.992
82388W        W54813  23.024  20.741  14.783
82389W        W54814  17.568   2.243   3.688
82390W        W54815  41.020  11.200   3.710
82391W        W54816  25.576  38.466   4.319
82392W        W54817  42.354  29.608   3.173
82393W        W54818  31.599  40.017   0.452
82394W        W54819  36.427   5.904  13.313
82395W        W54820   3.723  28.561  14.888
82396W        W54821  15.328  38.370   3.867
82397W        W54822  27.478  10.193  14.347
82398W        W54823  29.614  28.002   0.274
82399W        W54824  12.318  43.456  10.575
82400W        W54825  13.724  19.603   1.245
82401W        W54826  37.874  44.288   2.411
82402W        W54827  19.593  43.906   4.122
82403W        W54828  10.719  35.037   3.257
82404W        W54829  15.110  10.152  13.824
82405W        W54830  25.479  41.830  14.813
82406W        W54831   4.740  28.968   2.835
82407W        W54832  22.685   2.764  13.407
82408W        W54833  42.827  38.952  13.048
82409W        W54834   3.301   9.323  14.952
82410W        W54835  31.007  26.071  13.035
82411W        W54836  14.619  22.236   3.677
82412W        W54837   6.751  29.163  14.325
82413W        W54838  12.205  16.704   4.291
82414W        W54839  15.221  44.353  13.548
82415W        W54840  33.978   8.895  13.465
82416W        W54841   3.772  37.534   4.222
82417W        W54842  21.668  36.997  11.545
82418W        W54843   9.852  17.278   3.328
82419W        W54844  44.364  33.018  14.305
82420W        W54845  22.675   0.831   0.932
82421W        W54846   6.846   5.431   0.796
82422W        W54847  39.856  43.812  11.860
82423W        W54848   5.404  14.766   1.877
82424W        W54849  11.340  29.668  13.390
82425W        W54850   9.356  18.637   3.255
82426W        W54851  15.213   6.268   2.193
82427W        W54852   2.952  35.370  12.360
82428W        W54853   6.410  34.059  11.882
82429W        W54854  27.681  17.253  11.901
82430W        W54855  17.730   0.433   4.741
82431W        W54856   1.765  36.396  13.842
82432W        W54857   5.734  16.163   4.599
82433W        W54858  44.830   7.681   4.760
82434W        W54859  30.482   3.221   0.967
82435W        W54860  29.139  38.876   1.241
82436W        W54861  21.178  27.970  13.512
82437W        W54862  21.729  23.542  10.953
82438W        W54863   4.899   3.331  12.491
82439W        W54864  31.941   8.286  13.970
82440W        W54865  11.767  10.357   2.694
82441W        W54866  30.943  27.490  11.562
82442W        W54867  36.589  42.989  13.546
82443W        W54868  43.000   5.391   2.814
82444W        W54869   1.951   1.745   4.769
82445W        W54870  19.157   2.406  12.580
82446W        W54871  18.599  23.579  12.385
82447W        W54872  17.575  39.006   3.198
82448W        W54873   9.353  27.007  12.088
82449W        W54874  38.561   6.712  11.421
82450W        W54875   4.245  41.004  14.423
82451W        W54876  11.865  21.531  12.079
82452W        W54877   8.814  18.269   1.448
82453W        W54878  30.130  42.887   2.737
82454W        W54879  32.932   0.951  10.447
82455W        W54880  42.393  20.152  11.455
82456W        W54881   9.311  24.509   2.247
82457W        W54882   7.343   3.229  13.453
82458W        W54883  39.484  26.026  14.805
82459W        W54884   9.652  15.115  11.486
82460W        W54885  39.378  13.275  14.436
82461W        W54886   4.400   3.346  11.608
82462W        W54887  18.182  12.336   2.392
82463W        W54888  42.968  12.844   2.263
82464W        W54889  32.117  15.767   2.756
82465W        W54890  11.667  17.163  10.448
82466W        W54891  12.267   0.294  12.095
82467W        W54892   0.743  43.398  14.455
82468W        W54893  14.198  32.405  10.930
82469W        W54894  35.508  39.992   3.846
82470W        W54895  14.816  10.791   2.269
82471W        W54896  15.642  34.497   3.701
82472W        W54897  39.824  30.548  12.364
82473W        W54898  41.008  37.494  12.429
82474W        W54899  26.002  25.676   0.818
82475W        W54900  12.731  38.346  13.938
82476W        W54901   6.385  26.556  10.570
82477W        W54902   5.319  22.102  11.875
82478W        W54903  35.474  16.293  12.992
82479W        W54904  35.461  29.540   1.888
82480W        W54905  40.920   1.388  10.548
82481W        W54906  28.582  32.414   0.894
82482W        W54907  25.610  33.457  10.961
82483W        W54908  33.935   6.397  13.358
82484W        W54909   5.744  31.485  14.984
82485W        W54910  22.225  11.766  14.488
82486W        W54911  13.243  27.130   0.803
82487W        W54912  23.018  41.455   4.279
82488W        W54913  33.465  23.540   3.810
82489W        W54914  17.787  24.050  14.443
82490W        W54915  13.299  18.623  13.341
82491W        W54916   7.841  30.914   1.446
82492W        W54917  26.982  43.285  12.580
82493W        W54918  39.947  34.936   2.778
82494W        W54919   0.918   4.247   1.319
82495W        W54920  26.028  36.065   1.333
82496W        W54921  28.595  11.706   4.221
82497W        W54922  44.773  26.536  10.526
82498W        W54923   5.347  19.246   1.802
82499W        W54924  42.363  37.556   1.360
82500W        W54925  28.010   6.227  12.354
82501W        W54926  33.572   9.888  12.903
82502W        W54927  32.941   3.946  10.463
82503W        W54928  35.982   6.775  12.536
82504W        W54929  24.052  37.485  10.419
82505W        W54930  10.828   9.245  11.435
82506W        W54931  40.383  28.531   3.632
82507W        W54932  39.037  35.413   1.288
82508W        W54933   3.393  43.777   3.722
82509W        W54934  23.614   1.381   1.902
82510W        W54935  15.604   7.280  13.451
82511W        W54936   4.241  31.560   4.766
82512W        W54937  15.726   9.859   4.198
82513W        W54938  12.125  29.020   2.267
82514W        W54939  11.808  11.320   9.932
82515W        W54940  29.440  20.113  11.440
82516W        W54941  13.231   7.403   2.219
82517W        W54942   3.391  15.600  10.985
82518W        W54943   1.767  41.420   0.752
82519W        W54944  33.909  17.566   2.740
82520W        W54945  15.092   9.363  14.330
82521W        W54946  35.361   2.830  14.330
82522W        W54947  30.495  14.211   2.801
82523W        W54948  19.736  19.147  13.459
82524W        W54949   4.751  37.949   3.832
82525W        W54950  37.832  40.515  14.764
82526W        W54951  42.934  32.563  12.345
82527W        W54952   2.807  24.585   3.227
82528W        W54953  17.292  15.703  13.456
82529W        W54954  30.076  16.187  11.436
82530W        W54955   8.736  18.230  11.510
82531W        W54956  33.985  22.175  10.636
82532W        W54957  25.676  23.714  11.941
82533W        W54958  13.242  36.430   3.867
82534W        W54959  33.404  15.650   3.782
82535W        W54960   2.347  22.234   0.336
82536W        W54961  42.902  40.353   0.358
82537W        W54962  40.807  18.738  12.934
82538W        W54963  21.209  30.008   2.703
82539W        W54964   1.934  31.483  10.443
82540W        W54965  12.200  14.095   0.427
82541W        W54966   3.834  36.968  11.489
82542W        W54967  31.501   6.730   3.182
82543W        W54968  29.663  31.107  12.069
82544W        W54969   5.739  26.522  13.502
82545W        W54970  14.160  42.342  11.054
82546W        W54971  32.449   4.335   2.189
82547W        W54972  13.115  20.740  10.452
82548W        W54973  32.091  14.644  14.945
82549W        W54974  15.675  25.541   4.157
82550W        W54975   6.311  30.498  13.444
82551W        W54976  25.589  42.411  12.076
82552W        W54977  12.240  36.394   3.231
82553W        W54978   7.381   0.744   4.779
82554W        W54979  33.504   3.740   4.715
82555W        W54980  13.201  20.062   1.392
82556W        W54981   9.268   5.363  13.323
82557W        W54982  21.714  44.356  13.332
82558W        W54983  24.108  40.505   0.284
82559W        W54984  35.023  23.188  11.034
82560W        W54985  42.291   9.805  13.988
82561W        W54986  35.963  43.992   3.804
82562W        W54987   7.729  26.587   0.256
82563W        W54988  31.579   5.274   2.405
82564W        W54989  19.652   5.889  12.523
82565W        W54990   1.384  33.959  14.011
82566W        W54991   2.462  34.081  11.482
82567W        W54992  20.528  20.618  11.406
82568W        W54993  30.942  22.108   3.351
82569W        W54994  19.633   3.787  10.603
82570W        W54995  13.636  29.156   3.834
82571W        W54996   0.776  32.925   1.422
82572W        W54997  43.819  36.962   3.260
82573W        W54998   7.187   7.318   1.793
82574W        W54999  31.538  25.111   2.227
82575W        W55000  38.485  42.291  14.285
82576W        W55001   7.221  26.967  13.467
82577W        W55002  40.353  22.649  10.414
82578W        W55003   5.234  26.646   4.327
82579W        W55004   7.837  33.432   2.397
82580W        W55005  36.933   0.773   0.426
82581W        W55006  40.490  24.638  13.522
82582W        W55007  11.197  26.972   0.798
82583W        W55008  29.969  38.031  14.006
82584W        W55009   8.395  10.362   2.208
82585W        W55010   3.777  34.547  13.411
82586W        W55011   5.766  20.705  14.941
82587W        W55012   8.220  37.494  12.047
82588W        W55013  44.949  24.551  10.608
82589W        W55014  19.188   0.370  13.348
82590W        W55015   7.255  27.640   0.288
82591W        W55016  24.721  12.834  14.817
82592W        W55017  41.398  26.554   3.832
82593W        W55018  28.055  16.178  12.008
82594W        W55019   3.420  34.481  14.454
82595W        W55020  10.749  40.438   4.828
82596W        W55021  39.996  35.028   3.641
82597W        W55022  43.806  40.954  11.034
82598W        W55023  26.626  28.544   0.771
82599W        W55024  31.049  19.189  11.125
82600W        W55025  21.193  12.272  12.570
82601W        W55026   9.218  36.920   5.127
82602W        W55027   0.311  21.172  13.385
82603W        W55028   7.396  40.373   3.336
82604W        W55029  14.146   1.891   3.378
82605W        W55030  36.881  21.702   2.252
82606W        W55031  18.637  15.691   2.802
82607W        W55032  43.952   7.314  11.955
82608W        W55033  31.449  34.908   0.292
82609W        W55034  12.665  34.887   2.769
82610W        W55035  21.576  28.544  11.584
82611W        W55036   6.336  19.647   0.249
82612W        W55037  32.938  16.683   1.410
82613W        W55038  39.367  31.997  10.507
82614W        W55039   5.203  30.521  10.416
82615W        W55040  29.629  41.977  12.840
82616W        W55041  14.744   4.904   0.260
82617W        W55042  40.836  13.808   0.260
82618W        W55043   9.364  25.682   2.668
82619W        W55044  11.796  29.437  14.396
82620W        W55045  20.144   7.354  11.399
82621W        W55046  23.180  35.859   0.336
82622W        W55047   3.284   2.739  13.501
82623W        W55048  21.116  30.493  13.842
82624W        W55049  22.636   1.915  13.875
82625W        W55050  36.044  14.300  13.995
82626W        W55051  43.326  14.267   2.212
82627W        W55052  20.175  24.027  13.988
82628W        W55053   4.885  44.358   4.656
82629W        W55054  18.582  30.636  12.339
82630W        W55055  29.003  27.573   0.815
82631W        W55056  18.575   7.395  12.577
82632W        W55057   7.410  14.220  10.637
82633W        W55058  15.662  26.494  10.066
82634W        W55059  13.689  37.924  10.524
82635W        W55060  42.981   4.837  10.566
82636W        W55061   5.416  29.610   2.687
82637W        W55062  15.813   0.966   1.704
82638W        W55063  18.701  35.000   1.414
82639W        W55064  30.526  39.957  14.799
82640W        W55065  22.504  28.056   0.364
82641W        W55066  28.444   3.330  11.090
82642W        W55067  18.676  40.032  11.557
82643W        W55068  25.193  30.640   4.801
82644W        W55069  38.965   7.303   1.236
82645W        W55070  37.847   5.279  13.330
82646W        W55071  40.435  31.140   2.771
82647W        W55072   8.778  23.097   4.197
82648W        W55073  34.047   6.188  11.050
82649W        W55074  38.380  23.193  13.920
82650W        W55075  23.025  20.145   2.815
82651W        W55076  27.141  42.963   1.805
82652W        W55077  32.943  21.135   3.192
82653W        W55078  12.722  36.463  13.493
82654W        W55079  25.679  43.951   1.759
82655W        W55080   1.238  31.490   3.847
82656W        W55081  29.962  26.644  10.912
82657W        W55082  18.690   0.435  11.015
82658W        W55083   3.749  23.681   1.808
82659W        W55084  43.366   6.854   0.382
82660W        W55085  38.947   2.935   0.796
82661W        W55086  22.042  37.406  10.545
82662W        W55087   4.318   8.738   1.833
82663W        W55088   2.348  25.186  13.030
82664W        W55089  40.427  14.628  12.925
82665W        W55090  20.092   1.335  11.069
82666W        W55091  20.580   8.874   1.210
82667W        W55092  16.274   5.358  11.924
82668W        W55093   7.389   6.911   3.677
82669W        W55094   5.265  42.005  11.440
82670W        W55095   1.345  31.503   1.838
82671W        W55096   8.379  12.288   4.656
82672W        W55097  20.654  15.639  10.503
82673W        W55098   6.743   2.414  14.924
82674W        W55099   6.805  19.660   0.817
82675W        W55100  27.573  23.631   3.300
82676W        W55101  10.841  37.834  12.557
82677W        W55102  35.007   1.265   2.855
82678W        W55103  32.124  42.864  12.532
82679W        W55104  18.123  17.604  11.394
82680W        W55105  19.259   8.356   3.798
82681W        W55106  44.953  19.191   4.116
82682W        W55107   4.318   1.820   4.334
82683W        W55108  22.180  41.338  14.913
82684W        W55109   7.847   1.829  11.521
82685W        W55110  42.493   3.855  12.550
82686W        W55111  10.196   8.186  12.571
82687W        W55112  24.590  21.658   1.833
82688W        W55113   2.958  19.540   3.797
82689W        W55114  11.255  24.546  14.428
82690W        W55115  23.082  24.642   4.631
82691W        W55116   4.446   4.287  11.389
82692W        W55117  29.120  26.560  13.041
82693W        W55118  11.642   3.890   4.288
82694W        W55119  14.720   9.688   0.913
82695W        W55120  43.304   4.285  10.919
82696W        W55121  19.687  30.112   4.740
82697W        W55122   9.154  17.234   4.810
82698W        W55123  32.109  12.781  14.344
82699W        W55124  40.003  10.867   0.810
82700W        W55125  42.965  22.174   2.405
82701W        W55126  25.136  11.670  11.068
82702W        W55127  28.083   3.299  12.014
82703W        W55128  21.233  38.517  13.055
82704W        W55129  25.633  33.098  10.608
82705W        W55130  15.618  12.276  12.392
82706W        W55131   3.307   3.289  10.094
82707W        W55132  27.511   7.256   2.866
82708W        W55133   8.306   3.231   3.743
82709W        W55134   6.345   5.687  11.533
82710W        W55135  17.557   3.341   1.911
82711W        W55136   7.280   9.350  10.938
82712W        W55137  20.226   5.868  13.063
82713W        W55138  35.109  28.000   3.645
82714W        W55139  18.594   2.920   3.346
82715W        W55140   6.871  25.210   0.427
82716W        W55141  26.666  34.975   4.761
82717W        W55142  31.532  34.512  10.637
82718W        W55143  25.667   1.866  12.543
82719W        W55144  17.760  27.636  13.508
82720W        W55145  22.745  23.721  10.428
82721W        W55146  25.704   0.923  13.513
82722W        W55147  13.642  17.630  12.403
82723W        W55148  15.321  36.905  13.791
82724W        W55149   2.941  36.488  11.892
82725W        W55150   5.758  41.465  11.868
82726W        W55151  44.340  22.147   1.275
82727W        W55152   0.973  33.568   3.160
82728W        W55153   8.293  12.237  10.913
82729W        W55154  23.048  16.073  13.800
82730W        W55155  26.505  38.420  11.105
82731W        W55156   3.925  29.542   3.830
82732W        W55157  41.519  39.927  13.413
82733W        W55158  19.616  30.009   1.861
82734W        W55159   1.926  22.622  10.903
82735W        W55160  10.294   4.386   2.335
82736W        W55161  26.091  44.933   4.339
82737W        W55162  35.067  34.532   4.702
82738W        W55163  13.615  33.389  12.407
82739W        W55164  43.406  29.441   3.740
82740W        W55165  41.325  42.954  10.012
82741W        W55166  37.997  20.230  13.534
82742W        W55167  10.158  15.202   2.834
82743W        W55168   7.231  13.143  13.996
82744W        W55169  23.158  25.649   0.952
82745W        W55170  37.503  20.205  13.937
82746W        W55171   8.364   2.803  14.330
82747W        W55172  30.629  17.232  14.492
82748W        W55173  41.533  36.397   0.339
82749W        W55174  13.234  33.571  10.562
82750W        W55175   5.197  39.511   0.728
82751W        W55176   6.789  11.782   4.741
82752W        W55177  29.010  41.989   2.794
82753W        W55178   3.750  14.201  11.578
82754W        W55179   1.285  19.622  14.831
82755W        W55180   3.224  39.469  12.894
82756W        W55181  28.126   4.220  12.044
82757W        W55182  17.238  22.550  10.117
82758W        W55183  18.116  19.125   0.257
82759W        W55184  40.807   3.726   4.145
82760W        W55185  35.452  23.702   3.240
82761W        W55186  12.758  38.960   0.895
82762W        W55187  39.026   3.312  14.865
82763W        W55188  43.771  38.515  11.373
82764W        W55189  13.726  38.495  12.045
82765W        W55190  39.501   0.775   1.350
82766W        W55191  26.481  14.768  11.493
82767W        W55192  13.674  29.175   4.838
82768W        W55193   7.671  12.641  12.983
82769W        W55194  25.042  17.224   2.398
82770W        W55195   0.440  20.685   0.277
82771W        W55196  19.207  39.892  10.946
82772W        W55197  42.847  27.094  14.845
82773W        W55198  19.614   3.337   1.408
82774W        W55199  38.332   7.825   0.948
82775W        W55200   9.660  40.899   4.284
82776W        W55201  44.295  24.225  12.402
82777W        W55202  19.593  20.762   3.171
82778W        W55203  19.764  23.987  14.938
82779W        W55204  23.230  35.999   3.223
82780W        W55205  22.011  12.336  11.408
82781W        W55206  16.693  28.961   4.175
82782W        W55207   4.299  30.075  12.875
82783W        W55208  21.250  14.589   1.301
82784W        W55209   4.346  16.670   2.318
82785W        W55210  35.364  43.840  10.433
82786W        W55211   6.184  30.522   0.297
82787W        W55212  35.475  16.727  14.368
82788W        W55213  29.630  42.379  10.404
82789W        W55214  16.703  26.680   5.081
82790W        W55215  12.361  18.162  14.925
82791W        W55216  28.082   4.713  12.454
82792W        W55217  44.911  44.443  14.302
82793W        W55218  40.938  22.563   3.654
82794W        W55219   5.436  13.134  11.521
82795W        W55220   8.877  40.025  13.936
82796W        W55221  26.042  21.184  10.908
82797W        W55222  34.427  32.005  13.959
82798W        W55223  31.491  10.169  14.407
82799W        W55224  35.408  27.652   2.765
82800W        W55225  17.152  38.058   0.348
82801W        W55226  44.827  43.490   1.334
82802W        W55227   9.747  40.012   1.881
82803W        W55228  24.687  41.435  14.487
82804W        W55229  17.127   1.253   2.364
82805W        W55230  13.802  13.753   0.946
82806W        W55231  36.085  43.009   3.820
82807W        W55232  13.220  41.909  14.992
82808W        W55233  13.276  29.425   2.384
82809W        W55234  23.644  38.938   3.291
82810W        W55235  27.193   2.246   3.160
82811W        W55236   5.854  29.996   1.356
82812W        W55237   4.934  14.647   0.396
82813W        W55238  23.583  11.259   0.944
82814W        W55239  33.481  32.067   4.226
82815W        W55240  13.117   7.817   0.832
82816W        W55241  11.790  25.125  11.891
82817W        W55242  33.557  27.016  11.004
82818W        W55243  12.754  25.644   3.679
82819W        W55244  42.811  19.283   0.277
82820W        W55245   1.855  31.626  12.876
82821W        W55246   7.219  28.992  14.870
82822W        W55247   9.697  29.043   4.193
82823W        W55248  30.546   2.722   0.927
82824W        W55249  43.429  29.151  13.931
82825W        W55250   6.284   1.400   4.776
82826W        W55251  13.222  13.627   1.315
82827W        W55252  17.282  14.757   2.891
82828W        W55253  35.978  24.206   5.249
82829W        W55254  12.625  12.713  13.388
82830W        W55255   9.713  26.999   2.818
82831W        W55256  23.180  44.770   0.888
82832W        W55257   1.813   9.196  13.439
82833W        W55258  36.390  35.008   4.616
82834W        W55259  21.082   8.767  14.864
82835W        W55260  38.438  33.414   0.296
82836W        W55261  13.614   1.952   4.745
82837W        W55262  26.585   5.880   3.805
82838W        W55263  28.988  21.225   4.146
82839W        W55264  33.428  24.529  12.562
82840W        W55265  12.152   7.856  11.511
82841W        W55266   0.784  33.937   2.749
82842W        W55267  28.166   8.684   3.158
82843W        W55268  26.663  17.293   0.730
82844W        W55269  38.481  20.085  12.528
82845W        W55270  43.795  32.131   1.894
82846W        W55271  39.916  18.067   2.863
82847W        W55272   6.422  19.109  14.861
82848W        W55273  21.659  37.493   1.748
82849W        W55274  38.821  26.681   0.405
82850W        W55275  38.924  34.409   0.767
82851W        W55276  42.828   1.935   0.805
82852W        W55277  39.850   3.417   0.260
82853W        W55278  34.074  40.999   4.293
82854W        W55279  34.433  15.706  14.772
82855W        W55280  35.468  11.291   3.203
82856W        W55281  37.890  18.286  12.401
82857W        W55282  23.114  40.804  13.973
82858W        W55283   8.691  38.053  10.936
82859W        W55284  24.620  44.911  10.620
82860W        W55285  19.099  37.454  11.863
82861W        W55286  18.619  29.470   5.268
82862W        W55287  31.038  39.885  10.108
82863W        W55288   5.358  43.474   1.894
82864W        W55289   4.857  22.680  11.909
82865W        W55290  41.932  11.166  10.899
82866W        W55291  14.616  10.375   4.299
82867W        W55292   9.663  10.662  14.994
82868W        W55293  14.772  34.553  10.141
82869W        W55294  35.064   1.798   3.147
82870W        W55295  33.876  13.777  11.566
82871W        W55296  22.139  11.218  10.513
82872W        W55297  11.236  35.534   2.328
82873W        W55298   3.714  39.993   3.149
82874W        W55299  40.491  30.474  11.536
82875W        W55300   9.660  25.117  11.003
82876W        W55301  24.550   3.440  13.455
82877W        W55302  42.855  37.457  13.878
82878W        W55303  42.337   3.728   4.190
82879W        W55304  18.657  14.776  12.357
82880W        W55305  31.431  41.486   2.782
82881W        W55306  17.638  32.888  13.012
82882W        W55307  10.658  43.493  12.475
82883W        W55308  37.404  27.561   0.846
82884W        W55309   3.407   6.196  13.363
82885W        W55310  21.039  30.444  10.065
82886W        W55311  36.927   8.240  11.561
82887W        W55312  25.593  25.495   3.326
82888W        W55313  44.494  21.700  14.843
82889W        W55314   1.847   0.776  11.446
82890W        W55315   1.438  40.968   2.762
82891W        W55316  15.143  32.484   1.310
82892W        W55317  30.654  25.549   4.269
82893W        W55318  24.689  44.831   3.738
82894W        W55319  29.444  38.849   9.960
82895W        W55320   9.754  16.259   0.477
82896W        W55321  39.817   1.278  10.926
82897W        W55322   9.677  34.417  12.386
82898W        W55323  12.125  43.972   0.250
82899W        W55324  11.784  11.814   1.439
82900W        W55325  12.193  43.905   2.866
82901W        W55326   2.438   4.734   1.429
82902W        W55327  44.435  17.307   4.129
82903W        W55328  28.661  21.210  13.998
82904W        W55329  44.369  11.850  10.133
82905W        W55330  24.085  15.324   0.936
82906W        W55331   6.725  26.062  10.980
82907W        W55332  17.189  35.592  13.386
82908W        W55333  19.606  12.180  11.557
82909W        W55334  38.003   5.756   1.288
82910W        W55335  28.933   1.820   4.229
82911W        W55336   1.921  37.019  14.415
82912W        W55337  43.368  13.333   2.345
82913W        W55338  11.848  11.304   3.264
82914W        W55339  43.868  40.357  13.474
82915W        W55340  37.575  21.167   3.688
82916W        W55341  15.219   5.762   0.295
82917W        W55342   1.422  39.424  10.971
82918W        W55343   8.358  13.802   1.894
82919W        W55344  14.790   2.728   0.865
82920W        W55345  20.129   1.300  14.429
82921W        W55346  22.557  10.715   5.607
82922W        W55347  32.562  15.103   1.325
82923W        W55348  34.595  37.460  14.510
82924W        W55349  18.747  11.191  12.576
82925W        W55350  26.042  28.063   1.884
82926W        W55351  22.588  25.048   5.208
82927W        W55352  22.538  22.676  12.979
82928W        W55353  26.054  12.838  14.782
82929W        W55354   0.323  19.574   4.216
82930W        W55355   7.402   5.845   2.727
82931W        W55356  32.443  19.163  13.435
82932W        W55357  17.117  15.255  14.411
82933W        W55358  27.584  11.333   2.337
82934W        W55359  26.141  23.595   0.246
82935W        W55360  20.712  32.944  14.764
82936W        W55361  21.628  24.090  13.386
82937W        W55362  32.116  23.136   2.391
82938W        W55363   3.452  16.666  13.356
82939W        W55364  26.155  20.612   1.713
82940W        W55365  44.796  26.509  13.373
82941W        W55366  27.551  42.407   3.797
82942W        W55367  14.328  35.090  13.405
82943W        W55368  12.825  40.806  11.582
82944W        W55369  33.549  11.138   3.282
82945W        W55370   0.459  33.110  11.930
82946W        W55371  42.873  17.731  14.351
82947W        W55372  30.482  26.095   4.800
82948W        W55373  18.270  18.268   4.778
82949W        W55374  18.294  17.585   2.262
82950W        W55375  38.557  34.596  14.815
82951W        W55376   0.810  21.747  12.367
82952W        W55377  14.206   7.830  13.914
82953W        W55378  24.708   4.264  12.901
82954W        W55379  35.969   5.906   0.268
82955W        W55380  18.725  34.538  12.501
82956W        W55381  17.799  29.138   4.839
82957W        W55382  21.021  36.916   2.401
82958W        W55383   1.737  43.321  13.320
82959W        W55384   9.882  32.913   2.686
82960W        W55385  20.094   0.827  12.056
82961W        W55386  33.908  15.165   2.901
82962W        W55387  26.683   3.378   0.367
82963W        W55388  44.491   8.733   1.734
82964W        W55389   2.261  19.283  13.825
82965W        W55390  34.899  13.706  13.954
82966W        W55391  12.712  17.574  10.938
82967W        W55392   6.312  41.880   4.693
82968W        W55393   8.299  41.383   1.891
82969W        W55394  11.332   2.837   1.752
82970W        W55395  38.445   6.283   0.324
82971W        W55396  37.353  33.049  10.451
82972W        W55397  20.768  44.312   4.692
82973W        W55398  21.668  17.274   3.294
82974W        W55399  27.942  18.685  12.496
82975W        W55400  32.937  15.802  11.903
82976W        W55401   3.925  31.108   3.312
82977W        W55402  20.678  24.660  10.537
82978W        W55403  44.486   8.346   5.270
82979W        W55404  20.109  28.532  12.066
82980W        W55405  20.152  14.749   3.770
82981W        W55406  26.991  44.295   0.444
82982W        W55407  25.151  37.990  10.950
82983W        W55408  11.145  24.588  14.917
82984W        W55409  41.293  13.128   3.362
82985W        W55410  19.216  22.214   3.291
82986W        W55411  41.914   6.832  10.512
82987W        W55412  43.806  20.236   0.432
82988W        W55413  29.639   0.948  14.476
82989W        W55414  23.594  39.996  14.437
82990W        W55415   3.787  16.574  14.963
82991W        W55416  10.265  42.312   0.801
82992W        W55417  38.941   9.678   1.392
82993W        W55418  42.361   2.766   0.833
82994W        W55419   1.947  12.209   3.292
82995W        W55420  23.697  10.662   1.381
82996W        W55421  35.044  16.706  14.773
82997W        W55422   2.381  30.121  14.450
82998W        W55423   8.220  35.511  14.379
82999W        W55424   8.719  17.641   3.808
83000W        W55425  40.307  40.961   2.676
83001W        W55426  36.902   2.406   0.886
83002W        W55427  28.158  23.105  10.424
83003W        W55428   1.764  23.540  14.965
83004W        W55429  43.354  13.719   0.787
83005W        W55430  28.011  34.490   1.739
83006W        W55431   2.369  27.148  10.524
83007W        W55432  32.617  34.386  10.497
83008W        W55433  22.228   1.892  13.376
83009W        W55434  35.043   0.412  13.941
83010W        W55435  32.085   1.791   1.886
83011W        W55436   3.352   8.852  11.947
83012W        W55437  18.139   3.448   1.756
83013W        W55438  27.683  22.019   4.744
83014W        W55439  22.043   5.344   4.264
83015W        W55440  39.918   2.885  14.019
83016W        W55441  40.956  14.835   1.786
83017W        W55442  43.411  42.292   2.752
83018W        W55443   8.369   1.427  14.003
83019W        W55444   0.263  30.087   0.382
83020W        W55445  13.237   1.472   0.455
83021W        W55446  37.967  30.470   5.101
83022W        W55447  41.336  28.526   0.881
83023W        W55448  18.159   9.362  12.876
83024W        W55449   5.411  20.580  11.424
83025W        W55450  28.681  17.264   2.840
83026W        W55451  18.546  39.820   4.697
83027W        W55452   4.824   1.288  12.889
83028W        W55453  44.874   5.417   1.855
83029W        W55454   1.459  16.668   0.896
83030W        W55455  13.117  14.146  11.066
83031W        W55456  25.115  14.633   1.801
83032W        W55457   0.825   7.778   2.898
83033W        W55458  27.447  42.941   0.477
83034W        W55459   3.372  20.273  13.947
83035W        W55460   3.220  36.581  10.634
83036W        W55461  11.707  38.335  13.400
83037W        W55462  30.079  27.585  14.946
83038W        W55463   4.745  37.416  10.917
83039W        W55464  26.073   8.238  12.049
83040W        W55465  44.764   8.681  13.404
83041W        W55466  17.161  28.634  14.966
83042W        W55467  19.109  42.328   0.380
83043W        W55468  22.133  12.705   4.669
83044W        W55469  19.060  22.079   1.863
83045W        W55470  43.898  23.503   0.420
83046W        W55471  34.538   6.691  14.027
83047W        W55472   7.384  19.249  13.889
83048W        W55473   9.682  37.408  14.324
83049W        W55474  35.426  40.902   0.467
83050W        W55475  34.518  31.033  10.921
83051W        W55476  35.473   2.843  11.986
83052W        W55477   0.452  42.800  12.430
83053W        W55478  43.318  43.844  13.507
83054W        W55479  14.238  34.876   4.292
83055W        W55480  17.114  21.108  13.542
83056W        W55481  23.706   4.227   0.960
83057W        W55482  34.377  12.737  11.995
83058W        W55483   0.957   3.223   5.154
83059W        W55484   1.259   3.319   4.260
83060W        W55485  12.205  24.721   0.916
83061W        W55486  25.185  22.059  13.469
83062W        W55487  18.715   7.173   4.797
83063W        W55488  16.702  43.908   2.208
83064W        W55489  10.289  19.586   4.696
83065W        W55490  25.506  21.755  14.864
83066W        W55491  16.314   7.856  12.837
83067W        W55492   8.779  41.313   2.682
83068W        W55493  36.077  17.211   1.333
83069W        W55494  41.980  30.162   4.286
83070W        W55495  10.864  10.731  12.864
83071W        W55496  26.538  28.937   1.803
83072W        W55497   9.338  35.546  13.520
83073W        W55498   1.854  19.263   1.365
83074W        W55499  13.150  25.577  14.986
83075W        W55500   6.917   2.269   4.205
83076W        W55501  28.439  29.003  11.535
83077W        W55502  27.508   5.878  11.550
83078W        W55503  38.987  32.937  12.407
83079W        W55504  20.573   7.758   2.230
83080W        W55505  16.634  38.033  14.973
83081W        W55506  32.553   9.876  14.898
83082W        W55507  37.518   5.265   0.913
83083W        W55508  36.428  43.510   3.297
83084W        W55509  20.720   3.884  12.530
83085W        W55510   1.746  40.900  10.614
83086W        W55511  34.010  39.360   3.204
83087W        W55512  38.453  13.807   2.726
83088W        W55513  39.991   1.478   3.284
83089W        W55514  43.463   9.295   1.789
83090W        W55515  34.901  18.581  14.766
83091W        W55516   4.398   4.338   4.819
83092W        W55517   4.367   2.301  14.510
83093W        W55518  38.903  33.967  14.417
83094W        W55519  20.120  43.270   4.741
83095W        W55520   2.918  18.114  13.813
83096W        W55521  37.565  44.428   3.297
83097W        W55522  11.318   9.293   1.372
83098W        W55523  41.441  29.592   3.239
83099W        W55524   4.787   6.718   0.405
83100W        W55525   4.906   2.726  13.032
83101W        W55526  14.746  37.936  14.908
83102W        W55527  34.514  38.032   4.664
83103W        W55528   2.868  18.607   0.272
83104W        W55529  31.461  44.380   3.864
83105W        W55530  39.518  20.169   2.796
83106W        W55531  32.066  32.106  14.947
83107W        W55532  41.427  42.296  12.944
83108W        W55533  37.842  17.615  13.800
83109W        W55534  43.348  16.227  10.472
83110W        W55535  39.051   4.722   1.776
83111W        W55536  29.075  28.589   1.882
83112W        W55537   7.336  38.888  14.983
83113W        W55538  30.979   2.313  10.492
83114W        W55539  17.733  13.252  10.569
83115W        W55540  22.663  30.598  13.861
83116W        W55541  31.952  40.842  10.477
83117W        W55542   4.333  30.602  13.368
83118W        W55543   6.225  43.791   1.300
83119W        W55544  30.477  26.462   3.317
83120W        W55545  34.051  14.600   2.223
83121W        W55546  31.586  38.421  14.869
83122W        W55547  42.429   7.400   0.848
83123W        W55548  33.574  19.178   3.199
83124W        W55549  12.853  13.664   3.289
83125W        W55550  33.539   5.725  12.522
83126W        W55551  29.538   3.815  13.320
83127W        W55552  34.091  38.002   4.351
83128W        W55553  17.719  25.681  13.532
83129W        W55554  19.742   4.315   3.230
83130W        W55555  25.608  32.096   0.792
83131W        W55556   6.310  34.048   4.201
83132W        W55557  12.156   3.951  10.515
83133W        W55558  17.238  34.456   2.705
83134W        W55559  13.689  40.945  11.980
83135W        W55560  41.972   4.256   3.632
83136W        W55561   1.780  18.108   2.798
83137W        W55562   4.903  32.610   2.688
83138W        W55563   0.459  16.077  14.310
83139W        W55564   8.165  27.578   4.228
83140W        W55565  13.308  24.682   9.600
83141W        W55566  11.712   9.674   4.120
83142W        W55567  44.447  14.333  12.070
83143W        W55568  21.024   3.415  13.972
83144W        W55569   7.394  27.624  13.814
83145W        W55570  37.044  31.130   2.289
83146W        W55571  16.172  33.507  11.478
83147W        W55572  25.004  22.126  11.874
83148W        W55573  18.694  32.472   5.210
83149W        W55574   1.892  27.549   1.883
83150W        W55575  20.030  30.053  14.765
83151W        W55576  34.873   8.765  12.938
83152W        W55577   8.853  30.065  13.519
83153W        W55578  19.773  20.187   4.820
83154W        W55579  40.353  12.238  13.343
83155W        W55580  35.928  38.073   4.702
83156W        W55581  39.870  12.617   4.340
83157W        W55582  15.325  27.676  14.912
83158W        W55583   4.422  31.925  13.462
83159W        W55584   2.460   1.879   4.268
83160W        W55585  19.069  18.059   2.324
83161W        W55586  29.504  26.187  13.010
83162W        W55587  10.262  12.852   4.727
83163W        W55588  25.581  35.994   0.812
83164W        W55589   9.204   6.815  12.977
83165W        W55590  24.147  32.031   0.252
83166W        W55591   1.835  36.926  11.589
83167W        W55592  14.128  22.154  13.865
83168W        W55593  23.987   5.391   3.277
83169W        W55594  19.592  15.694  10.964
83170W        W55595   7.765   8.786   2.898
83171W        W55596  42.312  44.311  12.474
83172W        W55597  20.105  35.070   0.465
83173W        W55598  10.647  25.012  12.390
83174W        W55599  13.334  36.062   1.302
83175W        W55600  15.137  41.891   1.302
83176W        W55601  30.092  30.922   3.346
83177W        W55602  24.139  20.701  11.597
83178W        W55603  20.597  15.129   1.911
83179W        W55604   4.277  42.893  13.414
83180W        W55605  31.971  33.484   2.312
83181W        W55606  11.147  10.306   0.925
83182W        W55607  35.400  39.016  12.020
83183W        W55608  19.076  26.027   0.882
83184W        W55609   9.265  44.357  11.460
83185W        W55610   7.282   5.900   1.340
83186W        W55611  24.193  22.081   4.814
83187W        W55612  44.885   0.385   0.299
83188W        W55613  27.171  19.545   5.221
83189W        W55614  22.535   0.342   2.835
83190W        W55615   2.821   0.429   0.330
83191W        W55616  43.441  34.049  11.015
83192W        W55617  17.578  15.142  14.414
83193W        W55618  36.548  25.162   2.202
83194W        W55619  34.446  23.128   0.959
83195W        W55620  19.726  29.008  13.546
83196W        W55621  23.197  24.023   2.795
83197W        W55622  42.451  13.659   3.811
83198W        W55623  11.856  11.628   4.621
83199W        W55624  21.166  32.065  13.496
83200W        W55625  18.241  19.567   0.869
83201W        W55626   4.428  15.704   0.440
83202W        W55627  19.186  31.083  11.031
83203W        W55628  14.690  33.387   0.895
83204W        W55629  26.120  42.846   3.689
83205W        W55630  30.466   7.198   2.187
83206W        W55631  17.255   6.382   2.871
83207W        W55632  43.836  37.528  11.011
83208W        W55633  12.669  14.170  13.333
83209W        W55634  30.638  40.864  13.519
83210W        W55635  34.098  12.125  11.124
83211W        W55636  43.875  23.697  11.967
83212W        W55637  18.201  13.839  14.803
83213W        W55638  10.681   6.202   1.831
83214W        W55639   2.790  13.752  12.575
83215W        W55640  29.030  22.679   0.464
83216W        W55641  31.551  20.028   0.330
83217W        W55642  12.811  28.598   0.420
83218W        W55643   9.814  13.123   3.848
83219W        W55644  43.276  23.086   2.214
83220W        W55645  44.922   8.259  14.455
83221W        W55646  13.223  16.663   0.753
83222W        W55647  32.086  21.221   1.722
83223W        W55648  27.157   3.809  14.001
83224W        W55649   5.754  37.870   0.967
83225W        W55650  43.397  32.531   4.680
83226W        W55651  24.650   5.863  12.050
83227W        W55652  37.445  21.681   2.901
83228W        W55653   7.863   3.457  11.518
83229W        W55654  13.278  18.070   2.204
83230W        W55655  16.214  17.242  10.556
83231W        W55656  36.558  12.187   2.308
83232W        W55657  14.123  33.606  10.999
83233W        W55658  11.135  17.250   2.266
83234W        W55659  38.372   0.258   3.299
83235W        W55660  14.186  29.530   1.259
83236W        W55661  10.282   3.295   1.921
83237W        W55662   9.664  18.256  14.336
83238W        W55663   0.987  12.201   2.790
83239W        W55664  14.799  31.955   2.886
83240W        W55665  35.988   4.801   2.257
83241W        W55666  44.973  10.276  12.436
83242W        W55667  41.314  33.039   4.738
83243W        W55668   2.294  16.621   2.238
83244W        W55669  21.643  32.513   4.180
83245W        W55670  29.165   8.899   0.940
83246W        W55671  17.300  18.074  13.883
83247W        W55672  21.044  39.484   1.384
83248W        W55673  40.376  27.466  11.090
83249W        W55674   5.930  23.568  12.964
83250W        W55675  13.301  36.867  10.483
83251W        W55676  15.697  29.456   2.796
83252W        W55677  13.726  18.580   2.225
83253W        W55678   7.727  10.173  10.931
83254W        W55679  41.362  40.505   1.707
83255W        W55680  40.523  20.606   2.242
83256W        W55681   3.784  12.273  12.359
83257W        W55682  12.844   5.762   0.369
83258W        W55683  24.207  20.588  13.395
83259W        W55684  10.194  29.592   1.360
83260W        W55685   1.323   7.750   0.777
83261W        W55686  17.076  28.542   0.310
83262W        W55687   6.755  23.228  14.356
83263W        W55688  10.284  20.653   3.318
83264W        W55689  32.407   9.750   2.704
83265W        W55690  18.603  36.919   1.326
83266W        W55691  36.463  43.332  10.597
83267W        W55692  13.240  36.348  10.561
83268W        W55693  39.560  19.657   0.245
83269W        W55694  37.897  25.610   5.146
83270W        W55695  36.419  14.784   3.641
83271W        W55696  18.662  13.720  14.959
83272W        W55697  26.631  14.246   2.221
83273W        W55698   0.384  26.604   4.114
83274W        W55699   4.273  15.280  14.808
83275W        W55700  27.573  13.622  14.428
83276W        W55701  42.490   8.164  11.918
83277W        W55702  37.849  36.888  11.980
83278W        W55703   2.295  17.592   0.759
83279W        W55704  40.043  11.805  14.944
83280W        W55705  42.015   5.724  12.084
83281W        W55706  22.586   2.450  11.974
83282W        W55707   9.692  13.810   3.190
83283W        W55708  17.135  18.262  12.444
83284W        W55709   4.223  26.084   3.340
83285W        W55710  33.980  25.064   3.215
83286W        W55711   4.210  13.726  13.915
83287W        W55712  13.330  42.897   4.621
83288W        W55713  40.929  27.169  12.552
83289W        W55714  36.038  27.540  12.548
83290W        W55715  13.261  11.736   3.229
83291W        W55716  43.296  23.207  13.528
83292W        W55717   8.299  40.858   3.360
83293W        W55718  26.526  44.462   1.219
83294W        W55719  14.218   0.894   5.185
83295W        W55720  22.235  28.012   4.741
83296W        W55721  38.445   7.694   3.244
83297W        W55722  15.667  40.451   5.278
83298W        W55723   7.667  22.720   4.627
83299W        W55724  35.030  40.354   5.247
83300W        W55725  15.810  37.343  10.529
83301W        W55726  26.619   9.746   4.281
83302W        W55727  20.253  19.074  14.796
83303W        W55728  30.136  16.178   0.877
83304W        W55729   2.391   3.447   1.363
83305W        W55730  38.915  31.611   3.857
83306W        W55731  37.083  34.548   3.260
83307W        W55732  44.887   1.270   0.835
83308W        W55733  44.263  19.250  12.408
83309W        W55734   8.298  26.576   3.774
83310W        W55735  11.136  38.456   1.800
83311W        W55736   4.390  33.485  11.400
83312W        W55737  23.688  37.353   3.217
83313W        W55738   5.913  44.345  10.952
83314W        W55739  12.736  24.201  14.509
83315W        W55740   9.231  37.569  10.105
83316W        W55741  27.477  39.377   0.338
83317W        W55742  23.684   3.317  13.815
83318W        W55743  25.976   7.337  13.805
83319W        W55744  36.962  23.004   4.133
83320W        W55745  27.523   9.354  11.452
83321W        W55746   3.886  24.621   0.274
83322W        W55747   6.307  43.393   1.270
83323W        W55748  32.423   5.884  12.958
83324W        W55749  37.872  35.587  10.969
83325W        W55750  21.084   3.251   2.820
83326W        W55751   9.275  31.924  13.878
83327W        W55752  27.468  20.565  14.971
83328W        W55753  18.246  15.717  12.834
83329W        W55754  37.472  25.080   1.415
83330W        W55755   0.256  17.242   3.727
83331W        W55756  32.442  29.576   2.736
83332W        W55757  26.987  18.771   4.659
83333W        W55758  10.250  23.663   1.440
83334W        W55759   7.394  29.002   1.931
83335W        W55760  18.110  37.450   0.321
83336W        W55761  10.243  37.364   3.247
83337W        W55762  24.545  22.601  10.530
83338W        W55763  13.758  40.322  13.324
83339W        W55764  38.512   9.162  11.448
83340W        W55765   7.719  21.674   2.765
83341W        W55766  12.751   1.747  13.900
83342W        W55767  38.945   4.749   2.260
83343W        W55768   9.723  26.967   3.325
83344W        W55769  10.323  44.283  14.986
83345W        W55770  18.198  26.062  11.033
83346W        W55771  35.414   1.361  11.389
83347W        W55772   4.866  14.304   0.876
83348W        W55773   3.751   5.917   1.286
83349W        W55774  37.052   6.391  13.524
83350W        W55775  38.823   0.371   1.330
83351W        W55776  30.572  28.527  11.555
83352W        W55777  14.231  31.119   2.269
83353W        W55778  40.957   0.265  11.562
83354W        W55779   3.831  42.287  10.898
83355W        W55780  43.451  24.687   4.354
83356W        W55781  43.499  10.722   1.873
83357W        W55782  36.592  18.187   3.768
83358W        W55783  43.378   0.327   4.164
83359W        W55784  29.098   1.777   1.889
83360W        W55785  21.075  28.037  12.547
83361W        W55786  44.499   2.768  12.917
83362W        W55787  21.111   8.700   2.245
83363W        W55788  42.497  18.693   4.134
83364W        W55789   7.224   8.875   1.438
83365W        W55790   2.458  41.441  14.467
83366W        W55791  31.900  25.546  13.400
83367W        W55792   7.769  39.447  10.889
83368W        W55793  14.808  30.488  11.409
83369W        W55794  25.549   2.387  12.942
83370W        W55795  27.640  22.649   1.869
83371W        W55796  27.162  21.228  13.548
83372W        W55797  33.987  39.840   3.231
83373W        W55798   7.416  18.223   3.173
83374W        W55799  16.216  38.365  11.582
83375W        W55800  11.798  23.166   0.272
83376W        W55801  42.522  29.149   2.803
83377W        W55802  18.266   6.271  10.522
83378W        W55803   9.255  23.657   5.217
83379W        W55804  29.431  26.181   2.744
83380W        W55805  34.065   3.779  12.962
83381W        W55806  13.128  22.545  11.512
83382W        W55807  23.052   4.367   3.638
83383W        W55808   4.316  31.529   1.317
83384W        W55809  24.565   0.885  11.489
83385W        W55810  23.672  24.704   4.348
83386W        W55811  16.724  37.462   3.316
83387W        W55812  31.081  19.087   9.661
83388W        W55813   9.330  32.045  12.459
83389W        W55814  12.662  28.474  13.829
83390W        W55815  22.511  31.523  14.435
83391W        W55816  43.489  29.659   2.886
83392W        W55817  40.895   3.814  14.940
83393W        W55818  24.522  37.082  14.916
83394W        W55819  16.221  11.343   3.859
83395W        W55820  19.053  19.213   1.417
83396W        W55821  35.419   5.203  14.413
83397W        W55822  44.483   8.333   9.997
83398W        W55823  12.217  19.733   2.299
83399W        W55824  40.491  32.949   1.753
83400W        W55825  34.876   2.873   3.828
83401W        W55826  10.691  22.143  11.516
83402W        W55827  33.452  31.122   9.933
83403W        W55828  17.577  13.747   4.790
83404W        W55829  34.456  37.461  12.051
83405W        W55830  13.704   9.322   2.192
83406W        W55831   8.792  20.704   1.779
83407W        W55832  22.531  43.967   1.343
83408W        W55833  13.600  10.801   0.385
83409W        W55834  43.478  20.151  11.396
83410W        W55835   5.231   8.745  13.801
83411W        W55836  10.840  30.648  12.008
83412W        W55837  16.704  36.583  13.408
83413W        W55838   0.343  42.498  13.431
83414W        W55839  29.976  19.721  12.960
83415W        W55840  14.723  29.664  10.593
83416W        W55841  25.002  10.335  13.337
83417W        W55842   5.395  18.210  11.529
83418W        W55843  43.923  31.435   2.771
83419W        W55844  37.999   2.877  11.534
83420W        W55845  16.288  26.142   4.330
83421W        W55846  24.088  28.631  10.408
83422W        W55847  42.897  33.911   4.783
83423W        W55848  37.067  37.073  12.980
83424W        W55849  15.650   4.383   1.826
83425W        W55850  11.699  34.587   0.278
83426W        W55851  18.611  28.614  11.917
83427W        W55852  29.149   8.796   2.221
83428W        W55853  31.994  14.628   2.669
83429W        W55854  26.608  15.228  10.457
83430W        W55855   5.724  40.413   4.748
83431W        W55856  26.590   6.711   4.352
83432W        W55857   7.809  20.643  13.412
83433W        W55858  41.314  15.631  12.387
83434W        W55859   1.821  19.145  14.893
83435W        W55860  40.356  39.455   0.287
83436W        W55861  28.445  18.226  13.962
83437W        W55862  43.455  18.062  14.962
83438W        W55863  13.136  12.260   2.873
83439W        W55864   5.880  32.461   3.647
83440W        W55865  38.871  41.910  11.118
83441W        W55866   5.693  14.813   0.262
83442W        W55867   9.175  17.085   1.757
83443W        W55868   3.453  12.175   3.824
83444W        W55869  18.102  28.515   4.606
83445W        W55870  41.936  41.316   4.737
83446W        W55871  12.617  28.100  13.360
83447W        W55872  32.517  39.486   3.846
83448W        W55873  11.130  26.688   9.934
83449W        W55874  42.988   0.285   1.252
83450W        W55875  10.333  34.990  13.929
83451W        W55876  40.961  33.962  14.984
83452W        W55877  28.038   6.681  12.066
83453W        W55878  30.531  34.893   2.348
83454W        W55879  15.122  40.870   0.907
83455W        W55880  11.838  19.696  14.833
83456W        W55881  35.022  15.204  12.951
83457W        W55882  27.510  29.008   4.730
83458W        W55883  44.485  10.210   4.215
83459W        W55884  30.993   7.716  10.428
83460W        W55885  16.162  23.678  12.578
83461W        W55886  18.590  34.541  11.994
83462W        W55887  42.000  22.035   2.797
83463W        W55888  24.529  14.686  11.476
83464W        W55889  26.010  33.001   3.267
83465W        W55890  27.951  20.205   2.369
83466W        W55891   0.427  26.638  10.528
83467W        W55892   5.759   2.268  11.581
83468W        W55893  33.103  30.065   3.661
83469W        W55894  30.586  27.608  12.502
83470W        W55895  14.694  22.203  10.485
83471W        W55896  29.526  31.475   4.675
83472W        W55897  23.221   1.814   3.319
83473W        W55898  31.052  23.687  14.353
83474W        W55899  35.073  28.577  10.902
83475W        W55900  44.329  36.919   0.437
83476W        W55901   5.772   3.344  10.991
83477W        W55902  14.634  43.794   2.798
83478W        W55903  41.361  20.256  11.378
83479W        W55904  44.773  43.955  11.949
83480W        W55905  19.593  31.464   3.690
83481W        W55906  32.434  38.405   0.368
83482W        W55907  25.126  29.574   1.873
83483W        W55908  26.172   5.755   0.786
83484W        W55909  17.206  16.181   1.934
83485W        W55910  10.742  44.367  14.995
83486W        W55911  33.475  35.910  13.518
83487W        W55912  15.695   3.745   0.786
83488W        W55913  18.781  44.008  14.391
83489W        W55914  27.957  10.672  11.961
83490W        W55915  16.617  22.213   1.707
83491W        W55916  31.134  25.684  13.308
83492W        W55917  37.442  23.137   2.771
83493W        W55918  20.179  16.703  14.376
83494W        W55919  29.088   3.297  14.847
83495W        W55920  21.608   7.713  12.451
83496W        W55921   4.263  30.432   4.285
83497W        W55922   6.679   0.305  11.886
83498W        W55923  40.371  25.496   4.780
83499W        W55924   4.369  44.337   4.686
83500W        W55925  32.068  12.347  13.862
83501W        W55926   9.390  12.752   2.314
83502W        W55927  16.640  21.031  11.380
83503W        W55928  30.530  30.111  14.763
83504W        W55929   5.842  28.559  14.798
83505W        W55930  12.802   2.231   4.266
83506W        W55931  29.526  43.792   0.952
83507W        W55932  42.817   2.282  11.981
83508W        W55933  18.680  11.304   2.848
83509W        W55934  41.415  24.166  12.937
83510W        W55935  23.628  30.932  13.872
83511W        W55936  29.168  29.545  12.429
83512W        W55937   7.755  44.500   0.928
83513W        W55938  16.110  44.321  12.386
83514W        W55939  30.558  37.018   2.846
83515W        W55940  15.292   7.237   0.762
83516W        W55941  19.764  26.620   5.323
83517W        W55942   3.370  35.548  13.368
83518W        W55943  22.229  38.503   3.796
83519W        W55944  21.690  18.758  12.458
83520W        W55945  33.580   3.712  10.500
83521W        W55946  20.613  11.710  14.904
83522W        W55947  21.691  28.100  13.479
83523W        W55948  42.964  18.760   4.326
83524W        W55949  29.661  44.325   3.242
83525W        W55950  23.638  13.208   4.207
83526W        W55951  23.638   7.368  13.385
83527W        W55952  38.909  35.855  13.509
83528W        W55953  13.175  30.426  10.058
83529W        W55954  10.335  19.182  13.335
83530W        W55955  22.731  39.037   4.171
83531W        W55956  24.480  11.131   2.277
83532W        W55957   1.795   6.766   3.649
83533W        W55958  42.892   1.813  14.888
83534W        W55959  30.558  27.553  10.114
83535W        W55960   2.947   0.786  14.840
83536W        W55961  35.068  43.954  12.044
83537W        W55962  44.337  31.023   0.910
83538W        W55963  28.180  11.751   3.737
83539W        W55964  38.999  43.329   0.318
83540W        W55965  17.800  39.836   0.461
83541W        W55966  15.305  43.440   3.850
83542W        W55967  29.148  24.584   4.673
83543W        W55968  20.547  34.961   0.776
83544W        W55969  22.227  29.458  14.442
83545W        W55970  10.683  15.102  12.881
83546W        W55971  16.572  37.995  13.374
83547W        W55972  10.646  37.459   1.844
83548W        W55973  18.548  22.613   3.277
83549W        W55974  20.118  20.139   3.742
83550W        W55975  42.463  25.146  14.937
83551W        W55976   3.253  27.999   5.119
83552W        W55977   0.959  41.834   1.879
83553W        W55978  16.280  31.631   1.734
83554W        W55979  24.673  44.930   3.188
83555W        W55980  25.021   7.333   4.314
83556W        W55981  44.354  15.173  13.796
83557W        W55982  13.275   8.812  14.444
83558W        W55983  22.715  12.697  10.502
83559W        W55984  43.875  26.047  14.772
83560W        W55985   7.751   2.740   4.225
83561W        W55986  42.988  31.413   1.748
83562W        W55987  21.056   1.898  12.895
83563W        W55988  29.564  32.550  14.390
83564W        W55989  20.161  22.179   1.754
83565W        W55990   5.403  13.144  10.508
83566W        W55991  23.056  40.416   2.406
83567W        W55992  37.868  31.604  10.632
83568W        W55993  28.990  43.311   4.787
83569W        W55994  16.590   0.453   3.299
83570W        W55995   5.830  17.655  10.557
83571W        W55996   5.330  27.174  13.809
83572W        W55997  40.428   9.180  13.817
83573W        W55998  27.104  44.773   3.187
83574W        W55999  14.198  16.278  13.344
83575W        W56000   4.399  29.119   2.369
83576W        W56001  32.094  26.462   5.238
83577W        W56002   5.916  15.118   0.882
83578W        W56003  17.593  14.099  13.414
83579W        W56004  14.809  30.105  12.026
83580W        W56005  20.169  43.975  12.034
83581W        W56006  10.758  16.698  12.067
83582W        W56007  28.952  26.539  12.341
83583W        W56008  25.087  30.007   1.363
83584W        W56009  13.654  11.257   1.895
83585W        W56010   9.875  31.957  10.411
83586W        W56011  32.910   8.786  10.458
83587W        W56012   2.752  10.818  10.917
83588W        W56013   9.661   8.665   3.157
83589W        W56014  40.900  29.470   1.355
83590W        W56015  41.350   2.305   3.214
83591W        W56016  13.671   4.275   2.688
83592W        W56017   0.475  43.306  14.786
83593W        W56018   3.231  21.703  11.483
83594W        W56019  12.641  36.520  12.876
83595W        W56020  35.033  19.060  10.452
83596W        W56021  35.518  20.103  11.077
83597W        W56022  21.043  38.056  13.536
83598W        W56023   6.903  13.698   4.656
83599W        W56024   8.202  28.054   2.395
83600W        W56025   3.414  23.524  12.064
83601W        W56026  11.639  25.617  14.508
83602W        W56027  18.096   8.814  11.098
83603W        W56028  37.939  19.561   4.638
83604W        W56029   9.324  14.134   3.768
83605W        W56030  10.867  23.667  13.791
83606W        W56031  31.091  38.937   3.335
83607W        W56032  16.164   9.230   3.739
83608W        W56033  35.480   4.865  11.064
83609W        W56034  11.660  34.014  10.030
83610W        W56035  13.698  27.165   0.900
83611W        W56036  36.040  32.448  11.515
83612W        W56037  26.605  44.320  10.546
83613W        W56038  11.637  42.987   4.605
83614W        W56039  24.100   2.411  12.087
83615W        W56040  19.595  39.908   4.828
83616W        W56041  42.365   0.417  12.928
83617W        W56042  42.524  13.186   2.405
83618W        W56043   7.686  23.622   3.783
83619W        W56044  28.451   0.827  11.374
83620W        W56045  39.843  22.142  11.127
83621W        W56046  36.465  24.226  11.473
83622W        W56047  42.522   4.832   1.406
83623W        W56048  42.981  34.094   2.214
83624W        W56049  30.544   5.299  13.852
83625W        W56050  35.934  20.198   3.680
83626W        W56051  10.238  28.980   0.766
83627W        W56052  44.786   4.784   3.762
83628W        W56053  29.012   5.340  11.414
83629W        W56054   1.765  13.114   0.340
83630W        W56055   6.798  22.577  14.969
83631W        W56056  17.272  12.767  10.085
83632W        W56057  35.381  14.589  14.017
83633W        W56058   1.278   6.827  11.879
83634W        W56059  37.924  20.732   0.245
83635W        W56060  44.271   2.799   4.114
83636W        W56061  19.058  39.445  11.959
83637W        W56062   9.242   4.259   4.151
83638W        W56063  39.331  22.119  10.463
83639W        W56064  22.046  14.643   0.807
83640W        W56065  44.883  37.367   0.300
83641W        W56066   0.385   3.882   3.746
83642W        W56067  14.116  23.996   1.931
83643W        W56068  27.032  28.452  11.979
83644W        W56069  18.254  26.118  14.286
83645W        W56070  27.612  41.909   1.907
83646W        W56071  40.889  33.411   0.407
83647W        W56072  11.157   5.331  11.443
83648W        W56073  32.113  24.615  13.929
83649W        W56074   8.317  23.203  13.329
83650W        W56075  11.303   9.213  10.407
83651W        W56076  19.685   8.366  10.592
83652W        W56077  37.435  16.271  12.055
83653W        W56078  35.546  13.618  12.377
83654W        W56079  30.574   7.325  11.437
83655W        W56080  27.191   5.395   4.303
83656W        W56081  30.118  42.819  14.882
83657W        W56082   3.352  36.067  12.073
83658W        W56083  18.184  36.870   4.609
83659W        W56084  31.018  24.654   4.621
83660W        W56085   4.291  14.710  14.506
83661W        W56086  33.943  35.020   0.379
83662W        W56087   6.868  42.290  11.856
83663W        W56088   6.731   3.344   2.281
83664W        W56089  38.406  36.466   1.723
83665W        W56090  42.515  36.954  13.840
83666W        W56091   1.817   6.740   3.355
83667W        W56092  19.196  32.917  13.884
83668W        W56093  10.149   0.961  11.912
83669W        W56094  11.173  36.845   3.748
83670W        W56095  13.830   3.850   0.781
83671W        W56096  39.472  19.704  10.468
83672W        W56097  23.079   2.380   3.653
83673W        W56098  16.080   2.943  13.018
83674W        W56099  19.773  29.122   0.968
83675W        W56100  32.599  12.310   1.222
83676W        W56101   9.344  21.241   3.788
83677W        W56102  26.116  31.557   0.317
83678W        W56103  35.514  19.071  14.957
83679W        W56104  15.225  17.148  10.609
83680W        W56105  18.722  11.277  13.534
83681W        W56106  25.553  21.523   2.753
83682W        W56107   7.170   7.399  14.789
83683W        W56108  30.549  30.965   3.808
83684W        W56109  35.405  43.999  11.916
83685W        W56110  14.826   1.843   2.296
83686W        W56111  36.054   2.752  14.400
83687W        W56112  35.860  44.284  13.961
83688W        W56113  33.084  18.764   3.204
83689W        W56114  21.240  21.742  11.451
83690W        W56115  28.607  22.579   1.409
83691W        W56116  16.682  23.494   4.318
83692W        W56117   6.726   8.360  12.516
83693W        W56118   5.242  31.645  12.447
83694W        W56119   8.304  25.532  12.001
83695W        W56120   2.235  24.616   2.291
83696W        W56121  34.038  35.587  12.889
83697W        W56122  27.950  41.306   4.618
83698W        W56123  25.607   0.281   3.845
83699W        W56124  11.860  21.025   2.721
83700W        W56125  20.755   7.669  11.059
83701W        W56126   9.645  17.105   2.836
83702W        W56127   8.351   3.267   0.472
83703W        W56128  38.004  16.676  14.890
83704W        W56129   6.270  30.008   3.867
83705W        W56130  10.307  17.615   5.143
83706W        W56131  41.806   2.781  13.883
83707W        W56132  21.523   0.754  11.946
83708W        W56133   6.737  42.802   1.788
83709W        W56134  40.409  15.814   0.355
83710W        W56135  21.722  34.423  12.825
83711W        W56136  31.052  35.001  12.067
83712W        W56137  41.443  18.282  13.425
83713W        W56138   2.868  27.102   3.384
83714W        W56139  37.931   6.739   2.776
83715W        W56140  44.390  14.229   3.803
83716W        W56141  31.458  16.775   5.765
83717W        W56142  19.261  14.203   4.823
83718W        W56143  31.112  37.364  11.913
83719W        W56144  27.997  36.515  14.422
83720W        W56145  26.970  32.971  11.609
83721W        W56146   8.293  17.792  14.281
83722W        W56147  29.606  11.140  12.925
83723W        W56148   1.760   0.792  13.857
83724W        W56149   8.734   4.833  10.513
83725W        W56150  16.095   1.271   1.226
83726W        W56151  15.204  20.536  13.924
83727W        W56152  33.599   4.367  10.643
83728W        W56153  20.142   2.762  12.573
83729W        W56154  26.540  11.837  11.049
83730W        W56155  15.720   5.316  13.527
83731W        W56156  11.669   3.838  10.900
83732W        W56157  12.170  43.791   0.808
83733W        W56158   6.780  28.529  10.598
83734W        W56159  31.480   8.266   2.289
83735W        W56160  24.509   0.386  12.067
83736W        W56161   8.680  31.141   2.866
83737W        W56162  39.441  39.409   4.807
83738W        W56163   9.204  32.588   0.327
83739W        W56164   7.250  31.077   0.822
83740W        W56165  30.011  34.593  11.005
83741W        W56166  43.467  36.077   2.825
83742W        W56167  40.017  22.140   3.204
83743W        W56168  43.501  22.567   2.725
83744W        W56169  14.265   3.394  12.824
83745W        W56170  15.311  13.210   4.136
83746W        W56171  21.071  38.537  10.011
83747W        W56172   3.362   5.762   3.750
83748W        W56173  36.861  22.703   9.598
83749W        W56174  11.707  19.625   3.201
83750W        W56175  17.790  40.416  13.023
83751W        W56176  29.522  11.737   0.848
83752W        W56177  27.544  10.658  11.106
83753W        W56178  41.430   0.364  11.393
83754W        W56179  42.298  34.978   3.718
83755W        W56180  28.100   7.722   5.194
83756W        W56181   2.914  40.033   3.372
83757W        W56182  36.567  31.444   1.742
83758W        W56183  27.455  23.724   0.380
83759W        W56184  27.989  43.411  11.908
83760W        W56185   0.768  44.961  12.889
83761W        W56186  32.104  23.013  13.479
83762W        W56187  34.521   3.449   3.727
83763W        W56188  15.627  26.647  13.010
83764W        W56189  31.113   4.384  11.882
83765W        W56190   2.449  31.544   0.910
83766W        W56191  13.213   1.867   1.437
83767W        W56192  30.113  40.548  13.872
83768W        W56193   2.256  32.901   3.870
83769W        W56194  32.962  33.455   0.761
83770W        W56195   6.846  30.018   3.199
83771W        W56196  12.760  35.921  11.905
83772W        W56197  42.517   5.304  13.318
83773W        W56198  23.112  12.628  11.470
83774W        W56199  21.107  40.541  12.862
83775W        W56200   0.780   1.274  11.490
83776W        W56201  32.905  29.539   2.189
83777W        W56202  32.137  12.176   1.275
83778W        W56203  20.049   6.333  13.383
83779W        W56204  18.690  35.542   0.735
83780W        W56205   0.440  36.035   4.702
83781W        W56206  43.021  37.069  12.024
83782W        W56207   7.291  17.193  11.454
83783W        W56208  14.131  14.624   2.262
83784W        W56209  37.374   2.386   5.123
83785W        W56210  26.973  11.685  10.410
83786W        W56211   4.346   5.801  11.117
83787W        W56212  25.073   0.849  12.395
83788W        W56213   9.323  31.905   5.229
83789W        W56214   5.331  40.390  11.966
83790W        W56215  26.603  39.460   2.782
83791W        W56216  13.293   8.381  10.496
83792W        W56217  35.926  26.507  13.507
83793W        W56218   0.480   4.350  12.572
83794W        W56219   2.254   5.246  14.447
83795W        W56220  21.587  43.773   1.439
83796W        W56221  13.799  12.133   4.143
83797W        W56222  44.773  34.516   2.712
83798W        W56223  12.741  35.520   1.272
83799W        W56224   0.860   4.857  11.390
83800W        W56225   6.329  33.528   1.811
83801W        W56226  23.166  15.624   4.302
83802W        W56227  24.493   3.353  11.944
83803W        W56228  35.072   0.367  13.492
83804W        W56229  13.843  34.946  12.568
83805W        W56230  24.092  26.609  10.536
83806W        W56231  41.419  11.679   2.687
83807W        W56232  16.707  44.977   1.863
83808W        W56233  31.941  42.824   0.951
83809W        W56234  44.261  28.504  11.467
83810W        W56235  22.715  33.062  12.911
83811W        W56236   2.762  25.484   3.636
83812W        W56237  32.897  39.344   1.217
83813W        W56238  31.620  22.134  13.484
83814W        W56239   2.411  16.591   4.718
83815W        W56240  27.147  44.959  14.909
83816W        W56241  15.745   4.343   4.221
83817W        W56242  37.039   6.805  12.506
83818W        W56243  28.613  20.124  13.928
83819W        W56244  40.439  25.501   0.758
83820W        W56245   8.230  33.925  13.831
83821W        W56246  14.638  13.768   3.722
83822W        W56247  18.251  28.590  13.329
83823W        W56248  42.866   1.320   4.173
83824W        W56249  12.628   4.740  12.844
83825W        W56250   3.443   8.405   1.320
83826W        W56251   1.441  12.206  10.539
83827W        W56252  43.933  25.075  11.449
83828W        W56253   4.751   1.349  11.952
83829W        W56254  30.953  13.187   4.254
83830W        W56255  29.432  12.131   2.331
83831W        W56256  19.112  37.892   1.350
83832W        W56257   3.716   7.826  14.492
83833W        W56258  22.144  36.370  12.501
83834W        W56259  24.206  14.323   4.200
83835W        W56260   1.242  24.508  10.637
83836W        W56261  36.869   7.352  13.038
83837W        W56262  43.294  25.608   1.332
83838W        W56263  42.481   9.656  13.366
83839W        W56264   2.877  31.955   1.898
83840W        W56265  38.534  14.754   0.377
83841W        W56266  37.454  25.631  13.434
83842W        W56267  37.859  41.398   2.220
83843W        W56268  37.482  31.959  11.916
83844W        W56269  19.070  35.098  10.596
83845W        W56270  13.290  39.902  12.557
83846W        W56271  16.111  27.044   1.275
83847W        W56272  19.100   9.151  12.054
83848W        W56273  43.017  32.080   0.817
83849W        W56274  11.681  22.718   1.774
83850W        W56275  23.682   7.796   2.813
83851W        W56276  22.047  20.635   3.647
83852W        W56277   1.450  25.034  10.605
83853W        W56278   0.866  25.085   3.652
83854W        W56279   1.858   7.746   2.716
83855W        W56280   2.958  34.610  11.909
83856W        W56281  33.517  32.018   1.762
83857W        W56282  11.759  38.459  11.580
83858W        W56283  38.853  16.757  12.909
83859W        W56284  30.009  36.028  14.466
83860W        W56285   2.802   3.790   0.823
83861W        W56286  27.945  25.516   3.800
83862W        W56287  14.711  15.177  14.302
83863W        W56288   2.315  15.669  14.303
83864W        W56289  35.924  30.098   2.886
83865W        W56290  13.129  12.259   4.752
83866W        W56291   8.837  36.572  12.353
83867W        W56292  18.767  18.138  11.891
83868W        W56293  22.557  37.929  11.044
83869W        W56294  40.955  36.473   3.199
83870W        W56295   6.307  21.606   0.369
83871W        W56296  31.945   0.963   4.323
83872W        W56297   3.296  17.761   2.783
83873W        W56298  25.652  25.054  11.084
83874W        W56299   8.178  43.856   2.751
83875W        W56300   6.368  15.309   1.736
83876W        W56301  33.952  18.624  14.423
83877W        W56302  14.329  43.457  13.846
83878W        W56303   4.833  13.751   4.722
83879W        W56304  37.416   4.921   1.368
83880W        W56305  33.916  36.019  12.075
83881W        W56306  13.214  12.645   5.166
83882W        W56307  23.186  34.095  10.460
83883W        W56308   4.727  10.375  11.446
83884W        W56309   6.713   5.779  12.375
83885W        W56310  39.446  34.369  13.353
83886W        W56311  12.808  26.634  10.627
83887W        W56312  29.488   4.367  14.451
83888W        W56313  29.117  34.043   4.128
83889W        W56314   2.245  29.926   3.732
83890W        W56315  32.564   5.228   2.720
83891W        W56316  26.085  35.555   3.773
83892W        W56317  22.094  25.595  10.945
83893W        W56318  28.458  23.598   1.895
83894W        W56319  39.430  17.300  10.480
83895W        W56320  13.289  32.977  12.480
83896W        W56321  23.509  23.179   2.233
83897W        W56322  10.788  43.510  13.344
83898W        W56323  24.042  24.597   4.723
83899W        W56324  26.645  18.204  10.942
83900W        W56325  17.592  12.745   1.358
83901W        W56326  31.407  25.652  12.347
83902W        W56327  13.708  20.710   3.788
83903W        W56328  21.708  20.144   2.262
83904W        W56329  24.522  10.791   4.721
83905W        W56330  33.988  13.839  11.083
83906W        W56331  26.136  29.165   0.272
83907W        W56332  32.553  22.727  13.437
83908W        W56333  15.798  18.620   4.220
83909W        W56334  25.003  33.518   1.913
83910W        W56335  39.852  24.228   4.639
83911W        W56336  22.655  31.105   1.821
83912W        W56337  23.168  31.641   1.782
83913W        W56338  17.161  37.568  10.459
83914W        W56339   9.216  33.892  11.039
83915W        W56340   0.437  22.155  14.796
83916W        W56341  11.664  29.647  12.920
83917W        W56342  14.830  10.214  11.516
83918W        W56343  32.023  16.781   2.319
83919W        W56344  37.563   7.797   0.363
83920W        W56345  33.945   1.871   3.709
83921W        W56346  29.109  16.272   4.737
83922W        W56347  27.645  41.353   2.761
83923W        W56348  17.615  44.314   2.818
83924W        W56349  40.804  35.958  14.356
83925W        W56350  36.913  19.147  12.451
83926W        W56351  19.630   6.393   3.158
83927W        W56352  26.463  41.975   3.284
83928W        W56353  16.755  30.047  13.908
83929W        W56354   2.812  24.980  12.436
83930W        W56355  41.353   6.387   2.323
83931W        W56356   2.797  27.193   0.813
83932W        W56357  35.529  40.492  11.989
83933W        W56358  25.071  24.512   3.180
83934W        W56359   3.849  11.664  11.567
83935W        W56360  33.618  42.388  12.370
83936W        W56361  36.041   1.975  10.986
83937W        W56362  32.920  41.419   2.263
83938W        W56363  35.412  29.539   2.239
83939W        W56364   4.831   2.939  10.614
83940W        W56365  40.503   2.892   0.805
83941W        W56366  10.218  24.574  13.471
83942W        W56367  27.086  18.198   2.766
83943W        W56368   4.915  24.708   1.900
83944W        W56369  31.146   4.737   4.219
83945W        W56370  37.925  27.635   3.148
83946W        W56371  23.551   6.328   0.908
83947W        W56372  26.002  24.096   4.130
83948W        W56373  15.300  15.297   3.253
83949W        W56374  40.018  25.555   2.371
83950W        W56375  10.253  43.819  13.442
83951W        W56376  24.639  15.250   0.797
83952W        W56377  30.431  35.442   4.773
83953W        W56378  10.179  40.937  10.515
83954W        W56379   3.805  35.963  11.490
83955W        W56380  43.404   5.233  12.883
83956W        W56381  17.578   9.256   1.925
83957W        W56382  39.537  44.823   1.887
83958W        W56383  34.537  22.155   3.199
83959W        W56384  34.439  27.982   0.314
83960W        W56385  25.629  42.982   5.180
83961W        W56386  31.144   7.904  13.307
83962W        W56387  22.677  13.263  11.539
83963W        W56388  41.390  15.288  13.466
83964W        W56389   1.272   5.286  13.994
83965W        W56390   6.702  23.509   1.302
83966W        W56391  18.272  38.413   4.215
83967W        W56392  44.820  25.107   0.832
83968W        W56393  36.354  38.825   0.455
83969W        W56394  14.646  37.881  14.405
83970W        W56395  10.357  35.908   4.158
83971W        W56396  15.225  24.554   3.753
83972W        W56397  16.645  43.282   4.660
83973W        W56398   4.227  11.306   2.683
83974W        W56399  30.541  21.179  13.310
83975W        W56400  15.798  32.587  12.952
83976W        W56401  42.870  34.388   3.171
83977W        W56402  32.546  17.796   5.159
83978W        W56403  26.040  44.861   3.723
83979W        W56404  42.845  31.606   1.426
83980W        W56405  13.759  35.599   0.371
83981W        W56406  16.654  41.391   2.893
83982W        W56407  35.452  32.634   1.816
83983W        W56408  32.465   6.245  12.065
83984W        W56409  38.040  42.927  14.281
83985W        W56410  42.511   0.981   3.653
83986W        W56411  24.502  13.248  11.468
83987W        W56412  28.946  37.469  13.457
83988W        W56413  35.002  22.599   5.279
83989W        W56414  20.532  38.504   0.254
83990W        W56415  38.003  25.498  11.431
83991W        W56416  34.077   8.247   0.313
83992W        W56417  20.726   1.400   1.303
83993W        W56418  22.605  27.587  11.083
83994W        W56419  12.302  12.245   3.362
83995W        W56420   5.768  37.969  12.556
83996W        W56421  18.211  25.170   1.246
83997W        W56422  31.562  42.029   1.755
83998W        W56423  25.679  42.474   0.334
83999W        W56424   7.208  41.494  11.965
84000W        W56425  16.141  17.783  14.991
84001W        W56426   2.398  38.950  10.912
84002W        W56427  24.042  27.509  13.361
84003W        W56428  37.551  41.844   0.806
84004W        W56429  41.444  32.555  12.025
84005W        W56430  15.314  39.869   2.300
84006W        W56431  39.998  18.073  11.002
84007W        W56432  32.959  14.612   3.257
84008W        W56433  27.069  18.627   0.280
84009W        W56434  40.408  28.576  14.369
84010W        W56435  25.540  22.072  13.875
84011W        W56436  37.086  36.590   4.799
84012W        W56437  35.957  22.682   5.093
84013W        W56438  32.395  33.484  14.805
84014W        W56439  35.519  18.074  14.877
84015W        W56440  20.071  35.434   2.375
84016W        W56441  43.780  34.554   0.263
84017W        W56442  14.307  17.195  13.522
84018W        W56443   6.230  44.902   1.285
84019W        W56444  15.243  22.621  10.086
84020W        W56445  38.010  34.986  10.902
84021W        W56446   3.811  35.919  12.349
84022W        W56447  18.166  41.987   2.292
84023W        W56448   8.163  13.844  10.453
84024W        W56449   7.364  10.308   3.738
84025W        W56450  38.461   7.413  12.939
84026W        W56451  17.696  32.885   0.795
84027W        W56452  43.838  40.478  13.922
84028W        W56453  20.538  13.219  12.006
84029W        W56454   7.860  31.562  11.856
84030W        W56455  35.971  42.876   4.810
84031W        W56456  10.151   3.913   0.727
84032W        W56457  35.360  22.116  12.372
84033W        W56458  41.944  31.150   1.322
84034W        W56459  25.202  14.272   0.950
84035W        W56460  38.409  43.344  10.049
84036W        W56461  39.883  39.348  11.876
84037W        W56462   1.744   8.691   2.355
84038W        W56463  42.861  44.953  11.605
84039W        W56464  19.691  44.259  13.455
84040W        W56465  33.596  32.966  11.901
84041W        W56466   0.810  41.936  14.292
84042W        W56467  28.998   0.848  12.855
84043W        W56468   9.304   4.871  12.484
84044W        W56469   2.722  32.926   4.300
84045W        W56470  18.190   4.721   1.238
84046W        W56471  13.237  26.019  14.950
84047W        W56472   2.966  22.581   2.257
84048W        W56473   4.831  25.123   2.730
84049W        W56474  42.454  39.489   0.416
84050W        W56475  31.122   7.190   4.750
84051W        W56476  26.964   8.203   2.891
84052W        W56477  40.977  19.632  10.913
84053W        W56478   9.222  12.832  14.908
84054W        W56479  20.069  34.108  11.010
84055W        W56480  41.516  30.976   4.240
84056W        W56481  36.874   7.888  10.408
84057W        W56482  40.329   5.288  12.535
84058W        W56483  30.503  12.736  13.797
84059W        W56484  44.407  20.059   0.885
84060W        W56485  12.795  34.591  11.585
84061W        W56486  10.369  31.125  14.801
84062W        W56487   0.396  18.100  11.916
84063W        W56488  37.572  19.210   3.370
84064W        W56489  39.048  42.992   5.607
84065W        W56490  24.163  38.343  11.938
84066W        W56491   6.759   5.245   0.460
84067W        W56492   2.869  35.562  10.582
84068W        W56493  40.947   5.815  10.974
84069W        W56494  35.976  25.219   3.864
84070W        W56495  33.530  33.116  13.970
84071W        W56496  39.904  34.930  12.569
84072W        W56497  15.239  35.477   3.686
84073W        W56498  38.507  42.025  12.410
84074W        W56499  35.539  40.328  13.866
84075W        W56500  40.809  30.532  11.991
84076W        W56501  14.223  37.408   2.327
84077W        W56502  33.068  30.102   1.784
84078W        W56503  42.954  16.315  11.579
84079W        W56504  42.463  26.207  14.420
84080W        W56505  40.328   8.887  13.394
84081W        W56506   2.359  43.338   1.737
84082W        W56507  26.987   8.279   0.837
84083W        W56508  32.920   3.399   3.652
84084W        W56509   0.388   4.839  10.572
84085W        W56510  11.671   3.283  14.799
84086W        W56511   4.902  43.772   0.819
84087W        W56512  31.509  19.248  14.894
84088W        W56513  21.117  43.835   4.114
84089W        W56514  28.164  23.560  11.558
84090W        W56515  27.478   3.422  13.337
84091W        W56516  10.359   5.715  12.419
84092W        W56517  44.479  12.214   3.640
84093W        W56518  21.553   4.356  13.332
84094W        W56519  29.966  43.487  12.356
84095W        W56520  33.980   3.388   2.817
84096W        W56521  23.187  30.581   0.810
84097W        W56522  18.629  20.624   3.630
84098W        W56523  41.328  34.004  12.444
84099W        W56524  27.175  16.633   1.857
84100W        W56525  32.080   0.753   3.682
84101W        W56526  17.769  43.771   1.868
84102W        W56527  17.585   9.876   3.656
84103W        W56528  33.561   8.865   2.681
84104W        W56529  31.429  24.649   0.446
84105W        W56530  12.786  40.832   2.304
84106W        W56531   2.336  21.731   1.420
84107W        W56532  34.477  35.399   0.370
84108W        W56533   9.663   9.172  10.895
84109W        W56534   1.450  40.943  12.490
84110W        W56535   8.249  26.181   2.418
84111W        W56536   3.233  32.528  13.534
84112W        W56537  22.020  21.128   2.299
84113W        W56538  26.566   9.708   1.870
84114W        W56539  16.582   1.289   4.254
84115W        W56540  35.029  27.153   3.277
84116W        W56541   7.189  40.457  14.968
84117W        W56542  22.713  13.288   0.938
84118W        W56543  13.638   4.829  11.878
84119W        W56544  22.698   6.195   0.729
84120W        W56545  24.507   3.797  13.895
84121W        W56546   4.236  29.665  13.453
84122W        W56547  33.904  18.678   3.187
84123W        W56548  22.151  14.106  11.505
84124W        W56549  30.990  43.797  11.398
84125W        W56550  42.786  15.193  10.055
84126W        W56551   6.308  10.325  12.452
84127W        W56552  13.175  24.707   4.311
84128W        W56553  29.583  14.824  14.414
84129W        W56554  17.215  20.083  12.000
84130W        W56555  41.838  17.677  11.106
84131W        W56556   8.187   3.744   4.219
84132W        W56557  34.568  25.142   0.885
84133W        W56558  13.770  32.572  14.782
84134W        W56559  11.640  19.136   0.475
84135W        W56560  44.928   5.889   3.173
84136W        W56561  41.382   9.289  13.859
84137W        W56562   4.220  10.170   1.451
84138W        W56563  15.164  26.469   3.794
84139W        W56564  39.980   1.811  12.352
84140W        W56565  18.164  33.553  11.575
84141W        W56566  25.204   1.406  10.959
84142W        W56567   7.674   8.725  10.622
84143W        W56568  13.680  27.587  14.502
84144W        W56569  43.842  13.213   0.956
84145W        W56570  11.808  42.798  10.012
84146W        W56571  44.816   2.302  14.295
84147W        W56572   4.911  17.601  11.971
84148W        W56573  24.161   9.890  10.627
84149W        W56574   1.929   7.196  11.069
84150W        W56575  42.931  18.708  14.969
84151W        W56576  39.383  22.627   3.743
84152W        W56577  12.823  28.017   3.733
84153W        W56578  44.491  44.361  10.130
84154W        W56579  44.009   1.305  14.945
84155W        W56580  35.053  23.493  10.138
84156W        W56581  11.788   4.224   0.777
84157W        W56582   0.882   4.231   0.872
84158W        W56583  29.601   5.923  13.995
84159W        W56584  14.745  39.424  12.045
84160W        W56585  38.058  29.047  11.569
84161W        W56586   8.879  34.000   4.642
84162W        W56587  36.963   7.789  12.441
84163W        W56588  38.421  19.193   1.723
84164W        W56589   2.881  26.123   1.336
84165W        W56590   4.902  33.092   1.776
84166W        W56591  15.719  16.115   1.368
84167W        W56592  34.038  35.086  14.488
84168W        W56593   8.249  22.572   0.965
84169W        W56594  14.801   9.336  14.387
84170W        W56595  44.778  21.653  14.846
84171W        W56596  42.020   8.166   2.227
84172W        W56597  38.401  23.198  11.478
84173W        W56598  37.561  32.927   3.241
84174W        W56599   8.314  20.078  14.481
84175W        W56600   8.699   2.269   1.426
84176W        W56601   9.861  25.592  11.918
84177W        W56602  11.727  11.138   2.707
84178W        W56603  33.100  30.513  11.562
84179W        W56604   1.426  26.684  11.376
84180W        W56605  22.742  15.284   0.262
84181W        W56606  41.909  39.477  12.452
84182W        W56607  10.293   9.213   5.161
84183W        W56608  12.251  22.251   1.768
84184W        W56609   4.797   6.777  11.601
84185W        W56610  41.372  13.296  10.458
84186W        W56611  42.004  42.023  13.477
84187W        W56612  26.597  23.492  13.500
84188W        W56613   2.872  25.528   0.800
84189W        W56614  11.341   9.340   2.713
84190W        W56615   9.276   0.842   3.787
84191W        W56616  38.016   7.378   1.337
84192W        W56617  30.641  11.825   3.211
84193W        W56618  15.267  24.701  12.913
84194W        W56619  41.935  18.549   5.100
84195W        W56620  44.500  15.234  14.281
84196W        W56621  18.691   7.386   2.199
84197W        W56622   4.413  15.270   3.192
84198W        W56623  37.442  25.569   4.284
84199W        W56624  40.041  41.487   5.223
84200W        W56625   1.941  17.740   3.698
84201W        W56626   2.306  41.349   4.755
84202W        W56627  24.171  39.523  14.894
84203W        W56628  44.790  40.483   2.829
84204W        W56629   6.243  39.353  14.491
84205W        W56630  32.525  38.000  10.562
84206W        W56631   1.907  40.454   3.657
84207W        W56632  27.598  39.849   0.276
84208W        W56633  11.806  40.830  10.158
84209W        W56634  15.719  44.773  14.513
84210W        W56635  32.089  39.542   0.955
84211W        W56636  43.927  31.472  13.841
84212W        W56637  15.267  28.658   1.327
84213W        W56638  40.509  42.501  12.880
84214W        W56639  28.951  26.107   4.290
84215W        W56640   2.332  10.273   4.314
84216W        W56641  28.627   4.932  13.381
84217W        W56642  28.482  38.931   3.278
84218W        W56643  42.979  11.726   2.400
84219W        W56644   2.285  41.927  11.474
84220W        W56645   2.876  31.948   3.757
84221W        W56646  28.128  41.857  13.978
84222W        W56647   0.275   8.782  12.342
84223W        W56648  21.257  39.435   0.786
84224W        W56649  13.226  29.019  11.064
84225W        W56650  28.489  28.452   0.444
84226W        W56651  37.876  39.039   9.997
84227W        W56652  35.007  24.114   5.226
84228W        W56653   6.277   1.818  13.359
84229W        W56654  29.651  14.296   4.115
84230W        W56655  21.162  16.143  12.042
84231W        W56656  35.367  25.975  14.870
84232W        W56657  25.994   9.646   4.268
84233W        W56658  44.897  40.877   0.911
84234W        W56659  16.770   4.857   2.780
84235W        W56660  39.506  14.186  11.494
84236W        W56661  44.861   4.347  13.447
84237W        W56662  23.512  20.202   4.732
84238W        W56663   2.372  22.163  14.016
84239W        W56664  33.024  22.676   0.804
84240W        W56665  19.251   2.907  14.379
84241W        W56666  33.618   1.433  11.975
84242W        W56667   0.287  41.429   0.382
84243W        W56668   1.306  24.135  10.905
84244W        W56669  18.678  40.412  11.098
84245W        W56670   7.734  34.957  14.019
84246W        W56671  14.749  14.177  11.971
84247W        W56672  29.128  34.120   3.779
84248W        W56673  41.902  30.910   2.266
84249W        W56674  10.189  13.819   2.731
84250W        W56675  13.251  36.048  14.848
84251W        W56676  20.746  20.714  14.486
84252W        W56677   4.829  36.510  14.922
84253W        W56678  44.833  22.685  14.014
84254W        W56679  39.029  23.218   1.834
84255W        W56680  39.353  36.554   2.204
84256W        W56681   0.407  33.393   0.334
84257W        W56682   8.891  41.976  14.506
84258W        W56683  16.176  14.209  12.340
84259W        W56684  10.684  36.522  13.414
84260W        W56685   2.395   8.796   0.313
84261W        W56686  34.926  14.793   3.226
84262W        W56687  29.966  41.011  12.542
84263W        W56688  33.616  26.564  11.984
84264W        W56689  10.158  24.573  10.533
84265W        W56690  30.939   6.284   4.821
84266W        W56691  16.139  44.857  13.428
84267W        W56692  14.604  22.203   5.322
84268W        W56693  12.268  41.394   0.353
84269W        W56694  30.433  35.399   3.792
84270W        W56695   3.371  39.033   9.981
84271W        W56696  14.668  41.319  14.513
84272W        W56697  13.635  39.984   3.860
84273W        W56698   8.181  23.990  11.951
84274W        W56699  34.506  22.191  12.848
84275W        W56700  39.894  23.020   3.294
84276W        W56701  12.815  41.388   3.289
84277W        W56702  38.413   5.852  10.938
84278W        W56703  32.453   8.893  12.574
84279W        W56704  27.143  33.472  11.108
84280W        W56705  42.312  18.607   3.245
84281W        W56706  44.954  36.591   1.878
84282W        W56707  13.712  13.239  11.051
84283W        W56708  35.486  42.001  13.433
84284W        W56709  33.423  31.072   1.249
84285W        W56710  38.830  17.268  12.427
84286W        W56711  25.697   4.297   2.822
84287W        W56712   8.269   2.895  11.572
84288W        W56713  41.488  20.067   2.365
84289W        W56714   6.194  40.948  11.960
84290W        W56715  21.588  34.426  10.542
84291W        W56716  35.021  38.006   0.376
84292W        W56717  22.210  21.032  14.325
84293W        W56718  44.286   8.271  14.301
84294W        W56719  12.262  21.164   1.912
84295W        W56720  32.983  33.505  14.028
84296W        W56721  17.067  35.549   2.700
84297W        W56722  34.911  11.329   2.799
84298W        W56723  29.640  31.976   3.364
84299W        W56724   8.274  39.946   2.278
84300W        W56725  19.646   9.309  14.381
84301W        W56726  14.334  42.392  11.577
84302W        W56727  15.713  13.645  14.354
84303W        W56728  38.349  24.531  12.363
84304W        W56729  14.239  41.912  13.386
84305W        W56730   1.876  18.256   4.231
84306W        W56731  15.632  25.084   0.316
84307W        W56732  43.829  28.002   2.728
84308W        W56733  12.147  28.625  11.415
84309W        W56734   3.309  23.523   2.399
84310W        W56735   4.875  13.745  13.949
84311W        W56736  27.156  32.905  13.412
84312W        W56737  19.201   0.827   3.233
84313W        W56738   2.370   8.235  12.039
84314W        W56739  27.074  27.962  10.578
84315W        W56740   6.272   5.730   0.936
84316W        W56741  25.649   6.417  14.969
84317W        W56742   4.347  28.641  12.005
84318W        W56743  43.298  42.393   2.282
84319W        W56744  20.634  37.881  12.475
84320W        W56745  43.020   6.690  14.954
84321W        W56746  37.923   4.891  12.996
84322W        W56747  42.998  13.751  11.076
84323W        W56748   5.220   7.877   2.819
84324W        W56749  16.590  32.491  11.446
84325W        W56750  10.382  35.544   5.158
84326W        W56751  19.186  29.651  13.881
84327W        W56752  17.264  18.116   2.888
84328W        W56753   9.240  37.028   3.312
84329W        W56754  44.429  28.560  10.947
84330W        W56755  39.523  32.019  14.936
84331W        W56756   2.948   0.371   2.721
84332W        W56757  31.404   3.364   2.738
84333W        W56758  16.587  44.504   3.629
84334W        W56759  28.584  18.174   2.739
84335W        W56760  25.192   2.440  11.435
84336W        W56761  24.998   0.785   1.284
84337W        W56762  38.056  42.402  10.549
84338W        W56763   5.310  37.008  10.529
84339W        W56764  21.106  44.985  14.323
84340W        W56765  11.645  10.828   2.327
84341W        W56766  44.259   9.175   4.807
84342W        W56767  24.519  26.683   1.359
84343W        W56768   5.819  21.153   3.864
84344W        W56769  39.897  42.398  13.973
84345W        W56770  22.059  37.498  13.491
84346W        W56771  10.841  31.523  10.640
84347W        W56772  39.558   6.336   3.349
84348W        W56773  33.490   2.783   3.847
84349W        W56774  27.011  43.984   0.468
84350W        W56775  33.041  26.675   1.904
84351W        W56776  32.925  40.954   0.271
84352W        W56777   4.806  41.884  10.621
84353W        W56778   1.811  11.777  13.821
84354W        W56779   4.698  25.565  12.401
84355W        W56780  38.036  17.258   1.764
84356W        W56781   2.382  20.628   4.730
84357W        W56782   7.370   1.390  10.519
84358W        W56783   8.871   0.357  13.981
84359W        W56784  28.471  33.511   5.283
84360W        W56785  17.605  27.477   3.787
84361W        W56786  25.976   3.233   4.600
84362W        W56787   1.369  26.136   1.920
84363W        W56788  27.543  36.358  12.479
84364W        W56789  28.931  11.721   4.738
84365W        W56790   1.400  30.435   2.758
84366W        W56791  32.442  37.445  13.465
84367W        W56792  44.956  12.781   5.299
84368W        W56793  27.524  37.433  12.908
84369W        W56794  29.557   6.322   4.714
84370W        W56795   8.888  11.799   5.117
84371W        W56796  43.770  29.144   0.383
84372W        W56797  39.853  39.361  14.402
84373W        W56798  35.558  34.435   0.474
84374W        W56799  16.781  38.510   1.399
84375W        W56800  26.124  24.056  11.878
84376W        W56801  24.047  13.791  12.364
84377W        W56802  10.706  22.015  12.937
84378W        W56803  35.484  42.796   5.262
84379W        W56804   1.800  30.978   2.385
84380W        W56805  18.226  44.465   2.714
84381W        W56806   7.738   5.880  11.990
84382W        W56807  26.670  24.108  14.400
84383W        W56808  20.536  25.603  11.952
84384W        W56809  33.881  29.972   4.336
84385W        W56810   4.764  25.213  14.877
84386W        W56811  17.780   6.813  13.848
84387W        W56812  25.575  38.874  14.465
84388W        W56813  32.119   1.483   3.325
84389W        W56814  17.281  10.339   0.939
84390W        W56815   2.332   8.276   3.840
84391W        W56816  27.008  32.960   1.389
84392W        W56817  22.996  23.100   0.812
84393W        W56818  36.067   4.310  11.493
84394W        W56819  37.554   1.478  13.437
84395W        W56820  15.315  21.196  12.984
84396W        W56821  44.931   6.885   3.690
84397W        W56822   7.698  18.621  12.911
84398W        W56823   3.275  40.967  14.456
84399W        W56824  35.421   5.828   2.719
84400W        W56825  13.173  24.715  12.521
84401W        W56826  37.476  42.018   3.327
84402W        W56827  40.927  22.593   1.262
84403W        W56828   7.871  31.435   0.460
84404W        W56829  44.925  40.934   2.418
84405W        W56830  23.665  44.422  13.870
84406W        W56831   1.865  35.870   0.873
84407W        W56832  11.633  24.041  13.939
84408W        W56833  22.200  32.002   0.415
84409W        W56834   8.366  22.185  11.945
84410W        W56835  39.026   6.253  13.431
84411W        W56836  15.201   8.660   4.251
84412W        W56837  15.195  43.362   0.426
84413W        W56838   7.851   9.692   1.411
84414W        W56839  34.086  44.991  12.403
84415W        W56840  11.824   5.364  10.640
84416W        W56841   3.335   8.761   1.806
84417W        W56842   1.760  30.505  14.771
84418W        W56843   8.292   5.437   1.354
84419W        W56844  17.768  30.139   9.621
84420W        W56845  28.454   3.404   2.679
84421W        W56846  12.659  37.545   2.796
84422W        W56847  33.944  23.624   2.702
84423W        W56848  16.740  25.210   0.329
84424W        W56849  34.382  43.489   4.225
84425W        W56850  17.140  18.269   0.885
84426W        W56851   3.410   8.899  10.588
84427W        W56852  33.922  22.695   1.786
84428W        W56853  30.913  26.487  13.524
84429W        W56854  35.516  12.694   3.150
84430W        W56855  26.595   7.238  13.829
84431W        W56856  38.482  18.787   1.836
84432W        W56857   9.271  20.227   4.245
84433W        W56858  44.374  15.784  14.430
84434W        W56859  15.201  35.021  11.414
84435W        W56860  40.831   1.449   3.364
84436W        W56861  27.188   1.969   3.168
84437W        W56862  44.903  17.780   2.177
84438W        W56863  17.248   0.309  11.536
84439W        W56864  19.557   5.328  12.465
84440W        W56865   3.442  44.761   1.722
84441W        W56866  26.135  41.323   3.635
84442W        W56867   0.305  33.569   4.193
84443W        W56868  11.148  25.611   2.390
84444W        W56869  30.488  19.740  14.331
84445W        W56870   4.874  17.665   3.151
84446W        W56871  43.896  23.227   0.435
84447W        W56872  13.615  43.302  14.979
84448W        W56873  35.037  42.883  12.518
84449W        W56874   5.339  11.797   4.723
84450W        W56875  33.034   5.250   1.805
84451W        W56876  40.889  36.877  10.951
84452W        W56877  36.547  38.840  13.484
84453W        W56878  41.415  12.241  13.447
84454W        W56879   3.738  32.922   3.762
84455W        W56880  10.705  34.995   4.252
84456W        W56881  11.747  21.646   3.156
84457W        W56882  36.047  25.672  13.358
84458W        W56883  34.400  33.491  14.015
84459W        W56884   3.813  25.130   5.271
84460W        W56885  21.743  33.609   0.857
84461W        W56886  44.384  23.592   1.823
84462W        W56887  31.136  38.913  14.966
84463W        W56888  22.672   0.817  12.942
84464W        W56889  32.466  33.000  13.455
84465W        W56890  12.662  20.124   1.371
84466W        W56891   1.966   7.666   1.407
84467W        W56892  24.600  19.601  10.568
84468W        W56893  17.271  32.452  12.086
84469W        W56894  34.415  39.520   1.315
84470W        W56895   9.792  40.466  14.023
84471W        W56896  22.651  15.647  13.412
84472W        W56897  34.096  26.011   2.864
84473W        W56898   5.369  30.506   2.751
84474W        W56899  23.607   6.828  11.079
84475W        W56900   0.425  20.191   4.687
84476W        W56901   6.380  12.153   4.625
84477W        W56902  38.345  13.690   1.230
84478W        W56903  36.517   9.373   1.346
84479W        W56904  25.992   9.389   4.786
84480W        W56905  12.259   3.461  12.897
84481W        W56906   3.243  44.396  13.868
84482W        W56907  43.400  26.049   1.807
84483W        W56908  25.074  25.529   0.473
84484W        W56909  16.248  29.108  13.892
84485W        W56910  29.566  32.980   2.410
84486W        W56911   1.281  34.907   4.768
84487W        W56912  36.969   7.815   0.878
84488W        W56913   2.881  40.029  14.839
84489W        W56914  20.742  43.302   0.393
84490W        W56915  17.167  30.422   2.739
84491W        W56916  37.858  39.919   0.739
84492W        W56917  14.683  31.426  12.879
84493W        W56918   7.240   0.830   3.663
84494W        W56919  25.669  24.999  10.440
84495W        W56920  42.429   8.892   4.794
84496W        W56921  32.075  18.239  13.338
84497W        W56922  36.977  39.844  13.467
84498W        W56923   6.850  33.905  12.963
84499W        W56924  26.140  32.468  14.891
84500W        W56925  17.573  10.856   3.775
84501W        W56926  18.705   2.470   1.276
84502W        W56927  23.195  43.869  13.458
84503W        W56928   0.414  44.935   0.864
84504W        W56929  17.112   0.306  12.034
84505W        W56930  11.813  21.220  11.469
84506W        W56931  44.297   9.285   1.888
84507W        W56932  33.432  33.465  11.512
84508W        W56933  37.500  22.164  11.967
84509W        W56934  12.180  30.078   0.726
84510W        W56935  38.939   6.834  12.031
84511W        W56936  39.500  14.130  12.378
84512W        W56937  33.428  22.066  11.418
84513W        W56938  21.140  12.270  11.041
84514W        W56939  32.419  43.832   4.321
84515W        W56940  20.237   7.723   2.196
84516W        W56941  10.148  31.503  12.504
84517W        W56942  28.486   0.456  10.640
84518W        W56943  24.204  19.586  14.032
84519W        W56944   9.188  18.095   1.730
84520W        W56945   1.451  39.412   2.343
84521W        W56946  28.586  25.676   3.856
84522W        W56947  24.517  39.935  14.842
84523W        W56948  43.312  17.794   0.858
84524W        W56949  32.092  13.176   4.210
84525W        W56950  28.126   6.805  12.452
84526W        W56951  30.966  22.126   2.353
84527W        W56952  44.790  41.833  10.934
84528W        W56953  31.940  25.491   2.375
84529W        W56954  29.148  32.516  13.000
84530W        W56955  20.269  18.293  12.531
84531W        W56956  20.106  30.026   2.818
84532W        W56957  44.414  43.487  12.474
84533W        W56958   2.411  41.364  12.524
84534W        W56959  33.456   4.244   2.277
84535W        W56960   5.353   1.435  11.894
84536W        W56961  43.387  38.910   3.647
84537W        W56962  34.540   7.396   3.632
84538W        W56963  23.710  31.925   4.670
84539W        W56964  31.418  28.973   0.311
84540W        W56965   6.418  40.388  12.095
84541W        W56966  16.671  22.559  13.015
84542W        W56967  14.331  35.863   1.371
84543W        W56968   7.810   0.974   3.227
84544W        W56969  13.698   7.397  14.291
84545W        W56970  34.065  25.968   1.790
84546W        W56971  20.238  38.456   2.876
84547W        W56972  44.452  27.454  10.627
84548W        W56973  40.513  44.929   3.702
84549W        W56974  36.575  32.929   0.805
84550W        W56975  21.128   4.932  14.017
84551W        W56976  24.625  13.214  14.280
84552W        W56977  27.959  19.758  11.379
84553W        W56978  38.945   2.451  11.008
84554W        W56979   4.725  15.180  10.620
84555W        W56980  30.950  19.074  13.499
84556W        W56981  40.021  34.436  14.485
84557W        W56982  38.068   2.355   3.840
84558W        W56983  43.994  26.633   1.277
84559W        W56984  32.996  33.434  14.514
84560W        W56985  25.146  38.485  13.392
84561W        W56986  22.570  17.206  14.978
84562W        W56987   9.333  11.690  12.859
84563W        W56988  43.806  33.973   2.884
84564W        W56989  17.615  16.097  14.969
84565W        W56990  21.043  33.099  10.459
84566W        W56991  38.387  16.287   4.686
84567W        W56992   7.874   8.386   2.826
84568W        W56993  16.744  42.902   1.854
84569W        W56994  24.099  42.447   3.701
84570W        W56995   8.303   1.875   2.741
84571W        W56996  29.088  40.820   0.791
84572W        W56997  18.547  42.996  11.890
84573W        W56998   5.708  44.756   4.188
84574W        W56999  12.258  35.377  11.374
84575W        W57000  37.482  24.628   2.419
84576W        W57001  34.464  37.416  13.355
84577W        W57002  18.196   6.751  14.009
84578W        W57003  39.904  39.996  13.021
84579W        W57004  41.831  33.490  11.610
84580W        W57005  26.987   3.762   1.305
84581W        W57006  16.791  19.610   2.759
84582W        W57007  18.622  22.080  11.592
84583W        W57008   3.897  19.110   3.715
84584W        W57009   7.262  30.136   4.342
84585W        W57010  28.125  13.193  12.386
84586W        W57011   7.899  15.748   0.325
84587W        W57012  14.827  41.945  10.567
84588W        W57013  23.011   8.878   1.316
84589W        W57014  23.145  30.595   0.401
84590W        W57015  23.541  42.412  13.005
84591W        W57016  37.972  28.474  11.010
84592W        W57017  19.568  10.849   3.378
84593W        W57018  10.793  32.467   4.777
84594W        W57019  21.663  35.000  14.989
84595W        W57020  41.313  18.267   3.247
84596W        W57021   2.308  26.151  14.829
84597W        W57022  40.527  44.449   0.418
84598W        W57023   1.853  20.692   4.686
84599W        W57024  22.731   6.828  11.867
84600W        W57025  30.645  34.107   4.317
84601W        W57026  38.505  21.069  14.409
84602W        W57027  37.518  40.391  13.808
84603W        W57028  16.697  21.034  14.323
84604W        W57029  17.187  21.231  14.860
84605W        W57030  26.487   9.394   2.857
84606W        W57031  23.051  28.612  14.882
84607W        W57032  35.942  36.410   4.329
84608W        W57033  37.399  11.309   1.370
84609W        W57034  39.926   5.738   1.300
84610W        W57035   5.263  42.375   3.869
84611W        W57036  32.111  14.734   4.820
84612W        W57037  18.191  37.485  11.381
84613W        W57038  14.328  21.536  13.323
84614W        W57039  34.543  19.778  11.024
84615W        W57040  40.485  16.087  14.470
84616W        W57041   2.391  37.537  11.436
84617W        W57042  26.085  23.166   2.761
84618W        W57043  24.480  28.535  14.797
84619W        W57044  41.462  25.110   1.861
84620W        W57045   7.823   1.256   1.237
84621W        W57046  33.394  24.713   3.296
84622W        W57047   8.366  22.063   3.377
84623W        W57048  43.956   0.367  12.544
84624W        W57049  35.601  39.931  12.994
84625W        W57050  39.331   1.918  13.536
84626W        W57051  29.515  18.071  12.057
84627W        W57052  17.601  22.203  14.824
84628W        W57053  20.689  19.639  10.959
84629W        W57054  39.529  29.485  14.000
84630W        W57055   7.790  17.232   1.284
84631W        W57056  10.343   3.243  11.083
84632W        W57057   8.812  36.356  14.470
84633W        W57058  25.475  13.227   2.747
84634W        W57059  10.635  37.356  10.627
84635W        W57060  14.752  40.981  12.495
84636W        W57061  41.446  37.956   4.682
84637W        W57062  40.034  19.578   3.168
84638W        W57063   9.213  32.634  12.845
84639W        W57064   2.255  32.892  13.863
84640W        W57065  40.970  41.355   0.826
84641W        W57066  15.803  28.482   0.946
84642W        W57067  39.887  18.054  11.925
84643W        W57068  17.665  44.992  14.885
84644W        W57069   1.919  39.552  12.566
84645W        W57070  41.537  30.028  13.469
84646W        W57071  20.653   5.852   2.671
84647W        W57072  26.123  37.451  12.559
84648W        W57073  10.180  18.721  11.119
84649W        W57074  21.026  35.372   0.938
84650W        W57075  37.046  21.090  10.924
84651W        W57076   7.796   7.195  14.762
84652W        W57077  39.855  35.100  11.100
84653W        W57078  44.408  34.542  13.315
84654W        W57079  27.523  19.158  14.805
84655W        W57080  27.038  10.749   4.224
84656W        W57081   7.720  15.805  12.963
84657W        W57082  18.671  41.371   1.781
84658W        W57083  25.587  34.553  14.341
84659W        W57084  13.233  31.081  11.381
84660W        W57085   9.167  35.523  11.044
84661W        W57086  28.562  30.588  10.057
84662W        W57087  35.598   1.315  13.880
84663W        W57088  40.931   9.277  12.828
84664W        W57089  17.239  24.566  10.589
84665W        W57090  43.460  29.077  14.915
84666W        W57091  20.248   9.836  10.504
84667W        W57092   0.774  41.943  12.909
84668W        W57093  11.363  26.057   1.914
84669W        W57094  23.177  21.107  12.898
84670W        W57095  28.487   9.349   2.335
84671W        W57096  19.056   5.308   2.814
84672W        W57097  37.469  40.964   2.221
84673W        W57098  21.187  25.568  11.413
84674W        W57099  10.640  30.564   2.871
84675W        W57100  19.610  17.665  11.888
84676W        W57101  15.794  41.315  13.493
84677W        W57102   0.370  14.726  12.397
84678W        W57103  26.527  38.830   3.292
84679W        W57104  30.129  12.280  12.554
84680W        W57105  14.681  36.944  14.345
84681W        W57106  29.448  33.056   3.869
84682W        W57107  38.819  10.359   4.813
84683W        W57108  44.381  16.576  10.562
84684W        W57109  20.161  43.371   0.843
84685W        W57110   0.943  14.179   0.287
84686W        W57111   1.340   0.455  13.852
84687W        W57112  35.938  34.047  13.950
84688W        W57113  35.556  26.671  10.567
84689W        W57114  34.498  14.821   0.335
84690W        W57115  11.303  33.409  13.895
84691W        W57116  10.652  22.700  14.387
84692W        W57117  19.562  32.007  14.478
84693W        W57118  37.518  15.772   1.402
84694W        W57119  13.699   7.685   4.673
84695W        W57120  40.421  15.588  12.498
84696W        W57121  26.662  20.196  10.956
84697W        W57122  30.637   5.846   2.358
84698W        W57123   9.158  39.010  13.398
84699W        W57124  16.118  11.258  14.921
84700W        W57125   2.881  42.868   1.355
84701W        W57126  43.304  21.728   1.769
84702W        W57127  11.848   0.472   1.377
84703W        W57128   2.847   7.215   3.646
84704W        W57129  10.257  37.483  12.403
84705W        W57130  41.318  37.349   3.739
84706W        W57131  37.409  16.302   3.173
84707W        W57132  37.076  30.616   3.712
84708W        W57133   4.915  41.911  10.931
84709W        W57134  33.071  14.255  11.458
84710W        W57135   7.735   2.328  12.004
84711W        W57136  29.625  28.558   0.962
84712W        W57137  32.443  12.181  14.968
84713W        W57138  20.249  10.632   4.201
84714W        W57139  41.973  11.264  12.838
84715W        W57140   8.790  17.190  11.031
84716W        W57141  30.614  36.016   0.736
84717W        W57142   1.412  21.146   3.279
84718W        W57143  18.644  38.970   5.265
84719W        W57144   9.797  26.610   2.798
84720W        W57145   2.422  37.370   4.670
84721W        W57146  31.521  43.507  11.053
84722W        W57147  17.648   1.255   0.836
84723W        W57148  18.118  42.400   2.317
84724W        W57149  17.567  13.293   4.235
84725W        W57150  36.556  24.489  10.416
84726W        W57151  14.193  39.049  13.443
84727W        W57152  22.699  38.330  12.059
84728W        W57153  41.425  40.319  10.633
84729W        W57154   1.389  43.488  12.861
84730W        W57155  39.345   9.706  12.571
84731W        W57156  10.268  38.916   1.292
84732W        W57157  37.573  28.495  10.891
84733W        W57158   3.903  18.681  13.877
84734W        W57159  29.108  26.513  13.446
84735W        W57160   7.901  43.489  12.938
84736W        W57161  33.015  27.988   1.895
84737W        W57162  23.714   5.905   4.658
84738W        W57163   6.409   9.380  11.526
84739W        W57164  21.730  29.116  13.038
84740W        W57165   6.424  38.496  13.410
84741W        W57166  43.913  17.080  12.973
84742W        W57167   6.288  31.896   2.200
84743W        W57168  28.033  29.922  12.526
84744W        W57169   6.368  24.015  14.373
84745W        W57170  13.761   1.465  13.545
84746W        W57171  15.298  23.041  14.485
84747W        W57172   9.368  26.541  12.355
84748W        W57173   1.435   1.849  13.043
84749W        W57174  40.418  24.144  14.997
84750W        W57175  43.475  38.955   4.686
84751W        W57176  32.546  35.591   3.161
84752W        W57177  22.240  33.535  12.825
84753W        W57178   5.195  29.100   4.157
84754W        W57179  14.119  17.775  12.360
84755W        W57180   2.380  20.629  10.574
84756W        W57181  32.482  10.666  14.498
84757W        W57182  27.998   2.363   1.716
84758W        W57183  35.385   2.453   4.690
84759W        W57184  18.610  17.062  10.023
84760W        W57185  18.191  39.340   4.281
84761W        W57186  34.391  11.163  12.077
84762W        W57187   7.741  26.525   4.814
84763W        W57188  19.695  32.582   4.804
84764W        W57189  21.524  41.311  11.068
84765W        W57190  31.026  15.248   1.830
84766W        W57191  41.996   3.251   3.263
84767W        W57192   4.832   0.271   2.900
84768W        W57193  28.024  44.338   3.218
84769W        W57194   7.357  34.031  11.586
84770W        W57195   7.705  12.193  12.489
84771W        W57196  25.078  16.218  14.916
84772W        W57197  17.572  36.410   3.244
84773W        W57198  29.456  27.196   3.169
84774W        W57199  44.788  16.681  11.890
84775W        W57200  19.645   0.977   1.216
84776W        W57201  41.372   8.677  14.907
84777W        W57202   0.333  42.815   1.748
84778W        W57203  31.445  40.872   4.779
84779W        W57204   1.768  19.237   0.334
84780W        W57205   1.831  34.009  12.960
84781W        W57206   1.291  41.891   4.728
84782W        W57207  35.578  17.719  11.411
84783W        W57208  24.047  30.509   0.362
84784W        W57209  14.630  43.514   3.307
84785W        W57210  36.042   1.810  10.587
84786W        W57211   5.375   3.342   2.674
84787W        W57212  14.195  40.034  14.497
84788W        W57213  37.935  21.633   4.331
84789W        W57214   5.421  40.339   4.733
84790W        W57215  38.963   9.832  12.411
84791W        W57216  32.975  39.012   3.642
84792W        W57217  37.963  13.800  13.316
84793W        W57218  23.029   6.285   0.259
84794W        W57219   6.759  18.247  13.535
84795W        W57220  34.375  15.223  13.482
84796W        W57221  22.639  17.775   4.117
84797W        W57222  36.053  21.208   3.692
84798W        W57223   9.695  32.079   4.129
84799W        W57224  30.487  10.711   0.934
84800W        W57225  18.679   1.256  14.411
84801W        W57226   6.381   8.836  13.419
84802W        W57227  32.567  17.306  12.994
84803W        W57228   6.281   5.351  13.985
84804W        W57229   5.785  32.421   0.733
84805W        W57230  31.413   7.196   2.714
84806W        W57231  36.044  35.076  13.349
84807W        W57232  26.113  26.012  12.357
84808W        W57233  39.894  13.846   4.659
84809W        W57234  22.602  24.218   3.341
84810W        W57235  28.625  34.083   0.785
84811W        W57236   6.279  26.111   1.778
84812W        W57237  18.653   4.434   0.857
84813W        W57238  29.118  38.028  14.338
84814W        W57239  37.397  28.955   0.393
84815W        W57240  11.313  21.123  12.034
84816W        W57241  20.750  32.425  10.633
84817W        W57242  17.079  32.055  14.355
84818W        W57243  30.063  31.061   2.848
84819W        W57244  21.193  44.920   2.234
84820W        W57245   6.252   3.849  13.392
84821W        W57246  18.752   2.918  11.449
84822W        W57247  17.269   7.733   4.234
84823W        W57248   5.304   8.239   1.258
84824W        W57249  41.905   7.816   4.744
84825W        W57250  10.243  37.927  11.909
84826W        W57251   2.812   5.389   3.324
84827W        W57252  37.580  25.990   4.607
84828W        W57253  19.084  12.298   0.260
84829W        W57254  10.382  33.408   0.783
84830W        W57255   6.818  18.062  14.334
84831W        W57256   0.806  20.250   0.745
84832W        W57257  28.541  26.689   0.885
84833W        W57258  15.617  28.186  12.011
84834W        W57259  16.700  24.195  13.460
84835W        W57260   9.309  21.642   1.885
84836W        W57261   6.288  14.182   3.249
84837W        W57262  41.363  39.494   4.333
84838W        W57263   6.913   5.238   2.744
84839W        W57264  30.460  41.311   0.247
84840W        W57265  36.360  14.634  14.012
84841W        W57266  35.442  28.001  11.966
84842W        W57267   3.920   8.830  11.084
84843W        W57268  40.030   0.942  11.415
84844W        W57269  42.359  42.023  13.876
84845W        W57270  28.576  31.085   4.786
84846W        W57271  41.844  15.169   1.791
84847W        W57272  10.696  13.605  11.472
84848W        W57273  13.198  36.484   1.830
84849W        W57274   6.260  29.438  12.500
84850W        W57275  38.426  40.882  10.469
84851W        W57276  38.918  22.243  13.014
84852W        W57277  13.737  32.131   2.705
84853W        W57278  43.966  21.112  13.321
84854W        W57279  26.202  18.683   0.420
84855W        W57280  24.131   9.377   3.776
84856W        W57281   2.838  36.527   4.690
84857W        W57282  18.748  40.895   4.739
84858W        W57283  11.130  23.077   3.357
84859W        W57284  36.368   8.660  13.971
84860W        W57285  16.090  20.035   1.260
84861W        W57286  38.484  37.457  13.024
84862W        W57287  21.751  30.523  11.598
84863W        W57288  35.052  21.734  13.920
84864W        W57289  32.935  42.309   0.826
84865W        W57290   2.402  32.009  11.419
84866W        W57291  15.786  26.035  13.805
84867W        W57292  26.517  42.300  14.474
84868W        W57293   0.419   3.928  13.889
84869W        W57294  25.206  34.060   0.330
84870W        W57295  17.185  41.003   2.884
84871W        W57296  37.073  14.645   2.316
84872W        W57297  34.515  44.323  11.932
84873W        W57298   0.480  20.556  11.909
84874W        W57299  15.763  33.395  14.024
84875W        W57300  25.489  15.580   0.904
84876W        W57301  36.858   9.280   2.882
84877W        W57302   7.350  38.047  12.419
84878W        W57303   0.944   0.452  10.575
84879W        W57304  22.535   8.731  10.513
84880W        W57305  13.262  19.203   4.229
84881W        W57306  24.065  12.237  12.940
84882W        W57307  33.554  29.941  12.503
84883W        W57308   7.347  42.003   4.721
84884W        W57309  27.985  33.937  12.842
84885W        W57310  26.658  18.174  11.547
84886W        W57311  18.723  39.838   3.711
84887W        W57312  13.681   4.818   1.869
84888W        W57313  44.877   4.402   1.437
84889W        W57314  25.618  39.526   3.275
84890W        W57315  39.981   0.411  14.817
84891W        W57316  25.200  28.012   1.875
84892W        W57317  40.367  21.030   1.444
84893W        W57318  27.556  39.322   2.874
84894W        W57319   1.450  34.869   0.350
84895W        W57320  24.520  32.416  14.775
84896W        W57321   8.198  32.997  14.945
84897W        W57322  27.960  30.008   2.852
84898W        W57323  13.173  26.641  13.801
84899W        W57324   9.378  36.093   3.249
84900W        W57325   9.839  34.608  11.529
84901W        W57326  29.155  40.800   4.598
84902W        W57327   2.296   5.339   4.198
84903W        W57328   1.445  22.079   2.743
84904W        W57329  22.136  29.121   0.460
84905W        W57330  34.413  29.001  10.959
84906W        W57331  30.501   9.279  14.005
84907W        W57332  22.180  11.221   2.232
84908W        W57333  34.072  44.390  14.347
84909W        W57334  39.473  29.459   3.822
84910W        W57335  24.154   5.256  12.868
84911W        W57336  15.263  16.134   0.803
84912W        W57337  18.293  21.758   3.853
84913W        W57338  21.029  37.954  12.943
84914W        W57339  43.448   7.302   4.309
84915W        W57340  22.662  31.972   4.656
84916W        W57341   2.827  32.477  13.921
84917W        W57342   1.427  25.035   1.765
84918W        W57343   6.779  24.074  10.910
84919W        W57344   1.416  10.770   3.160
84920W        W57345   4.264  25.711   3.782
84921W        W57346  17.154  15.290   4.780
84922W        W57347  29.452  44.905  14.774
84923W        W57348  25.571  37.061   1.283
84924W        W57349  32.021  16.672  10.942
84925W        W57350  34.574  39.346  10.611
84926W        W57351  37.899  21.052   1.400
84927W        W57352  43.895  37.385   9.995
84928W        W57353  39.047  39.896   0.409
84929W        W57354  37.445   0.317   0.368
84930W        W57355  21.722  25.620   0.783
84931W        W57356  12.828   4.765  13.851
84932W        W57357  23.085  27.111   4.242
84933W        W57358  38.939  20.153   3.707
84934W        W57359   3.781  44.882   3.781
84935W        W57360  32.528  17.678  11.513
84936W        W57361  10.279  38.540   0.437
84937W        W57362  22.637  32.576  10.101
84938W        W57363   8.190  30.413  14.498
84939W        W57364  13.308  23.674  13.892
84940W        W57365  19.544   8.826  14.413
84941W        W57366  43.332  20.715   4.611
84942W        W57367  38.070   2.722  11.114
84943W        W57368   2.472  42.486  11.886
84944W        W57369   7.309  31.137   4.786
84945W        W57370   4.832  23.150  11.436
84946W        W57371   6.699  22.127  12.536
84947W        W57372  24.119  11.762  13.410
84948W        W57373  13.710  11.245  13.014
84949W        W57374  17.788  17.701   3.167
84950W        W57375  35.023   4.349  13.458
84951W        W57376  17.695  40.951  14.025
84952W        W57377  25.661  39.049  10.494
84953W        W57378  28.934  15.681  13.486
84954W        W57379  29.627  21.575  14.882
84955W        W57380  18.580  34.999   0.261
84956W        W57381  19.218  10.252  11.893
84957W        W57382   3.405  16.200  11.601
84958W        W57383  18.555  12.348  11.931
84959W        W57384  23.224  27.551  12.906
84960W        W57385  39.451  40.966   2.706
84961W        W57386  21.041   7.393  11.942
84962W        W57387  20.193  17.587   3.149
84963W        W57388  43.001  15.591   1.445
84964W        W57389   3.376  27.981   1.920
84965W        W57390   0.951  32.466   3.729
84966W        W57391   6.737   9.345   0.905
84967W        W57392  25.973  16.735  13.464
84968W        W57393  27.062   3.743   3.317
84969W        W57394  15.619   7.785   0.937
84970W        W57395  16.591  34.976   0.265
84971W        W57396  24.228  34.562   3.715
84972W        W57397  28.959   5.907   3.717
84973W        W57398  30.003  44.827  14.930
84974W        W57399  13.227  38.974   4.655
84975W        W57400  44.896  29.529  14.374
84976W        W57401  35.890   2.276  13.974
84977W        W57402  27.105  29.480  11.014
84978W        W57403  31.021  39.051  11.590
84979W        W57404  24.203  25.589  12.548
84980W        W57405  11.296  12.842  14.492
84981W        W57406  16.314  12.298   4.204
84982W        W57407   3.321   6.294   2.178
84983W        W57408  36.932  39.014  11.031
84984W        W57409  40.052  23.721   1.439
84985W        W57410   1.326   8.374   0.270
84986W        W57411  35.958  20.123  12.005
84987W        W57412   7.694  33.992  12.541
84988W        W57413  19.046  27.979   1.388
84989W        W57414  24.607  12.763  11.563
84990W        W57415   3.221  32.907   3.229
84991W        W57416  10.224  39.053   2.342
84992W        W57417  36.487  16.216   2.862
84993W        W57418   8.889   3.742   4.279
84994W        W57419  39.952  36.444  12.351
84995W        W57420  32.525   6.807  12.493
84996W        W57421   8.748  36.513  13.546
84997W        W57422  29.086  21.107  11.950
84998W        W57423  16.641  32.917   3.734
84999W        W57424  14.297   5.867  10.969
85000W        W57425  14.748   9.298  11.072
85001W        W57426  40.488  18.552  13.482
85002W        W57427   3.215  25.711  13.539
85003W        W57428  21.702  43.429  12.905
85004W        W57429  14.789  20.253  14.425
85005W        W57430  16.084   8.798  10.457
85006W        W57431  33.022   1.297   3.338
85007W        W57432  28.438  41.326   3.205
85008W        W57433  35.501  22.618  10.911
85009W        W57434   7.890  29.466  13.969
85010W        W57435  18.774  28.593  11.404
85011W        W57436   5.695  21.085  14.903
85012W        W57437   6.362  19.109  11.946
85013W        W57438  39.058  25.655   2.692
85014W        W57439  12.819  22.026   4.229
85015W        W57440  26.644  11.809  11.519
85016W        W57441  36.892  23.168  11.399
85017W        W57442  37.837  23.535  10.527
85018W        W57443  13.237   0.765   0.898
85019W        W57444  23.066  34.481  11.093
85020W        W57445  42.818  41.475  10.105
85021W        W57446   1.799  43.299   4.143
85022W        W57447  26.501  44.442   4.628
85023W        W57448  33.087  13.253  12.032
85024W        W57449   3.267   5.402   4.173
85025W        W57450  19.246  17.696  13.008
85026W        W57451  20.272  32.129   1.234
85027W        W57452  40.856  21.246  14.387
85028W        W57453  42.307  17.143  12.095
85029W        W57454  12.210  42.316  10.900
85030W        W57455  38.921  16.087  12.931
85031W        W57456  21.088  11.181  12.340
85032W        W57457  15.192  21.593   0.251
85033W        W57458  36.950  38.040  14.323
85034W        W57459   3.227  32.466   2.873
85035W        W57460  42.493  37.337  12.352
85036W        W57461  11.267  31.495   0.809
85037W        W57462   2.463  37.019   3.222
85038W        W57463  29.426   2.408  14.995
85039W        W57464   8.683  34.374   1.838
85040W        W57465  17.182  34.439  13.795
85041W        W57466  31.615  11.735   0.909
85042W        W57467  24.063  37.461  12.350
85043W        W57468  26.969   8.385  10.628
85044W        W57469  28.971   8.292   0.426
85045W        W57470  17.621   2.234   0.794
85046W        W57471  32.528  23.229   3.376
85047W        W57472  33.036  35.984  13.967
85048W        W57473  39.493  18.149   0.405
85049W        W57474  10.276  43.303   3.231
85050W        W57475  31.449  32.605   1.245
85051W        W57476  36.391  16.795  12.010
85052W        W57477   3.286  32.396   1.777
85053W        W57478  31.519  16.761   4.719
85054W        W57479  10.168  41.988   1.877
85055W        W57480   3.460  36.919  14.784
85056W        W57481  25.187  39.355  14.350
85057W        W57482  15.592  13.323  13.862
85058W        W57483  44.894  44.771   4.651
85059W        W57484  17.142  34.054  13.842
85060W        W57485  18.725  17.682  12.970
85061W        W57486  29.136  24.517   3.298
85062W        W57487  42.514  41.821   0.894
85063W        W57488  10.287  16.274  12.882
85064W        W57489   7.765  13.754   4.144
85065W        W57490  43.283   3.324   0.813
85066W        W57491  38.341  34.579   2.727
85067W        W57492   3.220  42.409   0.879
85068W        W57493  43.312  36.467  14.987
85069W        W57494  23.639   5.341  14.871
85070W        W57495   6.285   8.669  10.488
85071W        W57496  43.945  21.134   2.687
85072W        W57497  40.865  21.137   9.932
85073W        W57498  17.212  26.117   3.657
85074W        W57499  34.909  17.137   1.212
85075W        W57500  24.130  21.589   3.808
85076W        W57501  43.427   2.388   1.433
85077W        W57502  11.210  26.065   0.863
85078W        W57503  23.558  15.585   0.790
85079W        W57504  16.233   3.257   0.400
85080W        W57505  33.474  18.629  10.949
85081W        W57506  36.908   0.891   3.748
85082W        W57507  21.106   9.659   5.229
85083W        W57508  35.540  39.028   1.403
85084W        W57509   0.265  31.934  12.867
85085W        W57510  22.217  43.880  10.900
85086W        W57511  39.555  16.172   1.365
85087W        W57512  19.253  28.638  11.591
85088W        W57513  14.146   2.398   1.697
85089W        W57514  23.164   0.936   1.830
85090W        W57515   9.710  26.503   0.765
85091W        W57516   1.844  33.951   2.694
85092W        W57517  25.138  16.643  13.919
85093W        W57518   0.431   6.377   1.337
85094W        W57519  10.790  15.725  11.490
85095W        W57520  28.465  25.988   4.117
85096W        W57521  29.156  41.017  14.368
85097W        W57522  20.188  21.751   3.314
85098W        W57523  37.068  12.166  12.503
85099W        W57524  16.655  23.055  13.362
85100W        W57525  36.415  21.177   0.385
85101W        W57526  41.835  14.293   4.312
85102W        W57527  25.205  37.462   4.240
85103W        W57528  27.576  32.618  10.416
85104W        W57529  41.990  39.946  10.966
85105W        W57530  41.454  33.903   3.748
85106W        W57531   9.718  18.717  11.087
85107W        W57532   2.955  20.664   4.178
85108W        W57533  40.521  35.474   2.748
85109W        W57534  15.723   0.437  11.406
85110W        W57535   8.793  43.310  13.332
85111W        W57536  35.894  22.503  12.080
85112W        W57537  10.179  30.108   3.212
85113W        W57538  26.080  21.033   4.130
85114W        W57539  13.700  34.511  11.454
85115W        W57540   3.929  16.117   2.695
85116W        W57541   1.872  19.055  13.036
85117W        W57542   5.909  15.306  11.415
85118W        W57543  23.566  14.665   0.728
85119W        W57544  22.222  33.428   3.658
85120W        W57545  41.887  35.568   4.822
85121W        W57546  42.019  42.961  12.554
85122W        W57547   5.346   0.836  11.581
85123W        W57548  37.052  42.835   4.225
85124W        W57549  31.098  35.454   2.809
85125W        W57550  36.054  23.105  11.397
85126W        W57551  39.413  34.519  11.537
85127W        W57552  27.154  27.090  13.821
85128W        W57553  15.165  42.459   4.693
85129W        W57554  10.712  31.526  14.475
85130W        W57555  22.246  12.667  10.585
85131W        W57556  37.974  12.178   4.704
85132W        W57557   5.778  28.155   0.781
85133W        W57558  17.775  34.884  13.417
85134W        W57559  26.647  31.489   5.277
85135W        W57560   5.760   9.656   1.238
85136W        W57561  12.696  25.102  11.113
85137W        W57562   8.252  44.829  14.476
85138W        W57563   9.375  43.322  10.489
85139W        W57564  31.458  27.055   3.814
85140W        W57565  18.745   8.726   1.811
85141W        W57566   1.818  31.455   4.716
85142W        W57567  32.125   7.206  14.015
85143W        W57568  16.653  32.584  10.457
85144W        W57569  18.647  12.701  14.817
85145W        W57570  44.334  32.441   0.873
85146W        W57571  19.712  11.254   4.829
85147W        W57572  31.959  12.203   4.787
85148W        W57573  37.430   8.371   1.860
85149W        W57574  23.225  12.226   4.203
85150W        W57575   0.369  34.525  11.442
85151W        W57576  36.377  39.973  12.076
85152W        W57577  39.845  26.984  12.089
85153W        W57578  23.629  23.064  12.413
85154W        W57579  21.626  12.624   4.273
85155W        W57580  14.291  15.246   4.227
85156W        W57581   5.797  18.175   0.323
85157W        W57582  25.161   8.351   4.634
85158W        W57583  25.122  16.698  11.003
85159W        W57584  24.229  44.845   3.332
85160W        W57585  26.207  38.469   3.247
85161W        W57586   8.252  41.799  11.395
85162W        W57587  35.439  38.344  14.982
85163W        W57588   4.748  35.552   1.721
85164W        W57589   4.859  33.404   4.121
85165W        W57590  37.480  25.112   2.303
85166W        W57591  44.489  20.082  13.861
85167W        W57592  24.985   0.427   2.212
85168W        W57593  15.115  37.054   2.860
85169W        W57594   4.923  17.789  13.353
85170W        W57595   0.870  36.060   4.680
85171W        W57596   6.298  20.254  12.093
85172W        W57597  11.762   3.402  13.911
85173W        W57598  21.091  21.605  11.864
85174W        W57599  16.627  30.425   3.154
85175W        W57600  18.124   7.847  14.960
85176W        W57601  35.581  39.029   3.201
85177W        W57602  42.282  40.357   4.269
85178W        W57603  35.087  31.989  10.441
85179W        W57604  32.039  39.032   2.352
85180W        W57605  11.705  14.203   4.309
85181W        W57606   3.919  20.768   2.275
85182W        W57607  18.186  18.219   3.781
85183W        W57608  14.767  12.142  13.503
85184W        W57609  18.758   4.858  10.158
85185W        W57610  44.792  34.607   1.229
85186W        W57611  18.239  31.990  14.004
85187W        W57612  31.955   5.901  11.375
85188W        W57613   0.383   5.303  12.475
85189W        W57614  43.315   9.250   2.761
85190W        W57615  14.730   4.355  13.049
85191W        W57616  24.640  10.825  10.602
85192W        W57617  12.264  35.108  12.544
85193W        W57618  43.015   6.804  10.407
85194W        W57619   3.448  13.755  12.902
85195W        W57620  19.245   2.379   3.216
85196W        W57621   4.802  10.731   0.296
85197W        W57622  27.984  27.032  14.514
85198W        W57623   0.982  26.493  14.331
85199W        W57624  14.192  26.194   3.239
85200W        W57625   4.349   4.811  10.452
85201W        W57626  12.241  27.626   3.812
85202W        W57627  12.661  19.268   1.415
85203W        W57628  39.986  28.984   2.327
85204W        W57629  18.703  30.997   2.188
85205W        W57630  25.025  26.537  10.489
85206W        W57631  19.215   6.302   4.784
85207W        W57632  35.417  10.335  14.444
85208W        W57633  43.846  26.481  12.535
85209W        W57634   4.871  43.279  13.914
85210W        W57635  35.488  21.630   0.863
85211W        W57636  12.845   0.415  12.865
85212W        W57637  34.865  44.478  12.452
85213W        W57638   6.692  23.528  11.577
85214W        W57639  32.407   8.198  10.494
85215W        W57640  16.659  36.031  10.584
85216W        W57641  13.606  34.963  13.936
85217W        W57642   7.244  18.643   3.646
85218W        W57643  39.516  15.200  10.536
85219W        W57644  17.626  12.690   3.729
85220W        W57645  32.037  19.105   4.249
85221W        W57646  19.245  15.654   4.288
85222W        W57647   4.448  38.421   4.727
85223W        W57648  36.902  40.031  11.576
85224W        W57649  11.301  42.943  12.995
85225W        W57650  38.354  30.927   3.697
85226W        W57651  30.424   8.328   1.890
85227W        W57652  12.618  12.711   1.388
85228W        W57653   6.775   4.916  12.374
85229W        W57654  39.511   6.874   4.209
85230W        W57655  33.107  32.891  14.290
85231W        W57656  30.527  12.693   1.829
85232W        W57657  16.684  41.936   1.817
85233W        W57658  39.435  19.216  14.275
85234W        W57659  16.597  13.605  11.021
85235W        W57660   0.307   7.761   4.709
85236W        W57661   7.279   1.947   4.616
85237W        W57662   4.442  32.066   0.782
85238W        W57663  12.818   4.745  14.328
85239W        W57664  13.836   3.361  10.579
85240W        W57665  18.222  12.655  14.021
85241W        W57666  32.432  38.512  11.593
85242W        W57667  39.967  38.490   1.852
85243W        W57668  38.502  16.260  10.604
85244W        W57669  13.267  39.345   3.209
85245W        W57670  20.240  24.527  11.005
85246W        W57671   8.799  16.206   3.243
85247W        W57672  35.970  25.713  14.901
85248W        W57673  35.022  13.172  11.564
85249W        W57674  12.292   5.322   4.125
85250W        W57675  10.672  16.694   4.154
85251W        W57676  41.787   0.840  13.043
85252W        W57677  28.003   2.296   0.475
85253W        W57678  37.027   3.873  10.525
85254W        W57679  22.708   9.694   0.364
85255W        W57680  36.407  37.852   2.774
85256W        W57681  10.726   7.375  11.038
85257W        W57682  18.285  24.009  11.546
85258W        W57683  26.194  36.851  13.428
85259W        W57684  15.179  25.477  13.994
85260W        W57685   1.806   3.887  14.360
85261W        W57686   7.213  28.937  13.874
85262W        W57687  27.142  20.613   0.466
85263W        W57688  41.813  17.296   4.282
85264W        W57689  13.680  31.964  11.389
85265W        W57690  26.958   8.391   3.216
85266W        W57691  38.854  20.736   3.223
85267W        W57692  28.473  32.952   1.366
85268W        W57693  34.465  35.020  13.347
85269W        W57694  29.472  30.993   9.993
85270W        W57695  40.039   4.801  12.843
85271W        W57696  22.112   7.309  12.864
85272W        W57697  39.917  32.450  10.981
85273W        W57698  32.494   6.239  13.825
85274W        W57699  24.064   1.879  10.441
85275W        W57700   0.313  35.493  11.105
85276W        W57701   4.936   6.293   3.862
85277W        W57702  30.508  12.217   0.445
85278W        W57703  18.627  40.902  10.432
85279W        W57704   5.754  43.372   3.700
85280W        W57705   2.448  31.488  13.479
85281W        W57706  26.647  38.056   4.159
85282W        W57707  29.606   6.208   1.765
85283W        W57708  24.485  36.867  13.504
85284W        W57709  34.410  25.059  10.464
85285W        W57710  21.133  14.826   2.858
85286W        W57711  26.006  10.734  12.545
85287W        W57712  20.694  21.521  11.903
85288W        W57713  18.703  33.612   9.969
85289W        W57714  20.169   9.350  10.896
85290W        W57715  42.419  10.178  11.100
85291W        W57716  41.336   0.279   1.860
85292W        W57717  17.068  33.531  13.385
85293W        W57718  19.059  28.494   3.217
85294W        W57719  32.901  17.623   3.812
85295W        W57720  23.031  23.659   1.226
85296W        W57721  30.468   8.235   2.840
85297W        W57722  25.055  43.000  12.345
85298W        W57723  11.647   8.279  14.508
85299W        W57724   5.886  22.113   2.331
85300W        W57725  19.137   0.938   5.311
85301W        W57726   7.747  16.739  13.400
85302W        W57727  30.107  40.903  13.847
85303W        W57728  12.116  28.473   0.328
85304W        W57729  10.821  38.341   4.713
85305W        W57730  30.004  27.120  11.045
85306W        W57731  34.443  10.853  13.481
85307W        W57732  18.597  29.920   5.608
85308W        W57733  37.392  23.062  12.837
85309W        W57734  23.735  28.478   1.354
85310W        W57735  28.119  34.579  14.463
85311W        W57736  34.413  21.228  14.436
85312W        W57737  29.440  27.607  10.476
85313W        W57738  29.563  37.012  11.994
85314W        W57739  35.038  15.166   0.759
85315W        W57740  15.763  15.597  10.912
85316W        W57741  16.642  24.183  12.365
85317W        W57742   9.159  25.036  11.439
85318W        W57743  25.676   0.894  14.012
85319W        W57744   0.466  28.138  11.388
85320W        W57745  39.920  16.587   3.372
85321W        W57746  37.497  14.593   1.223
85322W        W57747  28.491  17.119   1.922
85323W        W57748  35.561  44.411  12.043
85324W        W57749   4.842  44.482  14.333
85325W        W57750  14.198  27.116   2.858
85326W        W57751  15.213  15.704  12.040
85327W        W57752   6.259  13.755  14.429
85328W        W57753  22.085  14.744   2.304
85329W        W57754  14.172   4.339   3.786
85330W        W57755  39.496  13.604  11.405
85331W        W57756  24.083  35.869   4.142
85332W        W57757  40.543  33.889  13.044
85333W        W57758  27.003  42.490   3.869
85334W        W57759  32.994  28.660  11.461
85335W        W57760  12.333  14.672   2.351
85336W        W57761   7.881   6.807  12.034
85337W        W57762  22.230   7.403  11.604
85338W        W57763   5.913  35.557   0.819
85339W        W57764  31.035   5.826  11.432
85340W        W57765  21.682   8.769  14.865
85341W        W57766   2.338  42.413   3.715
85342W        W57767  15.689   8.180  14.939
85343W        W57768  10.164   7.400  10.415
85344W        W57769  24.023   2.437  14.986
85345W        W57770  33.471  19.641   1.400
85346W        W57771   8.338   5.348   3.378
85347W        W57772  23.043  36.853  13.353
85348W        W57773  43.360  41.438   3.681
85349W        W57774  12.351  13.334   3.226
85350W        W57775  33.406  30.468   2.181
85351W        W57776  32.906  28.133  12.341
85352W        W57777   4.838  23.690  10.435
85353W        W57778   5.283  10.365   1.260
85354W        W57779  20.137  42.884  13.014
85355W        W57780  44.307  18.601   1.848
85356W        W57781   0.975  20.183  12.897
85357W        W57782  10.823   8.258  13.503
85358W        W57783  23.041   3.416   2.697
85359W        W57784   6.839  35.994  12.838
85360W        W57785  31.492   5.736  11.963
85361W        W57786  29.934  24.652   3.829
85362W        W57787   0.431   5.345  10.926
85363W        W57788   6.287  39.023  13.307
85364W        W57789  14.117  16.302  12.838
85365W        W57790  38.924   3.735   1.329
85366W        W57791  41.830  44.444  11.093
85367W        W57792  10.700  23.002  10.432
85368W        W57793   6.206  21.642  14.441
85369W        W57794  42.308  11.179  13.064
85370W        W57795  20.567   9.207  10.946
85371W        W57796   3.289  32.567  12.552
85372W        W57797   5.751  37.950  13.510
85373W        W57798  37.545  19.054   1.930
85374W        W57799  28.673  28.955   0.955
85375W        W57800  27.599  26.587  10.967
85376W        W57801  23.035   3.302  10.910
85377W        W57802  20.698  33.955  13.907
85378W        W57803  33.945  36.352   1.700
85379W        W57804   2.341   5.272   0.922
85380W        W57805   1.934   6.256   3.821
85381W        W57806  41.430  30.638  13.946
85382W        W57807   1.827   4.818   1.715
85383W        W57808   0.972  22.633   1.758
85384W        W57809  37.420   2.328  10.568
85385W        W57810  42.963  44.905  12.894
85386W        W57811  39.560  41.039   0.726
85387W        W57812  32.031  33.468  12.899
85388W        W57813  38.955  20.238   3.379
85389W        W57814  19.707   8.873  12.351
85390W        W57815  33.528   7.216  11.983
85391W        W57816   9.860  39.885  14.771
85392W        W57817  44.475  44.356  12.499
85393W        W57818   9.229  42.997  12.349
85394W        W57819  26.470  24.145  11.987
85395W        W57820  33.033  12.745   0.406
85396W        W57821   0.842  42.937  10.457
85397W        W57822  20.575   5.922  14.440
85398W        W57823  44.289  31.941   0.776
85399W        W57824  28.436  41.389  13.333
85400W        W57825  33.089  22.102  12.471
85401W        W57826  39.454   0.976  14.490
85402W        W57827  21.221  18.706  11.554
85403W        W57828  18.552  37.051  14.502
85404W        W57829  15.790  32.078  14.456
85405W        W57830  27.554  14.589  11.993
85406W        W57831  17.687  37.861   0.265
85407W        W57832  43.508  28.539   3.158
85408W        W57833  36.924  34.118   3.733
85409W        W57834  40.519  43.270  14.949
85410W        W57835  28.089  37.339   9.956
85411W        W57836  33.886  40.340   1.863
85412W        W57837  31.488  28.103  10.407
85413W        W57838  39.976  25.179   2.779
85414W        W57839   9.192  24.528  12.003
85415W        W57840  32.611  37.928   2.312
85416W        W57841  12.835  19.666  13.376
85417W        W57842  22.603  10.217  13.537
85418W        W57843  15.218  34.896  14.308
85419W        W57844  38.986  16.109   4.753
85420W        W57845  42.025  11.249   4.790
85421W        W57846  41.949  44.822  10.022
85422W        W57847  43.463   2.860   0.453
85423W        W57848   2.897  12.712   3.763
85424W        W57849  24.215   8.393   2.859
85425W        W57850  37.975   1.378   2.294
85426W        W57851  13.605  19.592   3.631
85427W        W57852  37.020  10.860   2.180
85428W        W57853  16.809  22.063   1.382
85429W        W57854  24.990  18.216  12.931
85430W        W57855  13.730  13.260   1.286
85431W        W57856  32.480  44.370   0.888
85432W        W57857  16.737  39.035   2.270
85433W        W57858  25.683   0.252  14.421
85434W        W57859  15.763  31.588  12.482
85435W        W57860  16.223   9.309  14.765
85436W        W57861  29.137  15.104   4.794
85437W        W57862  17.602  43.437   0.805
85438W        W57863   0.793  34.390  12.455
85439W        W57864  25.087  18.718  10.584
85440W        W57865  42.308  24.085   0.361
85441W        W57866  23.557  36.083  13.818
85442W        W57867  38.008  19.689   3.272
85443W        W57868  44.419   4.255  11.983
85444W        W57869   2.352  12.678  11.051
85445W        W57870  19.692  35.038  10.594
85446W        W57871   3.335  16.604  12.374
85447W        W57872  28.982  18.716  12.514
85448W        W57873   4.218  36.572   4.150
85449W        W57874  24.564  29.474  14.834
85450W        W57875  43.883  10.297   4.205
85451W        W57876  33.581  25.527   2.837
85452W        W57877  29.567  36.862   3.175
85453W        W57878  15.748  28.962  11.106
85454W        W57879  30.104  28.005   2.687
85455W        W57880  40.339  29.623   4.646
85456W        W57881   0.295  20.191  10.518
85457W        W57882  39.810  30.930  11.380
85458W        W57883   2.268  23.725   9.990
85459W        W57884  40.535   2.260   5.096
85460W        W57885   9.749  32.575  13.422
85461W        W57886  40.373  20.168  10.453
85462W        W57887  44.291   4.878   1.751
85463W        W57888  17.714  32.090   9.439
85464W        W57889  39.412   8.689  13.446
85465W        W57890  20.177  39.021   2.309
85466W        W57891   4.432  11.775   1.322
85467W        W57892  10.353  41.028  14.343
85468W        W57893   7.198  12.245  14.796
85469W        W57894  36.003   4.943   1.787
85470W        W57895  22.021   8.707   2.208
85471W        W57896  15.735  44.873  11.564
85472W        W57897   6.329  24.129  10.947
85473W        W57898  38.499   9.305   1.353
85474W        W57899  14.794   2.366   4.290
85475W        W57900   0.351  37.019   2.248
85476W        W57901   5.426  14.203   4.290
85477W        W57902  41.914   0.296   2.356
85478W        W57903  19.196   7.908   4.136
85479W        W57904  14.241   2.449  12.944
85480W        W57905  34.554   5.834   2.727
85481W        W57906  16.657  20.705  11.952
85482W        W57907  13.769  33.896   1.311
85483W        W57908  22.595   0.342  12.055
85484W        W57909  19.186  28.537  12.441
85485W        W57910  34.055  17.645   0.430
85486W        W57911  39.438  36.878   3.755
85487W        W57912  12.643  43.441  14.792
85488W        W57913  36.037  12.735  13.442
85489W        W57914  20.647  25.974   4.334
85490W        W57915  44.429  20.162  11.568
85491W        W57916   0.916  12.212   3.809
85492W        W57917   3.446  23.529  14.360
85493W        W57918  42.013   1.976   1.328
85494W        W57919   3.293  19.718  12.947
85495W        W57920   4.253  18.196   4.759
85496W        W57921  25.096  29.635   1.295
85497W        W57922  16.272  12.698   1.715
85498W        W57923   8.855  21.073  14.427
85499W        W57924  35.987  22.085   4.773
85500W        W57925  20.645  12.723  13.953
85501W        W57926  30.540  21.117   0.746
85502W        W57927  12.207  34.087  11.958
85503W        W57928  15.130  24.655   3.180
85504W        W57929  41.428  31.980   1.340
85505W        W57930  22.206  43.373   4.126
85506W        W57931  25.036  16.118   2.847
85507W        W57932  17.571   7.357  11.494
85508W        W57933   2.428  40.970   0.854
85509W        W57934  17.243  26.101  12.551
85510W        W57935  30.647  12.779   0.749
85511W        W57936  23.027  19.572   2.761
85512W        W57937  27.656  16.668  12.362
85513W        W57938   3.816  12.344  13.397
85514W        W57939   2.443  11.250   3.248
85515W        W57940  44.816   2.386   1.242
85516W        W57941  35.004  18.164   0.301
85517W        W57942  27.986  39.320   2.268
85518W        W57943  41.787  19.689  10.499
85519W        W57944  41.924  44.449   4.238
85520W        W57945  34.913  12.730   0.338
85521W        W57946   1.374   4.788   4.336
85522W        W57947   8.392  39.456   4.685
85523W        W57948  26.090  26.519  14.402
85524W        W57949   2.326  14.720   2.817
85525W        W57950  15.781  24.592  14.326
85526W        W57951   2.872  25.555  11.536
85527W        W57952  24.707  30.496   2.831
85528W        W57953  36.975  26.496   2.751
85529W        W57954  26.055  33.130  11.881
85530W        W57955  13.260  28.114   2.688
85531W        W57956   4.889   1.281   3.174
85532W        W57957  13.716   1.926   3.382
85533W        W57958  23.628  44.300   0.769
85534W        W57959  14.305  17.585  12.895
85535W        W57960   9.647  19.573   1.781
85536W        W57961  14.311  10.167  14.940
85537W        W57962  30.975   7.700  13.960
85538W        W57963  17.068  31.453  10.962
85539W        W57964  25.583  23.694   9.926
85540W        W57965  24.056   4.783   0.733
85541W        W57966   7.777  13.682   3.222
85542W        W57967   3.768   5.363   0.833
85543W        W57968  31.921  13.771   3.148
85544W        W57969  39.396   1.744   0.470
85545W        W57970  35.903  34.925  12.438
85546W        W57971   0.330  31.562   1.794
85547W        W57972  37.076  24.654   3.819
85548W        W57973  35.953  11.782  11.395
85549W        W57974  19.136  26.525   3.323
85550W        W57975  17.656  29.034  11.919
85551W        W57976  12.720  20.061   0.958
85552W        W57977  15.821  41.408  10.032
85553W        W57978  40.401  26.134   2.734
85554W        W57979  26.515  23.113   0.803
85555W        W57980  29.667   7.719  14.300
85556W        W57981  25.175  31.960   4.244
85557W        W57982  31.072  23.711   0.428
85558W        W57983   5.292  28.960   1.775
85559W        W57984  31.971  10.873   0.914
85560W        W57985  44.932  37.079   0.409
85561W        W57986  30.560  40.453  12.827
85562W        W57987  13.811  20.220   2.404
85563W        W57988  25.112  41.970   4.603
85564W        W57989  22.077  27.557   1.875
85565W        W57990  40.500  25.024  11.061
85566W        W57991  31.966  13.662   3.782
85567W        W57992  13.311  21.158  12.349
85568W        W57993  13.736   4.411  13.402
85569W        W57994   5.315  13.192   0.818
85570W        W57995  15.628   3.844   2.395
85571W        W57996  24.160  16.705   0.823
85572W        W57997  18.616  35.504  11.044
85573W        W57998  36.907  36.017  11.487
85574W        W57999   4.914  34.417   0.458
85575W        W58000  26.181   1.383  11.014
85576W        W58001  18.592  21.223   3.198
85577W        W58002  18.694  20.616   2.715
85578W        W58003  35.506  22.092  11.080
85579W        W58004  11.303  22.614  13.056
85580W        W58005  22.223  26.650   1.352
85581W        W58006  30.073  24.663  12.837
85582W        W58007  32.046  38.507  11.057
85583W        W58008  34.512  38.516   2.719
85584W        W58009  35.855  22.116   4.131
85585W        W58010  11.759  24.602  14.441
85586W        W58011  12.355  31.005  12.025
85587W        W58012  22.580  31.935   2.206
85588W        W58013   5.225  44.963  14.295
85589W        W58014  31.127  15.141  11.585
85590W        W58015  34.922  31.586  11.402
85591W        W58016  29.946  37.444   2.317
85592W        W58017  29.000  39.469  11.943
85593W        W58018  31.095  38.908  12.540
85594W        W58019   1.957  42.512   3.845
85595W        W58020  41.404  22.073  12.471
85596W        W58021  26.624  36.977   1.862
85597W        W58022  41.487   0.937  14.971
85598W        W58023   0.907  10.229  10.894
85599W        W58024  22.106  11.832   1.409
85600W        W58025  23.069  29.168   1.230
85601W        W58026  13.189  32.415   3.196
85602W        W58027  19.235  30.028   3.772
85603W        W58028  13.107  19.635  11.054
85604W        W58029  10.222   7.411   2.839
85605W        W58030   2.813  40.533   1.754
85606W        W58031  24.613  15.152   2.759
85607W        W58032  36.565  17.156   4.151
85608W        W58033  40.340  31.913  13.957
85609W        W58034  10.322  31.964  11.076
85610W        W58035  42.895  13.163  13.832
85611W        W58036  34.891  24.011   1.896
85612W        W58037   1.430  42.839   4.290
85613W        W58038  14.790  25.068  12.896
85614W        W58039   5.761  35.421  14.863
85615W        W58040   7.690  15.223   0.745
85616W        W58041   8.670  16.613   0.462
85617W        W58042  11.850  20.566  13.994
85618W        W58043  43.499  36.564  12.406
85619W        W58044  44.840  21.549  10.571
85620W        W58045   7.864  27.648   2.332
85621W        W58046  40.039  38.487   1.293
85622W        W58047  31.445  15.225   1.214
85623W        W58048  35.954   4.890  10.914
85624W        W58049   7.869  25.562  13.468
85625W        W58050  29.570  30.542  10.159
85626W        W58051   0.416  12.349  11.057
85627W        W58052   6.708  11.665  13.990
85628W        W58053  21.542  38.505  11.933
85629W        W58054   7.776  16.211  12.895
85630W        W58055  12.189  18.140  10.459
85631W        W58056  16.624  26.689  14.324
85632W        W58057  36.990  23.033   3.767
85633W        W58058  15.221  11.782   3.719
85634W        W58059  33.081  32.971  14.820
85635W        W58060  20.660  21.533  14.976
85636W        W58061  19.657  27.961  11.001
85637W        W58062   7.904  24.641   2.755
85638W        W58063   1.846   7.306   1.421
85639W        W58064  38.872  44.450   1.412
85640W        W58065  24.599  19.779   2.687
85641W        W58066  23.706  36.517   0.951
85642W        W58067  44.978  41.372   1.788
85643W        W58068  44.891  15.668  13.476
85644W        W58069   1.281   5.785  14.512
85645W        W58070  41.789   9.884   3.149
85646W        W58071   2.248   0.987   4.180
85647W        W58072  35.066   5.261  14.977
85648W        W58073   5.237  39.023   0.832
85649W        W58074   8.322   3.824  13.459
85650W        W58075  37.053   4.277  11.030
85651W        W58076  13.635  39.957  14.969
85652W        W58077  23.138  10.722  12.937
85653W        W58078  23.681  26.094  11.871
85654W        W58079   0.322  20.638   4.794
85655W        W58080  40.816   0.975  11.390
85656W        W58081  10.771  21.537   1.316
85657W        W58082   3.383  38.059   3.283
85658W        W58083  18.775  23.152   0.313
85659W        W58084  31.992  24.594   1.855
85660W        W58085  12.644   6.196  12.524
85661W        W58086  28.001   9.711   2.846
85662W        W58087  41.969  19.126   2.340
85663W        W58088  15.679  24.031  10.051
85664W        W58089   8.390  36.951   0.793
85665W        W58090  27.453  38.443   4.724
85666W        W58091  24.676  35.912  12.380
85667W        W58092  39.879  25.644   1.925
85668W        W58093  29.085  44.861   4.831
85669W        W58094  22.600   2.729   4.636
85670W        W58095  14.746   9.376   4.751
85671W        W58096   2.325  40.302   4.290
85672W        W58097  26.959  21.207  12.484
85673W        W58098   8.241  41.802   3.635
85674W        W58099   8.665   3.309  12.388
85675W        W58100  13.206  23.501  14.881
85676W        W58101  26.063  11.828   0.311
85677W        W58102  37.369  21.702   3.838
85678W        W58103  30.438  38.872   1.864
85679W        W58104  12.648  43.958  11.434
85680W        W58105  12.253  38.830  12.061
85681W        W58106  10.335  22.077   4.612
85682W        W58107   9.252  11.654   4.117
85683W        W58108   8.226  24.181   2.875
85684W        W58109   3.939  35.061  14.816
85685W        W58110   1.762  34.885   4.800
85686W        W58111   3.728  28.508  10.999
85687W        W58112   1.275  21.551   1.875
85688W        W58113  16.756  17.761  11.530
85689W        W58114  36.015  12.671  12.393
85690W        W58115  41.366  24.599   3.263
85691W        W58116   4.700  38.851  10.037
85692W        W58117  35.919  37.018  11.092
85693W        W58118  17.304  25.151  10.941
85694W        W58119  21.523   5.928  14.978
85695W        W58120  26.490  28.976  11.935
85696W        W58121  27.447  38.369  10.451
85697W        W58122  23.510   7.716  11.604
85698W        W58123  19.609  18.788  13.422
85699W        W58124  34.105  34.449   3.183
85700W        W58125  34.010  11.129   1.761
85701W        W58126  11.698  42.375   0.740
85702W        W58127  42.022  28.006   3.161
85703W        W58128  28.946   2.268  14.418
85704W        W58129  11.822   3.718   0.421
85705W        W58130  11.813  10.189   2.343
85706W        W58131  44.350   6.411  13.999
85707W        W58132  21.097  24.590   1.923
85708W        W58133  19.051  17.801   1.326
85709W        W58134   7.345  23.512  13.003
85710W        W58135  21.235  15.155  11.377
85711W        W58136   0.370  27.141  13.524
85712W        W58137  44.483  22.630  10.939
85713W        W58138  23.042  19.549   3.337
85714W        W58139  11.355  12.131  14.445
85715W        W58140  34.035   9.153   2.391
85716W        W58141   2.282  30.489   4.603
85717W        W58142   2.352  16.650   3.682
85718W        W58143  11.268  40.476   2.402
85719W        W58144  26.099   8.868   3.278
85720W        W58145  27.643  38.372  11.531
85721W        W58146  11.626  29.498  10.418
85722W        W58147   9.331  25.560  12.092
85723W        W58148  37.087   3.228  13.474
85724W        W58149   2.450  10.282   3.816
85725W        W58150  13.667  41.861  10.474
85726W        W58151  41.847  27.017  12.569
85727W        W58152  29.975  21.684   4.287
85728W        W58153  16.245  38.964  12.343
85729W        W58154  31.495  18.186   0.397
85730W        W58155  40.441  38.540   0.762
85731W        W58156  26.589  10.668  13.376
85732W        W58157   4.857  38.833  13.998
85733W        W58158  29.504  36.517  13.518
85734W        W58159   6.312  32.990  11.919
85735W        W58160  34.614  16.208  11.436
85736W        W58161  31.589  42.335  14.904
85737W        W58162  28.979  34.114  13.944
85738W        W58163  39.005   3.729  12.826
85739W        W58164  39.419  31.086   2.200
85740W        W58165  37.861  13.236   1.309
85741W        W58166   3.771   1.480  12.444
85742W        W58167  44.764  25.969  11.407
85743W        W58168  36.923  31.959   3.649
85744W        W58169  11.215   5.788   3.351
85745W        W58170  19.116  16.251  12.030
85746W        W58171  12.665  35.575  12.426
85747W        W58172  38.847  26.482  13.327
85748W        W58173  10.800   5.878  13.964
85749W        W58174  10.159  30.985  14.352
85750W        W58175  23.515   0.892  14.018
85751W        W58176  28.571   4.924   3.693
85752W        W58177  33.876  31.105  11.106
85753W        W58178   7.786  31.145  11.517
85754W        W58179  35.450  23.025   1.923
85755W        W58180  17.114   1.381  13.522
85756W        W58181  26.544   7.184   2.896
85757W        W58182  25.685  39.393  12.938
85758W        W58183  25.682  39.524  14.491
85759W        W58184   3.721  41.531  10.025
85760W        W58185  12.761   1.742  11.481
85761W        W58186  42.932  27.019  11.503
85762W        W58187   6.345  34.588   1.409
85763W        W58188  37.341  36.381   5.258
85764W        W58189  39.894   6.330  13.903
85765W        W58190  35.539  44.498  10.481
85766W        W58191  23.642   8.394   0.392
85767W        W58192  16.663   8.224   1.211
85768W        W58193  34.507  24.115  14.992
85769W        W58194  13.625  12.684   2.266
85770W        W58195  41.409  33.387  10.962
85771W        W58196  36.453  15.704   5.164
85772W        W58197  44.825  22.586  14.274
85773W        W58198   8.379  38.851  14.934
85774W        W58199  39.338   5.720  14.769
85775W        W58200  34.566   0.248   3.204
85776W        W58201  39.860  35.496  11.964
85777W        W58202  24.603  31.548   2.870
85778W        W58203  41.485  29.141   0.742
85779W        W58204  33.967   9.323   3.695
85780W        W58205  10.218  28.633  12.344
85781W        W58206  17.718   5.910   0.375
85782W        W58207  24.063  26.467   5.092
85783W        W58208   1.264  45.000  14.502
85784W        W58209  13.645   1.851   2.898
85785W        W58210   4.884   0.854  12.977
85786W        W58211  24.564  11.867   2.666
85787W        W58212  44.916  43.393  12.518
85788W        W58213  28.681  35.853   3.642
85789W        W58214  36.079  36.548  14.913
85790W        W58215  18.147   9.190   0.909
85791W        W58216  11.861  37.510   0.862
85792W        W58217   1.332   5.262  10.640
85793W        W58218  41.908  40.863  13.843
85794W        W58219  29.525  41.863   2.679
85795W        W58220  18.079  15.603   2.237
85796W        W58221   0.967  31.136   2.783
85797W        W58222   9.177  33.074  14.444
85798W        W58223  14.223   2.361   4.718
85799W        W58224  20.615   5.846   2.209
85800W        W58225  16.794  13.828   3.738
85801W        W58226  32.451  23.021   4.807
85802W        W58227  15.790  24.186   0.343
85803W        W58228   3.379  19.070   4.634
85804W        W58229  42.968   6.898   2.352
85805W        W58230  33.114  19.105   2.356
85806W        W58231  15.130   0.340   5.211
85807W        W58232   1.374  27.572  10.442
85808W        W58233  22.525  36.865  12.577
85809W        W58234   1.931  10.324  14.515
85810W        W58235  14.324   1.803  14.977
85811W        W58236  13.227  32.964   0.897
85812W        W58237  44.370  29.934  12.566
85813W        W58238  23.147  29.603  10.505
85814W        W58239  29.987  26.959  11.577
85815W        W58240   7.787   1.866  11.914
85816W        W58241  18.109   8.817   1.256
85817W        W58242  16.690  28.157   0.379
85818W        W58243  23.030   1.443   3.218
85819W        W58244  44.356  41.528  14.445
85820W        W58245  24.657  31.965   4.743
85821W        W58246  20.705   3.726  10.411
85822W        W58247   9.648  24.216  12.413
85823W        W58248  16.204   9.167   1.397
85824W        W58249   2.345  10.201   2.238
85825W        W58250   9.300  13.148  10.986
85826W        W58251  37.900  30.089  11.918
85827W        W58252   8.277   6.408   4.325
85828W        W58253  23.645   0.281   0.318
85829W        W58254  40.838  43.993  13.986
85830W        W58255   4.394  43.474   2.265
85831W        W58256  38.977  43.794   2.757
85832W        W58257  11.301  29.516  12.945
85833W        W58258   2.783   1.257   3.310
85834W        W58259  29.948  24.724  11.396
85835W        W58260  38.403   1.363  10.574
85836W        W58261  19.066   6.230   3.190
85837W        W58262   3.941  35.456   2.759
85838W        W58263  29.066  18.199  14.322
85839W        W58264  44.766   6.776  14.861
85840W        W58265   9.651  23.137  10.523
85841W        W58266  19.709  15.242  14.288
85842W        W58267   9.337  15.596  11.944
85843W        W58268  29.523  32.578   3.317
85844W        W58269  37.053  16.755   4.824
85845W        W58270  27.136  35.102  14.859
85846W        W58271   0.338  43.461   1.365
85847W        W58272  34.044  37.850   3.179
85848W        W58273  23.000  12.125   0.895
85849W        W58274  11.222  41.434   4.252
85850W        W58275  27.120  34.389   3.855
85851W        W58276  34.038   4.300  13.451
85852W        W58277  13.116   0.884   2.368
85853W        W58278  33.877  33.385   1.383
85854W        W58279  27.590  13.347   0.335
85855W        W58280  23.227  24.513   2.756
85856W        W58281  19.238  27.006   0.752
85857W        W58282  28.161  16.593  13.943
85858W        W58283  42.311  28.128   0.263
85859W        W58284  23.678  21.221   3.755
85860W        W58285  17.634  31.534  11.088
85861W        W58286  18.257  36.589   2.202
85862W        W58287  35.928  26.129  10.576
85863W        W58288   3.742  42.793  11.895
85864W        W58289  22.088  24.652  13.859
85865W        W58290   1.309  40.021   3.702
85866W        W58291  31.461  12.293   3.378
85867W        W58292  40.384   0.954  11.929
85868W        W58293   0.287  27.544   4.771
85869W        W58294  37.859  40.351  11.926
85870W        W58295   4.331  37.416   0.299
85871W        W58296  17.722   3.427   3.654
85872W        W58297   9.255  25.557   2.343
85873W        W58298  10.155   5.378   4.804
85874W        W58299  42.411  18.076   1.925
85875W        W58300  39.336  10.268  12.053
85876W        W58301  44.368   4.832  10.462
85877W        W58302  35.404  27.681  14.965
85878W        W58303   2.461  40.041   2.277
85879W        W58304  35.987  43.500  11.993
85880W        W58305  23.079  21.741   4.220
85881W        W58306  43.390  42.410  14.310
85882W        W58307  19.640  36.098  13.037
85883W        W58308  24.095  21.120   1.757
85884W        W58309  35.997   1.976  14.461
85885W        W58310   1.881  40.445   4.775
85886W        W58311  14.224   2.826  11.531
85887W        W58312   5.328  26.992   1.314
85888W        W58313  14.815  44.392  11.013
85889W        W58314   3.303   2.893  13.061
85890W        W58315   1.755  34.505  12.500
85891W        W58316  11.705  36.986  14.382
85892W        W58317  20.103  12.117   4.302
85893W        W58318   6.428  13.656  13.422
85894W        W58319   1.908  33.553   4.792
85895W        W58320  17.195   3.388  10.949
85896W        W58321  38.437  16.286  11.946
85897W        W58322  14.286   7.668   2.283
85898W        W58323  17.066   9.708   2.858
85899W        W58324   8.874  33.624  14.887
85900W        W58325  24.632  27.185   1.922
85901W        W58326  16.172  26.038   3.334
85902W        W58327  35.384  26.976  11.001
85903W        W58328  28.446  29.436  10.605
85904W        W58329   4.895  21.026  10.605
85905W        W58330  31.933  17.631  13.053
85906W        W58331  29.967  27.100   0.343
85907W        W58332   9.664  43.345  14.961
85908W        W58333   3.887  20.145   4.240
85909W        W58334  29.491  41.320  11.894
85910W        W58335  17.736  14.798   1.911
85911W        W58336  23.062  11.226  13.404
85912W        W58337  23.612  27.032   3.207
85913W        W58338  11.147   2.892   3.749
85914W        W58339   6.781  12.849  11.116
85915W        W58340  39.956  33.098  13.530
85916W        W58341  33.104  35.093  12.440
85917W        W58342  34.587  32.585  13.841
85918W        W58343  38.472  22.237   4.330
85919W        W58344  25.181   4.260  13.930
85920W        W58345  40.053  33.575  13.876
85921W        W58346   9.804  38.395  12.969
85922W        W58347  28.540   9.346  11.505
85923W        W58348  15.823  36.082  10.586
85924W        W58349  40.880  43.936  12.053
85925W        W58350   5.756  36.898   1.865
85926W        W58351  14.604  27.112   0.966
85927W        W58352  15.580  35.025  11.591
85928W        W58353  26.965  22.541   0.346
85929W        W58354  17.592  20.575   1.710
85930W        W58355  39.918  23.165  13.392
85931W        W58356  24.599  44.360   2.772
85932W        W58357  39.898  37.047  13.968
85933W        W58358  26.953  17.636  14.299
85934W        W58359  37.499  39.324  14.880
85935W        W58360  37.869  37.425   2.733
85936W        W58361  39.025   4.786  11.904
85937W        W58362  28.979  32.973   4.658
85938W        W58363  11.793  34.590   4.646
85939W        W58364   5.383  30.080   1.361
85940W        W58365   9.732  42.778   5.298
85941W        W58366  18.294  36.452  12.465
85942W        W58367  18.287  32.445  10.543
85943W        W58368  33.460  31.929   3.686
85944W        W58369  30.415   9.194  10.492
85945W        W58370  41.810  12.733  11.536
85946W        W58371  13.166  15.767  10.946
85947W        W58372  39.986   3.306  12.449
85948W        W58373  31.151  24.123   0.356
85949W        W58374   0.786  14.152  12.913
85950W        W58375   8.676   3.811   1.852
85951W        W58376   0.375  36.055  13.418
85952W        W58377  43.968  38.884  11.909
85953W        W58378   1.858  23.183   0.452
85954W        W58379   5.217  38.987  14.329
85955W        W58380  39.034  35.013  11.385
85956W        W58381  22.594  43.387  14.286
85957W        W58382  13.607  40.460  14.974
85958W        W58383  10.336   7.669  11.905
85959W        W58384  42.313  36.569  12.391
85960W        W58385  37.968   2.319   0.860
85961W        W58386  11.714  15.233   4.683
85962W        W58387  16.317  16.720   2.345
85963W        W58388   0.474   2.267   1.910
85964W        W58389  34.892  18.677   3.160
85965W        W58390  16.700  23.571  12.568
85966W        W58391   8.824  22.119  14.331
85967W        W58392  35.079  10.839   0.472
85968W        W58393  25.178   8.364   0.876
85969W        W58394  22.501   7.780   5.272
85970W        W58395   9.344   5.845  11.991
85971W        W58396  40.469  24.623  13.968
85972W        W58397   7.307  23.229   0.242
85973W        W58398  23.094  34.905   1.232
85974W        W58399   5.711  14.634   1.780
85975W        W58400   6.191  14.684   2.252
85976W        W58401   3.811  21.695  10.407
85977W        W58402   8.828  13.616  13.890
85978W        W58403  25.604   3.427   4.160
85979W        W58404  40.835  40.817  13.817
85980W        W58405   5.717   9.284  13.002
85981W        W58406  38.357  25.473  10.530
85982W        W58407  32.914   7.770  12.501
85983W        W58408  17.601  20.048  12.481
85984W        W58409   6.240  20.588   2.290
85985W        W58410  17.637  32.940  14.858
85986W        W58411  21.736  38.447   1.814
85987W        W58412  14.095  30.584  11.392
85988W        W58413  18.277  18.165  12.565
85989W        W58414  13.712  34.105   4.610
85990W        W58415  18.646  26.494  13.912
85991W        W58416  21.028   2.366   4.308
85992W        W58417  27.148  21.669   2.225
85993W        W58418  26.100  28.459   2.785
85994W        W58419   4.346  13.225   3.265
85995W        W58420  30.154   8.758  14.902
85996W        W58421  36.028  20.056  13.517
85997W        W58422  41.487  42.523  13.545
85998W        W58423  17.200   3.781  13.811
85999W        W58424  25.564  41.841   2.811
86000W        W58425  37.845   4.713   9.964
86001W        W58426   7.325  13.661  14.803
86002W        W58427  31.587  39.872   3.205
86003W        W58428  34.545  44.866  14.436
86004W        W58429   3.339  40.840   4.823
86005W        W58430  34.955  10.305  10.905
86006W        W58431  36.569  28.670  10.424
86007W        W58432  22.219  25.202  12.047
86008W        W58433  42.792  10.235   0.286
86009W        W58434  28.146   7.678   2.705
86010W        W58435  35.548   0.286   4.631
86011W        W58436  43.504  43.391  13.993
86012W        W58437  37.374  19.248  12.347
86013W        W58438  16.118  13.656  12.935
86014W        W58439  20.115   2.335   0.856
86015W        W58440   9.856  26.100   4.123
86016W        W58441   6.686  21.193  13.856
86017W        W58442  22.063  18.217  10.625
86018W        W58443  38.521  24.665   3.847
86019W        W58444  26.461   4.851   2.221
86020W        W58445  18.584  40.477   5.209
86021W        W58446   8.265  23.143   0.440
86022W        W58447   7.198  43.470   3.814
86023W        W58448  41.989  13.141  12.377
86024W        W58449  24.206  39.523  12.390
86025W        W58450  18.728  37.373  14.399
86026W        W58451  28.510   9.843   3.219
86027W        W58452  20.038  24.124   4.644
86028W        W58453  41.894  37.337   1.268
86029W        W58454  39.919  18.104   0.298
86030W        W58455  23.508   2.448  14.845
86031W        W58456  27.511  16.704  14.929
86032W        W58457   4.825  44.794   2.246
86033W        W58458   7.769  14.172  13.338
86034W        W58459   4.853  16.637  10.540
86035W        W58460   2.414  30.519  12.948
86036W        W58461  36.846  25.647  14.326
86037W        W58462   7.674  44.309  13.864
86038W        W58463   1.450  40.358   4.726
86039W        W58464  18.271  36.029   4.710
86040W        W58465  38.939  25.634  11.500
86041W        W58466  38.966   6.866  13.958
86042W        W58467  17.708   0.893   3.375
86043W        W58468  37.445  42.280   2.837
86044W        W58469  31.631  29.014  14.900
86045W        W58470  14.670  18.777   2.671
86046W        W58471  23.039   0.293   3.324
86047W        W58472  36.585  19.071   3.683
86048W        W58473  20.223  32.442  13.803
86049W        W58474  18.095   7.726  12.377
86050W        W58475  11.150  37.404  11.535
86051W        W58476  39.830  26.960   3.683
86052W        W58477  36.926  33.609  10.936
86053W        W58478  25.203   8.373  10.421
86054W        W58479  23.989   7.754  12.054
86055W        W58480  18.295  18.270   0.454
86056W        W58481  42.931  20.239   4.768
86057W        W58482  26.036   6.729  12.826
86058W        W58483   1.241  32.597  13.930
86059W        W58484  16.566   3.458  10.155
86060W        W58485  40.307  23.225  10.479
86061W        W58486  24.080  26.024  13.485
86062W        W58487  27.001   3.308  14.440
86063W        W58488  41.825  21.516  14.852
86064W        W58489  20.711  36.971  11.878
86065W        W58490  32.566  25.560  13.518
86066W        W58491  23.048  14.790   3.248
86067W        W58492   5.435  12.257  14.435
86068W        W58493  40.495  33.027  10.597
86069W        W58494  22.119  19.180   3.156
86070W        W58495  38.446   6.427   4.353
86071W        W58496  27.679  37.435  14.004
86072W        W58497  23.148   8.273  12.353
86073W        W58498  41.811  31.905  10.619
86074W        W58499  10.347  15.779  11.530
86075W        W58500  32.392   2.857  13.935
86076W        W58501  28.613  24.010   4.830
86077W        W58502  23.094   0.814   4.638
86078W        W58503   4.891  25.700   0.269
86079W        W58504   9.793   1.732  12.892
86080W        W58505  11.347  26.596  14.856
86081W        W58506  21.612  26.208   1.785
86082W        W58507   9.871  42.474   0.374
86083W        W58508  35.081   7.695   4.628
86084W        W58509   0.967  26.191   0.432
86085W        W58510  21.579  34.973   1.235
86086W        W58511  11.672   4.361  14.281
86087W        W58512  29.928  34.456   2.696
86088W        W58513  18.272  17.285  14.425
86089W        W58514   5.302  36.878   2.775
86090W        W58515   3.307  18.231  11.969
86091W        W58516  43.457  38.837  14.404
86092W        W58517   8.715  44.427   4.325
86093W        W58518  29.429   3.842   1.435
86094W        W58519   5.736  34.978   4.756
86095W        W58520   7.191  42.477   2.862
86096W        W58521  17.638   0.338  11.889
86097W        W58522   4.250  40.455  13.329
86098W        W58523  35.586  30.437  13.970
86099W        W58524  34.009   0.867  12.871
86100W        W58525  17.290   8.331   0.437
86101W        W58526  22.507  19.766  13.945
86102W        W58527  20.192  40.530   0.946
86103W        W58528  26.532  11.702   0.937
86104W        W58529  29.969   2.825   4.114
86105W        W58530   7.382   3.217   0.458
86106W        W58531  37.511   3.850  10.915
86107W        W58532  28.653  30.114  14.337
86108W        W58533  39.535  21.573  11.606
86109W        W58534   5.205   4.759   1.291
86110W        W58535  14.180  11.750   3.807
86111W        W58536  12.345  10.261  12.085
86112W        W58537   8.688   9.377   2.804
86113W        W58538  29.959  13.784   1.352
86114W        W58539  29.138   2.935  12.010
86115W        W58540  19.044  15.729  12.936
86116W        W58541  41.370  43.848  12.041
86117W        W58542  19.104  22.052   4.278
86118W        W58543  34.406  36.561   2.833
86119W        W58544  42.993  38.921  14.008
86120W        W58545   9.682  40.969  12.079
86121W        W58546  35.026  37.384  14.283
86122W        W58547  21.622  26.055  13.870
86123W        W58548  19.255  44.279   0.455
86124W        W58549  13.169   8.659  11.983
86125W        W58550  31.403  35.892  13.474
86126W        W58551  15.292   2.354  10.507
86127W        W58552  41.849  10.191  13.834
86128W        W58553   2.261  41.873  14.831
86129W        W58554  39.024  20.624  12.453
86130W        W58555  33.948  18.657  12.359
86131W        W58556  35.951  42.312   1.804
86132W        W58557   7.860   7.230  12.012
86133W        W58558  28.041   8.287  11.044
86134W        W58559  24.133  22.091  10.948
86135W        W58560  34.466  30.569  10.892
86136W        W58561   1.312  13.813   3.297
86137W        W58562  33.591   2.374  12.939
86138W        W58563  44.004  25.985   1.416
86139W        W58564  12.350   9.152   2.250
86140W        W58565   5.696  12.128  11.931
86141W        W58566  10.774  39.489   1.279
86142W        W58567  20.050  38.381   0.921
86143W        W58568   0.774   2.287   2.866
86144W        W58569  41.820   0.355  12.924
86145W        W58570  16.126  20.033  12.481
86146W        W58571  24.722  42.503  12.404
86147W        W58572  31.916  42.973   1.840
86148W        W58573  38.982   1.297  10.510
86149W        W58574  13.181  14.694   4.696
86150W        W58575  33.080   5.246  14.294
86151W        W58576  11.688  27.177   4.814
86152W        W58577  35.046   5.411  11.531
86153W        W58578  10.804   8.791   4.639
86154W        W58579   6.805   2.910   1.794
86155W        W58580  34.044   7.262  11.961
86156W        W58581  32.130  18.178   5.095
86157W        W58582  40.051   1.954   2.271
86158W        W58583   3.273   9.852  11.469
86159W        W58584  42.801  15.141   1.286
86160W        W58585  10.261   2.740  10.979
86161W        W58586   2.760   8.732   0.847
86162W        W58587  22.564   8.355   3.266
86163W        W58588  23.545  13.823   2.302
86164W        W58589  38.977  44.504   3.172
86165W        W58590  29.472  44.396   2.317
86166W        W58591   6.735  35.408  10.889
86167W        W58592  41.925   0.360   0.867
86168W        W58593  42.980  13.173   3.200
86169W        W58594  26.959  21.662   0.928
86170W        W58595  27.027   2.330  10.930
86171W        W58596  42.843  41.505   1.407
86172W        W58597  19.054  10.310  11.407
86173W        W58598  13.239   6.398   1.911
86174W        W58599  40.307  41.422   2.195
86175W        W58600  14.300   1.937  13.355
86176W        W58601  44.397  31.464  12.520
86177W        W58602  35.058  27.087  14.319
86178W        W58603  41.040  19.075  10.466
86179W        W58604  19.164  40.345  12.495
86180W        W58605  40.802   7.794  14.277
86181W        W58606  31.965   9.887  14.388
86182W        W58607  19.059   9.870   2.730
86183W        W58608  20.149   5.875   1.242
86184W        W58609  22.690  36.517  14.910
86185W        W58610   2.304  36.074  13.480
86186W        W58611  20.615  31.443   3.681
86187W        W58612  17.665   3.896   2.829
86188W        W58613  15.313   7.276  13.493
86189W        W58614  21.699  16.198  14.403
86190W        W58615  16.642  37.443  10.956
86191W        W58616  43.902  24.717   3.339
86192W        W58617  13.807  10.858   4.631
86193W        W58618  11.705  23.549  13.813
86194W        W58619  14.743  25.503   0.812
86195W        W58620  15.287   4.291  13.824
86196W        W58621  28.987  37.354  12.465
86197W        W58622  31.077  33.400   2.206
86198W        W58623   0.807   7.805   2.223
86199W        W58624  25.006   3.271  14.828
86200W        W58625  32.951   4.416  12.382
86201W        W58626  39.319  41.840   0.300
86202W        W58627  15.647   5.262   3.799
86203W        W58628  24.586   2.895  14.397
86204W        W58629   1.306   5.429   4.347
86205W        W58630  43.784  19.221   3.280
86206W        W58631  23.117   9.169  13.483
86207W        W58632  34.595  12.842   4.704
86208W        W58633  20.522  21.655   4.737
86209W        W58634  37.582  17.555   4.825
86210W        W58635  43.285  39.976   4.353
86211W        W58636  30.453   8.338  12.552
86212W        W58637  41.971  19.108  14.793
86213W        W58638  42.421   1.367   2.812
86214W        W58639  18.678  40.502   2.415
86215W        W58640   8.292  34.964  14.898
86216W        W58641   0.278  41.040  10.554
86217W        W58642   0.321   8.896  13.469
86218W        W58643  33.482  35.014   3.809
86219W        W58644  22.688  36.071   4.692
86220W        W58645  44.824  16.083   3.719
86221W        W58646   8.686  17.114  13.796
86222W        W58647  12.315  20.134   4.226
86223W        W58648   6.809  32.960  12.987
86224W        W58649  26.002  36.364   0.905
86225W        W58650   6.740  35.040  13.840
86226W        W58651  17.660  39.820  14.840
86227W        W58652   4.365  11.818  13.538
86228W        W58653  21.747  18.564   4.798
86229W        W58654  44.335  34.542   4.124
86230W        W58655  10.839  38.331  10.947
86231W        W58656  27.537   3.264   3.338
86232W        W58657  40.430  15.824   3.279
86233W        W58658  29.957  38.435   2.264
86234W        W58659   1.944   8.295  10.574
86235W        W58660  15.625   2.910  13.005
86236W        W58661  15.627  12.183   2.759
86237W        W58662   5.723  30.145   3.790
86238W        W58663  15.777  17.587  11.599
86239W        W58664  36.347  19.671   3.368
86240W        W58665   1.305   2.321  13.869
86241W        W58666  12.275  44.762   4.831
86242W        W58667  26.647  37.403   3.692
86243W        W58668  13.787  17.096   4.225
86244W        W58669  19.047  30.098  12.950
86245W        W58670  36.088  15.283   0.418
86246W        W58671  44.355  44.329  12.911
86247W        W58672   3.733  32.436   0.299
86248W        W58673  37.012  28.613  13.049
86249W        W58674  29.112  18.633   3.671
86250W        W58675  20.758  16.659   0.962
86251W        W58676  44.260  28.165  11.094
86252W        W58677  33.486   8.669  10.554
86253W        W58678  18.556   3.329   3.827
86254W        W58679  12.652  35.931  10.486
86255W        W58680  18.053   7.673  14.386
86256W        W58681  42.857   6.354  11.055
86257W        W58682   1.367  39.857   2.862
86258W        W58683  28.149  32.570   0.745
86259W        W58684  10.823   5.872   2.333
86260W        W58685   4.419  25.591   4.827
86261W        W58686  22.189  35.093  11.099
86262W        W58687  12.639  28.509  13.501
86263W        W58688  25.709  42.955   1.928
86264W        W58689  15.090  23.029   4.821
86265W        W58690  41.525   2.738   1.896
86266W        W58691   4.307  31.449   4.115
86267W        W58692  18.153  20.114  14.899
86268W        W58693  23.615  13.336   0.780
86269W        W58694  36.428  27.465   4.255
86270W        W58695  22.572  37.889  11.410
86271W        W58696   5.244  20.594  10.462
86272W        W58697  14.145   0.255   0.813
86273W        W58698  28.983  41.511   3.368
86274W        W58699  34.380   2.850   3.662
86275W        W58700  17.634  11.344  12.546
86276W        W58701  22.662  35.914   1.387
86277W        W58702  43.878  25.021   2.222
86278W        W58703  21.740  35.466  12.021
86279W        W58704  27.653  17.764   3.760
86280W        W58705   4.449  19.684  11.411
86281W        W58706  21.590  31.070   0.246
86282W        W58707  15.257  35.942   0.396
86283W        W58708   6.300   2.893   3.355
86284W        W58709  15.736  31.046   4.298
86285W        W58710   1.876  13.610   2.718
86286W        W58711  34.887  18.203   5.142
86287W        W58712  29.053  38.049  11.505
86288W        W58713   4.340  21.535  13.369
86289W        W58714  10.359  36.879   3.274
86290W        W58715  34.396   5.430   4.212
86291W        W58716  37.996  39.358   4.196
86292W        W58717   1.420  38.870  12.558
86293W        W58718  34.560  30.124  13.424
86294W        W58719   7.852   5.435  10.405
86295W        W58720   2.257  25.683   0.446
86296W        W58721  41.818  35.385   1.832
86297W        W58722  43.375   4.892   3.177
86298W        W58723   3.878   7.795  13.799
86299W        W58724  29.426  32.994   9.965
86300W        W58725  41.959   8.860   3.305
86301W        W58726   4.416   8.855   0.748
86302W        W58727  17.563  35.883   3.211
86303W        W58728  32.071   0.879  12.444
86304W        W58729   2.378  12.280  10.526
86305W        W58730  33.405  17.674   0.387
86306W        W58731   9.766  11.796  11.501
86307W        W58732  13.309  15.310   4.233
86308W        W58733  31.587   9.370  12.059
86309W        W58734   9.394  16.751  11.564
86310W        W58735  14.596   4.903  10.441
86311W        W58736  16.174  29.086  13.354
86312W        W58737  30.937  27.981   2.275
86313W        W58738  17.094  29.115  11.555
86314W        W58739  20.178  17.635  13.016
86315W        W58740  19.239  30.987  13.879
86316W        W58741  33.461   2.894  11.899
86317W        W58742  10.276  16.129  11.577
86318W        W58743  20.180  23.062  11.428
86319W        W58744  22.995   3.333   3.373
86320W        W58745   5.359  44.791   3.332
86321W        W58746  35.522   6.833  11.920
86322W        W58747  22.201   7.332   1.382
86323W        W58748  24.674  28.994  14.774
86324W        W58749  31.437  14.596   0.886
86325W        W58750  43.990  11.244   0.776
86326W        W58751   7.228  36.414  11.087
86327W        W58752  39.847  33.520   3.717
86328W        W58753  26.532  36.552  10.613
86329W        W58754  29.571  28.058  11.871
86330W        W58755   2.762  36.078   0.452
86331W        W58756  10.311   8.842  14.954
86332W        W58757   4.316  37.556   4.677
86333W        W58758   6.371  30.089   0.894
86334W        W58759   7.797  10.770   0.347
86335W        W58760  13.239  26.581   0.958
86336W        W58761   8.264  22.046   2.708
86337W        W58762   1.250  22.675   2.194
86338W        W58763  12.686  39.841  10.483
86339W        W58764  42.400  41.004  12.346
86340W        W58765  15.256  34.932   3.693
86341W        W58766  41.398  10.230  13.917
86342W        W58767  30.072  19.255   3.149
86343W        W58768  24.096  27.085  11.050
86344W        W58769  23.214  31.970   3.182
86345W        W58770  30.040  38.478  14.930
86346W        W58771   4.833  11.355  10.408
86347W        W58772  34.037   0.974  11.014
86348W        W58773  19.275  32.491   3.855
86349W        W58774  21.126  21.095  11.465
86350W        W58775  29.134  40.803   4.260
86351W        W58776  39.936   5.852   2.357
86352W        W58777  27.488  27.064  10.931
86353W        W58778  35.076  10.736  12.996
86354W        W58779  13.708  24.687  13.373
86355W        W58780  43.420  25.204   5.158
86356W        W58781  34.586  29.099   3.149
86357W        W58782  28.159  37.356   4.831
86358W        W58783  29.171  12.693   0.728
86359W        W58784  16.216  31.112   5.188
86360W        W58785  15.211   1.437  12.377
86361W        W58786   0.748  20.133   1.442
86362W        W58787  33.987  34.604   3.654
86363W        W58788  13.318   4.707  10.100
86364W        W58789  25.172  35.455   3.831
86365W        W58790   3.455  40.852   2.772
86366W        W58791  36.928  43.859   4.155
86367W        W58792  38.875  27.019   4.128
86368W        W58793   0.453  23.695  11.076
86369W        W58794  20.203  11.185  10.614
86370W        W58795  43.849  21.616   2.185
86371W        W58796  42.327  27.184  12.975
86372W        W58797  35.964  41.877   5.097
86373W        W58798  12.625  21.667   1.249
86374W        W58799  39.953   9.786  11.455
86375W        W58800  25.689   3.730  12.373
86376W        W58801   8.345  11.289   1.768
86377W        W58802  40.941  31.621   1.896
86378W        W58803   8.390   4.932   2.326
86379W        W58804  31.543  19.770   4.631
86380W        W58805   9.309  39.040  11.481
86381W        W58806  18.211  13.632  13.481
86382W        W58807  40.347  40.909  11.905
86383W        W58808  35.041  23.059   1.785
86384W        W58809  12.745   8.363  10.612
86385W        W58810  22.224  44.315  10.579
86386W        W58811  28.596  14.173  13.953
86387W        W58812  19.744  13.301  11.001
86388W        W58813  31.947   3.262  11.540
86389W        W58814  12.201  36.859   4.301
86390W        W58815  21.693  22.040  11.589
86391W        W58816  23.076   2.953  11.410
86392W        W58817  25.557  29.073  14.464
86393W        W58818  13.216  26.520  11.976
86394W        W58819  17.563  31.437   1.923
86395W        W58820  12.634   8.196   2.719
86396W        W58821  37.517   8.324   3.267
86397W        W58822  37.898   7.811   2.791
86398W        W58823  27.650  36.970   4.702
86399W        W58824  33.927   5.907  14.916
86400W        W58825  37.841  23.640  13.855
86401W        W58826  36.554  21.091  11.001
86402W        W58827   2.470  17.626  14.894
86403W        W58828  40.940  23.092  10.517
86404W        W58829  30.452  25.066  14.980
86405W        W58830  30.966  14.671   0.829
86406W        W58831   0.845   2.862  13.314
86407W        W58832  35.911  10.716  10.968
86408W        W58833   2.341   4.334   3.802
86409W        W58834  19.087  31.064  10.579
86410W        W58835  43.326   8.379   4.305
86411W        W58836  23.685  10.823  11.014
86412W        W58837  43.489  32.920  10.508
86413W        W58838  25.539  38.951  11.980
86414W        W58839  27.676  19.090   1.445
86415W        W58840  27.448  15.662  10.516
86416W        W58841   6.389   8.890   3.702
86417W        W58842  35.937  20.550   0.368
86418W        W58843   3.255   0.877   1.339
86419W        W58844  24.572  26.113   2.862
86420W        W58845  26.511  41.366  10.911
86421W        W58846  15.154  37.965   2.300
86422W        W58847  19.126  27.666  13.044
86423W        W58848  28.672  43.781  14.805
86424W        W58849  43.934  42.321  13.510
86425W        W58850  33.128   2.440  14.020
86426W        W58851  13.617  32.399  10.553
86427W        W58852  20.586  32.511   1.715
86428W        W58853  43.324  29.552   2.182
86429W        W58854  42.486   2.954   4.240
86430W        W58855  27.675  35.916   1.842
86431W        W58856   2.954  42.867   3.314
86432W        W58857  14.725  28.669  10.627
86433W        W58858  22.221  30.584  12.539
86434W        W58859   0.962   7.171   1.920
86435W        W58860   0.418  44.837   3.373
86436W        W58861  34.055  15.123  14.792
86437W        W58862  40.482  29.126  10.123
86438W        W58863  33.607  16.181  14.993
86439W        W58864  19.265  33.964  12.450
86440W        W58865  17.732  18.705  10.984
86441W        W58866  17.683  19.750  10.429
86442W        W58867  44.845  32.897  14.007
86443W        W58868  31.144  41.891  11.954
86444W        W58869  23.131  33.983   2.285
86445W        W58870  39.399   6.406   1.333
86446W        W58871  40.957  19.613   3.680
86447W        W58872  43.467  20.047  14.809
86448W        W58873  24.980  37.423   2.848
86449W        W58874  40.988   2.767  10.551
86450W        W58875  31.112  27.603   2.881
86451W        W58876  43.479   8.365   0.358
86452W        W58877  36.527  10.343   0.952
86453W        W58878  24.608  24.663   2.261
86454W        W58879  30.920  25.656   1.800
86455W        W58880   7.740  36.877  10.916
86456W        W58881  25.164   7.893   3.262
86457W        W58882   7.878  10.270  14.907
86458W        W58883  32.578  16.149  13.008
86459W        W58884  18.663  36.876  13.523
86460W        W58885  31.563  35.396  11.117
86461W        W58886   4.749   5.735  13.916
86462W        W58887  38.480   2.452  11.015
86463W        W58888  25.535  15.323  13.872
86464W        W58889  16.707  40.488   1.718
86465W        W58890  32.548  23.698  13.473
86466W        W58891  40.494  29.527  10.449
86467W        W58892  26.098  13.622  14.982
86468W        W58893  33.940  27.038   4.634
86469W        W58894  28.090  39.351  13.441
86470W        W58895  12.314  19.144  11.601
86471W        W58896  23.082  12.142   1.892
86472W        W58897  41.319  20.601  14.031
86473W        W58898  28.012  36.465  12.526
86474W        W58899   6.216  18.555   3.691
86475W        W58900  31.561  42.853  14.359
86476W        W58901   1.317  18.719   4.134
86477W        W58902  30.604  44.366   2.261
86478W        W58903  23.060  29.978   4.670
86479W        W58904  15.805  36.052   3.214
86480W        W58905  40.476   2.966   4.273
86481W        W58906  27.579   3.924  10.618
86482W        W58907  44.474   1.464  10.580
86483W        W58908  29.443   8.220  11.895
86484W        W58909  11.249  27.037   2.795
86485W        W58910  27.946   8.403   1.838
86486W        W58911  42.289  28.066   2.329
86487W        W58912  36.028  19.675   4.655
86488W        W58913  40.962  31.959  10.565
86489W        W58914  36.461  13.125   2.732
86490W        W58915   1.948  37.366   3.743
86491W        W58916  40.055  25.495  11.461
86492W        W58917  33.050  17.760  12.061
86493W        W58918  30.982  20.228  11.037
86494W        W58919  14.750  23.656  11.116
86495W        W58920  25.599   0.860  14.940
86496W        W58921   7.808  10.710  11.457
86497W        W58922  14.816  15.620   3.661
86498W        W58923  37.052  11.286  10.428
86499W        W58924  28.593  13.144   0.322
86500W        W58925  15.299  26.148   4.244
86501W        W58926   2.417   8.876   3.304
86502W        W58927  23.057  44.834   3.222
86503W        W58928  42.855  36.982  10.972
86504W        W58929  13.332  37.986  10.457
86505W        W58930   0.875  33.961  11.996
86506W        W58931  26.140  25.535  13.970
86507W        W58932   0.289  22.150   1.847
86508W        W58933   8.184   9.775   3.170
86509W        W58934  11.320  16.317   1.784
86510W        W58935  44.832  22.010  11.469
86511W        W58936  22.564  30.935   4.830
86512W        W58937  31.034  33.880  12.932
86513W        W58938  16.625  38.542   0.891
86514W        W58939   6.886  12.748  10.497
86515W        W58940  24.003  19.156   2.875
86516W        W58941  25.139  24.989   2.839
86517W        W58942  44.888  26.143  13.051
86518W        W58943  11.346  34.433  11.410
86519W        W58944  25.698  27.035   2.255
86520W        W58945   7.845  32.078  10.137
86521W        W58946   4.883  24.487   3.838
86522W        W58947  19.713  24.208   3.640
86523W        W58948  27.004  30.120  14.973
86524W        W58949  26.604  36.921   4.802
86525W        W58950  15.155  38.442   2.745
86526W        W58951   2.907   9.173   0.464
86527W        W58952   1.271  19.638   1.422
86528W        W58953  16.129  19.153   3.782
86529W        W58954  39.816   9.722  10.988
86530W        W58955  16.676   8.216  13.355
86531W        W58956  23.184   1.364  13.032
86532W        W58957  27.982  38.826  11.984
86533W        W58958  44.802   2.935   2.686
86534W        W58959  41.442  43.834   1.414
86535W        W58960   7.204  44.324  10.431
86536W        W58961  25.508  31.568  10.545
86537W        W58962  27.124  11.143   2.761
86538W        W58963  16.603   7.397   2.746
86539W        W58964  37.457  21.758  11.400
86540W        W58965  39.990  34.372  12.478
86541W        W58966  24.214  21.577   1.773
86542W        W58967  15.136   4.887   0.903
86543W        W58968  27.115  15.234  13.468
86544W        W58969  31.964  11.184  10.608
86545W        W58970  35.086  11.133  12.846
86546W        W58971   0.350   7.413  12.040
86547W        W58972  37.379  17.242   3.671
86548W        W58973  19.685   8.342  11.606
86549W        W58974   7.697   1.880  14.024
86550W        W58975  14.295  24.578   1.240
86551W        W58976  19.058  15.121  14.434
86552W        W58977  27.959  39.509  10.453
86553W        W58978  20.685  32.611  14.325
86554W        W58979  36.447   3.370  11.098
86555W        W58980  36.977  15.213  11.901
86556W        W58981  37.002  40.362   1.716
86557W        W58982  23.043  19.245   3.275
86558W        W58983  44.360  40.816  12.986
86559W        W58984  25.000   3.952   2.797
86560W        W58985  30.584  32.987   4.161
86561W        W58986   8.173   2.964  11.056
86562W        W58987  16.587  18.572  13.023
86563W        W58988   7.177  35.482  14.780
86564W        W58989  28.627  44.813  14.846
86565W        W58990  17.637  15.799   4.700
86566W        W58991  16.600  42.958   4.651
86567W        W58992  42.348   9.762   4.683
86568W        W58993  24.136  17.139  10.109
86569W        W58994   0.772  19.728  13.950
86570W        W58995  37.944  25.967  14.475
86571W        W58996  15.732  27.032  10.489
86572W        W58997  38.075  16.645  13.342
86573W        W58998  44.875  36.556   2.889
86574W        W58999  21.096  15.787   1.747
86575W        W59000  37.491  35.059  10.601
86576W        W59001  28.522  14.160  14.809
86577W        W59002   3.314  29.165  12.994
86578W        W59003  26.010   7.335  12.570
86579W        W59004   3.317  20.532  13.894
86580W        W59005  42.946  22.159  12.455
86581W        W59006  10.670  23.174  11.900
86582W        W59007   6.677  22.501   0.300
86583W        W59008  30.929  17.176  13.468
86584W        W59009  20.557  40.361   4.732
86585W        W59010  35.013  15.095  12.400
86586W        W59011  22.701  19.544  11.863
86587W        W59012  17.086  38.835  11.126
86588W        W59013  10.730   8.826   5.642
86589W        W59014  20.525  43.935  10.577
86590W        W59015  30.423  10.181  12.970
86591W        W59016  26.596  43.446  12.883
86592W        W59017  29.480  36.916   3.759
86593W        W59018  40.429  37.542  13.020
86594W        W59019  42.854  21.673  14.352
86595W        W59020   9.815  38.977   0.806
86596W        W59021  35.423  22.525  14.856
86597W        W59022  37.067  21.251   0.377
86598W        W59023  42.507  13.749  13.875
86599W        W59024   2.337  38.435   4.750
86600W        W59025  24.549  17.250  12.957
86601W        W59026  39.553  27.456   3.844
86602W        W59027   3.902  32.420   1.847
86603W        W59028   9.685  14.593  12.955
86604W        W59029  21.233  15.127   0.946
86605W        W59030  30.040  18.087   0.255
86606W        W59031   9.392  16.600  14.504
86607W        W59032  33.470  25.489  11.595
86608W        W59033  38.403  33.926  14.403
86609W        W59034   3.922  15.625  10.907
86610W        W59035   9.153   8.223  10.161
86611W        W59036   0.480  29.124  14.922
86612W        W59037   7.719  34.550   4.795
86613W        W59038   7.221  24.975  12.430
86614W        W59039   7.786  18.789  12.533
86615W        W59040  30.007  19.099   2.758
86616W        W59041  40.050  28.603  12.088
86617W        W59042   1.804  35.425   2.882
86618W        W59043  34.448  37.364   3.379
86619W        W59044  27.123  37.930  11.518
86620W        W59045  36.483  27.448   2.738
86621W        W59046  38.923  30.568   4.232
86622W        W59047  27.967   4.809  10.561
86623W        W59048  29.056   3.238   3.215
86624W        W59049   8.673  14.223  10.997
86625W        W59050  17.188   2.425   9.972
86626W        W59051  39.336  28.040  12.999
86627W        W59052  38.954  10.851  11.010
86628W        W59053  24.672  24.631  14.371
86629W        W59054  25.209   1.279   1.281
86630W        W59055  19.239  36.005   3.253
86631W        W59056   0.769   6.811   3.259
86632W        W59057  20.102  37.969   1.794
86633W        W59058   5.919  11.341  10.930
86634W        W59059  13.643  19.131   1.363
86635W        W59060  22.661   2.287   0.798
86636W        W59061   0.986  15.632  14.990
86637W        W59062  34.470   1.790   4.348
86638W        W59063  35.092   1.864   9.947
86639W        W59064  38.479  26.000  10.523
86640W        W59065  24.128  40.911   3.369
86641W        W59066  38.884  44.473  11.052
86642W        W59067  27.109   5.316   1.274
86643W        W59068  38.073   7.360   0.297
86644W        W59069   4.232  35.887  12.378
86645W        W59070   4.817   9.263   4.303
86646W        W59071  13.713   7.677   1.864
86647W        W59072   5.290   1.255   2.279
86648W        W59073  21.607   8.839   4.117
86649W        W59074  37.908   4.727   4.332
86650W        W59075  21.036   1.972  14.852
86651W        W59076   9.764   2.773  10.916
86652W        W59077   3.412  29.001   0.930
86653W        W59078  27.474  39.498  14.989
86654W        W59079  24.115  34.471  13.928
86655W        W59080  21.171   0.377   5.111
86656W        W59081  37.970  30.018   0.759
86657W        W59082  36.942   5.890   4.314
86658W        W59083  25.602  26.146  14.456
86659W        W59084  37.422  40.984   4.352
86660W        W59085  29.111  27.041   0.810
86661W        W59086  43.994  27.126  12.339
86662W        W59087  20.582  18.556  14.886
86663W        W59088   3.892  26.627   4.296
86664W        W59089  24.544  42.928   5.322
86665W        W59090  23.701   8.883  11.017
86666W        W59091  38.004  32.621  13.802
86667W        W59092  35.899  20.199   3.245
86668W        W59093  12.329  13.843  14.282
86669W        W59094  41.484   6.260  14.515
86670W        W59095   4.357   5.430  11.420
86671W        W59096  35.415  19.197  12.525
86672W        W59097   9.777  25.126  12.478
86673W        W59098  39.510  24.664  11.449
86674W        W59099   1.738  44.354   3.709
86675W        W59100  23.076  28.018   1.281
86676W        W59101  37.462  36.898  10.450
86677W        W59102  18.720  12.652   1.842
86678W        W59103  19.196  34.373   1.742
86679W        W59104   7.742  38.968  12.499
86680W        W59105  22.151  34.416  14.818
86681W        W59106  25.485  20.522   2.303
86682W        W59107  22.687  39.832   0.783
86683W        W59108  40.372  28.545  14.827
86684W        W59109   3.836   9.242   0.402
86685W        W59110  17.685  30.037   2.395
86686W        W59111  17.250  26.127   4.199
86687W        W59112  31.538  18.140  11.125
86688W        W59113   2.336   4.936   4.355
86689W        W59114   9.386  25.588   3.218
86690W        W59115  11.143  18.763   1.817
86691W        W59116  11.669  14.811  14.948
86692W        W59117  29.454  12.846   4.214
86693W        W59118  37.529  35.989   2.262
86694W        W59119  36.519  33.092  12.385
86695W        W59120  32.005  32.482   3.735
86696W        W59121  30.105  10.257  13.487
86697W        W59122   2.935  26.576   5.306
86698W        W59123  10.324  14.246   0.935
86699W        W59124  40.026  16.310  12.355
86700W        W59125   8.722  21.181  11.477
86701W        W59126  31.940  14.189   2.680
86702W        W59127  25.472   1.432   1.776
86703W        W59128  32.470  29.973  11.469
86704W        W59129   1.421  34.559   0.829
86705W        W59130  34.446  30.451  11.979
86706W        W59131  11.349  41.877   0.964
86707W        W59132  37.927  31.455   0.387
86708W        W59133  31.907  35.357  14.767
86709W        W59134  19.726  18.589   0.440
86710W        W59135  31.140  17.252   4.251
86711W        W59136  11.800   4.836   3.774
86712W        W59137   4.783  24.633   1.249
86713W        W59138  13.831  41.478   3.776
86714W        W59139  33.007  21.553   3.795
86715W        W59140  26.673  27.049   0.911
86716W        W59141   1.762   8.689  12.364
86717W        W59142   9.335  18.163  12.831
86718W        W59143  23.160  37.924   2.705
86719W        W59144  15.107  40.002  14.933
86720W        W59145  23.101  40.998   2.702
86721W        W59146  26.526   2.405  12.353
86722W        W59147  25.683  43.298  14.970
86723W        W59148  23.070   6.413  13.406
86724W        W59149  31.470  13.188  12.567
86725W        W59150  39.458  41.474   3.743
86726W        W59151  34.515  44.898   3.647
86727W        W59152  10.838  24.548  10.513
86728W        W59153  43.504  35.545  11.436
86729W        W59154  10.702   9.207  13.501
86730W        W59155  11.679  39.507  13.827
86731W        W59156  26.152  42.464  14.511
86732W        W59157   9.841  28.637   3.179
86733W        W59158  14.116  23.185   3.204
86734W        W59159  21.671  35.554   4.229
86735W        W59160  28.148  34.040   1.375
86736W        W59161  30.420  36.363  12.910
86737W        W59162  42.855  36.009  10.134
86738W        W59163  35.422   8.173  12.849
86739W        W59164  20.556  38.885  14.991
86740W        W59165  38.482   2.451  14.442
86741W        W59166   5.296  24.491  13.476
86742W        W59167   2.907   3.364   1.739
86743W        W59168  11.277   7.783   9.608
86744W        W59169  42.906  36.399  12.003
86745W        W59170  35.944  23.497   9.960
86746W        W59171   6.288  21.132   3.207
86747W        W59172  22.665  34.047  10.469
86748W        W59173  31.562  39.556  10.601
86749W        W59174  32.888   6.771  10.640
86750W        W59175  33.087  11.313   4.687
86751W        W59176  18.654  33.955   4.655
86752W        W59177  26.531  15.777  14.275
86753W        W59178  11.224  11.360  14.955
86754W        W59179  31.052  16.798   4.215
86755W        W59180   3.733  23.153  15.000
86756W        W59181  29.984   1.894   2.762
86757W        W59182   6.295  41.352   0.301
86758W        W59183  33.595   5.246   1.291
86759W        W59184   1.953  21.231  14.434
86760W        W59185  18.280  21.657   2.370
86761W        W59186  12.239   5.722   1.786
86762W        W59187  38.446  36.413  10.472
86763W        W59188   1.769  26.504  14.807
86764W        W59189  27.161  21.606  12.892
86765W        W59190  36.008  39.559   2.411
86766W        W59191  30.046  23.583   1.406
86767W        W59192  33.445  25.085  11.611
86768W        W59193  12.829  32.432  11.102
86769W        W59194  33.498  26.188  10.601
86770W        W59195  42.452  43.953  11.905
86771W        W59196  32.028  38.559   2.276
86772W        W59197   5.738  37.034   5.717
86773W        W59198  10.191  10.685   4.312
86774W        W59199  11.351  20.242  14.490
86775W        W59200  36.942  38.449   1.813
86776W        W59201  37.892  26.532  12.884
86777W        W59202  37.413   4.226   0.744
86778W        W59203   6.283  11.755   2.286
86779W        W59204  31.455   9.243   0.897
86780W        W59205  39.377  32.124   0.348
86781W        W59206  19.200  43.378  14.912
86782W        W59207  31.017   6.419  10.620
86783W        W59208  42.901  12.327   1.726
86784W        W59209  27.146  27.545   3.316
86785W        W59210  43.860   4.810   0.478
86786W        W59211  44.410  44.793  14.997
86787W        W59212  36.415   4.934  14.813
86788W        W59213  23.706  27.559  10.995
86789W        W59214  25.027   4.450   4.273
86790W        W59215  33.903   3.862   0.843
86791W        W59216  39.342  42.448  12.906
86792W        W59217  44.262   0.799   2.878
86793W        W59218  17.670  13.610  10.970
86794W        W59219  31.608  22.745   4.277
86795W        W59220  31.910  18.149   3.674
86796W        W59221  25.484  39.332   2.185
86797W        W59222  15.632   4.712   3.706
86798W        W59223   9.260  12.148  11.921
86799W        W59224  32.069  32.918  12.075
86800W        W59225   8.830  23.202  10.555
86801W        W59226  38.869  10.651  10.478
86802W        W59227  13.655   9.183  14.849
86803W        W59228  20.742  38.978  11.898
86804W        W59229  23.491  18.644   1.868
86805W        W59230  39.484  27.550   1.349
86806W        W59231  40.484  23.131   2.276
86807W        W59232  28.649   6.248   0.316
86808W        W59233  20.211  28.441   3.863
86809W        W59234  32.598  35.391   0.924
86810W        W59235  44.498  26.150  13.810
86811W        W59236  13.639  27.107  11.123
86812W        W59237   5.776  16.098  12.958
86813W        W59238  23.985  23.628   3.361
86814W        W59239  36.530  35.599  11.920
86815W        W59240   7.225  29.946  14.840
86816W        W59241  41.941   5.861   2.708
86817W        W59242   2.249   3.303   2.836
86818W        W59243  24.092   1.976  14.474
86819W        W59244  21.571  18.639  12.009
86820W        W59245  23.994   3.956   4.195
86821W        W59246  25.080   9.768  12.477
86822W        W59247   0.298  41.297   3.854
86823W        W59248  12.689  14.764   3.371
86824W        W59249  11.143  41.934  14.778
86825W        W59250  27.686  35.380  12.409
86826W        W59251   6.842  43.449  12.011
86827W        W59252  19.553  22.194   0.910
86828W        W59253   6.251   9.194   0.834
86829W        W59254  21.096  38.488  14.939
86830W        W59255   2.816   5.689   1.865
86831W        W59256  18.066   2.299  14.918
86832W        W59257  41.482  13.294  14.810
86833W        W59258  36.028   9.715   2.202
86834W        W59259  41.017  41.509  14.765
86835W        W59260  40.355  40.472   1.769
86836W        W59261  28.521   0.970   2.780
86837W        W59262   7.390  14.822   2.693
86838W        W59263  14.094  12.676  14.475
86839W        W59264  14.821  22.516  14.871
86840W        W59265  36.347  12.661  14.915
86841W        W59266   8.733  36.485   4.238
86842W        W59267  41.293   9.855  13.866
86843W        W59268   5.826  28.569   4.172
86844W        W59269  23.109   4.909   1.245
86845W        W59270  44.995   9.672  12.008
86846W        W59271   4.429  29.572  11.427
86847W        W59272  34.904  28.524  11.535
86848W        W59273  35.032  29.504   0.856
86849W        W59274  29.500   8.232  10.499
86850W        W59275  10.321  38.852  13.921
86851W        W59276  29.589  26.618   2.789
86852W        W59277  42.385  13.729  11.401
86853W        W59278   5.703  36.991   3.250
86854W        W59279  28.137   5.931  10.511
86855W        W59280   7.886  38.440  12.558
86856W        W59281  21.066  37.568  10.644
86857W        W59282  42.904  28.952   2.394
86858W        W59283  26.166   4.393  14.372
86859W        W59284  10.710   4.436   3.679
86860W        W59285  34.884  30.593  11.613
86861W        W59286  20.535  30.584   2.755
86862W        W59287  44.491  10.331  14.362
86863W        W59288   7.260  26.591   1.438
86864W        W59289   2.820  28.490  12.456
86865W        W59290  12.814  39.857  14.873
86866W        W59291  17.801  18.195   1.841
86867W        W59292   6.333   7.744  14.873
86868W        W59293  28.180  16.234  13.002
86869W        W59294  25.619  39.942   3.860
86870W        W59295  29.999   1.439  13.366
86871W        W59296  35.006  38.507   4.724
86872W        W59297  26.965   9.286   4.316
86873W        W59298  23.163  39.968  12.855
86874W        W59299   4.752  31.007   2.878
86875W        W59300   1.325  20.168   1.284
86876W        W59301  10.688  20.727  10.991
86877W        W59302   4.258   6.847   3.193
86878W        W59303  20.593  20.761   3.765
86879W        W59304  44.421   7.849  10.571
86880W        W59305  22.060  14.796   1.405
86881W        W59306  16.625  39.882  14.450
86882W        W59307  36.491  37.868  12.925
86883W        W59308  27.499  33.486   5.673
86884W        W59309  36.852  10.755  10.454
86885W        W59310  22.722   6.793   2.248
86886W        W59311  15.213  38.381  10.604
86887W        W59312  15.295  41.313   4.768
86888W        W59313  19.695  35.049   2.191
86889W        W59314  42.909  37.368  11.600
86890W        W59315   0.865  16.145   0.842
86891W        W59316  10.160   9.799  10.963
86892W        W59317   3.921  36.969  14.421
86893W        W59318  13.801  14.130   1.359
86894W        W59319  21.538  41.814   1.248
86895W        W59320   6.216  31.542   1.832
86896W        W59321  11.192  15.266   4.650
86897W        W59322   9.287  26.625   1.873
86898W        W59323  29.081  36.535   2.874
86899W        W59324   3.896   8.223   1.868
86900W        W59325  15.177  23.507   0.482
86901W        W59326   1.751  29.638   3.866
86902W        W59327  16.616  16.672   0.891
86903W        W59328  39.523  31.987  11.037
86904W        W59329  40.359  43.516   3.292
86905W        W59330  19.743  26.092  10.527
86906W        W59331   6.710   5.374  11.902
86907W        W59332  39.529  41.040   2.343
86908W        W59333  16.757  35.063   4.818
86909W        W59334  36.396  18.699   1.314
86910W        W59335  14.808   7.898  13.355
86911W        W59336   4.933  41.399   4.136
86912W        W59337  27.156   0.782  13.942
86913W        W59338   2.846  24.005  10.484
86914W        W59339   7.812  25.197   3.644
86915W        W59340  29.021  42.499  11.989
86916W        W59341  30.119  17.735   2.358
86917W        W59342   6.709  18.772   3.866
86918W        W59343  35.031   8.241  11.435
86919W        W59344  27.950  26.492   1.334
86920W        W59345  32.123  24.595  14.330
86921W        W59346  31.996  26.505   4.811
86922W        W59347  40.388  30.477  13.338
86923W        W59348  20.602   0.830   1.714
86924W        W59349  40.045  10.722   0.345
86925W        W59350  30.138  22.024  11.479
86926W        W59351  21.220  40.896   3.749
86927W        W59352  30.916   3.220  11.946
86928W        W59353  28.584   1.758   0.474
86929W        W59354  35.519  11.711  14.863
86930W        W59355  17.764  44.773   9.961
86931W        W59356   9.869  35.434  14.004
86932W        W59357  15.696  28.026  11.562
86933W        W59358  35.042   5.219   2.795
86934W        W59359  13.768   1.320  14.030
86935W        W59360  40.448  26.206  14.821
86936W        W59361  36.412  37.894  13.964
86937W        W59362  29.988  38.857   1.332
86938W        W59363  27.162  23.042   3.178
86939W        W59364  22.074  42.486  11.482
86940W        W59365  13.631   0.837   2.666
86941W        W59366  41.377  26.558   0.340
86942W        W59367  14.640  39.465  14.913
86943W        W59368   3.360  12.263   1.239
86944W        W59369  28.014  24.004  10.995
86945W        W59370  30.030  18.260   3.334
86946W        W59371  27.101  43.431   0.406
86947W        W59372  27.583  20.543   4.789
86948W        W59373  24.079   9.167  14.478
86949W        W59374  18.751  33.984  13.481
86950W        W59375  28.462  26.552  11.926
86951W        W59376   6.348  37.927   3.641
86952W        W59377  25.006  24.057  13.516
86953W        W59378  35.566  31.625   3.714
86954W        W59379   3.717  18.619   4.126
86955W        W59380  41.497  36.033  13.970
86956W        W59381  16.698   3.754  11.938
86957W        W59382  30.016  12.203   1.214
86958W        W59383  37.040  25.003  13.821
86959W        W59384  37.844  13.152  11.578
86960W        W59385  43.006  31.994   5.246
86961W        W59386  18.705  17.234  10.432
86962W        W59387  19.572  22.168  11.967
86963W        W59388  13.725  39.459   2.766
86964W        W59389  27.066  15.191  10.569
86965W        W59390  38.391  29.083   0.448
86966W        W59391  28.545  10.671   4.282
86967W        W59392  42.822  32.459  11.573
86968W        W59393  15.191  43.431   2.313
86969W        W59394  14.194  37.081   2.310
86970W        W59395   1.449  16.571  13.501
86971W        W59396  14.734  25.659  14.382
86972W        W59397  43.950  25.534  12.022
86973W        W59398  10.208   6.255   9.965
86974W        W59399  41.832  29.162  12.060
86975W        W59400  24.680  43.832  14.422
86976W        W59401  42.781   3.325  10.476
86977W        W59402  34.557  18.547  12.974
86978W        W59403  10.378  30.650  11.431
86979W        W59404  42.341   6.359  12.501
86980W        W59405  14.143  19.643   1.265
86981W        W59406  38.901  19.155   0.803
86982W        W59407  19.550  23.630  10.541
86983W        W59408  12.810   8.734   2.876
86984W        W59409  28.021  22.242  13.544
86985W        W59410  30.468  39.883  11.940
86986W        W59411  21.585   3.324   0.812
86987W        W59412  29.098  14.253  11.501
86988W        W59413   1.279  19.098  14.971
86989W        W59414  36.471  21.205   4.171
86990W        W59415   6.770  35.555   3.167
86991W        W59416   7.241  20.705   4.721
86992W        W59417  43.446  15.687   5.205
86993W        W59418  31.534  17.282  14.948
86994W        W59419   9.847  26.163   0.846
86995W        W59420  12.355  26.630   4.141
86996W        W59421  22.685   6.682  11.519
86997W        W59422  11.786   3.368  10.566
86998W        W59423  44.955   8.381  10.434
86999W        W59424  10.870  17.749  14.336
87000W        W59425  44.896   3.784  11.037
87001W        W59426  32.619   1.375   3.253
87002W        W59427  24.157  27.593   1.714
87003W        W59428  18.590  31.074   1.393
87004W        W59429  20.573   8.196  13.037
87005W        W59430   5.197  24.124   2.778
87006W        W59431  28.499  34.993  10.565
87007W        W59432  19.775  25.119  10.594
87008W        W59433  29.554  27.596  12.035
87009W        W59434  28.069   8.720   5.204
87010W        W59435  27.616  17.185   2.255
87011W        W59436   0.248  11.624  11.115
87012W        W59437  12.281  43.323  12.996
87013W        W59438  15.134   6.678  13.392
87014W        W59439   5.284  30.482   5.084
87015W        W59440   2.948  31.110   1.431
87016W        W59441   9.801  29.506   4.250
87017W        W59442   0.401  17.139  13.998
87018W        W59443   5.773   7.273   1.903
87019W        W59444  23.528  34.880  12.474
87020W        W59445  35.535  34.115  11.506
87021W        W59446  26.672  30.133  13.413
87022W        W59447  32.120  34.991  12.528
87023W        W59448  44.431  43.817   2.740
87024W        W59449   2.781  44.793   0.842
87025W        W59450  37.062   3.302  11.076
87026W        W59451  21.542   2.727   1.426
87027W        W59452  13.789  25.684  11.373
87028W        W59453  10.203   3.906  10.949
87029W        W59454  42.285  38.354  14.031
87030W        W59455   0.788  15.184   3.826
87031W        W59456  10.201  10.312   3.824
87032W        W59457  31.986   9.689  12.372
87033W        W59458   2.767  38.508   3.296
87034W        W59459   0.290   9.811  13.826
87035W        W59460   0.455  31.134   2.771
87036W        W59461  44.887   0.494  14.491
87037W        W59462  44.006   5.910   3.811
87038W        W59463  18.116   5.813  11.551
87039W        W59464  37.952   9.721  11.412
87040W        W59465  26.547  43.920   2.697
87041W        W59466   7.852  43.899   1.777
87042W        W59467  41.488  26.002  12.866
87043W        W59468   0.914  27.445   1.703
87044W        W59469  18.720  15.317   0.271
87045W        W59470   3.722  21.733   4.784
87046W        W59471  27.020   7.287   9.958
87047W        W59472  19.100  36.980  13.349
87048W        W59473   1.817  24.193  14.849
87049W        W59474  17.748  38.901   1.830
87050W        W59475   0.847  25.982  12.037
87051W        W59476   2.736   5.411   4.338
87052W        W59477  15.272  23.567   1.407
87053W        W59478  14.835  35.413  14.782
87054W        W59479   5.716   8.354   3.681
87055W        W59480  25.184  34.077  14.302
87056W        W59481   7.716  37.906   3.158
87057W        W59482  14.819  17.230  14.429
87058W        W59483  44.924  21.539   3.155
87059W        W59484   8.736   3.772  14.840
87060W        W59485  11.637   6.791   5.291
87061W        W59486   7.273   1.297   0.797
87062W        W59487  30.090  41.348  13.052
87063W        W59488  13.669  25.553   4.615
87064W        W59489  25.173  15.624   3.278
87065W        W59490   4.859   4.934   4.269
87066W        W59491  44.995  11.835   1.269
87067W        W59492  30.606  16.161   2.207
87068W        W59493   5.377   5.831   4.181
87069W        W59494  11.187   4.886   1.336
87070W        W59495  39.497  10.773   2.763
87071W        W59496  41.297  31.540  12.826
87072W        W59497   4.797  11.819   4.349
87073W        W59498   3.940   1.972  14.855
87074W        W59499  21.196  37.919  14.983
87075W        W59500  18.230  15.670   4.708
87076W        W59501  30.129  36.862   1.414
87077W        W59502   6.335   4.354  11.991
87078W        W59503  31.544  20.185   3.167
87079W        W59504  26.008   5.351  12.454
87080W        W59505  37.514  20.201   2.760
87081W        W59506   0.817   6.214  13.847
87082W        W59507  35.913  14.193  10.625
87083W        W59508   5.254  41.321   0.734
87084W        W59509   9.248   0.317   3.211
87085W        W59510  19.591   8.182  12.350
87086W        W59511  19.155  37.398  11.431
87087W        W59512   6.262  16.260  11.926
87088W        W59513  25.554  23.997  11.467
87089W        W59514   3.854  15.786  13.956
87090W        W59515  41.510  44.294   0.944
87091W        W59516  24.657  12.257  10.533
87092W        W59517   4.354  19.636   2.255
87093W        W59518   0.894  38.507  11.910
87094W        W59519  25.705   4.763  12.013
87095W        W59520  20.630  42.997  11.091
87096W        W59521  17.070  23.593   1.327
87097W        W59522  12.767   5.888   2.269
87098W        W59523  25.514  36.092   4.710
87099W        W59524  28.167  17.609  10.483
87100W        W59525   0.778  11.147  12.379
87101W        W59526  42.801   2.771   3.809
87102W        W59527  37.365  14.333   2.202
87103W        W59528   1.261   1.912  14.926
87104W        W59529  43.986  29.561   2.233
87105W        W59530   8.174  40.492  12.031
87106W        W59531   5.303   6.250   0.758
87107W        W59532   6.867  16.591  13.975
87108W        W59533   7.329  44.882   1.353
87109W        W59534  13.327  13.344  14.907
87110W        W59535  40.918  24.994   5.097
87111W        W59536  24.167   1.412  10.487
87112W        W59537  24.690  33.611  11.876
87113W        W59538  28.979   6.919  11.016
87114W        W59539   2.265  38.032   2.321
87115W        W59540  10.867  34.498   3.645
87116W        W59541   4.782   2.452   0.773
87117W        W59542  27.664  22.247  10.629
87118W        W59543  30.100  28.043   4.242
87119W        W59544  14.639   5.396   0.827
87120W        W59545  40.833   5.694   1.917
87121W        W59546  28.988  24.992  13.846
87122W        W59547  35.937   1.755  13.506
87123W        W59548  18.078   2.296   0.334
87124W        W59549  43.359  22.628  10.927
87125W        W59550   5.768  16.145   3.214
87126W        W59551  21.569  28.502  13.886
87127W        W59552  32.476  21.115  12.059
87128W        W59553  41.955  33.395   1.251
87129W        W59554  39.456   7.796   4.619
87130W        W59555   0.899  37.538  10.941
87131W        W59556   5.410  10.791  14.399
87132W        W59557  31.578  41.928   1.316
87133W        W59558  35.044  19.536  12.937
87134W        W59559  22.143  25.968  12.448
87135W        W59560  12.626  38.852  14.997
87136W        W59561  19.190  18.052   1.920
87137W        W59562  39.996   6.188   0.484
87138W        W59563  35.086  22.648  13.979
87139W        W59564  27.055  18.669  14.897
87140W        W59565   7.730   7.229  12.972
87141W        W59566   4.819   0.357  12.496
87142W        W59567   5.818  41.410   0.879
87143W        W59568  19.064  39.026   1.296
87144W        W59569  21.248  40.001  12.971
87145W        W59570  30.953  32.486   0.818
87146W        W59571  39.511  44.958   1.327
87147W        W59572  17.668  22.721   1.379
87148W        W59573  18.672  23.235  12.018
87149W        W59574  19.627  35.538   3.304
87150W        W59575  17.676  44.861  13.380
87151W        W59576  35.505  34.586   4.176
87152W        W59577  25.689   1.911   4.285
87153W        W59578   5.792   4.774  12.038
87154W        W59579  18.595  44.938  14.842
87155W        W59580  19.742   9.785  11.940
87156W        W59581  10.301   8.339   2.700
87157W        W59582  11.731  35.027   2.846
87158W        W59583  15.197  10.338  11.494
87159W        W59584  21.099  26.603  11.044
87160W        W59585  40.307  19.116  13.924
87161W        W59586  42.404  30.929   1.711
87162W        W59587  40.315  22.085   4.343
87163W        W59588   0.329   3.390  14.972
87164W        W59589   8.692  34.433  12.911
87165W        W59590   5.326  26.041   4.752
87166W        W59591  24.709  41.512  10.603
87167W        W59592  26.951  41.413   3.325
87168W        W59593   3.751   6.774  13.968
87169W        W59594  32.912  32.135   0.280
87170W        W59595   6.738  25.677  13.362
87171W        W59596  34.032  27.544  13.351
87172W        W59597  23.525  41.318   4.753
87173W        W59598  41.411  10.637  12.826
87174W        W59599  39.819   5.318   0.918
87175W        W59600  37.836   2.410   3.288
87176W        W59601  34.578  15.811   2.312
87177W        W59602  17.181  38.977  14.002
87178W        W59603   4.749   3.353   2.349
87179W        W59604   2.803   0.980   0.252
87180W        W59605  31.551  22.635   0.269
87181W        W59606  12.697   9.161   4.683
87182W        W59607  42.897   0.768  10.424
87183W        W59608  42.390  11.694  12.049
87184W        W59609  11.857   0.794  13.987
87185W        W59610   7.189  40.898  14.372
87186W        W59611  44.929   7.371  12.989
87187W        W59612   4.840  21.142   5.214
87188W        W59613  22.072  34.865   0.348
87189W        W59614   1.821  27.120   3.263
87190W        W59615  23.988   4.869  10.962
87191W        W59616  37.067  26.487   3.720
87192W        W59617  30.926  21.693   4.763
87193W        W59618  33.523  18.285   0.756
87194W        W59619   2.941  40.960  13.490
87195W        W59620  24.035   7.337   1.215
87196W        W59621  39.402  21.232  13.546
87197W        W59622  15.614  40.825   3.841
87198W        W59623  26.490   7.189   4.138
87199W        W59624  17.801  42.363   1.780
87200W        W59625   9.366  12.338   3.160
87201W        W59626   7.384  12.287  12.970
87202W        W59627  36.402  39.819  13.393
87203W        W59628   0.953  30.649   0.264
87204W        W59629  28.561  37.564  10.888
87205W        W59630  43.308  39.470  11.032
87206W        W59631  15.691  30.938   4.637
87207W        W59632   6.214  18.269   3.354
87208W        W59633   7.716  28.624   3.861
87209W        W59634  24.171  32.939  13.960
87210W        W59635  41.419  38.532  14.016
87211W        W59636  25.976   5.709  10.935
87212W        W59637   2.956  34.396  13.423
87213W        W59638   7.681  43.515  10.447
87214W        W59639   1.948  38.023   2.899
87215W        W59640  36.539   7.178   4.118
87216W        W59641  27.486  21.701  14.345
87217W        W59642   5.311   1.923  13.360
87218W        W59643   9.776   4.339  11.483
87219W        W59644   5.372   0.458  13.435
87220W        W59645  19.066   0.776   2.401
87221W        W59646  25.543   1.940  14.031
87222W        W59647  12.712  40.340  13.988
87223W        W59648  17.123  17.290  12.969
87224W        W59649   0.935  41.908   2.310
87225W        W59650  14.306  38.856   2.892
87226W        W59651   1.773   1.861  11.568
87227W        W59652  12.170  34.007  13.529
87228W        W59653  36.562  18.693   2.412
87229W        W59654  14.693   2.436  11.109
87230W        W59655  12.621  14.646  12.993
87231W        W59656  27.120   9.395  12.847
87232W        W59657  43.970  13.338  10.893
87233W        W59658   8.286  31.593  14.002
87234W        W59659  31.963  20.244  13.358
87235W        W59660   3.230  12.802   2.360
87236W        W59661  27.972  32.003   1.824
87237W        W59662   7.358   4.718   0.869
87238W        W59663   5.766  41.951  11.897
87239W        W59664  23.505  27.565   1.831
87240W        W59665  42.447   3.425   3.216
87241W        W59666  24.715  36.020   3.174
87242W        W59667  38.475   8.309  11.947
87243W        W59668  24.638  20.248  13.791
87244W        W59669  20.579  19.658  14.019
87245W        W59670  22.113   4.441   4.629
87246W        W59671  32.603  34.051  11.502
87247W        W59672  24.637  10.212   3.715
87248W        W59673   1.365  38.335  12.946
87249W        W59674  34.049  20.069   3.773
87250W        W59675   2.455  11.782   0.830
87251W        W59676  44.880  16.620   0.939
87252W        W59677  27.526  33.115   4.247
87253W        W59678  18.134  42.404  11.997
87254W        W59679  43.992  11.793   0.757
87255W        W59680   9.166  38.073   2.662
87256W        W59681  42.302   4.443   2.191
87257W        W59682  28.079  11.722   5.291
87258W        W59683  33.892  44.477   0.745
87259W        W59684  13.795   1.244   2.826
87260W        W59685  16.242  33.395   1.291
87261W        W59686   4.237   2.835   3.730
87262W        W59687  41.861  12.703   0.243
87263W        W59688   1.844   6.356   2.328
87264W        W59689   8.258  39.834  13.831
87265W        W59690  40.969   5.434  11.122
87266W        W59691  41.848   0.904  10.098
87267W        W59692  42.444  35.449   4.283
87268W        W59693   0.371  18.190  11.113
87269W        W59694  14.762  12.857  11.934
87270W        W59695   6.900  18.171   2.698
87271W        W59696  13.604  30.658  11.510
87272W        W59697  20.573  22.224  13.042
87273W        W59698   3.380  16.212  10.428
87274W        W59699  20.060   1.886   1.761
87275W        W59700  21.518  33.454   0.416
87276W        W59701  28.978  22.730   1.796
87277W        W59702  22.586  37.429   1.222
87278W        W59703   2.358  29.952   2.679
87279W        W59704  25.479  42.016  12.546
87280W        W59705   3.728  24.640  13.875
87281W        W59706  13.701  43.962  13.032
87282W        W59707  18.062  28.002  13.363
87283W        W59708  15.788  43.417  10.904
87284W        W59709  28.970  33.621   1.448
87285W        W59710  28.036  17.734  11.111
87286W        W59711  10.314  38.427  14.994
87287W        W59712  41.976   8.358   2.682
87288W        W59713  36.418  17.613   4.779
87289W        W59714   9.177  15.692   2.342
87290W        W59715  30.923  25.030   3.258
87291W        W59716   7.692  14.182   2.871
87292W        W59717  17.296  13.278  14.972
87293W        W59718  18.681  30.604  10.947
87294W        W59719   8.684   4.921   1.795
87295W        W59720  10.693  33.968  12.396
87296W        W59721  21.094  37.576   1.727
87297W        W59722  38.335  10.223   1.736
87298W        W59723  14.666  44.879   1.285
87299W        W59724  24.711  32.019  10.128
87300W        W59725  36.372   7.902  12.852
87301W        W59726  41.001  14.334  13.802
87302W        W59727  40.843   8.214  12.370
87303W        W59728  29.664  26.628  12.457
87304W        W59729  35.453  36.546   0.939
87305W        W59730   3.877   8.793   2.239
87306W        W59731  22.607  40.363   4.702
87307W        W59732  44.989  20.726   3.345
87308W        W59733   4.730  36.552   3.754
87309W        W59734  34.494  30.936   0.249
87310W        W59735  16.171  35.404  14.407
87311W        W59736   0.483  12.722  12.835
87312W        W59737  20.037  26.102   4.130
87313W        W59738   3.394  20.625  11.478
87314W        W59739   0.863  26.512   3.305
87315W        W59740   7.876  25.657   0.359
87316W        W59741  20.085  39.945  12.455
87317W        W59742  33.530  32.560  11.513
87318W        W59743  21.536  13.230   2.674
87319W        W59744  19.120  39.010  11.056
87320W        W59745   5.260  11.679   3.197
87321W        W59746  19.589  41.316   2.377
87322W        W59747  43.332  16.572  11.110
87323W        W59748   2.940  17.779   4.128
87324W        W59749  11.332  23.672  14.279
87325W        W59750   1.352  32.598   3.853
87326W        W59751  10.303  11.741   3.369
87327W        W59752  26.114  42.318  12.450
87328W        W59753  37.384  30.444  13.037
87329W        W59754   5.261  33.554  12.559
87330W        W59755   2.832  30.093   4.695
87331W        W59756  12.344  39.920   1.802
87332W        W59757  24.199  30.602  13.402
87333W        W59758  15.765  13.149  12.456
87334W        W59759  13.702  39.862  11.114
87335W        W59760  14.241  32.995  12.385
87336W        W59761  33.444  11.851   3.241
87337W        W59762  15.158   9.850   3.851
87338W        W59763   0.337   9.354   0.294
87339W        W59764  21.749  12.265  11.610
87340W        W59765  38.020  44.803   3.789
87341W        W59766   2.438  24.505  11.044
87342W        W59767   0.912  32.500   2.856
87343W        W59768  17.632  26.197   2.408
87344W        W59769  26.198  15.206  12.052
87345W        W59770  36.378   6.863  11.512
87346W        W59771   3.370  32.896  12.996
87347W        W59772  44.455  44.397   0.904
87348W        W59773   8.759  10.679  13.400
87349W        W59774  43.475   8.341  11.870
87350W        W59775  20.650  31.130  12.388
87351W        W59776  10.693  24.154   4.193
87352W        W59777   1.892  25.129  14.911
87353W        W59778  37.566  30.489   2.883
87354W        W59779  22.153  40.545   2.188
87355W        W59780  37.978  41.395  10.625
87356W        W59781  10.665  27.138   2.275
87357W        W59782  31.537  11.180   3.785
87358W        W59783  13.767  38.388  14.773
87359W        W59784  38.408  10.258   3.245
87360W        W59785  21.205  26.079  14.484
87361W        W59786   4.360  32.469  10.404
87362W        W59787   4.795  22.202  12.906
87363W        W59788  30.131  44.816  11.074
87364W        W59789  28.491  29.972  11.460
87365W        W59790  27.561  28.015  14.982
87366W        W59791  27.661  19.237   3.751
87367W        W59792  13.229  33.442   4.838
87368W        W59793   2.848  20.715   3.199
87369W        W59794  19.779  11.792  14.418
87370W        W59795  10.345  11.684   4.127
87371W        W59796  32.993  26.065   1.442
87372W        W59797  16.696  16.669   2.285
87373W        W59798  33.459  20.642  10.923
87374W        W59799  41.856   9.654   4.343
87375W        W59800  24.580  21.687  12.847
87376W        W59801  10.790  25.480   0.862
87377W        W59802  13.242  37.047  13.027
87378W        W59803  10.844   6.393  12.826
87379W        W59804  21.171  17.170  13.363
87380W        W59805  39.511  42.785   1.335
87381W        W59806  37.074   2.377   0.409
87382W        W59807  32.964   3.400   1.268
87383W        W59808  40.424   7.257  14.929
87384W        W59809  33.445  25.688   4.250
87385W        W59810  31.046  14.765  14.813
87386W        W59811  11.828  10.202   4.169
87387W        W59812   0.983  22.220  12.526
87388W        W59813  40.535  31.034  13.840
87389W        W59814  31.974  20.635   1.907
87390W        W59815  35.946  10.818  12.356
87391W        W59816  26.095  12.614  11.886
87392W        W59817  40.392   4.345   0.948
87393W        W59818  29.927   6.703   1.281
87394W        W59819  19.544  22.028  12.849
87395W        W59820  23.603  15.672   3.759
87396W        W59821  15.629  26.555  14.421
87397W        W59822  43.334  11.369  11.957
87398W        W59823  30.578  14.269  13.486
87399W        W59824  12.709  32.529  14.424
87400W        W59825   0.910  18.606  14.956
87401W        W59826  42.369  27.457   4.815
87402W        W59827   9.331  38.409  11.552
87403W        W59828  42.979  19.702  13.965
87404W        W59829  40.468  34.456   0.456
87405W        W59830  38.928  39.367   0.445
87406W        W59831   1.852   6.345   5.221
87407W        W59832  17.237  16.597   3.702
87408W        W59833  43.481   6.793  11.548
87409W        W59834  38.982  12.168  14.459
87410W        W59835  40.893  33.453   2.180
87411W        W59836  30.540  24.044   4.224
87412W        W59837  29.566  27.070   0.876
87413W        W59838  19.095  26.583   0.923
87414W        W59839   3.943   8.199   4.140
87415W        W59840  21.036   5.351  13.802
87416W        W59841  12.789  42.483   1.832
87417W        W59842  25.136  37.529   1.738
87418W        W59843  36.958  13.140  11.487
87419W        W59844   6.400   1.835   0.271
87420W        W59845  20.088  42.854   0.329
87421W        W59846  15.587  25.672  11.578
87422W        W59847   3.750   1.847   2.779
87423W        W59848   1.422  10.274   3.843
87424W        W59849  31.912   7.800   0.843
87425W        W59850  22.698  37.939   4.795
87426W        W59851  19.217  27.008   2.749
87427W        W59852  19.702  21.619   4.692
87428W        W59853  32.587  18.254   5.170
87429W        W59854   2.431   2.871   2.300
87430W        W59855  14.195   8.375   0.903
87431W        W59856  28.045  27.647   2.879
87432W        W59857  14.694   3.249   1.748
87433W        W59858  14.785   2.471  14.310
87434W        W59859  35.055  41.475   3.820
87435W        W59860  32.007  39.436  12.375
87436W        W59861  43.862   9.171  11.502
87437W        W59862  16.797  23.222   0.279
87438W        W59863  27.605  35.009   1.768
87439W        W59864  21.600  17.259  14.308
87440W        W59865  19.215   9.875   1.790
87441W        W59866  13.770  33.043  11.418
87442W        W59867   4.371  26.127   4.769
87443W        W59868  25.502  37.519  13.020
87444W        W59869  41.501   9.365  14.837
87445W        W59870  38.411   0.265  11.102
87446W        W59871  13.713  36.997   0.319
87447W        W59872   0.882   4.937   3.644
87448W        W59873  22.996   5.359   2.867
87449W        W59874  43.776   6.328   0.441
87450W        W59875  27.016  14.797   0.926
87451W        W59876  40.375  35.045   1.932
87452W        W59877  23.176  44.428  14.504
87453W        W59878  33.400   9.290   4.144
87454W        W59879   5.821   9.202  13.992
87455W        W59880  23.529  35.923   2.304
87456W        W59881  37.948  28.183   2.329
87457W        W59882   2.280  20.635  14.409
87458W        W59883   9.298  31.130   1.318
87459W        W59884   1.388   2.450   3.386
87460W        W59885   7.407  29.954  12.984
87461W        W59886  32.469  19.119  14.412
87462W        W59887  22.070  41.387   4.768
87463W        W59888  35.547  16.265  11.434
87464W        W59889   8.733  43.995   1.712
87465W        W59890  39.503  16.674  10.992
87466W        W59891   4.801   2.948   2.190
87467W        W59892  36.954  35.012   3.151
87468W        W59893  44.995  25.180  12.869
87469W        W59894  21.711  12.352   0.258
87470W        W59895   0.773  29.119  12.538
87471W        W59896  22.628  32.502   0.482
87472W        W59897  31.533   6.293   2.293
87473W        W59898  19.723  36.913   4.134
87474W        W59899   6.182   3.938  14.439
87475W        W59900  32.028  39.383   1.442
87476W        W59901  32.914  16.605  11.409
87477W        W59902   5.309  17.754  12.041
87478W        W59903  37.050  26.147  14.502
87479W        W59904   1.405  24.650   4.775
87480W        W59905  21.738  32.556   2.418
87481W        W59906  11.665  13.673  10.446
87482W        W59907   8.390  20.045  12.977
87483W        W59908  23.057  42.477   1.247
87484W        W59909  15.707  22.556  12.978
87485W        W59910  32.513   5.907  12.559
87486W        W59911  21.687   9.831  10.406
87487W        W59912  23.576  16.657   3.303
87488W        W59913   3.808   5.824  13.508
87489W        W59914  42.381  22.102  13.984
87490W        W59915  29.106  11.216   0.312
87491W        W59916   0.888  19.235   0.367
87492W        W59917  34.518  40.320   1.705
87493W        W59918  16.806  37.452   0.392
87494W        W59919  14.176  10.239  11.394
87495W        W59920  41.452  16.770   3.668
87496W        W59921  14.111  27.162   2.225
87497W        W59922  30.425   6.756   4.817
87498W        W59923   7.748  38.924  12.849
87499W        W59924  30.022  32.092   1.751
87500W        W59925  40.417  12.809  11.429
87501W        W59926  43.401  39.919  13.450
87502W        W59927  10.229  26.060  11.551
87503W        W59928  40.883  26.117   4.198
87504W        W59929  23.205  16.617  12.366
87505W        W59930  13.314  14.676  11.433
87506W        W59931  33.911  31.055  14.358
87507W        W59932  11.248  10.351   9.953
87508W        W59933  21.100  17.066  14.006
87509W        W59934  40.892  34.036   4.229
87510W        W59935  43.982  20.730   2.773
87511W        W59936   7.380  13.806  12.913
87512W        W59937  42.399  30.543  11.865
87513W        W59938   9.164  18.622  11.115
87514W        W59939  29.489   4.215  13.382
87515W        W59940  12.330  35.503   0.408
87516W        W59941   4.442  39.430   4.195
87517W        W59942  13.830  11.201   2.846
87518W        W59943  26.533  25.097  11.900
87519W        W59944   4.938   7.211   0.782
87520W        W59945   9.754  38.037   2.283
87521W        W59946  26.627  41.488  10.558
87522W        W59947   5.306   4.341   1.270
87523W        W59948  35.380  14.767   3.152
87524W        W59949  31.576  37.018   2.735
87525W        W59950   5.199  17.766   1.407
87526W        W59951  25.208  36.525   0.355
87527W        W59952  36.400  27.569  12.473
87528W        W59953  14.769  33.015  12.416
87529W        W59954  10.692  26.049  10.436
87530W        W59955  34.432  32.566  11.009
87531W        W59956   1.251   4.425  10.411
87532W        W59957   8.243  43.301  12.856
87533W        W59958  34.502  12.835   0.304
87534W        W59959  40.454  14.670  13.512
87535W        W59960  37.033  27.155  13.313
87536W        W59961  42.849  13.789  14.991
87537W        W59962   4.748   8.342   0.891
87538W        W59963  33.907  27.175   1.328
87539W        W59964  34.867  13.347   2.371
87540W        W59965   5.283   2.959   1.375
87541W        W59966  15.227   0.375   3.794
87542W        W59967  37.944  16.219  10.582
87543W        W59968   3.222  21.156   1.791
87544W        W59969  24.574   8.663   0.307
87545W        W59970  27.591  11.659   1.890
87546W        W59971   2.321   4.301  12.351
87547W        W59972  24.123  17.700   1.260
87548W        W59973  20.186   8.681  11.975
87549W        W59974  30.082  30.032   1.909
87550W        W59975  29.640  33.441  12.517
87551W        W59976  29.498   5.376  12.456
87552W        W59977   8.704  18.551   4.142
87553W        W59978  44.959  26.188  10.894
87554W        W59979   3.429  21.049   3.853
87555W        W59980  35.915  18.689   2.372
87556W        W59981  17.116  28.952  14.491
87557W        W59982  26.625  29.596   5.130
87558W        W59983  43.827   2.912  11.530
87559W        W59984  10.174  13.264  12.852
87560W        W59985  16.271  44.487   2.413
87561W        W59986   0.288  38.038  13.930
87562W        W59987  22.676  37.009   1.230
87563W        W59988  35.071  42.786  14.356
87564W        W59989  34.432   2.824   1.277
87565W        W59990  37.842  39.933   4.354
87566W        W59991  20.598  23.193  11.479
87567W        W59992  15.735  22.625   3.158
87568W        W59993  33.039  31.982  12.342
87569W        W59994   9.298   9.851   0.344
87570W        W59995  24.153  15.651   1.879
87571W        W59996  23.672  16.209   3.682
87572W        W59997  23.563  25.488  14.298
87573W        W59998   5.368  35.508  14.839
87574W        W59999  11.279  41.928   2.406
87575W        W60000  23.231  21.208   2.192
87576W        W60001   5.892  18.211  13.902
87577W        W60002  34.062   7.291  10.934
87578W        W60003  33.449  42.496   0.380
87579W        W60004   7.406  41.919   3.811
87580W        W60005  10.227  29.117   4.175
87581W        W60006  44.365   5.689  14.333
87582W        W60007   1.820   9.284   4.204
87583W        W60008   2.897   1.286  13.919
87584W        W60009  41.949  38.390  10.983
87585W        W60010  44.316  35.472  14.381
87586W        W60011  30.054  17.281  11.578
87587W        W60012  14.770  10.703  14.957
87588W        W60013  17.184  27.470  13.531
87589W        W60014  14.263  32.619   3.287
87590W        W60015  30.570  29.537   4.350
87591W        W60016   4.260  32.056  13.033
87592W        W60017  15.105   4.431   2.777
87593W        W60018   8.215  38.961  10.110
87594W        W60019  27.597  26.128   4.327
87595W        W60020   1.314  22.648  14.463
87596W        W60021  32.027  40.477  12.416
87597W        W60022  34.008  41.439  12.493
87598W        W60023  17.728  12.772  14.368
87599W        W60024  12.814   8.320  13.343
87600W        W60025  30.103   6.705  10.644
87601W        W60026   6.772   4.749   1.342
87602W        W60027  12.197  38.829   1.272
87603W        W60028  15.230  34.447   3.804
87604W        W60029   3.822  20.051  10.954
87605W        W60030  26.044  10.869   2.222
87606W        W60031   0.915   4.431  13.948
87607W        W60032  13.751  29.083  12.343
87608W        W60033  44.790  37.534  14.908
87609W        W60034  26.170  10.850   3.760
87610W        W60035   8.832  26.659   1.433
87611W        W60036  27.019  21.533  11.963
87612W        W60037  31.968  44.957   0.819
87613W        W60038  22.644   8.358   9.493
87614W        W60039  24.663  36.408   3.221
87615W        W60040  18.165  24.584   1.280
87616W        W60041  18.233  25.614   0.740
87617W        W60042   9.710  25.044  10.470
87618W        W60043  36.527  40.341  12.566
87619W        W60044  15.756  22.744   1.386
87620W        W60045  37.409   7.301  11.986
87621W        W60046   2.883  43.955   3.839
87622W        W60047  18.097  14.122  11.112
87623W        W60048  12.191   4.705  12.411
87624W        W60049  33.108  24.522   3.357
87625W        W60050   0.404  31.938  11.034
87626W        W60051  26.676  31.917  12.552
87627W        W60052  29.049  29.123   0.891
87628W        W60053  44.418   4.385  10.415
87629W        W60054  29.597  39.057   4.333
87630W        W60055  25.495  43.882  12.345
87631W        W60056   0.477  36.924  14.855
87632W        W60057   6.712   4.399  14.349
87633W        W60058  33.620  42.819   3.222
87634W        W60059  32.571  31.968  12.061
87635W        W60060  44.819   6.373   3.715
87636W        W60061   6.376  30.587  14.875
87637W        W60062   0.765  28.481   1.834
87638W        W60063  34.546  31.602   0.316
87639W        W60064  24.484  15.155  13.501
87640W        W60065  27.678  39.409  13.435
87641W        W60066  42.311  25.630  12.018
87642W        W60067  32.478  31.039  10.452
87643W        W60068  22.144  15.786  11.118
87644W        W60069  17.728  17.127  13.047
87645W        W60070  17.738   8.714  11.865
87646W        W60071  11.265  36.552   0.481
87647W        W60072  11.348  43.925  13.954
87648W        W60073  21.161   7.691   5.261
87649W        W60074  33.069  41.357  11.096
87650W        W60075   2.324  44.003  13.842
87651W        W60076  30.149  29.115   2.334
87652W        W60077  30.048  15.327   4.833
87653W        W60078  35.418   8.684  10.538
87654W        W60079  30.052  17.063   1.801
87655W        W60080  11.331  21.604   2.216
87656W        W60081  24.708  25.145  10.435
87657W        W60082  43.435  24.227   1.441
87658W        W60083  29.481  12.643  12.574
87659W        W60084  34.393  25.543  11.927
87660W        W60085  36.854  29.461  13.940
87661W        W60086  27.633  38.549   2.401
87662W        W60087  15.209  17.577   0.777
87663W        W60088  29.133  22.557   3.273
87664W        W60089   2.917  14.288   3.782
87665W        W60090   8.675  33.972   1.306
87666W        W60091  25.168  41.949   3.790
87667W        W60092  42.972  24.491   2.355
87668W        W60093   6.427  11.777  11.448
87669W        W60094  25.503   2.395  13.987
87670W        W60095  38.943  24.010  13.801
87671W        W60096  40.039  25.486  11.078
87672W        W60097  32.435  16.783   3.304
87673W        W60098  28.022   0.884  11.008
87674W        W60099   1.873  11.817  10.934
87675W        W60100  14.799  29.580   1.886
87676W        W60101   8.337  24.200   4.244
87677W        W60102   5.433  14.225  14.822
87678W        W60103  26.057   0.331   2.407
87679W        W60104  14.149  32.571   2.300
87680W        W60105  43.416   0.825   1.706
87681W        W60106  31.968  42.922   3.195
87682W        W60107   4.827  10.798   4.273
87683W        W60108   2.891  20.183  14.493
87684W        W60109  38.857  15.636  10.603
87685W        W60110  35.901  26.054   4.349
87686W        W60111  11.776  16.120   2.704
87687W        W60112  39.362  20.703   0.911
87688W        W60113  25.010  21.664  13.379
87689W        W60114  35.064  20.557   2.737
87690W        W60115  31.530  25.610  13.420
87691W        W60116  23.551   6.422   4.249
87692W        W60117  40.423  21.678  14.376
87693W        W60118  42.020  19.635  12.355
87694W        W60119  34.407  11.823   0.878
87695W        W60120   7.778   5.311   3.308
87696W        W60121  25.027   5.335   3.383
87697W        W60122  23.700  23.614   1.274
87698W        W60123  18.114  12.225   0.827
87699W        W60124  36.552  27.583  13.955
87700W        W60125  14.728  33.882   1.332
87701W        W60126  15.725  23.072   5.250
87702W        W60127  44.817   3.784   4.209
87703W        W60128  22.561   8.330  14.456
87704W        W60129  29.049   5.883  14.418
87705W        W60130  26.952  40.399  10.470
87706W        W60131  39.384  15.773  14.348
87707W        W60132  29.459  16.705  10.963
87708W        W60133  16.662  43.908   1.887
87709W        W60134  43.917  37.002   2.222
87710W        W60135  32.121   4.749  10.478
87711W        W60136   2.905  18.706  10.426
87712W        W60137  19.160   6.854   2.886
87713W        W60138  16.178   1.752  14.902
87714W        W60139   1.769  10.776  13.479
87715W        W60140  37.974  20.659  13.498
87716W        W60141  10.839  15.595  12.357
87717W        W60142  26.985  35.413   3.284
87718W        W60143  25.131  26.522   0.252
87719W        W60144   5.783  30.141  12.501
87720W        W60145  39.823  44.851  12.411
87721W        W60146  15.615  29.599  14.011
87722W        W60147  38.894  20.173   2.237
87723W        W60148  40.378  35.975   0.730
87724W        W60149  28.006  40.814   2.387
87725W        W60150  26.031  17.262   4.242
87726W        W60151  13.763  21.570  10.909
87727W        W60152  32.464  24.608   2.325
87728W        W60153  43.992  35.968   3.147
87729W        W60154  11.849  30.650  12.457
87730W        W60155   0.874  20.703  13.533
87731W        W60156  25.562  14.604  11.962
87732W        W60157  13.671  12.277  14.282
87733W        W60158  38.336   3.871  14.399
87734W        W60159   8.324  27.445   2.366
87735W        W60160  27.071  21.732  14.970
87736W        W60161   4.412  17.747  14.321
87737W        W60162  12.745  12.725  11.101
87738W        W60163  39.323  23.523   4.824
87739W        W60164  10.701  32.421  11.094
87740W        W60165  26.665  23.620  13.886
87741W        W60166   7.348  18.580   4.628
87742W        W60167   6.229  32.955   0.262
87743W        W60168  24.648  23.639  12.442
87744W        W60169   7.710  23.046  14.845
87745W        W60170  18.781  41.339  11.555
87746W        W60171  19.186  38.952  10.611
87747W        W60172   1.256  39.340   4.733
87748W        W60173   5.438  44.769  11.090
87749W        W60174  17.153  26.559  13.849
87750W        W60175  37.905  44.779   4.333
87751W        W60176   0.782  42.294  10.565
87752W        W60177  38.826  24.644   0.921
87753W        W60178  13.271  19.559   3.784
87754W        W60179   3.358  42.921  12.359
87755W        W60180   4.879  15.320  13.045
87756W        W60181   5.214  29.542   0.268
87757W        W60182   3.940  17.300   3.725
87758W        W60183  19.722   0.452   0.834
87759W        W60184  21.637  29.661  11.934
87760W        W60185  16.605  28.935   3.801
87761W        W60186  44.372  43.851  14.806
87762W        W60187  10.236   0.767  11.077
87763W        W60188  39.063  38.368  13.847
87764W        W60189  15.237  17.138   4.141
87765W        W60190  39.394   0.287  13.915
87766W        W60191   9.390   4.279   2.187
87767W        W60192  22.601  29.092  11.568
87768W        W60193  43.955   6.910   1.796
87769W        W60194   8.830  12.746  12.824
87770W        W60195   0.960  37.373  14.972
87771W        W60196  36.554   6.227   4.686
87772W        W60197  30.008   1.356  10.926
87773W        W60198  26.953  20.630   2.764
87774W        W60199  29.918  27.005  14.019
87775W        W60200   2.869  35.946  14.880
87776W        W60201  16.316   5.791   2.874
87777W        W60202  31.608  27.664   0.802
87778W        W60203   8.808   3.786   1.348
87779W        W60204  36.872  21.636   1.356
87780W        W60205  12.198  36.480   4.744
87781W        W60206  17.267  32.991   2.838
87782W        W60207  42.827  28.163  13.040
87783W        W60208  27.649  40.308  12.370
87784W        W60209  27.044  35.555  10.471
87785W        W60210   6.713  21.033   3.209
87786W        W60211   3.813  40.953  13.035
87787W        W60212   3.437   1.932  12.994
87788W        W60213  27.654  39.817  12.383
87789W        W60214   5.246  28.565   0.263
87790W        W60215  30.124  24.011  11.371
87791W        W60216  19.597  24.608   0.937
87792W        W60217   6.426  16.586  10.972
87793W        W60218  27.545  38.966  12.406
87794W        W60219   6.291  40.369   5.166
87795W        W60220  32.489   1.759   3.200
87796W        W60221  30.049  39.495  11.099
87797W        W60222  19.110   9.322  14.333
87798W        W60223  43.794  17.105   4.131
87799W        W60224  23.096  31.981  11.898
87800W        W60225   9.713  44.817   0.343
87801W        W60226  43.281  28.990   4.291
87802W        W60227  38.568  22.027   1.376
87803W        W60228   0.833  11.356  14.494
87804W        W60229  14.731  24.482   2.304
87805W        W60230  12.726  38.398   3.715
87806W        W60231  12.764  11.303  10.599
87807W        W60232  19.666  27.445   1.865
87808W        W60233   2.877  23.100  12.388
87809W        W60234  33.473  21.068   0.808
87810W        W60235  15.178   6.841   3.713
87811W        W60236  43.968  21.221  13.962
87812W        W60237   9.253   8.306  12.041
87813W        W60238  26.106   6.923   2.383
87814W        W60239  23.669  42.951   0.919
87815W        W60240  41.370  29.060  11.587
87816W        W60241  11.727  16.096  13.815
87817W        W60242   0.795  29.655   2.728
87818W        W60243  18.642  34.372   0.789
87819W        W60244  12.798  31.050   4.250
87820W        W60245  18.225  23.729   4.150
87821W        W60246  27.499  32.498   3.356
87822W        W60247   8.801  10.709   1.766
87823W        W60248   5.340   4.820  12.832
87824W        W60249  32.443  12.160   3.653
87825W        W60250   7.897  39.038  14.804
87826W        W60251  24.174   1.481  11.523
87827W        W60252  12.708  20.037   3.356
87828W        W60253  36.088  44.961  12.363
87829W        W60254  32.068  22.624   1.790
87830W        W60255   0.749  27.968   0.341
87831W        W60256  26.204  20.556  13.958
87832W        W60257  20.266  19.564   0.763
87833W        W60258  43.452  12.182   3.274
87834W        W60259  19.730  27.135  12.927
87835W        W60260  14.177  19.680   1.850
87836W        W60261  42.472  28.094   3.184
87837W        W60262  31.030  19.546  11.063
87838W        W60263  42.519  12.813  10.920
87839W        W60264  19.201   9.865   2.395
87840W        W60265  28.636  33.989   4.167
87841W        W60266  11.809  15.614   4.159
87842W        W60267  37.948  13.327   2.736
87843W        W60268   7.701  19.751   2.266
87844W        W60269  23.595  38.550  13.531
87845W        W60270  23.032  20.125  12.392
87846W        W60271  29.483  44.302   3.636
87847W        W60272  11.253   8.850   3.745
87848W        W60273  41.813   9.314   2.849
87849W        W60274  31.604  44.293   3.291
87850W        W60275   4.378   4.321  12.461
87851W        W60276  10.185  17.159  13.337
87852W        W60277  16.682  10.291   3.774
87853W        W60278  40.826  14.680  10.630
87854W        W60279   8.871  17.756  13.484
87855W        W60280  38.415   0.955  13.045
87856W        W60281  29.008  19.609   4.127
87857W        W60282   1.238  28.954  11.915
87858W        W60283  10.216  38.860   3.187
87859W        W60284  44.313  43.448   9.927
87860W        W60285  33.482  35.955  13.913
87861W        W60286  35.867  39.814  13.441
87862W        W60287  23.554  33.971  13.941
87863W        W60288  24.044  18.201   2.847
87864W        W60289  30.578   3.899  11.531
87865W        W60290  31.565  37.027   0.864
87866W        W60291  20.725  41.970  13.873
87867W        W60292  11.642  33.533  10.594
87868W        W60293  14.707   8.857   2.280
87869W        W60294  18.212  19.119  13.518
87870W        W60295  16.578  14.243   0.290
87871W        W60296  30.066   6.874   4.713
87872W        W60297   7.309  10.850  13.539
87873W        W60298   4.414  27.171  13.541
87874W        W60299   3.812   2.407  13.495
87875W        W60300  42.903  25.129  12.944
87876W        W60301  12.849   1.789  12.528
87877W        W60302  24.644  39.863   0.483
87878W        W60303   1.806  30.453  11.016
87879W        W60304   5.820  17.698   2.869
87880W        W60305  20.243  18.646  13.896
87881W        W60306  34.525  34.941   0.258
87882W        W60307  15.186   5.726  13.389
87883W        W60308   5.331  40.542  14.816
87884W        W60309   7.774  25.125  11.862
87885W        W60310  39.522   3.249   0.285
87886W        W60311   6.306  44.488  11.588
87887W        W60312  18.556  23.207   0.812
87888W        W60313   1.866  42.811   1.449
87889W        W60314  33.098  34.116  13.954
87890W        W60315  36.583  25.489  14.916
87891W        W60316  10.337  37.432   2.353
87892W        W60317   3.766  32.394  11.019
87893W        W60318   3.382  26.550  12.053
87894W        W60319  15.770  21.643   2.271
87895W        W60320   3.233  29.574  14.939
87896W        W60321  44.418  36.399   3.324
87897W        W60322  13.264  23.036  11.995
87898W        W60323   5.282  24.033  10.910
87899W        W60324   8.264   9.861  12.893
87900W        W60325  14.626  10.372   2.248
87901W        W60326   4.243  33.422   2.864
87902W        W60327  20.628   2.922  12.569
87903W        W60328  26.512  38.328   3.286
87904W        W60329   3.273  16.089  14.873
87905W        W60330  25.577   2.940   0.378
87906W        W60331  11.857  15.791   0.727
87907W        W60332   0.390   3.832  13.455
87908W        W60333   6.217   1.261  10.434
87909W        W60334  15.720  29.613  13.061
87910W        W60335  12.662  36.382   1.264
87911W        W60336  34.570  32.003  11.390
87912W        W60337  28.136  37.498   2.804
87913W        W60338  21.598  34.478  11.105
87914W        W60339  30.478  40.883   3.265
87915W        W60340  31.558  12.790  14.021
87916W        W60341  13.742  13.659   2.360
87917W        W60342  18.136   3.462   5.242
87918W        W60343  44.942  26.680  13.898
87919W        W60344   1.260  40.980  10.532
87920W        W60345  15.699  39.968   4.291
87921W        W60346  40.352  20.543  11.000
87922W        W60347   7.897  23.066  11.596
87923W        W60348   3.361  37.509   1.914
87924W        W60349  12.302  12.655  10.556
87925W        W60350  38.411  42.346   1.860
87926W        W60351   6.206  22.019   4.150
87927W        W60352   9.792  29.003  12.011
87928W        W60353   6.873   4.354  11.436
87929W        W60354  15.748  16.572  13.064
87930W        W60355  30.458  14.231  14.817
87931W        W60356  29.988   4.837   2.746
87932W        W60357  26.084  37.578  14.833
87933W        W60358  30.580   9.854  12.365
87934W        W60359  10.238  41.514   2.671
87935W        W60360  42.841   9.181   3.863
87936W        W60361  39.926  24.041   1.868
87937W        W60362   4.264  44.320  13.433
87938W        W60363  12.800  25.672   1.816
87939W        W60364  17.109  11.786   2.304
87940W        W60365   9.865   8.379   2.242
87941W        W60366   3.310  12.197   2.668
87942W        W60367  43.854   4.910  10.926
87943W        W60368   2.266  12.202   2.832
87944W        W60369  18.790  27.460   0.785
87945W        W60370  32.445   3.226  14.846
87946W        W60371  24.649   0.442   1.301
87947W        W60372  19.085  17.576  13.965
87948W        W60373   4.798  34.878  13.522
87949W        W60374   5.699  22.239   4.189
87950W        W60375  12.702  16.147   3.671
87951W        W60376  10.378   8.331   0.754
87952W        W60377  38.003  32.395   2.746
87953W        W60378   6.270   8.844   1.761
87954W        W60379  10.641  30.607  13.006
87955W        W60380  18.267  20.689  14.784
87956W        W60381  19.775   5.709   1.318
87957W        W60382  30.154  42.369  11.037
87958W        W60383  35.966  17.679   0.945
87959W        W60384  39.482  16.112   4.275
87960W        W60385  20.157   7.697   3.329
87961W        W60386  39.520  35.867   4.175
87962W        W60387   7.825  33.597   3.164
87963W        W60388  39.834  42.874  12.497
87964W        W60389  28.996   2.816   2.708
87965W        W60390  19.097   2.401  12.048
87966W        W60391  43.387  36.981  10.974
87967W        W60392  21.621  11.261   9.997
87968W        W60393  22.007  12.268   4.823
87969W        W60394  39.394  35.072   3.317
87970W        W60395  28.112  31.009   1.264
87971W        W60396   0.302  36.908   1.847
87972W        W60397  35.372   7.171  13.535
87973W        W60398  32.443   6.819  13.816
87974W        W60399  27.613  29.631   3.813
87975W        W60400  31.631  37.447   2.288
87976W        W60401  44.435  11.278   0.288
87977W        W60402   6.319   6.293  14.303
87978W        W60403   6.680  23.685   1.743
87979W        W60404  20.205  28.663  11.109
87980W        W60405   9.710  19.110   1.327
87981W        W60406  17.076  23.070  14.293
87982W        W60407  13.324  11.249  13.886
87983W        W60408  29.145  38.915   4.229
87984W        W60409  22.738  23.605  10.935
87985W        W60410  25.152  34.615   0.852
87986W        W60411   9.692   4.345   0.902
87987W        W60412  34.525  23.072   2.272
87988W        W60413  27.467  17.594  13.960
87989W        W60414  13.349   0.967   1.819
87990W        W60415  13.734   3.335  12.943
87991W        W60416  42.024   8.724  11.039
87992W        W60417  15.619  29.011  14.511
87993W        W60418  15.772  24.593  14.891
87994W        W60419  23.630  35.575   2.663
87995W        W60420  44.427   5.830   1.284
87996W        W60421  37.861   9.313   1.856
87997W        W60422  18.677  37.447   2.735
87998W        W60423  15.091  18.653  14.422
87999W        W60424  12.181   0.958  13.383
88000W        W60425  41.321  41.336  11.887
88001W        W60426  42.830  34.563   1.754
88002W        W60427  25.482   5.219  11.935
88003W        W60428  34.434  20.231   2.372
88004W        W60429  28.980  36.869   4.314
88005W        W60430  41.379  40.391  14.309
88006W        W60431  31.910  25.565   5.319
88007W        W60432  24.081  31.614  10.635
88008W        W60433  11.641  40.982  11.018
88009W        W60434  35.962  25.616   2.261
88010W        W60435   5.841  29.147   3.819
88011W        W60436   5.362   4.722  11.990
88012W        W60437  21.023   2.919   4.191
88013W        W60438  26.178  42.878   1.396
88014W        W60439  29.921   1.441   4.175
88015W        W60440  12.768  31.971   3.728
88016W        W60441  37.016  36.864  14.874
88017W        W60442  11.653  18.121  13.871
88018W        W60443  28.633  33.973   4.733
88019W        W60444   2.959  10.348   3.343
88020W        W60445  39.896  42.985   3.834
88021W        W60446  28.177   5.340  11.379
88022W        W60447  22.206   6.902  14.373
88023W        W60448  10.168  33.903   3.174
88024W        W60449  44.265  20.214  12.963
88025W        W60450  29.619  29.558   5.097
88026W        W60451   2.738  19.693   0.313
88027W        W60452  22.028   9.885   2.259
88028W        W60453  34.989   9.728  10.452
88029W        W60454  25.586  22.671   2.204
88030W        W60455   3.743   0.936   9.990
88031W        W60456   1.875  19.284   2.794
88032W        W60457  22.567  17.593  12.474
88033W        W60458  33.480  10.799   4.124
88034W        W60459  28.499  30.658  13.927
88035W        W60460  44.377   0.353  13.826
88036W        W60461   6.269   4.428   4.645
88037W        W60462  44.779  22.231  12.350
88038W        W60463  27.035  28.002   0.750
88039W        W60464  18.296  30.615  11.008
88040W        W60465  44.863  33.879   1.310
88041W        W60466  19.770  13.839   0.750
88042W        W60467  44.979  40.403  13.460
88043W        W60468  35.389  11.201   0.446
88044W        W60469  15.231  25.207  14.405
88045W        W60470  42.895  23.543   1.225
88046W        W60471  15.208  28.545   0.851
88047W        W60472  37.887  12.301  12.892
88048W        W60473  17.586  25.121   0.889
88049W        W60474  22.067  19.685  12.375
88050W        W60475  20.107  13.688   3.298
88051W        W60476  42.816  19.184   4.139
88052W        W60477   2.425  29.923  12.485
88053W        W60478   5.316  15.215  14.915
88054W        W60479  25.473  37.385   2.666
88055W        W60480  42.309  21.154   4.745
88056W        W60481  30.610  22.238  14.896
88057W        W60482  34.511  34.504  10.969
88058W        W60483  15.283  20.101   4.605
88059W        W60484   1.738  30.107  13.358
88060W        W60485  26.627  42.925   1.242
88061W        W60486   2.849   5.833   3.655
88062W        W60487  44.357  33.027   3.158
88063W        W60488   8.668  25.497  14.828
88064W        W60489  28.957  38.480   0.475
88065W        W60490   2.322  13.790  14.910
88066W        W60491   6.383  39.968   0.882
88067W        W60492  41.494  19.212   0.747
88068W        W60493  21.022  30.570   3.226
88069W        W60494  17.719  18.133  14.361
88070W        W60495  27.170  25.567   4.119
88071W        W60496  27.079  41.437   1.837
88072W        W60497   4.924  34.938   2.385
88073W        W60498  14.295  25.674   4.121
88074W        W60499  43.400  32.485  14.341
88075W        W60500  26.071  11.694   2.697
88076W        W60501  39.852   8.236   2.879
88077W        W60502  26.473   0.289   2.687
88078W        W60503   4.282  14.727  11.009
88079W        W60504  21.571  21.708   1.399
88080W        W60505   0.876  22.010   2.835
88081W        W60506  20.138  23.201  10.451
88082W        W60507  43.390  38.537   0.936
88083W        W60508  11.216  23.057  10.956
88084W        W60509  10.361  14.152   4.251
88085W        W60510  43.822  34.014  13.947
88086W        W60511   3.286  22.059   0.779
88087W        W60512   3.431  43.983  10.566
88088W        W60513  11.742  29.953  10.578
88089W        W60514  11.712  26.158   2.251
88090W        W60515  19.651   4.233   1.753
88091W        W60516  43.918  18.546  12.067
88092W        W60517  34.055  31.075   0.405
88093W        W60518   4.879   9.709  11.522
88094W        W60519  26.687  27.572   2.806
88095W        W60520  30.041  18.694  11.084
88096W        W60521   0.298  19.114  11.943
88097W        W60522  20.266  27.490   2.182
88098W        W60523  26.076   7.230   2.208
88099W        W60524  38.916  19.610   4.809
88100W        W60525  40.376  30.571   4.793
88101W        W60526  13.785  37.937   3.248
88102W        W60527  19.160  11.690  11.523
88103W        W60528  13.840  28.576  12.907
88104W        W60529   0.435  36.382  11.940
88105W        W60530   6.425  22.594   3.344
88106W        W60531  28.145  21.237   2.860
88107W        W60532   3.332  43.999  12.080
88108W        W60533  20.246  39.979   1.706
88109W        W60534   7.704  37.490  12.053
88110W        W60535   3.750  28.035  13.953
88111W        W60536  10.710   9.375  14.946
88112W        W60537  26.955   5.334   2.395
88113W        W60538  27.951  36.397   1.730
88114W        W60539  30.970  28.451  12.920
88115W        W60540  44.288  16.726  11.082
88116W        W60541  21.722   2.418  12.347
88117W        W60542  43.474  15.684  13.508
88118W        W60543  36.586   8.282  10.963
88119W        W60544  37.883  28.545  14.327
88120W        W60545  33.399  34.544  10.057
88121W        W60546  37.524  44.904   3.647
88122W        W60547  20.110  10.714  12.953
88123W        W60548  24.973  41.404   4.698
88124W        W60549   2.751   3.772  11.506
88125W        W60550  36.093  18.142  14.357
88126W        W60551  30.996  10.209   3.739
88127W        W60552  16.627  31.001   5.130
88128W        W60553  42.898  33.475  12.033
88129W        W60554  37.563  35.502   2.186
88130W        W60555  37.931  37.893  12.424
88131W        W60556  31.931  31.582  13.827
88132W        W60557  15.789  15.700  14.289
88133W        W60558  31.456  27.079  14.392
88134W        W60559  25.093  24.098  13.885
88135W        W60560  38.435  30.633   0.412
88136W        W60561  40.935  23.993   3.777
88137W        W60562  26.528  36.900  13.384
88138W        W60563  40.322  10.273  14.450
88139W        W60564  35.050  38.955   4.267
88140W        W60565   4.746   7.353   4.611
88141W        W60566   0.352   6.714   4.656
88142W        W60567  20.125  20.683  13.396
88143W        W60568  15.251  39.385   1.425
88144W        W60569   9.727  25.524   1.344
88145W        W60570  41.005  30.513   2.797
88146W        W60571  35.982  35.519  10.546
88147W        W60572   9.777  17.126   0.903
88148W        W60573  26.006  16.716   4.717
88149W        W60574  21.646  28.641  10.584
88150W        W60575  38.446  33.012   0.248
88151W        W60576  35.894  23.074   4.234
88152W        W60577  35.084  28.062   5.287
88153W        W60578  33.500   3.752  13.991
88154W        W60579  42.350  36.442   4.656
88155W        W60580  23.219  18.056   1.292
88156W        W60581  39.367  24.204   3.326
88157W        W60582  31.437  27.951  12.469
88158W        W60583   4.393   9.875  13.009
88159W        W60584   1.956  21.738  12.930
88160W        W60585  20.234  10.357  10.625
88161W        W60586  18.644   9.810   0.315
88162W        W60587  23.106  22.695  11.906
88163W        W60588  39.023  14.814   4.707
88164W        W60589  17.629   2.265   5.188
88165W        W60590  19.126   2.284  11.069
88166W        W60591   2.781   9.258   4.291
88167W        W60592   9.656   3.247  14.384
88168W        W60593  26.062  35.855  14.338
88169W        W60594  27.545  27.960   1.313
88170W        W60595  32.001  16.166  13.520
88171W        W60596  15.772  10.312   1.212
88172W        W60597  26.578  22.103   5.158
88173W        W60598  24.000   0.820  10.963
88174W        W60599   3.331  15.227   3.274
88175W        W60600  36.591  32.048  12.861
88176W        W60601  35.601  20.116   0.375
88177W        W60602   0.342  20.669  10.611
88178W        W60603  35.881  25.006   4.731
88179W        W60604  20.247  30.076   4.702
88180W        W60605   7.295  40.797  12.858
88181W        W60606  27.637  12.347   4.617
88182W        W60607  15.794  21.550  12.380
88183W        W60608  26.955  27.095   1.425
88184W        W60609   0.781  43.309   0.359
88185W        W60610  30.028  32.143  12.063
88186W        W60611   6.711  12.170   2.233
88187W        W60612  28.553   9.302  11.993
88188W        W60613  34.430  32.505   3.696
88189W        W60614  38.971  25.169  11.122
88190W        W60615  28.595  25.098  10.462
88191W        W60616  24.555   8.773   4.292
88192W        W60617  38.043  43.009   4.166
88193W        W60618  36.958  24.663  11.598
88194W        W60619  22.731  21.537  12.402
88195W        W60620  19.655   2.773  14.953
88196W        W60621   5.361   3.291  14.388
88197W        W60622   9.826  27.624  11.410
88198W        W60623  17.719  15.587  14.400
88199W        W60624  11.801  36.082   1.445
88200W        W60625  27.120  15.302   0.949
88201W        W60626  11.853  18.700   4.631
88202W        W60627  29.455  30.588  11.591
88203W        W60628  38.403  14.617  10.617
88204W        W60629  36.894   5.888   4.714
88205W        W60630  20.658  31.904  12.557
88206W        W60631  36.432  10.197   3.747
88207W        W60632  18.645  15.680   1.853
88208W        W60633  28.454  40.825   2.686
88209W        W60634   2.955  36.862  11.466
88210W        W60635  33.577  10.244  11.950
88211W        W60636  33.552  35.934  11.958
88212W        W60637  18.261  24.023  12.404
88213W        W60638  31.145  22.179  10.441
88214W        W60639   9.807  36.396  10.921
88215W        W60640  39.409  29.566   4.319
88216W        W60641  20.655   0.370   1.290
88217W        W60642  41.471  30.108  12.897
88218W        W60643  25.135  16.608  10.599
88219W        W60644  29.508  36.425   1.754
88220W        W60645   9.371  27.506  14.785
88221W        W60646  20.208   3.846  12.346
88222W        W60647  17.231   4.778   4.301
88223W        W60648  21.723   4.916  11.377
88224W        W60649  27.559  15.772  13.877
88225W        W60650  14.743  37.948   1.234
88226W        W60651  17.087  38.981   3.363
88227W        W60652  11.652  40.468  10.098
88228W        W60653  14.780  37.017   0.386
88229W        W60654  20.179   5.848   4.195
88230W        W60655  43.860   1.285   0.402
88231W        W60656   2.737   5.786  10.596
88232W        W60657  19.143  36.371   3.707
88233W        W60658   1.414  23.496  11.927
88234W        W60659  44.892  39.393   2.330
88235W        W60660  29.102  44.861   2.760
88236W        W60661  22.110  41.791   2.815
88237W        W60662  14.698  39.335  10.956
88238W        W60663  13.230   4.859   0.934
88239W        W60664  21.718  10.259   9.675
88240W        W60665  32.577  41.354   2.242
88241W        W60666  25.017  41.834  11.485
88242W        W60667  13.227  17.081  14.821
88243W        W60668  14.129  41.931   1.887
88244W        W60669   2.455  10.209  13.431
88245W        W60670   4.237  41.416   1.321
88246W        W60671  25.154  31.580  10.489
88247W        W60672   5.316  18.566  14.485
88248W        W60673   4.413   8.770  13.545
88249W        W60674  25.629  33.404   2.833
88250W        W60675   0.266  31.899  11.858
88251W        W60676  36.586   7.880  13.421
88252W        W60677  17.158  29.478   4.320
88253W        W60678   6.802  11.701  13.479
88254W        W60679  41.393   5.251  12.516
88255W        W60680   4.760   5.730   2.790
88256W        W60681  17.224  42.920  13.398
88257W        W60682  33.402  31.081   2.210
88258W        W60683  33.895  15.740  10.587
88259W        W60684   4.244   6.318   0.402
88260W        W60685  15.740  12.308   0.259
88261W        W60686  21.612   0.964  11.424
88262W        W60687  20.758   3.376   1.220
88263W        W60688  14.243  36.384   3.760
88264W        W60689  15.695  20.768   0.244
88265W        W60690   1.472   9.803   3.632
88266W        W60691   0.266  12.643  13.814
88267W        W60692  38.047  10.710  12.441
88268W        W60693  19.207   3.746  10.473
88269W        W60694  20.609  26.063   3.820
88270W        W60695  20.740  11.621  13.408
88271W        W60696   3.926  38.515   0.344
88272W        W60697   2.778  23.120  13.323
88273W        W60698  32.408  36.092  10.438
88274W        W60699  41.475  14.213   1.720
88275W        W60700  25.986  28.656  12.931
88276W        W60701   1.455  25.973  11.572
88277W        W60702  12.345  16.134   3.348
88278W        W60703  10.194  19.082   0.793
88279W        W60704  17.691  39.382   4.180
88280W        W60705  10.183  39.065  12.086
88281W        W60706   0.418  29.490  14.910
88282W        W60707  33.128   9.713   0.828
88283W        W60708  12.701  10.639  12.565
88284W        W60709   1.246   1.835  11.027
88285W        W60710  41.291  37.968   4.193
88286W        W60711  29.982   4.241  11.935
88287W        W60712  44.973   0.392   0.779
88288W        W60713  43.814  22.068  11.553
88289W        W60714  22.589  35.515  14.487
88290W        W60715  19.634  13.313   3.738
88291W        W60716  32.399  43.840  10.431
88292W        W60717   7.825  33.417   1.402
88293W        W60718  18.230  37.364  13.795
88294W        W60719   3.786  18.775  14.827
88295W        W60720  12.647   4.837   4.168
88296W        W60721   2.283  27.553  12.353
88297W        W60722  28.571  27.096  10.630
88298W        W60723   6.318  42.807   3.732
88299W        W60724   8.759   7.891  14.324
88300W        W60725  20.151  17.193   0.255
88301W        W60726  44.335   4.921   1.344
88302W        W60727  31.618   1.321  12.002
88303W        W60728  20.601  35.950  13.351
88304W        W60729  34.001  24.637   2.704
88305W        W60730  29.437  27.013  12.862
88306W        W60731  24.093  14.148   1.419
88307W        W60732  30.521  35.450   4.217
88308W        W60733  22.675   2.826  14.959
88309W        W60734  44.974   9.271  14.287
88310W        W60735  31.086  11.165  14.448
88311W        W60736  22.008  40.462  11.001
88312W        W60737  44.833  11.179  13.945
88313W        W60738  32.392  43.943   3.174
88314W        W60739  36.543  21.528   2.191
88315W        W60740  44.448   2.937  12.410
88316W        W60741  12.138  25.060   2.804
88317W        W60742  14.234  20.170  12.066
88318W        W60743  42.986  30.461  13.863
88319W        W60744  37.076  38.505  10.894
88320W        W60745  22.617   6.695  10.628
88321W        W60746  33.992   0.433  14.299
88322W        W60747  24.615   6.676  12.441
88323W        W60748  30.632  18.764   1.365
88324W        W60749  13.109  15.640   2.205
88325W        W60750  30.165   4.231   0.779
88326W        W60751  23.574   1.270  14.930
88327W        W60752  33.044  21.074   2.189
88328W        W60753  28.482   2.251   0.731
88329W        W60754  25.701  22.191   4.730
88330W        W60755   9.687   6.268   9.586
88331W        W60756   4.881   7.754  13.408
88332W        W60757  43.468  34.092   1.771
88333W        W60758  44.461  13.746  10.918
88334W        W60759  19.579  17.264  12.955
88335W        W60760  37.578  18.572   3.278
88336W        W60761  17.254   9.784  10.562
88337W        W60762  41.447   2.862  12.951
88338W        W60763  36.855  32.460  13.422
88339W        W60764  29.600  15.643   0.424
88340W        W60765  20.057  43.347  14.895
88341W        W60766  27.466  15.747  12.896
88342W        W60767   1.270  42.821  12.082
88343W        W60768  36.069  21.124  14.864
88344W        W60769  30.530   2.295   3.285
88345W        W60770  22.159  42.411  14.344
88346W        W60771  16.628  24.102   4.741
88347W        W60772  24.584   2.860  13.836
88348W        W60773   1.855  17.210   3.352
88349W        W60774  37.380  15.305   4.789
88350W        W60775  35.858  17.289  11.543
88351W        W60776  39.894  43.426   2.873
88352W        W60777  12.147  41.947  11.591
88353W        W60778  37.428  44.833  11.053
88354W        W60779  38.827  35.374  14.816
88355W        W60780  27.578   1.323  11.476
88356W        W60781   0.978  18.647   0.733
88357W        W60782  12.298  17.777   2.294
88358W        W60783   8.894  15.707  10.635
88359W        W60784  12.703  29.960   1.799
88360W        W60785   3.282   7.836   0.746
88361W        W60786  34.529  13.223   4.744
88362W        W60787  18.296  27.452   3.720
88363W        W60788   1.451  43.883   3.335
88364W        W60789  28.562  33.404  14.300
88365W        W60790   2.745  17.238  14.275
88366W        W60791   6.691  18.716   4.615
88367W        W60792  21.643   2.777  10.939
88368W        W60793  37.883  39.500  11.438
88369W        W60794  16.733  29.555  13.513
88370W        W60795  39.995   8.178   3.252
88371W        W60796  11.329  15.329  12.414
88372W        W60797  10.321  30.636  10.944
88373W        W60798  27.099   8.726   3.185
88374W        W60799  29.103  41.509  10.942
88375W        W60800  20.231  37.568   4.741
88376W        W60801  34.604   9.715   2.352
88377W        W60802   3.802   5.345   0.436
88378W        W60803  12.306  11.357   1.248
88379W        W60804  31.975  22.711   4.354
88380W        W60805  44.340  41.445  12.073
88381W        W60806  31.587  18.205  13.545
88382W        W60807   1.433  32.409  13.418
88383W        W60808  30.438  16.781  10.022
88384W        W60809  37.366  13.262   0.281
88385W        W60810  12.790   7.240   1.782
88386W        W60811  27.625   0.973   1.231
88387W        W60812   7.262  10.337   2.685
88388W        W60813   6.354   3.879  12.465
88389W        W60814  33.926  21.188  11.965
88390W        W60815  44.456  10.818  11.470
88391W        W60816  26.515  14.774   1.760
88392W        W60817  18.118  19.101   2.800
88393W        W60818  13.800  30.454   3.677
88394W        W60819  36.904  29.606  14.469
88395W        W60820  29.971   9.858  13.830
88396W        W60821  25.487   3.793   2.828
88397W        W60822  40.944   6.391   4.709
88398W        W60823  38.500   4.400  13.940
88399W        W60824   3.323  16.167  13.052
88400W        W60825  41.963  28.130   4.649
88401W        W60826   4.232  10.876   3.783
88402W        W60827   5.872  23.712  10.505
88403W        W60828   9.793  13.162   4.181
88404W        W60829   1.345  29.609   0.482
88405W        W60830  21.216  44.982   0.285
88406W        W60831  22.160  11.742  11.866
88407W        W60832  19.689  26.093   2.900
88408W        W60833  10.673  38.348   3.327
88409W        W60834  41.787  25.069  13.944
88410W        W60835  38.377  22.714  14.305
88411W        W60836  15.191  11.753  12.016
88412W        W60837  44.917  26.984  11.449
88413W        W60838  11.241  21.065  14.910
88414W        W60839  11.135  37.372  11.973
88415W        W60840  10.213  29.494   0.350
88416W        W60841  31.936  20.660   4.711
88417W        W60842  31.107  35.063   2.201
88418W        W60843   0.396  10.258  12.470
88419W        W60844  29.973  34.954  12.881
88420W        W60845  15.087  19.727   1.935
88421W        W60846  36.041  22.998   9.576
88422W        W60847  13.815  37.572   4.201
88423W        W60848  20.036  40.416  10.984
88424W        W60849   3.768  26.540  14.898
88425W        W60850  33.079  36.936   1.254
88426W        W60851   0.799  10.818   0.763
88427W        W60852  38.521  22.743  13.375
88428W        W60853  24.123  41.927  11.060
88429W        W60854  10.177   8.387   1.697
88430W        W60855  28.075  40.471   1.430
88431W        W60856  14.661  19.053   3.672
88432W        W60857   8.182  23.060   2.383
88433W        W60858  34.500  12.307   4.325
88434W        W60859   1.941   9.876   3.735
88435W        W60860   0.434  19.273   1.698
88436W        W60861  14.322   4.920  13.387
88437W        W60862  30.649  39.004  12.561
88438W        W60863  38.371   2.798   4.124
88439W        W60864  17.764  38.416   4.226
88440W        W60865  39.394   4.354  12.915
88441W        W60866  21.251  14.723   3.166
88442W        W60867   1.975  23.574  12.409
88443W        W60868  16.219  16.092   1.873
88444W        W60869   3.759  31.971   0.460
88445W        W60870  26.671  13.133  13.409
88446W        W60871  13.708  25.181  12.514
88447W        W60872   0.462  16.136  14.761
88448W        W60873  43.868  18.186  14.016
88449W        W60874  15.305  18.083  12.859
88450W        W60875   3.306  21.516  13.925
88451W        W60876  19.156  29.926  10.504
88452W        W60877  40.878  31.933  12.391
88453W        W60878   8.321  13.307   3.849
88454W        W60879   7.242  28.065  14.997
88455W        W60880   6.314  27.175  10.961
88456W        W60881  27.595  15.179   0.739
88457W        W60882  37.452   8.818  12.940
88458W        W60883  34.979  28.100   2.886
88459W        W60884  14.819  18.148  14.899
88460W        W60885  18.702  43.880  13.842
88461W        W60886   9.267  32.096  11.093
88462W        W60887  29.650  34.566  13.434
88463W        W60888   7.352  44.432   4.188
88464W        W60889  40.814  41.897   4.609
88465W        W60890  39.444  13.709   3.318
88466W        W60891  24.121  28.638  13.909
88467W        W60892  12.213   8.867  11.935
88468W        W60893   2.728  34.526   1.741
88469W        W60894  26.477  24.533  12.529
88470W        W60895   6.320  19.059   0.736
88471W        W60896  22.091   1.970   2.786
88472W        W60897  42.907  36.847   4.119
88473W        W60898  29.973  25.182   4.269
88474W        W60899  42.992   7.286   1.800
88475W        W60900  10.814  13.112  12.013
88476W        W60901  41.508  33.918  13.994
88477W        W60902  39.314  16.704   0.817
88478W        W60903   2.423   3.430   2.266
88479W        W60904  17.627  27.991   1.416
88480W        W60905  32.542  41.998   3.669
88481W        W60906   8.373  10.864  11.063
88482W        W60907  28.635  37.501   3.827
88483W        W60908   7.338   1.471  13.794
88484W        W60909  27.639  32.039  11.860
88485W        W60910  44.891  34.993  13.923
88486W        W60911  17.619  42.403   4.327
88487W        W60912  36.033  15.802  14.330
88488W        W60913  38.982  31.084   1.279
88489W        W60914  44.931  30.141   1.882
88490W        W60915   9.771  39.834  13.910
88491W        W60916  27.589  33.019  14.874
88492W        W60917   8.281  37.965   1.899
88493W        W60918  38.838  10.752  13.380
88494W        W60919  22.187  32.094   4.639
88495W        W60920   3.757  41.970  10.610
88496W        W60921  40.509  32.039   3.830
88497W        W60922  27.993  39.531  14.280
88498W        W60923  19.072  29.151   3.155
88499W        W60924  34.434   9.389   2.218
88500W        W60925   0.806  30.102  11.026
88501W        W60926   9.870  13.708  14.993
88502W        W60927  18.788  42.898   1.237
88503W        W60928  12.210  32.597  11.034
88504W        W60929   5.282  10.688   2.216
88505W        W60930   2.953  13.846   4.192
88506W        W60931   4.856  10.637   0.825
88507W        W60932   5.251   2.927   3.271
88508W        W60933   3.288   8.814  13.396
88509W        W60934  44.270  31.421  10.993
88510W        W60935  10.708  26.095  13.463
88511W        W60936   8.175  21.755  13.533
88512W        W60937   0.327  16.626  14.285
88513W        W60938  29.577  30.438  13.956
88514W        W60939  16.797  12.170  11.912
88515W        W60940  40.976  32.477   2.295
88516W        W60941  16.152  43.846  10.422
88517W        W60942   2.754  10.199   0.262
88518W        W60943  32.494  16.155  11.422
88519W        W60944  41.898  12.226   4.286
88520W        W60945  39.889  15.285  13.369
88521W        W60946  35.988  38.550   4.300
88522W        W60947   5.734  33.569  13.510
88523W        W60948  37.485  42.002  11.029
88524W        W60949  12.180   2.727  12.026
88525W        W60950  16.122   8.756   5.115
88526W        W60951  37.972  31.013   2.685
88527W        W60952  10.811  20.758  13.950
88528W        W60953  18.246  12.685  10.638
88529W        W60954   5.287   7.723   0.930
88530W        W60955  33.053  10.290   4.286
88531W        W60956   8.218  33.390  13.854
88532W        W60957  10.815  23.677  10.603
88533W        W60958  33.966  16.801  12.893
88534W        W60959  37.007  15.323   0.755
88535W        W60960  15.231  44.886   1.353
88536W        W60961  44.762  36.012   0.357
88537W        W60962  28.167  14.250   3.656
88538W        W60963  12.778  12.239  13.986
88539W        W60964   5.710  31.446   3.730
88540W        W60965  15.310  11.306   4.123
88541W        W60966  33.889  29.512   3.224
88542W        W60967  38.412  35.379   3.197
88543W        W60968  42.926   7.387  14.394
88544W        W60969  17.257   0.274   3.198
88545W        W60970   2.359  23.201  10.420
88546W        W60971  24.148  33.108  12.430
88547W        W60972  35.945  13.181  12.946
88548W        W60973   6.253  32.031  13.463
88549W        W60974  13.111   1.418  11.600
88550W        W60975  13.795   9.824  13.022
88551W        W60976   7.696  22.020   3.658
88552W        W60977  26.091   0.800   4.719
88553W        W60978   6.214  18.063   0.245
88554W        W60979  11.762  27.081   0.442
88555W        W60980  17.110   7.354  11.967
88556W        W60981   7.189  27.014   1.375
88557W        W60982  42.832  29.957  11.378
88558W        W60983  20.754  24.092  10.561
88559W        W60984   5.301  42.932  13.505
88560W        W60985   4.873  24.148   4.831
88561W        W60986  37.562   1.836  14.969
88562W        W60987   3.294  24.557   3.163
88563W        W60988  20.610  28.563   3.215
88564W        W60989  38.992   7.328  14.312
88565W        W60990   2.354  14.765  14.334
88566W        W60991  18.089  34.420  12.077
88567W        W60992   1.937  16.618   4.147
88568W        W60993  29.008  20.600  14.458
88569W        W60994   2.720  25.665  11.000
88570W        W60995  33.448  14.205   3.350
88571W        W60996  20.054  27.544   3.376
88572W        W60997  32.948   9.785  10.908
88573W        W60998  12.129  15.704   2.725
88574W        W60999  32.915  29.621  14.449
88575W        W61000  21.725   5.300   0.802
88576W        W61001  25.127   5.368   0.244
88577W        W61002  16.632  17.193  11.098
88578W        W61003   3.395  35.525  10.623
88579W        W61004  27.186  11.712   1.374
88580W        W61005  40.380  36.475   1.417
88581W        W61006  19.117   0.781   9.676
88582W        W61007  26.130  43.976  13.977
88583W        W61008  11.337   8.320  10.937
88584W        W61009  32.118   0.483   4.776
88585W        W61010   2.259  21.102  13.398
88586W        W61011  43.017  37.444   3.378
88587W        W61012   4.395   9.186  13.527
88588W        W61013  12.342  36.845  10.508
88589W        W61014  14.766  41.953  13.045
88590W        W61015  32.436  14.706   2.394
88591W        W61016  23.698  31.007  12.061
88592W        W61017   3.220  14.785   2.778
88593W        W61018  31.065  33.971   2.200
88594W        W61019   7.252  31.478  14.818
88595W        W61020   0.348   7.909  11.444
88596W        W61021  42.299  23.602   0.768
88597W        W61022  43.488  27.145  12.907
88598W        W61023   2.349  27.484   2.705
88599W        W61024  36.997  11.246  12.405
88600W        W61025  19.227   2.239   1.240
88601W        W61026  30.119  12.127  10.516
88602W        W61027  29.553  21.108   3.264
88603W        W61028  35.006  16.138  11.005
88604W        W61029   1.280  35.396  13.861
88605W        W61030  15.173   1.326  10.985
88606W        W61031   1.822  34.969  14.439
88607W        W61032  19.254  31.468  14.467
88608W        W61033  42.920   7.346   4.781
88609W        W61034  22.507  35.018   3.217
88610W        W61035   5.740  19.564   4.220
88611W        W61036  17.562  42.792  13.919
88612W        W61037  27.165  42.863   2.664
88613W        W61038  12.272  15.674   3.822
88614W        W61039  30.978  18.785   1.378
88615W        W61040  40.824  20.702   3.768
88616W        W61041  42.379  38.966  14.839
88617W        W61042  41.489  20.655   3.153
88618W        W61043   5.690  23.045   1.289
88619W        W61044  19.706  29.510   4.238
88620W        W61045  16.574  42.440  10.570
88621W        W61046   2.425   6.275  10.602
88622W        W61047  22.622  36.509  10.590
88623W        W61048   7.417   3.862   2.296
88624W        W61049  20.082  44.858  12.079
88625W        W61050  16.728  32.489  11.001
88626W        W61051   8.790  22.093   3.273
88627W        W61052   3.732  28.072   9.982
88628W        W61053   7.367  16.693  10.983
88629W        W61054  27.068   3.898  13.058
88630W        W61055   6.911  14.831  13.032
88631W        W61056  22.131   4.914  14.432
88632W        W61057  35.045   6.751  13.354
88633W        W61058  23.721   0.834   3.227
88634W        W61059   9.733  19.126   3.299
88635W        W61060   4.813   3.296   2.756
88636W        W61061  10.287  28.965   2.258
88637W        W61062   0.964   2.778   1.377
88638W        W61063  10.263  27.972   0.381
88639W        W61064  21.195   4.828  14.506
88640W        W61065   7.195  22.663   0.405
88641W        W61066  41.379  15.233  13.843
88642W        W61067  10.351  27.049   2.178
88643W        W61068  19.738  10.868  11.402
88644W        W61069  21.034  15.807  11.391
88645W        W61070  23.242  39.989  11.022
88646W        W61071  20.753  38.037   4.769
88647W        W61072  15.612  21.128  14.375
88648W        W61073   2.273  13.302  10.469
88649W        W61074  13.266  36.502  12.513
88650W        W61075  15.238  14.174   4.709
88651W        W61076   0.953   0.310  13.043
88652W        W61077   5.423  25.678  13.857
88653W        W61078  22.732   4.397  12.557
88654W        W61079   8.821  13.320  13.810
88655W        W61080   4.865  30.594   3.868
88656W        W61081  22.529  24.982  11.106
88657W        W61082  22.073  22.202   1.923
88658W        W61083  27.623  43.438  11.570
88659W        W61084  41.508  16.775  14.292
88660W        W61085  31.590  22.145   3.367
88661W        W61086  32.077   7.359  13.357
88662W        W61087  20.587  26.463   3.358
88663W        W61088  41.940  14.623   1.752
88664W        W61089  23.207  30.069  12.379
88665W        W61090  22.090  13.767  12.020
88666W        W61091  14.251  36.913  12.877
88667W        W61092  40.935  17.598  12.571
88668W        W61093  26.633  11.779  13.884
88669W        W61094  10.752   3.324   1.720
88670W        W61095   7.261  11.159   4.306
88671W        W61096  30.021  27.973  14.988
88672W        W61097   4.410  10.665   3.217
88673W        W61098  12.739  21.107   2.415
88674W        W61099  38.855  25.995   4.701
88675W        W61100  39.059  16.571  12.490
88676W        W61101  19.186  27.579  14.355
88677W        W61102  29.440   8.387   0.887
88678W        W61103  22.593  13.195   0.338
88679W        W61104   5.345  39.384   2.297
88680W        W61105  32.462  16.608   4.279
88681W        W61106  20.028  22.636  10.612
88682W        W61107  35.854  25.098  14.936
88683W        W61108  26.187   5.434   3.371
88684W        W61109  42.971  40.368  13.956
88685W        W61110  41.868   0.367  13.406
88686W        W61111  10.237  40.431  11.512
88687W        W61112  20.049  38.876   1.325
88688W        W61113  37.018  24.027  12.378
88689W        W61114  42.402   1.805  12.912
88690W        W61115  13.650  42.281   0.404
88691W        W61116  34.904  43.423   4.280
88692W        W61117  33.983  36.381   4.249
88693W        W61118  33.436  29.573  12.965
88694W        W61119   6.322  24.164   3.858
88695W        W61120  19.263   9.667  13.007
88696W        W61121  35.437  41.990  14.779
88697W        W61122  26.624   8.667  11.010
88698W        W61123  15.238  42.871  14.844
88699W        W61124   4.912   0.958  13.829
88700W        W61125  14.797  31.130  11.499
88701W        W61126  44.345  10.286   1.268
88702W        W61127  21.621  39.355  14.891
88703W        W61128  27.029  23.222  10.424
88704W        W61129  28.111   5.720   0.431
88705W        W61130  13.192  43.305  10.520
88706W        W61131   2.955  28.055  11.456
88707W        W61132  35.539  13.132  12.846
88708W        W61133  22.601  15.275  10.908
88709W        W61134   9.849   5.328   4.699
88710W        W61135   7.836  23.618   1.729
88711W        W61136   3.879  16.746  14.296
88712W        W61137  22.048  18.123   1.741
88713W        W61138  26.955  25.133   2.881
88714W        W61139  24.575  30.107   1.283
88715W        W61140  19.779   8.759   3.780
88716W        W61141   2.946  34.987   2.241
88717W        W61142  15.782  31.452  10.080
88718W        W61143   9.677  11.367   0.966
88719W        W61144  42.285  15.221  14.452
88720W        W61145  23.066  13.294  10.953
88721W        W61146  23.662   3.456   2.674
88722W        W61147  43.888  15.815  10.614
88723W        W61148   0.778  17.139   3.375
88724W        W61149  27.091  16.076  14.338
88725W        W61150  24.505  38.874  10.636
88726W        W61151  41.030  44.432   9.968
88727W        W61152  38.535  21.056  13.414
88728W        W61153  33.565  27.503   2.347
88729W        W61154  43.814   4.799   0.909
88730W        W61155  16.673  18.206  13.472
88731W        W61156  12.301   5.333  13.901
88732W        W61157  13.621   4.443  11.025
88733W        W61158  30.021  32.442  11.110
88734W        W61159   0.491  30.468   5.309
88735W        W61160  11.304  43.986  12.387
88736W        W61161  17.153   9.267   3.779
88737W        W61162   1.940  40.996   0.363
88738W        W61163  15.816  13.724   0.853
88739W        W61164   4.450  26.539   4.249
88740W        W61165  16.183  42.929  11.097
88741W        W61166  29.924  25.167  12.856
88742W        W61167  27.145   9.791  14.015
88743W        W61168  38.833  33.967  10.454
88744W        W61169   9.276   2.460  14.896
88745W        W61170  41.434  41.931   3.652
88746W        W61171  40.841  31.622   2.346
88747W        W61172  13.172  22.192   0.305
88748W        W61173  39.848  13.297  13.001
88749W        W61174  25.101  20.092   2.716
88750W        W61175  25.062  33.409  12.363
88751W        W61176  37.379   8.870  10.945
88752W        W61177  43.822  40.521   4.167
88753W        W61178  40.992  41.860  10.564
88754W        W61179   1.322  39.827   2.278
88755W        W61180  44.846  37.522  11.603
88756W        W61181  33.029  30.608  13.897
88757W        W61182  10.158  39.999   1.306
88758W        W61183  22.634  19.250   1.307
88759W        W61184  22.205  44.453   3.862
88760W        W61185  33.102  11.673   1.831
88761W        W61186  16.608  39.040  10.502
88762W        W61187  27.599  44.918   0.845
88763W        W61188  25.517   6.349  12.917
88764W        W61189  36.855  10.761  11.062
88765W        W61190  17.084  41.338   0.760
88766W        W61191  20.130  40.966   1.217
88767W        W61192  13.700  25.132  13.015
88768W        W61193   7.720  12.661  11.036
88769W        W61194  44.915  13.233  11.377
88770W        W61195   6.790  11.249   3.236
88771W        W61196  40.476  27.650  11.890
88772W        W61197   9.795   5.854   5.307
88773W        W61198  23.572  20.738  11.384
88774W        W61199  20.059  32.016   0.828
88775W        W61200  10.197  11.739   2.732
88776W        W61201  40.823  34.582  11.990
88777W        W61202   0.345  25.986  12.485
88778W        W61203  38.055  15.328  14.002
88779W        W61204  35.994  28.940   3.174
88780W        W61205   5.424  26.205  14.869
88781W        W61206  37.404  41.963  12.890
88782W        W61207  44.879   5.771  11.399
88783W        W61208   6.782  27.142   0.861
88784W        W61209  10.778  20.692   2.233
88785W        W61210   7.835  24.149   4.353
88786W        W61211  40.005  28.667  10.550
88787W        W61212  10.750   1.467   1.717
88788W        W61213  18.700  29.922  11.901
88789W        W61214  38.048   8.890  11.399
88790W        W61215   8.707   7.340   4.196
88791W        W61216  38.456  43.354  12.981
88792W        W61217  15.264  22.569   0.458
88793W        W61218  26.175  34.869  13.900
88794W        W61219  10.642   1.912  12.983
88795W        W61220  19.557  13.818  14.362
88796W        W61221   8.268  22.213  10.983
88797W        W61222  24.159  26.577   2.342
88798W        W61223  43.465   5.270   0.290
88799W        W61224  26.031  33.526   0.277
88800W        W61225  23.023   0.790  14.977
88801W        W61226  10.701  15.255  14.506
88802W        W61227  18.558   8.894  13.793
88803W        W61228  33.910  11.795  12.520
88804W        W61229  44.799  44.499  14.022
88805W        W61230  34.049  36.055   0.463
88806W        W61231   3.754  36.990   2.198
88807W        W61232   7.310   7.308   1.424
88808W        W61233   6.917  15.089  13.480
88809W        W61234   9.222  38.524  14.335
88810W        W61235  28.105  22.608   2.224
88811W        W61236  31.929  35.379  12.082
88812W        W61237   7.871  30.006   4.175
88813W        W61238  35.897  34.525   0.391
88814W        W61239  18.627  33.969  14.463
88815W        W61240  20.707  12.760  14.798
88816W        W61241  22.186  21.133   3.827
88817W        W61242  37.863  41.396  13.374
88818W        W61243   0.267  44.991  13.484
88819W        W61244  44.293   8.790  12.357
88820W        W61245  32.569  38.046   1.378
88821W        W61246  41.910  44.319  13.977
88822W        W61247  24.620  18.691   3.663
88823W        W61248  37.338  35.988  12.853
88824W        W61249  25.200   9.174   1.223
88825W        W61250   5.211  16.764   2.305
88826W        W61251  22.678  24.610  13.407
88827W        W61252  38.027   5.823   0.448
88828W        W61253  10.211  29.149  14.810
88829W        W61254  12.184  37.460  12.510
88830W        W61255   0.766  14.252  14.986
88831W        W61256  25.667  20.135   1.362
88832W        W61257  15.227  36.508  14.783
88833W        W61258  30.066  14.728   2.296
88834W        W61259   6.193  41.482   2.221
88835W        W61260   2.387  36.421  13.417
88836W        W61261  23.688  36.387  13.028
88837W        W61262  15.232   7.231   4.352
88838W        W61263  35.382  22.565   4.837
88839W        W61264  43.456  16.202   3.220
88840W        W61265  27.530  35.050   4.346
88841W        W61266  11.142  36.526   4.207
88842W        W61267   0.981   2.787  11.858
88843W        W61268   3.344  27.663   4.305
88844W        W61269  11.353  15.786  12.431
88845W        W61270   3.363  24.035   3.170
88846W        W61271  18.770  31.909  12.361
88847W        W61272  37.350   0.403  11.528
88848W        W61273   8.869  27.118  14.927
88849W        W61274  35.399  35.387   1.716
88850W        W61275  38.959   2.324  14.299
88851W        W61276  44.421   0.910  11.437
88852W        W61277  25.216  39.443  13.536
88853W        W61278  32.078  37.979  13.315
88854W        W61279   4.403  35.512   0.826
88855W        W61280  43.457  20.522  10.564
88856W        W61281  42.905  23.078  14.948
88857W        W61282  29.069  29.064  13.014
88858W        W61283  10.671  25.709  11.867
88859W        W61284   2.888  12.115   2.670
88860W        W61285  43.343  12.197  14.397
88861W        W61286  38.400   6.354  11.014
88862W        W61287  12.708   4.837   4.664
88863W        W61288  34.525  34.543   1.791
88864W        W61289  35.973   4.299  10.916
88865W        W61290   7.850  32.597  11.406
88866W        W61291  39.015  37.051  13.469
88867W        W61292   4.920  38.904   3.345
88868W        W61293  30.948  39.418   3.737
88869W        W61294  28.110   4.819  11.977
88870W        W61295  26.963  40.947  13.435
88871W        W61296  12.178   3.381  12.513
88872W        W61297  43.387  44.817   4.763
88873W        W61298  38.374  28.617   1.381
88874W        W61299   1.926   4.721  12.924
88875W        W61300  20.152  13.129   0.325
88876W        W61301  36.941   8.684   3.821
88877W        W61302  40.514  25.989   0.329
88878W        W61303  41.024  22.739   0.884
88879W        W61304  25.614  43.401  10.968
88880W        W61305  26.633   0.419   4.354
88881W        W61306   4.727   7.796  10.890
88882W        W61307  17.116  27.564   0.467
88883W        W61308  41.943  39.015   4.274
88884W        W61309  34.957  23.532   1.321
88885W        W61310  27.122  26.018  13.978
88886W        W61311  37.541   3.364  13.443
88887W        W61312  41.303  33.508  11.978
88888W        W61313  13.125  16.187   4.698
88889W        W61314  18.722  13.311  11.555
88890W        W61315  38.018   4.915  14.810
88891W        W61316  44.875  38.049  11.117
88892W        W61317  16.786  22.606  14.820
88893W        W61318  21.745   6.253   0.813
88894W        W61319   2.255   0.963   0.795
88895W        W61320  29.956  14.153   2.665
88896W        W61321  42.844   5.370  13.056
88897W        W61322   7.670  29.655  11.049
88898W        W61323  40.888  39.316  14.349
88899W        W61324   2.227  21.526  14.290
88900W        W61325  17.074  10.245   1.237
88901W        W61326   7.224  22.199  14.420
88902W        W61327  32.965  38.516   1.694
88903W        W61328  10.680   3.454   0.786
88904W        W61329  15.660  31.475   2.395
88905W        W61330  30.523  33.547   4.334
88906W        W61331  42.351  17.180  13.416
88907W        W61332  32.626  27.576  10.457
88908W        W61333  42.441  27.010   3.759
88909W        W61334  20.149  15.194  14.406
88910W        W61335  17.574   8.183   2.223
88911W        W61336  22.653  32.001  11.401
88912W        W61337   1.820  31.432  13.819
88913W        W61338  12.356  42.385   3.799
88914W        W61339   1.778   9.363   1.705
88915W        W61340  25.142  20.250  14.416
88916W        W61341  25.488   5.228  14.871
88917W        W61342  10.758  33.427  11.987
88918W        W61343   9.762   2.389  13.926
88919W        W61344  14.193  12.810  13.534
88920W        W61345   1.898   5.756   2.887
88921W        W61346  35.368  32.118   2.776
88922W        W61347  11.145  13.648   4.642
88923W        W61348  31.546  18.558  11.419
88924W        W61349  10.757  16.667   0.907
88925W        W61350   1.765  40.493  11.996
88926W        W61351   3.768  31.151   4.129
88927W        W61352  11.134  12.655  12.914
88928W        W61353  27.056   2.255   2.205
88929W        W61354  39.373  11.791  14.825
88930W        W61355  44.981  43.407   3.166
88931W        W61356  21.721  22.547  11.011
88932W        W61357  31.053  30.052   0.810
88933W        W61358  42.958   7.903   2.779
88934W        W61359   9.362  28.580  12.448
88935W        W61360  27.075  15.168   3.154
88936W        W61361  32.938   4.874  11.577
88937W        W61362  27.644   4.723  12.859
88938W        W61363  12.763  24.000   2.858
88939W        W61364  15.591   7.410  12.925
88940W        W61365  15.256  12.128   1.904
88941W        W61366  39.036   2.357   3.649
88942W        W61367   9.229   8.894   9.588
88943W        W61368  22.680   3.354  14.935
88944W        W61369  20.244  28.444   2.739
88945W        W61370  26.055   4.385   1.800
88946W        W61371   8.381  18.261   4.608
88947W        W61372  10.856   8.209  12.956
88948W        W61373  29.029  39.393   1.873
88949W        W61374  36.534  21.592   0.369
88950W        W61375   1.412  40.850  14.787
88951W        W61376   4.926  23.591  11.449
88952W        W61377  31.962  12.838   4.253
88953W        W61378   2.819   9.763   1.728
88954W        W61379   4.820  34.553   1.880
88955W        W61380  43.331  44.460  12.943
88956W        W61381  16.109  22.732  10.118
88957W        W61382  13.343  13.602  13.858
88958W        W61383  35.365  39.959  14.335
88959W        W61384  42.954   7.368  12.879
88960W        W61385  19.113  44.909   0.916
88961W        W61386  16.767  44.915   2.250
88962W        W61387  18.057  27.501   2.232
88963W        W61388  28.048  36.488   0.260
88964W        W61389  38.833  36.355  11.555
88965W        W61390  10.275   0.248   0.320
88966W        W61391  31.481  23.079  12.070
88967W        W61392   3.284  41.001   3.753
88968W        W61393  23.124   7.734   5.593
88969W        W61394  44.876  38.565   3.663
88970W        W61395  21.019  27.074  13.350
88971W        W61396  18.208   0.288  12.016
88972W        W61397  30.522  42.891  11.878
88973W        W61398   7.388   8.673  10.588
88974W        W61399  31.419  40.549   3.203
88975W        W61400  11.643  11.344  11.122
88976W        W61401  22.746  15.607   1.264
88977W        W61402  25.712   0.824   1.843
88978W        W61403  36.441   8.295  13.865
88979W        W61404   3.429   9.206   3.731
88980W        W61405   8.219  19.204   4.726
88981W        W61406   6.782  20.072   4.661
88982W        W61407  40.443  25.710  13.818
88983W        W61408  14.312  16.279   4.632
88984W        W61409  11.261  20.221   4.705
88985W        W61410  24.541  34.465  14.474
88986W        W61411  33.386  18.626   1.407
88987W        W61412  15.304  33.040  10.575
88988W        W61413  35.506  30.987  12.572
88989W        W61414  16.163   7.850   1.862
88990W        W61415  33.955  31.122  12.846
88991W        W61416  16.098  27.028  12.409
88992W        W61417  37.463  19.072  11.090
88993W        W61418   2.841  10.368  14.291
88994W        W61419   7.896  33.988   0.467
88995W        W61420  16.761   6.869   0.964
88996W        W61421  37.849   6.247  12.092
88997W        W61422  15.203  24.226   3.790
88998W        W61423  25.091   3.219   3.849
88999W        W61424  40.505  32.023  11.864
89000W        W61425  32.452  37.463  14.292
89001W        W61426  12.632   2.853  11.873
89002W        W61427  17.171  34.917   2.873
89003W        W61428  13.840  31.003  10.960
89004W        W61429  10.713  21.052   4.148
89005W        W61430   3.876  18.604   3.155
89006W        W61431  32.568  15.659  11.429
89007W        W61432  21.241  13.257  11.586
89008W        W61433   2.406  18.091   3.705
89009W        W61434  36.516   5.404  13.381
89010W        W61435  20.581  18.560   0.877
89011W        W61436  44.469   7.239  12.982
89012W        W61437  24.096  32.468  13.535
89013W        W61438   9.171   3.316  12.019
89014W        W61439   7.242   8.682  12.510
89015W        W61440   4.379  16.281   0.754
89016W        W61441  38.035  42.782   1.932
89017W        W61442  40.318   3.329   5.308
89018W        W61443  36.964  32.510   2.790
89019W        W61444  38.340  23.133   4.198
89020W        W61445  41.935  16.627   1.418
89021W        W61446  31.057   6.221   2.224
89022W        W61447  29.618  37.966  13.491
89023W        W61448  18.100  32.506  13.334
89024W        W61449  26.601  14.640   2.692
89025W        W61450  15.685  25.064  12.832
89026W        W61451  14.778  28.066  10.510
89027W        W61452   7.342  29.986  14.280
89028W        W61453  39.897  19.119   1.369
89029W        W61454  17.174  43.351  12.011
89030W        W61455  16.223  14.203  11.048
89031W        W61456   4.207  27.483   0.748
89032W        W61457   6.888  13.139  11.444
89033W        W61458  29.547  17.224  14.986
89034W        W61459  15.135  26.995  13.882
89035W        W61460  25.001  26.084  10.584
89036W        W61461  39.978  31.992   1.852
89037W        W61462  25.603  20.104   0.728
89038W        W61463  30.913  44.501  14.989
89039W        W61464  13.345  13.672  10.522
89040W        W61465  18.179   0.400   4.133
89041W        W61466  10.838  33.100   2.253
89042W        W61467  35.870   3.249  12.378
89043W        W61468  31.065  14.659   1.214
89044W        W61469   5.723  12.311   3.785
89045W        W61470  28.048  13.759  14.985
89046W        W61471  27.609  42.502   2.868
89047W        W61472  40.459  43.764  10.958
89048W        W61473  40.993  31.074  13.021
89049W        W61474  41.897  31.527   4.655
89050W        W61475  37.562  39.942  10.503
89051W        W61476  13.339  30.579   3.171
89052W        W61477  23.204  20.125  11.106
89053W        W61478  35.443  38.050   4.786
89054W        W61479  22.718  11.188  14.416
89055W        W61480   8.809  36.011  13.314
89056W        W61481   9.196  15.691  13.363
89057W        W61482  26.636  33.472  14.328
89058W        W61483  44.261  27.586  14.282
89059W        W61484  34.881   5.797  11.108
89060W        W61485   1.962  34.118  11.892
89061W        W61486  32.611   3.715  13.001
89062W        W61487   6.894  11.188   4.753
89063W        W61488  38.515   2.894  10.893
89064W        W61489  42.421  19.147   3.266
89065W        W61490  18.564  26.605   0.747
89066W        W61491  30.458   0.756  12.958
89067W        W61492  20.204  39.332  13.359
89068W        W61493  16.244  41.331   5.261
89069W        W61494  21.034  17.582  12.412
89070W        W61495  44.283  40.430  14.773
89071W        W61496  27.049  15.674   4.835
89072W        W61497  27.659  40.461   1.267
89073W        W61498  24.673  36.576  14.857
89074W        W61499  25.560  34.541  13.800
89075W        W61500   9.259   9.362  12.884
89076W        W61501  32.466  27.094  14.999
89077W        W61502  38.428  43.320  11.562
89078W        W61503   8.742  12.279   3.774
89079W        W61504  33.059  18.631  13.413
89080W        W61505   4.856  31.066   4.676
89081W        W61506   6.301  42.931   1.696
89082W        W61507  10.162  31.552   0.387
89083W        W61508  30.139  10.171  10.541
89084W        W61509  34.414   7.875  12.377
89085W        W61510   7.823   2.826  13.007
89086W        W61511  44.303  21.668  13.004
89087W        W61512  11.141  35.488  14.817
89088W        W61513  15.243   8.831   3.334
89089W        W61514  13.706  25.132   2.776
89090W        W61515  34.120  43.490   3.269
89091W        W61516  28.484  26.106  11.868
89092W        W61517  35.369   3.906   0.894
89093W        W61518   3.313  18.133   2.181
89094W        W61519  22.513   0.477   4.746
89095W        W61520   4.218  17.307   0.455
89096W        W61521   5.198  28.012   4.329
89097W        W61522  25.167  13.326  10.526
89098W        W61523   8.282  22.672  12.346
89099W        W61524  18.230   9.200   0.353
89100W        W61525  41.386  25.166  12.959
89101W        W61526   6.705  36.590  12.092
89102W        W61527  24.556  25.987   4.778
89103W        W61528  18.635  21.572   2.184
89104W        W61529  22.516  40.814  12.020
89105W        W61530  31.524  10.829  11.072
89106W        W61531  36.097  10.281   4.781
89107W        W61532  11.181  27.533   1.273
89108W        W61533   3.852  23.235   0.906
89109W        W61534  12.734  30.918   1.869
89110W        W61535  44.369   7.279  13.538
89111W        W61536  43.007  12.260  11.385
89112W        W61537  18.716  36.541  13.010
89113W        W61538  43.427   9.741   2.745
89114W        W61539  35.603  23.621  10.091
89115W        W61540   7.256  21.609  11.862
89116W        W61541  31.121  17.127   2.720
89117W        W61542  22.626  29.564   2.756
89118W        W61543  28.594  22.105  12.916
89119W        W61544  21.174   8.397   3.835
89120W        W61545   5.366   1.381   0.436
89121W        W61546   8.729  22.625   5.175
89122W        W61547   0.480  31.644   3.302
89123W        W61548  27.059  25.543  12.416
89124W        W61549  27.474  36.874   2.198
89125W        W61550  17.750  39.061  12.082
89126W        W61551  34.396   1.460  13.892
89127W        W61552  17.641  18.576   4.775
89128W        W61553   0.420  35.413   1.217
89129W        W61554  12.688  36.553   2.738
89130W        W61555  28.089  39.938  13.401
89131W        W61556  39.503  44.942  11.048
89132W        W61557  39.830  17.153  12.939
89133W        W61558  26.604  26.148  12.419
89134W        W61559  15.164  44.315   4.741
89135W        W61560  29.030   7.755   1.395
89136W        W61561  17.579  24.655  12.563
89137W        W61562  31.438   8.676   5.233
89138W        W61563  17.564  20.550  12.091
89139W        W61564  21.033  19.619  11.584
89140W        W61565  19.230  16.737   3.384
89141W        W61566  14.216  25.062  14.959
89142W        W61567  39.397  14.294   4.748
89143W        W61568   8.882  26.084   4.611
89144W        W61569  25.651  14.823   3.815
89145W        W61570  27.628   8.184   3.297
89146W        W61571  44.449  44.939  13.497
89147W        W61572  11.178  41.954  13.358
89148W        W61573  13.615   7.252  11.105
89149W        W61574  19.779  24.685   1.357
89150W        W61575  15.151  27.965  12.950
89151W        W61576  35.553  22.182   0.957
89152W        W61577  28.661   2.826   4.793
89153W        W61578  21.642  27.165  12.979
89154W        W61579  28.549  20.652   2.839
89155W        W61580  15.281   4.871   3.765
89156W        W61581  34.499  23.054  13.848
89157W        W61582  32.626   2.280  11.447
89158W        W61583  35.369  22.197  12.037
89159W        W61584   9.719  40.890  12.866
89160W        W61585  25.678  21.727   2.402
89161W        W61586  38.519  23.106   4.698
89162W        W61587  30.158  14.749   1.262
89163W        W61588  16.276   3.930  11.865
89164W        W61589  38.548  10.327  12.417
89165W        W61590  13.764  27.644   4.826
89166W        W61591  12.788   2.836  12.975
89167W        W61592  42.917  37.349   9.933
89168W        W61593  36.497  28.446  14.029
89169W        W61594  42.517   8.846  11.028
89170W        W61595  20.195  22.567   0.242
89171W        W61596   0.874   8.899   0.787
89172W        W61597  40.444  18.065   1.448
89173W        W61598  27.486  11.313   0.269
89174W        W61599  32.540  16.143   0.297
89175W        W61600   8.197  16.588  13.494
89176W        W61601   1.464   9.683  13.429
89177W        W61602  31.503  19.625   1.433
89178W        W61603  38.913   7.240   9.962
89179W        W61604   4.838  15.661   2.723
89180W        W61605   2.730  43.498  13.986
89181W        W61606   4.214  34.458   1.220
89182W        W61607  28.469   9.681  11.056
89183W        W61608   9.823  32.599   2.402
89184W        W61609   8.744  15.125  10.895
89185W        W61610  40.895   7.806   4.180
89186W        W61611  29.556  25.171  13.841
89187W        W61612   4.449  21.668   1.426
89188W        W61613  16.761  17.271  14.933
89189W        W61614  21.597  20.553   2.892
89190W        W61615  23.615  37.351  12.033
89191W        W61616  39.009  15.316  14.936
89192W        W61617   4.855  23.646  10.020
89193W        W61618  40.822  10.833  10.498
89194W        W61619   3.864  23.170   1.749
89195W        W61620  32.620  18.066   1.853
89196W        W61621  14.124  10.841   4.114
89197W        W61622  38.999   4.224  14.764
89198W        W61623   4.238   3.376  13.468
89199W        W61624  36.056  22.022   3.814
89200W        W61625  17.615   9.836  10.549
89201W        W61626  43.389   7.685  10.460
89202W        W61627   4.412   5.750   1.907
89203W        W61628  33.995   1.369  14.915
89204W        W61629  33.583  18.622   4.630
89205W        W61630  31.428  18.707  12.000
89206W        W61631  11.308  37.998  11.575
89207W        W61632  10.222  36.455  14.343
89208W        W61633  32.934  16.761   4.187
89209W        W61634  41.789  36.515  14.327
89210W        W61635   8.879  12.712   0.862
89211W        W61636  18.760   6.903   1.240
89212W        W61637   2.796  19.712  13.801
89213W        W61638  14.202  14.781  12.496
89214W        W61639  21.550  38.339   4.602
89215W        W61640  31.030  35.090  14.393
89216W        W61641  21.206  31.980  10.934
89217W        W61642  16.096  31.086  14.331
89218W        W61643  28.572  18.252   1.340
89219W        W61644  19.538  38.963   3.246
89220W        W61645  37.052  34.480   0.431
89221W        W61646   8.694  33.045  14.807
89222W        W61647  34.554  14.115  11.527
89223W        W61648  25.096  23.062   2.696
89224W        W61649  38.051  39.469   3.229
89225W        W61650  23.640   0.250   0.880
89226W        W61651  24.023  28.999  12.915
89227W        W61652  23.098  27.642   3.664
89228W        W61653  38.543  23.009   1.219
89229W        W61654  12.353  43.962   4.610
89230W        W61655  18.059   1.813  13.539
89231W        W61656  44.755  10.681   2.738
89232W        W61657  21.530  20.119  13.386
89233W        W61658  10.761   4.724  14.845
89234W        W61659   0.408  16.584   3.257
89235W        W61660   3.385  11.628   3.267
89236W        W61661  26.994   8.360  11.042
89237W        W61662  17.595   2.943   3.260
89238W        W61663  10.252  28.170   4.133
89239W        W61664  12.626  43.855  13.503
89240W        W61665   1.867   3.797   1.358
89241W        W61666  28.172   0.494   1.894
89242W        W61667  19.765   4.324  10.522
89243W        W61668   5.268  15.775   1.290
89244W        W61669  35.482   3.711   4.814
89245W        W61670  29.147  28.579  12.401
89246W        W61671   2.808  13.702   1.860
89247W        W61672   9.210  26.168   2.402
89248W        W61673  21.056   2.853   1.424
89249W        W61674  21.688  38.520  11.575
89250W        W61675  33.065  23.094  13.965
89251W        W61676  30.516  41.300  13.388
89252W        W61677  13.203  24.099   0.915
89253W        W61678   4.254   5.406  10.440
89254W        W61679  12.128  31.616   2.243
89255W        W61680  33.894  43.949  14.809
89256W        W61681  11.304   6.902   4.729
89257W        W61682   0.292  36.066  11.471
89258W        W61683  19.603  38.010   3.803
89259W        W61684  30.552  12.643   2.338
89260W        W61685  33.452   3.348   2.283
89261W        W61686  39.999  11.205  14.280
89262W        W61687   6.293  41.409  12.002
89263W        W61688  29.120  16.641  14.892
89264W        W61689  36.996  13.657   1.752
89265W        W61690   3.846  26.102   4.355
89266W        W61691   6.365  15.106  14.370
89267W        W61692   7.384   6.278  13.515
89268W        W61693  13.319  26.590   3.253
89269W        W61694  10.179  33.068  14.811
89270W        W61695  11.161   5.255   0.819
89271W        W61696   5.880  34.011   2.797
89272W        W61697  39.486  19.580  12.549
89273W        W61698   9.842  15.658  11.408
89274W        W61699  27.687  29.519   3.236
89275W        W61700  21.519   6.188  14.888
89276W        W61701  41.411  18.238  10.633
89277W        W61702  32.102  26.046  12.948
89278W        W61703  11.792  20.180  14.008
89279W        W61704   5.726   9.680   0.385
89280W        W61705  39.313  29.426  11.952
89281W        W61706   1.478  37.054  13.946
89282W        W61707  44.402  21.672  12.487
89283W        W61708  38.893  34.503  13.397
89284W        W61709  36.440  17.080   3.645
89285W        W61710  10.810  35.583   0.455
89286W        W61711  38.855  43.881  10.495
89287W        W61712  25.198  10.366   2.327
89288W        W61713  31.459  31.405   1.363
89289W        W61714  43.881  12.295   4.253
89290W        W61715  41.975  14.109  13.807
89291W        W61716  15.233  39.394  11.990
89292W        W61717  43.362  40.828   2.702
89293W        W61718  41.393  44.271  11.976
89294W        W61719  16.085   4.797   1.705
89295W        W61720  40.424  38.455   1.344
89296W        W61721   9.371  20.689   0.811
89297W        W61722  24.486  28.120   0.756
89298W        W61723   7.322  35.939   2.411
89299W        W61724  38.567  12.194  13.968
89300W        W61725  17.663  24.135  11.991
89301W        W61726  39.999  44.882   3.193
89302W        W61727   2.720  28.065   2.792
89303W        W61728  26.202  35.873  12.524
89304W        W61729  19.152  17.064  10.612
89305W        W61730  44.384  36.408  11.441
89306W        W61731  13.232  23.650   3.842
89307W        W61732  16.662  28.527   2.809
89308W        W61733  44.765   7.386   0.427
89309W        W61734  14.682  28.001   3.830
89310W        W61735  18.260  12.844   4.136
89311W        W61736  21.243  41.799  11.088
89312W        W61737  11.690   5.871  14.308
89313W        W61738   1.974  40.851   1.857
89314W        W61739  29.164  20.188  13.963
89315W        W61740   5.714  16.213  13.914
89316W        W61741  19.080  22.558   3.193
89317W        W61742  23.167  38.876  10.960
89318W        W61743  25.074  43.470  12.391
89319W        W61744  27.590  24.482   3.680
89320W        W61745  11.640  44.437   5.291
89321W        W61746   4.324  36.873  14.012
89322W        W61747  14.338   3.415  10.040
89323W        W61748  42.002   0.763   1.843
89324W        W61749   6.213  24.513   4.131
89325W        W61750  24.695  38.331  13.489
89326W        W61751   2.243  12.680  13.320
89327W        W61752  41.490  30.459   1.250
89328W        W61753  39.337  41.489   4.702
89329W        W61754   4.423  38.068   1.814
89330W        W61755   3.716  21.156   4.797
89331W        W61756  27.010   7.404  10.899
89332W        W61757  34.041   4.232   0.752
89333W        W61758  12.306   5.865   2.270
89334W        W61759   1.845  38.500   1.776
89335W        W61760   0.479   1.871   4.660
89336W        W61761  30.479  42.960   2.386
89337W        W61762  10.811  30.420   2.337
89338W        W61763  29.501  43.475  10.550
89339W        W61764  18.558   2.437   0.941
89340W        W61765   4.359  23.658  13.996
89341W        W61766  40.393  12.291  12.557
89342W        W61767  39.038  34.517  11.607
89343W        W61768  41.351  22.546  12.366
89344W        W61769  35.100  18.130  12.040
89345W        W61770  29.994   6.342  14.433
89346W        W61771  17.754  10.200  10.510
89347W        W61772  24.070  11.805  13.026
89348W        W61773  43.827  31.023  12.899
89349W        W61774  16.717  22.527   4.612
89350W        W61775  42.806  27.518   2.318
89351W        W61776  23.042  24.686   2.357
89352W        W61777  30.040  38.846   0.365
89353W        W61778  37.420  37.537   2.688
89354W        W61779  10.330   8.737   3.275
89355W        W61780  28.068  19.561   0.283
89356W        W61781  17.135  30.987   3.829
89357W        W61782  28.552  24.191  11.490
89358W        W61783   4.210  22.038   0.935
89359W        W61784   2.881  20.634   0.843
89360W        W61785  35.444  18.787  12.942
89361W        W61786  21.204  32.585  12.950
89362W        W61787  36.354  43.765   3.150
89363W        W61788  36.856  44.427   3.802
89364W        W61789  13.123  35.011   4.627
89365W        W61790  33.011  28.487   3.735
89366W        W61791   2.357   9.181   3.864
89367W        W61792  41.940  20.135  12.069
89368W        W61793  17.767  10.742  11.549
89369W        W61794   5.264  15.596  12.888
89370W        W61795  41.859  41.371   0.766
89371W        W61796  28.184  14.695   1.770
89372W        W61797  13.340   4.788   2.830
89373W        W61798  40.337  21.063  14.338
89374W        W61799  28.609  22.616   2.709
89375W        W61800  30.008  24.697  13.517
89376W        W61801  24.077   8.887   1.700
89377W        W61802  36.014  25.095  11.866
89378W        W61803  22.588  12.626   2.273
89379W        W61804  34.994  33.447  10.115
89380W        W61805   4.765  27.553  14.835
89381W        W61806  18.219  43.315  14.029
89382W        W61807  19.259  40.985  12.874
89383W        W61808   2.440  41.982   1.365
89384W        W61809  29.448   2.261   0.799
89385W        W61810  32.631  27.030  12.510
89386W        W61811   7.187  10.352   4.801
89387W        W61812  16.666  24.985   4.736
89388W        W61813  21.101   9.757   1.357
89389W        W61814  23.589  28.985   4.279
89390W        W61815  18.139  42.288   1.729
89391W        W61816  25.471  43.959   1.310
89392W        W61817   8.774  37.385  11.947
89393W        W61818  30.514  30.942  12.546
89394W        W61819  41.462  10.711   0.768
89395W        W61820  11.341  35.083  14.355
89396W        W61821   9.270  39.997   9.951
89397W        W61822  22.244  15.715   3.230
89398W        W61823  40.867  23.502   4.196
89399W        W61824  16.692   7.410  11.440
89400W        W61825   6.348  35.006   2.824
89401W        W61826   0.985  37.549   1.419
89402W        W61827  24.624   1.292  12.343
89403W        W61828  18.123  33.475   2.733
89404W        W61829  40.933  38.385   3.657
89405W        W61830  27.192  33.606   2.867
89406W        W61831  30.492  27.982   1.357
89407W        W61832  18.601  19.219  13.051
89408W        W61833  28.503   5.755  10.605
89409W        W61834  19.195   4.710  13.941
89410W        W61835  10.245  17.295   2.184
89411W        W61836  32.395  44.936  11.500
89412W        W61837   9.715   8.220   3.378
89413W        W61838   3.749  11.840  12.496
89414W        W61839  32.580  30.469   3.191
89415W        W61840  27.000  36.899  12.579
89416W        W61841  30.594  18.574   3.191
89417W        W61842  31.906   8.872   9.998
89418W        W61843  37.881  28.488   1.807
89419W        W61844  24.498  32.139  10.615
89420W        W61845  39.933  20.690   3.683
89421W        W61846  39.353  34.557  11.882
89422W        W61847  16.578  40.349   1.381
89423W        W61848  37.970  44.261  10.488
89424W        W61849  42.305  33.875  12.439
89425W        W61850  21.662  24.707  12.868
89426W        W61851   6.846   7.224   0.344
89427W        W61852  27.035   4.742   2.373
89428W        W61853   5.259  25.149  13.497
89429W        W61854  38.533  26.091   4.339
89430W        W61855  13.799  32.531  14.002
89431W        W61856  27.125  39.846   2.895
89432W        W61857  31.008  11.263   4.638
89433W        W61858  28.025   2.791   0.777
89434W        W61859  15.775  40.539   1.352
89435W        W61860  38.327  33.413  10.913
89436W        W61861   4.912   1.462  13.393
89437W        W61862  15.756  10.836   4.658
89438W        W61863  43.286  22.522   9.977
89439W        W61864  15.245  38.985   0.954
89440W        W61865  27.464   4.731   0.835
89441W        W61866  28.556   1.280  11.399
89442W        W61867  14.599  39.387  13.525
89443W        W61868  22.638  32.545   3.850
89444W        W61869  28.036  32.506   9.530
89445W        W61870  40.861  23.576  12.412
89446W        W61871  41.379  35.925   2.866
89447W        W61872   4.769  27.533   0.817
89448W        W61873   2.250  15.694   4.211
89449W        W61874   1.325  27.634  11.410
89450W        W61875  30.118  34.044   3.353
89451W        W61876  23.001  35.558  12.511
89452W        W61877  25.998  20.236  10.550
89453W        W61878  44.953   5.365  13.429
89454W        W61879  35.862  25.566   9.507
89455W        W61880  11.335  30.019   4.662
89456W        W61881  24.569  34.009   3.152
89457W        W61882  35.004  18.212   2.711
89458W        W61883  42.985   3.739  13.480
89459W        W61884  32.399  40.513  12.466
89460W        W61885   4.903  31.099  11.010
89461W        W61886  30.044  39.533  11.486
89462W        W61887  35.560  13.291   2.737
89463W        W61888  31.522  40.872  11.080
89464W        W61889  14.644  41.347   4.713
89465W        W61890  13.658  44.952   0.801
89466W        W61891  26.978  23.651   0.919
89467W        W61892  29.025   1.418  14.326
89468W        W61893  32.976  22.023  10.598
89469W        W61894  23.135  10.826  14.802
89470W        W61895  39.498  33.042   3.797
89471W        W61896   8.763  33.548   2.717
89472W        W61897  38.929  19.053   3.201
89473W        W61898   2.941  35.951  13.981
89474W        W61899  28.978  35.983  10.541
89475W        W61900  34.011  31.119  11.863
89476W        W61901  39.493  24.544  12.887
89477W        W61902  14.169  15.224  13.037
89478W        W61903  31.611  23.630   3.780
89479W        W61904   9.741  20.656   3.264
89480W        W61905  32.499  32.093  10.040
89481W        W61906  39.043  19.267  12.541
89482W        W61907  26.535  14.250  12.063
89483W        W61908  32.565   0.898   1.223
89484W        W61909   8.237  15.087   4.146
89485W        W61910   6.872  36.460  11.385
89486W        W61911  33.602   9.725  13.415
89487W        W61912  34.976  13.297   3.271
89488W        W61913  35.994  23.207   3.206
89489W        W61914   6.422   6.838   2.751
89490W        W61915  38.867  35.452   2.206
89491W        W61916  31.591  14.676  11.004
89492W        W61917  13.277  25.107   1.399
89493W        W61918  30.571  23.620  14.508
89494W        W61919   5.435  22.611  11.080
89495W        W61920  41.309  22.120  14.497
89496W        W61921  13.233  11.737  13.035
89497W        W61922  24.508  43.363   3.178
89498W        W61923  34.990   3.256  11.122
89499W        W61924  13.348  41.827   2.670
89500W        W61925  32.908  29.979  14.892
89501W        W61926  31.557  38.967   4.748
89502W        W61927  14.685  27.020  10.993
89503W        W61928   8.211  34.473   3.820
89504W        W61929  37.377  28.944   4.323
89505W        W61930  16.678  25.568  10.457
89506W        W61931  18.115   6.269  13.824
89507W        W61932  39.855  19.209  11.519
89508W        W61933  34.068  14.337  12.359
89509W        W61934  19.685  18.569  13.824
89510W        W61935  22.743  33.600  11.451
89511W        W61936  13.678  16.772  13.846
89512W        W61937  13.210  17.790  11.116
89513W        W61938  13.185   2.957   1.423
89514W        W61939  43.837  14.326  11.514
89515W        W61940   4.436  36.440   1.251
89516W        W61941  38.520  34.592  14.295
89517W        W61942   2.234  42.515  12.836
89518W        W61943  22.577  41.997  12.825
89519W        W61944  16.234  10.271   2.248
89520W        W61945  16.097  14.646   1.811
89521W        W61946  37.515  11.694  13.433
89522W        W61947  11.176  35.098   1.429
89523W        W61948  17.280  10.802   2.871
89524W        W61949  40.036  30.987  13.866
89525W        W61950  32.981  40.802  14.430
89526W        W61951  29.067  25.074   2.290
89527W        W61952  44.838  44.763   1.807
89528W        W61953  36.513  28.163   1.390
89529W        W61954  14.782  22.051   0.404
89530W        W61955  13.180  34.397  11.058
89531W        W61956  13.209  13.281   0.856
89532W        W61957  13.632  28.034   3.831
89533W        W61958  28.048  26.985   1.742
89534W        W61959  44.829  41.366  12.073
89535W        W61960  26.042  26.476   0.475
89536W        W61961   2.382  26.521  10.016
89537W        W61962  44.953  39.352   4.299
89538W        W61963  36.013   5.282   3.174
89539W        W61964  30.422  20.148  14.919
89540W        W61965   4.727  31.576  14.018
89541W        W61966   0.422  14.167   3.645
89542W        W61967   1.840  43.408  11.514
89543W        W61968  15.220  15.804  12.978
89544W        W61969  22.692  19.093   1.822
89545W        W61970  27.968  24.101  12.946
89546W        W61971  15.772  25.140  13.845
89547W        W61972  17.762  22.090   3.352
89548W        W61973  36.983  39.328  12.948
89549W        W61974  19.536  37.515  10.967
89550W        W61975  25.099  16.263  12.563
89551W        W61976  24.724   7.721  14.496
89552W        W61977   2.825   4.223   3.378
89553W        W61978  19.092  10.150   2.835
89554W        W61979  44.493  17.260  11.091
89555W        W61980  42.327  13.837  12.357
89556W        W61981  38.927  31.979   2.308
89557W        W61982  44.966   8.883   1.317
89558W        W61983  25.055  35.368   4.670
89559W        W61984  11.256  14.202  11.907
89560W        W61985  23.701  43.332   4.749
89561W        W61986  39.941  44.826   4.714
89562W        W61987  32.613  12.798  12.543
89563W        W61988  25.511   8.319   3.354
89564W        W61989  42.410   4.808  12.341
89565W        W61990  11.273  41.881   1.775
89566W        W61991  32.008   6.890   0.769
89567W        W61992   0.269   1.456  14.326
89568W        W61993  18.081  10.372   4.666
89569W        W61994  34.942  33.082   0.913
89570W        W61995   6.424  11.788   5.124
89571W        W61996  24.482  11.353  13.895
89572W        W61997  40.346  22.664  13.322
89573W        W61998  17.254   7.843  11.984
89574W        W61999  31.920  29.628   5.279
89575W        W62000  43.356  39.339   3.784
89576W        W62001   2.316  10.855  13.976
89577W        W62002  15.193  34.020  11.995
89578W        W62003  42.520  18.722  14.408
89579W        W62004  28.633  39.442  13.330
89580W        W62005   1.328  34.038   1.709
89581W        W62006  14.660   8.780   0.781
89582W        W62007  42.023  33.528   4.201
89583W        W62008  19.084   0.408   1.888
89584W        W62009  14.641   1.853   0.920
89585W        W62010   0.933  37.542  10.016
89586W        W62011  28.438  19.156  13.542
89587W        W62012  20.556  34.497   4.246
89588W        W62013  17.184  20.763   0.423
89589W        W62014   9.210  26.526   3.196
89590W        W62015  29.120   8.862  12.894
89591W        W62016  31.075   1.328   4.612
89592W        W62017   1.389  22.731  12.097
89593W        W62018  44.475   1.242   2.191
89594W        W62019   5.891   7.846  14.504
89595W        W62020   3.858  23.736  13.034
89596W        W62021  18.121  28.979  10.625
89597W        W62022  10.158  11.198   0.794
89598W        W62023  16.807  34.047  10.555
89599W        W62024  35.936  26.195  13.431
89600W        W62025  42.324  40.346  14.957
89601W        W62026   0.381  43.769   0.253
89602W        W62027   3.769  31.551  13.834
89603W        W62028  28.513  39.892   2.867
89604W        W62029  31.460  29.483  12.363
89605W        W62030  27.127  29.987   3.820
89606W        W62031  41.968  35.974  13.059
89607W        W62032  12.725  23.648   2.253
89608W        W62033  16.315  28.106   3.261
89609W        W62034  35.916  13.722   3.370
89610W        W62035  29.015  12.192   3.361
89611W        W62036  23.231  33.513  10.059
89612W        W62037  18.732  29.128  12.000
89613W        W62038  25.560   5.803   0.856
89614W        W62039  37.339  27.492  12.019
89615W        W62040  13.806  16.291   0.467
89616W        W62041  17.073   7.884  10.515
89617W        W62042   4.708  30.046  12.916
89618W        W62043  35.385   3.836   1.830
89619W        W62044  25.964  36.922   1.930
89620W        W62045   1.296  27.451   3.734
89621W        W62046  15.749  14.151  12.996
89622W        W62047  44.765   4.901  10.955
89623W        W62048   7.185  38.559   2.694
89624W        W62049  30.055  15.249  12.022
89625W        W62050  42.937  11.135   0.926
89626W        W62051  12.289  20.678  11.454
89627W        W62052  33.106  18.093  13.409
89628W        W62053  20.767  32.441   4.213
89629W        W62054   1.331  26.003  13.331
89630W        W62055  42.307  33.110   3.349
89631W        W62056  39.944  24.116  11.381
89632W        W62057  40.461  18.710  12.049
89633W        W62058  38.918   8.278  12.021
89634W        W62059   6.791  15.144  13.869
89635W        W62060   0.926  41.818   4.718
89636W        W62061  31.528  22.583   3.704
89637W        W62062  11.773   9.691   1.910
89638W        W62063  27.996  36.979   2.307
89639W        W62064   0.948  34.962   3.856
89640W        W62065  41.873  41.869   4.832
89641W        W62066  33.587  42.949   2.790
89642W        W62067  26.688  15.121  11.084
89643W        W62068   2.963  44.962  10.554
89644W        W62069  19.134  12.280   3.323
89645W        W62070  14.759  13.273   3.698
89646W        W62071  11.828  41.917  11.083
89647W        W62072  21.565  10.803  13.957
89648W        W62073   6.318   5.719   2.891
89649W        W62074  19.595  17.281   2.895
89650W        W62075  26.569   4.838   4.315
89651W        W62076  17.103  41.324  13.469
89652W        W62077   9.727  43.884  13.835
89653W        W62078  14.693   4.425  12.030
89654W        W62079  11.728  11.641   0.432
89655W        W62080  35.409   5.419   1.349
89656W        W62081  30.623  26.515   0.363
89657W        W62082  24.589   8.827  14.457
89658W        W62083  15.689  33.082   1.337
89659W        W62084  31.092  38.404  10.621
89660W        W62085   5.325  30.482   4.263
89661W        W62086  41.898  12.627  14.371
89662W        W62087   2.943  11.740  14.391
89663W        W62088  12.188  37.574  13.512
89664W        W62089  18.645  42.285   3.737
89665W        W62090  34.610   7.782  10.894
89666W        W62091  44.494  30.057   1.252
89667W        W62092   6.391   4.935   1.811
89668W        W62093  24.597   4.225   3.210
89669W        W62094   0.861  19.207   3.678
89670W        W62095  24.011   0.294  10.469
89671W        W62096  10.259  29.591  10.068
89672W        W62097   8.830  23.727  10.932
89673W        W62098  29.666   6.340   3.681
89674W        W62099  12.196  16.078  11.929
89675W        W62100  14.648  38.347  13.382
89676W        W62101   2.395  14.223  13.901
89677W        W62102  37.378   0.908   0.272
89678W        W62103  10.202   0.309   2.823
89679W        W62104  24.110  27.980   3.702
89680W        W62105  36.521  42.885  12.577
89681W        W62106  22.637  10.359   3.373
89682W        W62107  14.234  43.462  10.628
89683W        W62108  12.827  30.433   3.775
89684W        W62109  25.567   3.885  11.910
89685W        W62110   8.678   5.193  14.439
89686W        W62111   0.340  33.513  14.512
89687W        W62112  17.730  23.133   2.831
89688W        W62113   6.733   5.693   0.907
89689W        W62114   5.893  40.934  13.497
89690W        W62115  19.557  17.671  12.465
89691W        W62116  29.633  22.077  12.433
89692W        W62117  24.054  11.802   3.741
89693W        W62118  15.713  26.624   1.226
89694W        W62119  18.758   3.733  14.758
89695W        W62120   0.349  21.074   3.326
89696W        W62121  18.644   1.735   1.822
89697W        W62122   0.980  36.398  13.821
89698W        W62123  42.845   4.331  11.989
89699W        W62124  24.990  19.570   0.307
89700W        W62125  27.536   9.715  12.004
89701W        W62126   0.866  23.634  14.365
89702W        W62127   6.812  27.606  12.055
89703W        W62128   2.270  32.896  12.031
89704W        W62129   4.901  25.109  10.888
89705W        W62130  39.918  22.195  13.388
89706W        W62131  11.648  32.128   2.398
89707W        W62132  33.889  15.751   4.802
89708W        W62133  12.774  30.009   2.336
89709W        W62134  15.263  36.928   3.186
89710W        W62135   5.276  44.268  12.905
89711W        W62136   2.818  10.195   2.370
89712W        W62137  28.979  40.531  10.912
89713W        W62138   9.176  19.275  12.552
89714W        W62139  39.967  10.271   2.257
89715W        W62140   0.956  15.223   3.248
89716W        W62141  43.788  21.145   0.315
89717W        W62142  12.759  18.578   3.821
89718W        W62143   8.656  39.344   2.333
89719W        W62144  25.615  22.533   4.259
89720W        W62145  25.526  27.522  10.520
89721W        W62146   0.883   0.309   3.757
89722W        W62147  11.645  25.995   4.169
89723W        W62148  13.281  24.089   5.163
89724W        W62149   4.780  35.436  14.366
89725W        W62150  14.726  44.789  10.960
89726W        W62151   5.210   3.460  12.459
89727W        W62152  39.808   8.281  10.989
89728W        W62153  36.906   6.718  10.639
89729W        W62154  36.901  42.493   0.732
89730W        W62155  18.649  39.059   0.283
89731W        W62156  26.634  42.305  12.925
89732W        W62157   5.754  37.352   0.778
89733W        W62158  20.695  22.064  13.520
89734W        W62159  10.854  17.197  11.593
89735W        W62160  12.120  30.458  11.002
89736W        W62161  14.780  44.492  13.927
89737W        W62162  41.372  23.068  12.442
89738W        W62163  22.133  29.632  12.994
89739W        W62164   4.812   0.871   4.168
89740W        W62165  22.238   7.187  11.941
89741W        W62166  38.015   2.322  12.986
89742W        W62167  26.628   1.740  14.968
89743W        W62168  20.220  39.329  14.960
89744W        W62169  24.146  37.069  13.427
89745W        W62170  12.675  17.257  10.434
89746W        W62171  21.253   1.413  13.013
89747W        W62172  41.890  31.518   0.921
89748W        W62173  14.221  31.135  12.993
89749W        W62174  34.024   2.777   1.271
89750W        W62175  21.535  20.556   4.326
89751W        W62176  39.843  11.303   1.256
89752W        W62177   8.808   3.767   2.879
89753W        W62178  18.674  22.509  14.319
89754W        W62179   3.893  17.163   2.887
89755W        W62180  30.963  34.487   1.323
89756W        W62181  12.665   1.399  11.445
89757W        W62182  34.886  14.614  11.913
89758W        W62183   4.816  11.658   1.348
89759W        W62184   5.894   6.331  11.497
89760W        W62185  22.510  29.515  14.459
89761W        W62186  28.008  44.755  14.027
89762W        W62187  39.966  16.101  13.927
89763W        W62188  33.475  15.691  13.519
89764W        W62189  37.990  37.856   2.827
89765W        W62190  18.163  24.070  11.911
89766W        W62191  40.451  15.624  11.464
89767W        W62192  11.809  22.612  11.558
89768W        W62193  42.978  18.279   0.810
89769W        W62194  44.800   7.362   4.710
89770W        W62195  38.936  18.703   3.770
89771W        W62196   4.286  18.281   0.339
89772W        W62197  30.990   4.288   1.854
89773W        W62198  33.466  10.318   4.315
89774W        W62199  33.881   4.852  11.958
89775W        W62200  10.864  27.119  14.460
89776W        W62201  33.482  24.674   3.653
89777W        W62202  15.772  44.853  13.378
89778W        W62203  29.043  22.739  13.463
89779W        W62204  13.262   8.204   4.133
89780W        W62205   4.879  41.896   4.735
89781W        W62206  10.818  22.638  10.520
89782W        W62207  10.690  29.586  13.359
89783W        W62208   2.837   7.382  12.858
89784W        W62209  30.547  35.105  12.948
89785W        W62210  17.299  17.575  12.496
89786W        W62211  34.555  42.781  11.124
89787W        W62212  24.183   4.920  10.051
89788W        W62213   0.886  41.032  13.957
89789W        W62214  31.491  40.403   3.860
89790W        W62215   6.908  20.761  10.973
89791W        W62216   9.214   8.881  14.401
89792W        W62217  41.836  15.610   3.274
89793W        W62218  38.834  30.129  12.027
89794W        W62219  21.250   5.199   1.880
89795W        W62220  31.998  19.267  11.910
89796W        W62221   2.460   2.735  14.433
89797W        W62222  34.510   7.706   2.879
89798W        W62223   2.909   7.307  10.445
89799W        W62224  15.673  14.094  14.812
89800W        W62225  32.431  43.939   0.326
89801W        W62226  43.876  17.087   2.379
89802W        W62227   0.261   1.329  11.060
89803W        W62228  31.524  32.608  14.316
89804W        W62229  35.066  18.288   3.686
89805W        W62230   8.801  15.146   4.147
89806W        W62231  32.114  41.866  11.053
89807W        W62232  40.389  31.554  12.073
89808W        W62233  36.565  20.185  14.465
89809W        W62234  17.062  26.574   0.842
89810W        W62235  16.115  15.699  11.506
89811W        W62236   0.437  41.406   1.840
89812W        W62237  38.444  29.944  14.398
89813W        W62238  25.984  27.653  13.054
89814W        W62239  18.056  19.734  10.487
89815W        W62240  12.738  13.789  10.476
89816W        W62241   8.250  37.440  10.119
89817W        W62242   9.661  36.002  13.040
89818W        W62243   7.376   2.318  13.048
89819W        W62244  13.115  39.892   3.755
89820W        W62245  19.249  32.074   4.757
89821W        W62246   6.781  42.391   1.386
89822W        W62247  40.373   0.412   1.881
89823W        W62248  39.947  19.161  12.982
89824W        W62249  26.670  24.149   1.756
89825W        W62250  10.300  21.666  13.428
89826W        W62251   1.410  31.956  13.389
89827W        W62252  23.988   7.303  13.842
89828W        W62253   9.829  37.483   4.635
89829W        W62254  28.143   8.841   3.666
89830W        W62255   9.847  41.890  11.456
89831W        W62256  20.625  23.499  13.816
89832W        W62257  21.647  37.006  13.358
89833W        W62258  27.686  34.085   1.395
89834W        W62259  25.024  22.526   3.654
89835W        W62260   6.867   7.191  12.369
89836W        W62261  25.569  11.220  11.412
89837W        W62262  27.600   7.671  13.989
89838W        W62263  16.667  42.968  11.445
89839W        W62264   2.727  22.236   0.325
89840W        W62265  21.657  36.540   3.184
89841W        W62266  38.069  28.064  13.366
89842W        W62267  33.615   5.305  14.878
89843W        W62268  18.562  44.915  14.369
89844W        W62269  13.171   1.851  14.845
89845W        W62270  26.073  42.359   3.801
89846W        W62271   6.820  16.163  12.401
89847W        W62272  22.220  36.497  13.861
89848W        W62273  28.094  14.335   1.794
89849W        W62274  17.289  33.916  13.489
89850W        W62275  22.528  28.575  13.044
89851W        W62276   5.918  38.429  11.586
89852W        W62277  24.034  26.130   4.654
89853W        W62278  17.750  14.211   0.366
89854W        W62279  12.143  38.990   3.384
89855W        W62280   9.697  10.785   0.309
89856W        W62281  13.164  15.820   2.849
89857W        W62282   1.939  13.233  12.904
89858W        W62283  10.248   8.691   2.840
89859W        W62284   6.876   9.340   2.415
89860W        W62285   3.909   3.256  13.846
89861W        W62286  41.788  34.538   0.901
89862W        W62287  11.733  22.067   2.890
89863W        W62288  24.497   4.335  14.334
89864W        W62289  38.379  28.547  14.912
89865W        W62290  36.098  29.663  14.378
89866W        W62291  19.621  11.689  11.519
89867W        W62292  26.493   2.807  11.518
89868W        W62293  37.369   4.353  14.372
89869W        W62294  23.116  13.245   4.602
89870W        W62295  28.514  22.090   2.257
89871W        W62296  37.377  41.827   2.721
89872W        W62297  18.168  22.014  14.407
89873W        W62298  16.076  17.598  11.002
89874W        W62299   8.269  11.311   4.602
89875W        W62300  43.000  25.121  14.432
89876W        W62301  10.769  18.691  14.864
89877W        W62302  22.174  37.356  11.937
89878W        W62303  10.703  22.021   4.308
89879W        W62304  20.567  43.829   4.164
89880W        W62305   4.747  23.050  12.529
89881W        W62306  15.805  26.572   3.749
89882W        W62307  19.571  19.213  10.443
89883W        W62308  38.824  20.637  10.515
89884W        W62309  23.620  10.320   3.168
89885W        W62310  44.490  15.762   3.707
89886W        W62311  28.438  22.094   3.647
89887W        W62312  42.435   9.351   0.864
89888W        W62313   2.920  34.599   1.394
89889W        W62314  21.263  18.210   4.196
89890W        W62315  10.245  25.489  12.361
89891W        W62316  21.586  19.609   4.352
89892W        W62317  23.124  18.213   1.811
89893W        W62318  30.494  26.619   3.768
89894W        W62319  44.879  25.052   2.406
89895W        W62320  29.574   1.898   2.882
89896W        W62321   7.871  38.059   0.743
89897W        W62322   7.275  20.263  14.928
89898W        W62323  11.185  31.103  14.304
89899W        W62324  34.507   4.242   1.904
89900W        W62325  19.752  36.983   0.317
89901W        W62326  42.512  38.394   1.233
89902W        W62327  40.523  30.063   1.424
89903W        W62328  19.212   3.342  13.350
89904W        W62329  14.622  44.983   0.753
89905W        W62330  11.231   6.722  13.494
89906W        W62331  19.640  38.425  10.923
89907W        W62332   6.318  21.047  14.441
89908W        W62333  25.588   4.813   2.192
89909W        W62334  33.424  13.105  12.573
89910W        W62335  27.660  35.502  14.927
89911W        W62336  29.015   0.889   2.667
89912W        W62337  23.042  24.184   9.936
89913W        W62338  21.069  34.377  11.126
89914W        W62339  19.241  21.601   1.378
89915W        W62340  40.350   5.345  14.402
89916W        W62341  44.437  20.725   1.388
89917W        W62342  16.665  24.053   0.349
89918W        W62343   9.741  40.989   4.760
89919W        W62344  35.401  29.503  12.826
89920W        W62345  14.317  36.369   2.670
89921W        W62346  39.484  14.777  13.421
89922W        W62347   4.896  42.838   1.215
89923W        W62348  18.194  40.496   3.684
89924W        W62349  23.684  12.219   4.779
89925W        W62350   5.254  44.853   4.666
89926W        W62351   2.316   7.726  12.018
89927W        W62352  38.426  42.003   1.421
89928W        W62353   3.319  22.244   3.192
89929W        W62354  35.389  29.474   0.362
89930W        W62355  22.119  10.749  14.006
89931W        W62356  43.451  16.077  12.906
89932W        W62357  26.047   4.385  12.472
89933W        W62358  16.225  10.205   9.954
89934W        W62359  31.097  17.745  10.408
89935W        W62360  42.386   4.764   4.688
89936W        W62361  29.145  28.097  13.326
89937W        W62362  28.582  18.294  11.113
89938W        W62363  32.137  35.548  13.017
89939W        W62364  28.033  25.023   2.419
89940W        W62365  22.027   7.220  10.957
89941W        W62366  31.135  20.570  14.781
89942W        W62367   9.696  16.678  13.377
89943W        W62368   4.794  39.853  14.993
89944W        W62369  41.473   7.399  11.421
89945W        W62370  21.733  14.730   1.816
89946W        W62371  39.020  11.334  12.870
89947W        W62372  16.587  44.811   3.371
89948W        W62373  19.080  43.326   0.481
89949W        W62374   7.278  16.138   1.262
89950W        W62375  29.519  44.980  12.904
89951W        W62376  16.762   0.850   1.871
89952W        W62377  22.006  16.620  11.461
89953W        W62378  34.043  26.159   1.278
89954W        W62379  27.458   1.322   4.735
89955W        W62380  36.520  43.998  13.920
89956W        W62381  14.816  36.447  12.873
89957W        W62382  31.130  19.733  11.921
89958W        W62383  16.187  39.879   4.806
89959W        W62384  10.314  37.396  14.847
89960W        W62385  13.754   9.876   0.748
89961W        W62386  40.524  43.817   2.903
89962W        W62387  32.553  21.662  12.452
89963W        W62388  32.016  18.284   0.454
89964W        W62389  40.054  25.177  11.465
89965W        W62390  17.728  21.625  13.527
89966W        W62391  16.079  15.639   0.358
89967W        W62392  13.704  32.547  11.978
89968W        W62393  43.863  22.030  14.282
89969W        W62394   3.226  19.173  13.911
89970W        W62395  35.072  31.566   4.180
89971W        W62396   2.743  20.122   1.293
89972W        W62397   0.854  12.796   3.852
89973W        W62398   3.780  43.889   4.771
89974W        W62399   3.828  26.056   2.730
89975W        W62400  30.471  12.348  10.513
89976W        W62401  28.502  25.145   4.781
89977W        W62402  23.005   5.347   0.920
89978W        W62403  33.130  14.741   3.729
89979W        W62404  42.411   8.891  13.318
89980W        W62405  20.255  13.284  13.993
89981W        W62406  17.139  41.921   0.893
89982W        W62407   9.250  25.078   3.738
89983W        W62408  25.099  12.823   3.344
89984W        W62409   4.372  14.170  14.427
89985W        W62410   6.682   1.775  14.291
89986W        W62411  33.079  44.841  10.619
89987W        W62412  32.047  16.243   5.278
89988W        W62413  41.398   7.667   1.259
89989W        W62414  33.509  38.554   4.296
89990W        W62415  13.817  18.727   1.222
89991W        W62416  27.552  42.449  13.801
89992W        W62417  19.771  25.973  11.561
89993W        W62418  17.620  28.007   4.335
89994W        W62419   4.207  36.585  10.563
89995W        W62420  27.077  38.936  14.911
89996W        W62421  38.450  24.156  13.393
89997W        W62422  34.522  32.500   2.903
89998W        W62423  43.409  35.503   2.187
89999W        W62424  38.880  20.711   2.205
90000W        W62425  26.634  29.521   4.830
90001W        W62426  33.960  39.539  11.563
90002W        W62427  15.124  39.323  12.388
90003W        W62428  41.786  37.345  11.915
90004W        W62429  19.210  29.037   0.250
90005W        W62430   3.387   0.927  12.057
90006W        W62431  11.813  43.801   3.861
90007W        W62432  14.773  16.275  12.445
90008W        W62433  28.522  42.934  13.325
90009W        W62434  39.829  22.616   0.946
90010W        W62435  29.945  32.486   2.246
90011W        W62436   8.375  29.506  13.439
90012W        W62437  35.556  39.874   4.132
90013W        W62438  35.422  31.929   2.312
90014W        W62439  43.827  35.069  11.924
90015W        W62440   5.760  40.896   3.816
90016W        W62441  38.554   2.338   2.333
90017W        W62442  18.067  40.312   1.416
90018W        W62443   0.915   1.420  10.590
90019W        W62444  36.939  32.516   3.238
90020W        W62445  42.303  31.622   0.422
90021W        W62446   0.333  37.479  10.081
90022W        W62447  31.132  36.441  14.465
90023W        W62448  35.079  19.695   4.639
90024W        W62449  19.609  30.940   3.646
90025W        W62450  27.093   2.270  10.475
90026W        W62451  17.658  13.770  12.957
90027W        W62452   2.395  13.721   1.398
90028W        W62453   5.384   6.414   0.375
90029W        W62454  44.902  18.084   4.601
90030W        W62455   8.305  11.298  14.861
90031W        W62456   4.378  25.003   1.715
90032W        W62457  44.806  29.984  11.937
90033W        W62458  15.086  14.706  11.597
90034W        W62459   6.806  27.135   2.337
90035W        W62460  17.593  36.539   1.232
90036W        W62461   1.302  36.433  14.353
90037W        W62462  27.051  16.211   1.421
90038W        W62463  37.430   4.368  10.586
90039W        W62464  11.296   3.851  14.938
90040W        W62465  20.108  14.593  13.416
90041W        W62466  27.464  42.399   4.615
90042W        W62467  27.194   2.289   4.249
90043W        W62468  14.746  38.389  11.449
90044W        W62469  39.884  25.037   4.129
90045W        W62470  24.637  26.549  13.000
90046W        W62471   5.263  20.261  11.581
90047W        W62472  32.978  29.506  11.087
90048W        W62473   6.718  31.927  10.639
90049W        W62474  35.419  12.766  11.882
90050W        W62475  41.396  14.613  12.388
90051W        W62476  21.558  35.944   2.716
90052W        W62477  41.466  34.586   0.277
90053W        W62478  14.692  33.400  11.936
90054W        W62479  28.008   6.774  10.405
90055W        W62480  38.922  24.692  13.812
90056W        W62481  41.862   9.318   3.778
90057W        W62482  30.958  26.199  11.465
90058W        W62483  29.993   5.383   2.247
90059W        W62484  37.481   7.874   5.151
90060W        W62485  33.591  44.808  10.410
90061W        W62486  13.298  23.686  12.398
90062W        W62487  11.728  19.255   2.697
90063W        W62488  35.491  32.898  12.873
90064W        W62489  26.476  26.475  13.413
90065W        W62490  36.473  23.069  12.519
90066W        W62491   3.810  13.603  14.810
90067W        W62492  39.319  30.515  13.402
90068W        W62493  42.899   7.281   0.340
90069W        W62494  40.021  26.192   4.223
90070W        W62495  26.543  12.689   2.241
90071W        W62496   7.757   9.739   4.167
90072W        W62497  23.998  40.435   3.331
90073W        W62498  16.704   9.282   1.254
90074W        W62499  16.075  37.395   3.648
90075W        W62500  24.687  10.178   1.867
90076W        W62501   6.229   2.308   2.704
90077W        W62502  35.572  38.953   2.271
90078W        W62503   2.949  27.457  10.967
90079W        W62504   4.238  38.456   1.359
90080W        W62505  16.112  28.602   2.198
90081W        W62506  15.148  13.125   0.330
90082W        W62507  17.086  35.585   3.730
90083W        W62508   0.832   5.700  12.846
90084W        W62509  32.407  27.014   0.258
90085W        W62510  38.937  39.014   0.904
90086W        W62511  17.225  40.464  13.793
90087W        W62512   8.400  27.520  13.944
90088W        W62513  19.701   3.380  13.871
90089W        W62514  19.701  30.622   0.820
90090W        W62515  31.637  36.857   1.750
90091W        W62516   0.266   1.311  11.936
90092W        W62517  27.051  22.680  11.079
90093W        W62518  22.589  26.575  10.504
90094W        W62519  13.829  30.480  11.997
90095W        W62520   9.373  13.772   4.682
90096W        W62521  34.066   6.740  10.614
90097W        W62522  32.112  11.789  12.906
90098W        W62523   7.691  28.023  10.945
90099W        W62524   6.299  35.358   4.679
90100W        W62525  30.580  22.096  12.521
90101W        W62526  11.194   4.938   2.732
90102W        W62527  34.930  43.388  13.064
90103W        W62528  19.572   9.814  10.119
90104W        W62529  43.852  34.911   0.350
90105W        W62530  24.112  40.870   3.717
90106W        W62531   5.425  10.801  11.902
90107W        W62532  12.763  35.900  13.346
90108W        W62533  22.217  10.704  10.142
90109W        W62534  30.057  19.101   4.281
90110W        W62535  23.493  22.079   3.812
90111W        W62536  11.356  27.463  10.516
90112W        W62537  28.047  42.855   3.772
90113W        W62538  22.596   0.864  11.378
90114W        W62539   7.320  21.199  12.917
90115W        W62540   3.748  36.037  10.508
90116W        W62541  41.840   5.837   3.340
90117W        W62542  39.912  13.186   4.114
90118W        W62543  41.452   0.364   0.425
90119W        W62544  35.438  35.097   2.775
90120W        W62545  18.784  30.534   1.715
90121W        W62546   5.353   8.788  12.926
90122W        W62547   6.796  28.578   1.817
90123W        W62548  43.285  30.031  10.997
90124W        W62549  12.244  15.815   3.300
90125W        W62550  41.809  41.355  11.480
90126W        W62551   5.873  40.938  10.521
90127W        W62552   9.287   5.749  11.035
90128W        W62553  42.958  38.059   2.816
90129W        W62554  20.211  10.660   2.281
90130W        W62555   6.260  24.565  13.398
90131W        W62556  27.057   8.247   4.309
90132W        W62557  17.199  12.299  10.084
90133W        W62558  40.009  15.624   3.366
90134W        W62559  19.650  44.321   4.129
90135W        W62560  40.026  26.599   0.737
90136W        W62561  21.514  42.777  14.390
90137W        W62562  28.447   4.876   1.244
90138W        W62563  33.597   1.928   1.852
90139W        W62564  13.831  24.163   3.720
90140W        W62565  31.901  11.271   2.674
90141W        W62566  28.489  10.749  13.383
90142W        W62567  39.929  18.161   3.801
90143W        W62568  15.740  18.596  13.015
90144W        W62569  42.883  30.039   0.751
90145W        W62570  19.729  13.157  12.572
90146W        W62571   0.298  30.137   0.798
90147W        W62572  17.113   4.321  14.908
90148W        W62573  19.599   8.221   2.896
90149W        W62574   7.234  23.685  14.823
90150W        W62575   3.806  22.523  11.403
90151W        W62576   9.389   4.937  11.554
90152W        W62577  40.393  36.475   3.774
90153W        W62578   0.249  36.573   3.349
90154W        W62579  43.394  39.819  11.029
90155W        W62580   9.247  34.525  12.033
90156W        W62581  18.186  41.993   3.252
90157W        W62582  22.177  24.687   2.713
90158W        W62583  13.155  32.060   4.731
90159W        W62584   5.348   3.306   0.424
90160W        W62585   7.730  24.222  14.805
90161W        W62586  37.009  22.592  12.886
90162W        W62587  20.162  15.618  12.912
90163W        W62588  13.788  34.869   1.890
90164W        W62589  24.665   7.331   0.293
90165W        W62590  17.637  43.325  11.115
90166W        W62591  24.229   8.899   1.285
90167W        W62592  15.329  23.105   9.608
90168W        W62593  22.685  39.845  13.386
90169W        W62594  37.971  37.569  10.947
90170W        W62595  41.976  26.527   4.625
90171W        W62596   1.744  14.262  10.971
90172W        W62597  32.085   9.224   2.349
90173W        W62598  13.722   9.748  10.939
90174W        W62599  44.948  31.487   0.825
90175W        W62600  15.268  14.786  12.512
90176W        W62601  41.846  19.217  12.079
90177W        W62602   9.704  10.804  11.876
90178W        W62603  17.583  26.608   3.717
90179W        W62604  36.044  12.723   0.759
90180W        W62605  42.395  31.899  13.983
90181W        W62606  30.930  22.016   4.755
90182W        W62607  42.817  33.385   2.779
90183W        W62608  37.566  34.935  12.028
90184W        W62609   0.792  32.084   4.778
90185W        W62610  20.034  20.671   1.913
90186W        W62611  38.337  40.943   4.811
90187W        W62612  22.582  41.812   0.436
90188W        W62613  16.638  33.974  13.968
90189W        W62614  32.128   2.908  12.081
90190W        W62615  14.179  28.064  11.550
90191W        W62616  36.468  44.806  12.548
90192W        W62617  33.913   4.848   4.202
90193W        W62618  26.695  42.017  11.896
90194W        W62619  13.283  34.371   2.235
90195W        W62620  26.010  14.621  12.516
90196W        W62621  44.463  21.095   9.930
90197W        W62622   1.870  37.498   1.320
90198W        W62623  38.841   1.389  12.353
90199W        W62624  43.437  16.102  14.312
90200W        W62625  13.785  15.290   1.933
90201W        W62626  26.063  31.150   5.270
90202W        W62627  26.483  23.643  11.021
90203W        W62628  36.565  20.043  14.936
90204W        W62629   4.293  14.312   3.858
90205W        W62630  22.009  29.007  11.051
90206W        W62631  33.591  41.481   3.726
90207W        W62632  42.357  19.606   2.739
90208W        W62633   0.967  33.122  11.496
90209W        W62634   0.815   5.349   1.713
90210W        W62635  13.343  37.483   2.237
90211W        W62636  14.205  25.571  14.439
90212W        W62637  37.982   4.321  14.791
90213W        W62638  37.524  38.393  11.479
90214W        W62639  33.005   2.291   1.390
90215W        W62640  12.237  11.336  14.501
90216W        W62641   9.746  31.001   0.443
90217W        W62642  42.352  22.077   4.334
90218W        W62643  32.909  25.043   3.761
90219W        W62644   4.931   1.746   3.861
90220W        W62645  22.045  23.111   4.142
90221W        W62646  38.960  15.218  12.361
90222W        W62647  27.076  38.867  12.387
90223W        W62648  43.335  30.546   2.721
90224W        W62649   2.812   7.848   1.247
90225W        W62650   3.733  40.421   4.275
90226W        W62651  43.284  16.131  13.508
90227W        W62652  16.706  10.768  14.794
90228W        W62653  35.093  37.458   1.843
90229W        W62654   6.897  15.779  11.478
90230W        W62655  37.861  30.154   3.803
90231W        W62656  11.306  33.491  11.046
90232W        W62657  42.513  13.226  11.103
90233W        W62658   6.188   2.744   4.614
90234W        W62659  12.146   9.721   4.184
90235W        W62660   4.328  23.624   2.212
90236W        W62661   6.716   0.848  14.792
90237W        W62662   8.677   1.308  12.500
90238W        W62663  15.317   2.943  12.471
90239W        W62664  13.315  19.196   3.210
90240W        W62665  16.813  29.488   3.721
90241W        W62666   2.961  35.546  13.847
90242W        W62667  34.001  22.628   3.848
90243W        W62668  31.461  11.301   1.410
90244W        W62669  37.841   4.752  10.935
90245W        W62670  36.914  20.267   1.718
90246W        W62671  22.702   6.705  12.853
90247W        W62672   1.259  20.533  11.093
90248W        W62673  26.103  36.587   4.163
90249W        W62674   4.732   0.834   1.850
90250W        W62675  18.292  41.001  12.518
90251W        W62676  24.181   5.703  14.436
90252W        W62677   6.223  32.100   9.928
90253W        W62678  43.867  26.149  13.437
90254W        W62679   4.805  21.052   2.370
90255W        W62680   9.243  24.625  13.527
90256W        W62681  33.945  10.234  13.875
90257W        W62682   9.345  18.590   0.917
90258W        W62683   4.711  14.134   1.311
90259W        W62684  35.474  40.415   3.306
90260W        W62685   9.887  37.474  13.969
90261W        W62686  28.143  37.845   1.770
90262W        W62687  13.840  29.670  11.511
90263W        W62688  28.660  10.267   4.675
90264W        W62689  32.977  25.590   3.193
90265W        W62690  39.914   0.336  11.078
90266W        W62691  31.592  11.688  13.312
90267W        W62692  25.021  24.113   3.778
90268W        W62693  27.574  30.532   1.810
90269W        W62694  31.536  32.991  14.406
90270W        W62695   6.684   4.740   4.192
90271W        W62696   2.411  21.241   4.752
90272W        W62697  21.534  20.036   2.782
90273W        W62698  39.539   3.868  12.985
90274W        W62699   1.824  24.114  13.023
90275W        W62700   5.285  28.538   0.912
90276W        W62701   5.753  24.669   4.180
90277W        W62702  25.182  37.908  13.806
90278W        W62703  11.288  18.222  14.871
90279W        W62704  11.303   6.208   0.351
90280W        W62705  31.054   5.230  12.523
90281W        W62706  11.786  43.917   3.250
90282W        W62707  18.093  24.645   0.888
90283W        W62708  33.612   0.918   2.837
90284W        W62709  17.289   1.796   5.131
90285W        W62710   2.904   4.270   4.680
90286W        W62711  30.921  16.260  13.512
90287W        W62712  24.089  40.923   0.440
90288W        W62713  42.433  18.695  10.900
90289W        W62714  24.051   0.761   0.928
90290W        W62715  28.594  25.689  11.453
90291W        W62716  39.323  10.298   0.813
90292W        W62717   7.267  23.498   3.384
90293W        W62718   8.852  36.920  13.038
90294W        W62719  40.864  41.355   1.216
90295W        W62720   2.387  38.990   1.828
90296W        W62721   9.860  25.093   4.317
90297W        W62722   7.218  25.625  13.516
90298W        W62723  41.359   9.885   3.811
90299W        W62724   4.295  13.729  11.108
90300W        W62725  42.430  24.100   2.776
90301W        W62726  31.013  10.795  14.356
90302W        W62727  11.237  10.740   1.722
90303W        W62728  44.953  31.559   3.827
90304W        W62729  29.047  12.747   4.269
90305W        W62730  37.381   5.829   1.379
90306W        W62731  12.220  44.799  12.032
90307W        W62732  36.505  35.395  14.894
90308W        W62733  31.129  19.626  12.484
90309W        W62734  43.370  13.719   1.771
90310W        W62735   2.261  37.881   3.678
90311W        W62736  25.988  39.903   2.240
90312W        W62737  14.214  16.757  11.013
90313W        W62738   5.883  22.119  10.552
90314W        W62739  38.881  19.558  13.903
90315W        W62740  28.986  27.678   2.416
90316W        W62741   1.868  29.656  14.495
90317W        W62742  20.085  21.540   0.406
90318W        W62743  18.239   6.845  12.430
90319W        W62744   9.867  19.560  14.359
90320W        W62745  26.552   3.727   0.329
90321W        W62746  30.059  13.159   0.786
90322W        W62747   3.935   9.208  11.895
90323W        W62748  23.554  26.050  10.942
90324W        W62749   3.446   3.955   4.116
90325W        W62750  20.599  23.542  10.965
90326W        W62751  17.162  16.286   0.330
90327W        W62752  20.756  14.317  10.930
90328W        W62753  32.395  38.944   3.735
90329W        W62754  32.096  39.434   2.831
90330W        W62755  32.608  38.436  12.986
90331W        W62756   1.268  32.426   0.757
90332W        W62757   9.385  39.326  14.954
90333W        W62758  32.005  20.710   1.440
90334W        W62759  21.120  43.337  14.824
90335W        W62760  21.228  40.315   0.338
90336W        W62761   6.767  13.651   0.727
90337W        W62762   1.468  17.585   1.710
90338W        W62763  37.851  31.043  12.505
90339W        W62764  40.860   2.875  12.961
90340W        W62765   7.757  19.254   2.333
90341W        W62766   9.833  38.857   4.618
90342W        W62767  10.138  39.415  11.412
90343W        W62768   0.466   8.835  14.856
90344W        W62769  24.499  35.457   2.261
90345W        W62770  44.938  29.504  12.914
90346W        W62771  34.609   5.755   1.761
90347W        W62772  43.321  20.572  11.450
90348W        W62773  19.176  32.893  10.976
90349W        W62774   5.909  37.026   4.659
90350W        W62775  14.322  35.453   3.861
90351W        W62776  24.997  29.537   4.612
90352W        W62777  44.917   2.262   0.736
90353W        W62778   1.857   2.451   5.131
90354W        W62779  18.252  20.608  11.448
90355W        W62780  40.002  33.903   0.863
90356W        W62781   5.693   8.816  13.475
90357W        W62782  12.831  11.713   1.880
90358W        W62783  34.452  44.490   0.941
90359W        W62784  21.557  26.525  14.944
90360W        W62785  29.000  34.601  11.859
90361W        W62786   0.315  34.522  11.886
90362W        W62787   1.315  38.567  10.532
90363W        W62788   8.170  33.109  13.997
90364W        W62789  39.866   7.246   0.838
90365W        W62790  12.682  12.116  10.554
90366W        W62791  33.088  42.964   2.212
90367W        W62792  11.741  31.492  13.492
90368W        W62793  27.097  18.585   4.348
90369W        W62794  11.863   1.914   9.951
90370W        W62795  23.159  42.974   5.284
90371W        W62796   1.932  13.843  14.450
90372W        W62797   8.377  10.688  14.330
90373W        W62798   2.887  29.000  13.350
90374W        W62799  19.596  38.521   0.264
90375W        W62800   7.187  38.000  10.147
90376W        W62801  28.182  10.264   0.796
90377W        W62802  29.664   1.909   1.440
90378W        W62803  43.969  17.589  14.025
90379W        W62804   4.251  40.967  10.932
90380W        W62805  24.701  12.793   1.316
90381W        W62806  37.897  20.144  14.489
90382W        W62807  30.083  21.584  12.466
90383W        W62808  24.049  18.185  14.961
90384W        W62809  35.544  24.657  10.538
90385W        W62810  40.461  28.168  14.812
90386W        W62811   8.669  35.469   0.942
90387W        W62812  43.004  44.311  11.575
90388W        W62813   3.779  12.122  13.893
90389W        W62814  27.035  16.800  11.954
90390W        W62815  31.013  17.075   2.327
90391W        W62816  39.351  19.555  11.907
90392W        W62817  33.982  16.736   5.166
90393W        W62818   7.875  11.650  11.962
90394W        W62819  39.498  41.382  14.908
90395W        W62820  44.854  25.592  12.938
90396W        W62821  21.676  14.142   0.804
90397W        W62822  24.108  41.916  14.315
90398W        W62823  16.749   7.210   1.352
90399W        W62824  41.456  37.951  10.495
90400W        W62825  19.740  33.001   2.321
90401W        W62826  16.641  39.998  13.960
90402W        W62827  39.894  25.116   1.755
90403W        W62828  36.984   8.292  14.848
90404W        W62829  10.221  13.166  12.058
90405W        W62830   3.937  29.437   1.259
90406W        W62831  44.425  38.947  13.960
90407W        W62832  17.138   7.824   3.755
90408W        W62833  38.452  32.036  10.986
90409W        W62834  23.093   2.840  11.938
90410W        W62835  32.954  33.014   1.302
90411W        W62836  10.310   6.781  11.874
90412W        W62837   7.822  11.268  12.486
90413W        W62838  34.446  35.587   4.279
90414W        W62839  38.903  44.895   0.309
90415W        W62840  14.324   9.191  13.365
90416W        W62841  37.419  17.665  13.059
90417W        W62842  14.161  12.673   2.225
90418W        W62843  23.173  26.973  12.014
90419W        W62844  26.503  12.190  12.095
90420W        W62845  10.735  30.950   4.601
90421W        W62846  26.643  30.446  14.927
90422W        W62847  28.080  32.444  14.375
90423W        W62848  32.890  31.914  14.385
90424W        W62849   1.741   1.962   1.763
90425W        W62850  36.849  10.857  13.017
90426W        W62851  42.834  21.557   2.279
90427W        W62852  27.080  30.516  13.516
90428W        W62853  26.457  40.455  11.595
90429W        W62854  10.658  25.153  12.943
90430W        W62855  14.257  32.110   2.252
90431W        W62856  33.420  23.576  10.556
90432W        W62857  13.262  44.768  12.528
90433W        W62858  41.001  40.026   2.807
90434W        W62859  13.273  25.674   0.334
90435W        W62860   3.280  33.383  13.403
90436W        W62861  22.600  20.044   2.352
90437W        W62862  24.620  32.939  13.835
90438W        W62863   6.902  39.938   3.696
90439W        W62864   2.295  18.611  13.348
90440W        W62865   2.318   5.330  11.933
90441W        W62866  38.053  27.452  11.035
90442W        W62867  17.648   1.320  13.348
90443W        W62868  26.092  31.547   9.622
90444W        W62869   0.410  20.190   2.240
90445W        W62870  12.840  29.554   0.288
90446W        W62871  36.927  43.479  12.558
90447W        W62872  20.709   1.834   1.789
90448W        W62873  27.669   9.788  10.944
90449W        W62874  15.287   6.780  10.482
90450W        W62875   6.853  27.654  10.541
90451W        W62876  18.568  36.858  13.799
90452W        W62877  15.139  31.578  14.359
90453W        W62878  39.514  33.093  11.581
90454W        W62879  22.576  13.125  14.821
90455W        W62880  43.492  21.615   2.249
90456W        W62881  42.370  43.803   2.189
90457W        W62882  34.885  42.479   2.675
90458W        W62883  17.148  35.416  11.384
90459W        W62884   5.366  40.343   3.174
90460W        W62885  20.075  31.114   5.694
90461W        W62886  15.642  29.029   0.329
90462W        W62887   2.894  25.111  10.955
90463W        W62888  26.011   2.830  12.921
90464W        W62889   5.838  15.320  13.475
90465W        W62890  12.357  44.784   0.355
90466W        W62891  29.978  41.825  13.831
90467W        W62892  32.922  21.543  14.976
90468W        W62893  24.698   1.942  14.890
90469W        W62894  34.959  43.436   0.940
90470W        W62895  26.193  43.282   1.386
90471W        W62896  14.716   1.451  13.865
90472W        W62897  29.603  10.713   2.270
90473W        W62898   9.865  35.364   9.522
90474W        W62899   2.310   1.265   1.449
90475W        W62900  37.555  16.691   3.660
90476W        W62901  24.008  18.203  11.481
90477W        W62902   4.437   1.304   1.767
90478W        W62903   2.286  44.408   1.798
90479W        W62904  28.473  28.616  10.556
90480W        W62905  21.180  23.041  12.355
90481W        W62906  25.029  37.844  10.496
90482W        W62907  23.620  27.948  12.888
90483W        W62908  24.999  28.451   3.181
90484W        W62909  44.884  34.901   3.371
90485W        W62910  30.104  43.013   1.880
90486W        W62911   1.399  31.629  11.576
90487W        W62912  40.541  35.435   4.151
90488W        W62913  23.548   1.757  12.981
90489W        W62914  39.005  29.069  14.400
90490W        W62915  15.744  29.024   4.703
90491W        W62916  44.839   7.195   1.224
90492W        W62917  28.042  30.119  13.964
90493W        W62918   7.733   7.688  11.563
90494W        W62919  15.263  20.068  14.974
90495W        W62920  38.478  15.763   1.917
90496W        W62921  20.182  25.641   0.304
90497W        W62922   6.831  17.129   4.157
90498W        W62923  20.527  28.976  12.346
90499W        W62924   8.786  35.021  12.962
90500W        W62925  32.532   3.362   0.394
90501W        W62926  13.687   2.845  13.315
90502W        W62927  21.033  32.047  14.436
90503W        W62928  29.920  40.441   4.667
90504W        W62929  31.002  44.919   2.887
90505W        W62930  16.782   1.286   3.816
90506W        W62931  39.932  13.654   1.830
90507W        W62932  20.123   1.837  10.936
90508W        W62933  14.234  39.431   0.293
90509W        W62934  22.534  39.426   3.740
90510W        W62935  35.399   4.371   2.282
90511W        W62936  22.112   8.812   4.248
90512W        W62937   1.300  19.272  10.471
90513W        W62938   2.301  38.951   2.406
90514W        W62939  16.309  15.278  10.437
90515W        W62940  12.743   4.761   2.238
90516W        W62941  13.828   0.887  11.430
90517W        W62942  43.793   3.412  11.916
90518W        W62943   3.727  28.509   0.446
90519W        W62944  37.866  16.634  11.526
90520W        W62945  41.351  12.652   0.299
90521W        W62946  39.411  28.454   2.298
90522W        W62947  16.805   6.786   4.688
90523W        W62948  22.153  20.763   4.703
90524W        W62949  20.676  37.884   2.316
90525W        W62950  18.580   8.674  10.936
90526W        W62951  28.585   4.409   1.241
90527W        W62952  40.937  37.411   2.681
90528W        W62953  19.632  29.986   1.448
90529W        W62954  20.704  41.344  13.039
90530W        W62955  19.168   3.234  12.422
90531W        W62956  33.124  39.506  11.064
90532W        W62957   7.862  19.586   2.775
90533W        W62958  36.474  17.291   3.259
90534W        W62959  33.978  35.522   0.427
90535W        W62960  44.494  17.198   2.893
90536W        W62961   0.361  32.584  12.568
90537W        W62962  36.538  10.640  12.095
90538W        W62963  42.975  24.049  11.108
90539W        W62964  25.964  15.324   1.803
90540W        W62965  44.987  32.103  10.576
90541W        W62966  27.655  19.059  10.533
90542W        W62967  14.275  25.584   3.296
90543W        W62968  40.407  26.615  13.938
90544W        W62969  17.696   2.460   4.218
90545W        W62970  29.068  35.470  12.914
90546W        W62971  33.517  37.384  10.003
90547W        W62972   6.192   4.915  10.118
90548W        W62973  33.016   4.923  14.953
90549W        W62974   1.835   4.263   1.715
90550W        W62975  39.002  13.304  14.456
90551W        W62976   1.794  41.535   1.917
90552W        W62977  12.198  33.980   1.243
90553W        W62978  18.117  33.519   5.128
90554W        W62979  41.820  20.073   2.855
90555W        W62980   7.745  28.059  13.411
90556W        W62981  15.168  44.414   4.337
90557W        W62982  13.758  43.839  14.806
90558W        W62983  41.801  32.415   0.319
90559W        W62984  27.568  37.380   4.218
90560W        W62985  20.769   3.313  11.490
90561W        W62986  23.063   9.224  10.984
90562W        W62987  12.249  16.749   1.845
90563W        W62988  15.117  37.571   2.788
90564W        W62989   3.232   0.359  10.911
90565W        W62990   9.791  26.986   1.925
90566W        W62991  40.908   2.408  12.941
90567W        W62992  31.015  29.620   1.411
90568W        W62993  37.361  31.110   4.225
90569W        W62994  20.061  10.266  14.437
90570W        W62995  20.164   7.891   4.720
90571W        W62996  24.060   9.213   5.124
90572W        W62997  44.850  14.824   2.316
90573W        W62998  22.116  39.322  10.608
90574W        W62999  39.009  44.376  13.413
90575W        W63000  21.678  25.548  11.035
90576W        W63001   7.782  30.138  11.886
90577W        W63002  36.055  33.534   4.211
90578W        W63003  24.225   3.295  14.785
90579W        W63004  36.543  33.463   2.372
90580W        W63005   3.451   5.915  11.023
90581W        W63006   7.404  18.775   1.284
90582W        W63007   3.304   6.278   0.933
90583W        W63008  22.231  21.594   1.871
90584W        W63009  18.270  23.568   2.299
90585W        W63010  40.493  39.976   2.868
90586W        W63011  17.300   5.208  10.644
90587W        W63012  31.053  27.552  14.919
90588W        W63013   8.300  43.442  12.555
90589W        W63014   0.484   0.443   2.313
90590W        W63015  16.208   4.342  10.914
90591W        W63016  34.077  29.521   2.774
90592W        W63017  44.403  44.471   1.246
90593W        W63018  19.077  33.959   3.768
90594W        W63019  28.466  40.405   4.838
90595W        W63020  15.125  39.933  11.048
90596W        W63021   3.717  33.916   1.781
90597W        W63022  44.956  23.511  12.044
90598W        W63023  30.485   6.198  13.501
90599W        W63024  14.155   6.286  11.914
90600W        W63025  31.938  33.927   1.780
90601W        W63026  33.939  17.673  12.959
90602W        W63027  24.688   1.960  13.887
90603W        W63028  26.004  15.803  13.937
90604W        W63029  39.475  16.607  12.962
90605W        W63030   1.374   5.270   3.763
90606W        W63031  25.018   2.944   2.332
90607W        W63032   4.909  30.123   2.371
90608W        W63033  17.102   5.763  13.977
90609W        W63034  10.336  22.721   4.822
90610W        W63035   2.425  42.396   4.318
90611W        W63036  22.618   2.731   3.381
90612W        W63037   6.849  24.533   2.210
90613W        W63038   1.770  26.123   4.630
90614W        W63039  10.150  27.150   0.441
90615W        W63040  30.931  35.925   0.887
90616W        W63041   8.216   9.177   9.492
90617W        W63042  34.558   8.219   3.830
90618W        W63043  39.488  40.908   1.310
90619W        W63044  26.670   7.322  14.463
90620W        W63045   5.843  10.354  12.477
90621W        W63046  28.042  20.184  14.418
90622W        W63047  10.652  34.497   1.451
90623W        W63048  17.060   6.317  13.031
90624W        W63049   6.408   8.286   1.892
90625W        W63050   9.821  20.104  10.452
90626W        W63051  15.800  17.654  11.078
90627W        W63052   1.285  29.009   3.265
90628W        W63053  25.607  16.075  13.377
90629W        W63054  21.245  31.934   5.116
90630W        W63055  41.790   5.767   0.740
90631W        W63056   4.263   1.478  11.408
90632W        W63057  27.950  26.620  11.066
90633W        W63058  14.113   5.204  11.446
90634W        W63059  17.691  44.269  11.445
90635W        W63060  40.875   4.893   0.767
90636W        W63061  25.700  17.111  11.475
90637W        W63062  33.436  35.021  12.403
90638W        W63063  34.611  15.812  11.562
90639W        W63064  25.220   2.357   1.363
90640W        W63065  28.532  26.956   1.243
90641W        W63066  36.925  25.065   1.806
90642W        W63067  36.578  41.825  13.425
90643W        W63068  40.453  40.502  13.969
90644W        W63069   4.815  35.963  12.463
90645W        W63070  33.032  19.064  11.101
90646W        W63071  25.164  44.369  10.643
90647W        W63072  33.945  26.700   5.169
90648W        W63073  20.649  31.993   1.345
90649W        W63074  27.561  30.139  12.564
90650W        W63075   4.940  17.125  13.382
90651W        W63076   3.397  29.048  14.870
90652W        W63077   5.360   8.818  11.986
90653W        W63078   3.906   4.753   3.781
90654W        W63079  36.949  25.971   4.306
90655W        W63080  23.993  30.986  13.506
90656W        W63081  39.030  42.944  14.821
90657W        W63082  30.470  23.566  10.496
90658W        W63083  33.875  37.883   3.694
90659W        W63084  29.993   3.238   4.792
90660W        W63085   8.740  34.972  13.319
90661W        W63086  26.603  38.015  11.582
90662W        W63087  29.482  23.605  14.799
90663W        W63088   7.912  36.378   0.384
90664W        W63089  44.896  44.850  12.459
90665W        W63090  32.141  21.722  12.897
90666W        W63091  29.097  14.638   1.332
90667W        W63092  28.024  42.495  11.509
90668W        W63093  39.051  33.074   4.686
90669W        W63094  18.591  14.096   3.730
90670W        W63095  24.654   1.264  12.025
90671W        W63096  40.507  37.386  13.525
90672W        W63097  36.355  31.629  10.577
90673W        W63098  23.086  10.664   4.177
90674W        W63099  19.756  21.632  10.918
90675W        W63100  12.682  26.477   1.785
90676W        W63101  21.078  38.943  11.908
90677W        W63102  14.243  43.338   1.344
90678W        W63103  30.589  32.093   0.775
90679W        W63104  25.692  11.742   2.804
90680W        W63105  24.670  10.174  11.448
90681W        W63106  11.671  37.532   1.708
90682W        W63107  31.629  20.603   2.417
90683W        W63108  36.576  10.357   1.731
90684W        W63109  13.748  12.349  10.502
90685W        W63110  31.962   2.431   1.839
90686W        W63111  41.509  30.083   3.673
90687W        W63112   4.236  24.204   0.862
90688W        W63113  11.647  34.579  14.509
90689W        W63114  14.179  12.850  12.543
90690W        W63115  21.030  26.185  11.491
90691W        W63116  15.664  20.047   4.248
90692W        W63117  14.735  43.418   2.283
90693W        W63118   8.276  21.186   9.987
90694W        W63119   1.309   8.685   3.191
90695W        W63120  10.265  13.236  10.021
90696W        W63121  40.321  29.961  10.460
90697W        W63122  19.733  24.566   4.215
90698W        W63123  41.904  34.940   1.789
90699W        W63124  38.437  28.041   3.690
90700W        W63125  15.765  27.059  13.897
90701W        W63126  14.289  15.770  13.913
90702W        W63127  38.439  36.855  11.498
90703W        W63128  22.722   7.206  10.988
90704W        W63129  20.693  36.499   2.862
90705W        W63130  38.538  43.395  13.872
90706W        W63131  36.503  11.289   3.208
90707W        W63132  36.861   2.867   3.265
90708W        W63133   2.308   0.262  11.025
90709W        W63134  15.774  36.904  11.538
90710W        W63135  37.364   2.956  10.407
90711W        W63136  21.035  19.772   1.790
90712W        W63137  18.174  28.642  14.915
90713W        W63138   6.836  22.530  14.282
90714W        W63139   6.918  38.865  12.001
90715W        W63140  17.103  39.476   0.731
90716W        W63141   9.294  28.483   3.151
90717W        W63142  33.995  36.887   3.655
90718W        W63143  22.034  33.498  11.108
90719W        W63144   6.185  20.554  13.378
90720W        W63145  24.633   9.260   1.306
90721W        W63146  41.524  21.068   0.939
90722W        W63147  23.231  12.679  14.842
90723W        W63148  29.653  42.838   1.764
90724W        W63149  41.813  37.006  13.990
90725W        W63150   9.190  27.550   0.958
90726W        W63151   1.749   8.347   2.877
90727W        W63152  24.135  15.112   0.347
90728W        W63153  28.960  10.232   5.266
90729W        W63154  15.793   3.837  10.970
90730W        W63155  22.538  34.538  14.465
90731W        W63156   6.324  13.253  13.967
90732W        W63157   5.813  43.435  11.599
90733W        W63158  20.705  40.311  14.424
90734W        W63159  13.833  30.523   0.747
90735W        W63160  20.100  15.301  11.934
90736W        W63161  35.025  22.152  14.278
90737W        W63162  11.657  14.240   0.763
90738W        W63163   2.800  24.049   4.605
90739W        W63164  16.158  13.745   1.370
90740W        W63165  21.616  26.683   4.826
90741W        W63166  31.468  14.801  12.433
90742W        W63167  16.615  14.167   0.799
90743W        W63168  17.610  24.488  10.612
90744W        W63169  30.543  12.727   4.136
90745W        W63170  29.945   5.250   4.599
90746W        W63171  32.098  24.605   3.292
90747W        W63172   5.736  24.021  12.481
90748W        W63173  35.482  10.680  13.036
90749W        W63174  29.643  41.816   5.202
90750W        W63175  16.187  44.262   4.626
90751W        W63176  21.061  27.066   5.315
90752W        W63177  23.999   3.451  12.021
90753W        W63178   1.280  13.633   1.829
90754W        W63179  11.816  32.050  11.939
90755W        W63180  38.062   0.913   3.742
90756W        W63181  33.597  15.248   0.340
90757W        W63182   0.371  29.642  12.429
90758W        W63183  13.233  24.981  14.306
90759W        W63184  14.152   7.841  11.468
90760W        W63185  39.433  37.338  14.759
90761W        W63186  31.561  17.634   3.778
90762W        W63187   6.342  18.689   5.175
90763W        W63188   9.732  35.042  10.489
90764W        W63189  35.442  39.329  14.412
90765W        W63190  44.765   3.361  14.507
90766W        W63191  15.303  10.805   1.313
90767W        W63192   4.781  14.155   0.396
90768W        W63193  29.066  10.856   0.376
90769W        W63194  44.856  33.119   4.678
90770W        W63195  34.929  24.218  14.420
90771W        W63196  17.280  28.658  11.077
90772W        W63197  10.655  26.622  11.885
90773W        W63198  38.010  41.342   1.357
90774W        W63199  20.532  43.400  12.889
90775W        W63200   5.747  34.067  12.913
90776W        W63201  10.253  42.856   3.209
90777W        W63202  12.666  38.940  14.382
90778W        W63203  13.342  20.188  12.397
90779W        W63204  37.534  36.014  13.451
90780W        W63205  11.658  34.969   3.865
90781W        W63206  10.773  12.834   0.790
90782W        W63207  33.013  14.297  14.358
90783W        W63208  38.503  37.830  14.303
90784W        W63209  20.065  36.018   5.111
90785W        W63210  10.705   2.814   1.335
90786W        W63211   3.400  23.192   2.252
90787W        W63212  26.983  16.192  12.546
90788W        W63213   1.859   0.364  11.895
90789W        W63214  33.597  13.779   0.934
90790W        W63215  36.494  10.834  13.878
90791W        W63216   5.706  39.984   1.711
90792W        W63217  15.119  13.767   3.800
90793W        W63218  18.692  31.072   3.846
90794W        W63219  32.961   1.452  10.965
90795W        W63220  21.736  24.220   3.758
90796W        W63221  19.144   1.275  10.007
90797W        W63222  36.935   3.333   2.340
90798W        W63223  27.076   3.721   3.846
90799W        W63224  44.871  13.293   3.820
90800W        W63225  35.443  41.368  13.793
90801W        W63226   0.340  21.627   2.291
90802W        W63227  27.517  13.116   0.826
90803W        W63228  14.645  37.934  13.389
90804W        W63229  15.734   7.401  10.899
90805W        W63230  12.235  32.113   1.923
90806W        W63231  33.041  22.683   0.421
90807W        W63232  11.148  22.201   0.304
90808W        W63233  11.745  32.489   0.408
90809W        W63234  13.664  22.218   3.178
90810W        W63235  22.996  37.576   2.663
90811W        W63236  33.937   7.272   0.404
90812W        W63237  43.812  21.673  12.004
90813W        W63238  25.124  10.741   2.887
90814W        W63239  40.827  15.644   3.789
90815W        W63240  31.016  21.113  10.087
90816W        W63241   7.329   3.253   0.889
90817W        W63242  32.981  16.264  12.843
90818W        W63243   3.793  25.215  11.504
90819W        W63244  10.250  33.047   1.280
90820W        W63245  25.143  23.664   3.828
90821W        W63246   4.795   5.717  12.350
90822W        W63247  35.444  38.071  11.888
90823W        W63248   1.439  28.172   0.834
90824W        W63249  37.933  41.822  12.427
90825W        W63250  36.386  19.603   1.703
90826W        W63251  40.321  30.449  10.993
90827W        W63252   0.486   8.197  11.554
90828W        W63253  41.974  39.040   1.777
90829W        W63254  26.038  39.955  12.016
90830W        W63255  34.902  43.476   1.858
90831W        W63256   6.335  22.718   4.765
90832W        W63257  15.661  30.491  11.481
90833W        W63258  43.350  15.647  13.873
90834W        W63259  22.680  23.059  13.912
90835W        W63260  16.569   2.472  11.111
90836W        W63261  28.090  12.714   4.147
90837W        W63262  11.799  32.072  10.042
90838W        W63263  30.502  43.929  12.982
90839W        W63264  25.659   3.933  14.901
90840W        W63265   0.248   5.745   1.887
90841W        W63266   4.900  17.611  10.442
90842W        W63267   5.717  22.248  11.860
90843W        W63268  31.061   0.816   1.309
90844W        W63269  36.457  42.009   0.474
90845W        W63270  35.078  13.268  14.423
90846W        W63271   7.193   5.346  11.935
90847W        W63272   8.820  10.725  12.062
90848W        W63273  15.778  30.544  12.482
90849W        W63274  13.678  15.794   0.752
90850W        W63275  23.183  28.111  12.828
90851W        W63276  36.411  25.655  13.409
90852W        W63277  43.481  19.539  13.839
90853W        W63278  41.511  19.584   3.351
90854W        W63279  35.087  41.397  14.010
90855W        W63280  19.068  23.580   0.893
90856W        W63281   7.284   4.382  13.457
90857W        W63282  29.069  37.480   0.471
90858W        W63283  20.116  39.039  13.432
90859W        W63284  17.776  22.519   0.451
90860W        W63285   0.348   2.466  14.954
90861W        W63286  32.552   8.738   3.694
90862W        W63287  34.055   9.230  13.830
90863W        W63288  20.525  21.049  13.510
90864W        W63289  38.442  29.969  13.324
90865W        W63290  33.967   9.287  12.470
90866W        W63291  32.500  31.408   2.705
90867W        W63292   5.317  28.530   1.753
90868W        W63293   7.800  10.325  13.935
90869W        W63294  10.723  41.863  12.924
90870W        W63295  42.827  14.152  12.071
90871W        W63296  43.502  10.824  13.448
90872W        W63297  10.335  39.413  10.919
90873W        W63298   6.762  16.314  10.461
90874W        W63299  24.487  37.397  12.045
90875W        W63300  41.527  10.307  13.329
90876W        W63301  14.641  22.598  10.108
90877W        W63302  44.890  11.322   1.779
90878W        W63303   1.754  29.646  13.403
90879W        W63304  19.638   1.920  14.360
90880W        W63305   2.440  42.408  13.832
90881W        W63306  43.929   4.416  10.510
90882W        W63307  41.002  27.041   4.793
90883W        W63308   6.185  17.260  10.459
90884W        W63309  34.046  32.914  11.587
90885W        W63310  24.510  18.280  13.512
90886W        W63311  34.480  30.626   0.279
90887W        W63312  16.318  27.545  12.853
90888W        W63313  38.366   3.293  12.574
90889W        W63314  13.769  37.447   3.732
90890W        W63315  25.564  13.232  12.831
90891W        W63316  19.150   8.887   4.200
90892W        W63317   6.390  27.587  10.978
90893W        W63318   4.295  30.500  10.578
90894W        W63319  42.437   3.775   3.208
90895W        W63320  29.128   0.452   2.702
90896W        W63321  41.912  28.184   1.283
90897W        W63322   8.185  27.480  11.607
90898W        W63323  16.662  40.473   3.640
90899W        W63324  27.105  40.401   4.618
90900W        W63325  31.956   1.307   4.215
90901W        W63326  22.736   5.861  11.473
90902W        W63327  11.245  26.127  12.351
90903W        W63328  36.387  15.223  13.493
90904W        W63329  13.647  10.150   4.691
90905W        W63330  32.629  30.569  11.420
90906W        W63331   0.462   7.734  10.990
90907W        W63332  22.681  32.495  14.934
90908W        W63333  44.820  41.324   3.203
90909W        W63334  17.220  33.452  14.880
90910W        W63335  22.647  29.642  11.390
90911W        W63336  21.679  17.214   3.650
90912W        W63337  39.493  24.532  13.455
90913W        W63338  41.984  23.710  12.841
90914W        W63339  29.071  37.069  11.597
90915W        W63340  18.116  14.329  14.420
90916W        W63341  19.611   2.831  10.420
90917W        W63342  41.390  21.019   0.361
90918W        W63343  19.157   0.802   1.390
90919W        W63344  20.714  31.927  10.963
90920W        W63345   2.279  37.480  13.311
90921W        W63346  35.398  27.554   4.328
90922W        W63347  26.535  39.947   3.820
90923W        W63348  43.876   7.318   4.664
90924W        W63349  36.066  41.029   2.679
90925W        W63350  15.617  33.124   0.863
90926W        W63351  25.002  15.686   4.820
90927W        W63352  42.523  20.161   4.266
90928W        W63353  17.724   0.893   1.846
90929W        W63354  23.661  35.082  11.595
90930W        W63355  35.432  26.629  13.060
90931W        W63356  13.770   9.210   1.397
90932W        W63357   6.869  43.962  12.444
90933W        W63358   0.772  21.055  13.983
90934W        W63359   3.392  22.643   3.678
90935W        W63360  14.339  29.636   0.337
90936W        W63361  42.896  20.679  12.344
90937W        W63362  44.975  11.711  11.431
90938W        W63363  18.637   1.761   0.253
90939W        W63364   7.878   0.274  11.052
90940W        W63365   3.894   2.285   3.662
90941W        W63366  33.553  43.484   4.814
90942W        W63367  29.524  18.176  13.540
90943W        W63368  32.470  15.173   1.854
90944W        W63369  10.680  44.918   2.385
90945W        W63370  17.567  41.325  12.441
90946W        W63371  23.163  16.240   0.816
90947W        W63372  37.038  43.966  12.092
90948W        W63373  12.231  17.075  13.434
90949W        W63374   5.230  22.190  14.288
90950W        W63375  30.977  16.116  10.082
90951W        W63376  16.708  18.619  14.968
90952W        W63377  32.575   2.234  10.989
90953W        W63378  24.070  17.118   1.924
90954W        W63379  23.685   7.225  12.844
90955W        W63380  30.113  35.450  13.452
90956W        W63381   2.390  37.356   1.910
90957W        W63382  39.464  38.347   1.830
90958W        W63383   5.274   1.427   3.258
90959W        W63384  11.291  15.688  13.016
90960W        W63385  23.059  44.875  11.865
90961W        W63386  43.816  36.877  13.487
90962W        W63387  23.556  40.416  12.551
90963W        W63388   3.817  30.592   4.644
90964W        W63389  26.685  38.905  12.410
90965W        W63390  37.887   1.793  10.456
90966W        W63391  14.615   7.302  12.472
90967W        W63392  20.566  44.775  10.436
90968W        W63393   2.935   6.834  13.309
90969W        W63394  41.989  15.705  13.378
90970W        W63395  17.625  17.640  13.851
90971W        W63396  12.699  38.826  13.798
90972W        W63397  34.887  20.063   2.847
90973W        W63398  18.125   8.860   0.426
90974W        W63399   3.785  36.992   1.277
90975W        W63400  37.964   8.809   0.301
90976W        W63401  41.891  25.069   1.927
90977W        W63402   8.401   7.386  13.379
90978W        W63403  18.710  14.200  13.495
90979W        W63404  43.433  43.932  14.307
90980W        W63405   9.870  25.483  13.912
90981W        W63406  26.197  35.541  10.970
90982W        W63407  14.595  28.951  13.542
90983W        W63408  31.541  22.616  12.553
90984W        W63409  40.913   5.340   0.285
90985W        W63410  13.742  39.364  11.042
90986W        W63411  19.603  13.622  10.545
90987W        W63412   3.431  25.015  12.955
90988W        W63413   2.782  34.026   4.183
90989W        W63414  10.740  32.611   1.225
90990W        W63415  19.698  31.924  11.028
90991W        W63416  30.626  26.956  12.373
90992W        W63417  30.644  38.056  11.491
90993W        W63418  19.568  40.404   4.818
90994W        W63419  32.447   1.420  13.385
90995W        W63420  30.625   5.331   4.688
90996W        W63421  32.893  23.491  10.565
90997W        W63422  21.208  27.040   3.363
90998W        W63423  23.711  34.614   1.729
90999W        W63424  40.977  21.094  10.488
91000W        W63425  21.134  26.496   4.669
91001W        W63426  38.843  38.035  12.055
91002W        W63427   1.765  12.330   0.922
91003W        W63428  22.029  44.010  14.507
91004W        W63429  37.901  39.023   1.244
91005W        W63430  13.719  27.591  10.577
91006W        W63431  38.886   4.920  13.001
91007W        W63432  44.433   3.303  14.897
91008W        W63433   1.361  31.082   2.296
91009W        W63434  28.663  17.238  11.887
91010W        W63435  36.388  13.698   0.766
91011W        W63436  13.346  30.539  10.979
91012W        W63437  36.367  15.179   0.378
91013W        W63438   7.870  43.387  10.975
91014W        W63439  13.197  12.677   2.777
91015W        W63440   3.221   4.738  11.115
91016W        W63441  40.971  44.493   9.473
91017W        W63442  20.732   1.465   4.740
91018W        W63443  33.520  37.029   0.890
91019W        W63444  10.208  25.029  14.931
91020W        W63445  35.387  30.542  13.016
91021W        W63446  38.475  40.445  11.011
91022W        W63447  14.620   5.362   1.393
91023W        W63448  43.319   5.923   4.781
91024W        W63449   6.708  30.566  14.370
91025W        W63450  23.193  37.956  14.923
91026W        W63451  25.042   6.361  14.289
91027W        W63452  19.541  11.284   1.744
91028W        W63453  18.732   0.795   2.797
91029W        W63454  39.456  17.197   4.793
91030W        W63455  25.074  31.526  13.457
91031W        W63456  38.923   4.374   0.361
91032W        W63457  26.127  11.339  12.503
91033W        W63458  11.309  39.030  12.444
91034W        W63459  19.178   9.821   1.430
91035W        W63460  10.273   0.869   2.233
91036W        W63461   0.276  10.315  13.954
91037W        W63462  29.113   7.821  14.899
91038W        W63463  22.696   8.403  10.947
91039W        W63464  32.924   0.849   3.310
91040W        W63465  38.852  17.576   2.837
91041W        W63466   9.188  31.965   2.674
91042W        W63467  11.730  24.050  12.964
91043W        W63468  11.836  15.298  12.840
91044W        W63469  27.059  32.401   3.714
91045W        W63470  24.223  42.991  10.022
91046W        W63471  38.906  42.915  11.115
91047W        W63472  28.449   1.789  11.478
91048W        W63473  37.344  17.686   2.280
91049W        W63474  18.114  36.543  10.515
91050W        W63475  26.482  32.623   1.213
91051W        W63476  18.063  18.179   1.415
91052W        W63477  20.563  14.292   2.809
91053W        W63478   0.478  35.599   0.404
91054W        W63479   1.894   4.220  11.050
91055W        W63480  21.579  27.552  10.447
91056W        W63481  15.199  41.032   4.211
91057W        W63482  18.617  18.166   3.771
91058W        W63483  17.247  17.626   2.816
91059W        W63484  36.552  22.228  10.434
91060W        W63485  29.970  25.178  12.412
91061W        W63486   2.342  16.272   2.230
91062W        W63487   8.811  44.777   2.410
91063W        W63488   4.393  34.072   4.745
91064W        W63489  34.556   0.293   2.893
91065W        W63490  22.063  14.141  11.865
91066W        W63491  26.616  35.970  14.494
91067W        W63492  32.026   0.966  11.389
91068W        W63493   7.817  36.030  10.993
91069W        W63494   6.905  33.408   4.287
91070W        W63495  28.072  41.014  11.085
91071W        W63496  38.898  36.894   1.820
91072W        W63497  23.991   9.333   2.266
91073W        W63498   0.479  36.547   3.736
91074W        W63499   4.772   9.754   0.250
91075W        W63500   8.736   7.358  14.895
91076W        W63501  14.700  17.733   1.904
91077W        W63502  43.783  27.689  13.459
91078W        W63503  13.259   7.682  11.018
91079W        W63504  13.283  22.162  11.086
91080W        W63505  25.035  38.543   1.886
91081W        W63506   5.417  25.601   4.620
91082W        W63507   1.273  36.869   3.701
91083W        W63508  35.476   1.896   2.275
91084W        W63509  31.502   2.277   4.742
91085W        W63510  15.725  38.994  10.903
91086W        W63511  42.873  32.128   3.778
91087W        W63512   2.332  41.391   3.780
91088W        W63513   1.384  29.660  14.975
91089W        W63514   1.827   3.407   1.298
91090W        W63515   7.748  27.620   4.176
91091W        W63516  42.290  19.554  12.916
91092W        W63517  40.520  44.879   2.341
91093W        W63518  39.421  31.056  12.063
91094W        W63519  13.242   1.775   4.237
91095W        W63520  43.990  21.059   3.184
91096W        W63521  22.716  38.931   0.967
91097W        W63522  33.590   8.292   2.728
91098W        W63523  22.747  24.003   1.260
91099W        W63524  24.128  44.816   1.230
91100W        W63525   6.420  42.871  12.400
91101W        W63526  11.211  36.918  12.928
91102W        W63527  41.485  24.635  11.100
91103W        W63528  18.112  30.653  12.008
91104W        W63529   5.388  10.786   3.729
91105W        W63530  37.361  44.968   1.890
91106W        W63531  41.533  13.209  14.471
91107W        W63532  11.162   4.772  14.933
91108W        W63533  29.166  32.076  11.003
91109W        W63534  27.131   6.363  11.089
91110W        W63535  44.844  35.367   2.356
91111W        W63536  25.518  37.343  14.936
91112W        W63537   4.390  26.588  14.014
91113W        W63538  27.544  43.872   2.407
91114W        W63539  11.348  36.912   3.235
91115W        W63540  34.054  17.740   2.221
91116W        W63541   4.392  35.598  14.816
91117W        W63542   4.288  43.900  13.041
91118W        W63543  31.622   6.903   4.779
91119W        W63544  38.911  12.847  14.799
91120W        W63545   8.705   2.379   0.758
91121W        W63546  32.988  31.569  12.491
91122W        W63547  32.891  44.315   4.725
91123W        W63548  36.079  15.319   3.795
91124W        W63549  12.170  34.946   3.827
91125W        W63550  30.949   9.368   1.830
91126W        W63551  26.050  26.538  10.996
91127W        W63552  27.630  21.545  12.443
91128W        W63553   5.861  24.483  14.830
91129W        W63554  44.906  41.800   2.228
91130W        W63555  17.767  31.093  12.466
91131W        W63556  41.479  30.085  14.959
91132W        W63557   2.254  36.066   1.758
91133W        W63558  33.502  22.074  11.009
91134W        W63559  34.507   8.267   2.265
91135W        W63560   9.248  29.620  13.373
91136W        W63561  41.361  16.268   0.866
91137W        W63562  19.732  36.588   0.321
91138W        W63563  38.030  15.682   3.730
91139W        W63564  22.678  36.040  11.128
91140W        W63565   0.436  41.832  12.564
91141W        W63566  16.123  35.090   4.666
91142W        W63567  42.462  17.103  13.849
91143W        W63568  23.053  24.549   1.881
91144W        W63569  43.498  22.226   0.908
91145W        W63570  36.892  39.032   4.642
91146W        W63571  30.080  39.364   4.626
91147W        W63572  32.446  39.360  11.940
91148W        W63573   1.801  14.219  12.379
91149W        W63574  26.544  33.600   2.815
91150W        W63575  35.505  16.099   4.265
91151W        W63576  29.641  34.931   0.391
91152W        W63577  26.158  31.947  10.073
91153W        W63578  29.977  40.872  14.311
91154W        W63579   5.241  10.336  12.963
91155W        W63580  25.020   4.916  13.996
91156W        W63581  27.007  30.103  11.954
91157W        W63582  20.122  33.896  10.467
91158W        W63583  39.891  43.855  12.999
91159W        W63584  12.772  20.248   4.259
91160W        W63585  13.107  37.374   3.350
91161W        W63586  22.717  21.596  12.855
91162W        W63587  30.607  16.626   0.271
91163W        W63588  18.086  27.044   1.366
91164W        W63589  26.158  38.022   3.762
91165W        W63590  28.052  13.202  14.786
91166W        W63591  21.526  39.015   4.805
91167W        W63592  44.857  20.612   0.388
91168W        W63593  20.042   6.241   1.434
91169W        W63594  33.614  26.459   0.877
91170W        W63595  15.715  19.266   1.236
91171W        W63596  32.604   5.716   0.314
91172W        W63597  24.640  26.623   3.361
91173W        W63598  23.135  39.840   2.747
91174W        W63599  22.026  19.054  12.970
91175W        W63600  28.167  25.168   4.785
91176W        W63601  42.893  24.522  12.571
91177W        W63602  22.540  26.610   5.251
91178W        W63603  39.915   3.226  11.610
91179W        W63604  32.057  18.282  12.001
91180W        W63605  16.604  29.926   2.416
91181W        W63606  29.670  24.214   3.785
91182W        W63607   9.757   6.716  12.045
91183W        W63608  40.995  42.953  10.540
91184W        W63609  21.076   8.805  11.084
91185W        W63610   2.771  25.567   1.744
91186W        W63611  43.297   2.372   3.177
91187W        W63612  34.990  31.117  14.008
91188W        W63613  12.312  38.345   1.374
91189W        W63614  35.039   8.714  11.098
91190W        W63615  37.510   5.261  14.012
91191W        W63616   4.880  26.620  14.888
91192W        W63617   4.287  39.484   3.298
91193W        W63618  39.369  18.660  10.404
91194W        W63619  19.682  44.008  11.500
91195W        W63620   0.403  40.818   3.783
91196W        W63621  40.421  29.594   1.392
91197W        W63622  41.427  11.240  13.436
91198W        W63623  24.025  21.594  14.388
91199W        W63624  20.178  29.120   1.413
91200W        W63625   2.380  39.452   3.348
91201W        W63626  20.643  17.700   0.730
91202W        W63627  20.158  18.124  11.998
91203W        W63628  21.048  40.941  14.420
91204W        W63629  37.546  19.774   4.305
91205W        W63630  14.294  30.491   0.242
91206W        W63631  40.386  20.688  12.072
91207W        W63632  36.488   1.845   3.160
91208W        W63633  17.151   0.336  12.434
91209W        W63634  29.466  21.708   0.961
91210W        W63635   5.717  27.597  13.828
91211W        W63636   6.359   5.735  12.483
91212W        W63637  12.790  24.134  10.520
91213W        W63638  21.082  28.616  13.829
91214W        W63639  38.495  37.504  14.430
91215W        W63640  18.211   4.345   4.638
91216W        W63641  12.819  30.552   0.322
91217W        W63642  42.290  10.711  14.854
91218W        W63643  24.985   8.870  10.529
91219W        W63644  32.548  20.707   1.272
91220W        W63645  16.699  43.480  14.486
91221W        W63646  29.120  27.652   4.600
91222W        W63647   7.183  25.607  14.863
91223W        W63648  30.641  25.554   1.328
91224W        W63649  31.007  19.589  14.847
91225W        W63650  41.812  39.335   0.419
91226W        W63651  42.972  18.713   0.736
91227W        W63652  36.007  11.850  12.485
91228W        W63653  33.523  43.382   0.803
91229W        W63654  11.266  33.929  13.539
91230W        W63655  41.307  43.885  14.885
91231W        W63656  28.062   7.678   3.707
91232W        W63657  14.268   0.257  13.832
91233W        W63658  37.916   3.325   1.770
91234W        W63659   2.806  38.384  11.919
91235W        W63660  40.384  18.607   2.698
91236W        W63661  26.603  38.434   1.854
91237W        W63662   5.388  34.408   2.338
91238W        W63663  41.828   0.315  14.299
91239W        W63664   6.797  22.578  12.410
91240W        W63665  17.739  29.170   2.258
91241W        W63666  32.472  18.707   0.910
91242W        W63667  15.261  38.064  11.938
91243W        W63668  16.163  31.025  10.493
91244W        W63669  18.639   9.300  14.320
91245W        W63670  30.448  16.741   9.672
91246W        W63671  29.631  21.633  11.937
91247W        W63672  28.556   2.872   1.245
91248W        W63673  11.734   0.357  13.308
91249W        W63674  17.651  38.058  13.353
91250W        W63675  24.570   2.251   4.336
91251W        W63676  11.226   1.417   3.680
91252W        W63677  41.415  37.476   4.629
91253W        W63678   4.221  13.705  13.056
91254W        W63679   3.423  35.104   2.330
91255W        W63680   8.252  13.205   4.224
91256W        W63681  40.848  14.207  13.537
91257W        W63682  34.089  39.842   1.781
91258W        W63683  31.025  28.467  13.537
91259W        W63684  15.712  41.810   3.184
91260W        W63685  38.375   3.752   1.731
91261W        W63686   8.793   1.278   0.782
91262W        W63687   9.745  17.127   0.329
91263W        W63688  28.984  27.530  12.903
91264W        W63689   7.851  17.662  10.618
91265W        W63690  32.619   7.779  13.310
91266W        W63691  41.787  21.659   3.711
91267W        W63692  26.655  32.044   1.397
91268W        W63693  35.018  20.751  11.503
91269W        W63694   5.235  34.891   4.646
91270W        W63695   1.256  22.216   0.727
91271W        W63696   8.396  43.503   2.785
91272W        W63697  33.912  22.023  11.573
91273W        W63698  38.325  24.502  13.436
91274W        W63699   6.744  25.533   0.431
91275W        W63700  34.505  42.301  14.019
91276W        W63701  29.432  24.628   4.811
91277W        W63702  34.518  29.077   4.330
91278W        W63703  40.332   5.355  13.062
91279W        W63704  23.044  23.727   0.399
91280W        W63705  16.191  36.049   5.203
91281W        W63706  34.613   3.924  14.851
91282W        W63707   5.290  31.909  12.485
91283W        W63708  41.862  32.599  11.562
91284W        W63709  34.918  13.732  10.568
91285W        W63710  33.617   6.738   0.247
91286W        W63711  27.987  14.203   2.804
91287W        W63712  30.519   5.298   4.168
91288W        W63713  38.999  44.363   3.750
91289W        W63714  28.038  30.124   0.357
91290W        W63715  36.876  22.124  14.908
91291W        W63716  18.620  43.845   4.354
91292W        W63717  15.768   0.891   4.742
91293W        W63718  43.389  35.930  12.914
91294W        W63719  16.791  14.111   2.210
91295W        W63720   1.815  22.617  12.980
91296W        W63721   2.317  29.544   3.840
91297W        W63722   9.694  21.137  14.819
91298W        W63723  11.227  33.391   4.799
91299W        W63724  27.455  40.314   4.601
91300W        W63725  42.879  20.107   0.442
91301W        W63726  29.449  18.282   0.460
91302W        W63727  30.016  12.160   3.208
91303W        W63728  29.464  41.324   4.742
91304W        W63729  15.317  16.804   3.319
91305W        W63730  32.566   9.200  13.828
91306W        W63731  44.332  13.717   4.698
91307W        W63732  21.071  42.990   3.250
91308W        W63733  24.086  40.044   4.598
91309W        W63734  23.176  13.741  10.913
91310W        W63735   0.955  14.161   0.761
91311W        W63736  31.117  16.300  13.997
91312W        W63737  44.871  24.603  13.396
91313W        W63738  32.630  39.369   0.419
91314W        W63739  11.351  42.299  11.965
91315W        W63740  14.652   0.944   1.392
91316W        W63741  17.293  13.686   3.681
91317W        W63742  43.355  35.436   2.745
91318W        W63743  32.504  14.730   0.350
91319W        W63744   3.748  38.335   4.789
91320W        W63745  31.905  13.835   1.794
91321W        W63746  31.513   5.213  10.514
91322W        W63747  10.764   2.344  14.778
91323W        W63748  36.484  24.064   3.346
91324W        W63749  34.886  22.743   4.291
91325W        W63750  12.145   5.773  11.986
91326W        W63751  37.478  25.124  11.051
91327W        W63752  13.339   0.765   4.197
91328W        W63753  37.976  11.246   3.154
91329W        W63754  29.440   6.354   4.310
91330W        W63755  21.062  38.382  13.514
91331W        W63756  15.692  17.100   2.315
91332W        W63757   5.435  27.085   0.849
91333W        W63758  34.536  25.708  14.408
91334W        W63759  42.524  29.074   2.294
91335W        W63760  37.490  29.080  14.300
91336W        W63761  10.662  43.001   3.757
91337W        W63762  34.577  27.046  14.789
91338W        W63763   1.262   8.855   1.444
91339W        W63764  37.944  16.103  12.985
91340W        W63765   4.759  16.315   4.716
91341W        W63766  22.180  13.138   4.263
91342W        W63767   9.387   8.834  12.982
91343W        W63768  43.436  24.705  14.989
91344W        W63769  31.946   2.405  13.471
91345W        W63770  17.140  22.723   1.288
91346W        W63771  43.371  11.195   4.760
91347W        W63772  23.057  40.808   0.428
91348W        W63773  18.246  31.648   2.885
91349W        W63774  10.347  10.791  14.798
91350W        W63775   1.307  38.841   3.678
91351W        W63776  27.155   4.235  11.468
91352W        W63777  27.977   7.269  13.473
91353W        W63778  22.538   2.403   1.237
91354W        W63779  41.887  22.226   1.352
91355W        W63780  43.990   9.297   0.479
91356W        W63781  27.079  29.139   2.389
91357W        W63782   8.791  10.768   4.636
91358W        W63783  18.242   5.378   2.736
91359W        W63784  39.497  44.928   4.771
91360W        W63785  43.001  21.195   0.808
91361W        W63786  11.166  39.865  10.626
91362W        W63787   6.295   6.888   0.855
91363W        W63788  10.173   9.237   2.341
91364W        W63789   1.337  19.643  14.397
91365W        W63790   6.745  38.040   0.453
91366W        W63791  13.697   4.933  10.566
91367W        W63792  39.901  12.671  12.524
91368W        W63793   4.400  33.553  11.117
91369W        W63794  23.151   1.909   4.803
91370W        W63795  25.993  11.208  12.881
91371W        W63796   8.380  10.350  11.413
91372W        W63797  39.863  42.487  12.898
91373W        W63798  10.219  19.269  13.042
91374W        W63799  30.631   8.192   3.209
91375W        W63800  40.466  16.659  12.985
91376W        W63801  23.692  14.202  12.406
91377W        W63802   3.883   4.808  13.866
91378W        W63803  32.613  27.151   3.858
91379W        W63804  43.430  13.336   0.857
91380W        W63805  22.563  35.979  12.439
91381W        W63806  14.673  20.193  11.014
91382W        W63807  18.053  26.628  14.385
91383W        W63808  26.633  18.165   1.746
91384W        W63809  33.543  18.600   2.747
91385W        W63810   0.489  12.187   1.296
91386W        W63811   2.943  19.557  14.913
91387W        W63812  32.415  43.387  11.523
91388W        W63813  21.683   9.276   1.864
91389W        W63814   9.857  38.384  11.089
91390W        W63815  16.692  28.986  14.845
91391W        W63816  26.607  14.793   4.215
91392W        W63817  12.267   2.261   2.198
91393W        W63818  43.376  28.488   0.842
91394W        W63819  37.082  28.670   0.263
91395W        W63820  18.214  42.369   0.926
91396W        W63821  25.564  10.663  13.461
91397W        W63822  34.469  14.150  12.845
91398W        W63823  34.409  17.784   2.207
91399W        W63824   2.921  33.097  12.461
91400W        W63825  13.220  43.943  12.829
91401W        W63826  35.982  31.019   4.640
91402W        W63827  40.853  22.731  10.521
91403W        W63828  17.143  19.639  12.850
91404W        W63829   6.811  29.941  13.948
91405W        W63830  14.098  44.481   3.784
91406W        W63831  22.154  19.237   4.242
91407W        W63832  33.624  33.068   2.751
91408W        W63833  35.859  32.943  13.042
91409W        W63834  25.614  32.522  13.503
91410W        W63835  42.311  10.697  13.832
91411W        W63836  17.643  35.050   1.829
91412W        W63837  24.001  24.982   5.143
91413W        W63838  37.511  43.964   2.216
91414W        W63839  22.064  24.148  14.460
91415W        W63840   4.336  13.168   2.707
91416W        W63841  26.059  42.822   2.302
91417W        W63842  27.948  29.577   2.205
91418W        W63843   1.892  14.749   1.743
91419W        W63844  15.221   9.271  13.472
91420W        W63845  30.942  29.161   1.301
91421W        W63846  20.641  27.960   4.286
91422W        W63847  19.153  19.606   2.370
91423W        W63848  28.174  29.148  14.444
91424W        W63849  15.089  44.491  11.455
91425W        W63850   0.351  12.235  14.856
91426W        W63851  13.114   2.339   4.299
91427W        W63852   2.745   6.745   4.769
91428W        W63853  43.845  31.091   2.178
91429W        W63854  12.301  17.149  11.097
91430W        W63855  21.566  41.445   1.324
91431W        W63856  31.548  36.525  13.494
91432W        W63857  23.594   3.234  13.371
91433W        W63858  15.292  18.279   4.313
91434W        W63859  23.157  25.040   0.742
91435W        W63860  44.874  12.790   2.239
91436W        W63861   8.730  39.996   1.730
91437W        W63862  33.880  27.165  12.046
91438W        W63863  26.625   1.788  11.568
91439W        W63864   1.288  23.658   0.417
91440W        W63865  35.853  19.069  10.414
91441W        W63866  30.968  20.752   4.833
91442W        W63867  27.540   6.818   0.414
91443W        W63868  31.073  32.000  14.378
91444W        W63869   8.797  30.083  11.005
91445W        W63870  18.235  18.783   2.774
91446W        W63871  27.634   6.738   2.837
91447W        W63872  13.345   3.938   1.419
91448W        W63873  40.037  29.492   1.809
91449W        W63874  29.082  43.270  14.889
91450W        W63875   7.896  44.756  11.882
91451W        W63876  35.911  25.538   2.832
91452W        W63877  22.636  14.317   1.275
91453W        W63878  29.572  44.813  10.425
91454W        W63879   7.264  23.162   4.243
91455W        W63880   4.774  19.628  12.086
91456W        W63881  44.794  34.951  11.874
91457W        W63882  30.974   5.881  13.361
91458W        W63883  32.619  35.493   4.623
91459W        W63884   1.820  37.384   4.674
91460W        W63885  10.778  34.537  14.942
91461W        W63886  44.383   5.932  11.052
91462W        W63887  16.615  17.758  14.455
91463W        W63888  39.917   7.899   3.378
91464W        W63889  28.048   4.844   0.796
91465W        W63890  27.598  28.055  11.607
91466W        W63891  29.561  33.392   3.640
91467W        W63892   6.306  12.642  14.907
91468W        W63893  34.863   4.348   3.226
91469W        W63894  22.022  11.750   2.249
91470W        W63895  21.644   3.819   3.824
91471W        W63896  35.924  24.571   2.798
91472W        W63897   0.334  40.970   3.334
91473W        W63898  32.580   5.692   4.637
91474W        W63899  40.455   0.330  12.004
91475W        W63900  18.126  10.363   2.830
91476W        W63901  28.054  41.802  14.903
91477W        W63902  12.791   5.785   0.816
91478W        W63903  26.146  22.059  12.898
91479W        W63904   8.312  33.989  11.539
91480W        W63905  20.646  18.572   2.720
91481W        W63906  35.399   1.864  10.619
91482W        W63907  11.624  25.967  11.071
91483W        W63908  19.564  39.510   2.738
91484W        W63909  26.522  27.632   0.898
91485W        W63910  24.510  15.772  13.961
91486W        W63911   4.366   2.839  10.627
91487W        W63912  29.559  10.289  11.948
91488W        W63913   2.406  35.559  12.494
91489W        W63914  20.610  35.422  11.600
91490W        W63915  13.694  42.454  13.438
91491W        W63916   9.230   7.797   3.634
91492W        W63917  30.146   0.309  13.964
91493W        W63918  41.443   9.720  12.012
91494W        W63919  29.071  10.346   0.397
91495W        W63920  10.217  23.055   1.742
91496W        W63921  13.259  15.635   3.779
91497W        W63922  13.344   1.746  13.013
91498W        W63923  32.549  13.327   1.852
91499W        W63924  36.979  36.947  11.474
91500W        W63925  13.651   0.468   2.213
91501W        W63926   9.392  42.801  14.966
91502W        W63927   8.204   6.252   5.594
91503W        W63928  31.635  43.988   1.307
91504W        W63929  27.660  12.208   0.424
91505W        W63930  37.960  40.949  13.946
91506W        W63931  26.971   1.926  11.046
91507W        W63932  24.139  35.966   4.633
91508W        W63933  30.110   3.730  12.546
91509W        W63934  22.196  41.517  13.375
91510W        W63935  22.707   3.366   3.173
91511W        W63936  31.046   2.822  13.875
91512W        W63937  21.182  32.903  14.440
91513W        W63938  12.131  24.717  13.884
91514W        W63939  19.237   5.906  14.909
91515W        W63940  10.804  39.504   4.255
91516W        W63941  17.589   8.879   0.270
91517W        W63942  22.125  40.902   3.764
91518W        W63943  20.727  34.026  11.430
91519W        W63944  11.721  24.226   3.796
91520W        W63945   3.308  23.603  12.854
91521W        W63946  21.251  28.603  14.919
91522W        W63947  26.469  17.122   2.770
91523W        W63948  42.919  29.618  12.477
91524W        W63949  29.548  32.894   4.216
91525W        W63950  24.125   9.294  10.989
91526W        W63951  20.112   9.308   1.886
91527W        W63952  33.114   4.940   3.748
91528W        W63953  37.438   2.365   2.373
91529W        W63954  33.524  25.550  13.863
91530W        W63955  39.434   0.867  13.973
91531W        W63956  39.426  17.234   3.224
91532W        W63957  40.521  31.046   1.826
91533W        W63958  12.299  43.370   1.898
91534W        W63959  25.989  24.695   0.424
91535W        W63960  43.388  40.524  12.392
91536W        W63961  11.293  17.069   4.678
91537W        W63962  10.362   8.750  10.483
91538W        W63963  32.938  28.996  13.944
91539W        W63964  12.696   4.415  11.465
91540W        W63965  15.652  19.253   3.848
91541W        W63966  40.463  24.093  12.488
91542W        W63967  27.022   7.180   5.193
91543W        W63968  18.591   6.353  11.029
91544W        W63969  18.151  11.819  12.556
91545W        W63970  12.148  31.452   4.597
91546W        W63971  17.734  34.545   0.250
91547W        W63972  25.972  14.221  14.830
91548W        W63973  26.499  32.995   5.089
91549W        W63974  33.116   5.699  10.463
91550W        W63975  36.408  21.676   0.891
91551W        W63976  26.625  12.235  14.282
91552W        W63977  36.905  18.679  12.497
91553W        W63978   4.798  20.168  14.899
91554W        W63979  39.826  24.701   2.806
91555W        W63980  32.576   1.778  14.304
91556W        W63981  21.229  27.594  13.897
91557W        W63982   1.267  38.849   2.891
91558W        W63983  15.795  24.683  12.568
91559W        W63984  14.326  25.691   1.916
91560W        W63985  10.371  40.415   4.759
91561W        W63986  24.482  38.332   1.830
91562W        W63987  29.442  41.037  12.931
91563W        W63988  23.149   4.832   0.456
91564W        W63989   4.269   8.274  13.325
91565W        W63990  43.512   9.395   2.233
91566W        W63991  35.962  34.061  12.004
91567W        W63992  27.556  29.930   0.948
91568W        W63993  41.820  30.115   1.417
91569W        W63994  31.127   1.255  10.906
91570W        W63995   1.872  25.709  14.386
91571W        W63996  39.560  26.590   2.698
91572W        W63997  30.143  36.526   0.440
91573W        W63998  31.564  44.902   3.341
91574W        W63999  32.499  40.446  11.405
91575W        W64000  16.113  43.406   3.823
91576W        W64001   9.768  24.120  13.027
91577W        W64002  33.518   1.418   4.674
91578W        W64003  30.084  11.811  11.406
91579W        W64004  20.670  22.609  13.024
91580W        W64005  28.573  41.431   0.921
91581W        W64006  37.573  24.524  11.521
91582W        W64007  37.918  18.558   2.232
91583W        W64008  27.189  11.739   1.776
91584W        W64009  19.220  33.497   9.976
91585W        W64010  30.600  20.707  13.428
91586W        W64011  42.019  24.666  11.097
91587W        W64012  23.585  17.141  12.371
91588W        W64013   2.736  23.109   0.752
91589W        W64014  44.851  35.490  14.991
91590W        W64015  14.195  43.930  12.036
91591W        W64016  20.595  12.176  10.577
91592W        W64017  17.598   6.690  11.023
91593W        W64018  31.546  31.624  10.458
91594W        W64019   6.868  14.102  14.984
91595W        W64020   0.914  39.451  11.923
91596W        W64021  31.530  39.923   3.758
91597W        W64022  30.521  23.499  11.914
91598W        W64023  10.296  22.579  14.975
91599W        W64024  29.110  22.018   0.852
91600W        W64025  40.515   4.392  12.945
91601W        W64026  16.638  43.495  13.955
91602W        W64027  37.375  12.815   0.260
91603W        W64028   0.771  32.947  11.107
91604W        W64029  29.521  30.571   5.763
91605W        W64030  12.657   7.212   1.247
91606W        W64031  10.852   3.388  11.044
91607W        W64032  27.586  12.357  11.924
91608W        W64033  25.056  11.161   3.846
91609W        W64034   7.698  42.479   1.444
91610W        W64035  11.775  24.516   1.298
91611W        W64036  31.900  36.398   4.335
91612W        W64037  26.662  32.423  13.864
91613W        W64038  38.002  26.019  12.865
91614W        W64039  14.336  15.593  11.041
91615W        W64040  29.104  19.047  11.090
91616W        W64041  29.656  40.899   4.290
91617W        W64042  30.563  29.107   2.211
91618W        W64043  43.319  28.588  10.954
91619W        W64044   4.801  27.179   3.865
91620W        W64045  28.629   7.861   3.236
91621W        W64046   8.238  25.689  11.034
91622W        W64047  38.354  31.068  13.524
91623W        W64048  44.807  14.674   0.850
91624W        W64049  15.641  10.146  14.379
91625W        W64050  29.143  29.140   4.345
91626W        W64051  20.094  39.461  10.890
91627W        W64052  44.343   5.814   4.346
91628W        W64053  39.553   9.319  10.956
91629W        W64054  36.481  26.998   4.666
91630W        W64055  38.400  25.063   1.853
91631W        W64056  25.494  29.538  11.992
91632W        W64057  44.905  12.681   1.802
91633W        W64058  27.602  23.091   3.817
91634W        W64059  23.121   3.282   0.457
91635W        W64060  28.043  33.875   4.214
91636W        W64061  11.773   6.309   5.322
91637W        W64062  13.252   0.291   4.695
91638W        W64063  22.525  29.666   4.621
91639W        W64064  20.647  19.555  11.378
91640W        W64065  16.102   6.391  14.911
91641W        W64066   1.887   3.440  13.968
91642W        W64067   3.423   3.234  12.897
91643W        W64068  32.493  18.205   2.300
91644W        W64069  33.437  17.274  11.511
91645W        W64070  17.772  32.418  12.355
91646W        W64071  17.703  44.313   1.910
91647W        W64072  12.649   9.348  13.507
91648W        W64073  16.568  31.558   5.778
91649W        W64074  36.520   1.871   1.399
91650W        W64075   6.236  42.454   3.743
91651W        W64076  35.048   0.472  11.953
91652W        W64077  16.580  11.126  14.795
91653W        W64078  29.499  22.506   0.417
91654W        W64079  19.248   7.177  10.551
91655W        W64080  32.986  35.580  11.982
91656W        W64081  44.473   6.240   4.629
91657W        W64082  28.482   6.794   4.680
91658W        W64083  34.086  16.625   4.118
91659W        W64084  23.985  25.468  11.992
91660W        W64085  12.617   6.771   0.756
91661W        W64086  44.008  28.668   3.222
91662W        W64087  34.533  24.147   1.825
91663W        W64088  29.108  33.998  12.007
91664W        W64089  20.050  41.924  14.481
91665W        W64090  43.884  13.231  13.905
91666W        W64091   3.875  12.324  10.639
91667W        W64092  34.512  26.640   4.126
91668W        W64093   5.202  44.412  10.465
91669W        W64094  41.370  17.676   1.217
91670W        W64095  25.999  30.614  14.902
91671W        W64096   8.660   3.287  13.410
91672W        W64097  31.587  11.189  14.872
91673W        W64098   0.756  21.679   1.255
91674W        W64099  35.027  43.965  13.805
91675W        W64100  42.487  15.133  12.024
91676W        W64101   6.791  43.010  14.448
91677W        W64102   4.226  41.429   1.877
91678W        W64103  24.502  43.018  13.539
91679W        W64104  30.150  23.221   3.377
91680W        W64105   9.182  43.498   3.816
91681W        W64106  37.061   8.406   2.840
91682W        W64107  28.558  27.534   2.265
91683W        W64108  24.217  38.422   1.357
91684W        W64109  28.018  17.169  13.979
91685W        W64110  34.097  21.039   2.365
91686W        W64111  29.063  17.307   4.307
91687W        W64112  13.194  14.736   4.147
91688W        W64113  37.934  30.912  11.949
91689W        W64114  35.057  16.790   4.717
91690W        W64115  27.514  11.627  11.571
91691W        W64116  16.294  22.724   0.780
91692W        W64117  41.930   8.250   3.658
91693W        W64118  39.050  31.520   4.712
91694W        W64119   1.898  28.120  13.838
91695W        W64120  28.440  26.541  12.391
91696W        W64121  27.030  41.509   3.800
91697W        W64122   5.816  25.184   0.357
91698W        W64123  39.978  36.590  14.335
91699W        W64124   2.469  29.603  12.995
91700W        W64125  41.828  15.179   2.782
91701W        W64126  31.039  40.863   4.303
91702W        W64127   6.767  15.674  10.990
91703W        W64128  16.665  37.955  11.473
91704W        W64129   6.389  41.898  14.329
91705W        W64130  26.702   2.871   2.363
91706W        W64131  21.131  28.064  10.124
91707W        W64132  32.957  26.537  11.905
91708W        W64133   7.904   0.358  12.930
91709W        W64134  42.875  33.512   4.240
91710W        W64135  27.555   1.934  12.478
91711W        W64136  43.946   7.310  13.975
91712W        W64137   3.270  33.879  13.042
91713W        W64138  24.158  39.490  11.033
91714W        W64139  12.338   9.769   1.810
91715W        W64140   1.403  18.781  12.833
91716W        W64141  40.022  12.362   0.479
91717W        W64142  14.272  27.461  11.046
91718W        W64143  19.620  18.200   3.172
91719W        W64144   7.178   9.188   3.861
91720W        W64145  18.264  27.160  13.393
91721W        W64146   3.411  18.734   1.766
91722W        W64147  22.041  37.457  14.301
91723W        W64148  33.518  12.634   3.765
91724W        W64149  15.150  15.798  14.305
91725W        W64150  24.511  30.434   0.783
91726W        W64151  12.840  13.665   1.788
91727W        W64152   2.814  36.483   1.299
91728W        W64153  37.933  43.458  10.004
91729W        W64154  37.420   3.952  14.390
91730W        W64155  43.367  44.961   1.318
91731W        W64156  33.472  23.696  11.897
91732W        W64157   4.840   3.948   0.480
91733W        W64158  15.311  37.991   3.296
91734W        W64159   2.243  26.970   0.473
91735W        W64160   2.763  30.961   3.145
91736W        W64161  38.898  39.434   3.197
91737W        W64162  39.830  23.517   0.966
91738W        W64163  34.050  22.713  14.760
91739W        W64164  14.297  41.040  12.918
91740W        W64165  37.512   2.411   4.815
91741W        W64166   3.329  42.389   1.254
91742W        W64167  26.495  19.225  11.966
91743W        W64168   7.255   2.433  12.474
91744W        W64169  34.472  17.095   4.140
91745W        W64170  25.041  14.153   1.856
91746W        W64171   8.259  33.898  12.987
91747W        W64172  30.137  16.259   3.678
91748W        W64173  33.481  23.207   1.848
91749W        W64174  37.065  34.607   2.673
91750W        W64175  14.162   9.217   3.814
91751W        W64176  22.661  26.100  10.592
91752W        W64177  14.760  11.372  13.006
91753W        W64178  40.513  14.773   3.681
91754W        W64179   1.452  13.718  12.564
91755W        W64180  12.723  39.055  13.442
91756W        W64181  30.923  37.018  11.549
91757W        W64182   2.812  22.100  12.550
91758W        W64183  40.815  30.156   3.224
91759W        W64184  33.960  13.645   0.868
91760W        W64185  44.373  13.844   2.663
91761W        W64186   1.817   8.226   1.751
91762W        W64187  37.981  39.363  11.978
91763W        W64188  42.418   6.345   3.230
91764W        W64189  28.531  43.313   3.804
91765W        W64190  18.194  35.561   1.916
91766W        W64191   2.860   4.707   0.779
91767W        W64192  12.784  12.792   4.267
91768W        W64193   8.246  37.059  14.878
91769W        W64194  44.769  22.007   4.826
91770W        W64195  10.783  23.045  12.876
91771W        W64196  19.119  33.566  13.852
91772W        W64197   5.384  26.976  14.436
91773W        W64198  32.945   2.366   3.706
91774W        W64199  21.628  37.975   1.891
91775W        W64200   1.423  15.630  10.629
91776W        W64201  33.030  13.114   4.229
91777W        W64202  37.522  22.689   0.934
91778W        W64203  28.976  17.744  12.856
91779W        W64204   6.293  35.857  13.006
91780W        W64205   5.380  28.546   1.232
91781W        W64206  39.441   5.363  11.987
91782W        W64207  15.765  11.361   4.197
91783W        W64208  29.929  23.517  14.376
91784W        W64209  27.959  28.448   0.730
91785W        W64210  30.957  34.502   0.266
91786W        W64211   1.749  33.031   0.964
91787W        W64212  20.635  12.240   1.323
91788W        W64213  43.956  42.460   4.763
91789W        W64214  31.013   2.885  14.505
91790W        W64215  10.635  14.689  14.398
91791W        W64216  13.190  28.183  14.952
91792W        W64217  37.456  42.314  14.802
91793W        W64218  23.224   1.755  12.345
91794W        W64219  19.180   7.192   3.217
91795W        W64220  39.991  38.904   4.282
91796W        W64221  43.459  25.514  13.820
91797W        W64222   9.181   1.770   0.274
91798W        W64223  17.722   2.759   2.311
91799W        W64224  16.710  34.957   1.806
91800W        W64225  43.464  41.525  13.843
91801W        W64226  24.717  19.053  14.926
91802W        W64227   8.263  28.154   3.156
91803W        W64228  11.690  17.705   0.865
91804W        W64229  15.697   9.360   4.117
91805W        W64230   6.692   2.386  14.341
91806W        W64231  23.541   8.162  13.996
91807W        W64232  18.123  23.233  11.943
91808W        W64233   2.448  33.894   4.826
91809W        W64234  22.575  11.176  11.980
91810W        W64235   1.417   1.280   0.774
91811W        W64236  26.625  24.974   2.825
91812W        W64237   6.843  16.085   3.146
91813W        W64238  35.921  28.453  12.371
91814W        W64239  37.086  11.621  13.888
91815W        W64240  27.535  37.075   3.771
91816W        W64241  23.046  39.457  11.004
91817W        W64242  14.236   3.739  10.564
91818W        W64243  19.093  27.511   1.886
91819W        W64244  37.987   6.396   2.254
91820W        W64245  24.645  11.141   1.242
91821W        W64246  21.135  39.535  14.827
91822W        W64247  13.750  43.486  12.003
91823W        W64248  15.277  21.606  11.598
91824W        W64249  16.106  43.989   2.231
91825W        W64250  16.318  41.796  12.892
91826W        W64251  35.027  28.526   0.767
91827W        W64252   1.867  39.853  12.464
91828W        W64253  16.121   5.923  14.885
91829W        W64254  14.791  42.870   1.335
91830W        W64255  25.195   7.709   2.249
91831W        W64256  12.711   0.935  11.414
91832W        W64257  20.761  26.954   0.328
91833W        W64258  17.201  11.216   0.818
91834W        W64259  20.655   5.223   4.763
91835W        W64260  23.539  38.534   4.660
91836W        W64261   0.396   1.805  14.311
91837W        W64262  14.179  19.535   5.160
91838W        W64263  18.240  43.012   3.792
91839W        W64264  21.701   7.839  10.522
91840W        W64265  43.513  37.383   1.820
91841W        W64266  11.694  16.755   2.232
91842W        W64267  19.087  37.528  14.422
91843W        W64268  12.312  30.448   0.821
91844W        W64269  18.559  34.891  10.102
91845W        W64270   9.176   0.453   1.871
91846W        W64271  21.244  11.785  12.513
91847W        W64272  27.160  22.251  10.467
91848W        W64273   1.270  36.496   0.934
91849W        W64274  12.218   7.196   0.900
91850W        W64275  34.551  15.108  12.998
91851W        W64276  37.524  38.559   2.710
91852W        W64277  41.405  40.853   4.260
91853W        W64278  44.458   4.416   3.176
91854W        W64279   1.354   9.217   1.802
91855W        W64280   3.938  23.689  11.126
91856W        W64281  11.340  26.162   0.469
91857W        W64282  19.090  35.868   4.701
91858W        W64283  36.098   9.335  13.342
91859W        W64284  34.019   1.347  13.892
91860W        W64285  36.447  10.695   1.301
91861W        W64286  23.706  32.568  12.014
91862W        W64287   3.381   4.388  13.470
91863W        W64288  42.971  36.444  12.902
91864W        W64289   2.279  27.661   1.401
91865W        W64290   2.966  35.081   1.215
91866W        W64291  37.934  40.472   4.235
91867W        W64292  17.146   9.220   1.821
91868W        W64293   4.798  39.464  14.886
91869W        W64294  20.102   8.825   4.776
91870W        W64295  28.974  29.525  14.942
91871W        W64296  44.876  11.329  13.495
91872W        W64297  23.225  26.643  13.053
91873W        W64298  29.137  31.406  14.799
91874W        W64299  14.280  19.637   2.891
91875W        W64300  42.990  19.263   1.796
91876W        W64301  25.078  24.480  14.480
91877W        W64302  15.720  21.727   3.676
91878W        W64303  28.978  29.548   4.211
91879W        W64304  33.581  39.558   2.351
91880W        W64305  37.946   9.727  14.952
91881W        W64306  38.496  34.425  11.866
91882W        W64307  16.278  36.505   3.360
91883W        W64308  20.677   3.892  10.953
91884W        W64309  34.402  12.826   2.404
91885W        W64310   4.347   2.363  13.533
91886W        W64311  23.073  19.133  11.590
91887W        W64312  42.811  22.671   4.643
91888W        W64313   8.686  18.761   3.712
91889W        W64314  34.037   3.370  10.473
91890W        W64315  34.095  34.458   2.206
91891W        W64316  29.027  27.595  14.906
91892W        W64317  19.048   6.832  10.999
91893W        W64318   7.377  22.010  11.454
91894W        W64319  24.229  19.733   4.165
91895W        W64320   6.726  43.370  14.383
91896W        W64321   7.191  44.898   2.259
91897W        W64322  26.657   0.751   3.283
91898W        W64323  38.451   1.933   4.192
91899W        W64324  42.811   1.927   3.327
91900W        W64325  25.133  17.744   3.199
91901W        W64326  25.467  14.786  13.415
91902W        W64327  39.867  42.342   3.285
91903W        W64328  32.505  16.240  13.841
91904W        W64329  41.934   8.795  13.383
91905W        W64330  24.654  31.027  10.448
91906W        W64331  30.479  23.231   0.338
91907W        W64332  23.989  37.398  14.280
91908W        W64333  18.181  21.146   3.802
91909W        W64334  14.174  42.876  14.279
91910W        W64335  41.430  16.199   2.255
91911W        W64336  10.349  39.892  14.941
91912W        W64337  21.579  41.040   1.269
91913W        W64338   5.212  40.910  12.053
91914W        W64339  14.741  32.514   0.437
91915W        W64340  27.448   0.884  14.481
91916W        W64341  14.666   1.268   1.249
91917W        W64342  18.548   1.256   2.365
91918W        W64343  33.435  11.632   1.313
91919W        W64344   1.276   0.356  11.463
91920W        W64345  11.759  36.999  10.092
91921W        W64346  26.481  40.411   4.331
91922W        W64347  36.971  44.438   1.298
91923W        W64348   5.245  24.593  13.931
91924W        W64349  42.442  18.160  12.344
91925W        W64350   0.381  43.869  14.438
91926W        W64351  19.722   5.424  11.384
91927W        W64352  12.265  11.814  13.522
91928W        W64353  31.498  44.430   2.214
91929W        W64354   0.292  27.631   0.379
91930W        W64355  42.454  22.506   2.789
91931W        W64356   5.725  18.765   2.356
91932W        W64357  40.800  36.097  10.950
91933W        W64358  28.627   5.362   1.812
91934W        W64359  36.062  22.704  12.389
91935W        W64360  34.947   4.891   5.109
91936W        W64361  39.993   6.682   2.862
91937W        W64362  19.556  26.562  13.331
91938W        W64363  14.752  36.842   4.738
91939W        W64364  30.519   9.353   3.243
91940W        W64365  30.062  39.867  14.999
91941W        W64366  39.981  18.578   3.681
91942W        W64367  21.606   8.354  11.110
91943W        W64368  28.622  38.991  11.997
91944W        W64369   0.793  20.536   3.848
91945W        W64370  15.191   9.734   0.730
91946W        W64371  20.065  19.135   2.315
91947W        W64372  23.556  34.464   4.725
91948W        W64373  10.337  27.047  13.483
91949W        W64374  15.614  36.485   4.306
91950W        W64375  36.410  25.007  11.505
91951W        W64376   9.862  17.622   3.800
91952W        W64377  10.821  31.984  12.556
91953W        W64378  26.683  27.122   3.722
91954W        W64379  30.430  40.916  14.827
91955W        W64380   5.919  19.702  11.611
91956W        W64381   4.789  16.587   0.270
91957W        W64382  39.475   3.901  14.815
91958W        W64383   7.240  40.948  11.920
91959W        W64384  34.433  42.525  11.487
91960W        W64385  39.017  15.743   5.276
91961W        W64386  24.691  38.042   4.325
91962W        W64387  27.629  26.977   3.167
91963W        W64388   5.703   6.219   4.259
91964W        W64389  40.999  41.810  13.371
91965W        W64390  28.460   3.892   2.266
91966W        W64391   1.973  32.539  10.916
91967W        W64392  39.396  31.449   0.936
91968W        W64393  23.121  39.902  12.529
91969W        W64394  11.139  22.573   1.713
91970W        W64395   4.240  31.056   2.310
91971W        W64396  12.290  30.986   0.806
91972W        W64397  38.056   4.395   0.313
91973W        W64398  18.172   0.956  10.013
91974W        W64399  28.562  24.074  13.336
91975W        W64400  26.975  19.582   3.316
91976W        W64401  13.303  15.162   2.784
91977W        W64402  15.757   7.873   1.698
91978W        W64403   9.672  22.124   3.815
91979W        W64404  44.852  34.597  14.775
91980W        W64405  13.129   6.415   4.178
91981W        W64406  33.420  30.498  14.500
91982W        W64407  17.119   7.329   1.824
91983W        W64408  27.481   8.276  13.816
91984W        W64409  42.949   0.284   4.827
91985W        W64410   6.269  20.652   1.340
91986W        W64411  11.777   3.851   2.874
91987W        W64412  41.838   9.337  11.447
91988W        W64413  15.797  41.362   4.319
91989W        W64414  22.634  34.958  11.031
91990W        W64415   6.754  31.506  12.894
91991W        W64416  21.181  24.026  14.906
91992W        W64417  22.212  43.849   3.342
91993W        W64418  44.458   0.944  13.352
91994W        W64419  30.971  21.155  14.410
91995W        W64420   4.723  11.632   0.893
91996W        W64421  28.013  12.307  12.983
91997W        W64422  40.526  13.800   1.932
91998W        W64423  30.098  11.337   0.344
91999W        W64424  39.486   2.291  13.792
92000W        W64425   4.358  14.807   4.169
92001W        W64426   4.222  14.648  10.550
92002W        W64427  34.001   1.902  14.838
92003W        W64428  37.417  33.423   4.829
92004W        W64429  23.994   5.808  10.516
92005W        W64430  40.831  22.188   2.372
92006W        W64431  33.456  13.634   4.137
92007W        W64432  27.585  18.064   4.825
92008W        W64433  34.600  11.653   4.832
92009W        W64434  40.330  17.077  13.848
92010W        W64435  38.066  39.050   3.268
92011W        W64436  34.114   5.264  13.902
92012W        W64437  29.554   9.672  13.329
92013W        W64438  27.120  26.520   0.401
92014W        W64439  20.229  25.012  12.466
92015W        W64440  20.644   1.838   4.787
92016W        W64441   8.386  21.663  12.380
92017W        W64442  17.631  42.860   0.852
92018W        W64443  36.860   7.864   0.290
92019W        W64444  17.685  16.716  13.522
92020W        W64445  26.114  41.323   0.269
92021W        W64446  22.594  23.218   3.216
92022W        W64447   4.295  13.614  11.975
92023W        W64448   6.726  27.656   3.791
92024W        W64449  18.267  32.476  14.307
92025W        W64450  37.978  33.466  10.117
92026W        W64451  31.943  17.161  14.474
92027W        W64452   3.821  11.636   3.171
92028W        W64453  22.182  17.799  12.504
92029W        W64454  17.689  42.465   2.302
92030W        W64455  39.349   5.411  12.531
92031W        W64456   8.303  36.868   1.376
92032W        W64457  40.977  19.156   1.700
92033W        W64458  18.673  18.666  14.393
92034W        W64459  31.934  31.643   3.842
92035W        W64460  43.318  26.564   4.309
92036W        W64461  25.181   3.256   0.404
92037W        W64462  28.988  21.536   3.704
92038W        W64463  26.038  43.398   0.965
92039W        W64464  13.731  12.262   0.357
92040W        W64465  15.219  11.650  14.378
92041W        W64466  14.686   3.731   4.626
92042W        W64467   8.209   4.443  10.413
92043W        W64468  28.659  20.689   4.195
92044W        W64469  17.274  42.833  11.555
92045W        W64470  11.832   7.761  13.908
92046W        W64471   5.273  10.791   0.265
92047W        W64472   3.249  13.135  14.447
92048W        W64473   6.308  37.893   3.272
92049W        W64474  29.603   3.733   1.769
92050W        W64475   4.918  29.465   3.697
92051W        W64476  16.627  38.045  13.864
92052W        W64477  30.044  30.461   1.820
92053W        W64478   2.259  18.544  12.969
92054W        W64479  25.001  42.288  12.423
92055W        W64480   9.787  20.117  11.585
92056W        W64481  34.898  32.973  11.427
92057W        W64482  34.913  30.058  11.059
92058W        W64483  34.497  21.645   3.860
92059W        W64484  24.160  33.123   3.860
92060W        W64485  25.093  41.865  14.852
92061W        W64486   3.420  30.461   3.327
92062W        W64487  20.165  13.720  10.949
92063W        W64488  41.473  19.770  13.971
92064W        W64489  16.083  37.463   2.889
92065W        W64490  44.889  44.313  12.458
92066W        W64491  38.387  32.450  13.908
92067W        W64492  12.238  26.966   0.304
92068W        W64493  12.219  11.268   3.806
92069W        W64494  20.718  19.712   0.439
92070W        W64495  19.669  10.730  12.577
92071W        W64496  38.324   6.913   1.892
92072W        W64497  12.200   1.290  13.827
92073W        W64498  32.046   8.823   0.422
92074W        W64499  43.355  23.124   4.118
92075W        W64500  16.269   7.679   4.785
92076W        W64501  34.876  42.950  12.008
92077W        W64502   2.736  18.713   1.744
92078W        W64503  24.057  17.091  13.928
92079W        W64504  35.855  20.123  10.591
92080W        W64505   5.235  27.691  11.436
92081W        W64506  18.718  19.242   2.874
92082W        W64507  21.711  28.984  11.508
92083W        W64508  19.256  14.698   2.198
92084W        W64509  43.443   8.194  11.059
92085W        W64510  18.722  23.102   4.797
92086W        W64511  41.012  25.974   1.386
92087W        W64512   0.391  14.747  14.918
92088W        W64513  24.501  20.756   4.755
92089W        W64514   0.441  40.948   0.361
92090W        W64515  15.188  44.355   2.854
92091W        W64516  27.496  39.009  10.978
92092W        W64517   4.213  14.289  11.590
92093W        W64518  40.445  12.750   4.692
92094W        W64519   3.744  14.315   2.813
92095W        W64520  19.609   0.887  11.916
92096W        W64521  16.582  22.708  12.358
92097W        W64522   8.672   1.384   1.885
92098W        W64523  12.267   8.180  12.030
92099W        W64524  33.972  38.516   3.861
92100W        W64525  14.656  24.989   2.872
92101W        W64526  26.547  20.235  11.860
92102W        W64527   6.198   6.243  13.958
92103W        W64528  42.011  33.588   2.884
92104W        W64529  34.482   9.888  14.513
92105W        W64530  14.657  31.403  14.935
92106W        W64531  35.034   0.352  10.517
92107W        W64532  37.975   9.374  12.478
92108W        W64533   1.943  38.488  10.537
92109W        W64534  13.213  21.224  10.138
92110W        W64535  22.561  15.642   4.151
92111W        W64536  30.484  10.724  11.387
92112W        W64537  17.684  22.673  13.538
92113W        W64538  43.877  44.490   1.923
92114W        W64539  38.328  44.991  12.863
92115W        W64540   5.257  27.131   3.841
92116W        W64541  32.001  19.207  13.494
92117W        W64542  23.688   7.893  12.478
92118W        W64543  21.201   7.182  11.046
92119W        W64544  22.706  41.306  14.503
92120W        W64545  13.797  17.168  12.044
92121W        W64546  12.758   1.393   1.384
92122W        W64547  43.315  22.088  13.307
92123W        W64548  42.445  34.948   0.837
92124W        W64549  37.837  24.999   0.295
92125W        W64550  16.762  12.275   0.408
92126W        W64551  12.248  20.050   3.329
92127W        W64552  36.972  44.335   3.243
92128W        W64553  44.271  38.049   4.260
92129W        W64554   8.888  11.764   2.735
92130W        W64555  43.305   8.893   5.239
92131W        W64556  12.792  23.538   0.739
92132W        W64557  18.626   1.770   2.864
92133W        W64558  38.029  29.451   3.159
92134W        W64559  22.541  17.291   1.383
92135W        W64560  29.149  12.744  11.524
92136W        W64561  22.735  17.621   1.405
92137W        W64562  14.270   9.153   3.255
92138W        W64563   9.250   9.663   1.764
92139W        W64564  22.102  23.556   4.167
92140W        W64565  26.172  42.828   1.727
92141W        W64566  16.811  14.236  12.580
92142W        W64567  30.567   7.381  12.906
92143W        W64568  42.871  18.767   2.419
92144W        W64569  42.797  26.656   3.649
92145W        W64570  34.059  28.038  13.860
92146W        W64571  37.039  38.512  14.380
92147W        W64572  24.575  16.806  10.505
92148W        W64573   6.289  25.500   4.728
92149W        W64574  39.982  27.197   4.603
92150W        W64575  22.520  42.298   1.731
92151W        W64576  18.051  40.805   4.316
92152W        W64577  19.578  16.612  10.567
92153W        W64578  31.009   5.325  11.516
92154W        W64579   1.444  38.943   0.745
92155W        W64580  38.973  38.539   1.908
92156W        W64581  14.148  44.941  12.992
92157W        W64582  44.370  12.686   4.132
92158W        W64583  33.916   0.361   1.218
92159W        W64584  11.682   3.426   0.775
92160W        W64585  39.512  29.564  14.847
92161W        W64586  39.352  26.595   9.949
92162W        W64587  38.958  13.330   1.738
92163W        W64588  34.582  40.962   1.334
92164W        W64589   4.409  33.903   4.189
92165W        W64590  30.442  35.491  13.842
92166W        W64591  25.622   4.743  11.515
92167W        W64592  20.134  28.554  12.547
92168W        W64593   1.351  17.747  12.503
92169W        W64594  31.961  17.163   1.431
92170W        W64595  31.567  25.637   2.412
92171W        W64596  20.177  28.662   0.294
92172W        W64597  21.147  13.835   4.215
92173W        W64598   0.910  10.642   4.256
92174W        W64599  18.112  16.670  10.469
92175W        W64600  36.392  34.446   0.250
92176W        W64601  23.214   2.854  14.781
92177W        W64602  21.709  32.134  13.503
92178W        W64603   5.372  32.948   3.287
92179W        W64604  23.992   4.729   3.294
92180W        W64605  20.727  17.778   4.264
92181W        W64606  27.965  41.846  12.441
92182W        W64607   0.929   0.983   2.706
92183W        W64608  28.104  37.528  11.024
92184W        W64609  19.252  35.056  14.395
92185W        W64610  19.252  39.900  10.490
92186W        W64611  40.470   9.347   0.263
92187W        W64612  19.228   0.397   0.342
92188W        W64613  26.193  18.721   4.149
92189W        W64614  31.100  12.773  12.440
92190W        W64615  15.702   8.370   0.922
92191W        W64616  41.807  27.588   0.405
92192W        W64617  29.066   5.697  14.966
92193W        W64618  38.379  28.987  14.294
92194W        W64619  42.283  34.587  10.482
92195W        W64620  23.127  32.071   1.901
92196W        W64621  43.949  35.590  14.354
92197W        W64622   6.901  22.118  12.975
92198W        W64623  15.101  39.960  12.976
92199W        W64624  32.556  40.341  14.410
92200W        W64625   3.426  33.914   4.779
92201W        W64626   1.413  43.452  10.633
92202W        W64627  27.487  14.211  14.292
92203W        W64628  34.922  10.203   0.326
92204W        W64629  39.049  42.485   3.781
92205W        W64630  41.020  20.546  12.415
92206W        W64631  36.086  30.491   4.224
92207W        W64632  38.505  12.237   3.836
92208W        W64633  41.029  22.124  10.447
92209W        W64634   5.358   4.245  13.049
92210W        W64635  16.107  30.953  12.483
92211W        W64636   7.206  20.107  13.961
92212W        W64637  26.458  43.443   2.248
92213W        W64638   7.179  26.127   4.336
92214W        W64639  24.109  30.481   4.602
92215W        W64640  25.673   6.816  13.442
92216W        W64641  40.842  43.343   4.282
92217W        W64642   3.307  19.601   3.299
92218W        W64643  25.159  33.554   0.264
92219W        W64644  40.038  13.156   2.696
92220W        W64645   2.880   6.240   1.287
92221W        W64646  43.488  42.302   0.354
92222W        W64647   4.721  13.296   0.816
92223W        W64648  28.450   2.244  11.568
92224W        W64649   4.798  19.251   4.252
92225W        W64650  27.074  33.012  10.487
92226W        W64651  13.833  34.009   0.243
92227W        W64652  43.290   8.333  12.496
92228W        W64653  21.599  43.947   1.696
92229W        W64654  16.171  43.976  11.033
92230W        W64655   3.944  12.130   1.733
92231W        W64656  24.667  16.662   4.837
92232W        W64657  29.013  36.059   1.307
92233W        W64658  16.792  41.308  13.480
92234W        W64659   7.775  36.511  11.987
92235W        W64660  11.805  30.536  14.842
92236W        W64661  16.229  42.439   4.736
92237W        W64662  34.592  10.828  12.423
92238W        W64663  40.049  14.322   3.664
92239W        W64664  25.583  30.140  12.039
92240W        W64665  38.546  35.859   3.841
92241W        W64666  19.150  22.200  11.537
92242W        W64667   8.338  17.561  10.896
92243W        W64668  20.613  14.827   2.189
92244W        W64669  42.006  21.063   5.207
92245W        W64670  17.747   8.175  12.544
92246W        W64671   3.340  38.527  10.911
92247W        W64672  10.360  33.530  14.469
92248W        W64673  35.509   0.430  13.907
92249W        W64674  35.987  22.136  11.571
92250W        W64675   7.304  21.034  12.014
92251W        W64676   5.842  34.098  12.475
92252W        W64677   4.356   8.329   3.778
92253W        W64678   4.865  11.840   3.781
92254W        W64679  23.518  39.912   3.670
92255W        W64680  38.424  27.008   0.761
92256W        W64681  24.086  32.889  14.880
92257W        W64682  14.771   2.455   4.748
92258W        W64683  39.548   2.370  12.856
92259W        W64684  30.145  40.418  11.420
92260W        W64685  17.216   7.906   0.276
92261W        W64686   2.413  42.023  12.902
92262W        W64687  17.768  36.958  10.622
92263W        W64688   8.674  14.650  10.508
92264W        W64689   4.857  34.059   2.285
92265W        W64690  10.783  22.112  13.464
92266W        W64691  10.696   5.382   2.415
92267W        W64692   9.239  18.656   1.808
92268W        W64693  30.631  16.751  14.910
92269W        W64694  30.534  15.601  11.580
92270W        W64695  38.893   6.228  14.762
92271W        W64696   9.741   8.260   5.133
92272W        W64697   0.888   1.816   0.321
92273W        W64698  13.714  40.866   1.331
92274W        W64699  35.865  28.119   0.910
92275W        W64700  29.936  39.349   3.847
92276W        W64701  31.035  11.223   2.290
92277W        W64702  32.426  25.684   0.891
92278W        W64703  11.739  42.985  14.496
92279W        W64704  27.023   0.818   4.788
92280W        W64705  22.200  12.817  14.920
92281W        W64706  27.683  13.664  12.929
92282W        W64707   2.420  21.017  11.504
92283W        W64708  30.452  41.893   4.282
92284W        W64709  32.538   4.750  14.490
92285W        W64710   0.362  38.072   0.875
92286W        W64711  44.815  23.562  14.330
92287W        W64712  19.077   4.734  10.637
92288W        W64713  44.846   4.316  11.470
92289W        W64714  21.244  20.115  14.762
92290W        W64715  13.732  34.581   4.751
92291W        W64716  40.825  42.286  11.074
92292W        W64717  42.862   4.722  10.984
92293W        W64718   0.897  29.619   0.406
92294W        W64719   3.779  24.670   1.806
92295W        W64720  22.114   5.799  10.504
92296W        W64721  17.657   1.465  10.482
92297W        W64722   4.770  42.518   1.820
92298W        W64723  11.128   9.663   1.342
92299W        W64724  32.982  24.075  13.900
92300W        W64725  32.055  15.771   0.275
92301W        W64726  38.436   6.354  13.322
92302W        W64727  26.494   2.460   2.873
92303W        W64728   7.186  26.177   3.762
92304W        W64729  33.600   0.765  14.019
92305W        W64730  30.092  17.618  13.443
92306W        W64731  21.703  21.134   3.150
92307W        W64732   5.890  36.881  11.910
92308W        W64733  18.195  43.503  14.941
92309W        W64734  10.368  34.599   9.977
92310W        W64735  31.508   8.718   3.212
92311W        W64736  12.748  26.205   3.287
92312W        W64737  33.448  35.995   2.297
92313W        W64738  22.159  38.928  14.803
92314W        W64739  44.277  22.196  10.556
92315W        W64740   6.735  10.211  12.439
92316W        W64741   5.378  28.122   0.877
92317W        W64742  28.148  42.333  11.994
92318W        W64743  41.534  42.418   1.338
92319W        W64744   7.783  39.987  14.783
92320W        W64745  32.994   3.432   1.848
92321W        W64746  37.575  32.032  13.406
92322W        W64747  40.001  15.145  11.944
92323W        W64748  28.975   9.647  13.913
92324W        W64749   8.760  32.995   4.758
92325W        W64750   1.461  11.214  14.927
92326W        W64751  19.768  13.221  11.384
92327W        W64752  23.495  25.645   1.770
92328W        W64753  19.248   8.689  13.357
92329W        W64754  10.218  20.594   2.698
92330W        W64755   7.372  16.638   0.901
92331W        W64756  38.823  23.137  14.422
92332W        W64757  32.919   7.898   0.422
92333W        W64758  23.105  16.676   2.209
92334W        W64759   2.240  24.042   0.390
92335W        W64760  21.738  17.194   1.373
92336W        W64761  35.372  32.396  12.921
92337W        W64762  22.708  33.925   1.713
92338W        W64763  14.295  35.020   2.225
92339W        W64764   5.796  40.482   3.865
92340W        W64765  27.142  28.630   0.401
92341W        W64766  29.027  25.577   2.184
92342W        W64767  12.802  25.003  13.880
92343W        W64768  17.587  39.052  14.930
92344W        W64769   4.898  33.038  11.492
92345W        W64770  41.293   2.915   2.698
92346W        W64771  15.324  15.100  12.376
92347W        W64772  11.690  38.945   1.427
92348W        W64773   6.876  13.607   3.289
92349W        W64774  16.135  28.588  11.570
92350W        W64775  20.619  25.623   0.777
92351W        W64776  33.512  42.450  13.802
92352W        W64777  15.177  10.368  14.974
92353W        W64778  37.497  31.913   9.936
92354W        W64779  44.275  25.711   1.900
92355W        W64780  12.855  15.137   0.948
92356W        W64781  34.059  21.696  14.339
92357W        W64782  25.548   9.161  11.985
92358W        W64783  20.087   7.857   4.329
92359W        W64784  23.010  12.752   2.794
92360W        W64785  21.530   8.702   3.281
92361W        W64786  33.397  15.642  14.816
92362W        W64787  13.238   5.750  10.419
92363W        W64788  15.685   0.907   4.121
92364W        W64789  30.627   3.915   2.235
92365W        W64790  15.805  43.398   4.228
92366W        W64791   1.283   0.266   2.673
92367W        W64792   5.736  15.287  10.515
92368W        W64793  25.576  28.608   3.233
92369W        W64794  12.248   2.309   2.834
92370W        W64795  15.818  43.372   3.338
92371W        W64796  38.008   3.860  14.325
92372W        W64797  36.962   0.900   2.850
92373W        W64798  36.097  36.004   0.848
92374W        W64799  25.196   6.204   3.778
92375W        W64800  14.633   1.973  12.481
92376W        W64801  40.439  17.660  10.620
92377W        W64802  34.403   6.194  12.569
92378W        W64803  32.085  21.204  13.862
92379W        W64804  13.266  19.635  11.598
92380W        W64805   9.878  44.797  11.002
92381W        W64806   9.290   2.732  14.026
92382W        W64807   1.363  43.302   0.749
92383W        W64808   0.767   6.360  11.440
92384W        W64809   6.217  16.625  12.428
92385W        W64810  34.944  28.131  11.443
92386W        W64811  40.858  42.456  13.539
92387W        W64812  21.697  26.986  14.329
92388W        W64813  17.579  36.850   3.238
92389W        W64814  37.009  33.929   4.601
92390W        W64815  12.306  39.448  12.344
92391W        W64816  32.565  29.486  12.888
92392W        W64817  26.600  17.281  14.898
92393W        W64818  38.034   6.873  14.899
92394W        W64819  14.807  44.839  10.407
92395W        W64820  30.119  27.504   3.762
92396W        W64821   2.777  18.282  10.945
92397W        W64822   0.344  15.690  14.994
92398W        W64823  41.525  15.324   0.324
92399W        W64824   0.800   1.256   0.411
92400W        W64825  17.113  22.010   0.436
92401W        W64826  44.314  34.930   2.181
92402W        W64827   9.707  43.875   3.260
92403W        W64828  13.781  35.549   3.710
92404W        W64829  26.696  44.797  12.396
92405W        W64830  27.193  42.426  14.287
92406W        W64831  29.526  17.098  13.820
92407W        W64832  12.281  26.544  13.504
92408W        W64833  20.606  37.428   3.225
92409W        W64834  11.648  21.564  10.024
92410W        W64835  20.553  14.229   0.345
92411W        W64836  13.812  15.183   3.666
92412W        W64837  32.444  26.118   0.905
92413W        W64838  41.448   2.957   3.198
92414W        W64839  41.805  16.169  10.432
92415W        W64840  10.268  11.765   2.245
92416W        W64841   1.394  19.142  11.118
92417W        W64842   5.869  30.625   2.788
92418W        W64843  35.565   5.911   4.214
92419W        W64844   8.798  24.596   0.881
92420W        W64845  17.733  34.554  11.034
92421W        W64846   4.377   4.363   1.834
92422W        W64847   0.849  35.567   3.292
92423W        W64848  19.234  38.395   3.785
92424W        W64849  35.556  12.853   4.829
92425W        W64850  28.164  19.602   3.660
92426W        W64851  38.961  26.497   9.927
92427W        W64852  43.814   0.791   1.902
92428W        W64853  18.057  13.791  14.447
92429W        W64854   4.799  36.540  11.085
92430W        W64855  21.057   7.906   0.932
92431W        W64856  21.198  17.646  11.489
92432W        W64857  36.372   6.791  12.862
92433W        W64858  39.407  22.116  14.998
92434W        W64859  10.795  38.891  14.434
92435W        W64860  29.531  16.134   2.275
92436W        W64861  23.536  14.146  10.628
92437W        W64862  17.245  37.071   0.471
92438W        W64863  29.668  37.471  11.966
92439W        W64864  30.923   8.171  11.480
92440W        W64865  34.902  22.066  12.498
92441W        W64866  40.987   6.257  13.328
92442W        W64867  22.629  41.871   0.754
92443W        W64868   1.962   6.224  14.795
92444W        W64869   8.243  34.974   4.721
92445W        W64870  42.871  19.620   2.183
92446W        W64871  19.719  36.416   4.137
92447W        W64872  30.002  22.240   2.372
92448W        W64873  14.182   5.420   4.714
92449W        W64874  22.526   1.858   2.877
92450W        W64875   8.851   8.665   5.713
92451W        W64876  13.793  25.018   4.155
92452W        W64877  15.640  11.693  12.410
92453W        W64878  38.977  19.041  11.094
92454W        W64879   2.314   3.229  14.324
92455W        W64880  16.126  38.869   1.218
92456W        W64881  19.039  19.607  11.939
92457W        W64882  37.846  17.165  11.545
92458W        W64883  24.141  17.246  11.110
92459W        W64884  35.471  18.067   2.809
92460W        W64885  19.163  41.971   0.324
92461W        W64886  36.515  33.487  10.558
92462W        W64887  13.188  36.568   0.403
92463W        W64888   8.309  11.638   2.809
92464W        W64889   6.838   7.230   2.269
92465W        W64890  14.744  16.217  14.316
92466W        W64891  44.862  40.304   4.838
92467W        W64892  41.838  29.621   0.944
92468W        W64893  28.087  34.018   5.764
92469W        W64894  21.672  29.656   1.790
92470W        W64895  26.506  17.560  13.834
92471W        W64896   6.399  14.591   0.953
92472W        W64897   3.799  12.611   1.267
92473W        W64898  28.149  13.334   1.400
92474W        W64899  28.989   6.367  13.008
92475W        W64900  44.897   1.781  12.412
92476W        W64901  29.658   5.220  14.999
92477W        W64902  11.201  36.915  13.888
92478W        W64903  22.118   2.778   1.358
92479W        W64904  18.206  43.946   0.467
92480W        W64905  23.216  10.843   2.357
92481W        W64906  30.996  34.427   2.736
92482W        W64907  19.563  15.157  10.422
92483W        W64908  42.810   7.238   3.206
92484W        W64909  20.048  41.387  12.024
92485W        W64910  39.386  27.621  10.411
92486W        W64911  40.951   8.793  14.834
92487W        W64912   6.773  22.121   2.204
92488W        W64913  35.966  32.391   3.765
92489W        W64914  25.078  38.529   3.647
92490W        W64915  23.041  29.999  14.913
92491W        W64916  25.505  29.478  13.523
92492W        W64917  32.130   8.832   4.142
92493W        W64918  10.274  20.708  14.323
92494W        W64919  12.336  15.307   0.252
92495W        W64920  33.978  33.088   1.725
92496W        W64921  36.981   7.268  11.523
92497W        W64922  33.007  32.517  11.491
92498W        W64923  44.458  22.073   2.687
92499W        W64924  36.914  39.002  14.505
92500W        W64925  38.497  39.828   3.869
92501W        W64926  15.680  23.614   1.916
92502W        W64927  21.714  33.049   0.280
92503W        W64928   5.269  39.998   4.139
92504W        W64929  12.832   7.201  13.532
92505W        W64930  23.987  41.971  13.955
92506W        W64931  32.097   0.920  14.479
92507W        W64932  38.950  28.005   2.753
92508W        W64933  27.972  15.328   1.428
92509W        W64934  18.196  21.057   2.209
92510W        W64935   6.188   0.491   2.330
92511W        W64936   9.200  33.038   0.269
92512W        W64937  23.218  32.608   3.657
92513W        W64938   0.257  41.312  11.869
92514W        W64939   3.450  31.932  13.878
92515W        W64940  42.817  22.144  11.475
92516W        W64941  23.198  23.240  13.861
92517W        W64942  20.170  35.545  14.915
92518W        W64943  12.676  38.454   0.876
92519W        W64944  16.606  43.479  12.042
92520W        W64945  35.110  19.739   3.857
92521W        W64946  14.306  23.665   2.320
92522W        W64947  27.960  16.125   3.711
92523W        W64948  24.575  19.284   1.923
92524W        W64949  17.702  25.117   3.234
92525W        W64950  30.656  21.660  12.857
92526W        W64951  40.920  34.921  10.989
92527W        W64952   7.870   1.312   0.924
92528W        W64953  21.263  27.001  14.798
92529W        W64954  20.641  21.230   3.239
92530W        W64955  10.823  25.699  11.054
92531W        W64956  44.824   9.648   3.689
92532W        W64957  31.636  40.388   4.188
92533W        W64958   0.856  21.242   4.616
92534W        W64959  11.224  32.087  14.296
92535W        W64960   3.311   0.878  14.856
92536W        W64961   5.703  15.583  14.514
92537W        W64962  15.613  23.568  12.574
92538W        W64963  35.419   8.374  14.307
92539W        W64964  20.539  10.702  12.996
92540W        W64965  38.485  33.468   2.871
92541W        W64966  14.264  11.730   2.344
92542W        W64967  30.540  14.176  14.309
92543W        W64968   6.907  32.983   1.344
92544W        W64969  28.962  42.397  12.560
92545W        W64970   7.799   9.721   3.796
92546W        W64971  26.625  35.485   1.811
92547W        W64972   9.250  17.797   3.776
92548W        W64973  44.979  17.096  11.032
92549W        W64974   3.781  21.556   0.324
92550W        W64975   5.393  44.392  11.062
92551W        W64976  36.575  18.186   1.368
92552W        W64977  11.338   3.283   1.251
92553W        W64978   4.712  26.086   1.263
92554W        W64979  26.656  18.211  13.417
92555W        W64980  17.791  38.886   0.921
92556W        W64981   7.666  21.557  12.381
92557W        W64982   7.277  41.528   4.161
92558W        W64983   1.286  30.059   0.829
92559W        W64984  27.153  13.734  14.834
92560W        W64985  32.554   1.311   1.824
92561W        W64986  12.120  20.093  11.554
92562W        W64987   3.839   0.809   2.665
92563W        W64988   8.767  39.359   2.788
92564W        W64989  31.122  26.521  12.916
92565W        W64990  10.242   9.255   3.282
92566W        W64991  31.036   5.741   4.245
92567W        W64992  18.056  20.136  12.465
92568W        W64993  33.991   2.369  10.988
92569W        W64994  15.640  40.975  12.914
92570W        W64995  11.722  19.636  14.029
92571W        W64996  33.102   6.828   3.203
92572W        W64997  28.655  20.656  12.043
92573W        W64998  19.586   2.398   4.196
92574W        W64999  16.766  22.049  11.002
92575W        W65000   4.298  22.115   3.373
92576W        W65001  11.699  35.601  14.303
92577W        W65002  16.793   6.749   3.244
92578W        W65003  21.248  27.463  12.965
92579W        W65004  32.080  10.633   1.213
92580W        W65005  36.352  19.093  14.313
92581W        W65006  25.157  26.156  14.853
92582W        W65007  24.671  14.291  13.846
92583W        W65008  35.934  14.100   3.326
92584W        W65009   1.945  18.612   0.886
92585W        W65010  10.807  32.581  13.870
92586W        W65011  42.871  39.852   1.877
92587W        W65012  29.142  18.214  12.551
92588W        W65013  32.566  24.107  14.883
92589W        W65014  34.414  13.663  14.409
92590W        W65015  12.611   2.327   0.285
92591W        W65016  28.655   2.833  10.995
92592W        W65017  13.752  19.102   0.933
92593W        W65018   2.420  41.349  11.463
92594W        W65019  24.653  15.616   2.322
92595W        W65020  31.459  11.187  11.105
92596W        W65021   7.903   2.723   0.294
92597W        W65022  43.790   8.403  14.799
92598W        W65023  19.083  29.099  14.986
92599W        W65024   9.173  34.384  13.844
92600W        W65025  11.840  29.930  11.429
92601W        W65026  23.093  32.395   0.297
92602W        W65027   4.358  22.009  14.840
92603W        W65028   9.290  28.461   1.350
92604W        W65029   3.342  23.235  12.971
92605W        W65030  16.228  20.541  12.568
92606W        W65031  22.582  14.591  10.940
92607W        W65032  27.475  33.124  13.064
92608W        W65033  40.980  29.440   0.816
92609W        W65034  35.062   7.684  14.493
92610W        W65035  31.065  35.421  12.992
92611W        W65036   8.660  29.533   2.902
92612W        W65037  22.593  40.439  11.557
92613W        W65038  21.741   7.784   1.310
92614W        W65039  31.134  37.029   0.284
92615W        W65040  36.357  13.696   1.282
92616W        W65041  17.253   3.344  12.983
92617W        W65042   5.249  34.525  12.027
92618W        W65043   6.755  13.757  10.512
92619W        W65044  17.278  22.570  14.327
92620W        W65045   8.325  21.213   2.696
92621W        W65046  30.541  12.693  11.549
92622W        W65047  17.563  16.697  12.556
92623W        W65048  17.747  24.497  11.394
92624W        W65049  36.862  13.106  14.790
92625W        W65050   9.154  31.031   3.693
92626W        W65051  18.631   6.351  12.574
92627W        W65052  12.639  42.922  10.561
92628W        W65053   8.817  25.635   2.284
92629W        W65054   6.350   6.270   1.411
92630W        W65055   1.245  31.944  13.869
92631W        W65056  23.124  25.165  11.010
92632W        W65057   8.810  37.000   1.451
92633W        W65058  39.882   8.878  11.585
92634W        W65059  36.845   9.245  12.360
92635W        W65060  33.546  38.531  14.383
92636W        W65061  31.947  19.046  10.631
92637W        W65062   6.749   2.828  11.871
92638W        W65063   0.754  18.284   3.242
92639W        W65064   8.732  31.980  14.896
92640W        W65065  14.754  36.895   1.304
92641W        W65066  39.384  13.205   3.776
92642W        W65067   0.486  24.032   0.839
92643W        W65068  24.974  24.548  13.424
92644W        W65069  32.913  19.282   1.367
92645W        W65070   1.471  36.953   2.336
92646W        W65071  10.302   4.790   5.246
92647W        W65072  12.712   2.342   2.278
92648W        W65073   1.316  21.555  12.562
92649W        W65074  43.769  28.092   1.824
92650W        W65075  42.443  15.235  12.433
92651W        W65076  28.505  19.596   0.900
92652W        W65077  37.396  36.474  14.962
92653W        W65078  10.706  31.630   3.314
92654W        W65079  31.917  11.362   2.223
92655W        W65080  14.822   7.716   0.454
92656W        W65081  40.456   8.657   5.320
92657W        W65082  14.761  32.136   4.643
92658W        W65083  25.616  20.682  12.075
92659W        W65084  42.406   2.751  14.012
92660W        W65085   9.175   9.332  14.909
92661W        W65086  41.971  19.172   4.714
92662W        W65087  27.572  29.964   9.494
92663W        W65088  32.088  44.272   2.806
92664W        W65089  19.540   2.457  13.373
92665W        W65090  20.607   7.330  13.993
92666W        W65091  16.101  11.266   2.282
92667W        W65092  13.748  34.449  13.392
92668W        W65093  39.948  26.011   0.934
92669W        W65094  39.023  10.380  13.897
92670W        W65095  21.124  13.212  14.778
92671W        W65096   6.863   6.226   3.774
92672W        W65097  31.100  25.540  14.026
92673W        W65098  23.082  20.601   2.820
92674W        W65099   9.288   0.873  14.945
92675W        W65100  14.668  21.693  14.857
92676W        W65101  27.477  21.190   3.752
92677W        W65102  25.150  13.323  12.861
92678W        W65103  23.135   6.315  14.030
92679W        W65104  23.499  37.056  11.515
92680W        W65105  32.548  10.258   4.610
92681W        W65106  36.865  23.066   5.574
92682W        W65107  26.969   8.344  14.398
92683W        W65108   6.355  28.458  10.622
92684W        W65109  32.899   7.886  12.026
92685W        W65110  44.390  42.301   4.326
92686W        W65111   0.392   8.365   2.739
92687W        W65112  21.735  31.439  14.470
92688W        W65113   0.885  41.914  13.358
92689W        W65114   9.643  22.686  14.390
92690W        W65115  35.102  20.166   1.809
92691W        W65116  21.185  19.221  11.531
92692W        W65117  41.923  35.078   2.334
92693W        W65118  44.270   3.436  14.281
92694W        W65119  40.310   9.275  11.955
92695W        W65120  30.094   9.853  12.823
92696W        W65121  11.854  22.627  11.015
92697W        W65122   3.388  39.996   0.296
92698W        W65123  44.897  27.954   0.264
92699W        W65124  23.171  37.830  13.051
92700W        W65125   9.201  44.918   0.884
92701W        W65126   3.295  25.609  11.869
92702W        W65127   2.823  33.107   4.624
92703W        W65128  30.481  33.009  12.030
92704W        W65129  44.889  40.549   0.940
92705W        W65130   9.817  33.030  12.386
92706W        W65131  15.582  45.000   1.897
92707W        W65132  39.423  15.311   4.128
92708W        W65133  18.108  34.418   0.379
92709W        W65134  41.465  41.376  13.434
92710W        W65135  21.226   4.938  11.930
92711W        W65136  26.047  29.110   3.161
92712W        W65137  20.085   1.761   3.175
92713W        W65138   2.800  44.358   1.815
92714W        W65139  32.029  19.757   9.954
92715W        W65140  16.094  28.050  12.569
92716W        W65141   0.944  19.777  10.132
92717W        W65142  36.465  15.276   3.862
92718W        W65143  24.143   3.426   2.198
92719W        W65144  44.783  23.085  11.382
92720W        W65145  25.655  32.403  12.505
92721W        W65146   7.760  31.906   2.410
92722W        W65147  11.330   4.430  13.034
92723W        W65148   8.222  31.478   2.392
92724W        W65149  32.614  38.443  13.402
92725W        W65150   2.720  17.786  12.867
92726W        W65151  31.515  37.890   0.962
92727W        W65152  44.967  35.031   1.909
92728W        W65153  21.732  10.194  13.412
92729W        W65154  36.461  30.100  11.088
92730W        W65155  35.554  40.840  13.382
92731W        W65156  11.793  37.512   2.846
92732W        W65157  29.646   2.225  13.914
92733W        W65158  39.505   9.296  14.932
92734W        W65159  31.916  11.348   4.817
92735W        W65160   9.212  41.440   1.730
92736W        W65161  42.296  41.354  10.528
92737W        W65162   2.835  41.817   0.400
92738W        W65163  44.429  19.184  14.309
92739W        W65164  24.007   2.254   4.708
92740W        W65165  44.352  34.089   0.309
92741W        W65166  20.226   9.674   0.842
92742W        W65167  29.058  26.677  11.509
92743W        W65168  14.221   5.902   4.158
92744W        W65169  10.871  37.395  11.108
92745W        W65170  33.122  10.758  14.303
92746W        W65171  36.550  22.236   0.912
92747W        W65172   8.839  24.038   5.238
92748W        W65173   2.768  29.566  12.986
92749W        W65174  42.355  24.713   3.300
92750W        W65175  11.626  33.384  12.856
92751W        W65176  39.505  37.057  11.476
92752W        W65177  29.097   4.936  10.038
92753W        W65178  42.487  22.038  13.340
92754W        W65179  38.967  41.791  14.973
92755W        W65180  31.996  33.096   3.815
92756W        W65181  42.776  34.388  11.414
92757W        W65182   1.410   1.748   0.457
92758W        W65183   0.835   9.858   0.772
92759W        W65184   0.945  14.796   1.395
92760W        W65185  31.912  20.717   2.858
92761W        W65186  30.938  36.524  11.946
92762W        W65187  16.794  35.381   2.785
92763W        W65188  21.602  14.301  14.478
92764W        W65189  16.675  17.270   3.224
92765W        W65190  39.518  42.506  11.536
92766W        W65191  10.677  25.689  14.300
92767W        W65192  38.366  34.995   3.686
92768W        W65193  28.011   6.421  13.999
92769W        W65194  26.103  22.089   0.389
92770W        W65195   6.417   2.233   4.125
92771W        W65196  41.037  33.909  10.951
92772W        W65197   9.335  20.706   3.826
92773W        W65198  11.656  41.480   3.666
92774W        W65199  15.124  42.330  10.929
92775W        W65200  17.680   8.401  11.996
92776W        W65201  27.639  15.725  12.369
92777W        W65202  42.323   7.889   0.350
92778W        W65203  16.620  18.119   3.798
92779W        W65204  41.891  24.668  11.988
92780W        W65205  29.113  18.069  10.564
92781W        W65206  38.836  20.238  12.518
92782W        W65207  10.712  29.957  12.059
92783W        W65208   9.877   0.411   4.145
92784W        W65209  21.665  19.702   4.600
92785W        W65210  14.314  23.652   2.744
92786W        W65211  41.842  38.985   2.235
92787W        W65212  23.085  37.956  11.916
92788W        W65213  29.642  35.020   5.172
92789W        W65214  24.575  33.079  10.508
92790W        W65215  39.860  42.858  13.845
92791W        W65216  37.411  19.681  12.948
92792W        W65217   2.918  14.761  11.978
92793W        W65218  29.920  40.850   2.364
92794W        W65219  38.541   8.240   3.257
92795W        W65220   5.925  32.601   1.384
92796W        W65221   3.796  27.577  13.866
92797W        W65222   8.322   9.351  13.791
92798W        W65223  15.686  42.907   4.768
92799W        W65224  40.498  11.267  10.581
92800W        W65225  23.023  29.970   1.741
92801W        W65226   5.412   9.381   0.885
92802W        W65227  42.945   0.853   0.285
92803W        W65228  21.641  22.666   0.832
92804W        W65229   6.881  37.450  12.890
92805W        W65230   1.860   2.283   1.408
92806W        W65231  43.943  43.374   3.240
92807W        W65232  37.915  44.772  12.905
92808W        W65233  31.922  34.865   5.260
92809W        W65234  12.622   7.235   0.305
92810W        W65235  24.701  34.447  13.952
92811W        W65236  39.324  33.127  14.494
92812W        W65237  37.416  18.224  12.485
92813W        W65238  14.809  31.470  11.494
92814W        W65239   4.373  40.534  11.104
92815W        W65240  38.033  21.723  10.917
92816W        W65241  17.676  11.811  11.527
92817W        W65242  38.004  10.335   2.872
92818W        W65243  32.450   6.216   1.770
92819W        W65244   0.954  37.048   0.734
92820W        W65245  14.216   5.775   0.903
92821W        W65246  35.368   0.951  14.425
92822W        W65247  30.073  22.164   4.684
92823W        W65248  25.579  28.061   3.704
92824W        W65249  24.576  37.382  13.033
92825W        W65250  43.906  41.938   4.133
92826W        W65251  24.163  44.456   9.974
92827W        W65252  41.947  35.957  12.450
92828W        W65253  20.167  38.828   3.247
92829W        W65254  37.034  31.462   1.899
92830W        W65255  31.622   0.283   3.859
92831W        W65256  29.650  19.737   3.208
92832W        W65257  28.642   4.901   0.900
92833W        W65258  31.083  15.715   2.688
92834W        W65259  34.940  43.851   2.670
92835W        W65260   1.766  15.646  14.403
92836W        W65261  28.562  36.091   1.807
92837W        W65262  10.281  42.313  13.394
92838W        W65263  34.912   3.829  10.615
92839W        W65264   9.355   3.911   2.324
92840W        W65265  14.299  38.360  11.918
92841W        W65266  40.350  40.941  11.108
92842W        W65267  29.098  30.529   2.897
92843W        W65268  11.266  21.136  13.841
92844W        W65269  14.653  20.669  12.439
92845W        W65270   1.398   7.389   0.356
92846W        W65271  14.149  27.188   4.810
92847W        W65272  33.977  33.393   3.812
92848W        W65273  29.648   1.354   0.832
92849W        W65274  23.617  26.614   1.322
92850W        W65275  17.193  14.224   3.666
92851W        W65276  33.436   1.859   1.211
92852W        W65277  15.813  17.270   1.244
92853W        W65278  31.441  34.986  14.284
92854W        W65279  26.628  15.713  10.574
92855W        W65280  13.756   6.369  10.522
92856W        W65281   6.233  31.452   2.825
92857W        W65282  11.816  18.057   4.800
92858W        W65283   0.777  20.667   3.268
92859W        W65284   2.819   3.887  14.395
92860W        W65285  30.557  42.991   4.157
92861W        W65286  11.319  20.076  12.967
92862W        W65287  36.866  43.447   3.853
92863W        W65288  30.925  29.085   4.335
92864W        W65289  28.008  36.069  14.827
92865W        W65290  35.581  30.157   3.715
92866W        W65291   8.231  24.600  11.012
92867W        W65292  30.081  11.132   4.175
92868W        W65293  40.465  17.768   2.374
92869W        W65294  31.450   8.784  14.016
92870W        W65295   0.291  39.039   9.932
92871W        W65296  21.574  27.507  12.415
92872W        W65297  24.599  28.558  12.883
92873W        W65298  32.933  34.009   1.218
92874W        W65299   2.764  34.613  12.403
92875W        W65300  14.314  21.243  12.577
92876W        W65301  32.408  40.471  11.939
92877W        W65302  15.267   7.369   2.848
92878W        W65303  27.943   0.345  11.431
92879W        W65304  10.341  32.972   2.288
92880W        W65305  31.058  31.905   0.935
92881W        W65306  23.211  41.923   4.255
92882W        W65307   2.232  43.333  13.515
92883W        W65308  15.240  39.557   0.427
92884W        W65309  14.736  16.801   4.664
92885W        W65310  42.946  27.591   4.198
92886W        W65311   7.323   8.872   4.213
92887W        W65312   6.765   5.370  12.346
92888W        W65313  39.518  12.232   1.907
92889W        W65314  35.510  34.100   2.189
92890W        W65315  40.919  21.743  10.972
92891W        W65316   0.970  43.445  12.475
92892W        W65317  37.913  21.648  12.980
92893W        W65318  44.790   8.664  10.410
92894W        W65319   9.337  23.490  13.546
92895W        W65320  12.824  35.890   4.620
92896W        W65321  33.083   2.295  10.919
92897W        W65322  26.075   5.433   0.865
92898W        W65323  37.483   1.781  13.389
92899W        W65324  38.991  19.103  10.410
92900W        W65325  33.477  28.069   0.746
92901W        W65326  34.972  25.600  14.030
92902W        W65327  26.071   1.909  10.507
92903W        W65328  26.607   4.774  12.567
92904W        W65329  11.292  20.034  14.929
92905W        W65330  14.599   3.812  10.634
92906W        W65331  37.507  15.099  10.984
92907W        W65332  36.379  37.909  13.322
92908W        W65333  31.967   8.286  12.072
92909W        W65334  25.535  19.640   4.155
92910W        W65335  13.668  43.838  11.598
92911W        W65336  29.079  28.619  14.026
92912W        W65337   9.870  19.751   0.953
92913W        W65338  35.962  33.951  13.485
92914W        W65339   3.871   7.854   3.361
92915W        W65340  24.053   9.251   4.763
92916W        W65341  21.581  30.000  12.383
92917W        W65342   1.844   1.351   0.444
92918W        W65343  37.452  29.618  10.928
92919W        W65344  44.348  22.628  10.463
92920W        W65345  43.839  24.500   2.331
92921W        W65346  44.839   4.280   0.779
92922W        W65347  22.622  10.826  10.417
92923W        W65348   6.854  43.906   4.189
92924W        W65349  16.704  38.332  13.045
92925W        W65350  21.652  40.856  13.870
92926W        W65351  39.859  25.566  14.433
92927W        W65352  23.701  12.283   2.681
92928W        W65353  40.539  15.699  13.456
92929W        W65354  14.142   0.250   3.290
92930W        W65355  27.126  16.112   2.838
92931W        W65356  37.080  27.553  10.635
92932W        W65357  32.536  34.044   2.830
92933W        W65358  41.993  18.116   3.706
92934W        W65359  17.225  31.131   4.279
92935W        W65360  18.168  31.971   2.828
92936W        W65361  24.068   1.762   4.793
92937W        W65362  11.212  33.108  11.918
92938W        W65363  12.277  38.328   3.209
92939W        W65364  38.501  19.237   3.321
92940W        W65365  43.975   6.282   3.291
92941W        W65366   9.688  21.725   4.752
92942W        W65367  14.770  36.948   3.865
92943W        W65368  34.865   9.319   0.939
92944W        W65369  37.007  25.481  12.467
92945W        W65370  10.189  34.119  11.017
92946W        W65371  27.988   1.900  11.519
92947W        W65372  33.613  38.405  14.826
92948W        W65373   8.776  41.911  12.854
92949W        W65374  35.924   7.712  14.992
92950W        W65375  35.969  13.236  14.850
92951W        W65376  15.674  40.030  12.429
92952W        W65377  30.653  15.756   3.792
92953W        W65378  33.425   7.703   2.292
92954W        W65379  20.600  15.298  14.941
92955W        W65380  18.635  41.457  10.555
92956W        W65381   5.918   8.320   2.243
92957W        W65382  21.237   6.389   5.241
92958W        W65383   2.370  25.057   4.188
92959W        W65384  14.754  17.633   3.237
92960W        W65385  33.492  16.719  11.112
92961W        W65386   6.408  25.658   2.789
92962W        W65387  22.043  34.491   0.419
92963W        W65388   2.939  27.977  12.964
92964W        W65389  12.735  13.680  12.857
92965W        W65390  13.306  35.029  12.452
92966W        W65391   5.194  22.615  10.464
92967W        W65392  26.087  22.514   3.814
92968W        W65393  37.042   9.706  14.871
92969W        W65394  14.319  15.092  10.444
92970W        W65395  30.923  17.172  11.992
92971W        W65396  12.147  35.854  14.494
92972W        W65397   3.891  12.262   3.276
92973W        W65398  36.950  26.692   2.361
92974W        W65399   6.818  23.649  13.354
92975W        W65400  13.107  21.179  13.381
92976W        W65401  30.486  29.120   1.863
92977W        W65402   6.750  41.806  12.004
92978W        W65403  37.987  11.168   4.605
92979W        W65404  37.045   1.968   4.715
92980W        W65405  43.393  28.044  14.822
92981W        W65406  39.928  42.839   2.303
92982W        W65407  26.549  42.872   3.784
92983W        W65408  15.695  42.018   2.213
92984W        W65409  33.505  32.553   0.897
92985W        W65410   7.668  29.599   1.703
92986W        W65411  26.997  13.640  11.392
92987W        W65412   2.845  32.029   4.761
92988W        W65413   8.294  39.020   4.160
92989W        W65414  40.496  43.911   0.769
92990W        W65415  26.159  15.699  10.632
92991W        W65416  28.087  35.544  12.529
92992W        W65417  20.692  29.102   1.771
92993W        W65418  41.010  16.305  13.026
92994W        W65419   6.718   5.802   2.826
92995W        W65420  34.429  15.716   0.246
92996W        W65421   7.832  20.181  14.329
92997W        W65422   5.909  12.723   0.455
92998W        W65423  13.607  18.779   1.729
92999W        W65424  33.053  37.018   3.630
93000W        W65425  25.157  13.349   4.778
93001W        W65426  28.932  10.371   4.790
93002W        W65427  25.162  18.694  11.957
93003W        W65428  44.856  10.862  14.948
93004W        W65429  38.992  10.704   1.409
93005W        W65430  18.571  40.417   9.977
93006W        W65431  30.112  41.823  11.881
93007W        W65432  18.093  43.376  14.413
93008W        W65433  27.472  12.638  13.365
93009W        W65434  17.081  27.055  14.423
93010W        W65435   5.416  27.136  10.533
93011W        W65436   0.776  13.664   2.721
93012W        W65437  36.971   6.393  12.533
93013W        W65438  44.401  24.993  14.014
93014W        W65439  43.865  32.015  13.494
93015W        W65440  44.329  34.976   5.283
93016W        W65441  26.203  29.483   4.628
93017W        W65442  28.533  39.908  14.813
93018W        W65443  33.464  11.814  12.849
93019W        W65444  39.441  31.910  11.445
93020W        W65445  33.518   5.884   1.894
93021W        W65446   8.192  40.012  11.928
93022W        W65447  42.305  19.074  10.958
93023W        W65448  44.914  36.866  11.544
93024W        W65449  21.029  38.986   3.334
93025W        W65450  43.514  11.253  13.836
93026W        W65451  12.314  22.167  14.785
93027W        W65452   7.369   1.312   3.268
93028W        W65453   4.768  35.059  14.294
93029W        W65454   0.390  16.238   1.275
93030W        W65455  34.383  42.470   0.908
93031W        W65456   7.874  19.655  12.440
93032W        W65457  38.025  23.112  13.307
93033W        W65458  17.589  35.520   3.788
93034W        W65459  19.119   2.732   2.872
93035W        W65460   6.422  37.391   2.201
93036W        W65461  26.527   6.344   1.356
93037W        W65462  17.261  25.064   4.220
93038W        W65463  43.511   2.843  11.095
93039W        W65464  28.072  41.998  14.302
93040W        W65465  36.916  42.832  14.831
93041W        W65466  28.539  21.574  13.970
93042W        W65467  30.505  16.299   4.307
93043W        W65468   9.355  41.518  10.153
93044W        W65469  37.846  35.391   2.258
93045W        W65470  11.855   3.425   3.181
93046W        W65471  39.912  23.099  14.851
93047W        W65472  16.692  21.239   3.791
93048W        W65473  21.537   9.751  12.427
93049W        W65474  13.273  28.053   1.386
93050W        W65475  16.657  22.188   3.649
93051W        W65476  42.860  21.559   2.823
93052W        W65477  18.194  42.980   2.674
93053W        W65478  27.182  16.702  10.890
93054W        W65479  34.600  24.201   2.416
93055W        W65480  25.018  40.936  13.370
93056W        W65481  13.229  17.198   5.307
93057W        W65482  18.278  24.133  13.927
93058W        W65483  41.024  12.619   3.840
93059W        W65484  28.983  19.709  12.470
93060W        W65485  34.059  44.852  12.992
93061W        W65486  38.899  32.488  14.982
93062W        W65487   6.352  41.408  10.500
93063W        W65488  27.548  34.864  14.855
93064W        W65489   7.825  31.085  10.900
93065W        W65490  26.607  15.320  13.359
93066W        W65491   4.328  35.927  11.870
93067W        W65492  44.376  26.100   4.691
93068W        W65493  17.579  13.820   3.261
93069W        W65494  44.444  43.364  11.872
93070W        W65495  10.351  21.240  14.834
93071W        W65496   6.817  17.708   1.211
93072W        W65497  13.809  18.588   2.801
93073W        W65498  28.628  26.027   1.933
93074W        W65499  22.062  37.016  10.479
93075W        W65500  29.546   8.847  12.015
93076W        W65501  24.596  34.463   3.371
93077W        W65502   0.255  38.932  14.297
93078W        W65503  22.087  24.495   4.788
93079W        W65504  22.019   9.869  13.936
93080W        W65505  29.615   1.935   1.792
93081W        W65506   3.921  34.596  13.894
93082W        W65507  19.705  31.605  12.872
93083W        W65508  27.169  28.964   2.679
93084W        W65509  21.698   9.645   5.102
93085W        W65510  25.679  20.641  14.955
93086W        W65511  19.711  19.688   1.837
93087W        W65512  35.011  27.978   0.946
93088W        W65513  28.155  19.250  11.915
93089W        W65514  32.439  41.976   1.308
93090W        W65515  26.189  10.695   2.762
93091W        W65516  33.544  28.154  10.092
93092W        W65517  23.208  16.801   2.708
93093W        W65518  14.105  37.476  10.551
93094W        W65519  15.117  12.266  12.896
93095W        W65520  22.016   9.889   4.182
93096W        W65521  17.617  30.973  14.782
93097W        W65522  13.641  35.909   3.368
93098W        W65523  28.575   0.385  13.910
93099W        W65524  10.852   5.215  13.369
93100W        W65525  17.614  37.449   3.328
93101W        W65526  25.619  25.097  14.962
93102W        W65527  15.792   1.921   4.753
93103W        W65528   5.419  32.450   2.896
93104W        W65529  43.491  28.959  12.934
93105W        W65530  31.090  40.008   2.808
93106W        W65531  35.476   4.866   3.764
93107W        W65532  41.992   5.390  13.359
93108W        W65533   0.413  32.904  13.350
93109W        W65534  40.039  25.039   3.352
93110W        W65535  32.107  28.182   0.461
93111W        W65536  15.127  26.991   2.373
93112W        W65537  17.154  26.022  10.617
93113W        W65538   4.747  28.615   3.198
93114W        W65539   9.826  17.160  12.084
93115W        W65540  27.529  27.140   0.454
93116W        W65541   9.352  30.993  12.060
93117W        W65542  31.612   8.189  11.517
93118W        W65543  19.104   9.172  10.505
93119W        W65544  38.883  44.919   9.517
93120W        W65545  39.894  30.913   2.307
93121W        W65546  17.240   9.200   0.895
93122W        W65547  23.566   2.798   4.234
93123W        W65548  43.470  17.622   2.715
93124W        W65549  41.331  39.954   3.753
93125W        W65550  17.730  17.107   3.722
93126W        W65551   0.478  30.487  10.435
93127W        W65552  19.614   9.311  12.027
93128W        W65553   1.849  28.568  13.945
93129W        W65554  35.600  30.555  14.351
93130W        W65555   9.790  15.801   3.648
93131W        W65556  20.709  19.680   5.275
93132W        W65557  33.951  18.170  14.483
93133W        W65558  34.492   1.281  13.316
93134W        W65559  24.090  23.649   5.134
93135W        W65560  23.166  13.647   2.269
93136W        W65561  16.612  14.692  13.539
93137W        W65562  27.521   6.347  14.789
93138W        W65563  13.138  29.972  14.995
93139W        W65564   3.836  37.866  14.770
93140W        W65565  41.438  43.514  14.954
93141W        W65566   0.428  18.148  12.495
93142W        W65567   3.935   0.366   4.227
93143W        W65568  10.273  24.707   0.870
93144W        W65569  40.405  41.293  11.556
93145W        W65570  34.089  39.809  12.520
93146W        W65571  10.188  31.631  10.474
93147W        W65572  29.922  37.880  11.970
93148W        W65573  25.964  39.920  13.337
93149W        W65574  36.918  27.642  12.040
93150W        W65575  33.392  32.429   2.384
93151W        W65576  40.407   2.864   2.854
93152W        W65577  33.008  28.140   3.663
93153W        W65578   1.342  22.223  12.081
93154W        W65579  17.134  44.759   3.744
93155W        W65580  25.203  12.695  14.391
93156W        W65581   6.922  21.644   1.424
93157W        W65582   5.439  26.458   0.950
93158W        W65583  11.769  10.149   0.950
93159W        W65584  39.473  34.598   4.709
93160W        W65585  17.131  33.551   4.719
93161W        W65586  12.182  12.812  11.905
93162W        W65587  24.162  43.362   0.352
93163W        W65588  16.266   6.895   3.865
93164W        W65589   0.439  33.960   4.774
93165W        W65590  19.223   9.672   3.185
93166W        W65591   6.912  13.311  13.834
93167W        W65592  15.693   2.460   2.263
93168W        W65593   3.366  37.834   0.247
93169W        W65594  14.727  43.440  13.825
93170W        W65595  25.982  13.795   0.252
93171W        W65596   4.739  23.137   0.898
93172W        W65597  41.917  23.098  11.485
93173W        W65598  14.276  31.027   3.257
93174W        W65599   7.309  13.845   0.257
93175W        W65600  16.086  17.738   4.297
93176W        W65601  16.190  40.921   1.714
93177W        W65602  16.200  27.959   4.758
93178W        W65603  35.375  39.510   3.850
93179W        W65604  35.105  18.172  10.943
93180W        W65605  13.611  37.886   1.696
93181W        W65606  11.693  41.876   3.793
93182W        W65607   8.314  31.095  11.559
93183W        W65608  10.216  11.159  12.922
93184W        W65609  38.903  32.494   4.174
93185W        W65610  31.493  39.948  10.542
93186W        W65611  20.551  25.665  13.487
93187W        W65612   5.925  11.259   0.251
93188W        W65613   9.888   9.394   3.857
93189W        W65614   7.204  31.908   3.313
93190W        W65615  14.112  42.815   3.820
93191W        W65616  44.484  37.013  13.463
93192W        W65617  25.201  22.029   0.447
93193W        W65618  11.251   7.739  12.519
93194W        W65619  29.173  36.428   4.255
93195W        W65620  17.091  28.095  13.921
93196W        W65621  29.939  29.489   1.746
93197W        W65622  29.444  33.472   9.993
93198W        W65623  21.173  12.688  14.439
93199W        W65624  19.247  23.208  12.850
93200W        W65625  38.492  35.093  13.457
93201W        W65626  41.384  39.539   0.283
93202W        W65627  10.805   2.284  10.526
93203W        W65628   2.293  43.898  12.012
93204W        W65629  16.797  12.827  14.294
93205W        W65630  23.588  13.147   2.762
93206W        W65631  33.453  36.543   2.860
93207W        W65632   3.332  44.330  10.965
93208W        W65633  31.977  41.961   4.290
93209W        W65634   0.251  33.987   1.851
93210W        W65635   7.289  14.244   4.790
93211W        W65636   8.229  40.831  11.957
93212W        W65637  10.725  39.849   4.182
93213W        W65638  31.041   9.653  10.514
93214W        W65639  37.461   2.449   3.795
93215W        W65640  18.159  44.876   5.083
93216W        W65641  14.725   4.851  13.356
93217W        W65642  37.953   8.690   9.938
93218W        W65643  41.977  31.140   3.768
93219W        W65644   2.735   0.833   0.869
93220W        W65645  27.636  16.690  11.443
93221W        W65646   9.842   3.886  13.525
93222W        W65647  21.742  25.698   1.386
93223W        W65648  39.418   1.885   4.117
93224W        W65649  11.355  36.558  13.013
93225W        W65650   8.837  42.307   2.300
93226W        W65651  21.066  35.513   4.761
93227W        W65652   0.354  27.173   4.326
93228W        W65653  23.028  26.203   3.796
93229W        W65654   9.708  44.318   2.222
93230W        W65655   1.248  31.530   3.233
93231W        W65656  38.539  12.336   2.765
93232W        W65657   2.345  15.713  13.975
93233W        W65658  43.473   4.709   0.277
93234W        W65659  19.237  29.103  12.883
93235W        W65660  17.772  10.161  11.866
93236W        W65661  10.266   5.809  11.107
93237W        W65662  14.265  16.698  11.610
93238W        W65663  42.972  14.618  12.478
93239W        W65664   9.315  40.868   3.305
93240W        W65665  37.492  25.709  12.393
93241W        W65666  27.517  35.441   4.333
93242W        W65667  15.791   9.331   1.874
93243W        W65668  38.558  22.122  14.462
93244W        W65669   3.372   1.959  13.958
93245W        W65670  18.247  29.535  11.601
93246W        W65671  21.742   2.262  10.447
93247W        W65672  20.126  21.167  11.454
93248W        W65673  11.623  37.371  12.018
93249W        W65674  29.561  26.517   1.811
93250W        W65675   4.725  31.530   1.217
93251W        W65676  19.049  17.767  14.864
93252W        W65677  15.222  19.255  10.599
93253W        W65678  26.048  13.161  10.998
93254W        W65679  32.544   2.739   2.798
93255W        W65680  15.633  33.504  13.535
93256W        W65681  17.179   4.724  11.072
93257W        W65682  25.977   7.349   1.237
93258W        W65683  26.189  21.701  11.405
93259W        W65684  14.273  25.677   3.817
93260W        W65685  14.293   0.879  12.908
93261W        W65686   2.361  11.664  11.889
93262W        W65687  10.847  43.884   2.309
93263W        W65688  42.875   8.203   4.329
93264W        W65689   7.898  25.103   1.706
93265W        W65690  36.355  18.593  14.363
93266W        W65691  13.264  28.058  13.879
93267W        W65692  23.173  36.403  14.457
93268W        W65693  31.104  40.036  10.498
93269W        W65694  25.186  17.285  11.109
93270W        W65695   4.408   1.838   1.269
93271W        W65696  38.364  12.740   2.327
93272W        W65697  28.993  29.462   0.729
93273W        W65698  15.658  33.120  13.005
93274W        W65699   6.824  30.960   0.249
93275W        W65700  37.479   8.856   3.678
93276W        W65701   2.371  40.407   3.869
93277W        W65702  12.265  33.620   0.741
93278W        W65703  13.650  41.940   2.345
93279W        W65704  34.070   6.347   2.183
93280W        W65705  22.569   3.736  10.063
93281W        W65706  14.150   8.228   1.429
93282W        W65707   9.200  32.505  11.372
93283W        W65708  23.722  37.028   2.885
93284W        W65709   7.825  42.303   0.476
93285W        W65710  14.215   6.329  14.300
93286W        W65711   1.864   8.880   0.253
93287W        W65712  38.339   0.450   4.342
93288W        W65713  29.633  11.151   2.751
93289W        W65714  29.971  17.199   0.938
93290W        W65715  39.397  26.028   1.829
93291W        W65716  30.605  36.964   0.392
93292W        W65717  40.935  17.573   4.320
93293W        W65718  35.406  31.102  10.464
93294W        W65719  30.480  13.232   3.651
93295W        W65720  24.505  35.003   4.258
93296W        W65721  24.693  27.532   4.185
93297W        W65722  37.520  19.185   2.732
93298W        W65723  19.090  24.093  11.476
93299W        W65724   4.305  11.185   3.853
93300W        W65725   4.403  33.128   4.130
93301W        W65726  36.548  24.693   3.870
93302W        W65727   0.440  31.093   1.896
93303W        W65728  40.872  30.655  12.492
93304W        W65729  32.411  25.034   0.780
93305W        W65730  30.455  31.101   4.119
93306W        W65731   0.785  36.904  12.426
93307W        W65732  34.065  10.354   1.862
93308W        W65733  42.022   4.390   4.171
93309W        W65734  15.186  33.075   0.469
93310W        W65735  14.719  10.736  12.530
93311W        W65736  32.535  18.772  13.345
93312W        W65737   0.879  36.356   1.324
93313W        W65738  42.031   6.294  10.034
93314W        W65739   7.848   6.795   1.394
93315W        W65740   4.240  33.131  12.044
93316W        W65741  10.692   0.325   4.126
93317W        W65742  44.393  24.716  12.503
93318W        W65743  27.639  26.038   2.232
93319W        W65744   6.386  39.912  13.976
93320W        W65745  13.227  18.104   2.879
93321W        W65746  19.756  16.750  13.377
93322W        W65747   8.331  41.322  11.081
93323W        W65748  40.402  27.608  13.849
93324W        W65749  11.321  32.448   2.289
93325W        W65750  39.946  34.941   1.842
93326W        W65751  30.567   9.177   2.264
93327W        W65752  27.106   2.282   0.939
93328W        W65753  27.157  17.061  11.062
93329W        W65754   1.774  31.527   1.323
93330W        W65755  43.909  27.691   0.482
93331W        W65756  27.567  32.016  12.862
93332W        W65757  12.303  41.535   2.701
93333W        W65758  40.321  13.710  11.004
93334W        W65759  40.818  24.659  10.638
93335W        W65760  31.645  34.104   0.853
93336W        W65761  21.710  17.133   0.328
93337W        W65762  17.282  32.407   2.408
93338W        W65763   5.814  23.502   4.837
93339W        W65764  11.191  28.534  12.924
93340W        W65765  24.694  28.643   2.717
93341W        W65766  34.063  21.119   3.722
93342W        W65767  25.014  15.235  11.389
93343W        W65768  20.233  29.163  12.577
93344W        W65769  11.210  38.842   4.176
93345W        W65770  21.606   9.299   5.751
93346W        W65771   6.775  39.394   3.261
93347W        W65772  33.536  30.061  13.503
93348W        W65773  28.032   6.225   3.709
93349W        W65774   5.368   9.806   4.771
93350W        W65775  31.572   1.965   0.337
93351W        W65776  16.206  11.183   1.740
93352W        W65777  43.844  41.441   3.723
93353W        W65778  12.829   2.292  14.963
93354W        W65779  40.398  34.049  10.923
93355W        W65780  11.256  18.215   0.882
93356W        W65781  25.196  13.725  10.486
93357W        W65782  32.535  12.297   0.932
93358W        W65783  19.278  20.543   3.354
93359W        W65784  37.426  18.220   3.644
93360W        W65785  21.231  25.653   0.438
93361W        W65786   3.918  44.969  14.498
93362W        W65787  15.799  14.327  10.553
93363W        W65788  18.076  31.112   3.367
93364W        W65789  21.182   7.888   4.145
93365W        W65790  29.004  38.846  10.029
93366W        W65791  29.000  41.382   0.308
93367W        W65792  25.994  22.635  12.568
93368W        W65793  19.620  41.527   1.236
93369W        W65794  44.803  34.497   2.385
93370W        W65795  22.250  36.881  12.532
93371W        W65796  21.174   9.889  13.344
93372W        W65797   2.732  13.663  14.890
93373W        W65798  44.322  17.071  11.446
93374W        W65799  14.615   5.230  14.354
93375W        W65800  32.608  31.104   3.386
93376W        W65801  21.568  26.091   3.846
93377W        W65802  21.042  18.154   3.214
93378W        W65803  26.562  21.637   2.398
93379W        W65804   9.843  25.576   2.853
93380W        W65805  26.189  35.446  14.371
93381W        W65806  42.434  23.717   2.788
93382W        W65807  39.397  12.314  11.040
93383W        W65808  30.937  18.691   1.880
93384W        W65809   1.785  12.700   1.407
93385W        W65810  34.014  16.227   2.831
93386W        W65811  39.936   4.269  14.965
93387W        W65812  32.570  28.598   0.394
93388W        W65813  37.922  25.065   2.305
93389W        W65814  38.488  40.847   0.769
93390W        W65815  20.044  19.197  10.994
93391W        W65816  16.199  20.661  12.053
93392W        W65817  28.501   0.425   3.319
93393W        W65818  25.472  43.963  13.982
93394W        W65819  19.270  33.406   2.299
93395W        W65820  16.170  32.594  13.480
93396W        W65821   6.330  27.581   0.364
93397W        W65822  10.677  44.849  14.478
93398W        W65823  35.912   5.274  11.934
93399W        W65824  14.144  34.455  13.407
93400W        W65825   0.479  23.002  10.536
93401W        W65826  41.824  31.418  13.022
93402W        W65827   3.841   2.924   2.789
93403W        W65828  43.768  23.657   3.158
93404W        W65829   2.946  27.571  14.327
93405W        W65830   0.381  20.138   1.284
93406W        W65831  27.454  15.136  14.500
93407W        W65832  22.207   8.207  14.798
93408W        W65833  18.609  33.437   3.312
93409W        W65834  40.968  19.545  11.559
93410W        W65835   3.262   9.257   4.272
93411W        W65836   1.344  24.096   0.745
93412W        W65837  32.130   1.343   2.278
93413W        W65838  13.789  13.175  13.871
93414W        W65839   0.846  37.412   3.744
93415W        W65840  41.991  39.935  11.500
93416W        W65841  39.032  39.038  12.398
93417W        W65842  36.415  39.526  12.051
93418W        W65843  36.351  37.511  14.488
93419W        W65844   8.188  18.201   0.912
93420W        W65845  38.837   7.840  11.102
93421W        W65846  36.350  26.126   0.766
93422W        W65847  38.967  35.096  11.101
93423W        W65848  31.933  17.795  12.376
93424W        W65849  27.615  14.821  10.536
93425W        W65850   6.725  24.642  13.360
93426W        W65851  11.166  15.702  13.922
93427W        W65852   4.870  37.399   2.774
93428W        W65853   1.957  32.415   1.373
93429W        W65854  22.031   5.762  13.914
93430W        W65855  29.010  35.054  12.341
93431W        W65856  33.898  25.469  10.645
93432W        W65857  14.271   7.264   2.814
93433W        W65858   9.385   6.799  10.404
93434W        W65859  15.269  43.971   1.281
93435W        W65860  17.649   0.864  13.410
93436W        W65861   4.942   2.805  13.415
93437W        W65862  36.051   7.842   1.783
93438W        W65863  39.326  23.689   3.149
93439W        W65864  41.903  16.728  10.901
93440W        W65865   4.895   1.385   1.877
93441W        W65866  21.190  34.551  14.926
93442W        W65867   5.769   8.377   1.342
93443W        W65868  17.214  34.539   4.810
93444W        W65869  31.067  12.836   4.169
93445W        W65870  16.242  19.172   1.352
93446W        W65871  27.033  21.207  14.382
93447W        W65872  43.448  40.909   4.165
93448W        W65873  28.988  17.225   1.914
93449W        W65874  35.108   7.187  14.426
93450W        W65875  27.519  13.796  13.463
93451W        W65876  25.067  23.009  13.489
93452W        W65877   0.407  10.791  10.507
93453W        W65878  21.533   4.716   0.415
93454W        W65879  13.226   7.731   1.307
93455W        W65880  26.131  14.300  11.572
93456W        W65881  24.540   4.250  14.794
93457W        W65882  36.352  21.154   3.298
93458W        W65883  37.075  40.395   4.609
93459W        W65884  22.224  31.606   4.777
93460W        W65885  27.547  17.153   0.910
93461W        W65886  27.577  32.532   5.185
93462W        W65887  36.573   4.918   2.753
93463W        W65888  38.885  33.883   0.273
93464W        W65889  33.557  34.905   1.757
93465W        W65890   7.785   4.365  12.019
93466W        W65891   8.190  24.592  13.953
93467W        W65892  11.210  21.143   4.756
93468W        W65893  32.895   7.679   2.839
93469W        W65894  21.043  15.085  12.573
93470W        W65895  43.359  38.823   2.848
93471W        W65896   7.290   4.763   4.703
93472W        W65897   5.742  36.861  11.068
93473W        W65898  17.723  15.820  10.983
93474W        W65899  22.173   9.152  12.892
93475W        W65900   8.313   7.188  14.381
93476W        W65901  36.029   2.443  11.964
93477W        W65902  25.089  28.665   1.265
93478W        W65903  11.662  41.792   1.854
93479W        W65904  37.853   8.282  12.029
93480W        W65905  32.917  14.674  14.990
93481W        W65906  41.042   9.779   2.859
93482W        W65907  39.532  24.064   4.606
93483W        W65908   5.921   0.977  11.448
93484W        W65909   5.791  14.102  13.948
93485W        W65910  15.322  21.222  10.132
93486W        W65911  21.103  42.356  13.000
93487W        W65912  37.901  33.525  11.061
93488W        W65913  12.153  20.681  14.936
93489W        W65914  17.268   4.238  11.545
93490W        W65915   6.781  30.510   2.207
93491W        W65916   5.214  35.516  14.415
93492W        W65917  29.607  14.667   4.175
93493W        W65918  20.117   5.718  13.905
93494W        W65919  18.141  17.572   2.833
93495W        W65920  14.786  12.821  14.443
93496W        W65921  16.244  11.347  12.512
93497W        W65922  13.712  42.469   1.349
93498W        W65923  12.329  21.246   4.341
93499W        W65924   5.808   9.879   0.959
93500W        W65925  15.630  20.674   4.252
93501W        W65926   4.794  41.400  12.382
93502W        W65927  20.712  10.181   1.697
93503W        W65928  35.583   0.931  13.929
93504W        W65929   2.349   5.245   1.245
93505W        W65930  41.465   1.918  12.066
93506W        W65931   5.247   2.466   0.838
93507W        W65932   4.913  24.614  13.383
93508W        W65933   1.307  27.499   2.411
93509W        W65934  31.648  14.635   1.796
93510W        W65935  30.658  19.567   0.482
93511W        W65936  27.075  20.188   1.798
93512W        W65937  28.076  13.823   2.841
93513W        W65938  42.312  22.075   3.829
93514W        W65939  22.607  11.715   3.341
93515W        W65940  37.032   6.816   2.775
93516W        W65941  34.459  17.672  12.485
93517W        W65942  35.966  31.452   1.694
93518W        W65943  32.891  18.657   9.569
93519W        W65944  36.916  10.195   0.837
93520W        W65945  19.142  23.625   3.845
93521W        W65946  43.773  39.838   1.362
93522W        W65947  22.096   2.356   0.317
93523W        W65948  26.048   7.695   2.813
93524W        W65949  37.489  25.672   3.676
93525W        W65950  17.681  19.115   2.253
93526W        W65951   1.323  28.063   2.693
93527W        W65952  30.051  40.348  12.071
93528W        W65953  11.314  30.534   1.303
93529W        W65954  12.218   0.885   3.759
93530W        W65955  42.787  44.954  13.939
93531W        W65956  38.998   2.750   3.698
93532W        W65957   3.935  16.664  12.984
93533W        W65958  12.787  35.386   3.387
93534W        W65959  36.963  23.008   9.957
93535W        W65960  40.889   5.311   3.253
93536W        W65961  12.791  42.914   2.900
93537W        W65962  15.141  20.596  10.919
93538W        W65963   1.924  28.024  11.396
93539W        W65964  28.625  20.667   0.788
93540W        W65965  35.859   0.794  14.921
93541W        W65966   5.914  33.453   3.745
93542W        W65967  21.744  42.390   0.772
93543W        W65968  27.574  28.681  10.573
93544W        W65969  40.356   8.735   3.690
93545W        W65970  31.553  10.842   2.841
93546W        W65971  18.744  21.619  12.465
93547W        W65972  33.045   3.266  14.290
93548W        W65973  33.981  29.102   0.438
93549W        W65974  10.251  28.988  11.433
93550W        W65975  24.684   0.814   0.902
93551W        W65976  40.306  19.588  11.076
93552W        W65977   3.271   3.454   1.446
93553W        W65978  39.948  25.685   0.729
93554W        W65979  20.532  42.524  14.342
93555W        W65980   9.869  36.874  13.342
93556W        W65981  39.501  30.925   1.289
93557W        W65982  13.187  19.763  12.026
93558W        W65983  34.986  11.220  12.438
93559W        W65984  35.361  35.426   1.288
93560W        W65985  44.996  29.462  10.558
93561W        W65986  35.067  38.384  10.563
93562W        W65987  13.757  17.222   4.610
93563W        W65988  12.174  38.045   1.897
93564W        W65989  20.744  41.938  14.481
93565W        W65990  34.607  36.031  12.449
93566W        W65991  19.715   0.935   3.235
93567W        W65992  40.399   6.919  12.054
93568W        W65993  37.459  17.114   0.747
93569W        W65994  24.987  40.008  14.409
93570W        W65995  28.506  15.715  11.490
93571W        W65996  18.569   7.719  10.453
93572W        W65997  33.612  43.879  14.286
93573W        W65998  35.935  36.087  10.494
93574W        W65999  35.515  24.599  10.949
93575W        W66000   9.395  35.853  11.006
93576W        W66001  25.034   8.890   4.704
93577W        W66002  44.466   1.852   4.812
93578W        W66003   4.878  30.008  14.865
93579W        W66004  40.459  31.535  12.398
93580W        W66005  44.331  33.438   4.611
93581W        W66006  39.326  24.121   0.429
93582W        W66007  10.347  22.562  12.060
93583W        W66008  29.504  16.290   1.384
93584W        W66009  36.578  10.281  10.150
93585W        W66010  24.618  11.292  13.026
93586W        W66011  21.219  40.311   5.154
93587W        W66012  41.403   7.835   3.195
93588W        W66013  35.480  20.253   2.774
93589W        W66014   7.743  22.174  14.771
93590W        W66015  31.022  32.404  11.087
93591W        W66016  28.480   2.830  11.537
93592W        W66017   2.740  33.068  10.476
93593W        W66018  40.868  17.724  14.866
93594W        W66019  26.153  21.713  13.049
93595W        W66020   3.763   8.185  10.976
93596W        W66021   5.881  31.134   3.654
93597W        W66022  30.481   5.885  14.363
93598W        W66023   8.225   8.361   2.763
93599W        W66024  31.550  23.040  10.887
93600W        W66025  24.977  15.259   0.388
93601W        W66026   9.723  33.484   3.781
93602W        W66027  22.028  24.084   2.241
93603W        W66028  43.490  35.398   3.633
93604W        W66029   8.666  35.451  14.448
93605W        W66030   9.292  36.419  12.918
93606W        W66031  17.632  13.174  13.475
93607W        W66032  33.129  37.434   2.725
93608W        W66033  44.433  25.043  14.875
93609W        W66034  31.580  24.021  14.765
93610W        W66035  14.728  19.224   1.859
93611W        W66036  26.482  32.122   3.169
93612W        W66037  38.378  39.467  12.857
93613W        W66038  38.516  44.934  11.514
93614W        W66039   2.895  20.154  12.018
93615W        W66040  43.914   4.910   3.697
93616W        W66041  33.091  12.119  14.941
93617W        W66042  33.418  27.685  13.926
93618W        W66043  35.476   3.774  13.028
93619W        W66044   9.669   7.284   2.283
93620W        W66045  19.268  16.731  12.069
93621W        W66046  24.666  21.032   4.172
93622W        W66047  20.217  12.741   4.702
93623W        W66048  34.477  43.795  13.346
93624W        W66049  14.291  28.622  11.857
93625W        W66050  30.560  29.085  12.090
93626W        W66051  28.517   7.242   2.356
93627W        W66052   4.768  27.009   3.291
93628W        W66053   6.839  10.140   0.893
93629W        W66054  40.011  15.278   3.264
93630W        W66055  37.502  13.179  13.823
93631W        W66056  39.960  16.770   1.710
93632W        W66057   9.259  22.553  12.958
93633W        W66058   8.174  19.744  13.818
93634W        W66059  38.853   5.793   1.303
93635W        W66060   9.348  24.654   2.677
93636W        W66061   1.787  36.400  13.429
93637W        W66062  33.903  15.662   0.244
93638W        W66063  19.581   3.382  14.477
93639W        W66064  29.139  28.184  12.883
93640W        W66065  32.007  20.114   1.412
93641W        W66066   7.257   8.263  10.904
93642W        W66067  40.855   6.849  12.863
93643W        W66068  40.969  18.245  13.818
93644W        W66069  25.472  32.090  11.546
93645W        W66070  17.307  26.045   3.211
93646W        W66071  10.843  19.218   1.813
93647W        W66072   6.271  38.893   0.459
93648W        W66073  25.174  30.010   3.664
93649W        W66074  42.466  40.984   3.667
93650W        W66075   0.404  38.056  14.926
93651W        W66076  27.165   9.644   1.844
93652W        W66077  18.572  20.653   4.811
93653W        W66078  27.089  29.427   4.237
93654W        W66079  37.935  15.750  14.823
93655W        W66080  29.028   4.331  14.984
93656W        W66081   6.283  17.753  12.033
93657W        W66082  26.459  23.632   2.277
93658W        W66083  22.744  23.683   4.262
93659W        W66084  13.815  30.134   1.385
93660W        W66085  12.306  24.539   1.439
93661W        W66086  43.766  41.369  13.814
93662W        W66087  31.028  11.631   0.454
93663W        W66088  40.858  42.941  12.570
93664W        W66089  29.038  19.749  13.520
93665W        W66090  29.973  37.528  14.921
93666W        W66091   4.762  15.116   1.303
93667W        W66092  36.474  15.265   4.625
93668W        W66093  23.590  22.655  13.471
93669W        W66094  24.708  19.752  13.969
93670W        W66095  30.067  10.231   1.330
93671W        W66096  15.652   1.405   2.320
93672W        W66097  12.314  25.085   4.273
93673W        W66098  33.954  30.622   2.825
93674W        W66099  19.542  11.263   3.229
93675W        W66100  24.518  10.809   1.451
93676W        W66101   4.249   5.754   3.168
93677W        W66102  18.096  31.439  10.036
93678W        W66103  27.511  32.055  11.453
93679W        W66104  44.786   0.337   4.612
93680W        W66105  20.574  15.599   1.345
93681W        W66106  16.805  12.317   3.838
93682W        W66107  36.403   6.816  11.906
93683W        W66108  20.041  26.970  13.883
93684W        W66109  10.840  14.681   4.695
93685W        W66110  16.587   2.865  11.062
93686W        W66111  20.116   7.792  12.393
93687W        W66112  26.657  32.439  10.143
93688W        W66113  17.232  16.720   3.238
93689W        W66114  38.472  11.270   4.308
93690W        W66115  42.474  14.731   2.794
93691W        W66116  10.244  22.717  14.488
93692W        W66117   0.914  40.953   2.733
93693W        W66118  10.149  25.116   1.267
93694W        W66119  16.245  20.738   3.815
93695W        W66120  11.281   5.223  14.782
93696W        W66121  23.058   7.277   4.202
93697W        W66122  37.438  30.020  11.596
93698W        W66123  33.929  40.842  13.948
93699W        W66124  37.062  15.728   1.709
93700W        W66125   5.345  43.983   2.776
93701W        W66126  18.600  22.512   5.244
93702W        W66127  18.665  28.962  12.370
93703W        W66128  20.263  11.354  14.966
93704W        W66129  42.972  40.901   3.292
93705W        W66130   9.226  21.598  11.549
93706W        W66131   0.305  17.298  12.533
93707W        W66132  39.966   2.900   4.615
93708W        W66133  17.752  18.764   3.178
93709W        W66134  23.604   3.808   1.345
93710W        W66135  26.506  23.176  12.553
93711W        W66136  32.448   1.831   0.796
93712W        W66137  19.558  27.632  15.000
93713W        W66138  39.429   5.332   3.826
93714W        W66139   2.412  26.606  13.792
93715W        W66140   6.738  32.585  11.539
93716W        W66141  12.715   1.900  14.506
93717W        W66142  27.147  27.186   2.181
93718W        W66143  34.570  41.472   0.453
93719W        W66144  34.057  37.994  13.825
93720W        W66145  37.581  44.926   0.806
93721W        W66146  22.656  26.985  14.002
93722W        W66147  11.282  11.655   3.699
93723W        W66148  17.092  39.028   2.875
93724W        W66149  31.401  26.966   2.242
93725W        W66150  23.204  38.390   4.114
93726W        W66151  15.752  12.269  10.511
93727W        W66152  25.182  33.574   4.330
93728W        W66153  39.457  31.506  12.059
93729W        W66154  24.105  13.300  13.914
93730W        W66155  40.956  44.422   1.931
93731W        W66156   2.278  38.390   0.446
93732W        W66157  11.665  17.624   2.311
93733W        W66158  17.679  23.686   2.266
93734W        W66159  23.531  36.014  11.997
93735W        W66160  21.063  14.790   3.640
93736W        W66161   1.770   9.883  13.483
93737W        W66162  11.150  25.495  14.989
93738W        W66163  18.167  37.001   3.173
93739W        W66164  32.595  44.773   3.254
93740W        W66165  23.029  38.404  11.388
93741W        W66166  23.029  29.568  11.461
93742W        W66167  30.130   8.354   3.334
93743W        W66168  30.616  23.149   1.336
93744W        W66169  34.430  38.495   0.332
93745W        W66170  24.207  33.899   2.399
93746W        W66171  28.138   5.923  11.902
93747W        W66172   0.255  10.771   0.355
93748W        W66173  27.106  20.596  13.020
93749W        W66174  31.414  34.575   2.307
93750W        W66175  29.525  32.417  13.335
93751W        W66176   9.754  13.716   1.318
93752W        W66177  32.888   5.390   4.142
93753W        W66178  29.510  15.683   3.706
93754W        W66179  31.077  19.688  10.049
93755W        W66180  30.976  28.557  14.999
93756W        W66181  13.337  37.953   3.275
93757W        W66182  22.608  41.842   4.132
93758W        W66183  21.045  16.197   3.654
93759W        W66184  43.374  38.546  10.501
93760W        W66185  18.165  39.520  14.889
93761W        W66186  33.459   0.412   3.711
93762W        W66187  17.152  29.583  10.586
93763W        W66188  31.446  32.449  12.551
93764W        W66189   4.713  38.935  13.463
93765W        W66190  39.404   4.207  11.886
93766W        W66191  33.403   2.819  13.021
93767W        W66192  16.086  44.342  10.922
93768W        W66193  22.599   3.878  13.498
93769W        W66194  38.492  28.486   3.733
93770W        W66195  14.762  15.699  13.947
93771W        W66196  37.920  13.344  14.959
93772W        W66197  20.564  28.523  13.059
93773W        W66198  44.347   9.867  11.023
93774W        W66199  23.199  13.246   3.213
93775W        W66200  41.389  23.520   4.170
93776W        W66201  34.080  40.875  12.578
93777W        W66202   2.962  39.446  14.956
93778W        W66203  13.701  23.039  11.541
93779W        W66204  36.390   2.340  13.934
93780W        W66205  21.049  44.844  11.019
93781W        W66206  10.237   6.409   5.116
93782W        W66207  16.616  34.537   4.298
93783W        W66208  35.104  22.599   2.880
93784W        W66209   3.893  14.339  10.553
93785W        W66210  35.517  15.791  10.405
93786W        W66211  28.129   4.447  12.902
93787W        W66212  11.656  13.199   3.726
93788W        W66213  36.030  24.676   3.859
93789W        W66214   1.745  40.959  14.457
93790W        W66215  12.658  38.964   1.316
93791W        W66216   9.263   5.811  10.064
93792W        W66217   0.465  37.495   3.854
93793W        W66218   9.730   6.246   9.986
93794W        W66219  19.073  19.603   3.180
93795W        W66220  33.027   3.948  13.842
93796W        W66221  14.713  21.133   9.932
93797W        W66222  20.550  13.698  11.424
93798W        W66223  22.219   7.320   2.837
93799W        W66224  19.617   0.469  13.997
93800W        W66225  25.490  38.533   0.417
93801W        W66226   3.725  26.677  14.023
93802W        W66227  39.411  15.583   1.703
93803W        W66228  31.961  17.768   2.187
93804W        W66229  29.627   1.813  10.520
93805W        W66230   9.334   9.228  12.016
93806W        W66231  44.844   4.852   1.353
93807W        W66232   5.402  31.459  14.402
93808W        W66233   8.306  37.447   4.136
93809W        W66234  18.576  38.515   0.459
93810W        W66235  43.506  23.534   3.323
93811W        W66236   4.307  11.815  10.627
93812W        W66237   4.381  12.269   3.183
93813W        W66238  17.629  27.617   0.926
93814W        W66239  34.501  11.655  10.948
93815W        W66240  20.035  22.517  14.876
93816W        W66241  34.508  14.754  12.972
93817W        W66242  27.498  15.661  12.040
93818W        W66243  42.514   5.837  14.469
93819W        W66244   1.765  12.332  12.573
93820W        W66245  38.002  30.558  10.110
93821W        W66246  25.182  31.984   2.254
93822W        W66247  17.277  24.619  10.071
93823W        W66248  35.389   9.660  10.405
93824W        W66249  27.522  12.230  11.038
93825W        W66250  40.035  41.824  10.049
93826W        W66251  36.557  14.226  13.855
93827W        W66252  31.952   4.937   2.795
93828W        W66253  19.274  32.616   2.897
93829W        W66254  10.816  10.156  12.405
93830W        W66255   6.686  12.153  12.864
93831W        W66256  23.230  11.805   5.275
93832W        W66257  19.750  20.601   0.357
93833W        W66258  33.394  44.889  14.027
93834W        W66259  17.575  37.439   3.679
93835W        W66260  20.744  32.578  13.496
93836W        W66261  27.163  18.586   1.286
93837W        W66262  30.073  15.308   3.330
93838W        W66263   3.341  22.568  12.513
93839W        W66264  25.202  38.468   0.786
93840W        W66265  29.497  24.064  11.579
93841W        W66266  41.877   5.400   1.291
93842W        W66267  20.602   5.429   4.338
93843W        W66268  13.134  11.713   2.258
93844W        W66269  23.718  40.933   0.297
93845W        W66270  22.248  40.925  11.383
93846W        W66271  13.742  17.659  11.371
93847W        W66272  34.932  44.339   1.772
93848W        W66273   7.308   9.842   0.736
93849W        W66274  25.639  38.965   3.243
93850W        W66275   6.184  18.753   2.718
93851W        W66276  20.083   8.801   2.728
93852W        W66277   2.397  38.912  12.868
93853W        W66278  15.587  39.503  14.999
93854W        W66279  44.404  30.616  11.507
93855W        W66280  27.660  36.504  13.918
93856W        W66281  15.183  18.195   2.717
93857W        W66282  11.370  38.507   0.850
93858W        W66283  37.040  23.603   3.257
93859W        W66284  18.697  43.793   0.380
93860W        W66285   0.846  10.268   3.667
93861W        W66286  26.126  35.947   4.151
93862W        W66287  36.555   5.893   2.252
93863W        W66288  17.122  35.870   0.946
93864W        W66289  14.123  24.110   5.618
93865W        W66290  16.792  18.146  11.596
93866W        W66291  13.284  27.689   1.838
93867W        W66292  16.160  18.140  11.094
93868W        W66293  19.104   7.687  11.536
93869W        W66294  37.028  20.137  11.910
93870W        W66295   3.932  25.637  14.504
93871W        W66296  18.751  14.734   0.808
93872W        W66297  16.720  41.508   3.206
93873W        W66298  30.073  30.989  10.076
93874W        W66299  11.172   4.726   1.893
93875W        W66300  25.545  20.596   1.215
93876W        W66301  32.455  29.058   0.734
93877W        W66302  13.245  25.684   3.681
93878W        W66303  42.451  41.837   4.721
93879W        W66304  20.214  26.130  14.329
93880W        W66305  13.281  44.446  13.959
93881W        W66306   6.249  40.519  10.069
93882W        W66307   3.428   1.299  11.089
93883W        W66308  16.308  22.073   2.249
93884W        W66309  43.801  40.459  10.562
93885W        W66310  10.249  36.424   1.824
93886W        W66311  25.599   2.285   0.292
93887W        W66312  32.103  14.811  12.854
93888W        W66313   4.228  41.966  11.882
93889W        W66314  27.536  25.638  14.424
93890W        W66315  36.559  29.044  10.612
93891W        W66316  23.091   7.206   3.302
93892W        W66317  10.155  25.183   0.809
93893W        W66318  38.367  37.495  14.911
93894W        W66319  13.669  14.643   3.329
93895W        W66320  39.452  16.208   1.868
93896W        W66321  35.894  16.215   3.220
93897W        W66322  41.804  24.221   0.885
93898W        W66323   3.368  31.097  12.963
93899W        W66324   7.687  16.584   0.770
93900W        W66325   6.238  29.643  13.043
93901W        W66326  14.692  34.028   0.883
93902W        W66327  42.820   3.355  11.457
93903W        W66328  17.695  34.985  12.832
93904W        W66329  13.210  23.672   0.433
93905W        W66330  30.050  38.979   2.226
93906W        W66331  44.498  16.204  11.419
93907W        W66332   7.709  17.682  14.908
93908W        W66333  19.238  31.975   2.276
93909W        W66334  28.089  15.641  14.432
93910W        W66335   0.757   5.744  10.999
93911W        W66336  10.723  20.187   1.413
93912W        W66337  35.431   2.868   4.347
93913W        W66338  21.711   5.838  14.507
93914W        W66339  25.113   7.821  13.825
93915W        W66340  16.161   6.226   0.259
93916W        W66341  35.892  35.444   3.768
93917W        W66342  29.110  16.153  13.426
93918W        W66343  34.926  19.274  14.416
93919W        W66344  38.478  35.013   1.922
93920W        W66345  33.013  10.669   1.213
93921W        W66346  26.595  11.812   1.711
93922W        W66347   4.428  25.053   4.222
93923W        W66348   4.922  33.025  14.920
93924W        W66349  15.255  27.586  13.517
93925W        W66350  24.032  15.188  10.994
93926W        W66351  42.873  14.732   1.374
93927W        W66352  31.130  27.146   3.250
93928W        W66353   2.790  40.929  12.542
93929W        W66354  12.210  21.673  12.060
93930W        W66355  26.659   1.846  12.971
93931W        W66356   6.920  32.938   2.663
93932W        W66357  37.887   3.441   2.679
93933W        W66358  18.758   3.948  11.570
93934W        W66359  43.384  32.017   1.377
93935W        W66360  41.407  44.402  13.347
93936W        W66361  18.164  14.221  12.079
93937W        W66362  16.156  26.105  14.955
93938W        W66363   6.217  31.426   3.309
93939W        W66364   6.347   3.906   0.391
93940W        W66365  19.044  41.297   3.630
93941W        W66366  12.683  40.964   0.417
93942W        W66367  16.245  27.462   3.274
93943W        W66368   7.730  30.073   0.763
93944W        W66369  18.706  15.267  14.995
93945W        W66370  33.971  38.405  10.941
93946W        W66371  28.123   2.908  12.998
93947W        W66372  14.315   9.193  11.470
93948W        W66373  35.587  23.029  10.112
93949W        W66374  13.783   2.940   2.295
93950W        W66375   0.434  13.800   1.805
93951W        W66376  37.359   0.422  10.011
93952W        W66377   8.794  31.146   3.668
93953W        W66378   8.893  15.699   0.301
93954W        W66379  39.494  39.044   1.825
93955W        W66380  28.065  28.121  12.852
93956W        W66381  18.194   4.210  10.992
93957W        W66382  39.377  11.715  14.510
93958W        W66383  15.174  24.197  11.403
93959W        W66384  35.062  13.617   0.427
93960W        W66385  14.331  30.057  11.959
93961W        W66386  24.148  26.651   4.352
93962W        W66387  17.283  18.670  12.073
93963W        W66388   4.302  28.631  14.827
93964W        W66389  35.030  20.768  13.484
93965W        W66390  36.409  23.994   1.295
93966W        W66391  20.147  32.461   9.493
93967W        W66392   4.417  13.160  13.909
93968W        W66393  41.446  20.629   4.666
93969W        W66394  20.102  37.435   0.843
93970W        W66395   2.373  12.733   0.855
93971W        W66396  17.300  20.594   2.337
93972W        W66397  22.223   3.404  13.955
93973W        W66398   3.819  26.071  14.287
93974W        W66399  31.541  41.916   2.245
93975W        W66400   8.166  16.206   2.774
93976W        W66401  37.930  34.533   2.201
93977W        W66402  11.286  42.779   1.225
93978W        W66403  41.003  34.972   4.278
93979W        W66404  34.391  16.196  12.014
93980W        W66405  35.445   3.364  12.073
93981W        W66406   5.931  38.516  14.275
93982W        W66407  13.653   6.206  11.047
93983W        W66408  36.905  33.076  11.535
93984W        W66409  28.521  17.144  12.558
93985W        W66410   9.848   2.927  11.506
93986W        W66411   8.164  41.503   4.155
93987W        W66412  37.041   0.937  11.570
93988W        W66413  11.231   7.195   9.641
93989W        W66414  35.536  28.994  13.015
93990W        W66415  13.610  20.684   2.316
93991W        W66416  27.501  39.508   3.280
93992W        W66417  35.100  35.911  12.912
93993W        W66418  23.998  44.919   4.135
93994W        W66419  34.510  10.254  11.916
93995W        W66420  33.487  21.194  11.430
93996W        W66421   8.241   6.305   1.710
93997W        W66422  25.070  31.935   0.871
93998W        W66423  24.017  10.247   5.314
93999W        W66424  27.083  24.672  14.482
94000W        W66425  28.657  23.630   3.718
94001W        W66426   4.865  12.232   3.159
94002W        W66427  10.182  11.706  13.014
94003W        W66428  39.061  30.562   2.895
94004W        W66429  15.707  27.494  12.577
94005W        W66430  34.031   0.792   1.801
94006W        W66431   6.733  40.954   2.887
94007W        W66432   6.735  38.441   4.124
94008W        W66433  15.139  37.859   1.385
94009W        W66434  42.806  37.471   0.297
94010W        W66435  31.103  31.488  12.350
94011W        W66436  34.097  24.120   1.218
94012W        W66437   8.385  10.720   2.838
94013W        W66438   4.230  33.047  12.362
94014W        W66439  37.518  29.933  14.824
94015W        W66440  20.032  10.809  14.360
94016W        W66441  41.869  43.485   4.763
94017W        W66442  37.955  37.520  11.985
94018W        W66443  42.990  11.179  11.521
94019W        W66444  21.685  10.242  12.509
94020W        W66445  20.033  40.813   1.863
94021W        W66446   0.492  23.582   2.665
94022W        W66447  42.503  33.997   3.165
94023W        W66448   9.228  20.639  14.805
94024W        W66449  30.985  44.292  13.317
94025W        W66450  14.642  13.790   4.771
94026W        W66451  39.323  13.753  14.307
94027W        W66452   1.774   6.741  12.053
94028W        W66453  42.387  24.039  11.563
94029W        W66454  27.632   8.853  11.568
94030W        W66455  37.364  19.657   0.886
94031W        W66456  26.553  29.449   0.380
94032W        W66457  27.608  11.331  11.499
94033W        W66458   6.349  13.751  12.577
94034W        W66459   3.448   2.901   4.160
94035W        W66460   1.817  23.675  13.017
94036W        W66461  10.276  26.996  12.446
94037W        W66462  39.489   0.468   2.247
94038W        W66463  30.442   9.744  11.596
94039W        W66464   7.899  15.788   3.718
94040W        W66465  43.471   5.426   2.228
94041W        W66466  13.309  38.934   3.357
94042W        W66467  14.335  13.834  10.422
94043W        W66468  26.965  20.615   1.226
94044W        W66469  44.339  17.651   2.860
94045W        W66470  39.525  37.851  12.983
94046W        W66471  29.061   2.303  11.437
94047W        W66472  12.625  35.459  14.484
94048W        W66473  23.222  16.732  10.957
94049W        W66474   3.711  33.605   3.832
94050W        W66475  11.193  20.700  11.118
94051W        W66476  22.122  13.122   0.812
94052W        W66477  17.164  23.083  12.017
94053W        W66478  29.157  23.592  11.544
94054W        W66479  27.033  12.324  12.927
94055W        W66480   3.750  29.586  14.456
94056W        W66481  27.169  30.914   0.264
94057W        W66482  41.357  39.350  13.343
94058W        W66483  44.915  37.496  13.425
94059W        W66484  43.988   8.394  10.511
94060W        W66485  29.474  16.795  14.331
94061W        W66486  33.079   2.255   4.637
94062W        W66487  39.475  38.478   0.376
94063W        W66488  16.750  36.459   0.905
94064W        W66489  12.811  16.130   2.304
94065W        W66490  17.196   5.890   3.248
94066W        W66491   9.169   9.801  13.020
94067W        W66492  11.755  13.156  14.323
94068W        W66493  20.585  10.800  10.561
94069W        W66494  24.501  26.693   0.805
94070W        W66495  29.494  13.311  10.407
94071W        W66496  14.640  33.079   4.686
94072W        W66497  30.432  40.935  14.005
94073W        W66498   5.701  24.564   1.394
94074W        W66499  32.909  29.492   2.792
94075W        W66500  34.500  19.149   2.759
94076W        W66501  33.571  40.535  13.329
94077W        W66502   9.395  17.065  12.353
94078W        W66503   4.756   2.404   0.426
94079W        W66504  21.671   8.828   0.840
94080W        W66505  41.368  32.587   1.725
94081W        W66506  38.398  25.116   5.624
94082W        W66507  23.169   9.752  13.045
94083W        W66508  18.781  17.232  13.828
94084W        W66509   2.417  21.139   0.901
94085W        W66510  24.156  16.183   0.469
94086W        W66511  25.149  42.027  14.430
94087W        W66512  27.003   3.224   1.450
94088W        W66513  22.142  14.204   3.330
94089W        W66514  17.306  31.012  14.767
94090W        W66515  38.994  17.074   3.146
94091W        W66516  44.416   5.725  11.479
94092W        W66517  25.605   5.904  13.961
94093W        W66518  10.319   0.261  11.004
94094W        W66519  33.610   8.700  10.995
94095W        W66520  15.744   7.308   4.131
94096W        W66521  30.606  34.007  12.471
94097W        W66522   0.326   6.393   1.756
94098W        W66523  26.473  39.472   3.193
94099W        W66524  21.561  29.148  14.279
94100W        W66525  19.715  21.739   4.241
94101W        W66526  12.841  10.323  10.634
94102W        W66527  34.460   9.846  12.023
94103W        W66528  36.959  27.125   2.290
94104W        W66529   4.854  36.535   0.371
94105W        W66530  35.889  37.553   1.927
94106W        W66531  38.477  31.546  11.403
94107W        W66532  17.795  23.096  13.862
94108W        W66533  21.540  42.797  14.959
94109W        W66534  16.571  13.726  12.061
94110W        W66535  42.418   9.307  11.022
94111W        W66536   5.836  18.283   2.818
94112W        W66537   6.893   5.302  12.863
94113W        W66538  22.233  27.073   3.148
94114W        W66539  40.964   9.242   2.242
94115W        W66540  18.772  26.586   4.163
94116W        W66541  19.247  11.813   2.865
94117W        W66542  35.465  32.049   1.722
94118W        W66543  13.800  44.322  14.276
94119W        W66544   6.856  37.034   4.243
94120W        W66545   1.281   4.918  14.889
94121W        W66546   8.260  30.055   2.797
94122W        W66547  42.033  19.543  13.372
94123W        W66548  11.755   5.753  12.830
94124W        W66549   0.888  36.358   4.119
94125W        W66550  26.581  35.424   0.381
94126W        W66551  40.935  11.653  11.552
94127W        W66552  29.140   5.334  12.014
94128W        W66553  28.514  39.352   0.300
94129W        W66554  24.617  20.582   1.278
94130W        W66555  44.845  21.226   3.323
94131W        W66556  16.579  37.440  14.802
94132W        W66557  43.323   6.241   2.706
94133W        W66558  33.414  15.768   1.760
94134W        W66559  40.820   5.410  12.487
94135W        W66560  20.166  22.164   2.361
94136W        W66561  21.601  39.354   2.796
94137W        W66562  30.568  42.938  10.143
94138W        W66563   5.833  32.563  12.496
94139W        W66564  27.194  15.274   1.332
94140W        W66565   1.429  12.811   4.821
94141W        W66566   1.846  16.658  13.513
94142W        W66567   3.776  38.502  12.881
94143W        W66568  20.763   2.290   2.238
94144W        W66569  26.954  32.422  14.914
94145W        W66570  20.224  32.582   1.874
94146W        W66571  17.168  10.749  13.538
94147W        W66572  36.387  13.172  12.487
94148W        W66573  16.164   1.876  13.019
94149W        W66574  39.042  28.068   0.805
94150W        W66575   6.220  25.986  14.401
94151W        W66576  43.783   5.372   4.724
94152W        W66577  42.415  36.391   0.336
94153W        W66578  19.065  43.307   4.764
94154W        W66579   9.743  25.691   4.187
94155W        W66580  33.011  35.464   0.814
94156W        W66581  10.688  10.156  10.994
94157W        W66582  21.740   4.777  11.099
94158W        W66583  26.479  10.298   2.334
94159W        W66584   3.876  15.127   0.318
94160W        W66585  13.324  12.266  12.383
94161W        W66586  40.399  27.152   3.643
94162W        W66587   5.836  12.852   2.260
94163W        W66588  41.453  17.714  10.896
94164W        W66589  34.490   3.821   3.208
94165W        W66590  34.940  34.089   4.344
94166W        W66591  38.421  40.864  13.985
94167W        W66592  14.246  25.468  11.577
94168W        W66593  41.504  27.538   4.205
94169W        W66594  42.909   5.921  13.919
94170W        W66595   9.260  23.665   3.852
94171W        W66596  34.459  18.722  14.821
94172W        W66597  41.933   1.471  11.016
94173W        W66598  40.504  33.069  11.562
94174W        W66599  30.912  36.855   2.802
94175W        W66600  44.482  16.699   3.648
94176W        W66601  23.714  23.536   2.323
94177W        W66602  16.172  14.339  14.910
94178W        W66603   7.207  34.431  13.955
94179W        W66604  32.917  10.313   1.816
94180W        W66605  41.374   3.420   0.917
94181W        W66606  13.799  14.799   0.266
94182W        W66607   7.749  32.604   2.353
94183W        W66608  20.616   5.429  14.975
94184W        W66609  18.164  33.099   2.798
94185W        W66610  16.210  42.899   0.324
94186W        W66611  14.196  44.930  13.441
94187W        W66612  29.959   3.936   2.725
94188W        W66613   4.886   0.974  13.412
94189W        W66614   5.759   2.863  11.519
94190W        W66615  22.714  44.838  11.064
94191W        W66616  18.052  38.556  10.972
94192W        W66617  33.091  18.249   1.398
94193W        W66618  15.115  30.522  13.980
94194W        W66619  42.799  29.482   2.746
94195W        W66620  37.374  13.108  14.788
94196W        W66621  33.595  38.344  13.962
94197W        W66622  43.289  21.742   3.676
94198W        W66623  20.109   8.864  14.432
94199W        W66624   1.867  24.585   3.261
94200W        W66625  12.793  42.891  12.894
94201W        W66626   0.278  15.316   2.268
94202W        W66627  23.541   1.384  14.503
94203W        W66628  27.978  11.260  13.900
94204W        W66629  14.184  21.253  13.811
94205W        W66630  33.929  34.939   4.343
94206W        W66631  26.589  37.035  11.925
94207W        W66632  22.744  19.042  14.931
94208W        W66633  15.269  29.927  11.933
94209W        W66634  15.287  37.340  12.062
94210W        W66635   1.772  35.973   2.790
94211W        W66636  11.220  28.510   2.393
94212W        W66637  29.152  44.393   3.154
94213W        W66638   7.671  29.597   3.211
94214W        W66639  27.012  11.638  14.859
94215W        W66640  38.037  22.517  14.283
94216W        W66641  29.030  14.824  12.482
94217W        W66642  25.713  44.340  10.897
94218W        W66643  36.011  42.877  14.375
94219W        W66644   9.885   1.236   0.460
94220W        W66645  36.931  33.500  13.918
94221W        W66646   2.914  21.517  14.984
94222W        W66647  21.745  42.789  12.546
94223W        W66648  41.362   2.832  13.507
94224W        W66649  18.617  27.066   3.863
94225W        W66650  19.697  18.689   1.933
94226W        W66651  30.525   9.257   0.324
94227W        W66652  10.868  35.471  10.464
94228W        W66653  37.481   0.968   4.279
94229W        W66654   8.203  41.319  12.577
94230W        W66655  27.044  29.485   0.330
94231W        W66656  29.434  40.034  13.812
94232W        W66657  38.441  22.247  13.973
94233W        W66658  13.812  34.574   4.280
94234W        W66659  33.057  24.620   3.732
94235W        W66660  20.133   8.161   2.282
94236W        W66661   0.791   2.954   4.832
94237W        W66662  15.234   4.393   4.657
94238W        W66663  44.425   8.256  12.967
94239W        W66664  30.436  27.621   4.636
94240W        W66665  19.549  33.532  11.536
94241W        W66666   8.163  22.055   0.734
94242W        W66667  13.730   9.178   4.223
94243W        W66668  22.687  21.047  11.541
94244W        W66669  40.511  28.533  14.031
94245W        W66670   6.385  36.458  13.317
94246W        W66671  19.246   2.335   0.305
94247W        W66672   1.775  19.679  13.990
94248W        W66673  25.566  40.975  14.397
94249W        W66674  38.445   6.244  12.425
94250W        W66675  44.499  22.071   9.989
94251W        W66676   1.940  11.643   2.257
94252W        W66677  25.042  42.849  14.977
94253W        W66678  13.742  21.656  14.888
94254W        W66679  34.909  42.986   9.953
94255W        W66680  43.894  39.447   3.652
94256W        W66681  17.174  31.019  11.562
94257W        W66682  30.013  24.211  12.499
94258W        W66683  29.932  28.179   1.402
94259W        W66684  10.651   5.376   1.811
94260W        W66685  15.131  12.362  13.384
94261W        W66686  34.912  44.365   5.234
94262W        W66687  12.254  14.288   5.148
94263W        W66688  22.176  23.133  13.847
94264W        W66689   0.766  18.555  11.593
94265W        W66690  34.543   3.912  12.050
94266W        W66691  10.251  17.081  13.849
94267W        W66692  41.014  29.650   4.834
94268W        W66693  34.114  25.700  11.431
94269W        W66694  18.231  11.234   0.865
94270W        W66695  17.657  26.023  10.971
94271W        W66696   3.899  28.450  11.465
94272W        W66697  12.285   8.889  12.954
94273W        W66698  12.741  40.318  13.485
94274W        W66699  35.471  14.810  11.480
94275W        W66700  18.056  29.108  14.899
94276W        W66701  10.383  35.853   3.763
94277W        W66702  16.680  13.700  14.418
94278W        W66703  39.404  11.206   4.745
94279W        W66704  16.811   1.898   9.522
94280W        W66705  10.313   8.192  11.449
94281W        W66706  35.550  25.125  12.995
94282W        W66707  20.616  44.402   2.807
94283W        W66708  31.927   1.778  14.025
94284W        W66709   4.363   2.375  12.083
94285W        W66710  18.142  44.938  12.429
94286W        W66711  41.929  44.897   1.712
94287W        W66712  39.377  21.598  14.383
94288W        W66713  29.994  36.958   1.734
94289W        W66714   2.417  27.478  12.000
94290W        W66715  20.253   2.724   4.208
94291W        W66716  22.172  18.100   2.292
94292W        W66717  26.603  37.855  11.070
94293W        W66718  36.075  16.309  11.413
94294W        W66719  24.099  22.514   2.410
94295W        W66720   9.848  14.304  12.840
94296W        W66721  12.640  10.223  11.904
94297W        W66722  26.187   8.719  12.552
94298W        W66723  31.511  34.108  13.796
94299W        W66724   9.728  41.973   2.352
94300W        W66725  14.242  18.251   4.715
94301W        W66726   4.331  22.068   2.311
94302W        W66727  28.576  33.955  14.506
94303W        W66728  28.611  13.757   0.918
94304W        W66729   7.712  26.529   2.671
94305W        W66730  26.118  41.841   1.930
94306W        W66731  23.532  26.196  11.464
94307W        W66732  17.679  20.240  13.509
94308W        W66733  33.615  37.510  14.909
94309W        W66734  15.599  26.545   4.804
94310W        W66735  27.142  38.906   1.224
94311W        W66736  22.155  25.216   1.327
94312W        W66737   8.793  22.218  11.997
94313W        W66738   6.799   9.186   3.818
94314W        W66739   8.684  32.919  13.465
94315W        W66740  24.985  36.586  12.572
94316W        W66741  32.419  20.075   1.320
94317W        W66742  20.745  30.985  14.850
94318W        W66743  24.089  34.093  12.890
94319W        W66744  38.066  40.389  14.382
94320W        W66745  26.116  43.986   3.168
94321W        W66746   4.768  17.603   3.655
94322W        W66747  32.044   0.749   3.292
94323W        W66748  32.496  32.571  13.956
94324W        W66749   5.214  27.545   2.234
94325W        W66750  31.087  33.898  12.422
94326W        W66751  25.515  25.468   2.384
94327W        W66752   9.194  29.114  12.014
94328W        W66753  16.731  10.639  11.528
94329W        W66754  14.689  30.560   2.322
94330W        W66755   7.805  15.262   1.823
94331W        W66756  11.647   5.747   0.472
94332W        W66757  33.889  34.961   2.681
94333W        W66758  38.437  40.513   4.317
94334W        W66759  12.749  23.094   4.754
94335W        W66760  34.010  13.304  12.055
94336W        W66761  15.658  39.555   4.650
94337W        W66762  33.003  42.415   4.719
94338W        W66763  39.972  43.481  11.478
94339W        W66764  37.370  29.119   1.895
94340W        W66765  28.616  16.712  12.940
94341W        W66766   4.712  42.923  10.526
94342W        W66767  36.519  15.287   0.880
94343W        W66768  31.548  18.078   4.204
94344W        W66769  31.591  25.121  14.320
94345W        W66770  26.521  17.063   3.357
94346W        W66771  22.517  23.515   4.773
94347W        W66772  37.358  18.685   2.842
94348W        W66773  30.506  14.658  14.498
94349W        W66774  20.033  36.035  13.486
94350W        W66775  42.987  40.456  11.500
94351W        W66776  17.156  32.442   3.276
94352W        W66777   6.213  41.014   0.897
94353W        W66778   6.357  41.873  11.425
94354W        W66779  43.832  11.760  12.011
94355W        W66780  26.004  11.244   0.770
94356W        W66781  22.741  37.504   5.280
94357W        W66782  41.986  35.069   0.349
94358W        W66783  27.447  21.163   2.189
94359W        W66784  44.900  15.121   0.334
94360W        W66785  18.092  18.627   3.328
94361W        W66786   4.910  10.795   4.680
94362W        W66787  18.678  38.882   4.721
94363W        W66788   9.207  35.491   1.804
94364W        W66789  31.129  43.830   1.746
94365W        W66790  42.425  19.178   0.773
94366W        W66791  12.339  19.762  13.307
94367W        W66792  25.970  15.776   4.216
94368W        W66793  25.975  34.047  14.829
94369W        W66794   3.395  16.219   0.392
94370W        W66795  34.922  10.676  12.069
94371W        W66796  27.129  39.386  11.861
94372W        W66797   2.932  35.099  12.475
94373W        W66798  21.605  21.109  10.509
94374W        W66799  19.660  31.024  12.058
94375W        W66800  43.866  20.215   0.957
94376W        W66801  41.037  40.329   1.911
94377W        W66802  35.874   1.461  11.021
94378W        W66803  21.751  28.180  14.857
94379W        W66804   8.359  19.053  13.500
94380W        W66805  38.564  12.214  13.054
94381W        W66806  24.517  39.050   0.398
94382W        W66807  11.242  12.257  13.441
94383W        W66808  10.660  11.132   4.178
94384W        W66809  21.201  11.229   0.416
94385W        W66810   2.451  36.850   2.776
94386W        W66811  40.399  23.210   1.847
94387W        W66812  23.642   5.717  10.518
94388W        W66813  24.639   2.385   1.709
94389W        W66814  36.584  27.597  13.438
94390W        W66815   6.231  25.027  10.104
94391W        W66816  25.478   4.227   3.764
94392W        W66817  42.984   6.256   1.923
94393W        W66818  44.791  16.190   4.630
94394W        W66819  24.565   2.317   4.632
94395W        W66820  15.290  42.782  13.386
94396W        W66821  20.263  44.449   4.833
94397W        W66822  31.462  14.103  12.875
94398W        W66823  30.929   5.875  14.470
94399W        W66824  32.579   3.743   0.459
94400W        W66825   4.905  14.787  10.554
94401W        W66826  44.000   3.334  12.891
94402W        W66827  23.728  31.017  11.401
94403W        W66828   2.906  16.238   1.423
94404W        W66829  32.071  43.338  13.427
94405W        W66830  17.066  20.225  11.503
94406W        W66831  13.276  35.894  11.543
94407W        W66832  28.446  34.462   1.702
94408W        W66833  26.130  39.467  14.474
94409W        W66834  10.345  29.448  13.451
94410W        W66835   0.908  37.971   4.738
94411W        W66836  39.992  27.073  14.300
94412W        W66837   3.269  43.382   0.332
94413W        W66838  37.337  42.859   1.314
94414W        W66839  10.252  37.580   5.103
94415W        W66840  41.040  35.498  13.503
94416W        W66841  41.874  13.754   0.754
94417W        W66842   8.350  26.583   3.356
94418W        W66843  21.685   8.220  10.433
94419W        W66844  31.014  43.794  12.499
94420W        W66845   1.312  28.527   1.852
94421W        W66846  24.644  44.945  13.535
94422W        W66847   0.782  36.398  14.936
94423W        W66848  44.313  15.714   4.196
94424W        W66849  44.494  27.618  12.861
94425W        W66850  35.900  30.536   0.290
94426W        W66851  28.083  16.700  10.633
94427W        W66852  41.947  11.233  14.303
94428W        W66853  33.065  25.166  11.381
94429W        W66854  10.253  37.996   2.363
94430W        W66855  17.090   6.863   1.442
94431W        W66856  10.338  26.643   4.718
94432W        W66857  12.355   1.373  11.427
94433W        W66858   0.488  22.091  12.422
94434W        W66859  17.286  25.030  10.487
94435W        W66860   7.841  41.863  10.544
94436W        W66861   3.263  35.910   1.210
94437W        W66862  37.501  40.018  11.462
94438W        W66863  26.163  17.186  11.885
94439W        W66864   6.807   1.758  11.117
94440W        W66865  40.824   7.695  10.481
94441W        W66866  32.892  39.921  12.901
94442W        W66867  39.000  41.904   4.200
94443W        W66868  24.031  13.765  11.521
94444W        W66869  35.958  27.040  13.307
94445W        W66870  39.817  33.560  12.433
94446W        W66871  40.929  20.671  11.101
94447W        W66872  17.585  43.840   1.332
94448W        W66873   3.735  27.689   2.831
94449W        W66874  33.928  14.809   0.438
94450W        W66875  44.444  24.221   0.788
94451W        W66876  36.461   5.895  13.875
94452W        W66877  39.322  34.500   1.437
94453W        W66878  12.654  30.446   2.721
94454W        W66879   3.357  23.643   0.272
94455W        W66880  41.898   3.952  11.860
94456W        W66881  31.949   6.910   2.256
94457W        W66882  35.534  41.875  11.588
94458W        W66883  32.485  17.111  11.085
94459W        W66884  19.631  44.481  11.938
94460W        W66885  12.737  30.970  13.886
94461W        W66886  23.530  15.731   1.743
94462W        W66887  40.949   3.441  11.876
94463W        W66888  21.729  13.843   1.365
94464W        W66889  44.476  35.370  13.416
94465W        W66890  38.969  16.613   1.215
94466W        W66891  36.391  20.160   2.675
94467W        W66892  44.921  43.495  11.472
94468W        W66893   2.403  30.611  13.339
94469W        W66894  31.012   5.804  12.040
94470W        W66895  41.838  24.480  13.511
94471W        W66896   6.406  17.182  14.897
94472W        W66897   5.776  42.975  10.628
94473W        W66898  29.084  40.824   2.333
94474W        W66899  36.473   4.258   2.407
94475W        W66900  29.596  19.758  12.062
94476W        W66901  13.121  20.679  11.452
94477W        W66902  28.050  43.794   3.697
94478W        W66903  17.188  29.061   1.850
94479W        W66904   7.210   5.279   1.353
94480W        W66905   3.291  26.492  12.580
94481W        W66906   0.794  21.735   4.812
94482W        W66907   5.844  41.310  13.826
94483W        W66908  37.949   2.894  13.889
94484W        W66909  29.549   6.834  12.028
94485W        W66910  26.639  34.939  11.390
94486W        W66911  16.211  21.101  10.930
94487W        W66912  13.773  36.362  14.425
94488W        W66913   8.173   7.183  11.428
94489W        W66914  33.510  30.005   1.928
94490W        W66915  28.158  30.558   1.427
94491W        W66916  14.334  36.896   4.681
94492W        W66917   5.257  35.946  14.327
94493W        W66918  24.660  11.645  14.405
94494W        W66919  35.913  32.897  10.988
94495W        W66920   7.838  27.153   3.367
94496W        W66921  19.645  27.173   1.714
94497W        W66922  13.838   8.875   0.921
94498W        W66923  18.604  15.599  12.832
94499W        W66924   5.430   8.679  11.458
94500W        W66925  19.605  25.967   3.757
94501W        W66926  12.634  19.693   1.310
94502W        W66927  12.755  14.275  14.445
94503W        W66928  33.031  24.046   3.840
94504W        W66929  20.671  31.105  11.397
94505W        W66930   3.394   0.906   3.272
94506W        W66931  41.013  15.650  10.069
94507W        W66932  44.411  37.073  14.383
94508W        W66933  15.135  20.035  13.486
94509W        W66934  17.658  44.368   4.686
94510W        W66935  19.690  18.724  14.424
94511W        W66936  24.602  32.470  10.589
94512W        W66937  10.329  30.546  14.391
94513W        W66938  18.284   7.752   1.229
94514W        W66939  33.937  18.595   3.734
94515W        W66940   7.847  29.040  11.576
94516W        W66941   0.817   3.904   1.231
94517W        W66942  23.206   7.844  11.939
94518W        W66943  34.062  11.635  12.857
94519W        W66944  37.914   6.347   1.257
94520W        W66945   5.395  24.998   2.835
94521W        W66946  18.770   2.247   1.795
94522W        W66947  40.887  40.865   0.327
94523W        W66948  38.075  13.191  14.401
94524W        W66949  21.725  16.306  11.985
94525W        W66950  30.651  22.658   4.730
94526W        W66951  37.958  19.124   2.813
94527W        W66952  29.160  25.599  10.982
94528W        W66953   4.923  44.292  11.442
94529W        W66954  36.405  44.931   2.772
94530W        W66955   9.322   9.866   4.652
94531W        W66956  33.022  38.372   3.785
94532W        W66957   2.437   4.889  13.899
94533W        W66958  12.735   3.762  11.899
94534W        W66959   3.716  29.109  11.530
94535W        W66960   3.901  23.697  14.974
94536W        W66961  15.110  12.775   4.653
94537W        W66962  35.964  38.337  14.460
94538W        W66963   8.278  17.178   0.447
94539W        W66964  41.335   6.804  13.314
94540W        W66965  11.816  20.028   4.335
94541W        W66966  19.243   1.307   2.772
94542W        W66967   9.366   2.251   4.627
94543W        W66968  40.969   6.365   1.922
94544W        W66969  15.725   1.442   0.855
94545W        W66970   2.760  27.122   1.230
94546W        W66971   8.874   2.855   4.642
94547W        W66972  39.020  12.707   2.760
94548W        W66973  26.032   8.346   1.706
94549W        W66974   8.225  13.765  12.383
94550W        W66975  26.055  33.874   3.731
94551W        W66976   1.367  12.151   1.783
94552W        W66977  22.605  12.805  12.547
94553W        W66978   4.341  18.161  10.932
94554W        W66979  22.010  35.431  10.990
94555W        W66980  13.768  35.550  11.388
94556W        W66981  24.633  35.025   1.922
94557W        W66982  11.684  37.846  10.984
94558W        W66983   1.769  28.128  12.465
94559W        W66984  32.406  30.995   1.880
94560W        W66985  33.381  11.813   0.754
94561W        W66986  40.453  36.060   1.273
94562W        W66987  39.059  30.594   1.405
94563W        W66988  30.164  13.806  14.790
94564W        W66989  13.253  37.446  14.948
94565W        W66990  39.051   7.347  13.965
94566W        W66991   7.391   3.791   0.382
94567W        W66992  22.013  23.100   4.651
94568W        W66993  13.690  39.529  11.549
94569W        W66994   0.784  17.157  14.024
94570W        W66995  25.589  34.433   4.706
94571W        W66996  21.606  22.196  10.484
94572W        W66997  10.355   4.782  11.591
94573W        W66998  15.295  34.964  14.797
94574W        W66999  34.941  27.575   3.289
94575W        W67000  14.202  32.099   2.718
94576W        W67001  41.974  36.961  11.104
94577W        W67002  13.348  13.238   3.227
94578W        W67003  10.664   1.972  10.605
94579W        W67004  11.367  29.623  14.843
94580W        W67005  16.761  22.025   0.380
94581W        W67006  16.786  15.793   3.646
94582W        W67007  26.479   0.475  14.420
94583W        W67008  42.964  24.485  13.037
94584W        W67009  29.947  44.948   2.840
94585W        W67010  25.633  28.045   3.287
94586W        W67011  38.523   3.802  12.444
94587W        W67012  19.186  27.554  10.519
94588W        W67013  13.825  16.779   4.335
94589W        W67014  22.570  12.846  14.799
94590W        W67015  31.123  21.714  14.973
94591W        W67016  13.748   7.834  12.376
94592W        W67017  23.633  10.161   3.726
94593W        W67018  36.354  27.668   3.168
94594W        W67019  38.851  18.577   2.419
94595W        W67020  26.546  29.996   1.765
94596W        W67021  44.913  25.142  11.025
94597W        W67022  32.989   9.319  13.883
94598W        W67023   0.373  10.655  12.888
94599W        W67024  32.978  27.476   2.224
94600W        W67025  40.362  12.267   0.922
94601W        W67026  21.565  13.684  14.452
94602W        W67027  32.478  31.138  11.070
94603W        W67028  19.270   2.797  13.397
94604W        W67029   8.847  43.454   4.805
94605W        W67030  15.804  17.189   4.769
94606W        W67031  18.283  29.521  12.900
94607W        W67032   7.710   0.869   2.665
94608W        W67033   0.326   0.277  14.280
94609W        W67034   6.376  18.174   2.767
94610W        W67035  29.441   1.466  10.632
94611W        W67036  10.753  33.381   4.758
94612W        W67037  37.968  35.496   1.784
94613W        W67038  39.022   9.188   1.707
94614W        W67039  12.172   6.249  11.926
94615W        W67040   0.386  35.599   4.168
94616W        W67041  19.674  26.570  10.044
94617W        W67042  43.301  18.566   1.433
94618W        W67043  22.582  11.822   5.281
94619W        W67044  32.897  30.035   0.785
94620W        W67045  21.145  28.668  12.508
94621W        W67046  15.791  17.767   5.082
94622W        W67047  20.116   8.276  11.904
94623W        W67048   1.326   8.667  12.835
94624W        W67049  34.046  12.338  13.362
94625W        W67050   6.809   6.808  14.338
94626W        W67051  28.175  10.157  13.922
94627W        W67052  10.252   5.756   4.225
94628W        W67053  41.336  22.610   1.238
94629W        W67054  15.618  29.925  10.611
94630W        W67055   1.806  20.717  10.420
94631W        W67056  24.173  10.688   4.150
94632W        W67057  34.505  31.442  11.087
94633W        W67058  18.114  26.077  12.910
94634W        W67059  16.132  28.663   3.653
94635W        W67060  26.129  41.529   2.256
94636W        W67061  12.651   0.414   1.376
94637W        W67062  31.975  40.888  12.075
94638W        W67063  19.700  10.698   1.713
94639W        W67064   6.326  31.071   4.799
94640W        W67065  43.863   7.782   4.651
94641W        W67066   6.868  30.947   1.401
94642W        W67067  15.635  28.077   4.217
94643W        W67068  23.682  31.474  10.483
94644W        W67069  14.339  42.348  10.641
94645W        W67070   8.172   7.707   0.950
94646W        W67071  11.272  43.887   4.689
94647W        W67072  44.991  28.117  10.003
94648W        W67073  18.066  12.692   2.788
94649W        W67074   5.920   7.815  13.312
94650W        W67075  35.982  38.995   1.386
94651W        W67076  34.476   5.308  11.860
94652W        W67077  29.543  14.695   0.471
94653W        W67078  40.844  20.572   2.791
94654W        W67079   3.246  10.232   2.279
94655W        W67080  33.454  41.409  12.444
94656W        W67081   6.808  33.033   2.341
94657W        W67082  13.172  14.298  13.322
94658W        W67083  30.129  39.559   2.859
94659W        W67084   2.453  16.602  10.547
94660W        W67085  20.270  10.158   1.277
94661W        W67086  12.616  36.482   4.731
94662W        W67087  14.791   0.964   3.362
94663W        W67088  15.294  43.914  14.340
94664W        W67089   1.756  25.177  10.456
94665W        W67090  12.262  27.594   3.316
94666W        W67091  14.635  31.558   1.833
94667W        W67092  28.632  27.645   2.686
94668W        W67093  40.369  20.238  14.770
94669W        W67094  40.878   1.375  13.502
94670W        W67095  15.786   4.857   5.263
94671W        W67096  18.284  32.126  14.811
94672W        W67097   6.859  10.233  10.642
94673W        W67098  16.604  39.351  10.599
94674W        W67099   9.650   7.750   1.809
94675W        W67100  16.566  27.109   3.811
94676W        W67101  25.620  24.718   4.228
94677W        W67102   9.341  44.907   2.286
94678W        W67103  26.994  17.627  10.408
94679W        W67104   7.865  38.871   0.772
94680W        W67105   2.454  40.820  13.042
94681W        W67106   4.370  12.643  10.953
94682W        W67107  26.019   3.860   2.721
94683W        W67108  13.697  13.317  12.967
94684W        W67109  26.045  29.029  13.927
94685W        W67110  36.944  26.200   9.954
94686W        W67111  34.906  10.167   4.269
94687W        W67112  22.614  18.777  14.457
94688W        W67113  33.564  15.718   5.247
94689W        W67114  29.968  34.941   1.811
94690W        W67115  15.263   0.860   1.230
94691W        W67116  21.525   3.717  12.834
94692W        W67117  33.561   9.392  12.407
94693W        W67118  33.891  21.113   4.233
94694W        W67119   8.329  32.494  14.817
94695W        W67120  34.904  40.855  14.507
94696W        W67121   6.408  34.924  13.518
94697W        W67122  14.171  23.631  11.091
94698W        W67123   6.833  31.571   2.212
94699W        W67124   0.771   1.410  12.860
94700W        W67125  20.739  44.324   3.266
94701W        W67126  40.421  28.186  13.809
94702W        W67127  25.691  17.282  11.094
94703W        W67128  25.979  36.399  12.996
94704W        W67129  27.562  19.626   1.844
94705W        W67130  22.195   6.206  12.996
94706W        W67131  16.134  36.906   2.373
94707W        W67132  42.297  29.040  12.013
94708W        W67133   1.829  25.612   3.296
94709W        W67134  37.400  37.902   1.780
94710W        W67135   5.884   6.408   2.345
94711W        W67136  29.147  10.799   4.251
94712W        W67137  30.454  35.539  12.823
94713W        W67138  15.632  39.914  10.477
94714W        W67139  27.611  24.176  12.402
94715W        W67140  42.829   8.191   3.654
94716W        W67141  10.796  36.491   4.148
94717W        W67142  23.650  25.628  12.831
94718W        W67143  33.396   4.426   1.869
94719W        W67144   0.891   0.752  13.506
94720W        W67145  16.728  32.102   4.324
94721W        W67146  25.713  22.139  10.518
94722W        W67147  28.977  36.906  14.887
94723W        W67148   8.866   0.976  14.449
94724W        W67149  25.108  29.108   4.654
94725W        W67150  32.606  15.700   3.835
94726W        W67151  41.466  28.458  11.862
94727W        W67152  36.900  36.008  14.510
94728W        W67153  43.958   4.743  11.467
94729W        W67154  43.989  18.617  12.893
94730W        W67155   4.735  36.928  14.960
94731W        W67156  33.094  20.200  14.988
94732W        W67157  42.349  26.537   0.353
94733W        W67158   4.210  21.531  11.050
94734W        W67159  28.083  42.854   1.741
94735W        W67160  28.141  16.798   2.867
94736W        W67161   3.262  24.612  12.060
94737W        W67162  25.050  32.553  11.114
94738W        W67163  15.303   4.288   2.320
94739W        W67164  44.338  38.516   3.298
94740W        W67165   2.856  36.868   4.155
94741W        W67166  30.478  18.213   2.316
94742W        W67167   2.231  42.851   0.947
94743W        W67168  35.393  15.318  13.459
94744W        W67169  21.203  11.659  11.476
94745W        W67170  21.207  19.186   1.795
94746W        W67171  21.662   1.815   4.144
94747W        W67172  19.558  42.957   9.947
94748W        W67173   9.848  22.647  13.039
94749W        W67174  28.027  12.804   0.349
94750W        W67175   3.898  23.631   1.403
94751W        W67176  30.646  31.944  12.484
94752W        W67177   6.183  32.100  10.468
94753W        W67178  40.325  15.720  14.443
94754W        W67179   1.764   3.341   2.690
94755W        W67180   3.413  15.318  12.953
94756W        W67181  21.757  35.922   0.931
94757W        W67182  27.068  19.120   0.306
94758W        W67183  24.558  19.193  10.595
94759W        W67184  18.233  31.918   2.380
94760W        W67185  14.797  35.021  11.502
94761W        W67186  15.657  32.935   0.304
94762W        W67187  38.360  33.606  12.474
94763W        W67188  17.671  13.842   1.786
94764W        W67189  35.435  31.445  11.098
94765W        W67190  42.367   5.336   0.385
94766W        W67191  37.377  44.355   0.816
94767W        W67192  31.023  20.157   0.771
94768W        W67193  24.001   8.324   1.892
94769W        W67194  20.625  28.472   1.761
94770W        W67195   5.875  35.446   9.966
94771W        W67196  20.042  38.065  13.541
94772W        W67197  11.863  32.949   1.429
94773W        W67198   3.742  37.441  13.850
94774W        W67199   9.176  40.950  14.789
94775W        W67200  34.489   7.200  12.509
94776W        W67201  29.433  19.755  12.496
94777W        W67202  38.034  29.950  13.350
94778W        W67203  41.408  26.544  12.091
94779W        W67204  17.686   4.891   3.823
94780W        W67205  34.526   1.947  11.529
94781W        W67206  25.709  11.251  11.882
94782W        W67207  43.878   7.696  12.962
94783W        W67208  42.831  32.133   1.817
94784W        W67209  23.233  32.509  13.311
94785W        W67210   9.710  24.551  13.020
94786W        W67211  15.130   7.902   0.292
94787W        W67212  23.023  12.774  12.387
94788W        W67213  10.236   1.793   4.658
94789W        W67214  36.511  19.154   2.374
94790W        W67215  40.454  19.668   0.843
94791W        W67216  15.637  34.888  13.360
94792W        W67217  44.335  40.843  10.607
94793W        W67218  21.559   9.221   5.291
94794W        W67219   8.161   3.903   1.342
94795W        W67220  27.177  40.943  14.849
94796W        W67221   4.757   1.945   3.366
94797W        W67222  21.072   5.870  14.511
94798W        W67223  38.477  20.690   3.241
94799W        W67224  26.114   2.471   0.298
94800W        W67225  38.486  44.868   5.086
94801W        W67226   8.774  14.276  12.559
94802W        W67227   8.871  28.465  10.891
94803W        W67228  20.726  32.561   4.718
94804W        W67229  13.683  31.614  13.843
94805W        W67230   5.791  37.509  15.000
94806W        W67231  22.550  11.323   1.930
94807W        W67232  33.902  17.768   3.385
94808W        W67233  35.015  22.048   1.419
94809W        W67234  36.922  37.834   2.752
94810W        W67235  35.890  43.932   2.711
94811W        W67236   5.886   0.814   4.117
94812W        W67237  31.416  20.189   9.982
94813W        W67238  34.094   0.270  12.422
94814W        W67239  43.420   6.848  12.463
94815W        W67240  10.363  10.861   0.331
94816W        W67241  24.720  17.231  11.953
94817W        W67242   4.871  22.521   2.847
94818W        W67243   4.332  28.475  12.375
94819W        W67244  43.339  21.529  11.527
94820W        W67245  27.108  24.025  10.533
94821W        W67246  10.300   2.301   4.245
94822W        W67247  24.515   2.467  14.775
94823W        W67248   6.791  12.698   0.800
94824W        W67249   4.341  42.902   2.295
94825W        W67250  24.564  19.724   1.828
94826W        W67251  31.981  18.648   3.342
94827W        W67252  36.370  20.077   3.823
94828W        W67253   0.380   6.800   3.767
94829W        W67254   3.923  30.611  13.887
94830W        W67255  30.038  34.895  11.900
94831W        W67256  26.674  44.911  11.011
94832W        W67257  42.810  43.479  12.901
94833W        W67258  20.590  12.157  11.872
94834W        W67259  14.760  42.303  10.636
94835W        W67260  26.601  43.343  12.362
94836W        W67261  28.522  10.353   4.316
94837W        W67262   4.291  16.307  11.426
94838W        W67263  40.966  17.154  10.431
94839W        W67264   2.429  31.079  11.960
94840W        W67265  29.432  42.403  13.795
94841W        W67266   4.722  20.556  10.555
94842W        W67267  16.248  39.984   2.226
94843W        W67268  43.936  12.343  11.491
94844W        W67269  27.667   2.897  10.464
94845W        W67270  35.914  23.210   2.751
94846W        W67271  33.575   0.980   4.652
94847W        W67272  35.015  27.613  13.981
94848W        W67273  17.302  25.664  14.463
94849W        W67274  26.688  33.113   2.837
94850W        W67275  41.853  30.910   0.402
94851W        W67276  34.910  27.163   2.875
94852W        W67277  36.846   4.416   0.296
94853W        W67278  15.698  40.878   4.809
94854W        W67279  42.429  26.127   3.272
94855W        W67280  21.715  17.643  11.089
94856W        W67281  14.158  37.494   0.457
94857W        W67282  20.106  29.094  14.957
94858W        W67283  34.369   7.757   2.318
94859W        W67284  20.536  34.083   2.400
94860W        W67285  24.010  27.451  14.824
94861W        W67286  15.597  16.168   4.140
94862W        W67287  30.484   5.412   0.764
94863W        W67288   8.671  37.376   5.223
94864W        W67289   7.766  23.131   1.902
94865W        W67290  11.318   7.271  10.469
94866W        W67291  39.557   7.674  13.407
94867W        W67292  16.569  21.101   2.722
94868W        W67293  19.748  27.197   3.756
94869W        W67294  19.047  32.437   4.817
94870W        W67295   6.810  31.071   1.931
94871W        W67296  22.639  16.692  13.480
94872W        W67297  25.512  20.102   2.347
94873W        W67298  22.074  43.405   3.235
94874W        W67299  23.615  26.017   2.215
94875W        W67300  27.965  10.248  10.149
94876W        W67301  39.988  34.057   0.245
94877W        W67302  27.671  28.965  14.904
94878W        W67303   9.162  32.432  12.502
94879W        W67304  25.174  19.190   4.191
94880W        W67305  35.559   4.324   3.650
94881W        W67306  41.957  44.277   5.624
94882W        W67307  41.998   7.693   2.843
94883W        W67308  20.260  24.524  12.041
94884W        W67309   7.884  22.662   1.274
94885W        W67310  34.517  36.863  12.431
94886W        W67311  12.770  37.482   3.371
94887W        W67312   2.265  16.720  13.863
94888W        W67313   6.784  22.554  10.602
94889W        W67314  21.123  27.488   1.302
94890W        W67315  24.513  43.927   1.218
94891W        W67316  16.207  18.659   0.791
94892W        W67317   1.420  25.556  12.003
94893W        W67318   2.426  40.974   2.226
94894W        W67319  12.291   5.263  11.402
94895W        W67320  18.086  29.058  10.933
94896W        W67321  44.346   8.709  11.026
94897W        W67322  44.349   4.873  11.116
94898W        W67323  29.446  40.345   2.801
94899W        W67324  20.107   5.271  13.493
94900W        W67325   4.396  23.001   3.694
94901W        W67326  38.539  29.535   1.255
94902W        W67327  16.133   1.824   4.693
94903W        W67328  41.924  38.332  13.424
94904W        W67329  19.560   6.890  11.906
94905W        W67330  39.321  19.689   2.758
94906W        W67331  13.806  36.953  10.516
94907W        W67332   6.414  44.835  10.467
94908W        W67333  43.406  20.615  14.859
94909W        W67334  39.825  36.433  14.803
94910W        W67335  24.638  31.475   3.171
94911W        W67336  28.156  17.179   3.708
94912W        W67337  13.830  11.245   4.344
94913W        W67338  15.796   6.816   2.872
94914W        W67339  42.870  32.122  12.865
94915W        W67340  22.067  21.739   1.299
94916W        W67341  34.369  43.772   2.369
94917W        W67342  29.135  14.794  10.518
94918W        W67343  36.409  17.778  13.499
94919W        W67344  26.126   6.779  12.006
94920W        W67345  27.590  44.368   4.320
94921W        W67346  43.505  18.777   3.791
94922W        W67347   9.731  33.451   2.232
94923W        W67348  22.096  26.155   4.764
94924W        W67349  26.461  22.676   3.851
94925W        W67350  41.407   0.756  11.590
94926W        W67351  40.040   9.883   3.769
94927W        W67352  11.866   7.825   3.640
94928W        W67353  21.676  22.526  13.816
94929W        W67354  15.147  44.997   1.875
94930W        W67355  36.429   5.310   2.375
94931W        W67356  39.976   5.760   2.727
94932W        W67357  31.534  27.107   3.184
94933W        W67358  29.514  40.370   1.281
94934W        W67359  13.331   7.821   4.802
94935W        W67360  38.477   6.714   4.661
94936W        W67361  12.772  20.690  13.471
94937W        W67362  10.860  32.078   2.672
94938W        W67363   4.901  35.861   1.784
94939W        W67364  19.103  25.578  12.983
94940W        W67365  28.472  36.976  12.565
94941W        W67366  13.776   4.361  11.439
94942W        W67367   3.414   4.406   1.785
94943W        W67368  34.410   4.229   1.391
94944W        W67369  39.813  13.240  14.888
94945W        W67370   2.891   0.842  12.355
94946W        W67371   1.447  27.499   4.691
94947W        W67372  33.945  22.060  13.461
94948W        W67373  43.888   2.266   0.374
94949W        W67374  32.065  22.569   2.664
94950W        W67375  11.851  24.705  12.829
94951W        W67376   7.353  32.622  11.098
94952W        W67377  29.084  44.481  13.863
94953W        W67378  37.060  22.087  14.381
94954W        W67379  11.828  36.544  11.439
94955W        W67380  16.254  18.567  12.520
94956W        W67381  31.597  29.984  13.395
94957W        W67382  23.683  33.937   0.296
94958W        W67383  22.033  22.714  11.913
94959W        W67384   5.234  10.202   4.784
94960W        W67385  32.555  26.179  14.983
94961W        W67386  39.509  13.318   1.352
94962W        W67387  34.871  42.795  10.426
94963W        W67388   9.308  30.017   1.262
94964W        W67389   7.398  29.033   2.872
94965W        W67390   2.261   9.732  12.018
94966W        W67391   8.857   6.760  13.874
94967W        W67392  15.209   1.347  13.312
94968W        W67393  19.767  12.694  10.506
94969W        W67394  37.869   9.717   2.771
94970W        W67395  17.784  12.159  12.874
94971W        W67396  32.037  43.500   3.147
94972W        W67397  21.019   5.814  10.084
94973W        W67398  15.155  39.441   1.765
94974W        W67399   0.901  33.879   1.844
94975W        W67400  34.525  37.847  12.386
94976W        W67401  38.541  29.456   4.837
94977W        W67402  17.152  10.850   4.716
94978W        W67403  29.112   2.315   3.647
94979W        W67404  22.576  22.609  13.358
94980W        W67405   0.898   8.869  12.563
94981W        W67406  21.734  18.141   3.774
94982W        W67407   1.248   1.313   4.752
94983W        W67408  23.644  22.703   2.770
94984W        W67409  32.894  17.256   1.354
94985W        W67410   8.789  36.558   2.885
94986W        W67411   3.947   2.298  14.504
94987W        W67412  16.214  21.037  13.488
94988W        W67413  18.661   9.360   0.341
94989W        W67414  28.580  27.178  14.286
94990W        W67415   2.274  38.518   1.270
94991W        W67416  38.354  22.650  12.935
94992W        W67417  29.091  37.548   3.260
94993W        W67418  10.196  16.634  11.013
94994W        W67419  26.564  24.524   1.224
94995W        W67420  31.979  31.123   0.850
94996W        W67421  25.178  18.629   0.785
94997W        W67422  17.784  16.680   0.395
94998W        W67423  18.608  44.261   2.800
94999W        W67424  21.753  29.079  13.517
95000W        W67425  30.997  41.894  13.862
95001W        W67426  15.172  41.940  11.395
95002W        W67427   3.777   3.459  10.925
95003W        W67428  20.627  36.456  10.563
95004W        W67429  18.283  37.484   1.810
95005W        W67430  15.251  22.595  13.035
95006W        W67431   0.470  25.485  14.919
95007W        W67432  16.142   9.669   2.806
95008W        W67433   0.811  14.250   4.622
95009W        W67434   2.256  14.119   4.691
95010W        W67435  24.526   8.372  14.801
95011W        W67436  32.044   4.736  14.997
95012W        W67437  44.878   3.372   1.221
95013W        W67438  40.546  34.984  13.826
95014W        W67439  36.504  44.915  13.020
95015W        W67440   1.761  26.688  11.522
95016W        W67441  17.277  37.341  11.955
95017W        W67442  10.832  34.111  10.910
95018W        W67443  38.569  27.981   2.239
95019W        W67444  44.944  21.714   1.816
95020W        W67445   4.304  29.130  14.837
95021W        W67446  40.403  36.863   0.772
95022W        W67447   3.761  10.857   0.772
95023W        W67448   1.292  38.455   1.729
95024W        W67449  11.131  15.623  10.541
95025W        W67450  15.723  43.815   4.771
95026W        W67451  33.924  13.832   2.811
95027W        W67452  37.492  34.599   4.655
95028W        W67453  33.948  42.990  14.789
95029W        W67454  18.192  16.149   4.789
95030W        W67455   5.846  31.977   0.483
95031W        W67456  41.038   3.812   3.374
95032W        W67457  10.872  41.989  14.468
95033W        W67458  12.745  10.278   1.734
95034W        W67459  29.612  41.429   4.160
95035W        W67460  29.988  24.022  14.973
95036W        W67461  35.083  13.733  12.353
95037W        W67462   3.756  25.601   4.822
95038W        W67463  10.200  26.542   0.456
95039W        W67464  25.702  14.202   1.283
95040W        W67465  42.438  18.558   4.825
95041W        W67466  19.082  15.126  12.910
95042W        W67467   4.273  22.555   4.146
95043W        W67468   1.819  21.212   4.670
95044W        W67469  31.051  19.688   3.248
95045W        W67470   1.831   6.269   1.409
95046W        W67471  23.196   3.861   3.854
95047W        W67472  33.116  39.892  13.937
95048W        W67473  22.020  22.190   3.385
95049W        W67474  37.542  22.162   5.128
95050W        W67475  18.224  36.494  13.824
95051W        W67476  17.139  15.714   0.963
95052W        W67477  31.055  18.611  11.549
95053W        W67478   9.328  36.047  10.044
95054W        W67479   3.440  39.545   3.163
95055W        W67480  16.714  31.929  12.406
95056W        W67481  41.313  25.102   2.389
95057W        W67482  36.952   7.339   2.755
95058W        W67483  37.902  23.996  10.455
95059W        W67484  29.584   7.714  12.438
95060W        W67485  25.161  20.057   3.657
95061W        W67486  37.905  18.681  14.020
95062W        W67487   0.373  34.588   0.899
95063W        W67488  13.193  39.514   2.805
95064W        W67489  40.524  31.626  11.089
95065W        W67490  21.140  26.561   1.857
95066W        W67491   3.434  12.837   1.812
95067W        W67492   2.462  21.682  13.807
95068W        W67493  41.802  44.304  11.582
95069W        W67494  35.054  24.614   0.819
95070W        W67495  29.957  10.856   0.467
95071W        W67496  27.652  42.027  10.913
95072W        W67497   8.885  40.853  11.112
95073W        W67498   9.199  16.711  11.926
95074W        W67499  35.543  39.015  11.493
95075W        W67500   1.482  27.677  14.016
95076W        W67501  32.062  20.534  14.950
95077W        W67502   7.347  17.250  12.037
95078W        W67503  33.074  19.654   2.407
95079W        W67504   1.811  34.369   4.635
95080W        W67505  20.745  21.556  12.511
95081W        W67506  21.199  33.130  12.068
95082W        W67507   9.265  37.925   3.320
95083W        W67508   7.769  25.601  14.906
95084W        W67509   7.289   8.679   2.735
95085W        W67510  27.520  29.551  13.995
95086W        W67511   3.334  28.580  13.871
95087W        W67512  38.924  27.537   2.683
95088W        W67513  10.139  31.521  14.880
95089W        W67514  10.267  15.084  12.427
95090W        W67515  31.590  10.230   1.732
95091W        W67516  13.736  43.358   2.243
95092W        W67517  44.763   0.376  12.054
95093W        W67518  39.385  28.064  14.480
95094W        W67519   6.390  15.779  13.524
95095W        W67520   5.397   2.347   0.393
95096W        W67521  34.566  28.669   1.262
95097W        W67522  15.805  39.354  13.821
95098W        W67523  23.642  11.628   2.728
95099W        W67524  41.019  39.993   0.398
95100W        W67525   7.184   0.418  10.997
95101W        W67526  19.671  26.578   2.680
95102W        W67527  34.086  25.170   4.714
95103W        W67528  38.357  29.584  13.359
95104W        W67529   8.203  33.982   2.191
95105W        W67530  25.178   0.479  10.484
95106W        W67531  13.113  36.387   2.731
95107W        W67532  29.612  30.654  14.827
95108W        W67533  44.301  36.481  10.967
95109W        W67534  23.119   0.776   0.899
95110W        W67535  43.466  29.108  11.952
95111W        W67536   7.173  42.926   4.298
95112W        W67537  18.076  21.651  12.559
95113W        W67538  44.899  15.801   4.120
95114W        W67539   7.411  35.929  10.908
95115W        W67540  44.441  21.528   1.808
95116W        W67541  30.120  10.383   2.695
95117W        W67542   6.913   1.815   4.600
95118W        W67543  29.613   4.267  12.879
95119W        W67544   9.232  24.599   3.681
95120W        W67545  31.978  24.692  13.473
95121W        W67546   9.395  23.604   2.382
95122W        W67547  36.950  44.889  14.474
95123W        W67548  31.418   6.220  11.043
95124W        W67549  14.149  25.164  10.516
95125W        W67550   9.190  14.222   3.208
95126W        W67551  44.319  21.193   1.358
95127W        W67552  44.979  44.974  13.508
95128W        W67553   2.816  16.778   0.371
95129W        W67554  34.568  18.169   1.759
95130W        W67555  26.572  18.291   4.691
95131W        W67556  33.935  22.236   1.710
95132W        W67557  16.185  39.409   3.678
95133W        W67558  27.625  18.702   3.653
95134W        W67559  24.112  29.969  14.315
95135W        W67560  15.225  14.313   0.437
95136W        W67561  14.333  18.729   0.440
95137W        W67562  11.365  16.117   1.358
95138W        W67563  38.447  37.470  13.322
95139W        W67564   2.338  13.126  10.963
95140W        W67565   2.798   4.706  13.915
95141W        W67566  33.127  19.703  11.499
95142W        W67567   1.475   9.379   1.269
95143W        W67568  40.832  15.590  12.001
95144W        W67569  26.009  32.631   1.394
95145W        W67570  40.007  27.085   2.784
95146W        W67571  41.473   4.406  11.374
95147W        W67572  34.939  19.177  13.035
95148W        W67573  13.286   5.204   0.417
95149W        W67574  35.011  32.094  13.467
95150W        W67575   8.214  14.706  13.862
95151W        W67576  38.988   9.287  14.389
95152W        W67577  16.691  13.710   1.912
95153W        W67578   3.733  41.429   5.257
95154W        W67579   6.220  43.331   2.857
95155W        W67580  27.997  17.199  10.412
95156W        W67581  23.123  18.068  14.891
95157W        W67582  17.600   9.707   0.418
95158W        W67583  16.608  21.749   0.952
95159W        W67584  25.545  24.532  12.928
95160W        W67585  16.770  11.301   0.391
95161W        W67586  32.097  29.993  11.898
95162W        W67587  21.158  31.069   1.758
95163W        W67588  41.027  22.627  14.834
95164W        W67589  43.849  41.946  13.054
95165W        W67590  32.137  10.700   4.207
95166W        W67591   9.660   2.237   4.671
95167W        W67592  40.967   3.391  14.977
95168W        W67593  24.116  37.434   3.697
95169W        W67594  32.958  35.535   1.728
95170W        W67595  16.181  39.474   1.246
95171W        W67596  15.152  15.804   4.748
95172W        W67597  32.903  15.312  13.334
95173W        W67598  39.381  14.257  14.802
95174W        W67599  10.243   9.205   3.755
95175W        W67600  18.188  44.971  11.911
95176W        W67601   0.817  27.025  14.768
95177W        W67602  33.574   6.201  13.845
95178W        W67603  26.051   1.772  12.857
95179W        W67604  11.650  17.295  13.053
95180W        W67605   7.358  31.058  11.940
95181W        W67606  21.690  24.140  10.929
95182W        W67607  21.251  32.088   0.793
95183W        W67608  15.715   7.728  13.005
95184W        W67609   8.862  13.696  14.439
95185W        W67610  24.205  37.892   0.888
95186W        W67611  27.116  36.945  11.399
95187W        W67612  12.325  11.129   0.766
95188W        W67613  10.853  38.399  14.835
95189W        W67614  36.463  12.287   2.744
95190W        W67615  35.005  14.152   3.861
95191W        W67616  27.542  33.607   9.580
95192W        W67617  16.757  17.556   3.294
95193W        W67618  15.676  23.184   2.880
95194W        W67619  22.240  27.665   2.890
95195W        W67620   2.236  27.016  12.932
95196W        W67621  29.926  41.796  11.008
95197W        W67622  42.473  13.800  13.447
95198W        W67623  25.478   0.435   2.375
95199W        W67624  17.286  20.713   4.311
95200W        W67625  26.186  31.523  11.511
95201W        W67626  41.814  16.770   2.407
95202W        W67627  12.680  13.664  14.289
95203W        W67628  23.501  30.636   3.795
95204W        W67629  20.630   8.376   2.673
95205W        W67630  15.733  10.822  14.312
95206W        W67631  13.139  26.542   3.748
95207W        W67632  39.401  32.556  11.974
95208W        W67633   3.850  26.562  13.468
95209W        W67634  15.658  32.517  11.904
95210W        W67635  10.190   1.298  11.597
95211W        W67636   9.851   1.366  12.451
95212W        W67637  14.104  20.268  14.884
95213W        W67638  44.450  27.112   1.699
95214W        W67639  22.067  44.277  11.915
95215W        W67640  20.595  44.833   0.784
95216W        W67641  16.269  18.111   4.293
95217W        W67642   3.873  24.147  12.067
95218W        W67643  36.928  17.201   3.350
95219W        W67644  36.942   9.659   1.360
95220W        W67645  23.236   3.779  10.894
95221W        W67646  41.406  32.935  10.636
95222W        W67647  28.544   9.258   4.766
95223W        W67648  19.670  12.359   1.445
95224W        W67649   5.369  27.525   0.908
95225W        W67650  39.464  14.139   4.340
95226W        W67651  24.645  25.643   4.760
95227W        W67652  13.672  21.754   1.784
95228W        W67653  41.448  38.535  11.891
95229W        W67654  28.463  23.700  14.827
95230W        W67655  34.375   0.925   3.191
95231W        W67656  35.925  24.183  10.046
95232W        W67657   0.918  21.605  14.326
95233W        W67658  16.659   3.419  11.491
95234W        W67659   1.951  32.106   2.870
95235W        W67660  38.004   7.853   3.158
95236W        W67661   5.899  30.913  14.336
95237W        W67662  43.859   5.862  11.046
95238W        W67663  30.043   7.237   0.320
95239W        W67664  32.549   0.769   9.990
95240W        W67665  17.642  32.020   5.246
95241W        W67666  31.005   2.378  11.952
95242W        W67667   1.431  29.939  11.536
95243W        W67668  27.025  14.613   4.151
95244W        W67669   9.663  32.578  12.023
95245W        W67670  13.159   5.324  12.427
95246W        W67671  16.302  18.072  14.327
95247W        W67672  11.317   7.221  11.401
95248W        W67673  32.956  38.492   2.304
95249W        W67674  24.218  25.009  10.451
95250W        W67675   3.931  33.444  12.575
95251W        W67676  14.688   7.695   1.226
95252W        W67677  26.592  22.020   3.758
95253W        W67678  36.373  17.294  11.121
95254W        W67679   1.380  11.698   2.243
95255W        W67680  28.490  44.398  14.014
95256W        W67681  15.635  32.059   1.427
95257W        W67682  42.506  40.529   4.784
95258W        W67683  43.792  15.580  13.944
95259W        W67684  31.142  18.785  12.848
95260W        W67685  19.181  24.149   0.935
95261W        W67686  21.525  17.168   2.806
95262W        W67687  31.099  15.294   4.164
95263W        W67688   7.796  25.992  12.887
95264W        W67689  32.416  32.968   1.701
95265W        W67690   9.333   1.875  11.086
95266W        W67691  36.079  20.234  10.940
95267W        W67692  17.589   5.224   3.175
95268W        W67693  42.373   0.767  14.329
95269W        W67694  12.126  22.248   2.355
95270W        W67695  12.611  18.221  12.447
95271W        W67696   3.237   2.954   1.708
95272W        W67697  33.535  10.268  13.538
95273W        W67698  21.526  24.136  13.855
95274W        W67699  30.521  28.495  13.919
95275W        W67700  16.282  42.995  13.884
95276W        W67701  34.500  15.127   4.775
95277W        W67702  38.949  43.974  13.053
95278W        W67703  17.132  33.546   4.223
95279W        W67704   6.423  24.509  11.108
95280W        W67705   4.350  12.662  13.041
95281W        W67706  13.717  35.551  13.989
95282W        W67707   9.839   8.795  11.890
95283W        W67708  16.163   5.906   0.904
95284W        W67709   3.766  24.586   4.610
95285W        W67710  10.717   9.659   2.349
95286W        W67711  16.685  44.840   4.752
95287W        W67712  44.872  35.402  12.501
95288W        W67713  32.092  37.856  12.939
95289W        W67714   6.311  29.125   2.734
95290W        W67715  42.411  33.023   1.929
95291W        W67716  27.583  44.841   2.838
95292W        W67717  14.813  42.999   5.180
95293W        W67718  16.080   2.305   9.648
95294W        W67719  24.063  15.603   0.343
95295W        W67720  39.019  44.834  10.136
95296W        W67721  23.231  16.167  13.441
95297W        W67722  18.254  28.089   1.750
95298W        W67723  10.870  11.757  12.855
95299W        W67724  22.709  24.636  14.329
95300W        W67725   1.864   0.943   1.293
95301W        W67726  23.147   7.201   1.932
95302W        W67727  13.198  14.203  14.298
95303W        W67728   7.286  40.002   4.791
95304W        W67729   0.811   1.380   2.224
95305W        W67730   6.275  32.486  10.923
95306W        W67731   2.290  44.817  10.442
95307W        W67732  10.382  28.618  11.997
95308W        W67733  34.870   2.272   4.637
95309W        W67734  22.617  37.349  13.056
95310W        W67735   2.425   5.381  10.593
95311W        W67736   2.827  11.281  11.496
95312W        W67737  17.590  44.763   1.299
95313W        W67738   5.234   6.799   1.786
95314W        W67739  18.791  13.717   0.958
95315W        W67740   3.253   4.284   0.255
95316W        W67741  38.988  11.723  13.417
95317W        W67742  30.021  19.584   1.260
95318W        W67743  44.861  36.443  13.372
95319W        W67744  35.529  28.672  13.868
95320W        W67745   1.846  42.301  12.397
95321W        W67746  15.180  25.601   0.421
95322W        W67747  39.507  25.521   2.844
95323W        W67748  44.913  11.708   0.750
95324W        W67749  30.962  37.973  10.926
95325W        W67750  10.733  32.045  13.839
95326W        W67751  11.820  27.043  14.895
95327W        W67752  35.564  16.247   3.848
95328W        W67753  37.578  11.850  13.803
95329W        W67754  17.796   6.400  13.483
95330W        W67755  26.207  36.577  10.902
95331W        W67756  37.444   1.454   2.393
95332W        W67757  11.778   2.907   3.704
95333W        W67758  37.864  38.900  13.869
95334W        W67759  15.581   7.891  13.417
95335W        W67760   6.871  37.527   0.733
95336W        W67761  23.660   2.889  12.546
95337W        W67762  20.039   2.780  14.435
95338W        W67763  36.028  18.712   4.598
95339W        W67764   8.721  39.413   4.274
95340W        W67765  32.016   3.300   1.344
95341W        W67766  34.571  27.664   4.215
95342W        W67767  18.083   7.290   2.396
95343W        W67768  43.310   2.786   4.143
95344W        W67769  41.876  17.262   3.849
95345W        W67770  22.740   7.380   2.418
95346W        W67771  15.779   1.817  14.024
95347W        W67772   9.851  23.662  14.367
95348W        W67773  24.499  12.179   3.746
95349W        W67774  26.584  16.256  13.347
95350W        W67775   3.307  30.042   2.396
95351W        W67776  11.365  14.785  12.838
95352W        W67777  14.271  44.994  11.063
95353W        W67778  26.548   6.256  13.365
95354W        W67779   1.971   6.324  13.055
95355W        W67780  31.475  11.168   0.380
95356W        W67781  42.345  20.525   2.248
95357W        W67782  39.473  12.791  14.794
95358W        W67783  42.370  22.010  14.953
95359W        W67784  25.679  15.208   2.679
95360W        W67785  21.594  35.097   0.391
95361W        W67786  32.041  21.202  14.767
95362W        W67787   6.417  25.131  11.567
95363W        W67788  20.197  14.637  10.527
95364W        W67789  37.075  21.674  11.019
95365W        W67790  37.983  38.996   4.273
95366W        W67791  31.960  24.616   4.347
95367W        W67792  23.191  17.674  14.434
95368W        W67793  28.147  34.611   0.338
95369W        W67794   2.428  21.592   0.833
95370W        W67795   5.329   4.802   1.915
95371W        W67796   5.262  35.001  14.353
95372W        W67797   4.361  44.317   2.800
95373W        W67798  28.125  25.157  14.291
95374W        W67799  34.450  19.746  13.889
95375W        W67800   5.243  34.110   1.751
95376W        W67801  34.106  26.138  10.404
95377W        W67802  33.599  40.429   4.828
95378W        W67803   9.238  30.971  12.939
95379W        W67804  38.861  23.089   0.399
95380W        W67805   5.690   8.668   0.780
95381W        W67806  39.879  39.530  13.861
95382W        W67807  25.192  34.583  10.421
95383W        W67808  31.575  27.003   1.400
95384W        W67809  14.614   8.190   2.663
95385W        W67810  31.405  39.521  14.503
95386W        W67811   9.149   3.295  11.028
95387W        W67812  32.994  17.303   3.164
95388W        W67813  18.558  30.013  10.533
95389W        W67814  43.305  40.393   1.899
95390W        W67815  21.211  11.338   0.850
95391W        W67816   5.900  29.982  13.978
95392W        W67817   3.899   7.369   2.184
95393W        W67818  24.596  30.138  11.127
95394W        W67819   9.329  29.569  10.476
95395W        W67820  17.623  21.203   1.419
95396W        W67821  38.882  18.120   4.695
95397W        W67822  43.776   3.454   3.331
95398W        W67823  41.330  21.186  14.302
95399W        W67824  30.996  31.056   0.469
95400W        W67825  34.448  24.616   1.789
95401W        W67826  40.311  32.117   0.255
95402W        W67827   6.705   8.800  11.503
95403W        W67828  38.488   1.376   4.717
95404W        W67829  30.970  26.630  11.967
95405W        W67830  36.966   8.656  10.461
95406W        W67831  36.417  13.275   0.935
95407W        W67832  44.902  39.922  14.777
95408W        W67833  12.210  31.026   1.398
95409W        W67834  13.232  18.113  14.452
95410W        W67835  39.915  13.108   3.760
95411W        W67836  40.400  19.190   0.839
95412W        W67837  24.526   6.338  14.957
95413W        W67838  10.854  10.785  14.310
95414W        W67839  43.764  35.852  13.329
95415W        W67840  36.569  38.912   3.826
95416W        W67841  19.216  33.002   2.189
95417W        W67842  18.787  16.076  14.369
95418W        W67843   0.919  17.223   2.763
95419W        W67844   7.352  21.229  11.493
95420W        W67845   1.885  27.484   2.805
95421W        W67846  10.668   3.235  13.994
95422W        W67847   6.275  12.135  14.837
95423W        W67848  21.249  22.089   0.360
95424W        W67849  41.452  25.015  13.939
95425W        W67850  33.455  44.408   3.675
95426W        W67851  40.390  38.006  10.629
95427W        W67852  39.323  17.264   3.673
95428W        W67853  35.525  16.614   0.309
95429W        W67854  15.143  27.473   3.864
95430W        W67855   9.848  17.215  10.627
95431W        W67856  14.133  41.321   3.253
95432W        W67857  14.198  44.267  14.893
95433W        W67858  29.668  16.225   3.824
95434W        W67859   4.837  33.617  13.921
95435W        W67860  18.113  34.919   0.473
95436W        W67861   6.781  33.044  10.513
95437W        W67862  15.162   6.339  11.024
95438W        W67863  39.441  33.411   3.653
95439W        W67864  31.573  32.625   0.753
95440W        W67865   4.261   4.434   3.642
95441W        W67866  44.795  26.178  14.431
95442W        W67867  19.249  44.988  10.412
95443W        W67868  24.045  26.062   3.720
95444W        W67869  24.976  41.787  10.560
95445W        W67870  36.384  29.597   2.730
95446W        W67871  10.725  31.486   0.757
95447W        W67872  30.623   5.352   2.317
95448W        W67873  25.637  15.274  11.940
95449W        W67874  25.588  12.653  12.039
95450W        W67875  24.497   5.385  11.106
95451W        W67876  17.788   6.390   4.701
95452W        W67877  27.464   1.318   2.754
95453W        W67878  18.226  19.174   3.864
95454W        W67879  32.565  30.639  14.955
95455W        W67880  31.497  13.620   0.751
95456W        W67881  31.129  31.970  13.883
95457W        W67882  39.000  17.155   2.713
95458W        W67883  39.956   8.247  13.883
95459W        W67884  18.285  18.153   4.236
95460W        W67885   3.460  21.542  14.322
95461W        W67886  40.406  35.533   2.262
95462W        W67887  43.850  44.452  14.828
95463W        W67888   9.357  11.781   4.774
95464W        W67889   7.697   0.402   1.791
95465W        W67890  21.048  40.332  14.372
95466W        W67891  21.141   3.853   0.768
95467W        W67892  23.585  14.340   3.867
95468W        W67893  43.288  35.086  11.592
95469W        W67894  14.097  35.515  10.433
95470W        W67895  16.128  25.087   0.858
95471W        W67896  33.057  39.359   4.600
95472W        W67897  41.902  13.669   4.783
95473W        W67898  32.472   3.718  12.048
95474W        W67899  22.564  32.619   1.382
95475W        W67900  35.420  32.590  10.932
95476W        W67901  28.531  32.604   5.124
95477W        W67902  38.492  23.184  11.049
95478W        W67903   3.865  40.936   4.277
95479W        W67904  36.977  20.088  12.511
95480W        W67905  30.011  34.881  11.603
95481W        W67906  38.822  24.484   2.829
95482W        W67907  27.017   2.439   4.804
95483W        W67908  13.680   6.187  13.319
95484W        W67909  39.058  43.424   1.832
95485W        W67910  31.641  23.632   1.351
95486W        W67911  23.149  44.992   4.157
95487W        W67912   9.718  24.690  10.993
95488W        W67913  12.277  14.319   1.857
95489W        W67914  20.186  20.573  12.991
95490W        W67915  40.941  16.170   1.741
95491W        W67916  35.566  36.938  12.940
95492W        W67917  35.479  18.667   3.346
95493W        W67918  43.471   3.412   2.248
95494W        W67919  25.189   9.367  14.444
95495W        W67920  11.169   3.902  12.522
95496W        W67921  31.446  31.446   4.234
95497W        W67922   5.418  39.439   3.661
95498W        W67923   4.446  42.288  14.438
95499W        W67924  42.286   3.360   4.229
95500W        W67925  38.862  36.034   5.153
95501W        W67926  38.546  15.286  14.912
95502W        W67927  18.122  20.126  11.501
95503W        W67928  20.100  23.705   4.678
95504W        W67929  31.961  10.760  11.106
95505W        W67930  34.583  43.355  14.879
95506W        W67931   9.874  13.166  12.963
95507W        W67932  13.673  33.050  12.573
95508W        W67933  36.488  29.629  13.475
95509W        W67934  41.332   7.305  14.963
95510W        W67935  28.608  34.528   2.861
95511W        W67936  43.946  34.051   0.778
95512W        W67937   4.700  16.262   3.317
95513W        W67938   4.341  21.629   0.360
95514W        W67939   8.887  44.856  14.363
95515W        W67940  18.158  25.563  12.438
95516W        W67941  22.058  35.509  11.418
95517W        W67942  23.521  19.041  11.118
95518W        W67943   9.191   0.365  12.393
95519W        W67944  20.755   6.391   2.823
95520W        W67945  29.425   4.740   1.335
95521W        W67946  34.608  33.475  13.458
95522W        W67947   7.236  22.170   0.427
95523W        W67948  24.050  35.978  12.522
95524W        W67949  36.031  15.585   2.789
95525W        W67950  34.024   6.185   4.764
95526W        W67951  30.058   7.801   1.395
95527W        W67952  29.445  43.867   1.868
95528W        W67953  27.543  33.616  13.465
95529W        W67954   3.818  40.842  11.440
95530W        W67955  23.208   3.322   4.618
95531W        W67956  21.153   3.235   2.188
95532W        W67957  18.637  42.976  14.373
95533W        W67958   2.440  20.144  10.973
95534W        W67959  15.269  14.682   1.326
95535W        W67960  41.000   9.818   0.321
95536W        W67961   0.855  18.738  11.003
95537W        W67962  10.293  13.708  13.815
95538W        W67963  35.998  43.808  11.012
95539W        W67964  40.836  23.213   2.694
95540W        W67965  12.780  19.768   0.802
95541W        W67966  37.081   4.704   2.784
95542W        W67967  24.678  29.092  13.321
95543W        W67968  32.962   9.777  14.438
95544W        W67969  13.271  32.926  14.472
95545W        W67970  41.971  27.993  14.928
95546W        W67971  23.022  42.910  14.301
95547W        W67972  10.199  33.090  11.612
95548W        W67973  24.569  21.648  11.863
95549W        W67974  37.485  30.932   0.836
95550W        W67975  27.678  22.163  13.437
95551W        W67976  34.416   2.435   2.860
95552W        W67977  40.327   4.757  11.115
95553W        W67978  17.120  44.754  12.977
95554W        W67979  35.053  22.557   3.272
95555W        W67980  37.869  32.553   2.293
95556W        W67981  23.628  36.440  10.423
95557W        W67982   8.319  10.740  11.980
95558W        W67983  28.939   6.692   2.663
95559W        W67984  28.520   3.328  13.005
95560W        W67985   0.964  37.880   2.805
95561W        W67986   1.841   9.844  11.003
95562W        W67987  27.128  12.679   3.277
95563W        W67988  36.550   3.910   0.452
95564W        W67989   2.849  20.158  13.020
95565W        W67990  27.002  18.162   3.308
95566W        W67991   9.802  35.575  11.525
95567W        W67992  33.482  38.995  14.763
95568W        W67993   8.213  43.434  14.992
95569W        W67994  10.345  17.775   4.684
95570W        W67995   0.448  16.230  13.398
95571W        W67996  39.038   6.347   5.160
95572W        W67997  16.785  32.982   4.809
95573W        W67998  38.016   8.304   1.231
95574W        W67999  14.740  18.055   1.809
95575W        W68000  36.935  22.713  14.320
95576W        W68001  30.531  14.593  12.866
95577W        W68002   3.252  26.674  14.903
95578W        W68003  20.096  17.655  11.961
95579W        W68004  13.701  23.197   2.317
95580W        W68005  17.189  24.978   2.277
95581W        W68006  28.008   3.418  13.365
95582W        W68007  39.523   7.367  13.862
95583W        W68008  44.274  24.536  11.489
95584W        W68009  44.451   0.465  10.451
95585W        W68010  14.145  38.935  14.874
95586W        W68011  16.712  14.765   3.682
95587W        W68012  38.860  10.783  12.937
95588W        W68013   6.770  30.968  12.439
95589W        W68014  28.019  12.690  11.513
95590W        W68015  28.645  29.578   3.322
95591W        W68016   0.928  18.219  10.489
95592W        W68017  10.703  14.143   2.738
95593W        W68018  15.234  29.515   2.669
95594W        W68019  18.210  28.094   3.653
95595W        W68020  34.003  43.906  11.032
95596W        W68021  18.569  32.628  10.102
95597W        W68022  43.497  22.518  10.461
95598W        W68023  29.552  11.256  13.934
95599W        W68024  33.415  35.422  13.507
95600W        W68025  15.821  10.800  10.552
95601W        W68026  25.001   0.960   0.413
95602W        W68027  31.945  15.260  11.413
95603W        W68028  24.997  25.981   4.185
95604W        W68029  24.998  21.090   1.296
95605W        W68030  30.418  29.984   4.600
95606W        W68031  19.727  37.502   3.728
95607W        W68032  31.574  39.353  13.009
95608W        W68033  44.279  18.719   0.964
95609W        W68034  44.841  18.718  11.569
95610W        W68035  30.609  24.040  11.390
95611W        W68036   3.824   9.810   1.915
95612W        W68037  14.668  33.112   1.439
95613W        W68038  44.848  25.003  13.870
95614W        W68039  44.937  30.505   2.782
95615W        W68040  35.051  19.101   0.924
95616W        W68041   0.778  15.769  13.489
95617W        W68042  20.711  17.783  12.539
95618W        W68043  20.099  24.127   4.284
95619W        W68044  21.111  23.587  11.027
95620W        W68045  39.921  33.936  14.994
95621W        W68046  22.203  26.650   4.726
95622W        W68047  36.016  25.155   0.886
95623W        W68048  18.271  26.498   4.258
95624W        W68049  16.640  36.845  13.353
95625W        W68050  24.994  38.570  10.621
95626W        W68051  11.285  42.329  10.621
95627W        W68052  26.471  21.038   3.776
95628W        W68053  16.631  32.499  12.879
95629W        W68054  40.438  16.597   4.597
95630W        W68055  24.600  14.677  12.573
95631W        W68056  23.063  34.566   0.929
95632W        W68057  26.185  15.097   2.801
95633W        W68058  39.059  17.658   4.786
95634W        W68059  42.899  33.984   1.286
95635W        W68060  44.503  27.949  11.377
95636W        W68061  41.825  28.643  11.871
95637W        W68062  26.186  44.759  14.470
95638W        W68063   2.274  28.486   2.812
95639W        W68064  17.114  11.653  13.944
95640W        W68065   7.257  23.654   2.307
95641W        W68066  18.642  38.455  13.845
95642W        W68067  36.860  30.151  14.897
95643W        W68068   4.899   4.336  10.405
95644W        W68069  22.713  27.070  14.284
95645W        W68070  27.573   6.722   4.172
95646W        W68071  41.810  14.109   4.700
95647W        W68072   2.928  41.456  10.525
95648W        W68073  21.152  36.947  13.037
95649W        W68074  12.636  36.517  13.893
95650W        W68075  14.806   8.897  11.902
95651W        W68076   1.476  23.545  13.475
95652W        W68077   8.752   6.292   3.303
95653W        W68078   5.292  17.067   4.200
95654W        W68079   6.808  16.791  14.957
95655W        W68080  44.802  43.802  12.484
95656W        W68081   9.316  18.732   3.689
95657W        W68082   3.331  31.453  13.942
95658W        W68083  18.716  35.953   3.652
95659W        W68084  29.511  36.898   0.404
95660W        W68085  13.625  37.432  13.367
95661W        W68086  11.781  34.061   1.862
95662W        W68087   6.307  35.595   9.556
95663W        W68088  21.258   5.711  13.319
95664W        W68089   4.259   6.826  11.057
95665W        W68090  10.210  31.569   1.303
95666W        W68091  39.375  18.233  14.467
95667W        W68092  38.042  41.011  12.512
95668W        W68093  25.572  44.812   2.281
95669W        W68094  44.933   7.758   3.678
95670W        W68095   3.318   1.454  13.322
95671W        W68096  28.991   3.775  11.091
95672W        W68097   0.854  38.477   3.683
95673W        W68098  16.104  40.049  13.361
95674W        W68099  25.574   4.312  12.551
95675W        W68100  10.165  25.638   4.312
95676W        W68101  19.710  28.666  12.578
95677W        W68102  24.007  13.173   5.245
95678W        W68103   0.383  20.138  10.964
95679W        W68104  17.287  35.403  12.348
95680W        W68105  37.351   5.760   0.358
95681W        W68106  33.952  31.543   3.867
95682W        W68107  44.301  23.154   3.279
95683W        W68108  24.622  39.413   1.253
95684W        W68109  32.974  30.053  13.058
95685W        W68110   6.269  21.226  11.587
95686W        W68111   0.954  35.383  11.102
95687W        W68112   9.844   9.863   3.795
95688W        W68113  14.317  25.470   2.338
95689W        W68114  35.067   8.725  11.453
95690W        W68115  16.075  38.062  13.419
95691W        W68116   2.460  29.126  12.022
95692W        W68117  43.879  14.629  10.497
95693W        W68118   6.908  36.536  10.982
95694W        W68119   5.370  18.565   3.635
95695W        W68120   6.285  10.782   0.361
95696W        W68121  25.062  33.543  14.480
95697W        W68122  20.729  38.472   3.825
95698W        W68123  37.482  33.396   3.266
95699W        W68124   2.785   8.727   0.445
95700W        W68125  35.854  24.120  14.379
95701W        W68126  37.979  42.009   1.787
95702W        W68127  29.657  31.418  11.412
95703W        W68128  16.232  17.100  14.960
95704W        W68129  13.254  34.085  12.406
95705W        W68130  13.645  39.343   1.712
95706W        W68131  17.143   0.816  14.840
95707W        W68132  14.657  40.367  12.578
95708W        W68133  12.322  27.111   1.931
95709W        W68134  26.975  33.453   0.875
95710W        W68135  35.027   1.836  12.484
95711W        W68136  28.607   6.680  13.867
95712W        W68137   2.437  29.620   4.150
95713W        W68138  18.651  33.616   5.083
95714W        W68139  28.612  22.585  13.977
95715W        W68140  18.569  31.095  10.458
95716W        W68141  13.179  37.043   0.388
95717W        W68142  24.499   1.439  13.393
95718W        W68143  11.335   9.833  14.776
95719W        W68144  35.868  18.778   3.301
95720W        W68145  42.981  18.184  12.880
95721W        W68146  19.225  24.215   3.809
95722W        W68147  11.252  17.246  14.335
95723W        W68148  20.540  29.150  11.072
95724W        W68149  18.265  35.421   2.412
95725W        W68150  42.797  14.636  11.518
95726W        W68151  43.421  13.668   1.396
95727W        W68152   4.884  20.627  13.911
95728W        W68153  41.016  25.115   1.432
95729W        W68154  16.735   9.856   2.680
95730W        W68155   2.366  26.125   0.941
95731W        W68156  36.967  21.547  14.407
95732W        W68157  21.117   6.890  13.496
95733W        W68158  36.915  14.178   1.450
95734W        W68159  41.950  18.554   4.825
95735W        W68160   4.415  40.464  13.812
95736W        W68161  38.362  30.420  10.631
95737W        W68162  18.269  41.038   0.744
95738W        W68163  29.939  15.584  11.858
95739W        W68164   9.856  11.366  12.965
95740W        W68165  15.619  14.161   4.260
95741W        W68166  13.682  29.960   4.607
95742W        W68167   7.379  24.003  12.355
95743W        W68168  34.984  40.325   2.215
95744W        W68169  32.545  42.812  11.418
95745W        W68170  25.567   6.720   1.935
95746W        W68171  39.054  22.520  14.475
95747W        W68172  11.778  34.078   3.791
95748W        W68173  36.514  41.479  12.387
95749W        W68174   0.386   9.655   0.287
95750W        W68175  23.230  10.295   1.757
95751W        W68176  32.097  40.521   1.882
95752W        W68177  30.612  42.424  14.490
95753W        W68178  15.779   8.656  14.315
95754W        W68179  37.571  23.142  12.402
95755W        W68180  16.646   1.841  12.052
95756W        W68181  39.061  21.556   2.900
95757W        W68182  20.266  44.863   0.373
95758W        W68183  32.947  25.992   1.768
95759W        W68184  38.362   7.300  11.611
95760W        W68185  15.103  24.184  14.978
95761W        W68186  16.297  12.783   4.818
95762W        W68187  14.736   0.288   1.359
95763W        W68188  35.375   1.447  12.884
95764W        W68189   6.255  44.329   4.785
95765W        W68190   7.747  14.095  14.804
95766W        W68191   4.940  34.990   1.760
95767W        W68192   8.317  18.234  12.869
95768W        W68193  31.952  28.950  10.421
95769W        W68194  19.780  31.939   3.211
95770W        W68195  37.349  43.503  11.035
95771W        W68196  14.181  33.427   0.768
95772W        W68197  40.054   5.365   4.598
95773W        W68198  44.789   5.707   4.671
95774W        W68199  43.381  39.882   2.899
95775W        W68200   7.683  15.325  12.530
95776W        W68201  40.526  34.579   1.278
95777W        W68202   2.318  25.158   4.655
95778W        W68203   5.929   4.421   0.383
95779W        W68204  24.198  34.453   3.211
95780W        W68205  10.285   4.395   0.268
95781W        W68206  29.496  17.166   3.781
95782W        W68207  27.073  15.739  11.020
95783W        W68208  28.947  39.494   0.908
95784W        W68209  13.822  25.626   2.667
95785W        W68210  34.930  32.011  11.433
95786W        W68211  41.451  20.693  10.441
95787W        W68212  28.651   2.301  12.875
95788W        W68213  36.413   4.264   0.898
95789W        W68214  23.128  25.090   3.369
95790W        W68215  34.062  21.649  13.397
95791W        W68216   0.433  26.537   4.689
95792W        W68217   5.431  17.567  10.496
95793W        W68218   1.462  19.716   1.798
95794W        W68219  11.183   6.829   5.133
95795W        W68220  34.971  34.453   4.344
95796W        W68221  26.575  40.451   2.672
95797W        W68222  27.128  18.566  14.329
95798W        W68223  20.546   3.745  12.987
95799W        W68224  29.440  30.048  14.357
95800W        W68225   4.940  18.100  14.505
95801W        W68226  31.481   5.300  11.870
95802W        W68227  37.873  20.676  10.643
95803W        W68228  30.914  15.194  14.291
95804W        W68229  38.368   3.720   2.708
95805W        W68230  16.077  18.714  10.546
95806W        W68231  38.852  42.968   4.183
95807W        W68232  27.102   5.241  14.384
95808W        W68233   0.453  15.169  12.908
95809W        W68234  41.924  18.744   3.324
95810W        W68235  12.228  27.462   4.822
95811W        W68236  32.126  32.950   2.797
95812W        W68237  12.313  22.601  13.309
95813W        W68238  11.352   2.286  11.496
95814W        W68239  30.977  37.072  10.418
95815W        W68240  12.248  29.953  13.050
95816W        W68241  33.881  41.378   0.455
95817W        W68242   1.955  36.495   0.354
95818W        W68243  21.084   3.299  12.938
95819W        W68244  24.481  32.504   1.853
95820W        W68245  31.441  13.255   3.295
95821W        W68246  30.135  32.890   0.438
95822W        W68247  17.168   2.231  12.407
95823W        W68248   8.757  12.129  12.339
95824W        W68249  32.058  27.587  13.440
95825W        W68250  17.208  31.134   2.739
95826W        W68251   1.327   5.349   0.776
95827W        W68252  21.052  32.991   2.751
95828W        W68253  19.211  38.550   4.619
95829W        W68254  26.149  25.062   0.867
95830W        W68255   6.349  42.359   0.857
95831W        W68256   1.862   9.710  12.847
95832W        W68257  35.871  30.924   0.248
95833W        W68258  23.991   6.869  12.863
95834W        W68259  18.735  38.555  11.523
95835W        W68260  39.426  33.514   3.192
95836W        W68261   0.435  34.608  12.859
95837W        W68262   5.898  12.631  12.529
95838W        W68263  44.351  22.575  14.938
95839W        W68264  32.078  16.592  11.876
95840W        W68265  19.729  43.460  11.899
95841W        W68266  35.413  14.208   4.121
95842W        W68267  37.552  15.234   0.820
95843W        W68268  28.016  11.850   3.347
95844W        W68269  25.562  19.150  13.909
95845W        W68270   7.851  20.230   4.158
95846W        W68271  14.822   0.250  13.475
95847W        W68272  35.966  12.245  11.429
95848W        W68273  21.598  26.692  12.528
95849W        W68274  28.628  17.670  13.805
95850W        W68275  10.202   4.807  12.571
95851W        W68276  37.421  41.842   3.649
95852W        W68277   1.332  33.598   1.814
95853W        W68278  15.141  11.183  14.416
95854W        W68279  34.020  21.049  13.912
95855W        W68280  12.672  31.949   0.477
95856W        W68281  41.384  23.062  10.514
95857W        W68282   5.862  17.176  14.292
95858W        W68283  21.097  14.181  11.106
95859W        W68284  26.525  41.503   3.742
95860W        W68285  37.940   0.355   4.745
95861W        W68286  19.124  18.294  11.541
95862W        W68287   0.870   6.337   4.261
95863W        W68288  43.473  16.766   2.680
95864W        W68289  19.727  27.977  14.936
95865W        W68290  34.973  33.039  10.938
95866W        W68291  21.224  42.015   3.645
95867W        W68292  28.982  18.659   2.327
95868W        W68293  10.805   6.295  10.410
95869W        W68294  10.646  43.459  10.536
95870W        W68295   2.841   4.403  10.983
95871W        W68296  11.351   9.696  12.916
95872W        W68297   0.897  36.966  14.927
95873W        W68298  30.962  31.418   3.649
95874W        W68299  12.769  21.737   0.248
95875W        W68300  19.652   4.854   4.744
95876W        W68301  18.203  38.433   1.734
95877W        W68302  33.956  44.354   3.817
95878W        W68303  33.438   7.838  13.413
95879W        W68304  27.635   7.379  14.422
95880W        W68305  17.265  44.003  13.481
95881W        W68306  21.259  29.138  13.494
95882W        W68307   1.949  21.547   2.798
95883W        W68308  27.979  29.514   0.892
95884W        W68309  38.914  41.468  13.929
95885W        W68310  22.060  31.444   2.869
95886W        W68311  33.433   3.760   3.636
95887W        W68312  26.545   6.723  14.895
95888W        W68313  24.000   8.175  11.862
95889W        W68314  28.022   3.427   0.750
95890W        W68315  23.629   2.873  13.923
95891W        W68316  31.632  26.529  11.873
95892W        W68317  10.382  34.062  12.565
95893W        W68318  41.999   6.845   4.819
95894W        W68319  17.131  14.252  14.796
95895W        W68320  38.554  25.167  10.434
95896W        W68321  33.982  27.039  13.794
95897W        W68322  39.869  12.154  14.423
95898W        W68323  22.224  38.895   4.807
95899W        W68324  11.211  22.655   4.152
95900W        W68325  36.855  35.503  13.417
95901W        W68326  19.092  14.822  10.925
95902W        W68327  38.493  30.064   3.692
95903W        W68328   9.256  34.046  11.873
95904W        W68329  35.457  21.547  14.830
95905W        W68330  41.823   1.924  12.941
95906W        W68331  35.015  44.320  14.962
95907W        W68332  13.223   4.699  14.510
95908W        W68333  13.605  16.621   0.905
95909W        W68334  30.123  31.111   2.265
95910W        W68335  33.560  44.299  13.488
95911W        W68336   3.225  30.135  12.501
95912W        W68337  41.436  40.919  14.291
95913W        W68338  37.524  32.541   4.822
95914W        W68339  32.473  30.496  12.851
95915W        W68340   1.314  18.598  12.549
95916W        W68341  41.962  25.992   0.895
95917W        W68342  33.448  17.134  13.053
95918W        W68343  24.199  25.966   4.287
95919W        W68344  42.799  27.110  13.871
95920W        W68345  28.604  35.446   4.598
95921W        W68346   5.429  29.999  10.947
95922W        W68347  38.003   1.774   0.814
95923W        W68348  16.122  16.733  11.446
95924W        W68349  14.806  38.999   4.214
95925W        W68350  15.767  38.993  13.926
95926W        W68351  29.937  18.160   1.869
95927W        W68352  39.973  11.353   0.429
95928W        W68353  36.402  16.169  13.949
95929W        W68354  37.491  19.267  12.931
95930W        W68355  44.306  21.684   0.261
95931W        W68356  43.470  25.116  13.525
95932W        W68357  30.476  20.595   1.844
95933W        W68358  15.692   3.943  13.859
95934W        W68359  34.927  17.111  10.634
95935W        W68360  33.098  42.415   2.871
95936W        W68361  15.249  23.213   1.883
95937W        W68362  30.647  11.756   3.715
95938W        W68363   7.698  21.569   2.212
95939W        W68364  42.975   6.237   0.396
95940W        W68365  40.451  27.994  12.422
95941W        W68366  24.674  41.524   2.322
95942W        W68367  25.657   6.736  10.921
95943W        W68368  44.418   4.917  12.855
95944W        W68369  38.372  21.249  10.901
95945W        W68370  24.641   4.939   4.806
95946W        W68371  14.336  40.025   2.314
95947W        W68372  24.218   9.840   2.684
95948W        W68373  43.485  11.319  14.430
95949W        W68374  30.502  41.361  14.930
95950W        W68375  29.109  19.184  12.512
95951W        W68376   0.409  34.453  10.579
95952W        W68377   6.878  27.688   2.403
95953W        W68378  33.985  14.729  12.446
95954W        W68379  31.124   1.774  14.880
95955W        W68380   8.873  44.468  12.913
95956W        W68381  37.030  40.019   0.952
95957W        W68382  13.120  25.473   2.801
95958W        W68383   0.376  18.139   4.152
95959W        W68384   5.316   1.931   2.316
95960W        W68385  30.558   4.316   2.761
95961W        W68386  15.752   9.194   3.662
95962W        W68387  31.970  23.181   0.859
95963W        W68388   6.407  36.025   4.143
95964W        W68389  16.574  41.300  10.451
95965W        W68390  12.826  44.781  12.473
95966W        W68391  33.906  43.379   2.791
95967W        W68392  17.785  40.836  11.459
95968W        W68393  10.747  29.426  10.972
95969W        W68394   0.389  39.941   4.277
95970W        W68395  22.240   0.941   0.478
95971W        W68396   4.828  22.735   3.250
95972W        W68397  26.052  29.637  12.833
95973W        W68398   6.416  16.806   2.273
95974W        W68399  34.371  31.136  14.995
95975W        W68400  11.295  28.171   4.261
95976W        W68401  12.306  16.639  12.520
95977W        W68402   6.856  13.331   4.285
95978W        W68403  43.411  28.070   4.260
95979W        W68404  38.025  28.083   0.305
95980W        W68405   7.879  15.677  12.406
95981W        W68406  41.838   1.800  11.053
95982W        W68407  18.704  17.307  14.512
95983W        W68408  11.230  19.064  12.874
95984W        W68409   9.770  21.259   1.331
95985W        W68410   8.794  29.561   1.805
95986W        W68411  37.962  33.052  13.803
95987W        W68412  34.539  44.940   0.939
95988W        W68413  32.124  19.717   3.856
95989W        W68414  16.680  38.972  14.516
95990W        W68415  26.144  29.670   2.229
95991W        W68416  28.068  39.908   3.362
95992W        W68417  20.248  42.440   2.410
95993W        W68418  39.047  41.894   3.384
95994W        W68419  39.489  37.489  13.920
95995W        W68420  14.700   6.771  11.868
95996W        W68421  18.073  22.729   1.333
95997W        W68422  39.480  25.690   2.300
95998W        W68423  41.863  42.316   1.383
95999W        W68424  23.048  39.991   1.379
96000W        W68425  25.963   4.912   1.434
96001W        W68426   6.786  42.967  12.500
96002W        W68427  39.315  43.810  13.901
96003W        W68428  17.781  28.131  11.487
96004W        W68429  41.417  15.736  13.007
96005W        W68430   6.826  36.587  14.773
96006W        W68431   5.712  37.048   5.140
96007W        W68432  37.974  23.607  11.040
96008W        W68433  18.203  13.237   1.798
96009W        W68434   3.255  12.201   4.641
96010W        W68435   3.890  24.170  11.024
96011W        W68436  40.821   8.753   3.240
96012W        W68437  41.926  25.215   0.852
96013W        W68438  35.904  32.473  14.882
96014W        W68439   7.879  44.770   2.711
96015W        W68440  36.916   8.193  14.339
96016W        W68441  43.448  21.514   2.833
96017W        W68442   7.670   2.911   0.759
96018W        W68443  10.762  37.527   3.354
96019W        W68444   8.212  24.152   1.928
96020W        W68445   5.286  23.062   3.259
96021W        W68446  29.026  38.011   4.831
96022W        W68447   2.758  35.998   1.803
96023W        W68448  25.641  28.435  11.392
96024W        W68449  32.485   6.258  14.375
96025W        W68450  32.039  17.704   0.472
96026W        W68451  31.928  21.753   3.275
96027W        W68452  20.127  31.452  13.828
96028W        W68453  37.446   9.701   2.848
96029W        W68454  42.449  19.736  13.401
96030W        W68455   7.762   1.426   3.360
96031W        W68456  31.120  14.101   9.923
96032W        W68457  27.645  35.019  12.490
96033W        W68458  32.549  36.569  11.983
96034W        W68459  31.049  16.185   4.604
96035W        W68460  12.623  40.346   1.215
96036W        W68461  13.125  26.161   0.871
96037W        W68462  20.703   9.880   5.211
96038W        W68463  22.166  43.837  10.472
96039W        W68464  15.675  10.325  10.900
96040W        W68465   2.921  40.899   0.346
96041W        W68466   5.687  14.638   4.155
96042W        W68467  23.613   5.742  14.342
96043W        W68468  36.911  14.338   1.872
96044W        W68469  35.941  33.894   0.745
96045W        W68470  18.234  28.002   4.217
96046W        W68471  26.477  41.897  12.395
96047W        W68472  32.901  11.854  12.887
96048W        W68473  24.192  14.809   3.212
96049W        W68474   9.784   4.237   1.779
96050W        W68475  10.327   9.209  10.071
96051W        W68476  24.659   7.289  13.429
96052W        W68477  38.394   5.392   4.738
96053W        W68478  25.088  15.595   4.320
96054W        W68479  36.979  16.199   1.911
96055W        W68480  12.169  31.061  10.943
96056W        W68481  30.422  29.065  10.915
96057W        W68482  16.151   5.241  10.424
96058W        W68483  10.256   7.799  14.816
96059W        W68484  36.505   9.853  10.553
96060W        W68485  43.508  35.105   4.164
96061W        W68486  29.496  36.567   2.712
96062W        W68487  27.176  18.755  11.407
96063W        W68488  28.623  32.094   1.856
96064W        W68489  30.912   8.406  11.987
96065W        W68490  41.796   8.361   4.234
96066W        W68491  33.465  27.523  11.429
96067W        W68492   5.757  16.629   3.817
96068W        W68493  21.186  33.572  11.443
96069W        W68494  11.841  30.492   1.872
96070W        W68495  24.190   4.820  11.541
96071W        W68496  30.638  44.992   3.753
96072W        W68497  15.135  15.290  11.992
96073W        W68498  42.010   7.322   3.341
96074W        W68499  41.444  28.040   2.329
96075W        W68500  34.596  17.620  13.325
96076W        W68501  31.069   5.754  14.853
96077W        W68502  25.128  44.487  14.499
96078W        W68503   2.762  16.574  11.428
96079W        W68504  35.100  11.168   0.359
96080W        W68505  38.906  17.301   5.112
96081W        W68506  23.200  31.913  13.825
96082W        W68507  30.580  28.502  12.056
96083W        W68508   2.402  10.165  13.059
96084W        W68509  40.308  42.348   0.279
96085W        W68510  11.299  39.901  14.841
96086W        W68511  26.677   7.271   3.381
96087W        W68512  11.720  37.081  12.489
96088W        W68513  14.230  30.071   0.248
96089W        W68514  43.995  37.499   3.252
96090W        W68515   2.428   8.821   0.837
96091W        W68516  43.286  22.136  12.409
96092W        W68517  42.463  15.242  13.323
96093W        W68518  27.598   2.867  12.369
96094W        W68519  43.282   1.458  13.043
96095W        W68520   6.356  16.259  10.429
96096W        W68521  23.718  28.590  13.056
96097W        W68522  20.526  23.706   1.311
96098W        W68523  41.859  29.045  10.438
96099W        W68524   4.394  16.178   4.775
96100W        W68525  11.678  14.103   2.348
96101W        W68526  31.907   4.923   3.332
96102W        W68527   8.845  18.090  10.476
96103W        W68528  12.181  23.646   5.108
96104W        W68529   5.787  42.897  12.348
96105W        W68530   8.722  33.502   3.312
96106W        W68531  37.913  13.114   3.766
96107W        W68532  22.729  12.117   4.712
96108W        W68533  17.287  10.234   3.274
96109W        W68534  12.274  23.998  11.103
96110W        W68535  43.867  38.464   0.273
96111W        W68536   6.828   6.728  10.949
96112W        W68537   6.727  16.657  12.974
96113W        W68538  28.583  32.402  14.870
96114W        W68539   8.234  11.224  11.122
96115W        W68540   3.930  28.968   3.748
96116W        W68541   4.941  16.686   4.803
96117W        W68542  10.678   7.741  14.774
96118W        W68543  31.980  21.550   1.787
96119W        W68544  39.544  15.813   2.416
96120W        W68545  35.593  29.448  12.454
96121W        W68546  31.409  30.965  11.505
96122W        W68547  40.946  31.099  14.315
96123W        W68548  44.288  30.019   2.282
96124W        W68549  26.624   9.843  14.780
96125W        W68550  26.020  27.952   2.854
96126W        W68551  23.001  35.553   1.759
96127W        W68552   4.235  32.994   1.355
96128W        W68553  11.270  31.912   1.348
96129W        W68554  39.390  44.877  11.374
96130W        W68555  11.831   7.243   3.740
96131W        W68556  14.262  44.000   1.867
96132W        W68557   4.306  18.159   3.241
96133W        W68558  32.892  38.836   3.368
96134W        W68559   9.765   8.372   9.576
96135W        W68560  17.738  39.334   1.415
96136W        W68561  36.534  16.675  10.959
96137W        W68562   3.445  35.592   3.215
96138W        W68563  12.170   4.914  10.521
96139W        W68564  19.780  44.986   4.333
96140W        W68565  17.606  28.963   0.315
96141W        W68566  44.757  11.265  14.408
96142W        W68567  41.471   9.233  11.513
96143W        W68568  20.145  21.567   1.365
96144W        W68569   8.392  23.107  10.609
96145W        W68570   8.403  26.681  10.956
96146W        W68571  19.189  19.710  12.491
96147W        W68572  32.097   7.872   4.746
96148W        W68573  21.560  26.548   1.907
96149W        W68574  21.025  36.485   0.743
96150W        W68575  16.276  27.462   2.187
96151W        W68576  35.865  43.331  14.343
96152W        W68577  10.255  41.360   4.733
96153W        W68578  38.939  35.584  13.439
96154W        W68579  37.471  38.490   3.765
96155W        W68580  24.485  25.151  13.356
96156W        W68581  42.903  16.792  14.002
96157W        W68582   9.223  11.338   4.607
96158W        W68583  21.093  21.667  10.955
96159W        W68584  12.352  15.643  13.914
96160W        W68585  31.956  34.598  13.954
96161W        W68586  18.155  40.418   3.282
96162W        W68587  23.551  33.550  13.815
96163W        W68588  23.074  43.854  14.299
96164W        W68589  14.281  40.322  12.865
96165W        W68590   8.769  14.708  13.831
96166W        W68591   6.681  29.493  12.834
96167W        W68592  36.011  26.489  12.440
96168W        W68593  26.493  33.409  10.963
96169W        W68594  19.771   5.859  10.451
96170W        W68595  13.334   7.249  12.008
96171W        W68596  36.000  15.665   2.189
96172W        W68597  10.276  33.623   4.688
96173W        W68598   6.414  31.631  10.441
96174W        W68599  19.599   4.730  11.061
96175W        W68600   0.484  17.669  11.516
96176W        W68601  27.118  21.692   0.324
96177W        W68602  41.989  28.020  10.998
96178W        W68603  23.653  38.529  10.999
96179W        W68604  13.213  38.939  14.317
96180W        W68605  14.339   0.978   4.705
96181W        W68606   0.479   6.881  10.444
96182W        W68607  29.667  21.545  10.609
96183W        W68608  13.108  26.965   4.173
96184W        W68609  35.382  34.909  12.431
96185W        W68610  23.004  20.651  14.337
96186W        W68611   8.226   2.724   0.966
96187W        W68612  26.005   4.209   4.783
96188W        W68613  37.950   2.470  12.574
96189W        W68614  15.087   3.250   4.759
96190W        W68615  30.622  44.306   1.352
96191W        W68616  10.138  19.144  10.482
96192W        W68617   2.728  36.054   4.622
96193W        W68618   0.258   7.398   2.695
96194W        W68619  12.197   5.390   1.899
96195W        W68620  25.977   4.312   0.365
96196W        W68621  30.643  32.987  12.416
96197W        W68622  22.591  11.849  11.044
96198W        W68623   8.810  38.905   2.204
96199W        W68624  35.037  36.471  14.835
96200W        W68625  14.649  22.563   1.874
96201W        W68626  24.083  36.409   4.651
96202W        W68627   1.923  17.693   2.274
96203W        W68628  26.208  26.541   4.735
96204W        W68629  25.161  27.646   0.416
96205W        W68630  28.034  12.704  11.930
96206W        W68631  32.481   7.684   2.736
96207W        W68632   8.893  30.916   0.878
96208W        W68633   5.893  32.595   0.254
96209W        W68634   3.795  27.102   4.685
96210W        W68635  12.244  38.952  10.917
96211W        W68636  12.635   9.315   3.659
96212W        W68637  40.833  12.167   4.600
96213W        W68638   2.410  15.612   4.691
96214W        W68639   0.789  23.141  10.582
96215W        W68640   0.297  30.632  12.533
96216W        W68641  10.353  15.298  14.412
96217W        W68642  25.599  31.024  13.803
96218W        W68643  19.170  27.953   4.268
96219W        W68644  29.570   8.717   2.894
96220W        W68645   3.790  25.652  13.928
96221W        W68646  42.472  40.909   0.840
96222W        W68647  31.578  15.211   9.633
96223W        W68648  17.084  34.929  13.919
96224W        W68649  29.928  43.976   3.169
96225W        W68650   6.339   4.344  12.853
96226W        W68651  38.046  30.041  14.909
96227W        W68652  26.190  43.853   4.272
96228W        W68653  44.261   2.348   2.787
96229W        W68654  20.177  18.689  12.951
96230W        W68655  32.056  32.553   0.960
96231W        W68656  20.554  41.528  11.420
96232W        W68657  32.422   0.464  14.375
96233W        W68658  13.726  32.013  12.840
96234W        W68659  18.753  23.117   1.409
96235W        W68660   6.239  19.062   3.860
96236W        W68661  34.952  43.787   3.645
96237W        W68662  33.503  39.313  10.967
96238W        W68663  27.569  12.150   1.705
96239W        W68664  40.451  26.569   1.357
96240W        W68665  39.877  42.007  13.797
96241W        W68666   1.964  42.793  13.863
96242W        W68667   2.958  37.970  14.290
96243W        W68668  18.754   7.780  13.351
96244W        W68669  44.997  34.992   2.742
96245W        W68670   3.407   8.666   5.143
96246W        W68671  16.791  17.751   0.415
96247W        W68672  16.810  15.163   4.301
96248W        W68673   3.217  37.545  11.967
96249W        W68674  21.092  23.672  10.478
96250W        W68675  21.722  42.838  11.554
96251W        W68676  41.038  41.429  12.890
96252W        W68677   7.178  36.991   3.778
96253W        W68678  33.027  23.148  11.027
96254W        W68679  39.866  12.800   3.763
96255W        W68680  28.656  31.922   1.308
96256W        W68681   1.437  17.232   0.739
96257W        W68682  14.107  34.604  10.422
96258W        W68683  31.948  10.724  13.527
96259W        W68684  21.213   5.821   1.746
96260W        W68685  31.602   2.848  14.848
96261W        W68686  28.966  29.995  11.915
96262W        W68687  37.982  43.868  13.857
96263W        W68688  12.150   9.720  14.855
96264W        W68689  38.522  21.514   2.866
96265W        W68690   8.852  41.993  13.412
96266W        W68691   8.222  22.651  14.473
96267W        W68692  23.494  23.627   0.824
96268W        W68693  15.590   0.941  10.153
96269W        W68694  24.066   8.254  12.350
96270W        W68695  33.099  33.613   1.217
96271W        W68696  43.507  35.891  12.419
96272W        W68697  28.170  39.479   1.252
96273W        W68698  41.831   2.334   3.192
96274W        W68699  12.181   1.838   0.360
96275W        W68700  32.589  41.791   4.736
96276W        W68701  41.534  32.460   2.241
96277W        W68702   8.867  19.573  10.005
96278W        W68703  14.708   7.375   0.468
96279W        W68704  32.461  42.363   2.190
96280W        W68705  16.262  20.197   3.286
96281W        W68706  19.258  12.361  12.092
96282W        W68707  43.821  22.555   4.227
96283W        W68708  27.107  13.202  13.478
96284W        W68709  35.966  23.538  12.371
96285W        W68710  13.794  23.160   0.424
96286W        W68711  34.048   4.329   1.695
96287W        W68712   5.377   5.903  11.464
96288W        W68713  17.789  13.260  13.036
96289W        W68714  26.173  41.456   4.232
96290W        W68715  24.182  18.085  12.005
96291W        W68716   2.869  44.826  14.415
96292W        W68717  43.926  15.211   2.703
96293W        W68718  17.608  33.074   4.345
96294W        W68719   7.899   4.868   2.240
96295W        W68720  11.363  44.912  12.826
96296W        W68721  29.044  42.527   0.290
96297W        W68722  18.770  40.420   3.256
96298W        W68723  34.431  31.605  11.379
96299W        W68724  40.910   9.269   1.792
96300W        W68725  26.962  33.951   0.302
96301W        W68726  23.086  20.072   0.931
96302W        W68727   5.899   9.169   4.228
96303W        W68728  16.271  43.005  12.003
96304W        W68729  23.562  34.375   4.322
96305W        W68730  29.497  11.627   3.799
96306W        W68731  37.858   6.357  10.948
96307W        W68732  18.617  18.710   0.400
96308W        W68733   2.466  31.025   2.222
96309W        W68734  33.055  13.260  10.483
96310W        W68735  38.359  19.185  14.977
96311W        W68736  34.103  41.456  13.395
96312W        W68737  39.442  23.146  13.967
96313W        W68738  27.493  24.583   1.725
96314W        W68739  21.628  18.216  12.012
96315W        W68740  41.029  34.370   1.356
96316W        W68741  43.417  23.525  13.398
96317W        W68742  16.106   4.847   0.479
96318W        W68743   0.351  23.225   0.803
96319W        W68744  44.377   8.268  12.535
96320W        W68745  23.157  43.387  10.607
96321W        W68746  44.988  27.167   3.721
96322W        W68747  22.144  19.273  10.452
96323W        W68748  20.205  10.189  12.549
96324W        W68749  23.535  12.187  13.426
96325W        W68750  27.045  34.561   3.367
96326W        W68751   0.855  10.861  14.334
96327W        W68752  19.775  35.002   5.248
96328W        W68753  23.513  32.060   3.309
96329W        W68754  18.178  44.991  13.944
96330W        W68755  36.096  14.612  12.471
96331W        W68756   4.442  38.397  10.469
96332W        W68757  38.019  28.161   1.809
96333W        W68758  14.628  39.809   1.246
96334W        W68759   2.939  12.632  12.848
96335W        W68760  42.950  29.023  10.520
96336W        W68761  27.001  24.659   4.757
96337W        W68762  13.176   8.742   5.218
96338W        W68763  13.725  39.487   2.351
96339W        W68764  16.752  19.697   3.179
96340W        W68765   4.298  37.861   1.266
96341W        W68766  44.488  40.473  14.421
96342W        W68767   1.394   7.260   1.210
96343W        W68768  16.246  26.065  13.439
96344W        W68769   3.884   0.338  10.991
96345W        W68770  40.970  11.154  14.305
96346W        W68771   6.370   4.275  14.329
96347W        W68772   7.852  37.047   5.750
96348W        W68773  12.173  24.036   2.711
96349W        W68774  23.005  28.537  13.942
96350W        W68775   7.344  24.597   0.900
96351W        W68776  28.530  33.973  13.360
96352W        W68777  30.981  26.169  14.771
96353W        W68778  12.212  19.195  10.889
96354W        W68779  14.590  42.372   2.856
96355W        W68780   3.221  30.972   0.367
96356W        W68781   1.763  27.458   1.364
96357W        W68782   1.888  31.510   2.335
96358W        W68783  15.300  41.026  14.883
96359W        W68784  23.198  23.993   1.823
96360W        W68785  44.297  35.024   4.158
96361W        W68786  11.300   9.644   2.383
96362W        W68787  18.602   9.215  14.931
96363W        W68788   7.819  40.334  12.832
96364W        W68789  13.187  35.379  14.314
96365W        W68790   7.416  43.331   3.302
96366W        W68791  14.810  40.539  13.343
96367W        W68792  43.912  42.997   3.273
96368W        W68793   7.741  27.450   3.639
96369W        W68794  42.289  42.453  11.447
96370W        W68795  18.722  31.921   4.314
96371W        W68796  11.158  17.591  13.392
96372W        W68797  34.938  16.665  12.031
96373W        W68798   3.356   0.844  11.502
96374W        W68799   1.824  43.923   0.291
96375W        W68800  17.557  37.862  12.018
96376W        W68801  18.710  10.857   3.642
96377W        W68802  22.729   9.275  11.939
96378W        W68803   5.413   4.344  11.504
96379W        W68804  31.139   3.413  13.962
96380W        W68805  29.107  21.080   4.795
96381W        W68806   0.375  18.682   0.481
96382W        W68807   2.338  35.030   0.759
96383W        W68808  16.298   4.850  12.515
96384W        W68809  29.481   2.861  12.944
96385W        W68810  28.105   4.229   0.799
96386W        W68811  16.734  22.658   3.791
96387W        W68812  21.065  38.427  14.315
96388W        W68813  20.736   4.849  11.926
96389W        W68814   4.317  34.014   0.730
96390W        W68815  37.372  27.498   3.784
96391W        W68816  30.570  33.521  11.603
96392W        W68817   3.241   5.751  11.408
96393W        W68818   9.332  39.822  14.030
96394W        W68819  18.102  17.703   4.187
96395W        W68820  40.036  25.497   4.653
96396W        W68821  12.753  11.657  11.514
96397W        W68822  11.670  43.316  11.567
96398W        W68823  36.955  13.753  14.506
96399W        W68824  35.446  37.067   4.208
96400W        W68825  24.511   3.741  11.084
96401W        W68826  32.572  15.198  14.509
96402W        W68827  20.190  38.038   4.197
96403W        W68828  36.067  28.161  12.025
96404W        W68829   2.814  27.117   0.352
96405W        W68830  41.860  43.454  14.905
96406W        W68831  27.010  31.403   3.821
96407W        W68832  26.200  36.892  11.027
96408W        W68833   7.809  20.185   1.882
96409W        W68834  14.702  26.208   3.704
96410W        W68835  15.302  17.654   1.368
96411W        W68836  21.615   8.273   2.752
96412W        W68837  23.619  34.469  11.522
96413W        W68838  41.391  27.620   3.776
96414W        W68839   3.295   7.345   3.289
96415W        W68840   8.698  11.319  11.406
96416W        W68841  29.539  32.585  11.380
96417W        W68842  34.956  14.217  12.365
96418W        W68843  33.494  33.422   1.384
96419W        W68844  42.495  14.205   3.371
96420W        W68845   3.889   2.279   0.820
96421W        W68846  26.609   5.404   0.398
96422W        W68847   8.325  29.121   0.732
96423W        W68848  25.705  23.152  12.407
96424W        W68849  44.953  28.587  12.000
96425W        W68850  17.713   8.365  14.849
96426W        W68851  44.904  39.373   4.606
96427W        W68852  17.220   0.281   0.277
96428W        W68853  26.096  23.643  13.514
96429W        W68854  32.576   2.900  11.091
96430W        W68855  42.963  36.575   2.893
96431W        W68856  30.468   0.480  11.038
96432W        W68857   6.321  15.088  12.027
96433W        W68858  16.784  26.177   2.393
96434W        W68859   4.863  36.404  13.437
96435W        W68860  16.122  25.540  13.328
96436W        W68861  18.171  33.997  13.492
96437W        W68862  36.964  14.096  12.544
96438W        W68863  38.369  11.795  10.608
96439W        W68864  35.494  39.919  11.123
96440W        W68865  34.054  27.129  12.861
96441W        W68866  11.373   1.254  14.453
96442W        W68867  40.493  41.993   2.289
96443W        W68868  26.076  33.538   0.860
96444W        W68869  25.080  44.782   4.679
96445W        W68870  38.982  37.059  13.857
96446W        W68871   9.259  21.122   2.864
96447W        W68872  40.829  38.866  12.472
96448W        W68873  43.944  28.624   2.353
96449W        W68874  34.404  22.682   3.327
96450W        W68875   4.805  21.710   1.845
96451W        W68876  11.664  41.337   1.415
96452W        W68877  12.279  42.955  11.507
96453W        W68878  20.669   0.455   1.764
96454W        W68879  37.580  19.640  11.498
96455W        W68880  36.502   5.291   1.314
96456W        W68881  44.502  23.005  11.546
96457W        W68882  38.513   8.703  13.885
96458W        W68883  40.940  18.236  12.355
96459W        W68884   4.284  30.427  14.014
96460W        W68885   0.468  10.795  11.001
96461W        W68886  40.343  42.999   1.284
96462W        W68887   9.770  41.491   1.836
96463W        W68888  35.088  14.338  10.532
96464W        W68889  16.166   9.245  13.538
96465W        W68890  32.120  30.643   3.307
96466W        W68891  43.872  42.783   2.789
96467W        W68892  16.099  38.534  14.484
96468W        W68893  29.111  21.676  13.500
96469W        W68894  28.452   3.410   4.778
96470W        W68895  28.581   7.764  10.896
96471W        W68896  20.740  35.945  12.538
96472W        W68897  39.408  11.172  12.529
96473W        W68898  37.839  29.129   2.753
96474W        W68899  31.951   8.765  12.484
96475W        W68900  19.554  41.301  13.927
96476W        W68901  18.173  34.405   4.778
96477W        W68902  41.019  15.611  14.019
96478W        W68903  39.891  44.444  11.505
96479W        W68904  16.766  40.312   0.392
96480W        W68905   6.848  11.793  11.432
96481W        W68906   9.394  33.475  14.874
96482W        W68907  35.081  21.099  12.512
96483W        W68908  40.869  40.409  13.343
96484W        W68909  15.281  22.629   3.159
96485W        W68910  40.362  33.566  14.895
96486W        W68911  17.789  34.001   3.325
96487W        W68912  39.011  38.912   2.898
96488W        W68913  23.543  29.617   3.361
96489W        W68914  24.608  31.026  12.497
96490W        W68915  42.457  23.146   4.687
96491W        W68916   3.333   0.286   2.867
96492W        W68917  18.744  16.103  12.471
96493W        W68918  31.455   8.763   2.232
96494W        W68919  21.029  23.088   2.845
96495W        W68920  15.209  22.245  12.476
96496W        W68921  11.274  10.759  10.973
96497W        W68922  21.678   9.799  13.312
96498W        W68923  30.480   9.273  14.379
96499W        W68924  40.474  15.327   2.704
96500W        W68925  22.216  33.119  12.885
96501W        W68926  18.254  14.325  11.570
96502W        W68927  19.104   3.740   1.433
96503W        W68928  30.136  20.094   0.897
96504W        W68929  22.729   4.731   4.137
96505W        W68930  34.021  23.495   4.163
96506W        W68931  22.023  38.427  14.375
96507W        W68932  39.858  28.038   2.773
96508W        W68933  32.504  21.524   3.234
96509W        W68934  31.974   7.706  13.395
96510W        W68935  33.434  29.056  11.940
96511W        W68936  19.556  18.268   3.791
96512W        W68937  21.095  26.562   5.313
96513W        W68938  33.530  20.132   5.105
96514W        W68939  14.150  11.285   2.705
96515W        W68940  18.781  12.275   2.699
96516W        W68941  30.027  43.403  13.982
96517W        W68942  21.181  13.174   9.977
96518W        W68943  34.948   8.226   0.346
96519W        W68944  25.665  10.349  12.460
96520W        W68945  30.508  43.821  14.294
96521W        W68946  27.633   2.378  14.923
96522W        W68947  32.133  21.631  13.992
96523W        W68948   2.239  24.228  13.388
96524W        W68949   3.891  30.585  13.057
96525W        W68950  36.887   4.730   3.719
96526W        W68951  31.537  21.095   0.263
96527W        W68952  33.513   8.770  14.032
96528W        W68953   7.814   3.738  14.410
96529W        W68954  24.543  10.754   1.880
96530W        W68955  27.080   0.903   0.445
96531W        W68956  25.087  36.015   4.696
96532W        W68957  34.014  32.898  11.882
96533W        W68958  21.741   5.263   1.230
96534W        W68959  18.140  13.709   0.356
96535W        W68960  39.028  23.707  12.065
96536W        W68961   8.867   8.772   0.829
96537W        W68962  36.591  15.279  14.850
96538W        W68963  12.227  27.474   0.318
96539W        W68964  21.678  35.366   3.795
96540W        W68965   3.435  24.671  11.019
96541W        W68966   1.766  32.071   4.310
96542W        W68967   5.798   4.729   4.274
96543W        W68968  43.941  12.639  11.373
96544W        W68969  32.978  32.525  12.566
96545W        W68970  25.116   3.887   1.234
96546W        W68971  10.761  16.233  11.050
96547W        W68972  42.514   4.221   4.797
96548W        W68973  19.143  22.608  11.888
96549W        W68974  15.794  23.030   1.370
96550W        W68975  30.143  39.344   0.415
96551W        W68976  32.978  11.367  12.506
96552W        W68977  18.255  32.076  11.125
96553W        W68978   8.405   1.831  11.073
96554W        W68979  16.592  27.197  10.511
96555W        W68980  29.431   6.290   0.411
96556W        W68981  37.008  11.699   0.763
96557W        W68982   0.901  26.598  10.905
96558W        W68983  28.607  35.091   2.866
96559W        W68984  16.600  37.066  14.455
96560W        W68985  21.519  11.839  12.007
96561W        W68986  31.414  35.877  10.413
96562W        W68987   4.857  13.641   1.856
96563W        W68988  25.039  41.038   2.694
96564W        W68989  28.968   9.762  12.068
96565W        W68990  21.583  28.158  11.409
96566W        W68991  19.199   1.378   1.231
96567W        W68992  14.612  10.343  14.880
96568W        W68993  33.518  12.342  12.093
96569W        W68994  13.307  26.189   1.824
96570W        W68995  13.675   5.195  14.393
96571W        W68996  14.176   4.394  11.498
96572W        W68997  26.562  22.674   3.324
96573W        W68998  42.341  44.278   1.227
96574W        W68999  24.492  37.056  12.871
96575W        W69000  41.829  23.690  14.428
96576W        W69001  43.298  41.382   4.138
96577W        W69002  16.177  35.489   2.768
96578W        W69003  15.657  44.003   2.325
96579W        W69004  31.482  18.182   2.706
96580W        W69005  12.197  20.698   4.785
96581W        W69006  17.703   0.359  10.051
96582W        W69007  42.430  26.661  14.495
96583W        W69008  21.212  35.040  11.519
96584W        W69009  33.933  25.580   1.369
96585W        W69010   4.382  24.084  14.907
96586W        W69011  10.376   5.326   2.230
96587W        W69012  44.930  32.994  13.405
96588W        W69013   3.831  28.526  12.363
96589W        W69014  27.640  20.661   1.736
96590W        W69015  15.259  19.541   4.161
96591W        W69016  28.588   7.844  11.517
96592W        W69017   1.858  30.454   3.787
96593W        W69018  34.034  39.860  10.583
96594W        W69019  36.896  20.056   4.617
96595W        W69020  33.069  16.232   3.641
96596W        W69021  39.452   3.740  13.310
96597W        W69022  43.824  33.581   2.358
96598W        W69023  18.547  32.455   9.609
96599W        W69024  11.149   5.831   2.761
96600W        W69025  17.164  36.965  12.538
96601W        W69026  26.952  24.511   3.750
96602W        W69027   7.670   3.248  14.313
96603W        W69028  40.303  30.123   1.838
96604W        W69029  39.833  20.684  10.488
96605W        W69030  17.182  35.427   4.272
96606W        W69031  44.954  13.810   1.801
96607W        W69032   9.280  43.884  11.606
96608W        W69033  38.970  40.483   2.221
96609W        W69034  11.193  26.048   3.264
96610W        W69035  32.983  20.048  12.839
96611W        W69036   4.702  22.693  14.815
96612W        W69037   2.895  16.106   0.775
96613W        W69038  26.560   9.294  13.029
96614W        W69039  35.443  32.607  11.442
96615W        W69040  21.063  25.602  13.466
96616W        W69041  24.695  33.456   3.243
96617W        W69042   3.409  29.558  10.999
96618W        W69043  16.809  34.538   3.262
96619W        W69044  31.625  26.684  13.422
96620W        W69045   4.335  24.104   2.406
96621W        W69046  43.281  14.106  11.610
96622W        W69047  32.551  23.142   0.963
96623W        W69048   2.809   0.747   3.720
96624W        W69049   1.825  17.639  10.425
96625W        W69050  20.547  43.331   3.259
96626W        W69051  14.096  27.004   0.382
96627W        W69052  27.538  34.600  14.310
96628W        W69053   0.862  16.660  14.889
96629W        W69054  31.423  31.037  14.487
96630W        W69055   5.850  24.612  13.867
96631W        W69056  34.015  27.126  12.559
96632W        W69057  18.668  26.593  13.531
96633W        W69058  43.859  15.318   4.315
96634W        W69059   3.879  22.091  12.936
96635W        W69060  24.006  35.405  13.925
96636W        W69061  12.336  44.759   4.271
96637W        W69062   4.929   2.915   3.780
96638W        W69063  29.445  12.776  11.930
96639W        W69064  22.733  14.611  10.541
96640W        W69065  10.785   4.373   1.381
96641W        W69066  23.068   6.794   1.325
96642W        W69067  25.082   2.812   4.768
96643W        W69068  13.687  24.486  13.925
96644W        W69069  44.783  40.495  14.862
96645W        W69070  22.560  16.718   4.289
96646W        W69071  27.650   4.764  10.092
96647W        W69072  38.048  42.460   3.152
96648W        W69073  16.777  35.417  11.978
96649W        W69074  31.424  43.428  11.901
96650W        W69075  43.479   1.835   4.185
96651W        W69076  14.597  39.343   4.251
96652W        W69077  37.367  33.024  13.841
96653W        W69078   9.678  37.076  12.933
96654W        W69079  19.537  10.220   1.225
96655W        W69080  18.731  43.859  12.483
96656W        W69081   3.911  35.889  10.969
96657W        W69082  31.131  10.785   3.849
96658W        W69083   2.943  14.306   0.817
96659W        W69084  31.021  33.400  13.833
96660W        W69085   3.741  35.031   2.223
96661W        W69086  14.110  24.509   0.481
96662W        W69087  42.020   7.782   1.381
96663W        W69088  43.877  34.542   3.205
96664W        W69089  43.470  13.151   3.762
96665W        W69090   2.439  31.613  14.969
96666W        W69091  19.600  42.784  13.883
96667W        W69092  38.068  13.741  13.977
96668W        W69093  38.488  44.460  13.535
96669W        W69094  43.022  31.458  13.973
96670W        W69095  36.394  16.266  10.447
96671W        W69096   0.453  20.147  11.428
96672W        W69097  34.036   1.732  11.857
96673W        W69098  32.582  13.158   3.787
96674W        W69099  38.560  18.166  12.975
96675W        W69100  30.080   4.811   0.429
96676W        W69101  29.052   4.807  14.837
96677W        W69102   3.381  36.091  13.331
96678W        W69103   9.849  20.100  14.798
96679W        W69104  14.198  34.975  11.904
96680W        W69105  44.352  25.700  13.806
96681W        W69106  26.010  42.903   4.189
96682W        W69107  39.995  21.564   4.331
96683W        W69108  18.680  14.283  12.458
96684W        W69109  43.309   1.385   1.786
96685W        W69110  22.130  25.099   2.283
96686W        W69111  29.929  14.328  11.610
96687W        W69112   3.909   4.937   9.936
96688W        W69113  26.131   4.233  12.940
96689W        W69114  17.272  36.998  11.970
96690W        W69115   3.347  43.340  13.411
96691W        W69116  17.182  25.647   3.346
96692W        W69117  15.222  39.049  10.513
96693W        W69118  17.103  29.013  14.770
96694W        W69119   3.914  42.338  13.915
96695W        W69120  21.621  22.628   4.646
96696W        W69121  12.204   8.781   3.327
96697W        W69122  39.536  10.319   2.186
96698W        W69123  42.496   3.811  12.869
96699W        W69124   1.424   2.446  11.608
96700W        W69125  30.646  30.996   0.249
96701W        W69126  24.166  29.066  12.534
96702W        W69127   7.354  30.431   2.210
96703W        W69128  40.413  37.572  11.437
96704W        W69129  33.023  24.064   2.866
96705W        W69130  43.877   8.834   0.832
96706W        W69131   6.199  24.540   0.457
96707W        W69132  22.037  18.601  11.557
96708W        W69133  38.384   7.770   4.764
96709W        W69134  29.929  40.884   3.851
96710W        W69135   8.657  42.785  12.003
96711W        W69136   7.828  11.776  12.377
96712W        W69137  34.079  36.380  12.887
96713W        W69138  36.015  29.024   1.734
96714W        W69139  14.713  11.683  11.583
96715W        W69140  11.183  34.451  12.857
96716W        W69141   9.827  36.529  14.863
96717W        W69142   9.291  16.567  13.863
96718W        W69143  26.586  23.989  14.948
96719W        W69144  33.116  39.986  10.565
96720W        W69145  23.127  28.439   3.296
96721W        W69146  12.621  17.795  13.995
96722W        W69147  15.097  44.810  10.462
96723W        W69148  28.472   6.188  12.003
96724W        W69149  43.389  26.486   3.168
96725W        W69150  42.814  43.802  14.454
96726W        W69151  12.643   9.663  14.812
96727W        W69152   7.770  24.167  12.002
96728W        W69153  15.788  33.499   1.831
96729W        W69154  24.683   9.773  11.592
96730W        W69155  31.053  27.672   1.281
96731W        W69156  19.575   4.430   3.755
96732W        W69157  16.175  44.324  10.098
96733W        W69158  41.830  44.369  14.799
96734W        W69159   5.254  13.327   4.270
96735W        W69160  20.707  32.435   0.471
96736W        W69161  28.144  23.645   2.872
96737W        W69162  23.726   4.896  14.915
96738W        W69163  14.207   8.702  14.332
96739W        W69164  28.077   0.270  12.833
96740W        W69165  26.499  26.106   2.194
96741W        W69166  27.043   4.271   2.394
96742W        W69167  35.003   2.742   4.607
96743W        W69168  37.978  20.263   0.482
96744W        W69169   4.791  33.084   4.141
96745W        W69170  42.359  41.855   2.371
96746W        W69171  12.222  23.062  10.957
96747W        W69172  24.021  28.600  11.984
96748W        W69173  23.998   1.764  11.916
96749W        W69174  22.220  14.196  10.465
96750W        W69175   2.746  40.422   2.858
96751W        W69176   0.285  42.863   4.638
96752W        W69177  35.470  13.127  12.451
96753W        W69178   4.225   0.931   2.804
96754W        W69179   4.397  30.067   1.398
96755W        W69180  29.490  44.753   2.851
96756W        W69181  44.985   7.180   4.292
96757W        W69182  13.276  40.940  12.037
96758W        W69183  36.988  25.115  14.298
96759W        W69184  20.219   1.290  11.372
96760W        W69185  15.093  37.036   1.441
96761W        W69186   7.670  11.358   9.997
96762W        W69187  31.590  42.411  11.870
96763W        W69188  41.410  27.630  13.515
96764W        W69189  20.566  43.978   0.376
96765W        W69190  34.920  24.160   4.749
96766W        W69191  19.641  18.147  10.591
96767W        W69192  27.167  12.737  11.900
96768W        W69193  32.918  14.188  13.490
96769W        W69194  12.145  26.186  14.277
96770W        W69195   4.275  24.519   1.314
96771W        W69196  23.493  14.306   2.827
96772W        W69197  22.532  25.169  12.920
96773W        W69198  26.461  41.363  12.520
96774W        W69199  24.985  24.616   4.348
96775W        W69200   4.312  30.027   1.713
96776W        W69201  27.052   8.169   1.310
96777W        W69202  14.664  36.965   4.353
96778W        W69203  37.877   7.216  12.843
96779W        W69204   9.346   9.880  11.404
96780W        W69205  42.994  35.376  12.540
96781W        W69206  16.794  24.579   0.943
96782W        W69207  36.359  25.175  12.035
96783W        W69208  28.513   1.960   4.735
96784W        W69209  13.338  28.016   4.264
96785W        W69210  13.825  10.635   3.821
96786W        W69211   3.766  37.923  13.409
96787W        W69212   3.334   2.238  14.511
96788W        W69213  34.093  32.066   0.356
96789W        W69214   2.748  24.093   3.804
96790W        W69215  33.392   4.830   0.908
96791W        W69216   7.817   8.352  14.356
96792W        W69217  24.636  23.720  11.552
96793W        W69218  24.705  31.106   4.196
96794W        W69219  11.785  40.523   1.293
96795W        W69220  26.635  44.341  11.918
96796W        W69221   4.799  28.034  10.990
96797W        W69222  44.296   3.711   0.405
96798W        W69223  21.124  14.102  13.427
96799W        W69224  11.236   2.371   0.935
96800W        W69225  32.007  10.868  12.009
96801W        W69226   3.824  40.909  14.897
96802W        W69227  11.219   6.697   0.248
96803W        W69228  24.622   9.316   4.294
96804W        W69229   7.388  20.579   1.352
96805W        W69230  37.025  37.399   3.161
96806W        W69231   1.906  36.437  10.923
96807W        W69232  24.196  27.649  14.463
96808W        W69233  32.098  10.748  12.419
96809W        W69234  26.470  27.174   5.164
96810W        W69235   4.811   1.321  14.390
96811W        W69236  11.782  30.591   4.298
96812W        W69237  32.591  26.628  10.488
96813W        W69238   9.810  35.512  11.005
96814W        W69239   7.816   7.880  12.839
96815W        W69240   2.381   2.385  14.354
96816W        W69241  28.443  14.730   0.783
96817W        W69242  16.795  44.295  12.551
96818W        W69243   4.772  10.845  14.413
96819W        W69244   4.279  26.050  12.445
96820W        W69245  23.078  10.181   3.214
96821W        W69246  37.923  13.600   0.289
96822W        W69247  30.979   7.297   3.323
96823W        W69248  40.979  30.488   0.411
96824W        W69249  19.582  37.843   3.216
96825W        W69250  10.802  26.595  10.510
96826W        W69251  21.253  27.654  12.535
96827W        W69252  20.088  35.456   1.876
96828W        W69253  34.594   0.945   2.682
96829W        W69254  26.531  10.738   2.326
96830W        W69255  35.892  44.936   0.910
96831W        W69256  20.737  22.532   3.190
96832W        W69257  36.069  10.847   3.770
96833W        W69258   8.840  18.571  13.429
96834W        W69259  20.699  42.345   1.371
96835W        W69260   9.235  22.670  13.388
96836W        W69261   4.822  27.650   3.632
96837W        W69262   1.866  40.998   0.822
96838W        W69263  43.489  14.173   5.303
96839W        W69264  39.902  22.033   4.137
96840W        W69265   6.347   9.342   1.769
96841W        W69266   9.689  11.213   3.852
96842W        W69267  29.132  42.452   1.248
96843W        W69268  15.111  16.306   4.114
96844W        W69269  33.495  11.730   1.759
96845W        W69270  33.070  18.639  12.833
96846W        W69271  42.288  41.024  14.509
96847W        W69272  16.706  31.923  14.505
96848W        W69273  44.460   0.485  10.019
96849W        W69274  34.009   7.751  12.049
96850W        W69275  11.314  18.617  13.961
96851W        W69276  22.640   0.451  14.280
96852W        W69277   8.660  35.018  14.373
96853W        W69278  15.601   0.409   5.572
96854W        W69279  42.976  15.771   2.822
96855W        W69280  23.616  16.666  11.376
96856W        W69281   3.223  23.691   9.931
96857W        W69282  25.671  28.534   2.710
96858W        W69283   6.267  33.967   3.793
96859W        W69284  15.631  13.337   0.826
96860W        W69285  37.547  18.644   5.086
96861W        W69286  38.053  39.856   1.849
96862W        W69287  39.452  31.481  13.883
96863W        W69288  27.015   1.368  14.391
96864W        W69289  38.362   0.756   3.261
96865W        W69290  29.052  24.020  11.015
96866W        W69291   0.768  24.121   1.893
96867W        W69292  10.171  33.999  10.607
96868W        W69293  34.400  43.515  11.109
96869W        W69294  38.867  26.059  12.523
96870W        W69295   0.322  43.498  13.542
96871W        W69296  29.947  23.489  14.859
96872W        W69297  36.485  30.412  10.517
96873W        W69298   7.278  28.086   4.794
96874W        W69299  13.612  42.501  14.962
96875W        W69300   5.304  42.347  10.599
96876W        W69301  28.101   6.363  11.968
96877W        W69302  31.570  41.321   3.162
96878W        W69303   3.456   7.327   1.278
96879W        W69304  37.953  39.061  11.018
96880W        W69305   9.341   8.331   9.478
96881W        W69306  36.963  42.914  11.092
96882W        W69307  43.793  30.080   1.740
96883W        W69308  24.053  15.149  12.555
96884W        W69309  34.055  37.464   0.292
96885W        W69310  26.541  44.453  13.365
96886W        W69311  13.714  29.625   3.837
96887W        W69312  11.234  41.322   2.232
96888W        W69313  16.589  27.582   1.371
96889W        W69314  10.783  32.588   4.323
96890W        W69315  10.265   2.293  14.904
96891W        W69316   9.293  10.162  14.486
96892W        W69317   4.784  37.989  12.911
96893W        W69318  12.710   9.231  12.009
96894W        W69319  42.005  27.682  13.910
96895W        W69320  15.112  12.734   0.834
96896W        W69321  12.746  34.026  13.943
96897W        W69322   8.344  11.643  14.488
96898W        W69323  43.452  42.491  14.925
96899W        W69324   6.282  10.842   0.735
96900W        W69325  37.552  28.531  14.426
96901W        W69326  34.434   7.718   4.718
96902W        W69327  32.008  24.030   0.406
96903W        W69328   6.693  30.488  11.573
96904W        W69329   0.349   7.720  14.321
96905W        W69330  40.889  15.151   2.377
96906W        W69331  28.070  42.485  13.436
96907W        W69332  32.045  23.189   1.416
96908W        W69333  14.230  26.194  14.996
96909W        W69334  40.431  25.034  13.370
96910W        W69335  39.559  16.593   4.120
96911W        W69336  15.101  18.585  11.601
96912W        W69337  39.911  33.516   1.843
96913W        W69338  33.004  39.909  12.569
96914W        W69339  15.278  36.884  10.575
96915W        W69340  28.973  40.304   1.767
96916W        W69341  13.118  33.550  14.441
96917W        W69342   7.368   7.279   0.935
96918W        W69343  38.933  40.480   0.326
96919W        W69344  42.972  17.775   3.651
96920W        W69345  30.998   1.835  10.075
96921W        W69346  44.895  33.475  10.502
96922W        W69347   7.897   8.218   0.728
96923W        W69348  31.530  41.441  11.862
96924W        W69349  13.270  39.531   0.935
96925W        W69350  22.236  29.108  14.332
96926W        W69351  43.845  27.464  14.423
96927W        W69352  44.849  32.885  10.603
96928W        W69353  11.322  30.953  14.785
96929W        W69354  29.114  36.544   4.686
96930W        W69355   9.747  10.786   2.749
96931W        W69356   1.385  18.732  10.642
96932W        W69357  42.973  41.818  13.390
96933W        W69358   8.162  20.765  14.408
96934W        W69359   9.332   6.362   2.344
96935W        W69360   2.447  30.050   3.353
96936W        W69361   1.466  18.617   0.860
96937W        W69362  37.563  10.869   4.207
96938W        W69363  27.024  31.536   0.295
96939W        W69364   1.763  30.973   0.451
96940W        W69365  27.161  14.146   4.705
96941W        W69366  32.051  33.530  11.487
96942W        W69367  40.898  21.141   3.228
96943W        W69368  12.295  26.957   2.672
96944W        W69369  33.076  34.541  13.038
96945W        W69370  17.288  24.200  13.352
96946W        W69371   7.687  42.911  14.804
96947W        W69372  31.962  32.417   1.387
96948W        W69373  10.804  32.071   1.781
96949W        W69374   3.328  38.062  13.883
96950W        W69375   8.369   4.781  12.507
96951W        W69376  23.062  26.112  10.919
96952W        W69377   1.431  39.370   4.127
96953W        W69378  39.368  37.969  12.365
96954W        W69379  34.382  33.395  10.428
96955W        W69380  27.954  26.673  11.567
96956W        W69381  24.533  43.944  14.766
96957W        W69382   0.422  29.159   0.452
96958W        W69383  44.371  39.055  11.956
96959W        W69384  21.099  10.284   0.909
96960W        W69385  36.555  14.593   0.844
96961W        W69386  33.476  15.803  11.552
96962W        W69387   6.307  40.965  13.522
96963W        W69388  12.804   4.322  13.984
96964W        W69389   8.317  37.901  12.922
96965W        W69390   2.777   2.733   1.817
96966W        W69391  36.495  32.967  11.936
96967W        W69392  10.139  25.973  10.470
96968W        W69393  20.161  31.424  11.425
96969W        W69394   7.389  39.996  10.890
96970W        W69395   9.793  35.525   5.784
96971W        W69396  33.400  12.291  14.955
96972W        W69397   8.180  24.134   4.719
96973W        W69398  13.165  22.038   5.570
96974W        W69399  12.333  27.974   4.231
96975W        W69400  10.267  30.033   4.254
96976W        W69401  27.193  20.598   1.852
96977W        W69402  31.911  32.059   2.718
96978W        W69403  28.627  12.324   4.327
96979W        W69404   0.986  12.354   4.726
96980W        W69405  22.706  27.455   4.328
96981W        W69406  30.609   4.859  11.870
96982W        W69407  26.657  31.548  12.080
96983W        W69408   8.853  10.305   0.244
96984W        W69409  25.113  19.247   2.216
96985W        W69410  40.865  25.967  14.933
96986W        W69411  10.820  26.143   2.195
96987W        W69412  40.854  19.617   2.714
96988W        W69413  18.216  40.857  12.847
96989W        W69414   4.943  32.545   0.759
96990W        W69415  13.714   9.673  13.918
96991W        W69416  17.740  19.191   3.238
96992W        W69417   9.161  19.084   3.236
96993W        W69418  19.668  34.040  14.464
96994W        W69419  16.183  19.096   4.758
96995W        W69420  13.845  36.923  12.408
96996W        W69421  40.817   9.284   1.438
96997W        W69422  25.048  20.146  10.981
96998W        W69423   9.311  43.839  11.961
96999W        W69424  18.614  28.456   3.146
97000W        W69425  23.087  43.299  12.092
97001W        W69426  31.045  40.813   0.822
97002W        W69427  17.716  27.110  10.415
97003W        W69428  32.402  25.480   3.691
97004W        W69429  43.953  21.619  14.458
97005W        W69430  28.580  20.208   2.729
97006W        W69431  42.991  18.262   0.319
97007W        W69432  36.895  10.821  11.960
97008W        W69433  44.415  37.505  12.867
97009W        W69434  16.717  33.879   2.196
97010W        W69435   6.885   6.221  12.528
97011W        W69436   5.216  34.024   3.227
97012W        W69437   2.906  17.711  12.380
97013W        W69438  38.375  44.420   4.205
97014W        W69439  38.570  28.024  12.082
97015W        W69440  38.836   1.468   1.860
97016W        W69441  24.508  25.155   0.747
97017W        W69442  30.455  29.019   4.603
97018W        W69443  22.214  30.568   3.167
97019W        W69444  42.957  34.436  10.106
97020W        W69445  44.331   1.893   1.399
97021W        W69446  41.984  23.186  14.400
97022W        W69447  19.689  11.148  14.861
97023W        W69448  24.021   7.246  12.425
97024W        W69449  32.024  33.529  13.842
97025W        W69450  14.284  38.923   1.822
97026W        W69451   0.754  19.247   0.964
97027W        W69452   2.896  39.867   4.346
97028W        W69453  10.294  39.464   1.793
97029W        W69454  38.489  33.073  12.012
97030W        W69455  37.846  23.516   1.829
97031W        W69456  19.266  42.525  10.559
97032W        W69457   1.809  26.533   1.338
97033W        W69458  18.760  11.284   3.781
97034W        W69459  42.508  13.199  13.855
97035W        W69460  10.196  34.462  13.973
97036W        W69461  35.476  14.221  11.956
97037W        W69462  24.673  42.440   0.935
97038W        W69463   9.330  42.021   2.697
97039W        W69464  16.294  13.719  13.877
97040W        W69465   0.951   7.786  14.513
97041W        W69466  25.111   3.331   1.440
97042W        W69467  21.678  31.460  12.929
97043W        W69468  39.053  13.796  12.823
97044W        W69469  27.465  12.696  11.099
97045W        W69470  15.744  34.444  12.969
97046W        W69471  14.125   4.445   0.334
97047W        W69472   2.872  34.463   3.329
97048W        W69473  23.581   2.346  11.917
97049W        W69474  26.557  30.636   4.740
97050W        W69475  21.065  41.999  11.907
97051W        W69476  10.238  24.220   2.299
97052W        W69477  32.057   7.288   0.301
97053W        W69478  30.569  17.114  11.015
97054W        W69479  19.186  40.042  13.463
97055W        W69480  44.425  20.672   0.788
97056W        W69481  41.852  31.023   2.799
97057W        W69482  40.480  33.941   0.407
97058W        W69483   1.330  22.603   4.319
97059W        W69484  18.548   5.719   4.660
97060W        W69485  32.517  11.220   0.779
97061W        W69486   7.252  37.016  13.938
97062W        W69487   0.374  24.993  14.278
97063W        W69488  13.611  39.930   2.744
97064W        W69489  36.587  33.995  13.003
97065W        W69490   7.676  29.504   2.701
97066W        W69491   7.697  38.490  11.075
97067W        W69492  16.260  29.116   0.763
97068W        W69493  12.292  12.263   4.714
97069W        W69494  30.112   9.818  11.916
97070W        W69495  31.510  28.941  12.391
97071W        W69496  39.555   6.360  12.844
97072W        W69497  34.539  26.582  11.857
97073W        W69498  33.587  31.457   4.717
97074W        W69499  24.182  44.877  12.926
97075W        W69500  27.501   3.336   1.257
97076W        W69501  13.161  21.716  13.831
97077W        W69502  29.531   9.884  12.931
97078W        W69503  30.430  41.536  11.435
97079W        W69504  35.068  42.350  13.036
97080W        W69505  25.699  23.672  13.540
97081W        W69506  37.403   0.849  13.354
97082W        W69507  40.889  12.847  12.439
97083W        W69508  20.029  13.312   1.747
97084W        W69509   5.754  15.189   3.747
97085W        W69510  22.237  44.390  13.825
97086W        W69511   5.868   7.194  13.332
97087W        W69512   2.323  26.641   3.821
97088W        W69513  21.138  18.690  14.391
97089W        W69514  40.455  41.386  11.058
97090W        W69515   3.894   5.353   1.778
97091W        W69516  35.071  32.906  13.033
97092W        W69517   2.463  24.651  11.436
97093W        W69518  37.016   0.447  11.859
97094W        W69519   6.309  21.218   3.661
97095W        W69520  10.250  32.044  11.934
97096W        W69521  17.628  15.299  12.923
97097W        W69522  21.026   1.741   4.622
97098W        W69523   6.389  12.794   0.471
97099W        W69524  31.590  28.516  12.965
97100W        W69525  44.489  16.223   0.830
97101W        W69526   9.245  24.486  13.929
97102W        W69527  20.181  34.487   0.739
97103W        W69528  36.405  24.023  13.433
97104W        W69529  24.541  24.047  12.521
97105W        W69530   5.354  16.766   1.777
97106W        W69531  32.454  27.504   2.679
97107W        W69532   7.719  25.584   3.646
97108W        W69533  43.504  26.570   2.223
97109W        W69534  15.758  40.354  12.410
97110W        W69535  19.576  16.264   0.424
97111W        W69536  26.497  11.131   3.696
97112W        W69537  21.634  15.588  10.631
97113W        W69538  24.563  25.038  10.933
97114W        W69539  42.779   8.287   4.625
97115W        W69540  28.167  35.015  11.459
97116W        W69541   1.342  35.003   1.298
97117W        W69542  43.899  43.477   2.790
97118W        W69543  36.911   8.756  13.817
97119W        W69544  12.190   2.814  12.569
97120W        W69545  30.603  12.292   2.346
97121W        W69546  41.858  10.797  12.911
97122W        W69547  13.305  42.396  14.810
97123W        W69548   1.359  24.973   0.439
97124W        W69549  21.102  43.877  10.975
97125W        W69550  27.179  39.379  12.414
97126W        W69551  37.566   3.776  11.473
97127W        W69552  37.554   8.238   1.213
97128W        W69553   9.359   5.421   3.702
97129W        W69554   9.242  17.789  13.920
97130W        W69555  43.453  42.871  10.589
97131W        W69556  13.696  36.926   4.709
97132W        W69557   2.385   3.400   4.690
97133W        W69558   5.866  31.525   2.282
97134W        W69559  44.419  21.218   3.199
97135W        W69560  35.083   7.780  13.346
97136W        W69561   6.313  26.975   0.939
97137W        W69562  40.498  44.787  11.461
97138W        W69563  42.469   2.320   4.623
97139W        W69564   1.459  15.720   3.189
97140W        W69565   5.907  44.368  13.450
97141W        W69566  35.588  20.715   4.802
97142W        W69567  30.564  41.480  12.552
97143W        W69568  36.076  29.102   3.754
97144W        W69569  15.798  32.122  12.093
97145W        W69570  44.771   2.359   1.879
97146W        W69571  33.424  20.104  11.385
97147W        W69572   5.808  33.428   1.803
97148W        W69573  12.668  42.522  10.482
97149W        W69574   5.879   1.886   0.756
97150W        W69575  43.444  40.391  14.928
97151W        W69576  36.986   9.259  11.544
97152W        W69577  12.153   9.657   0.860
97153W        W69578  17.775   3.717  12.921
97154W        W69579   5.755  31.135   0.929
97155W        W69580  39.900  24.161  12.932
97156W        W69581   4.370  33.623   4.305
97157W        W69582  18.641  22.500   3.858
97158W        W69583  28.162  40.030  12.516
97159W        W69584  20.615  36.854   0.759
97160W        W69585  33.434  20.187   1.926
97161W        W69586   7.316  23.688   4.827
97162W        W69587   7.811  44.429  12.073
97163W        W69588  33.887  15.773  12.401
97164W        W69589  31.080  31.058  10.606
97165W        W69590  24.622  40.314  10.506
97166W        W69591  42.325  21.645   1.738
97167W        W69592  12.794  42.406  13.830
97168W        W69593  44.267   9.648  11.890
97169W        W69594   4.862  16.724  11.002
97170W        W69595  43.950  36.490  12.833
97171W        W69596  35.967  26.676   4.770
97172W        W69597  34.951  14.610  14.460
97173W        W69598  13.660  37.926   3.693
97174W        W69599  19.229   9.355  13.872
97175W        W69600  31.419  30.116  14.773
97176W        W69601  26.530  27.628  14.013
97177W        W69602  18.122  29.106  13.323
97178W        W69603   2.826  27.007  13.400
97179W        W69604  10.794  28.663  12.401
97180W        W69605  29.023   8.162   3.713
97181W        W69606  29.470  43.369  14.456
97182W        W69607  22.043   1.939   4.624
97183W        W69608  31.060  42.978   1.315
97184W        W69609  44.858  35.049  14.815
97185W        W69610   2.346  34.064   3.365
97186W        W69611  25.112  44.774   0.259
97187W        W69612   8.191  26.632  14.997
97188W        W69613  41.498   9.149   4.305
97189W        W69614  19.620  41.465  13.347
97190W        W69615  32.118  33.437  10.982
97191W        W69616  24.646  39.349  10.961
97192W        W69617  11.866  23.151   2.181
97193W        W69618  34.595  42.978  13.861
97194W        W69619  13.737  21.664   4.151
97195W        W69620  41.044  37.866  13.533
97196W        W69621  11.356  24.516   0.910
97197W        W69622   3.916  13.312  12.061
97198W        W69623  40.914   8.339   0.766
97199W        W69624  14.621  15.216  10.428
97200W        W69625  30.992  35.091  13.960
97201W        W69626  11.749  43.941   4.600
97202W        W69627   6.823  41.405   0.283
97203W        W69628  35.969  36.398  13.329
97204W        W69629  27.020   7.754   2.672
97205W        W69630  41.372  10.639   3.215
97206W        W69631  17.719  42.449   3.201
97207W        W69632  12.207   7.243   2.749
97208W        W69633  20.687  28.659  11.407
97209W        W69634  19.717   0.892   2.713
97210W        W69635  12.143  24.510  11.491
97211W        W69636  15.699   0.756   3.264
97212W        W69637  17.073  31.584   4.686
97213W        W69638  12.331  16.281   4.212
97214W        W69639  23.700  27.171  10.487
97215W        W69640  25.648  35.532   4.657
97216W        W69641  31.113  12.820  13.980
97217W        W69642  21.520  34.473   1.235
97218W        W69643  11.134  36.879   4.209
97219W        W69644  22.705  43.354  13.861
97220W        W69645   4.847   3.293   1.299
97221W        W69646   1.921  14.681  14.487
97222W        W69647   4.903   2.899  13.988
97223W        W69648  17.215   4.740   4.631
97224W        W69649  39.835  29.650   4.729
97225W        W69650  40.320  24.206   3.270
97226W        W69651  32.437  18.082   2.731
97227W        W69652   4.325  18.757   2.860
97228W        W69653  22.051  17.246   4.318
97229W        W69654  18.780  20.725   3.318
97230W        W69655   3.405  32.127   3.303
97231W        W69656  18.735   4.754   1.219
97232W        W69657  31.530  33.602  11.447
97233W        W69658  34.033  24.030  11.859
97234W        W69659  28.677  19.608  14.836
97235W        W69660  42.370  10.695  10.928
97236W        W69661  13.811  42.300  10.480
97237W        W69662  29.972  43.332  12.999
97238W        W69663  12.243   0.860   0.728
97239W        W69664  35.889  39.554  10.570
97240W        W69665  14.648  31.109  14.860
97241W        W69666   9.273  14.821  13.467
97242W        W69667  21.112  22.623   1.707
97243W        W69668  17.220  17.269   0.836
97244W        W69669  18.192   3.893   2.244
97245W        W69670  44.926  25.998   1.304
97246W        W69671  25.504   3.907   4.142
97247W        W69672  27.137  23.202   4.787
97248W        W69673  24.652  44.851  11.606
97249W        W69674  24.643  15.097  14.853
97250W        W69675  35.932  38.555  10.914
97251W        W69676  16.674  16.162  13.345
97252W        W69677   7.767  12.764  13.896
97253W        W69678  36.911  21.690  14.873
97254W        W69679  16.210  15.813  12.565
97255W        W69680   2.282  25.618  11.930
97256W        W69681  21.250   7.269   3.357
97257W        W69682  37.008  36.063   4.740
97258W        W69683  43.900  35.973   1.902
97259W        W69684  32.450  38.875   0.856
97260W        W69685  36.414  10.262   4.821
97261W        W69686  25.687  31.467   3.215
97262W        W69687  39.032  31.053  11.038
97263W        W69688   6.853   9.209  13.000
97264W        W69689  35.401   3.383   3.236
97265W        W69690   2.455  13.652   0.384
97266W        W69691  32.915  31.409   0.368
97267W        W69692  20.213  28.963   2.373
97268W        W69693  31.567   9.880   1.282
97269W        W69694  26.102  27.078   0.462
97270W        W69695   0.745  18.736   0.328
97271W        W69696   0.422  21.543  12.345
97272W        W69697  33.478  20.565   1.447
97273W        W69698  21.163   3.333  10.479
97274W        W69699   9.214  20.667   3.338
97275W        W69700  12.146  24.987  12.431
97276W        W69701   8.874  25.010   1.903
97277W        W69702  15.691  31.506  14.408
97278W        W69703   0.342  24.126  14.876
97279W        W69704  38.329   0.271   2.845
97280W        W69705   3.370  38.031   1.319
97281W        W69706  22.733   4.777  11.386
97282W        W69707   5.894  44.801   3.334
97283W        W69708  22.181  39.401   2.264
97284W        W69709  16.274  31.411  13.455
97285W        W69710  32.061  29.138  11.024
97286W        W69711  10.165  28.564   0.382
97287W        W69712  11.753  35.524   3.746
97288W        W69713  26.510  28.021   0.766
97289W        W69714  36.990  32.982   2.849
97290W        W69715  25.167  10.217  14.954
97291W        W69716  28.041  43.009   4.803
97292W        W69717  37.343  37.908   1.311
97293W        W69718  29.429  25.649   3.164
97294W        W69719  34.062  40.466  14.447
97295W        W69720  24.104  10.191   3.867
97296W        W69721  18.128  18.724  12.902
97297W        W69722   7.227  31.572  10.890
97298W        W69723  21.604  39.003  12.525
97299W        W69724  29.956   4.212  13.350
97300W        W69725   6.790  26.546  12.912
97301W        W69726  41.937  38.343   3.219
97302W        W69727  34.512  17.739   0.429
97303W        W69728  15.697  30.618   2.777
97304W        W69729  38.485  33.518   2.247
97305W        W69730  25.203   0.427   3.265
97306W        W69731  43.011  14.602  10.409
97307W        W69732   1.359  23.083   2.191
97308W        W69733  40.990  23.188  13.336
97309W        W69734  17.119  35.978  10.631
97310W        W69735  11.721  14.712  10.419
97311W        W69736  18.220  36.578  13.039
97312W        W69737  28.033  12.141   2.332
97313W        W69738  10.336  44.478   3.824
97314W        W69739  39.325   3.255   0.731
97315W        W69740   4.741   6.368  11.462
97316W        W69741   7.273  36.578  13.494
97317W        W69742  42.477  11.655  13.376
97318W        W69743  43.383  16.185   1.441
97319W        W69744  44.941  40.479  12.885
97320W        W69745  39.473  15.125  14.436
97321W        W69746  31.424  43.815   3.360
97322W        W69747  11.367  12.144  12.994
97323W        W69748  15.732  43.377  12.471
97324W        W69749  43.949  17.126  11.489
97325W        W69750   4.782  16.090  11.944
97326W        W69751  14.626   5.294  13.862
97327W        W69752  33.560  34.411   2.397
97328W        W69753  43.318   9.733   0.864
97329W        W69754  26.647   1.896   0.453
97330W        W69755  40.315   5.334   0.476
97331W        W69756  19.080  24.128  12.958
97332W        W69757   2.332  41.525  10.109
97333W        W69758   7.350  30.026   0.746
97334W        W69759  36.571  30.918   4.809
97335W        W69760  39.944  18.250  13.385
97336W        W69761  18.744   5.844  11.960
97337W        W69762  15.284  14.226  14.371
97338W        W69763  29.497  15.258  11.405
97339W        W69764  35.489   9.822   4.279
97340W        W69765  24.483  12.632   3.355
97341W        W69766  22.038   1.940  10.991
97342W        W69767  26.019  21.192   3.222
97343W        W69768  39.838  27.946   2.351
97344W        W69769  34.970  43.935   0.771
97345W        W69770  26.491  18.770   1.370
97346W        W69771  32.005  39.045   1.396
97347W        W69772  38.396   5.694  14.847
97348W        W69773  13.300  38.539  13.482
97349W        W69774  43.377  21.183  11.465
97350W        W69775  12.144  37.394   1.753
97351W        W69776  40.013   5.722  14.462
97352W        W69777  30.526  39.545   2.266
97353W        W69778   8.670   4.705   1.443
97354W        W69779  29.607  34.001   3.828
97355W        W69780  17.301   0.803  14.350
97356W        W69781  17.222   7.683   2.895
97357W        W69782  12.256  41.394  12.387
97358W        W69783  33.017   3.284   0.263
97359W        W69784  22.154  37.387  12.409
97360W        W69785  34.466   1.822   0.846
97361W        W69786   6.408  41.910   4.334
97362W        W69787  41.937   7.409   1.289
97363W        W69788  33.622  44.989  10.981
97364W        W69789  17.629  10.328   9.969
97365W        W69790  22.726  29.501   4.254
97366W        W69791  10.669  25.085   5.143
97367W        W69792   4.782  38.354  13.368
97368W        W69793  18.647   6.207  13.003
97369W        W69794  32.634   7.198   3.198
97370W        W69795  15.588  38.995  11.873
97371W        W69796  31.553  25.970   1.294
97372W        W69797  17.718  32.079   1.844
97373W        W69798   7.190  41.498  12.378
97374W        W69799  28.604  15.584   2.697
97375W        W69800  24.524  18.721  14.849
97376W        W69801  44.377   5.929  10.486
97377W        W69802  31.976  37.008  10.528
97378W        W69803  23.012  28.930  13.826
97379W        W69804  26.668  25.712   2.817
97380W        W69805  31.047   4.863  13.049
97381W        W69806  24.542  38.523  12.470
97382W        W69807  34.442  23.710  13.505
97383W        W69808   8.197   0.322  11.967
97384W        W69809   3.248  42.934  14.921
97385W        W69810  32.562  33.974   0.967
97386W        W69811   2.925   2.439  10.938
97387W        W69812  42.295  20.650  13.526
97388W        W69813  17.721  35.595  12.447
97389W        W69814   1.434  35.878   1.218
97390W        W69815  11.345  14.143   1.384
97391W        W69816  41.897  41.499   1.266
97392W        W69817   3.800   0.359   1.812
97393W        W69818  33.493  40.021  13.805
97394W        W69819  10.287  25.698   1.239
97395W        W69820  43.904  20.552   4.140
97396W        W69821   6.741  11.372   1.262
97397W        W69822  44.966  18.178   2.673
97398W        W69823  38.545  22.129  14.813
97399W        W69824  38.382  36.939   4.355
97400W        W69825  12.704  38.850   0.264
97401W        W69826  14.250  31.601  14.788
97402W        W69827  13.695  36.965  13.367
97403W        W69828   6.683  28.519   0.960
97404W        W69829   3.746   9.372   4.608
97405W        W69830  26.100  10.315  11.601
97406W        W69831  26.514   7.276  14.864
97407W        W69832  10.714  33.004  11.927
97408W        W69833  37.999  29.960  14.334
97409W        W69834  15.800  42.293  14.416
97410W        W69835  24.606  23.721   2.358
97411W        W69836  22.531  12.705   4.239
97412W        W69837  18.182  23.143   3.324
97413W        W69838  10.192  41.453  12.867
97414W        W69839   4.837  13.350   3.290
97415W        W69840   8.400  20.081  12.556
97416W        W69841  20.529   9.271  13.387
97417W        W69842   8.254  34.088  10.447
97418W        W69843  17.132   9.679  12.559
97419W        W69844  33.036   9.809   1.222
97420W        W69845  12.333  16.582  11.597
97421W        W69846  39.894  35.984   2.279
97422W        W69847  23.606  26.608  14.930
97423W        W69848  13.327   9.165   2.851
97424W        W69849   7.244  25.119   3.710
97425W        W69850  30.909  25.171  10.912
97426W        W69851  38.382  24.051  10.617
97427W        W69852  35.927  31.138  11.607
97428W        W69853  32.532   3.953   0.851
97429W        W69854  40.802  16.088  12.048
97430W        W69855  20.527  40.311  11.045
97431W        W69856  30.636   3.447   0.278
97432W        W69857  11.650  31.996  10.503
97433W        W69858  14.778   8.673   3.784
97434W        W69859  10.781  24.088  14.775
97435W        W69860  13.670   9.864  14.332
97436W        W69861   0.277  11.188  13.487
97437W        W69862  22.009   4.366  13.353
97438W        W69863  19.223  17.301   0.884
97439W        W69864   8.747   0.754  13.022
97440W        W69865  31.423   4.939   4.614
97441W        W69866  24.634  36.386  11.538
97442W        W69867  44.328  40.996   1.341
97443W        W69868   6.910  39.815   0.865
97444W        W69869  18.082  37.336   3.253
97445W        W69870   9.738  28.942  13.438
97446W        W69871  25.645   7.409   1.812
97447W        W69872  13.328   6.295   0.358
97448W        W69873  38.885   7.731  14.476
97449W        W69874  23.596  43.849   2.868
97450W        W69875   4.432  39.872  14.427
97451W        W69876   9.695  36.858   0.298
97452W        W69877  23.142  35.025  14.483
97453W        W69878  43.794  18.084   4.600
97454W        W69879  40.950   4.404  10.944
97455W        W69880  30.982   9.167   3.696
97456W        W69881   2.785  27.015  14.441
97457W        W69882  31.978  28.112   2.881
97458W        W69883  19.722  20.188   1.935
97459W        W69884  43.802  20.063  12.364
97460W        W69885   6.214  18.279  11.580
97461W        W69886  18.721  12.188  13.436
97462W        W69887  18.651  32.101   2.325
97463W        W69888  12.744  40.867  13.956
97464W        W69889  22.676  13.612   1.918
97465W        W69890  21.648  35.858   1.313
97466W        W69891  19.725   4.847  12.032
97467W        W69892  20.129   2.439   0.251
97468W        W69893  10.771  34.027  13.443
97469W        W69894  11.776   3.730   3.685
97470W        W69895   1.890  17.756  12.465
97471W        W69896  35.087  28.125  12.006
97472W        W69897  22.506  40.916  12.940
97473W        W69898  44.387  15.794  10.443
97474W        W69899  33.912  40.462   3.718
97475W        W69900  25.475   1.413  13.434
97476W        W69901  25.002  44.407   1.755
97477W        W69902  24.534   4.335  10.433
97478W        W69903   0.936  16.207  10.485
97479W        W69904  23.553  35.999  12.868
97480W        W69905  39.031  34.940   3.273
97481W        W69906   3.297  26.637  13.407
97482W        W69907  44.356  26.985   0.418
97483W        W69908  36.862  11.254   1.707
97484W        W69909  20.035  30.482   5.800
97485W        W69910  36.096  32.615  13.328
97486W        W69911  24.047  22.536  14.313
97487W        W69912  44.395  38.393  12.879
97488W        W69913  27.454  13.317   4.749
97489W        W69914  26.540  16.214  10.914
97490W        W69915   9.815   1.284  13.391
97491W        W69916  34.527  43.793  14.393
97492W        W69917  40.305   4.710   0.389
97493W        W69918  29.458  36.070  10.047
97494W        W69919   9.662  30.920  12.008
97495W        W69920  34.560  42.386  12.401
97496W        W69921  15.801  22.059   3.322
97497W        W69922  12.217  18.634  10.938
97498W        W69923  41.353  10.281  11.460
97499W        W69924  16.207   3.879   3.847
97500W        W69925   8.285  44.425   3.852
97501W        W69926  26.195  28.064  12.513
97502W        W69927   6.250   7.289  14.449
97503W        W69928   8.201  35.921   3.175
97504W        W69929   9.307  17.650  12.546
97505W        W69930  18.125  44.851   1.245
97506W        W69931  30.003  24.029   4.327
97507W        W69932  38.329  42.454  14.875
97508W        W69933  10.140  44.473   0.950
97509W        W69934  18.059  41.957   1.364
97510W        W69935  23.002  40.360  14.299
97511W        W69936  27.627  19.268  12.447
97512W        W69937   5.845  14.770  11.953
97513W        W69938  21.178  30.531   4.648
97514W        W69939  19.701   3.720  13.389
97515W        W69940  13.795  31.610  13.471
97516W        W69941  19.220  12.235  11.500
97517W        W69942   0.282  32.505   0.955
97518W        W69943  17.587   4.275   3.804
97519W        W69944  11.708  12.171  13.009
97520W        W69945   7.838  42.503  14.439
97521W        W69946  27.508  16.284   2.732
97522W        W69947  42.827   6.397  13.365
97523W        W69948  33.520   0.379  10.022
97524W        W69949   4.921  35.496   0.962
97525W        W69950  10.859  12.705  14.314
97526W        W69951  31.976  42.896  10.417
97527W        W69952   9.734  33.534  14.422
97528W        W69953  18.070   8.197   2.255
97529W        W69954  44.964  15.140   1.448
97530W        W69955  22.029   4.827   2.812
97531W        W69956  11.173  12.648   1.747
97532W        W69957   1.436  17.759   3.239
97533W        W69958  28.089  20.574   1.806
97534W        W69959  35.888  34.373  11.480
97535W        W69960  18.709  33.030   0.321
97536W        W69961   7.685  24.592  12.557
97537W        W69962  19.278  19.058   0.954
97538W        W69963  35.107  31.983   4.283
97539W        W69964   6.195  41.917   1.778
97540W        W69965  17.753  33.933  12.402
97541W        W69966  21.668   1.864  14.509
97542W        W69967  29.483   0.816   2.329
97543W        W69968   0.875  33.415  10.644
97544W        W69969   0.374  23.569   3.648
97545W        W69970  20.587  22.531   2.789
97546W        W69971  13.637   7.824  11.109
97547W        W69972  33.573  44.428   4.282
97548W        W69973  26.667  35.565   0.881
97549W        W69974  17.640   8.171  13.860
97550W        W69975  13.218  35.391   0.455
97551W        W69976  39.061  10.189  13.406
97552W        W69977   6.809  19.260   1.698
97553W        W69978   0.751  41.789   0.823
97554W        W69979  27.533  41.838   3.365
97555W        W69980  17.080   9.691   1.863
97556W        W69981  33.975  34.428  11.501
97557W        W69982  25.018  29.440   4.170
97558W        W69983  14.606  42.918   2.270
97559W        W69984  34.436   0.409   0.787
97560W        W69985  11.316  37.050  11.030
97561W        W69986  17.747  38.957  11.496
97562W        W69987   4.843   8.668   1.904
97563W        W69988  11.255  39.426   1.375
97564W        W69989  37.580  41.875   5.288
97565W        W69990  23.511  37.951   1.397
97566W        W69991  21.122  35.885  13.005
97567W        W69992  16.783   9.207  10.460
97568W        W69993   6.394  27.455  13.934
97569W        W69994  13.713  31.520  12.407
97570W        W69995  18.205  33.118   0.464
97571W        W69996   6.783  20.170   0.399
97572W        W69997  24.061  25.219   2.228
97573W        W69998  40.436  37.525  10.462
97574W        W69999  40.512  38.543   2.323
97575W        W70000   3.823  43.300   4.185
97576W        W70001  28.087  34.981  10.601
97577W        W70002  28.537  14.133  13.485
97578W        W70003  14.306  31.456  12.438
97579W        W70004  43.346  39.370   3.259
97580W        W70005   9.847  15.153   0.260
97581W        W70006  41.999  43.002  10.124
97582W        W70007  30.983   0.937  12.044
97583W        W70008  12.119  15.307  10.571
97584W        W70009   7.317  30.097   0.385
97585W        W70010  44.775   3.329  10.483
97586W        W70011  17.755  33.976  14.375
97587W        W70012   3.314  15.326   0.863
97588W        W70013   6.331  26.520   4.326
97589W        W70014   0.882   8.239  14.399
97590W        W70015  30.978  21.589  12.836
97591W        W70016  21.547  11.165  12.919
97592W        W70017  18.623  19.745  13.325
97593W        W70018  13.303  40.911   0.878
97594W        W70019  26.086  19.735   3.377
97595W        W70020  38.484  27.551  14.278
97596W        W70021  44.292  16.782  10.133
97597W        W70022  44.890  34.444   3.316
97598W        W70023  26.647  29.024  10.025
97599W        W70024   8.840   0.891  10.620
97600W        W70025  33.609  10.182  12.545
97601W        W70026  43.962   0.472  11.430
97602W        W70027  32.428  31.986   4.256
97603W        W70028  18.628  25.104   4.193
97604W        W70029  43.275  33.415  10.506
97605W        W70030  26.181  17.595  14.821
97606W        W70031  36.525  10.741   4.783
97607W        W70032   4.226  25.605   0.757
97608W        W70033  21.741  14.694   0.459
97609W        W70034  38.042  14.236  12.823
97610W        W70035  35.075  17.263   0.291
97611W        W70036  35.873   7.688   0.928
97612W        W70037  38.902  24.541  12.928
97613W        W70038   3.259   1.459   3.806
97614W        W70039  34.543  17.073   1.341
97615W        W70040  24.116   6.686  12.546
97616W        W70041  36.891  15.656   0.361
97617W        W70042   9.266  42.934   2.416
97618W        W70043  39.374  32.961  11.937
97619W        W70044  10.265   2.292  12.939
97620W        W70045  13.125  25.129  13.824
97621W        W70046  20.244   7.756  11.401
97622W        W70047   7.766  41.984  12.887
97623W        W70048  11.791   8.803   5.083
97624W        W70049  20.176  36.463  12.874
97625W        W70050  28.980  34.610   2.812
97626W        W70051  28.041  35.958  14.012
97627W        W70052  30.620  33.407   2.899
97628W        W70053   4.725  44.898   2.848
97629W        W70054   6.377   4.397   4.114
97630W        W70055  11.367  18.199   4.723
97631W        W70056  25.108  33.481  13.812
97632W        W70057  36.853   2.364  12.507
97633W        W70058  20.547  37.540   4.678
97634W        W70059  40.377   8.698  10.481
97635W        W70060  30.983  37.361   2.285
97636W        W70061  29.047  26.957  14.305
97637W        W70062  19.622   3.250   2.408
97638W        W70063  17.095   6.281  12.493
97639W        W70064  22.201  16.094   4.599
97640W        W70065  17.195  26.530   2.383
97641W        W70066   6.187  18.630  14.769
97642W        W70067  21.727   3.326   2.668
97643W        W70068  26.488  38.470   2.807
97644W        W70069   7.691  15.817   4.338
97645W        W70070   1.815  31.447   1.842
97646W        W70071  10.181  17.275   3.745
97647W        W70072  10.196  19.553  10.903
97648W        W70073  25.976   4.368  14.014
97649W        W70074   9.313  16.677  12.521
97650W        W70075  29.645  33.132   4.644
97651W        W70076  25.118   6.232   2.762
97652W        W70077  27.943  33.418   1.290
97653W        W70078  19.076  40.319   4.140
97654W        W70079   8.328  25.651   1.341
97655W        W70080   1.901  22.661   3.329
97656W        W70081  41.808  38.858  14.760
97657W        W70082  11.271  17.083  14.762
97658W        W70083  43.888  15.736  12.545
97659W        W70084  41.896   1.278   1.391
97660W        W70085  32.494  37.853   0.857
97661W        W70086  30.982  32.103  10.147
97662W        W70087  37.556  31.151   3.339
97663W        W70088   4.826  20.226   2.782
97664W        W70089  22.137   3.825   2.390
97665W        W70090  24.070   7.277  10.895
97666W        W70091  23.544  11.725   2.367
97667W        W70092  11.300  17.723  10.577
97668W        W70093  23.103  40.041   3.729
97669W        W70094  10.690  35.380   2.717
97670W        W70095  40.489  28.078  10.890
97671W        W70096  21.021  41.855   1.740
97672W        W70097   3.430  40.403   4.680
97673W        W70098   3.220  20.041   0.867
97674W        W70099   2.920  14.207  13.852
97675W        W70100  33.386   6.403   1.740
97676W        W70101   4.395   2.293   1.216
97677W        W70102  19.739  16.705   3.262
97678W        W70103  40.396   6.427   3.166
97679W        W70104  13.138  13.176   1.813
97680W        W70105  33.035   1.376  13.995
97681W        W70106  16.632   3.293  11.119
97682W        W70107  29.641  13.249   4.725
97683W        W70108  29.655  29.117   1.746
97684W        W70109  14.700  21.522   5.234
97685W        W70110  11.197  30.443   3.710
97686W        W70111  14.235  25.539  10.445
97687W        W70112  13.735   3.333   0.259
97688W        W70113  10.352   8.781   4.121
97689W        W70114  32.024  34.467   0.261
97690W        W70115  12.794   2.370  13.912
97691W        W70116  32.510  26.592   2.320
97692W        W70117  19.700  19.736  14.500
97693W        W70118  38.055  27.572   0.927
97694W        W70119  10.687  23.635   1.430
97695W        W70120  23.577  23.675  13.010
97696W        W70121   4.726  31.579   0.769
97697W        W70122  30.534  34.885   3.219
97698W        W70123  24.635  28.530   0.345
97699W        W70124  22.708  24.503   4.782
97700W        W70125  11.321  21.240  12.920
97701W        W70126  40.439   4.863   0.782
97702W        W70127  41.403  11.855   2.390
97703W        W70128  20.541  21.207  13.047
97704W        W70129  36.065  17.123  12.858
97705W        W70130  36.085  17.795   0.254
97706W        W70131  19.154   9.888   4.348
97707W        W70132  25.011  18.127   4.235
97708W        W70133  21.745   8.306   3.812
97709W        W70134  33.000  30.945  12.469
97710W        W70135  17.293  38.508  11.598
97711W        W70136  37.943  35.901  12.485
97712W        W70137   2.248  10.288  12.536
97713W        W70138  22.115  44.414   1.350
97714W        W70139  10.155  41.968  11.071
97715W        W70140  33.942   1.780  13.325
97716W        W70141  20.151   0.291  11.520
97717W        W70142  17.295   1.786   1.293
97718W        W70143  10.194  30.924   1.825
97719W        W70144  36.938  14.226   2.371
97720W        W70145  32.132  30.516   4.765
97721W        W70146  40.925   1.846   4.153
97722W        W70147  23.052  44.402   1.744
97723W        W70148  11.236  25.101   2.722
97724W        W70149   6.693  27.092   2.796
97725W        W70150  39.405  42.307  11.088
97726W        W70151  22.677   3.953   3.858
97727W        W70152   9.819  16.276   4.801
97728W        W70153  21.570  17.645  11.418
97729W        W70154   0.265  14.266   2.361
97730W        W70155  17.085  30.080  13.330
97731W        W70156   1.383  23.123  13.013
97732W        W70157  12.305  23.037  13.308
97733W        W70158  36.379   7.211  14.787
97734W        W70159  36.454  34.431  11.499
97735W        W70160  21.548   0.307  10.560
97736W        W70161  22.664  17.278  12.404
97737W        W70162  33.439  22.711  12.973
97738W        W70163  11.713   7.236   5.263
97739W        W70164  14.657   5.698  12.475
97740W        W70165  36.373  12.738   0.279
97741W        W70166  10.310  22.227  14.970
97742W        W70167  41.473  29.924   4.775
97743W        W70168  23.515  25.019  12.354
97744W        W70169   0.793  10.344  12.021
97745W        W70170  17.585   4.814  11.075
97746W        W70171  42.488  38.464  10.971
97747W        W70172  42.427  32.582   3.228
97748W        W70173   1.274   6.233   3.797
97749W        W70174  26.045  11.706  12.378
97750W        W70175   1.415  15.791   4.621
97751W        W70176   9.770  18.786  13.858
97752W        W70177  29.524  12.299  11.434
97753W        W70178  11.749   6.314  14.793
97754W        W70179  19.586  31.105  11.076
97755W        W70180  44.381  28.948  14.375
97756W        W70181  26.562  27.128  11.437
97757W        W70182  36.056  13.160  11.955
97758W        W70183   3.771  21.116  10.917
97759W        W70184   9.844  34.006  13.351
97760W        W70185  33.046  19.640   0.375
97761W        W70186  40.939  38.060  11.605
97762W        W70187   2.329  21.096   1.802
97763W        W70188   8.202  37.468  10.588
97764W        W70189  42.974  44.497  13.049
97765W        W70190  21.081  15.206   1.770
97766W        W70191  28.931  15.667   2.283
97767W        W70192  20.263  34.443  12.050
97768W        W70193  24.642  40.931   4.681
97769W        W70194  38.377  27.445   2.183
97770W        W70195  33.494   7.175   2.384
97771W        W70196   3.354  21.072   1.310
97772W        W70197  38.524  26.962   3.228
97773W        W70198  26.987  10.192   4.349
97774W        W70199   4.447  42.489  13.839
97775W        W70200  40.879  11.204  12.856
97776W        W70201  42.292  41.813   3.742
97777W        W70202  24.615   8.738   9.937
97778W        W70203  38.076  13.791   4.316
97779W        W70204  26.491  13.311  13.940
97780W        W70205   8.766  18.169   4.234
97781W        W70206   9.179  22.676   4.749
97782W        W70207  17.716  10.348  14.315
97783W        W70208  19.767  25.173  11.436
97784W        W70209   7.404   5.314  12.870
97785W        W70210  41.500  13.835  12.352
97786W        W70211  16.668  22.158  12.580
97787W        W70212  18.579  18.163   2.292
97788W        W70213  12.698  20.257   1.923
97789W        W70214   7.697  44.821  13.898
97790W        W70215  33.996  13.227   0.959
97791W        W70216  37.529  26.566   4.772
97792W        W70217   7.780  12.341   3.729
97793W        W70218   3.389  43.948  14.792
97794W        W70219  34.556  33.878  13.398
97795W        W70220   7.340  42.416   3.733
97796W        W70221   5.892  21.090   0.326
97797W        W70222   8.756   1.750   2.412
97798W        W70223   4.754  15.293  14.451
97799W        W70224   3.241  23.017   4.181
97800W        W70225  18.117  18.147   1.866
97801W        W70226  25.137  33.385   2.828
97802W        W70227  37.513  19.115   2.216
97803W        W70228  29.608  42.961  12.430
97804W        W70229  39.004  17.142  11.045
97805W        W70230   8.824  20.600  13.333
97806W        W70231  33.590   6.380  12.014
97807W        W70232  29.588  19.219  10.425
97808W        W70233   4.757  12.286  12.568
97809W        W70234   3.276  35.511   1.319
97810W        W70235  33.621  28.592   4.835
97811W        W70236   8.692  10.183   9.995
97812W        W70237  11.771   4.397  10.443
97813W        W70238  29.619  32.476   3.801
97814W        W70239  34.609   6.882  11.423
97815W        W70240  14.624  42.324   3.354
97816W        W70241  30.510   6.242   1.746
97817W        W70242  11.744  16.260   4.297
97818W        W70243  38.538  34.432  13.316
97819W        W70244  40.449  20.261  11.387
97820W        W70245   4.248  13.184  10.543
97821W        W70246  42.849  41.521   2.335
97822W        W70247  14.738  13.118   1.281
97823W        W70248  36.453  25.491   0.726
97824W        W70249   8.166  27.463  14.837
97825W        W70250  10.826   4.911   2.300
97826W        W70251  30.988  22.739  10.128
97827W        W70252  36.940  38.376   0.358
97828W        W70253  41.849  44.424  13.405
97829W        W70254  39.428  22.048   2.286
97830W        W70255  36.925  12.157  12.913
97831W        W70256   4.273  17.653  14.765
97832W        W70257  27.194  32.001  11.091
97833W        W70258  16.264  13.168   1.276
97834W        W70259   7.295  38.938   0.451
97835W        W70260  14.258   8.740   0.352
97836W        W70261  20.116   2.382  14.844
97837W        W70262  11.677  43.343  13.948
97838W        W70263  25.687  29.554  14.508
97839W        W70264   1.370  21.659  13.323
97840W        W70265  29.169  17.145   2.267
97841W        W70266  13.181  25.077   5.311
97842W        W70267  42.515  36.065  13.987
97843W        W70268  15.297  19.537  14.314
97844W        W70269  41.894  26.560  14.759
97845W        W70270  27.089  15.641  11.463
97846W        W70271  29.505  14.137   1.867
97847W        W70272  20.727   3.811  14.470
97848W        W70273  18.610  20.209   2.417
97849W        W70274  38.400  19.764   3.639
97850W        W70275  32.516   5.812  14.927
97851W        W70276  11.253  28.157   3.850
97852W        W70277  43.456   4.730   4.122
97853W        W70278  20.651  33.030   0.893
97854W        W70279  34.414  37.081   0.727
97855W        W70280  22.736  25.605   4.821
97856W        W70281  15.149   5.365   0.898
97857W        W70282  42.826   4.242   3.193
97858W        W70283  28.460   4.779  14.008
97859W        W70284  36.381  17.701   1.228
97860W        W70285  43.875  23.054   4.218
97861W        W70286  22.220  27.507  13.437
97862W        W70287  19.133  33.596   3.839
97863W        W70288   4.421  32.082   0.386
97864W        W70289  11.295  17.068  11.911
97865W        W70290   9.386  41.524  13.797
97866W        W70291  23.996   8.823   3.724
97867W        W70292   9.682  36.999   4.215
97868W        W70293   7.271  20.751  12.543
97869W        W70294  13.681  11.735  11.065
97870W        W70295  31.643   2.424   4.188
97871W        W70296  32.998  12.304  13.022
97872W        W70297   9.730   3.384  12.574
97873W        W70298  35.878  28.434   0.791
97874W        W70299  31.135  42.503  14.798
97875W        W70300  44.861   1.294   1.427
97876W        W70301  44.994   6.282   1.386
97877W        W70302  36.087  27.065  10.949
97878W        W70303  15.650  38.926  13.493
97879W        W70304   0.804  42.011  12.383
97880W        W70305  17.743   7.808   4.767
97881W        W70306  24.540  28.614   1.883
97882W        W70307  18.594  13.675  13.926
97883W        W70308  43.810  33.976   0.269
97884W        W70309  13.643  40.919   4.352
97885W        W70310   4.424  24.993   0.481
97886W        W70311  14.297  27.168   3.164
97887W        W70312  15.642  29.920   2.855
97888W        W70313  30.089   7.811  13.017
97889W        W70314  23.176  11.342   1.293
97890W        W70315  34.933  10.188   1.431
97891W        W70316  10.750  40.838   0.404
97892W        W70317  32.008  32.946  10.914
97893W        W70318   9.186  28.083  12.010
97894W        W70319   9.817  31.593  10.939
97895W        W70320  28.662  12.614   3.154
97896W        W70321  12.268  10.345  12.539
97897W        W70322   4.357  31.481   0.309
97898W        W70323  19.089  32.105  11.989
97899W        W70324  39.449   6.226   4.136
97900W        W70325  14.821  18.202   3.788
97901W        W70326  17.087  34.582  12.009
97902W        W70327  16.750   9.685   0.387
97903W        W70328  22.025   0.802  10.529
97904W        W70329  34.450  37.862  14.773
97905W        W70330  23.679   6.813  14.483
97906W        W70331  10.822  43.394  10.907
97907W        W70332   2.425   0.900  14.981
97908W        W70333  41.447  22.625  10.562
97909W        W70334  39.007   5.425   2.715
97910W        W70335  12.762  13.348   1.760
97911W        W70336  17.119   4.217  13.317
97912W        W70337  23.643  34.012   3.652
97913W        W70338  17.763  31.605  14.780
97914W        W70339  16.598  35.979  14.313
97915W        W70340  12.155   1.356   4.277
97916W        W70341  41.021   4.355  11.542
97917W        W70342  33.101  22.014  14.951
97918W        W70343  43.895  24.195  14.332
97919W        W70344  12.716  44.490  14.454
97920W        W70345  25.106  28.967  10.591
97921W        W70346  39.902  36.854  12.087
97922W        W70347   6.700  37.547   5.269
97923W        W70348  19.254  32.073  12.363
97924W        W70349  44.772   9.738   4.665
97925W        W70350   7.243  27.952   2.329
97926W        W70351  18.567   1.911  13.002
97927W        W70352  10.783   9.237   2.264
97928W        W70353   5.867   8.318  11.123
97929W        W70354  41.913  36.848  12.341
97930W        W70355  19.117  32.454  11.880
97931W        W70356  35.481  41.800  14.415
97932W        W70357  22.550  31.070  12.420
97933W        W70358  31.044  36.013   4.754
97934W        W70359  35.884  38.347   3.327
97935W        W70360  44.890   7.274   3.169
97936W        W70361   8.392   2.389   4.244
97937W        W70362  25.175  41.913   2.187
97938W        W70363  12.731   3.255  11.533
97939W        W70364  29.577   5.378   4.736
97940W        W70365  29.145   7.408   3.161
97941W        W70366   8.323  39.427  12.580
97942W        W70367  21.083  43.784  14.807
97943W        W70368  42.911   3.275  10.993
97944W        W70369  15.173  24.542   1.705
97945W        W70370  20.618  18.268  11.462
97946W        W70371  42.972  32.613   2.837
97947W        W70372  16.200  27.630  10.455
97948W        W70373  18.672   0.382   4.158
97949W        W70374  29.061  33.623   5.152
97950W        W70375   5.428  42.338   1.899
97951W        W70376  38.937   1.264  11.542
97952W        W70377   2.795  13.844  11.010
97953W        W70378  36.027  13.739  12.379
97954W        W70379  29.080  31.510   1.710
97955W        W70380  16.676  27.525  10.631
97956W        W70381   1.414  44.899   0.467
97957W        W70382  43.323  34.536  13.428
97958W        W70383  17.192  37.947   3.683
97959W        W70384   1.942  30.027  13.863
97960W        W70385  20.646  30.052  13.471
97961W        W70386  44.828  23.089   3.825
97962W        W70387  39.908  41.952   3.386
97963W        W70388   1.966   7.415   3.803
97964W        W70389  24.648  28.009   3.775
97965W        W70390  31.556  33.588  12.457
97966W        W70391  19.150  41.892   1.835
97967W        W70392   4.938  43.400  11.869
97968W        W70393  20.144  11.175  13.387
97969W        W70394  10.867  10.714  14.928
97970W        W70395  15.630   5.904   4.644
97971W        W70396  16.665  23.143  11.904
97972W        W70397  44.911  18.089  10.970
97973W        W70398  10.823  15.789   3.269
97974W        W70399  12.140  17.781  13.445
97975W        W70400   0.277   8.344  13.964
97976W        W70401  31.647  24.487   1.383
97977W        W70402  13.184  32.110  11.063
97978W        W70403  27.023  31.508   9.949
97979W        W70404  10.247  11.322   4.250
97980W        W70405  42.788  43.943   4.122
97981W        W70406  39.326  34.866  11.868
97982W        W70407  25.603  19.553  10.583
97983W        W70408   1.342  44.895  11.402
97984W        W70409  44.330  26.520   1.806
97985W        W70410   0.379  13.244   0.786
97986W        W70411  20.757  39.904   4.204
97987W        W70412  15.778  16.603  11.606
97988W        W70413  13.225  21.637   3.261
97989W        W70414  16.098  23.091  14.445
97990W        W70415  17.124  31.474  14.497
97991W        W70416   5.925   2.818  11.942
97992W        W70417  18.638  34.032  11.120
97993W        W70418  19.062  25.713  12.556
97994W        W70419  16.598  30.469   2.368
97995W        W70420  26.627   1.331   3.252
97996W        W70421   9.304   0.762   9.922
97997W        W70422  36.903  30.110   0.430
97998W        W70423   0.305  33.436   3.666
97999W        W70424   3.856  28.021   3.208
98000W        W70425  11.738  42.988  13.521
98001W        W70426  21.048  16.794   4.654
98002W        W70427   9.152  37.530   4.834
98003W        W70428  39.906  29.994   3.344
98004W        W70429   6.896   3.389   3.181
98005W        W70430  19.729  17.083  14.964
98006W        W70431  23.123  37.431  12.536
98007W        W70432   2.747  21.134  12.075
98008W        W70433   3.375   5.291  12.090
98009W        W70434  18.068  16.712   1.425
98010W        W70435  31.510  24.493   3.201
98011W        W70436   4.414  27.636   3.287
98012W        W70437  24.162  28.048   5.215
98013W        W70438  40.462   0.916   1.716
98014W        W70439  18.633   2.760   4.307
98015W        W70440  38.371  42.499   5.674
98016W        W70441  16.739  17.782  11.021
98017W        W70442  34.971  14.328  11.436
98018W        W70443  33.958   3.816  14.808
98019W        W70444  39.050  23.057  14.948
98020W        W70445  16.205  42.953  14.921
98021W        W70446  38.474  15.697  14.476
98022W        W70447  13.631  18.112   3.684
98023W        W70448  13.736  30.438  13.910
98024W        W70449  11.857  40.987   4.173
98025W        W70450  26.116   1.253   2.256
98026W        W70451   3.349  28.480   2.897
98027W        W70452   2.358  24.484   4.658
98028W        W70453  19.669   7.724   1.794
98029W        W70454   9.712  30.087   4.280
98030W        W70455   0.463   2.394   0.857
98031W        W70456  14.165  18.648  11.031
98032W        W70457   2.438  27.477   4.809
98033W        W70458  44.970  25.012  13.447
98034W        W70459  25.112  38.939   5.083
98035W        W70460  29.065  25.069  12.520
98036W        W70461  40.861  20.601   0.843
98037W        W70462  36.964  28.529  11.900
98038W        W70463  43.452  43.377   4.196
98039W        W70464  19.223   8.830  10.435
98040W        W70465  41.908  20.265  14.895
98041W        W70466  30.560  15.792   2.287
98042W        W70467  13.205  25.593   4.226
98043W        W70468  41.999  41.469   0.244
98044W        W70469  15.799  31.505   3.351
98045W        W70470   7.360  43.775   3.776
98046W        W70471  26.594  17.658   2.313
98047W        W70472  18.182  12.283  14.768
98048W        W70473  29.133  37.852   0.878
98049W        W70474  22.696  27.565  12.034
98050W        W70475  40.342  17.680   1.238
98051W        W70476  14.639   6.227   0.947
98052W        W70477  10.249  16.313  13.933
98053W        W70478  17.157   8.703  11.481
98054W        W70479   5.302  24.625   3.153
98055W        W70480  20.721  21.560  13.019
98056W        W70481  39.839  21.599   2.797
98057W        W70482   2.814  42.399   0.806
98058W        W70483  43.365  30.416  13.384
98059W        W70484  40.970  22.686  11.060
98060W        W70485  16.092  41.370  13.992
98061W        W70486  44.414  11.271   1.382
98062W        W70487  41.389  16.148   1.753
98063W        W70488  37.044  25.650  11.438
98064W        W70489  18.073  35.906  10.947
98065W        W70490  39.342  35.863  10.628
98066W        W70491  10.193  19.672   1.297
98067W        W70492  37.410  31.577  12.981
98068W        W70493   1.344  42.950   1.842
98069W        W70494  44.933  32.886   0.789
98070W        W70495   8.896  23.022   0.303
98071W        W70496  37.874   1.396  13.347
98072W        W70497  30.547  14.699  12.069
98073W        W70498  42.288  11.328   1.909
98074W        W70499  43.008  41.472   0.770
98075W        W70500  37.341  36.524  11.974
98076W        W70501  29.666   5.270   2.346
98077W        W70502  12.817  13.216  12.072
98078W        W70503   2.769   7.816   3.800
98079W        W70504  43.783   2.795  13.906
98080W        W70505  40.548   9.739  11.108
98081W        W70506  14.750  24.590   3.732
98082W        W70507  23.170  26.124   0.882
98083W        W70508  40.012  17.263  10.588
98084W        W70509   5.241  13.265   1.932
98085W        W70510   2.265  37.375  13.903
98086W        W70511  41.979  11.818   3.164
98087W        W70512  23.993  38.483   2.867
98088W        W70513  22.126  26.683  14.777
98089W        W70514   0.926  42.464  13.474
98090W        W70515  32.004  20.119  11.928
98091W        W70516  39.453  38.976  12.879
98092W        W70517  42.523  23.669  10.890
98093W        W70518  33.921  42.371   4.614
98094W        W70519  17.612  32.513  14.419
98095W        W70520  14.299  21.591   4.810
98096W        W70521  21.063  31.991   3.679
98097W        W70522  22.678  24.226   4.626
98098W        W70523  32.617  14.817   3.849
98099W        W70524  19.611   6.224  11.059
98100W        W70525  37.848  28.495   4.175
98101W        W70526  11.365  39.935   2.761
98102W        W70527  43.345  12.315   3.778
98103W        W70528  18.690  26.573   5.097
98104W        W70529  27.478  21.150  10.986
98105W        W70530  20.642  30.569  11.021
98106W        W70531  23.519  38.431   2.681
98107W        W70532   0.846  35.027   1.917
98108W        W70533  34.551  28.507   1.900
98109W        W70534  11.634  37.562  12.874
98110W        W70535  35.424  33.420  14.915
98111W        W70536  18.122   9.289   4.810
98112W        W70537  37.983  35.052   2.194
98113W        W70538   4.891  44.279  13.477
98114W        W70539  21.223  41.405   1.769
98115W        W70540  36.461  35.468   2.181
98116W        W70541   5.336  13.817  12.959
98117W        W70542   4.351  14.704   0.416
98118W        W70543  29.437  38.372  13.443
98119W        W70544  24.227  11.812   4.282
98120W        W70545  33.388  14.712   3.644
98121W        W70546   0.428  44.342   4.636
98122W        W70547  27.549  34.494  14.822
98123W        W70548  27.692  43.877  10.891
98124W        W70549   0.790  15.745   5.089
98125W        W70550   6.873  34.895   3.264
98126W        W70551  10.645  25.043  13.545
98127W        W70552   2.897  27.526   0.251
98128W        W70553  25.996  29.435   4.318
98129W        W70554  25.583  39.891  11.582
98130W        W70555  43.328   4.850  12.015
98131W        W70556   3.276  12.214  10.912
98132W        W70557   4.723  27.138  14.395
98133W        W70558  14.711  40.530   3.769
98134W        W70559  19.552  20.185  13.018
98135W        W70560  31.150  37.419  10.620
98136W        W70561  28.573   7.908  11.913
98137W        W70562  39.494  42.504  13.944
98138W        W70563  23.630  36.370   2.180
98139W        W70564  19.545  28.017   1.771
98140W        W70565  22.594  28.180   1.798
98141W        W70566  18.208  34.533   4.338
98142W        W70567  20.260  16.736   1.245
98143W        W70568  28.535  12.136   2.218
98144W        W70569  44.970  28.500  13.320
98145W        W70570  25.987  26.101  13.015
98146W        W70571  40.838   9.868  13.827
98147W        W70572  21.143   5.266   4.604
98148W        W70573  34.101   0.754  13.921
98149W        W70574   7.319  31.411  11.517
98150W        W70575  27.548  30.148   3.707
98151W        W70576  30.547  10.774   3.374
98152W        W70577  25.688  13.196   4.318
98153W        W70578  19.609  17.608  10.957
98154W        W70579  12.838  39.928   2.903
98155W        W70580  29.980  36.891   4.694
98156W        W70581  12.304  43.505   3.822
98157W        W70582  17.667  20.567  13.348
98158W        W70583  29.456  11.307  12.525
98159W        W70584  33.555   3.225   3.720
98160W        W70585  36.025  14.603   2.761
98161W        W70586  13.703  30.984   2.807
98162W        W70587  26.648   9.760  11.029
98163W        W70588  13.207   3.796   2.200
98164W        W70589  36.364  34.968   0.825
98165W        W70590  20.028  41.856  10.578
98166W        W70591   3.429  33.918   1.222
98167W        W70592  37.832  29.615  11.373
98168W        W70593   8.236   1.252  11.479
98169W        W70594  10.872  20.210   2.389
98170W        W70595  28.639  27.534   0.803
98171W        W70596  13.282   6.282  14.922
98172W        W70597  15.269  17.714  14.281
98173W        W70598   6.428  23.110  12.559
98174W        W70599  20.533   8.270  12.419
98175W        W70600   2.848  42.445   1.245
98176W        W70601  24.553  32.415  14.290
98177W        W70602  16.722   9.657  13.456
98178W        W70603   2.850   9.718  14.438
98179W        W70604   5.912  13.801  11.866
98180W        W70605  10.763  19.215   0.290
98181W        W70606   2.786  43.768  13.467
98182W        W70607   9.233  22.638   1.873
98183W        W70608  19.119   3.837   1.712
98184W        W70609  27.064  21.553   1.356
98185W        W70610   0.318  14.212  12.479
98186W        W70611  39.857  17.662   2.351
98187W        W70612   8.165  20.642  10.632
98188W        W70613  32.917  43.844   0.466
98189W        W70614  26.121  20.066   1.776
98190W        W70615  24.712  44.473   3.748
98191W        W70616  30.522  33.953  10.958
98192W        W70617  26.498  40.830   1.238
98193W        W70618  24.639  19.063   2.366
98194W        W70619   1.769  16.213   0.766
98195W        W70620  36.418  34.402  11.931
98196W        W70621  15.731  24.030   1.805
98197W        W70622  16.217  34.473   3.239
98198W        W70623  32.895  17.707   4.244
98199W        W70624  44.755  32.424  10.921
98200W        W70625  21.517   6.821   0.415
98201W        W70626  20.171  42.515  13.414
98202W        W70627  40.362  20.592   4.134
98203W        W70628  44.321   7.217  11.883
98204W        W70629  37.578  33.941   1.385
98205W        W70630  36.967  10.212  13.393
98206W        W70631  32.620  30.428   3.701
98207W        W70632  44.861  24.044  11.603
98208W        W70633  34.611   0.249   1.772
98209W        W70634  40.329  31.505   3.349
98210W        W70635  22.222  38.951   0.930
98211W        W70636  37.944  28.954   0.250
98212W        W70637  25.004  25.974  12.956
98213W        W70638   4.745   7.716   1.916
98214W        W70639  27.993  13.710   3.184
98215W        W70640   4.870  34.966   0.423
98216W        W70641  44.374  20.666  11.378
98217W        W70642  41.971   2.315  10.642
98218W        W70643  18.553  34.613   4.336
98219W        W70644  27.504  36.842   1.732
98220W        W70645  38.336   3.233   1.698
98221W        W70646   3.377  24.624   3.836
98222W        W70647   0.837  43.876   1.915
98223W        W70648  36.414  30.638   4.222
98224W        W70649  37.836  33.017  14.862
98225W        W70650   6.261  38.478  12.568
98226W        W70651  22.599  19.077  10.892
98227W        W70652  37.511  42.840   2.364
98228W        W70653  23.666  17.627   1.378
98229W        W70654  33.878  38.421  12.028
98230W        W70655   0.367  36.583  13.846
98231W        W70656  43.997   0.463   1.916
98232W        W70657  39.948   2.903  11.454
98233W        W70658  15.290  34.614   4.751
98234W        W70659  38.470  14.686   1.220
98235W        W70660   0.352  15.660  14.485
98236W        W70661   3.930  13.333  13.390
98237W        W70662  43.425  39.315   2.686
98238W        W70663  26.593   8.893   2.799
98239W        W70664  42.338  32.410  11.452
98240W        W70665  36.444  32.935   0.379
98241W        W70666  41.320   0.475  13.331
98242W        W70667  44.758  21.167  13.542
98243W        W70668   5.838  31.910   2.266
98244W        W70669  28.569  11.734  13.889
98245W        W70670  15.304   7.765   2.391
98246W        W70671  27.676  41.303  14.312
98247W        W70672  26.181   9.665  12.978
98248W        W70673  25.969  37.841   2.415
98249W        W70674   7.398  37.542  13.035
98250W        W70675  33.903  14.601   3.232
98251W        W70676  42.392  44.981  12.053
98252W        W70677  40.466  40.859  12.885
98253W        W70678  44.900  26.154  12.027
98254W        W70679  16.190  22.214  14.000
98255W        W70680  37.873  26.513   5.147
98256W        W70681  43.485  30.965  11.525
98257W        W70682  28.651  22.162  13.452
98258W        W70683  18.215  29.466   9.621
98259W        W70684  18.083   6.730  12.890
98260W        W70685  25.057  34.067   3.317
98261W        W70686   0.297   6.846  11.576
98262W        W70687  17.697  23.666  10.466
98263W        W70688   6.782  26.685  12.081
98264W        W70689  41.520  41.018   2.875
98265W        W70690  39.040  12.780   3.723
98266W        W70691   8.739  21.147  13.972
98267W        W70692  23.005  43.841  12.984
98268W        W70693  23.192   8.845   3.853
98269W        W70694   9.343  28.509   4.647
98270W        W70695   5.713   6.279  12.851
98271W        W70696  24.544  26.630  14.309
98272W        W70697  27.041  10.211  14.935
98273W        W70698   2.935  39.375   0.392
98274W        W70699   1.359  10.341  14.832
98275W        W70700  12.655  26.532   5.082
98276W        W70701  36.482  15.767   3.195
98277W        W70702   5.311  18.167  12.863
98278W        W70703  44.300  20.033   1.342
98279W        W70704  33.944  23.538  13.833
98280W        W70705  37.570  36.577   3.372
98281W        W70706   8.661  41.018   4.269
98282W        W70707  17.782  15.615  11.487
98283W        W70708  41.805  22.668  10.988
98284W        W70709  35.600  37.065   0.433
98285W        W70710  16.288   4.744  10.026
98286W        W70711  14.782  23.707  13.938
98287W        W70712  40.336   9.740  13.888
98288W        W70713  20.265  18.050   4.342
98289W        W70714   5.697  40.334  14.865
98290W        W70715  32.922   3.394   9.991
98291W        W70716  33.540  42.845  14.765
98292W        W70717  29.504   3.286   1.425
98293W        W70718   6.709  31.565  14.377
98294W        W70719  19.127  25.558  13.335
98295W        W70720  14.645  18.720  10.596
98296W        W70721  32.454   4.939   4.332
98297W        W70722  22.214   1.286   1.768
98298W        W70723  44.433  27.505   3.371
98299W        W70724  11.830   8.269   0.340
98300W        W70725  32.476  34.931  10.939
98301W        W70726  36.872  36.891  10.451
98302W        W70727  41.850  10.365   0.370
98303W        W70728  35.388  15.617  12.838
98304W        W70729   3.828  22.644  12.500
98305W        W70730  27.575  41.365  14.847
98306W        W70731  35.415  24.226   4.257
98307W        W70732  17.564  13.718   2.311
98308W        W70733   0.415  20.061   1.865
98309W        W70734  10.158   0.829   4.240
98310W        W70735  14.627  35.924  11.961
98311W        W70736  17.578  35.484   1.931
98312W        W70737  24.085  38.366   0.767
98313W        W70738  24.635  22.659   3.792
98314W        W70739  17.084  23.557   3.314
98315W        W70740  19.633  26.023   0.846
98316W        W70741  43.365   1.864   3.698
98317W        W70742  32.507  34.524   4.320
98318W        W70743  26.655  44.946   0.322
98319W        W70744  10.754  19.232   3.653
98320W        W70745  10.156   6.342   1.790
98321W        W70746  26.105  24.213  14.353
98322W        W70747  13.836  36.081  12.952
98323W        W70748   3.329   1.913   9.943
98324W        W70749  39.517  30.504   2.249
98325W        W70750  17.121  13.806   4.705
98326W        W70751  26.065  26.561   0.808
98327W        W70752   3.219  15.761   3.223
98328W        W70753  20.165  27.556  11.049
98329W        W70754  15.725   1.965   3.199
98330W        W70755  39.976  24.478  14.837
98331W        W70756  43.272  29.494  10.592
98332W        W70757   0.467   8.335  10.480
98333W        W70758  11.853  22.533   4.720
98334W        W70759   3.735   4.328   0.434
98335W        W70760  15.297  23.641   5.296
98336W        W70761  14.270  12.853  14.781
98337W        W70762  19.139  41.906   2.713
98338W        W70763  29.499  14.283   3.310
98339W        W70764  37.048  29.054   3.846
98340W        W70765  13.107   8.259   0.826
98341W        W70766   9.293  25.554   4.343
98342W        W70767  39.836  44.974   9.631
98343W        W70768  44.431   1.823  11.011
98344W        W70769  11.655  35.970   1.878
98345W        W70770  28.571   1.334   4.683
98346W        W70771  33.892  43.794   2.678
98347W        W70772  30.515  35.588   1.878
98348W        W70773   2.468  40.912  11.039
98349W        W70774   8.746   4.234  11.080
98350W        W70775  31.897  40.043   0.410
98351W        W70776   4.211  17.588   3.203
98352W        W70777  24.619  29.008  12.084
98353W        W70778  42.830  41.905  14.299
98354W        W70779  32.902  41.028  11.603
98355W        W70780  23.099  22.676   4.216
98356W        W70781  39.057  40.048  12.409
98357W        W70782  30.944  37.442  13.873
98358W        W70783  41.530   9.708   3.370
98359W        W70784  15.205  22.711  12.534
98360W        W70785  21.149   4.450   3.726
98361W        W70786  14.271   5.437   2.380
98362W        W70787   3.888  39.858  13.807
98363W        W70788  24.075  15.635  14.473
98364W        W70789  24.136  28.055  14.794
98365W        W70790  22.524  10.778   3.827
98366W        W70791  28.566  20.123  11.047
98367W        W70792  18.783   9.209   4.785
98368W        W70793  16.132  26.180   4.688
98369W        W70794  36.036  21.648  11.598
98370W        W70795  12.206  42.443   2.213
98371W        W70796   6.195  14.186  14.889
98372W        W70797  32.998  25.628  11.109
98373W        W70798  27.029  25.177   3.723
98374W        W70799   1.281   6.788   1.913
98375W        W70800  30.908  37.916   0.797
98376W        W70801  10.199  10.206   4.786
98377W        W70802  20.193  33.115   2.261
98378W        W70803  42.502  42.872   3.827
98379W        W70804  18.202  35.978  12.448
98380W        W70805  24.612  39.912   2.327
98381W        W70806  13.723  18.713   3.713
98382W        W70807  32.479  37.582   0.792
98383W        W70808  36.028   0.334   0.478
98384W        W70809  13.211   9.300   4.813
98385W        W70810   7.210  17.172   0.912
98386W        W70811  31.447  30.557   0.808
98387W        W70812  34.960   6.815   4.275
98388W        W70813  13.227  23.082   1.368
98389W        W70814  10.794   0.906  12.086
98390W        W70815  31.945  34.047  11.499
98391W        W70816   4.208  36.525  14.445
98392W        W70817  31.076   8.707   1.316
98393W        W70818  31.536  10.692   1.741
98394W        W70819  43.398   1.949  12.078
98395W        W70820   9.239  25.562  11.612
98396W        W70821   3.816  40.325  12.040
98397W        W70822  29.084  36.579   2.230
98398W        W70823  34.523  14.816   0.829
98399W        W70824   0.383   9.289   2.387
98400W        W70825  40.809   2.432   3.764
98401W        W70826  41.987  18.088   2.360
98402W        W70827  33.584  12.195   4.234
98403W        W70828  32.121  36.520  14.456
98404W        W70829   5.311  43.432   4.352
98405W        W70830   2.936  25.516  13.830
98406W        W70831  27.003  41.926  10.409
98407W        W70832  15.188  13.108  13.049
98408W        W70833  38.970  41.020  14.869
98409W        W70834   0.395   4.248   3.844
98410W        W70835  25.089  35.540  11.602
98411W        W70836  14.324  38.358   1.795
98412W        W70837  17.698  18.662  11.602
98413W        W70838  42.880  29.993  10.448
98414W        W70839  22.169   0.358   0.880
98415W        W70840  40.370  30.427   2.243
98416W        W70841   6.384   3.242  11.014
98417W        W70842  25.201  24.190  11.969
98418W        W70843   4.364   3.813   1.857
98419W        W70844   2.233  29.174   0.368
98420W        W70845  40.323  27.679   4.692
98421W        W70846  38.460  10.163   1.334
98422W        W70847   9.791  36.909   0.740
98423W        W70848  11.370  41.892  12.572
98424W        W70849  22.687   7.861   4.613
98425W        W70850  18.756   2.810   0.769
98426W        W70851  29.123  13.184  11.943
98427W        W70852  31.044   6.850  11.457
98428W        W70853  12.135  13.641  13.467
98429W        W70854  37.883  22.705  12.064
98430W        W70855  17.069  12.686   2.340
98431W        W70856   6.279  11.340  11.534
98432W        W70857  39.510  24.640  10.899
98433W        W70858  28.052  13.846   0.438
98434W        W70859   2.278  27.098   3.221
98435W        W70860  40.911   8.718   1.905
98436W        W70861  15.779  21.754   2.811
98437W        W70862   1.970  30.430  13.993
98438W        W70863  22.513   2.417   5.086
98439W        W70864  39.874  10.217   5.087
98440W        W70865  41.027  15.100   1.389
98441W        W70866   6.292  36.944   9.933
98442W        W70867  44.288  37.004   4.173
98443W        W70868   1.857  27.478  14.988
98444W        W70869  23.170  42.967  12.485
98445W        W70870  21.704  35.009  12.998
98446W        W70871  33.441  38.517  10.935
98447W        W70872   5.220  32.980  12.551
98448W        W70873  15.628  13.120   1.381
98449W        W70874   6.311   8.656   2.344
98450W        W70875  40.459  20.742   3.632
98451W        W70876  39.875  42.524   2.368
98452W        W70877  22.543  35.563  10.985
98453W        W70878   6.727  35.990   5.247
98454W        W70879  37.399  20.120  10.644
98455W        W70880   3.936  13.806   0.317
98456W        W70881  30.490  44.288   4.634
98457W        W70882  35.966  14.108  12.909
98458W        W70883  15.589  11.132   1.254
98459W        W70884  18.746  43.967   3.204
98460W        W70885  11.635  27.487   4.598
98461W        W70886  20.576  33.491   3.728
98462W        W70887   4.933  24.661  11.428
98463W        W70888  18.152   8.746  13.962
98464W        W70889  39.436   7.687   2.256
98465W        W70890  39.553  30.566  14.845
98466W        W70891   2.405  40.986  13.793
98467W        W70892   4.243  24.186  14.501
98468W        W70893  29.061  33.031  14.973
98469W        W70894  24.161   8.203  13.963
98470W        W70895  43.289  32.994   0.468
98471W        W70896  24.986  43.417  12.940
98472W        W70897  38.396  34.024  12.946
98473W        W70898  41.514  34.502  13.908
98474W        W70899  16.206  25.686   0.770
98475W        W70900  33.128  43.280  12.012
98476W        W70901  35.867  29.021  10.890
98477W        W70902  30.959   8.899   5.316
98478W        W70903  18.239  36.846   1.829
98479W        W70904  43.935  12.825  14.905
98480W        W70905   7.731  38.541   4.243
98481W        W70906   7.700  37.456  13.840
98482W        W70907  26.038  40.963  11.562
98483W        W70908  41.349  27.655   1.361
98484W        W70909  26.572  32.532   0.269
98485W        W70910  25.158  35.105   4.669
98486W        W70911   9.676  37.898   4.166
98487W        W70912  15.328  25.648   2.851
98488W        W70913  41.040   8.204  11.416
98489W        W70914   9.288  32.951   1.260
98490W        W70915   6.777  20.151   2.751
98491W        W70916  24.995  37.470  12.920
98492W        W70917  41.410  41.512  13.921
98493W        W70918  11.696  28.484  13.366
98494W        W70919  10.680  40.338   0.793
98495W        W70920   9.148  43.466   1.360
98496W        W70921  43.819  25.971  14.512
98497W        W70922  25.680  25.498  10.471
98498W        W70923  10.270   9.692   2.296
98499W        W70924  24.217  40.934  10.547
98500W        W70925  29.087   4.718  13.545
98501W        W70926  20.144   8.219  11.120
98502W        W70927  35.412  27.567   0.366
98503W        W70928   1.394  34.055   3.795
98504W        W70929  37.923  40.989   2.736
98505W        W70930  34.984   7.302   2.191
98506W        W70931  23.079   0.805  13.369
98507W        W70932  25.125  41.299  12.422
98508W        W70933  44.451  34.466  11.067
98509W        W70934   7.790  30.128  12.362
98510W        W70935  41.395  43.278   3.313
98511W        W70936  14.235  28.149   5.150
98512W        W70937  12.696  32.075  12.553
98513W        W70938   6.384  39.915  11.521
98514W        W70939   4.221   5.279  13.849
98515W        W70940  22.036  38.519   4.654
98516W        W70941  43.867  38.060  14.336
98517W        W70942  12.347  38.505  13.456
98518W        W70943   2.355  24.101   2.752
98519W        W70944  12.296  43.785  10.482
98520W        W70945   6.789  27.142   4.622
98521W        W70946   4.447  14.826   3.371
98522W        W70947  41.994   2.794  14.810
98523W        W70948  26.631  12.663  13.865
98524W        W70949  24.203   4.837   3.795
98525W        W70950   0.259  44.492  12.370
98526W        W70951  23.719   8.893   1.706
98527W        W70952  44.440  13.684   1.318
98528W        W70953  18.618  23.551  13.822
98529W        W70954  11.138  24.486  10.965
98530W        W70955   8.815  15.637   4.711
98531W        W70956  22.041  36.851  13.928
98532W        W70957   3.855   4.842  12.052
98533W        W70958  21.598  14.148  13.358
98534W        W70959   9.199  43.907  13.435
98535W        W70960  35.454  37.044   2.736
98536W        W70961  18.646  17.798   0.941
98537W        W70962   1.776  27.958   3.759
98538W        W70963  12.219  29.077   3.242
98539W        W70964  21.187   0.786  13.497
98540W        W70965  23.505  17.565   3.749
98541W        W70966  30.524  17.652  10.032
98542W        W70967  39.049   9.885  14.916
98543W        W70968  28.172   6.847  11.043
98544W        W70969  34.476  19.222  11.601
98545W        W70970  24.715  39.515   2.863
98546W        W70971   0.805  43.925  12.913
98547W        W70972  27.609   9.696  10.518
98548W        W70973  22.012  36.484  11.587
98549W        W70974  11.156   6.295   9.531
98550W        W70975   9.239  22.139  12.502
98551W        W70976  14.617   3.360   3.175
98552W        W70977   1.732  28.953   4.180
98553W        W70978   2.906   6.227  10.577
98554W        W70979  27.120  15.236   4.654
98555W        W70980   1.934  22.234  11.979
98556W        W70981  25.546   1.278  13.978
98557W        W70982  29.539  42.867  11.551
98558W        W70983  26.072  13.273   0.755
98559W        W70984   4.400  19.688  14.480
98560W        W70985  43.479  10.827   2.305
98561W        W70986  38.908  25.076  12.573
98562W        W70987  26.167  19.043  12.957
98563W        W70988  41.408   6.220  13.046
98564W        W70989  27.574  27.587  10.971
98565W        W70990   3.746  16.807  10.951
98566W        W70991   0.776  24.223   2.333
98567W        W70992  11.276  28.086   4.659
98568W        W70993  13.351  22.165   3.224
98569W        W70994  16.710  15.213  13.792
98570W        W70995  38.976  26.196   0.912
98571W        W70996   0.953   2.856   3.222
98572W        W70997  31.581  28.136   3.763
98573W        W70998  26.049  24.633   2.388
98574W        W70999   0.894  30.999  10.465
98575W        W71000  39.385  38.452   2.692
98576W        W71001  19.094  44.905  14.385
98577W        W71002  24.012  26.114  12.406
98578W        W71003  30.512  37.908  12.040
98579W        W71004  32.420   1.310   1.367
98580W        W71005   4.853  36.562  12.480
98581W        W71006   8.805  13.603   1.440
98582W        W71007  41.397  35.483   4.217
98583W        W71008  40.412  43.935  12.935
98584W        W71009  22.582  37.864  10.464
98585W        W71010  14.320  17.744   1.907
98586W        W71011  36.487   6.792   1.382
98587W        W71012  26.502  40.419   4.647
98588W        W71013  24.193  16.116  11.872
98589W        W71014  11.200  32.988   4.766
98590W        W71015  33.509   8.701  13.396
98591W        W71016  15.626   4.406   2.786
98592W        W71017  35.556  16.728  11.867
98593W        W71018  17.146   3.891   1.933
98594W        W71019  14.111  29.956   1.882
98595W        W71020  39.001  41.008  10.602
98596W        W71021  17.641   9.340  13.315
98597W        W71022   4.765  22.123   0.779
98598W        W71023  24.487  43.403  12.359
98599W        W71024  43.929  40.905  14.839
98600W        W71025   4.209  18.289  11.399
98601W        W71026  44.443  22.619   5.122
98602W        W71027  11.203  27.021  11.000
98603W        W71028   7.800  29.140  14.894
98604W        W71029   4.866  19.681  12.882
98605W        W71030  43.009  34.101  10.587
98606W        W71031  42.846  40.841   2.312
98607W        W71032  17.781  28.549  14.372
98608W        W71033  39.463  37.336   2.315
98609W        W71034  31.992  20.525  12.381
98610W        W71035  34.967   2.729   4.350
98611W        W71036  18.150  10.669   4.611
98612W        W71037  36.549  23.222  13.907
98613W        W71038  22.741  29.152   1.904
98614W        W71039  32.109  16.280   3.172
98615W        W71040   2.269  28.527  10.936
98616W        W71041  25.070  43.869  14.851
98617W        W71042  39.931  27.664  14.009
98618W        W71043  40.314  16.776  11.972
98619W        W71044  44.902  36.059  11.912
98620W        W71045  17.077  14.795   4.224
98621W        W71046  42.884  17.225  13.362
98622W        W71047  21.668  41.292  13.050
98623W        W71048  33.885  36.929   2.298
98624W        W71049   0.465  29.574   4.264
98625W        W71050  32.456  43.886  12.976
98626W        W71051   1.899   3.872   3.640
98627W        W71052  17.771   1.244  13.837
98628W        W71053  30.653  18.223  13.373
98629W        W71054  39.004  27.554   1.818
98630W        W71055  28.451  29.607  12.575
98631W        W71056  20.144  19.259   1.917
98632W        W71057  36.394  20.135   4.190
98633W        W71058  33.006   3.451   2.319
98634W        W71059   5.401   8.307  10.559
98635W        W71060   0.959  26.634  12.040
98636W        W71061   2.371  11.127  11.576
98637W        W71062   3.416  14.120  10.606
98638W        W71063  29.927  17.074   3.656
98639W        W71064  27.587  31.490  11.941
98640W        W71065  41.020   3.840  11.486
98641W        W71066   3.796  40.017  13.509
98642W        W71067  17.161  26.461   0.318
98643W        W71068  25.138  42.942   2.846
98644W        W71069  37.999   0.970   3.271
98645W        W71070  13.247   1.447  12.924
98646W        W71071  28.524   5.695  14.459
98647W        W71072  23.202   1.473  10.452
98648W        W71073  15.682   7.895   4.769
98649W        W71074   6.236  28.602   4.610
98650W        W71075  32.893   3.889   4.132
98651W        W71076  40.937  13.135   0.803
98652W        W71077   3.915  26.495   2.252
98653W        W71078   8.296  35.065   9.514
98654W        W71079  23.061  37.918   3.237
98655W        W71080  32.098  25.032   4.790
98656W        W71081  33.997  19.655  14.986
98657W        W71082   0.494  24.514  14.887
98658W        W71083  21.587  19.216  14.367
98659W        W71084  18.703  43.821   1.905
98660W        W71085  27.001  26.974   2.734
98661W        W71086   3.864   3.319   3.846
98662W        W71087  34.393  11.285   3.339
98663W        W71088  12.844   0.287   4.132
98664W        W71089   4.702   6.732  13.496
98665W        W71090  13.618  15.671  10.043
98666W        W71091   3.338   1.833   0.738
98667W        W71092  14.286  37.940  14.845
98668W        W71093  39.955  33.513   2.860
98669W        W71094  33.947   0.349   3.195
98670W        W71095  23.520  29.972   4.606
98671W        W71096  33.974  28.463  12.385
98672W        W71097   0.935  18.671  10.622
98673W        W71098  40.396  21.082   2.663
98674W        W71099  13.266  12.840  10.616
98675W        W71100   8.749  32.905   2.886
98676W        W71101  16.163  37.073   4.619
98677W        W71102  38.978  43.376  13.399
98678W        W71103   8.401  32.522  13.995
98679W        W71104  17.154  11.733  14.863
98680W        W71105   3.904   0.304   1.436
98681W        W71106  40.501   2.821  12.974
98682W        W71107  34.893   6.805   3.159
98683W        W71108  11.632  10.640   0.393
98684W        W71109  38.933  15.690   2.276
98685W        W71110  30.597  36.926  12.017
98686W        W71111  44.370  26.461   0.863
98687W        W71112  22.177   4.764   0.419
98688W        W71113  16.584  28.453  14.770
98689W        W71114   5.880   4.903  13.479
98690W        W71115  24.178   5.905   4.796
98691W        W71116   0.831  13.240   2.373
98692W        W71117  21.554  37.506  13.896
98693W        W71118  24.050   0.436   0.754
98694W        W71119  38.076  18.152   4.123
98695W        W71120  26.486  12.223   2.369
98696W        W71121  25.704  31.975  13.448
98697W        W71122  23.640  22.674  14.444
98698W        W71123  29.016   1.855  12.562
98699W        W71124  23.492  12.702   2.867
98700W        W71125  15.774   6.306   1.899
98701W        W71126  20.236  26.080  12.409
98702W        W71127  15.751   0.331  14.824
98703W        W71128  21.548  40.539  14.453
98704W        W71129  40.936  26.537  11.091
98705W        W71130  25.598  44.307   0.787
98706W        W71131  44.375  34.952  10.940
98707W        W71132  23.117  32.930  14.298
98708W        W71133   0.835   1.346   2.713
98709W        W71134  17.752  22.126  12.840
98710W        W71135  21.175  35.450   1.394
98711W        W71136  41.838   1.757  14.773
98712W        W71137   0.766  40.488  11.495
98713W        W71138  10.795  15.098  11.579
98714W        W71139  24.553  42.436  14.462
98715W        W71140   1.381  27.681  14.837
98716W        W71141  29.050  30.076   2.279
98717W        W71142  43.318  40.387   2.825
98718W        W71143  32.110  24.989  13.424
98719W        W71144   2.437   8.393  11.488
98720W        W71145  10.146  33.407  10.935
98721W        W71146  13.660   0.836   1.698
98722W        W71147  15.103   1.834   0.793
98723W        W71148  36.871  29.662   3.778
98724W        W71149   0.760  29.585   1.789
98725W        W71150  35.864   8.253  13.444
98726W        W71151  20.758  23.115   1.710
98727W        W71152  44.501  29.043  13.942
98728W        W71153   8.370  16.753  10.420
98729W        W71154  20.130  22.140  13.372
98730W        W71155  27.079  40.945   2.725
98731W        W71156  34.974   0.423  11.455
98732W        W71157  23.622  31.480   2.395
98733W        W71158  10.786  18.171  13.388
98734W        W71159  23.688  32.434   3.727
98735W        W71160   6.894  42.031   4.789
98736W        W71161   7.809  17.564  12.351
98737W        W71162  16.278  27.619  12.004
98738W        W71163  14.141  18.244  13.036
98739W        W71164   8.160  44.921   3.744
98740W        W71165  31.618  38.006  12.564
98741W        W71166  35.928  26.683  12.957
98742W        W71167  11.769   3.864  13.930
98743W        W71168  28.453  21.703  12.570
98744W        W71169  24.629   4.253   2.711
98745W        W71170  20.112  38.862   2.895
98746W        W71171  43.286  44.947  12.083
98747W        W71172  19.183  41.331  14.829
98748W        W71173  32.125  10.158  12.022
98749W        W71174  35.549  19.051   0.459
98750W        W71175  29.471  26.542   0.292
98751W        W71176  11.660   9.240  13.386
98752W        W71177  42.912  25.204  13.905
98753W        W71178  15.256  38.362   0.342
98754W        W71179  34.060  36.540  11.017
98755W        W71180  31.968  42.826  13.338
98756W        W71181  21.214   9.799   2.411
98757W        W71182  25.040  18.602  14.281
98758W        W71183  36.563   0.870  14.906
98759W        W71184  24.152  15.660  13.843
98760W        W71185  37.565   3.279   4.351
98761W        W71186   8.277  34.117  14.802
98762W        W71187  16.689  36.992   0.867
98763W        W71188  10.693  19.208   1.440
98764W        W71189   2.320  29.957   2.334
98765W        W71190  10.141   2.932   4.200
98766W        W71191   5.829  36.504  10.469
98767W        W71192  22.174  39.831  12.930
98768W        W71193   0.418  39.543   2.224
98769W        W71194   7.680  30.004   0.372
98770W        W71195  15.126  21.118   1.903
98771W        W71196  16.080   5.799   1.338
98772W        W71197  21.512  41.877  12.482
98773W        W71198  28.523  31.444  13.851
98774W        W71199  39.535  18.140  13.535
98775W        W71200  21.571  13.321  12.409
98776W        W71201  32.044  37.865   0.738
98777W        W71202   2.443  35.413  10.482
98778W        W71203  16.771   1.792  11.488
98779W        W71204  25.492  31.525   3.779
98780W        W71205  44.400  16.683  13.935
98781W        W71206  35.003  32.538  13.856
98782W        W71207  25.985  44.969   2.766
98783W        W71208  26.208  22.701   0.947
98784W        W71209  12.177  24.070   4.775
98785W        W71210  28.579  25.108  11.074
98786W        W71211  12.834  33.883  10.521
98787W        W71212  30.082  28.608  11.904
98788W        W71213  12.334   0.968  11.863
98789W        W71214  28.015  36.425  12.874
98790W        W71215   2.759   5.227  10.584
98791W        W71216  41.042   8.216   1.898
98792W        W71217  25.186   4.845  10.571
98793W        W71218   0.295  19.647  12.874
98794W        W71219  33.606  37.522  13.408
98795W        W71220   6.764  41.328  11.384
98796W        W71221   6.866  21.675   4.606
98797W        W71222  11.721  29.650  12.018
98798W        W71223  20.242  14.187   4.141
98799W        W71224  11.365  10.267  13.856
98800W        W71225   2.402  40.512   2.750
98801W        W71226  26.179  14.240  12.537
98802W        W71227  36.525  36.946  12.999
98803W        W71228  20.621  10.811  13.451
98804W        W71229  41.328   8.270   2.383
98805W        W71230   1.267  18.164   2.355
98806W        W71231  32.011  40.407   0.834
98807W        W71232   3.809  43.334  11.969
98808W        W71233  14.653  22.184  14.275
98809W        W71234  36.366  20.670  13.526
98810W        W71235  42.515  27.963  11.880
98811W        W71236  13.757   3.842   3.178
98812W        W71237  35.907  23.537   0.362
98813W        W71238  34.463  23.105  12.378
98814W        W71239  22.628  15.677  10.558
98815W        W71240  24.029  20.249   4.757
98816W        W71241   4.752  13.262  14.514
98817W        W71242   4.818  42.031  13.976
98818W        W71243   6.811  41.325  14.930
98819W        W71244  17.599  44.860  11.030
98820W        W71245  38.344  22.642   1.297
98821W        W71246   1.904   8.332   0.315
98822W        W71247  24.056  37.953   1.926
98823W        W71248  36.501  12.691  11.030
98824W        W71249  12.829  30.623  11.501
98825W        W71250  35.506  35.026   1.441
98826W        W71251   4.401  27.546   1.263
98827W        W71252  30.099   6.676   0.853
98828W        W71253  14.730  41.486  10.600
98829W        W71254  40.034  38.845   0.250
98830W        W71255   6.923  21.684   3.362
98831W        W71256  15.640   0.381  13.331
98832W        W71257  34.882  21.603  14.465
98833W        W71258  43.445  35.864   4.141
98834W        W71259  44.759  26.968   2.191
98835W        W71260  35.899  28.162   1.882
98836W        W71261  17.697  25.668   3.234
98837W        W71262  40.498  43.461   1.255
98838W        W71263  30.090  36.097   0.424
98839W        W71264   6.760  11.145  12.519
98840W        W71265   8.368  24.162   0.415
98841W        W71266  42.384  15.618  14.998
98842W        W71267  33.565  29.668   4.666
98843W        W71268  20.238   4.432  11.898
98844W        W71269  36.862  21.517  14.013
98845W        W71270  30.065  27.153  14.930
98846W        W71271  25.089  29.044  12.439
98847W        W71272   3.461  29.097  12.378
98848W        W71273  15.161   1.788  14.013
98849W        W71274  12.819  43.382   3.360
98850W        W71275  22.503  30.489  14.831
98851W        W71276   9.808  12.768   3.193
98852W        W71277  22.078  11.724  10.892
98853W        W71278  41.507  40.863   1.247
98854W        W71279  41.981   5.844  14.407
98855W        W71280  11.198  41.494  12.990
98856W        W71281  21.563   9.286  13.908
98857W        W71282  34.888  26.075   4.276
98858W        W71283  40.845  44.311  11.580
98859W        W71284   7.810  42.324  12.039
98860W        W71285  35.915  24.013   2.856
98861W        W71286  39.034  25.185   2.413
98862W        W71287  43.838   6.274  14.769
98863W        W71288  27.050   8.661  10.942
98864W        W71289  11.166  22.663  12.408
98865W        W71290  37.027   1.815   1.876
98866W        W71291  13.303  30.535   0.787
98867W        W71292  35.440  41.036   2.200
98868W        W71293   2.780  15.120  14.401
98869W        W71294  23.992  15.171   2.397
98870W        W71295  33.116  25.633  11.438
98871W        W71296  30.980  38.438   0.739
98872W        W71297  26.690   6.309  11.553
98873W        W71298  19.067  10.234   0.374
98874W        W71299  22.061   6.726   1.394
98875W        W71300  35.078  28.944  13.832
98876W        W71301  37.515   3.874   4.649
98877W        W71302  15.708  32.915   2.742
98878W        W71303  22.124  38.358   1.436
98879W        W71304   0.837  43.851   0.372
98880W        W71305  37.037  26.466  10.567
98881W        W71306  31.597  29.553   2.736
98882W        W71307  25.516  29.668   1.849
98883W        W71308  20.263  30.162  10.932
98884W        W71309  30.052  41.349  14.443
98885W        W71310  36.497   5.403   2.712
98886W        W71311  25.469  36.890   0.773
98887W        W71312  20.724  31.087   2.298
98888W        W71313  40.836  25.581  12.991
98889W        W71314  44.825  19.205   0.801
98890W        W71315  22.574  36.430  11.065
98891W        W71316   3.787   9.656   4.229
98892W        W71317  41.844  10.669  11.040
98893W        W71318   3.402  29.668   0.337
98894W        W71319  39.819  42.481   9.930
98895W        W71320  41.024  31.943  12.837
98896W        W71321  27.179   4.344   3.674
98897W        W71322  22.098  25.111   3.303
98898W        W71323  20.674   6.819   4.207
98899W        W71324  41.422  29.944  14.018
98900W        W71325  31.084  37.559   3.343
98901W        W71326   4.804   1.475  14.926
98902W        W71327  30.619  37.474   2.299
98903W        W71328  15.773  29.990   0.418
98904W        W71329  18.617  39.960  13.845
98905W        W71330  11.807  30.953   2.711
98906W        W71331  33.940  13.317  11.461
98907W        W71332  11.356  11.781  11.902
98908W        W71333  33.917   6.920   4.294
98909W        W71334  25.026   3.405   4.708
98910W        W71335   5.400   6.846  12.994
98911W        W71336   5.801  36.534  11.946
98912W        W71337  19.570  41.952   3.674
98913W        W71338  26.990   1.263  10.917
98914W        W71339   0.867  24.992  12.029
98915W        W71340  17.645   7.359   1.914
98916W        W71341  38.386   5.256  10.418
98917W        W71342  22.565   8.869  12.355
98918W        W71343   0.327  42.024   4.752
98919W        W71344   1.741  20.199  11.480
98920W        W71345  11.289  14.661   0.926
98921W        W71346  21.109  19.121   0.408
98922W        W71347   6.835  16.616   4.154
98923W        W71348  33.537  36.440   0.480
98924W        W71349   6.261   1.411   4.256
98925W        W71350   1.855   6.730  12.971
98926W        W71351  36.362   1.244   1.747
98927W        W71352  22.600  35.426  13.394
98928W        W71353   3.852  30.921  14.394
98929W        W71354  15.115  29.032   4.726
98930W        W71355   7.247  27.495   3.309
98931W        W71356  11.787  18.723   4.304
98932W        W71357   5.762  30.549  13.403
98933W        W71358  32.954  19.209  14.392
98934W        W71359  27.951   0.849  11.524
98935W        W71360  44.342  12.678  14.507
98936W        W71361  39.917  28.483  14.281
98937W        W71362  43.871  38.488  11.017
98938W        W71363  38.412  35.979  13.386
98939W        W71364  41.366  25.710  11.978
98940W        W71365   5.822   6.184  11.895
98941W        W71366  24.562  12.311   0.315
98942W        W71367  21.556  19.101   1.744
98943W        W71368  33.982  29.114   3.178
98944W        W71369  30.148  18.784  11.488
98945W        W71370  42.839  33.385   0.851
98946W        W71371  22.545  23.634   1.253
98947W        W71372  39.812   9.340   2.857
98948W        W71373  34.605  30.415   4.733
98949W        W71374  42.984   8.893  10.614
98950W        W71375  11.142  19.189  13.415
98951W        W71376  40.904  36.080   4.803
98952W        W71377  10.272   0.383   4.313
98953W        W71378  39.018  12.305  12.883
98954W        W71379   7.874  34.905   1.920
98955W        W71380  29.449  27.602   4.673
98956W        W71381  40.892  44.765   4.601
98957W        W71382  10.745  12.287  12.915
98958W        W71383  19.142   3.873  11.866
98959W        W71384  22.218  43.498   0.793
98960W        W71385  14.638  15.696  10.534
98961W        W71386  41.400   2.452   3.669
98962W        W71387  36.494  11.671   3.688
98963W        W71388  20.633  17.269   0.422
98964W        W71389  36.524  21.116  12.567
98965W        W71390   9.772  14.223  14.458
98966W        W71391  22.114   1.389  11.984
98967W        W71392   4.930  20.101  10.568
98968W        W71393  36.092  12.298  11.098
98969W        W71394  31.094   9.348  12.352
98970W        W71395  41.863  34.485  13.939
98971W        W71396  30.081   0.264  14.959
98972W        W71397   4.880  42.303   2.281
98973W        W71398  13.675   4.441  12.578
98974W        W71399  31.037  25.662  11.960
98975W        W71400  34.420   0.884  11.916
98976W        W71401  11.193   9.200   3.218
98977W        W71402   1.929   9.156   0.868
98978W        W71403  11.761  30.570   3.345
98979W        W71404  40.439  10.827  11.032
98980W        W71405   0.483   5.193   3.729
98981W        W71406  37.839  17.583  14.982
98982W        W71407  29.069   2.391  11.918
98983W        W71408  33.989  27.944   3.850
98984W        W71409  33.483  18.244   4.123
98985W        W71410  22.649  23.120  12.042
98986W        W71411  12.754  22.663   2.814
98987W        W71412  17.787  33.071   1.275
98988W        W71413   0.951  16.255  11.056
98989W        W71414   8.184  42.376   3.183
98990W        W71415   0.916   7.412  13.834
98991W        W71416  36.928  17.620   4.828
98992W        W71417  11.343  25.201   4.678
98993W        W71418  36.876  26.617  14.408
98994W        W71419  12.267  23.551   4.118
98995W        W71420   8.332  34.061  11.944
98996W        W71421  21.261   0.771  13.954
98997W        W71422  18.558  16.740  11.391
98998W        W71423  15.694  22.087  11.530
98999W        W71424  26.014   8.343   3.285
99000W        W71425  22.195  39.873   1.698
99001W        W71426  23.636   6.316   3.816
99002W        W71427   4.276  35.451  11.460
99003W        W71428  19.709  27.039   0.796
99004W        W71429  16.149  18.629  13.351
99005W        W71430  18.545  44.416  11.450
99006W        W71431  14.138  39.501  14.346
99007W        W71432  44.457  18.740   3.159
99008W        W71433  23.045   6.838   4.298
99009W        W71434  35.576  16.278   2.281
99010W        W71435  27.688   6.819  10.518
99011W        W71436  33.112  42.014   1.296
99012W        W71437  40.964  16.604  11.599
99013W        W71438   7.235  40.914  10.618
99014W        W71439  40.046   9.294   4.629
99015W        W71440   9.303  19.234  12.850
99016W        W71441  13.709  33.467  10.626
99017W        W71442  38.537  32.553   3.740
99018W        W71443  16.749   2.861   0.375
99019W        W71444  27.015  15.720  13.792
99020W        W71445  28.611   3.848   1.756
99021W        W71446  36.850   0.980  12.426
99022W        W71447   2.339  20.573   0.259
99023W        W71448  25.009  37.051  12.428
99024W        W71449  21.181  42.374  14.854
99025W        W71450  28.579   1.907  12.377
99026W        W71451  37.942  32.457   3.825
99027W        W71452   0.463  14.161   2.895
99028W        W71453   6.335  42.478  11.469
99029W        W71454  35.520   5.886  13.423
99030W        W71455   0.375  40.867  14.475
99031W        W71456  34.995  31.529  13.516
99032W        W71457  28.943  38.452   1.897
99033W        W71458  19.741  32.081  11.883
99034W        W71459  11.759  24.112   2.287
99035W        W71460  36.403  20.543  12.914
99036W        W71461   6.835  15.602   4.826
99037W        W71462  26.955  19.579   3.759
99038W        W71463  36.092  18.706   3.740
99039W        W71464  36.348  14.188   4.167
99040W        W71465  32.595  20.646   0.316
99041W        W71466  19.205   0.742   9.970
99042W        W71467  10.717  26.610   2.885
99043W        W71468  23.597  42.368  10.965
99044W        W71469  29.046   6.333  10.506
99045W        W71470   6.723  13.145  14.848
99046W        W71471  21.698  19.768  13.480
99047W        W71472   2.729  27.591  13.906
99048W        W71473  27.066   6.835   3.297
99049W        W71474  27.151  25.681  14.495
99050W        W71475  30.476  37.538  13.988
99051W        W71476  21.164  38.357   0.262
99052W        W71477  33.400   0.937  11.983
99053W        W71478  32.616  41.488  13.514
99054W        W71479  32.450   8.394  12.547
99055W        W71480  26.096   8.271  10.478
99056W        W71481  27.175  25.989  10.934
99057W        W71482  12.226  40.427   2.376
99058W        W71483  33.555  36.500   3.270
99059W        W71484  32.102  18.599  10.133
99060W        W71485  39.835  10.269   3.864
99061W        W71486  11.320  27.125   4.728
99062W        W71487   4.243  25.691  14.295
99063W        W71488  42.848  38.547   4.117
99064W        W71489  26.695  20.702  14.357
99065W        W71490  44.783   7.259   3.785
99066W        W71491  13.298   9.742   0.955
99067W        W71492  37.929  10.345  12.015
99068W        W71493  34.418  17.093  10.546
99069W        W71494  35.099  28.079   1.800
99070W        W71495  11.219  25.522  11.944
99071W        W71496   0.898  40.976  10.956
99072W        W71497   8.659  23.537  13.458
99073W        W71498  22.103   3.943  12.367
99074W        W71499  19.688  13.809   1.434
99075W        W71500  36.397   6.337  13.036
99076W        W71501   6.280  41.371  11.003
99077W        W71502  29.108   4.703   3.150
99078W        W71503  40.304  39.821  12.490
99079W        W71504  35.542  44.953   0.883
99080W        W71505  15.630  24.683  10.528
99081W        W71506  19.657  33.876  10.900
99082W        W71507  34.043  33.434  13.484
99083W        W71508  33.555  43.394  12.461
99084W        W71509  12.223  44.397  11.887
99085W        W71510  13.121  44.988  12.963
99086W        W71511  27.602  17.212   4.772
99087W        W71512  42.432  17.601   1.715
99088W        W71513  24.063  23.539  10.926
99089W        W71514   3.351  20.532   2.690
99090W        W71515   5.423  32.914  13.548
99091W        W71516  29.454  43.305   4.803
99092W        W71517   6.886   3.444   1.392
99093W        W71518   5.258  29.122   0.761
99094W        W71519  14.295  28.629   2.873
99095W        W71520  10.765   4.336  14.938
99096W        W71521   7.208  13.171   2.192
99097W        W71522   4.230   1.313   2.748
99098W        W71523  32.970  17.579  11.111
99099W        W71524   1.786   8.671  13.860
99100W        W71525  13.805   5.225   1.869
99101W        W71526  22.613  13.303  11.961
99102W        W71527  23.222  22.071   4.827
99103W        W71528  36.901  36.421  10.600
99104W        W71529  27.568  34.446   2.368
99105W        W71530  12.303   7.869   1.756
99106W        W71531  19.227  17.265  14.826
99107W        W71532   1.874   3.327   0.825
99108W        W71533  30.146  22.723  13.834
99109W        W71534  10.746  11.782  11.950
99110W        W71535  19.282  27.590   0.751
99111W        W71536  14.133  40.841   3.704
99112W        W71537  24.672  32.069   0.256
99113W        W71538  41.901  28.668   3.843
99114W        W71539  35.418  20.189   0.733
99115W        W71540  18.591  14.793   0.333
99116W        W71541  11.648  44.882   2.838
99117W        W71542  30.970  16.682  11.540
99118W        W71543  40.820  25.169   2.311
99119W        W71544  17.704   8.200  14.323
99120W        W71545  14.725  37.346  11.439
99121W        W71546  31.418  17.570  12.094
99122W        W71547  25.594  11.816   3.679
99123W        W71548  28.135  37.068   4.260
99124W        W71549  21.062  30.455  11.099
99125W        W71550  35.581  35.398  10.492
99126W        W71551  24.543  30.479  10.551
99127W        W71552  30.971   3.774   4.138
99128W        W71553  31.070  30.597   4.713
99129W        W71554  12.707  41.344   2.810
99130W        W71555  15.656   6.848   0.908
99131W        W71556  24.533  34.076   2.253
99132W        W71557  26.001  35.048  10.552
99133W        W71558  33.099   3.718   0.417
99134W        W71559  43.918  13.236  13.390
99135W        W71560   8.383  24.986  11.877
99136W        W71561  21.550  35.559  14.282
99137W        W71562  14.712  25.091   4.791
99138W        W71563  18.756  12.145  10.638
99139W        W71564  20.702  10.239  11.075
99140W        W71565   9.381  38.500  13.820
99141W        W71566  38.530  34.408   0.370
99142W        W71567  12.773   0.788  12.995
99143W        W71568  32.068  24.151   1.712
99144W        W71569  28.154  11.285  11.380
99145W        W71570  10.698  35.460  11.908
99146W        W71571  38.434  30.058   4.223
99147W        W71572  19.710   7.262  13.390
99148W        W71573  30.504   6.415   2.346
99149W        W71574  20.147   7.275  14.922
99150W        W71575  36.552   9.718   0.335
99151W        W71576  15.733  34.593   2.852
99152W        W71577   5.245  20.195   4.642
99153W        W71578  13.705  37.875  13.390
99154W        W71579  10.739  31.113  12.515
99155W        W71580  16.744  42.482   2.902
99156W        W71581  25.992  17.264   3.292
99157W        W71582   8.202  19.065   0.839
99158W        W71583   6.342  31.639  10.928
99159W        W71584  35.034  33.387   3.662
99160W        W71585   0.936   6.206  10.982
99161W        W71586  10.709  10.701   4.178
99162W        W71587   2.278  33.011   2.229
99163W        W71588  22.713  27.999   5.261
99164W        W71589  20.131   4.424   2.315
99165W        W71590  38.912  18.584  12.387
99166W        W71591   4.446   0.917  14.398
99167W        W71592  23.688   9.394  14.893
99168W        W71593  11.297  18.778   3.369
99169W        W71594   0.959  31.921   2.763
99170W        W71595  17.249  11.648   2.675
99171W        W71596  12.134  11.853  10.447
99172W        W71597   5.394   3.877   2.686
99173W        W71598  39.947  27.683   1.707
99174W        W71599  32.003   6.197  11.027
99175W        W71600  14.679  28.462   2.410
99176W        W71601  32.082  12.116  11.447
99177W        W71602  19.140   4.790   3.346
99178W        W71603  41.002  38.031   3.812
99179W        W71604  12.219  16.108  10.442
99180W        W71605  33.007  17.728   4.802
99181W        W71606  20.158  41.451   0.729
99182W        W71607  36.417  29.530   1.318
99183W        W71608   5.769  31.056   4.226
99184W        W71609   9.788   1.291  13.038
99185W        W71610  36.999  14.802  14.917
99186W        W71611  17.606  41.293  11.077
99187W        W71612  14.594  21.144  10.614
99188W        W71613  16.647   6.300   2.283
99189W        W71614  14.097   6.891  10.474
99190W        W71615  42.893  16.657   0.793
99191W        W71616  32.904   3.292   4.181
99192W        W71617  35.965  37.907   1.359
99193W        W71618  26.019   8.684  13.399
99194W        W71619  16.575  34.561   4.798
99195W        W71620  41.325  41.354   2.294
99196W        W71621  39.057   6.343   4.631
99197W        W71622  33.052  13.691  12.537
99198W        W71623  11.141  26.688   1.272
99199W        W71624   2.813  17.793   4.709
99200W        W71625  15.205   0.920   3.862
99201W        W71626   3.844  22.511   0.407
99202W        W71627  40.534  26.577   2.281
99203W        W71628  43.293  27.455   3.853
99204W        W71629  27.571  27.447   0.959
99205W        W71630  30.610   6.677   0.338
99206W        W71631  29.490  19.663  10.147
99207W        W71632  22.102  20.093  11.873
99208W        W71633  12.781  37.522  13.318
99209W        W71634   6.824  20.064   1.759
99210W        W71635  12.753   6.356   4.825
99211W        W71636  27.611  11.662  12.893
99212W        W71637  29.630  29.488   1.808
99213W        W71638  33.950   0.380  13.368
99214W        W71639  11.160  19.152   4.173
99215W        W71640   7.360   0.304   4.740
99216W        W71641  40.873  42.510   0.444
99217W        W71642  19.660  18.720  12.464
99218W        W71643  15.302  24.157  13.043
99219W        W71644   1.249  42.430   3.662
99220W        W71645  11.688  35.935  10.036
99221W        W71646  30.070  28.076  10.926
99222W        W71647  32.110  40.334   2.807
99223W        W71648  34.054  44.392  11.091
99224W        W71649  22.637  24.210   4.150
99225W        W71650   6.246  19.599   4.261
99226W        W71651  18.121  18.569  11.402
99227W        W71652  33.935  33.503   0.410
99228W        W71653   2.319  30.993  10.525
99229W        W71654   4.445  24.494  11.974
99230W        W71655  18.092  10.326  10.903
99231W        W71656  42.893  34.952   1.366
99232W        W71657  29.996  40.024   3.160
99233W        W71658  27.989  32.899   2.246
99234W        W71659  38.999  42.434  13.338
99235W        W71660  19.756   7.391  11.599
99236W        W71661  23.084   6.319  11.897
99237W        W71662  19.553  27.055  13.340
99238W        W71663  36.363  24.036   2.778
99239W        W71664   2.848   9.723   0.795
99240W        W71665  22.197  33.897   0.840
99241W        W71666  34.386  43.791   3.681
99242W        W71667   7.217   7.791  10.618
99243W        W71668  40.969  27.131   4.200
99244W        W71669  33.114  34.462  10.961
99245W        W71670  23.646  16.217  12.392
99246W        W71671  43.275  15.142   0.404
99247W        W71672   5.835  16.568  10.445
99248W        W71673  13.687  38.554   1.248
99249W        W71674  18.085   1.418   4.247
99250W        W71675  19.045  35.568   4.280
99251W        W71676  16.258  29.997  14.949
99252W        W71677  19.733  31.469  11.106
99253W        W71678  28.127  19.065  13.505
99254W        W71679  34.519   9.354   3.192
99255W        W71680  32.561  14.108  10.538
99256W        W71681  35.866  15.642   0.432
99257W        W71682   3.722  15.153   2.806
99258W        W71683  22.694  27.480   0.837
99259W        W71684   2.863  16.118  14.820
99260W        W71685  13.720  29.006  13.318
99261W        W71686   3.736  28.031   0.773
99262W        W71687  40.534  20.180  12.000
99263W        W71688   9.195  26.182   1.797
99264W        W71689  11.155  11.231   1.335
99265W        W71690  40.335  30.420   0.369
99266W        W71691  14.650  13.845   1.303
99267W        W71692   2.738  41.836  13.946
99268W        W71693  39.352  18.593  11.997
99269W        W71694  10.827  36.422  11.927
99270W        W71695   9.885   0.767   3.727
99271W        W71696   9.385   3.937   4.346
99272W        W71697  23.506  25.603   0.870
99273W        W71698  33.572  18.171   2.696
99274W        W71699  27.089   7.263  12.095
99275W        W71700  32.470  25.625   1.822
99276W        W71701  43.962  32.892  10.551
99277W        W71702  14.610  10.329   1.840
99278W        W71703  28.060  42.298  14.833
99279W        W71704  44.882   2.885   3.647
99280W        W71705   5.915   6.865   2.664
99281W        W71706  12.320  41.886   3.327
99282W        W71707   1.746   6.242   3.152
99283W        W71708  13.734  40.455   1.857
99284W        W71709   0.429  17.192  12.893
99285W        W71710   1.242  37.957  11.562
99286W        W71711  25.473  40.964   0.951
99287W        W71712  38.066  29.478   0.432
99288W        W71713  29.486   6.346  14.454
99289W        W71714   5.926  44.293  14.860
99290W        W71715   0.459  42.987  14.810
99291W        W71716  28.982  24.662   2.756
99292W        W71717  27.983  41.019   3.184
99293W        W71718  41.888   3.883   4.636
99294W        W71719  10.302  43.764   3.281
99295W        W71720   9.323  33.501  11.586
99296W        W71721   0.853  34.028   4.288
99297W        W71722  25.996  17.645  13.005
99298W        W71723  22.533  26.975   4.726
99299W        W71724   3.922  32.496  12.342
99300W        W71725  43.488   9.836   1.435
99301W        W71726  26.645  16.222   2.362
99302W        W71727  35.029   0.835  12.368
99303W        W71728  30.159  14.663  13.022
99304W        W71729  38.009  23.692  10.135
99305W        W71730  27.576  17.771   4.605
99306W        W71731  16.733   2.378   4.260
99307W        W71732  16.285  11.258  12.996
99308W        W71733  16.264   3.360  10.032
99309W        W71734   7.708  28.629   1.223
99310W        W71735  15.297  11.229   0.390
99311W        W71736  28.626  40.363  10.474
99312W        W71737  17.165   8.365   4.732
99313W        W71738  25.601  23.683   4.217
99314W        W71739  35.018  23.514   0.385
99315W        W71740  13.320   1.303  14.468
99316W        W71741  24.614   5.879   2.798
99317W        W71742  27.525  34.559  11.946
99318W        W71743   9.843  39.863   3.275
99319W        W71744  37.398  16.120   4.299
99320W        W71745   9.357   1.837  12.090
99321W        W71746  26.483  20.064  13.797
99322W        W71747  33.080  30.582   3.724
99323W        W71748  22.579  40.018  11.419
99324W        W71749  20.702  10.177   3.312
99325W        W71750  21.252  29.601  13.866
99326W        W71751  12.771  36.996   4.144
99327W        W71752  35.363  27.574   1.438
99328W        W71753  39.452  23.099  12.081
99329W        W71754  18.618  15.632   1.319
99330W        W71755  32.484   1.763  10.495
99331W        W71756  44.803  35.900  10.415
99332W        W71757  31.522   1.970  10.455
99333W        W71758  30.492   6.362  10.427
99334W        W71759  31.438   8.209   1.864
99335W        W71760  28.626   7.757   4.808
99336W        W71761  27.631   2.852  13.379
99337W        W71762  25.110  28.019   3.697
99338W        W71763  34.538   4.893  10.951
99339W        W71764  19.245  43.767  13.992
99340W        W71765  30.504   1.458  11.025
99341W        W71766   2.277  40.936  11.596
99342W        W71767   1.410  43.839   1.779
99343W        W71768  19.113  39.443  14.371
99344W        W71769   6.792  26.039   3.721
99345W        W71770   7.874  37.973  13.537
99346W        W71771   3.881  41.904  11.457
99347W        W71772  17.146   4.749  12.878
99348W        W71773  27.982  17.779  12.525
99349W        W71774  23.731  38.075  11.118
99350W        W71775  27.691  26.166  10.455
99351W        W71776  19.586   1.939  11.893
99352W        W71777  24.096  42.359   2.190
99353W        W71778  25.547  25.672   1.278
99354W        W71779  36.471  10.636  11.029
99355W        W71780   5.906  29.069   2.243
99356W        W71781  37.062   8.670   1.913
99357W        W71782  42.384  10.251  14.898
99358W        W71783  29.493  27.130   3.719
99359W        W71784   9.360   6.421   3.788
99360W        W71785  32.607  20.140   2.687
99361W        W71786   1.292  26.986  13.059
99362W        W71787  44.985  24.627   3.237
99363W        W71788  26.050   1.794  13.980
99364W        W71789  22.594   6.217  13.899
99365W        W71790  27.995  15.735   3.757
99366W        W71791  33.475  24.144   0.808
99367W        W71792  37.540  18.193  14.346
99368W        W71793  38.903  30.450  14.351
99369W        W71794  16.568   2.855   2.242
99370W        W71795   2.822  38.424   4.287
99371W        W71796  30.985   8.758   2.759
99372W        W71797  43.321  15.649  12.058
99373W        W71798  33.979  41.851   3.272
99374W        W71799  13.778  42.032  12.434
99375W        W71800  26.694   5.428   2.679
99376W        W71801  20.159   0.896  11.556
99377W        W71802  35.407  29.066  14.855
99378W        W71803  19.111  36.475   1.779
99379W        W71804  12.148  39.413   4.298
99380W        W71805  21.073  21.236  14.318
99381W        W71806  18.130  13.785   3.342
99382W        W71807  14.715  19.151   0.287
99383W        W71808  12.264  23.692  12.014
99384W        W71809  34.032  42.430   4.201
99385W        W71810   2.363   4.833   4.656
99386W        W71811   5.851  12.273  14.391
99387W        W71812   6.217  12.189  12.497
99388W        W71813  27.126   9.809   4.785
99389W        W71814  29.424  11.839   4.189
99390W        W71815  10.340  39.932  12.466
99391W        W71816  24.649   6.396  14.281
99392W        W71817  40.461  32.979   3.634
99393W        W71818  30.927  10.206   0.756
99394W        W71819  37.952   7.254   5.283
99395W        W71820   8.769  39.985   3.183
99396W        W71821  18.162  10.657  12.847
99397W        W71822  22.742  24.038   2.868
99398W        W71823  14.684  42.526  11.593
99399W        W71824  15.147  29.561   1.782
99400W        W71825  28.546  25.148   1.319
99401W        W71826  38.934  25.623   4.246
99402W        W71827  35.500  16.221   4.810
99403W        W71828  24.214  20.144   1.346
99404W        W71829  39.841  36.044  11.552
99405W        W71830  40.422  42.907  11.988
99406W        W71831  33.057  35.603   4.140
99407W        W71832  10.342   3.429   2.329
99408W        W71833  42.383   9.744   1.764
99409W        W71834  25.670  42.877   4.253
99410W        W71835  27.517  38.346   1.869
99411W        W71836  29.950   0.829   3.146
99412W        W71837  42.838   8.762  11.598
99413W        W71838   2.367  43.983   1.871
99414W        W71839  18.697  21.522   3.758
99415W        W71840   0.779  12.768   2.799
99416W        W71841  40.013  37.866   0.755
99417W        W71842  33.119  10.649  12.004
99418W        W71843  39.362  11.861   3.286
99419W        W71844  31.134  11.367  11.042
99420W        W71845  16.586  11.208  12.358
99421W        W71846  13.246  24.488   3.342
99422W        W71847  13.274  27.513   3.348
99423W        W71848  30.026  19.661  10.409
99424W        W71849  29.982   1.347  14.350
99425W        W71850  14.303  40.316   1.401
99426W        W71851  36.576  17.562  11.585
99427W        W71852  25.652  36.525  10.976
99428W        W71853  35.862  42.862  12.018
99429W        W71854  20.609  40.445   1.918
99430W        W71855   4.221  20.254  12.347
99431W        W71856  27.641  10.783  12.950
99432W        W71857   0.848  30.585  14.368
99433W        W71858  41.489  36.001   0.469
99434W        W71859  43.436  14.177   1.726
99435W        W71860   1.809   8.808   1.696
99436W        W71861   7.309   6.783   4.209
99437W        W71862  13.791  31.951   4.120
99438W        W71863  27.682   5.913   2.386
99439W        W71864  34.489   2.235   1.229
99440W        W71865   8.656  43.481   0.351
99441W        W71866  37.485  16.806   0.473
99442W        W71867  23.502   4.224  11.878
99443W        W71868  10.368  42.438   1.327
99444W        W71869  18.567  20.751  13.468
99445W        W71870  10.304   8.368  14.437
99446W        W71871   2.307  41.940  10.893
99447W        W71872  44.838  36.528  11.049
99448W        W71873   8.207   6.704   5.717
99449W        W71874  29.590  36.413   0.388
99450W        W71875  22.039  16.735   3.768
99451W        W71876  16.091  11.637   0.419
99452W        W71877  15.620   2.745  10.974
99453W        W71878   4.297  30.959  13.925
99454W        W71879  25.479  33.578   3.721
99455W        W71880   0.295   0.465  13.325
99456W        W71881   7.262  18.615  11.074
99457W        W71882  15.118   8.180  10.893
99458W        W71883  32.918  31.528   2.343
99459W        W71884  35.358  37.467   1.780
99460W        W71885   9.762   3.872  10.553
99461W        W71886  32.391  23.175  13.499
99462W        W71887   5.821  11.626  11.471
99463W        W71888  13.786  42.865   1.802
99464W        W71889  16.111  27.986   0.246
99465W        W71890  30.595  26.648   2.724
99466W        W71891   6.195  36.378   3.252
99467W        W71892  44.406  35.971  11.064
99468W        W71893   4.887  28.622   4.639
99469W        W71894  23.208  17.597  13.415
99470W        W71895  30.577  35.095  14.830
99471W        W71896  17.689  13.683   0.911
99472W        W71897  15.250  20.264   2.759
99473W        W71898  33.402   6.921  10.067
99474W        W71899  22.035  10.142  10.583
99475W        W71900   8.212  40.055  10.408
99476W        W71901  31.074  31.459  12.836
99477W        W71902   6.802  44.775   0.398
99478W        W71903  30.916  39.531   0.945
99479W        W71904  38.929  31.949   0.308
99480W        W71905  40.975  19.261   2.266
99481W        W71906   0.440  43.495  14.471
99482W        W71907  42.499  24.139   1.263
99483W        W71908  43.955  20.571  12.923
99484W        W71909  41.975  31.991   4.712
99485W        W71910   0.920  20.732   4.638
99486W        W71911  23.663  20.602   3.771
99487W        W71912  44.337   2.926   4.806
99488W        W71913  25.614  32.451   1.257
99489W        W71914   2.288  15.271  13.390
99490W        W71915  43.492  21.702  12.343
99491W        W71916  26.503   4.432  10.511
99492W        W71917   6.377  44.980  14.930
99493W        W71918  38.393  38.027   3.761
99494W        W71919   4.352   9.363  11.901
99495W        W71920  32.517   6.878  14.407
99496W        W71921  40.502  33.443   4.325
99497W        W71922  27.682  23.203  11.524
99498W        W71923   3.445  38.991  13.821
99499W        W71924   2.836  30.100   1.721
99500W        W71925   0.351   8.320   0.921
99501W        W71926  15.220  18.255   3.386
99502W        W71927   4.924  37.345   3.286
99503W        W71928  14.777  17.139  14.976
99504W        W71929  29.503   2.382   4.289
99505W        W71930  27.445   2.334   1.882
99506W        W71931  44.827  33.620  11.115
99507W        W71932  24.507  29.982   3.170
99508W        W71933  30.475   7.239  10.913
99509W        W71934  27.097  38.567  14.334
99510W        W71935   6.789  11.323   4.120
99511W        W71936  44.957  27.036  14.859
99512W        W71937  19.764   5.416   0.756
99513W        W71938  10.317  36.465  11.989
99514W        W71939  11.336  25.651   1.702
99515W        W71940   5.328  33.601  10.603
99516W        W71941   9.718  31.096  14.357
99517W        W71942   5.277   7.388   3.151
99518W        W71943  34.892  27.161  14.772
99519W        W71944  27.628  36.454  13.391
99520W        W71945  36.034  25.036  12.415
99521W        W71946  17.298  36.510  14.303
99522W        W71947   8.309  35.368   3.383
99523W        W71948  13.111  42.429   0.770
99524W        W71949  10.383  35.579  10.472
99525W        W71950  25.675  24.627  10.450
99526W        W71951  27.649   8.178   0.904
99527W        W71952  29.096   2.863  11.468
99528W        W71953  29.934  13.337   2.682
99529W        W71954  31.896  40.433   4.793
99530W        W71955   5.882  29.984   2.727
99531W        W71956  28.626  41.879  11.487
99532W        W71957  20.567  17.764   1.744
99533W        W71958  21.205  22.626  11.474
99534W        W71959  23.727  26.998  13.421
99535W        W71960  44.000  23.234   1.342
99536W        W71961  19.084  17.708  10.523
99537W        W71962  30.120  37.445   1.357
99538W        W71963  44.780  34.015   3.716
99539W        W71964  17.626  42.424   0.365
99540W        W71965   1.741  29.541  12.095
99541W        W71966   1.450   2.277   2.386
99542W        W71967  15.650  33.077   2.307
99543W        W71968  29.560  16.714   2.216
99544W        W71969  39.036  23.169  11.122
99545W        W71970   7.405  25.162  10.601
99546W        W71971   6.405   1.878  12.033
99547W        W71972  25.633  43.347   4.710
99548W        W71973  38.967   7.829   3.805
99549W        W71974  27.995  43.278  10.903
99550W        W71975  31.494  34.428   3.690
99551W        W71976  41.390   3.854  10.617
99552W        W71977  34.527  33.919  10.988
99553W        W71978  22.062   4.300  13.893
99554W        W71979  14.793  25.621   2.387
99555W        W71980  16.272  32.945   0.324
99556W        W71981  16.789  15.660  13.923
99557W        W71982  35.055  23.579   5.734
99558W        W71983  33.099  10.720  13.844
99559W        W71984  30.504   9.744  10.434
99560W        W71985   4.423  10.319  11.035
99561W        W71986  14.703  43.925   4.226
99562W        W71987  39.558  43.793  12.857
99563W        W71988  38.562  30.518  13.022
99564W        W71989  22.216  41.861   1.340
99565W        W71990  35.105  24.096  13.013
99566W        W71991   4.444  18.713   3.800
99567W        W71992   2.360   6.347  11.075
99568W        W71993  10.150   5.326  14.013
99569W        W71994  25.579  31.094   0.773
99570W        W71995   9.389  32.016   4.185
99571W        W71996  27.477   3.955  11.583
99572W        W71997  41.938  32.923  11.934
99573W        W71998  34.994   4.401  10.421
99574W        W71999  41.416  22.193  13.003
99575W        W72000  39.918   3.242  13.933
99576W        W72001   6.313  37.337  10.146
99577W        W72002  42.812  14.795   4.161
99578W        W72003  41.854  41.032   1.851
99579W        W72004  39.530   9.149   2.244
99580W        W72005  25.078  32.556   0.437
99581W        W72006  24.621   4.894   9.959
99582W        W72007  22.621  29.008   4.255
99583W        W72008  33.570  13.683   0.440
99584W        W72009  12.673  14.158   0.879
99585W        W72010   1.325  41.348  10.916
99586W        W72011  43.399  40.896   0.754
99587W        W72012  16.758  28.141   4.287
99588W        W72013   8.404  17.284   2.892
99589W        W72014  11.829  41.440   1.917
99590W        W72015  44.787  13.134  12.344
99591W        W72016  38.402  39.839  13.022
99592W        W72017  25.478  12.234  11.030
99593W        W72018  43.952  29.429  14.817
99594W        W72019  12.228   6.872   1.696
99595W        W72020  11.279  35.426  13.342
99596W        W72021  41.837  40.913   4.822
99597W        W72022  12.128  31.402   0.338
99598W        W72023  31.636  31.946  13.518
99599W        W72024  17.560  35.366  14.862
99600W        W72025  36.361  16.248  11.086
99601W        W72026  31.592  20.075  11.042
99602W        W72027   3.352  21.749   4.242
99603W        W72028  15.127  21.734  12.426
99604W        W72029  10.821  36.492   0.756
99605W        W72030  21.133  10.861   1.800
99606W        W72031  43.276   8.817   1.310
99607W        W72032  22.616   1.467  11.882
99608W        W72033  42.818  35.033  10.890
99609W        W72034   4.931  38.475  10.970
99610W        W72035  21.128  27.576  13.387
99611W        W72036   9.643  43.967  11.394
99612W        W72037  23.092  37.910  13.376
99613W        W72038  27.942  13.264   4.712
99614W        W72039   1.345  41.452   1.796
99615W        W72040  10.325  22.221   0.308
99616W        W72041  17.073  41.862  14.409
99617W        W72042  40.520  41.856  13.457
99618W        W72043  28.998   4.443  11.091
99619W        W72044  14.821  27.485  12.491
99620W        W72045  19.693  15.735   0.892
99621W        W72046   3.217  20.266  11.064
99622W        W72047  13.122  31.143   1.895
99623W        W72048  35.570  26.023  10.547
99624W        W72049  38.074  31.149  12.966
99625W        W72050  14.141  31.604   3.774
99626W        W72051  40.352   9.169   1.311
99627W        W72052  12.817  11.258  11.870
99628W        W72053   6.335  44.383   1.242
99629W        W72054  14.244  32.978  14.940
99630W        W72055  27.478  21.738   4.249
99631W        W72056  20.176  35.088   4.788
99632W        W72057  32.115  43.928   4.354
99633W        W72058  32.021   6.187   3.336
99634W        W72059  25.517  32.940   1.909
99635W        W72060  37.002  41.038  12.946
99636W        W72061   3.353  39.492  11.501
99637W        W72062  24.659  16.747  13.346
99638W        W72063  17.712   4.755  10.635
99639W        W72064  26.991  25.485  12.965
99640W        W72065  39.345   2.896   4.157
99641W        W72066  22.574   3.329   2.417
99642W        W72067   1.374  16.080  14.984
99643W        W72068  39.027  10.341   2.414
99644W        W72069  16.599  21.214   4.712
99645W        W72070  32.437  30.023  12.030
99646W        W72071  27.136  42.815   0.465
99647W        W72072   4.428   5.814  13.940
99648W        W72073   5.743   0.853  13.060
99649W        W72074  16.275   0.767  10.013
99650W        W72075  23.145  36.456   0.417
99651W        W72076   4.933  26.113   3.859
99652W        W72077  36.377  13.824   3.272
99653W        W72078  39.363  35.106  14.013
99654W        W72079  22.106  42.465   0.381
99655W        W72080  18.144   7.409  13.037
99656W        W72081  42.808  16.112   2.852
99657W        W72082   8.397  41.995  13.324
99658W        W72083  18.588  29.025  13.511
99659W        W72084  32.522  23.641  11.073
99660W        W72085  18.592  31.455  11.971
99661W        W72086  31.577  40.480  13.836
99662W        W72087   7.254  43.452  11.480
99663W        W72088  23.507  25.021   2.234
99664W        W72089  11.157  29.525   1.855
99665W        W72090  30.010  28.132   0.854
99666W        W72091  40.536  44.488  13.368
99667W        W72092   3.313  39.447   3.817
99668W        W72093  38.346  11.625  14.829
99669W        W72094  17.086  22.048   2.822
99670W        W72095  29.550  26.677  11.400
99671W        W72096   6.242  12.177  11.554
99672W        W72097  20.639  21.588   1.812
99673W        W72098  24.558  10.782   0.866
99674W        W72099  24.076  33.937   1.355
99675W        W72100  21.624  27.574   2.895
99676W        W72101   5.194  25.531   3.212
99677W        W72102   0.945  31.498   2.194
99678W        W72103  43.817  35.585   2.377
99679W        W72104  17.241  40.859   0.841
99680W        W72105  32.450  21.160   0.955
99681W        W72106   7.308  24.723   4.204
99682W        W72107  21.092  11.290   3.760
99683W        W72108  39.975  19.663  11.482
99684W        W72109  35.057   2.424   0.471
99685W        W72110  26.090   9.660  14.290
99686W        W72111   9.198  38.036  12.976
99687W        W72112  29.024  38.036  11.902
99688W        W72113   5.234  43.435   4.763
99689W        W72114   5.922  15.752  11.012
99690W        W72115   3.391  27.057   0.449
99691W        W72116  28.489  20.039  14.361
99692W        W72117   6.706   4.826  11.410
99693W        W72118   5.364  23.165   4.753
99694W        W72119  44.966  19.069   1.241
99695W        W72120  10.674  10.352  11.439
99696W        W72121  25.577  20.185  11.409
99697W        W72122  37.883  44.865   1.781
99698W        W72123   6.358  34.877  12.903
99699W        W72124  20.603  16.643   4.641
99700W        W72125  16.263  23.507  13.979
99701W        W72126   3.845  43.466  13.933
99702W        W72127  35.107   3.458  11.455
99703W        W72128  40.813  16.297   3.847
99704W        W72129  26.530  26.027  13.847
99705W        W72130  11.174  34.894   2.417
99706W        W72131  32.033   3.884  12.553
99707W        W72132  31.027  43.851   4.699
99708W        W72133  18.608  24.586   0.758
99709W        W72134   9.340  28.510   4.265
99710W        W72135  41.036  32.047  13.438
99711W        W72136  32.086   9.248   3.192
99712W        W72137  36.957  31.448  11.427
99713W        W72138  41.812   1.835   4.691
99714W        W72139  27.545   8.843   0.274
99715W        W72140  10.717   7.877   2.863
99716W        W72141  36.036   8.881   3.632
99717W        W72142   1.454   2.815  12.850
99718W        W72143  25.139  30.616   3.303
99719W        W72144   3.771  20.705   0.325
99720W        W72145  29.654  23.516  11.074
99721W        W72146  22.239   9.184  12.044
99722W        W72147  34.373  18.556  14.477
99723W        W72148  24.059  10.371   5.763
99724W        W72149  31.113   7.348  14.905
99725W        W72150  17.571  12.207  14.302
99726W        W72151  44.357  12.117   3.352
99727W        W72152  16.772  35.957  12.466
99728W        W72153   2.777   8.368  14.418
99729W        W72154  19.649  25.219   2.333
99730W        W72155   6.409   3.904   1.393
99731W        W72156  30.522  16.658   0.885
99732W        W72157  15.257  24.523  10.567
99733W        W72158  26.968  26.153   1.220
99734W        W72159  16.246  14.755  14.862
99735W        W72160  23.046  40.970  12.963
99736W        W72161  23.600  24.058  13.421
99737W        W72162  43.355  35.371  13.318
99738W        W72163   9.676  11.748   0.856
99739W        W72164  23.008  44.412  13.419
99740W        W72165  16.232  32.563   3.203
99741W        W72166  20.063   1.971  11.944
99742W        W72167   9.795   4.371  14.437
99743W        W72168  16.309  42.416   2.358
99744W        W72169   4.278   1.447   3.349
99745W        W72170   6.729  19.581   2.830
99746W        W72171   5.722  31.043  13.477
99747W        W72172  22.017  16.308   2.193
99748W        W72173  30.137   3.937  13.468
99749W        W72174  28.012  20.156   0.384
99750W        W72175  29.425  19.630   2.336
99751W        W72176   7.761   6.707   9.929
99752W        W72177  26.494  43.850   0.325
99753W        W72178  44.812  29.563   3.758
99754W        W72179  21.242  41.897  14.506
99755W        W72180  24.538  37.908  10.466
99756W        W72181  21.191  14.188  14.449
99757W        W72182  35.930  40.409   2.705
99758W        W72183   6.324   1.874  11.469
99759W        W72184  20.060  22.249  12.366
99760W        W72185  12.717  18.739  13.886
99761W        W72186  37.555   7.811   0.754
99762W        W72187   3.773  11.710  14.944
99763W        W72188  22.240  36.956  11.559
99764W        W72189   7.686  13.843   4.837
99765W        W72190  19.580  23.579  13.903
99766W        W72191  12.837  44.912   1.783
99767W        W72192  37.007  15.207  10.530
99768W        W72193  17.185  36.403  13.430
99769W        W72194  36.081  22.189  12.828
99770W        W72195   3.892  17.136   9.951
99771W        W72196   2.794   0.812  11.576
99772W        W72197  18.212  20.676   2.892
99773W        W72198  30.628   5.783   0.770
99774W        W72199   7.376   4.939   2.723
99775W        W72200  33.425   7.290   2.730
99776W        W72201  12.742  34.961   3.801
99777W        W72202  15.750   8.861  12.090
99778W        W72203   6.229  41.036  14.015
99779W        W72204   3.731  23.673   3.681
99780W        W72205  30.976  41.435  13.985
99781W        W72206  33.517  15.156  13.034
99782W        W72207  40.412  36.949   0.476
99783W        W72208   4.852   6.346  13.475
99784W        W72209   0.829  23.726  11.509
99785W        W72210   3.847  13.293   4.727
99786W        W72211  10.175  28.478   3.845
99787W        W72212  26.463  15.105  14.276
99788W        W72213  44.412  13.602  11.955
99789W        W72214  31.542  28.608   4.261
99790W        W72215  44.499   9.258   3.200
99791W        W72216   8.317  10.823   3.717
99792W        W72217  21.240  17.695   0.793
99793W        W72218  13.317  37.452  12.020
99794W        W72219  21.750   6.366  14.286
99795W        W72220  26.102  29.450  10.599
99796W        W72221  16.290   6.406  14.499
99797W        W72222  42.293   1.342   4.125
99798W        W72223  11.819  16.585   0.294
99799W        W72224  37.881  38.072   1.293
99800W        W72225  11.674  39.061   5.124
99801W        W72226  13.296  44.300   3.315
99802W        W72227  35.490  44.388   2.788
99803W        W72228  24.992  14.810   1.422
99804W        W72229  30.628  22.576  13.959
99805W        W72230  22.709  35.028  11.586
99806W        W72231  30.128  25.643  14.887
99807W        W72232  12.298  22.627   0.468
99808W        W72233   0.274  36.046   1.883
99809W        W72234  30.613  15.646   2.783
99810W        W72235  23.182  41.317  11.976
99811W        W72236   6.403   7.342  13.343
99812W        W72237   8.355  26.593  12.578
99813W        W72238  17.293  20.124  13.378
99814W        W72239  20.264  29.536  10.026
99815W        W72240  33.900  27.193   2.665
99816W        W72241  35.508   7.407  14.286
99817W        W72242  41.836  18.115   4.169
99818W        W72243  20.032  13.638   4.781
99819W        W72244  34.938  32.139   0.816
99820W        W72245  27.541  21.055  12.938
99821W        W72246  42.493  13.689   4.644
99822W        W72247  32.486   4.437  13.474
99823W        W72248  18.269  31.151   1.388
99824W        W72249   5.774  33.879   1.700
99825W        W72250  39.994  39.899  13.959
99826W        W72251  36.969  14.263   4.217
99827W        W72252  36.033  12.216   3.241
99828W        W72253  13.350   6.247  12.406
99829W        W72254  23.600  40.438   4.749
99830W        W72255  19.738  23.072   0.311
99831W        W72256  27.970  33.407  13.818
99832W        W72257  30.624  26.465   1.263
99833W        W72258  34.973  16.124  14.400
99834W        W72259  37.422  23.195   1.895
99835W        W72260  26.539  30.950   4.148
99836W        W72261  11.253  29.106   1.935
99837W        W72262  20.555  13.812   4.188
99838W        W72263   4.820  21.656  14.478
99839W        W72264  31.479  43.483   4.804
99840W        W72265  24.669   4.826   2.865
99841W        W72266  12.715  38.455  12.341
99842W        W72267  13.713   1.281   0.392
99843W        W72268  27.960  21.154  14.326
99844W        W72269  24.627  16.263  11.393
99845W        W72270  21.240  41.991   4.631
99846W        W72271  30.643  20.138  10.580
99847W        W72272  15.313  37.561   3.167
99848W        W72273  36.914  33.611  14.958
99849W        W72274  10.877   2.318   1.709
99850W        W72275  34.472   8.236  10.934
99851W        W72276  19.666   2.776   2.750
99852W        W72277   6.389  14.650  13.998
99853W        W72278  44.913  14.665  11.968
99854W        W72279   3.323   2.792   3.327
99855W        W72280   0.922  28.959   1.762
99856W        W72281  14.196  20.742   3.265
99857W        W72282  16.697  11.291  14.423
99858W        W72283  24.096  24.703  11.578
99859W        W72284  22.077   9.216  11.051
99860W        W72285  30.456  11.174   1.762
99861W        W72286  39.406  10.787   1.249
99862W        W72287  12.197  23.194  13.919
99863W        W72288  22.697   5.266  11.541
99864W        W72289  13.296   9.757  14.322
99865W        W72290  11.289   4.403   2.414
99866W        W72291  27.692  16.184   4.726
99867W        W72292  18.242   4.804  14.465
99868W        W72293  31.087  20.744   0.410
99869W        W72294  16.077   0.280   0.299
99870W        W72295   1.342   0.784   2.767
99871W        W72296  43.819   3.819  11.063
99872W        W72297  16.179  14.765   2.835
99873W        W72298   7.207  12.851   4.706
99874W        W72299  13.785  31.078  13.454
99875W        W72300  23.696   3.742  11.098
99876W        W72301  33.054  34.394   1.818
99877W        W72302   2.367  39.057  14.336
99878W        W72303  34.120  13.196  12.471
99879W        W72304  14.329   7.908  11.040
99880W        W72305  18.594  17.772   4.272
99881W        W72306   9.719  43.490  13.917
99882W        W72307  12.271   0.305  11.597
99883W        W72308  39.355  12.853  10.603
99884W        W72309  39.557  36.027  14.387
99885W        W72310   7.758  33.625   1.795
99886W        W72311  12.719   9.723  13.996
99887W        W72312  33.048   7.773  10.894
99888W        W72313  28.632  37.497  14.422
99889W        W72314  28.129  30.564   2.839
99890W        W72315  21.159   2.865   0.310
99891W        W72316  28.976  41.296   1.707
99892W        W72317   0.261  33.455  12.845
99893W        W72318  14.241  21.753  12.467
99894W        W72319   2.878  37.067  12.506
99895W        W72320  18.071   8.884   1.791
99896W        W72321  23.120  21.080   2.809
99897W        W72322  17.066  41.482   4.664
99898W        W72323  11.134   6.708  12.914
99899W        W72324  35.881  28.453  11.470
99900W        W72325  42.937  15.314   0.358
99901W        W72326  27.615  12.172  12.449
99902W        W72327  29.658  11.209  10.939
99903W        W72328  18.061  15.221   0.812
99904W        W72329  33.117  28.145  11.469
99905W        W72330  31.144   3.286  13.037
99906W        W72331   9.351   7.756   2.322
99907W        W72332  21.676  27.097   1.795
99908W        W72333  41.381  22.624   3.770
99909W        W72334  39.899  34.533   1.743
99910W        W72335   0.406  33.888   0.473
99911W        W72336   4.720  30.107  13.851
99912W        W72337  12.282   7.340  13.847
99913W        W72338  44.364   5.374   0.889
99914W        W72339  20.129  30.079   1.771
99915W        W72340  24.988  27.978   0.795
99916W        W72341  15.163  42.922  13.804
99917W        W72342  26.996  34.030   4.664
99918W        W72343  35.379  25.024   5.673
99919W        W72344  28.093   9.687  12.919
99920W        W72345  20.180  18.745   0.288
99921W        W72346   7.237  31.509  13.028
99922W        W72347  31.042   5.775  11.073
99923W        W72348  38.396  25.979  14.762
99924W        W72349  11.312  28.673   3.188
99925W        W72350  25.999  20.644   2.197
99926W        W72351  42.314  31.065  12.527
99927W        W72352  17.232  18.127  14.801
99928W        W72353  19.120   0.387  12.062
99929W        W72354   9.685   6.781  14.420
99930W        W72355  28.514  30.921  12.546
99931W        W72356  39.053  13.189  14.964
99932W        W72357   9.746  33.389  10.632
99933W        W72358  18.185  23.059  11.371
99934W        W72359  12.158  14.678  14.275
99935W        W72360   8.895  26.141  14.785
99936W        W72361   1.849  23.986  12.405
99937W        W72362   0.769  15.738   4.317
99938W        W72363  16.088   0.815   3.265
99939W        W72364  15.272  43.470  10.486
99940W        W72365  29.490  39.971  10.969
99941W        W72366  25.549  13.132   1.873
99942W        W72367  44.877  12.657   4.701
99943W        W72368  21.661  22.527  11.863
99944W        W72369  37.556  15.773  12.020
99945W        W72370  14.210  35.444  11.604
99946W        W72371  34.435  18.588   0.310
99947W        W72372   7.177  24.626  11.934
99948W        W72373  11.765  25.157  14.329
99949W        W72374  10.804  13.216   2.289
99950W        W72375  18.261  25.556   1.234
99951W        W72376  16.209   6.239   2.732
99952W        W72377  30.645  37.518  13.042
99953W        W72378  36.489   0.758  13.834
99954W        W72379  31.631  18.052  12.560
99955W        W72380  35.361  15.156  11.991
99956W        W72381   6.863  11.364  14.443
99957W        W72382  18.140  12.692   0.275
99958W        W72383  20.699   7.705  14.379
99959W        W72384  23.989  20.685   4.196
99960W        W72385  17.799  17.212  14.299
99961W        W72386   0.761  23.055  11.075
99962W        W72387  14.729  30.442   1.323
99963W        W72388  29.112  21.530   2.787
99964W        W72389  13.298  34.490  11.594
99965W        W72390   0.444   6.736  14.018
99966W        W72391  17.134  21.260   4.789
99967W        W72392  15.633  42.404   1.408
99968W        W72393   4.767  18.631   2.711
99969W        W72394  40.012   9.662  12.968
99970W        W72395  21.753  36.949  14.289
99971W        W72396  19.580  10.284  11.610
99972W        W72397   4.273  43.908   4.135
99973W        W72398  44.430  37.957  12.430
99974W        W72399  29.464  21.108  12.019
99975W        W72400  20.266  23.986   1.843
99976W        W72401  30.953   4.751  11.916
99977W        W72402  24.106  17.680  14.472
99978W        W72403   8.891   7.383  12.364
99979W        W72404  34.026  34.074   4.317
99980W        W72405  12.310  25.670   3.146
99981W        W72406  19.771  18.691  10.627
99982W        W72407  43.959   7.368   4.333
99983W        W72408  34.393  11.283  14.975
99984W        W72409   4.296  17.302   1.866
99985W        W72410  17.617  21.211   0.274
99986W        W72411  38.908  39.059   4.713
99987W        W72412  32.413  28.932  11.442
99988W        W72413   4.823   7.851  14.358
99989W        W72414  13.712  42.374   0.901
99990W        W72415  18.179  32.579   5.100
99991W        W72416  30.983  22.649  14.377
99992W        W72417  21.550   0.401  10.969
99993W        W72418  38.911  25.489   0.850
99994W        W72419  21.573   0.265   4.837
99995W        W72420  23.549  39.411  10.586
99996W        W72421  38.357  33.412   0.845
99997W        W72422   7.212  14.217  11.508
99998W        W72423  35.364  14.110  11.568
99999W        W72424  31.611  33.471  13.366
    0W        W72425   3.762  18.650  13.502
    1W        W72426  43.865  34.085  12.544
    2W        W72427  21.175  19.575  10.630
    3W        W72428  12.241  18.599   3.184
    4W        W72429  14.288   5.214   3.177
    5W        W72430   3.926  10.171  13.899
    6W        W72431   3.433   2.391  14.990
    7W        W72432   3.748   2.921  14.759
    8W        W72433  18.591  36.056  14.854
    9W        W72434  30.152  26.995   1.898
   10W        W72435  17.289  33.622  11.953
   11W        W72436  32.480  13.201  10.607
   12W        W72437   6.183  11.238   1.748
   13W        W72438  22.678  13.333   3.642
   14W        W72439  40.512  39.050  13.519
   15W        W72440  31.583  18.121  11.495
   16W        W72441  38.969  16.726  10.512
   17W        W72442  15.121  22.024  13.543
   18W        W72443   8.366  25.491  14.408
   19W        W72444  20.748  17.289  14.810
   20W        W72445  13.689  37.963   4.128
   21W        W72446  19.273  10.840  10.474
   22W        W72447  43.966  36.080   2.227
   23W        W72448  28.042  26.962   4.657
   24W        W72449  25.622  37.397  11.610
   25W        W72450  16.778   6.865  11.927
   26W        W72451  11.827   2.278  14.957
   27W        W72452  23.496  14.768  13.005
   28W        W72453  30.075   3.820   0.821
   29W        W72454  11.173  34.967  11.923
   30W        W72455   7.857  39.491  14.779
   31W        W72456  33.540  44.901   3.334
   32W        W72457   4.895  14.828  14.769
   33W        W72458  28.138  27.961   1.235
   34W        W72459  15.819  23.528   0.462
   35W        W72460  10.639  40.415   3.155
   36W        W72461  41.530  35.576   1.899
   37W        W72462  32.590  16.766   1.805
   38W        W72463  20.169   4.307  14.508
   39W        W72464  18.197   1.439  12.527
   40W        W72465  20.546  38.335  13.545
   41W        W72466  29.456  37.527   2.678
   42W        W72467   9.711  19.200   4.155
   43W        W72468  42.995  36.354  13.811
   44W        W72469  17.698  13.795  10.427
   45W        W72470  10.715  25.187  12.096
   46W        W72471  31.020  41.850  14.996
   47W        W72472  19.767  43.005  10.516
   48W        W72473  29.542  34.965  14.769
   49W        W72474  27.579  36.967   2.855
   50W        W72475  40.890  30.096  12.566
   51W        W72476  32.136   3.834  14.785
   52W        W72477  43.469  39.432  11.888
   53W        W72478  33.105  22.050   3.788
   54W        W72479  37.427  29.055  12.949
   55W        W72480  31.030  33.569   0.342
   56W        W72481   3.426   1.933  14.305
   57W        W72482  40.348  25.530  14.315
   58W        W72483   1.430  38.032  13.794
   59W        W72484  31.113  13.290  11.522
   60W        W72485   1.745  15.184   4.769
   61W        W72486  36.849  29.069  11.957
   62W        W72487   9.750  38.003   3.721
   63W        W72488  27.582  18.728   1.384
   64W        W72489   4.827  41.371   3.174
   65W        W72490  42.016  43.277   3.276
   66W        W72491   6.299  11.696  12.826
   67W        W72492   2.351  19.732   4.180
   68W        W72493  26.963  38.852   3.747
   69W        W72494  17.603  21.129   4.170
   70W        W72495  19.724  20.249   3.217
   71W        W72496  40.354  22.601  14.962
   72W        W72497  27.555  30.624  10.953
   73W        W72498  12.306  11.727   3.193
   74W        W72499  36.923   2.892   0.313
   75W        W72500   6.794  36.459  13.946
   76W        W72501  21.543   4.758   1.343
   77W        W72502   4.905  43.319   0.317
   78W        W72503   3.716  39.506   2.752
   79W        W72504  30.472  36.523  11.573
   80W        W72505  19.247  42.826   1.326
   81W        W72506  36.980  34.512   2.209
   82W        W72507  20.178  24.708  10.496
   83W        W72508  27.095   4.345   3.215
   84W        W72509  17.735   5.755  10.576
   85W        W72510   1.824  34.490   3.707
   86W        W72511  27.635   1.805  11.994
   87W        W72512  35.961  20.551   3.859
   88W        W72513  31.489   3.242   3.685
   89W        W72514  43.400  35.368   3.316
   90W        W72515   2.804  44.335  12.070
   91W        W72516  14.131  10.711   0.346
   92W        W72517  20.190  42.469  12.438
   93W        W72518  35.483   2.300   2.264
   94W        W72519  41.498   4.375  14.368
   95W        W72520   2.737   3.255  10.534
   96W        W72521   5.858  18.057   1.273
   97W        W72522  20.535   1.419   0.296
   98W        W72523  17.081  10.744  11.910
   99W        W72524  41.428   9.650   0.365
  100W        W72525   8.232  31.017   4.147
  101W        W72526  10.772  18.130  14.293
  102W        W72527   3.337  31.995  11.871
  103W        W72528  29.039  42.863   1.731
  104W        W72529  32.633   1.930  12.571
  105W        W72530   5.894  37.956   3.785
  106W        W72531  31.048  26.041   1.758
  107W        W72532  28.118  17.715  12.965
  108W        W72533   2.967   4.742   1.330
  109W        W72534   8.734   3.752   0.788
  110W        W72535   1.970  29.518   4.712
  111W        W72536  10.769  26.149  14.329
  112W        W72537   4.935  44.341  13.843
  113W        W72538   8.712  10.655   0.765
  114W        W72539  44.803  22.061   3.207
  115W        W72540  43.781  27.512  12.864
  116W        W72541  28.151  13.641  11.863
  117W        W72542  23.645   7.700  13.379
  118W        W72543  28.177  43.878   3.175
  119W        W72544  11.145  40.879   3.794
  120W        W72545  33.433  23.502   3.281
  121W        W72546  30.140  37.338   0.849
  122W        W72547  31.502  26.036   2.263
  123W        W72548  20.146  30.647  14.884
  124W        W72549   6.285   4.317   2.696
  125W        W72550  35.895  29.996   3.335
  126W        W72551  24.021  44.261  11.034
  127W        W72552  24.485  42.284   3.207
  128W        W72553  43.949  34.091   1.739
  129W        W72554  29.057  38.951  12.015
  130W        W72555  20.191  22.080   4.742
  131W        W72556   6.281  28.581   3.209
  132W        W72557   0.749  38.951  14.498
  133W        W72558   0.923   9.812  14.780
  134W        W72559   3.449  30.653  12.053
  135W        W72560  27.657  35.966  13.450
  136W        W72561  29.526  23.505  14.008
  137W        W72562   3.771   7.339  14.512
  138W        W72563  26.689  32.629   4.171
  139W        W72564  39.329  13.831   4.734
  140W        W72565  27.123  43.445  14.790
  141W        W72566  36.036  44.480  12.089
  142W        W72567  28.633  43.998  12.030
  143W        W72568   2.850  37.443   3.678
  144W        W72569  38.419   0.788   1.262
  145W        W72570  26.073  22.601   0.335
  146W        W72571  29.640  23.682  11.945
  147W        W72572  33.437  11.320   2.244
  148W        W72573   8.802  38.951   4.610
  149W        W72574  37.876  36.465   1.440
  150W        W72575  25.088  39.447   0.302
  151W        W72576  41.891  43.897   2.378
  152W        W72577  24.513  20.251  12.935
  153W        W72578  19.247  16.307  13.813
  154W        W72579  43.477  17.132   3.712
  155W        W72580  41.812  38.511   2.882
  156W        W72581  18.676  11.677  11.489
  157W        W72582   1.932  20.267  14.340
  158W        W72583  16.782  40.051  14.847
  159W        W72584  36.582  26.672   0.759
  160W        W72585  19.048   1.809   5.799
  161W        W72586   5.327  17.636   0.864
  162W        W72587  27.082  43.512  13.318
  163W        W72588   2.235  44.383   5.214
  164W        W72589  11.353  38.891  14.308
  165W        W72590  15.694  42.780   1.789
  166W        W72591   7.217  35.458   3.341
  167W        W72592  24.080  35.080  13.927
  168W        W72593  13.237   6.260  10.963
  169W        W72594  32.936   5.230   2.196
  170W        W72595   5.405   8.703   3.215
  171W        W72596  33.386  11.834  13.342
  172W        W72597  20.560  34.890  10.463
  173W        W72598  18.763  19.539  12.048
  174W        W72599   2.449   5.736   2.214
  175W        W72600  41.003   7.849   1.419
  176W        W72601  39.418  24.187  14.770
  177W        W72602  15.749  34.937   2.207
  178W        W72603  34.054   2.461   0.348
  179W        W72604   2.464  43.354  10.563
  180W        W72605   7.708  37.342   4.294
  181W        W72606   8.685  33.507  13.341
  182W        W72607  19.730   9.359  10.404
  183W        W72608   1.331   4.711  10.508
  184W        W72609  27.183  28.944   3.150
  185W        W72610   5.793  33.454  14.318
  186W        W72611  36.090  13.257  13.514
  187W        W72612  17.082  24.658  11.930
  188W        W72613  16.642  15.199  14.431
  189W        W72614  14.115   9.182  10.642
  190W        W72615  25.001  35.478   2.830
  191W        W72616   2.737  22.130  11.903
  192W        W72617   1.922  33.625  13.335
  193W        W72618   2.783  31.619  11.514
  194W        W72619  28.136  28.948  14.767
  195W        W72620  31.077  30.024  10.424
  196W        W72621  31.436  37.961   2.301
  197W        W72622   3.932   7.327   3.797
  198W        W72623  10.810  27.167  13.347
  199W        W72624  18.751  30.653  10.112
  200W        W72625  11.331   3.745  14.341
  201W        W72626  19.128  13.192  11.951
  202W        W72627  43.771  33.610  13.525
  203W        W72628  31.455  11.339   4.829
  204W        W72629  14.690  41.013   0.832
  205W        W72630   2.733   2.400  12.023
  206W        W72631  44.357  25.137  11.869
  207W        W72632   8.769  37.080  13.471
  208W        W72633  39.941  19.618   4.829
  209W        W72634  37.352   7.728  10.596
  210W        W72635   4.265  34.938   4.829
  211W        W72636  41.007  36.413   3.868
  212W        W72637  10.765  11.210  13.321
  213W        W72638  42.859  22.662   3.842
  214W        W72639   8.259   4.729  11.433
  215W        W72640  30.979  34.574  14.415
  216W        W72641  22.530   2.464  11.458
  217W        W72642  22.058  15.724   0.950
  218W        W72643  33.578  26.586   1.828
  219W        W72644  31.621  13.644   1.246
  220W        W72645   5.841  34.577   0.372
  221W        W72646   0.416   4.449   1.401
  222W        W72647  30.018  42.405   4.718
  223W        W72648  42.861  35.476   0.421
  224W        W72649  42.518  31.130  13.422
  225W        W72650  40.314   0.866  13.903
  226W        W72651  41.326  30.086   2.406
  227W        W72652  24.686   0.389  13.438
  228W        W72653  29.977  22.185   3.751
  229W        W72654  36.913  42.786   0.323
  230W        W72655  31.130  26.964  11.425
  231W        W72656   1.902  33.476  11.502
  232W        W72657  22.042  43.891   1.370
  233W        W72658   4.804  11.708   1.883
  234W        W72659  21.126  25.692  14.985
  235W        W72660  33.971  30.041  11.051
  236W        W72661  32.949  27.004  12.542
  237W        W72662  35.555   7.403  11.601
  238W        W72663  24.052  41.429   3.194
  239W        W72664   1.875  41.892  12.038
  240W        W72665   8.820  14.605   4.666
  241W        W72666  33.509  21.562  11.483
  242W        W72667   6.732  22.523   2.805
  243W        W72668   0.475   5.311  12.902
  244W        W72669  14.326  11.639   5.295
  245W        W72670  38.431  41.895  11.543
  246W        W72671  19.758   4.232   2.286
  247W        W72672  12.254  25.196   4.782
  248W        W72673  30.637  25.488   2.766
  249W        W72674  32.444  21.616   2.679
  250W        W72675  43.869  39.942  13.406
  251W        W72676  20.653   9.213  11.977
  252W        W72677  19.617  20.145  14.287
  253W        W72678  34.448  32.029  12.032
  254W        W72679  42.283  28.543   0.961
  255W        W72680  31.556  11.806   3.237
  256W        W72681  18.139  42.382   0.440
  257W        W72682  24.229  13.127   1.443
  258W        W72683   0.326  13.348  10.427
  259W        W72684  37.893  10.679   1.868
  260W        W72685  39.009  16.588   0.858
  261W        W72686  29.923  20.753  14.926
  262W        W72687  25.648  41.861   0.895
  263W        W72688  29.519   9.260   2.865
  264W        W72689  29.665  19.223  11.426
  265W        W72690   4.423   4.724   1.382
  266W        W72691  12.718  22.094  11.868
  267W        W72692   6.817  12.211  10.915
  268W        W72693  19.231  27.954   2.347
  269W        W72694  15.293  10.802  12.951
  270W        W72695  39.547  41.535  13.022
  271W        W72696   6.285  17.565  12.571
  272W        W72697  14.183  17.211   2.712
  273W        W72698  25.073  33.497   3.855
  274W        W72699  23.598   1.360  12.506
  275W        W72700  10.202  29.603  10.535
  276W        W72701  11.192  26.566  11.879
  277W        W72702  40.449  42.905   0.929
  278W        W72703  31.110  11.828  14.919
  279W        W72704  28.673   5.300  10.985
  280W        W72705   3.913  30.527   0.446
  281W        W72706  34.976  44.271   2.356
  282W        W72707  24.648  20.617  13.325
  283W        W72708  20.077  24.592   1.807
  284W        W72709  20.153  10.764   2.885
  285W        W72710  17.075  23.204   4.736
  286W        W72711  18.176  30.481  13.315
  287W        W72712  39.048   3.460   2.413
  288W        W72713   8.268  25.645   0.809
  289W        W72714  18.683   9.198  12.350
  290W        W72715   0.370   2.297   4.216
  291W        W72716   4.345  33.887  12.058
  292W        W72717  30.638  18.738  12.849
  293W        W72718  21.147  19.645   4.168
  294W        W72719  23.606  44.356   2.690
  295W        W72720  42.403  15.749  12.493
  296W        W72721   9.387  19.712  12.057
  297W        W72722  36.493  40.889   0.363
  298W        W72723  28.616  30.428   1.442
  299W        W72724   9.301  22.606   9.942
  300W        W72725   8.856   0.863   3.348
  301W        W72726  36.043  15.287   3.329
  302W        W72727   7.773  27.607  13.018
  303W        W72728  23.063  18.279   3.265
  304W        W72729  19.068  13.627  11.551
  305W        W72730  10.289  18.738  12.434
  306W        W72731  39.378  22.521   0.728
  307W        W72732   0.794   4.207  14.305
  308W        W72733   3.408  20.145   0.306
  309W        W72734  39.903  29.441  14.300
  310W        W72735  28.135  15.274   2.759
  311W        W72736   4.713  39.005   0.783
  312W        W72737   4.426  32.936  10.995
  313W        W72738  41.322   2.939   3.722
  314W        W72739   3.336   2.841  14.434
  315W        W72740  20.653   4.817   4.836
  316W        W72741  34.447  27.462   0.872
  317W        W72742   0.367  39.398  12.466
  318W        W72743  26.020  27.121  10.552
  319W        W72744  33.899  28.507   4.278
  320W        W72745  22.127  26.628  11.559
  321W        W72746  26.665   4.309   3.289
  322W        W72747  11.300  24.146  14.029
  323W        W72748  35.040  12.233   1.777
  324W        W72749  11.255  10.149  11.029
  325W        W72750   2.323   4.918  14.351
  326W        W72751  40.020  35.387  14.308
  327W        W72752  16.811   3.932   2.885
  328W        W72753   4.931  31.453   1.834
  329W        W72754  42.838  32.464  11.858
  330W        W72755  18.552  32.595  10.564
  331W        W72756   9.662  15.598  10.555
  332W        W72757   2.353  29.997   0.910
  333W        W72758  12.171  36.964   1.354
  334W        W72759  41.335  24.154   0.270
  335W        W72760  23.238  23.109   0.245
  336W        W72761  14.175  35.584  13.513
  337W        W72762  28.064  10.188   4.720
  338W        W72763  38.463  12.151   2.293
  339W        W72764  38.495  33.506  12.046
  340W        W72765  14.206  28.113   2.769
  341W        W72766  34.093  10.659   2.706
  342W        W72767  40.467  16.196  11.871
  343W        W72768   3.248   6.861  11.967
  344W        W72769  13.726  28.541   1.378
  345W        W72770   3.284  21.139   0.941
  346W        W72771  10.786  15.152   0.469
  347W        W72772  22.742  37.924   0.357
  348W        W72773  26.178  41.964   3.186
  349W        W72774  43.483  23.200  10.937
  350W        W72775   3.771  11.176  14.884
  351W        W72776  30.471  36.478  13.337
  352W        W72777  21.657   6.346   2.832
  353W        W72778   1.919  27.156  10.417
  354W        W72779   3.394  29.973  13.401
  355W        W72780  19.736   1.885   1.771
  356W        W72781  23.551  18.221  11.417
  357W        W72782  37.512  32.046  13.804
  358W        W72783  25.705  37.373   4.265
  359W        W72784  42.359   1.336   0.887
  360W        W72785  27.602  40.910   3.358
  361W        W72786  35.042  15.320   4.632
  362W        W72787  12.146  13.286  10.930
  363W        W72788  10.336  11.253   3.233
  364W        W72789  29.089  15.124  10.538
  365W        W72790  12.326  13.635   2.305
  366W        W72791  22.067  31.969  10.598
  367W        W72792   2.913  43.929  13.928
  368W        W72793  32.436  20.556   4.350
  369W        W72794  36.571   8.685   0.778
  370W        W72795  21.143  36.986  10.911
  371W        W72796  33.940  10.295   4.678
  372W        W72797  14.102  42.973   1.896
  373W        W72798  36.978  35.958  13.865
  374W        W72799  21.680  11.222  11.435
  375W        W72800  38.914  33.475  12.873
  376W        W72801  25.652   2.439   4.739
  377W        W72802  16.151  14.290  10.491
  378W        W72803  40.353  24.651   1.333
  379W        W72804  34.923  41.831  13.896
  380W        W72805  23.172  35.996  10.983
  381W        W72806  10.662  27.052  14.986
  382W        W72807   1.417   4.209   1.383
  383W        W72808  18.153  40.399   4.120
  384W        W72809  28.535  18.054  11.565
  385W        W72810   5.832  27.667  11.604
  386W        W72811   9.386  43.274   0.326
  387W        W72812  41.850  22.041   4.725
  388W        W72813  40.486  35.951  10.097
  389W        W72814  37.856  33.956  14.008
  390W        W72815  38.841  13.826  12.341
  391W        W72816   9.234  20.736  13.483
  392W        W72817   3.757  36.958  13.448
  393W        W72818  18.215  39.512   0.795
  394W        W72819  40.307  27.604   1.411
  395W        W72820  11.343  35.912  10.413
  396W        W72821   1.343  11.752   3.220
  397W        W72822  38.876   3.740  10.527
  398W        W72823  19.628  35.054   3.636
  399W        W72824  35.021  21.169   5.158
  400W        W72825  32.451  12.705   2.266
  401W        W72826  17.609   3.716  10.534
  402W        W72827  23.219  30.465   4.325
  403W        W72828  29.980  24.165  14.397
  404W        W72829  21.732  16.641  13.438
  405W        W72830   6.820  18.693  10.448
  406W        W72831   7.221  19.621   3.814
  407W        W72832  11.241  19.090   4.722
  408W        W72833   1.957  39.462   1.915
  409W        W72834  31.153   3.301  10.928
  410W        W72835   8.778  39.829   2.253
  411W        W72836   9.321  36.854  11.449
  412W        W72837  43.458  39.556  14.399
  413W        W72838   5.337  37.554  13.034
  414W        W72839  22.538  21.081  12.411
  415W        W72840  10.364  10.640  11.608
  416W        W72841  21.227  32.890   2.238
  417W        W72842  25.180  22.104  12.854
  418W        W72843  20.124  29.120   5.118
  419W        W72844  13.832  35.095   4.263
  420W        W72845  21.655  24.029  12.969
  421W        W72846  42.897  38.489  11.876
  422W        W72847  33.382  24.136  10.946
  423W        W72848   2.272  44.801  13.446
  424W        W72849  10.325  43.355   0.870
  425W        W72850  15.764  39.434   2.849
  426W        W72851  31.123  32.505   4.631
  427W        W72852   1.843  16.620  14.907
  428W        W72853  28.627  42.948   1.301
  429W        W72854   4.742  27.144  11.467
  430W        W72855  31.937   8.899  11.976
  431W        W72856  24.492  39.843  14.358
  432W        W72857   3.744   4.815  12.421
  433W        W72858  29.589   9.658  12.571
  434W        W72859  42.960  30.130  12.070
  435W        W72860   3.908  31.423   3.242
  436W        W72861  36.546  29.531  12.507
  437W        W72862   0.354   9.267   3.787
  438W        W72863  16.662  22.076  10.480
  439W        W72864  36.391  28.172   2.419
  440W        W72865  15.678  22.089  10.410
  441W        W72866  11.157  23.633   0.812
  442W        W72867  38.938  44.359  14.791
  443W        W72868  39.515  36.091  14.886
  444W        W72869  44.407  13.313   4.631
  445W        W72870   1.769  34.107  14.336
  446W        W72871   9.381   2.723  11.497
  447W        W72872  43.327  38.523   2.193
  448W        W72873  15.769  13.766   3.631
  449W        W72874  39.942  33.520  13.547
  450W        W72875  11.280   8.287   3.360
  451W        W72876  23.225  38.407  10.502
  452W        W72877  29.586   1.459  14.416
  453W        W72878  38.421  42.519   1.429
  454W        W72879   5.731  26.108   2.218
  455W        W72880  42.926  28.536   3.165
  456W        W72881  32.045   1.415   2.824
  457W        W72882  43.944  32.420   1.804
  458W        W72883  23.675  42.497  13.360
  459W        W72884  19.112   7.799  14.466
  460W        W72885  15.319  39.531   0.779
  461W        W72886  25.534   3.833   1.241
  462W        W72887   3.897  35.575   1.242
  463W        W72888  19.741  29.493  11.891
  464W        W72889  23.083  10.367  12.416
  465W        W72890  22.595  43.424  12.548
  466W        W72891  10.802   0.774  11.584
  467W        W72892  39.429  35.108   1.789
  468W        W72893  24.222  28.952   1.748
  469W        W72894  23.141   3.768   0.849
  470W        W72895   2.855  22.188  12.929
  471W        W72896   0.805  22.230  14.416
  472W        W72897  33.047  30.594   4.828
  473W        W72898  41.430  35.875  11.540
  474W        W72899  23.628  14.136   1.787
  475W        W72900  16.592  31.586  10.118
  476W        W72901  14.279   8.203  14.789
  477W        W72902  15.734  44.421  13.359
  478W        W72903   5.698  17.772  13.533
  479W        W72904  41.983  17.595   3.312
  480W        W72905  32.951  19.636   2.664
  481W        W72906  37.039  16.640   0.823
  482W        W72907   8.743  14.750  14.916
  483W        W72908  26.052  24.684  14.782
  484W        W72909  38.929  11.755   4.807
  485W        W72910  25.599   5.834  14.878
  486W        W72911  11.166  30.646  11.542
  487W        W72912  12.142  44.399   3.777
  488W        W72913  25.140   9.348   2.316
  489W        W72914  31.095  40.849   2.877
  490W        W72915  11.330  24.615   4.340
  491W        W72916  29.998   7.781  12.484
  492W        W72917  29.097  19.709   0.279
  493W        W72918  10.306  12.244   2.254
  494W        W72919  20.066  27.082   0.900
  495W        W72920  31.947  29.470   1.318
  496W        W72921  42.994  32.414   3.195
  497W        W72922  10.315  26.054   3.181
  498W        W72923   6.205  20.225   2.369
  499W        W72924  31.428  19.756   2.243
  500W        W72925  19.615  31.447  12.345
  501W        W72926  15.099  28.517  12.455
  502W        W72927  35.882  29.973  13.375
  503W        W72928  10.341  11.274   1.789
  504W        W72929  20.251  37.441  10.614
  505W        W72930  20.222  26.995  14.359
  506W        W72931  32.451   2.462   4.818
  507W        W72932  37.522   2.831   4.650
  508W        W72933  17.608  40.979  10.888
  509W        W72934   6.735  21.709  13.446
  510W        W72935  26.183  42.883   4.695
  511W        W72936  32.141   5.893  14.286
  512W        W72937  24.117  12.262   1.274
  513W        W72938  33.620  36.395   1.409
  514W        W72939  11.352  40.539  12.463
  515W        W72940  26.041  10.641  11.565
  516W        W72941   2.757  44.277   2.825
  517W        W72942  34.070  40.416  10.632
  518W        W72943   6.916  28.151   2.408
  519W        W72944  36.376  35.048  11.425
  520W        W72945  41.803  25.562   4.606
  521W        W72946   9.781   3.320  13.450
  522W        W72947  21.079   1.242  14.836
  523W        W72948  16.578  11.630  13.490
  524W        W72949   5.764  22.021  13.322
  525W        W72950  44.384  17.212   3.811
  526W        W72951  41.989  12.173   0.349
  527W        W72952  31.917  35.429   1.890
  528W        W72953   4.908  14.597  13.494
  529W        W72954  16.241   5.417   4.689
  530W        W72955  16.652  28.072  13.442
  531W        W72956  35.993  39.353   0.850
  532W        W72957  21.690  19.766  12.909
  533W        W72958  34.975  16.246  13.427
  534W        W72959  14.731  18.714  14.334
  535W        W72960  38.903  21.524   2.310
  536W        W72961  27.685  42.472   3.384
  537W        W72962  23.217  21.569   1.924
  538W        W72963  22.173   9.309  13.897
  539W        W72964  19.625  12.288  13.917
  540W        W72965  40.821  14.154  13.052
  541W        W72966  15.144  11.857  14.964
  542W        W72967  35.366  17.138   1.851
  543W        W72968  34.577  24.511   0.482
  544W        W72969  24.177  41.363   2.205
  545W        W72970   1.460  22.529   1.349
  546W        W72971  16.205   3.829   1.791
  547W        W72972  39.501   9.387  11.571
  548W        W72973  10.744  23.673   2.766
  549W        W72974   5.809  34.378  14.313
  550W        W72975  28.632  25.120   0.293
  551W        W72976  23.140   4.874   1.929
  552W        W72977   0.808   7.235   2.764
  553W        W72978   1.435  12.291   0.733
  554W        W72979  15.792   1.348  12.355
  555W        W72980  30.623   0.772  12.391
  556W        W72981  37.893  30.655   0.310
  557W        W72982  34.605  11.785  12.997
  558W        W72983  26.192   9.188  12.005
  559W        W72984  31.129  44.440  11.014
  560W        W72985  33.058  18.189   2.674
  561W        W72986  21.108  11.776  14.844
  562W        W72987  26.990  19.599  12.093
  563W        W72988  32.567  25.623   1.288
  564W        W72989  21.235  22.676  13.791
  565W        W72990   3.801   7.343  12.424
  566W        W72991  21.613  16.810   4.169
  567W        W72992  21.033  10.194   3.750
  568W        W72993  35.863  15.328  13.000
  569W        W72994  30.485  16.786   1.312
  570W        W72995  10.678  15.123  14.905
  571W        W72996  20.055   6.710  11.977
  572W        W72997  37.917  34.592   0.834
  573W        W72998  24.661  20.686   3.186
  574W        W72999  29.037  36.985  11.026
  575W        W73000   2.399   5.881   3.654
  576W        W73001  18.166  35.451   1.306
  577W        W73002  21.179  16.638   9.977
  578W        W73003   9.193  26.628  13.043
  579W        W73004  14.624   1.450  14.857
  580W        W73005  39.392  32.594  10.503
  581W        W73006  17.220  13.301  12.952
  582W        W73007  40.923  42.476   3.839
  583W        W73008  44.920  18.257   2.386
  584W        W73009  40.512  13.152  14.379
  585W        W73010  21.596  26.658   4.285
  586W        W73011   8.362   2.785   4.249
  587W        W73012   2.296  36.420  12.002
  588W        W73013  38.419  23.723   2.182
  589W        W73014   6.765  27.607   4.715
  590W        W73015  29.927   2.397  14.020
  591W        W73016  19.734  34.022  12.407
  592W        W73017  21.064  19.772  10.099
  593W        W73018  14.770  17.238  12.991
  594W        W73019  32.946  44.918   1.450
  595W        W73020   3.750  30.909  12.343
  596W        W73021  37.436  39.389   0.942
  597W        W73022  20.275  40.318  13.810
  598W        W73023  35.522   3.763  12.559
  599W        W73024  31.899  22.012   2.255
  600W        W73025  34.578  21.596  14.026
  601W        W73026  31.083  31.929  12.522
  602W        W73027   7.735  36.589  14.316
  603W        W73028  19.268  12.339   4.713
  604W        W73029  38.039   8.706  14.428
  605W        W73030  23.675  10.648  12.043
  606W        W73031  23.713  44.934  13.356
  607W        W73032  14.645  42.008   3.326
  608W        W73033  12.632  27.576  10.900
  609W        W73034  10.796   1.778   2.894
  610W        W73035  35.044  19.575  11.102
  611W        W73036  30.567  39.025  13.814
  612W        W73037  41.318  37.939   3.737
  613W        W73038  43.790  10.204   1.701
  614W        W73039  39.856  21.046  11.417
  615W        W73040   8.373  32.409  11.380
  616W        W73041  18.067  36.455   2.858
  617W        W73042  30.982   1.431  14.507
  618W        W73043  25.969  12.256  13.018
  619W        W73044  15.709  12.764   3.275
  620W        W73045  11.695  17.084  14.395
  621W        W73046  33.582  33.098  11.613
  622W        W73047  25.036  11.133  12.960
  623W        W73048  23.162   6.312  11.496
  624W        W73049  32.445  23.119  14.460
  625W        W73050  13.296  26.090  11.513
  626W        W73051  22.670  28.016  11.401
  627W        W73052  42.846  15.623   3.816
  628W        W73053  34.994   6.834   0.962
  629W        W73054  40.487  35.952   4.316
  630W        W73055  27.613  14.718   0.395
  631W        W73056   2.471  17.673  11.535
  632W        W73057  27.062  21.060   1.269
  633W        W73058  30.454  30.530  13.861
  634W        W73059  26.143  43.282   3.361
  635W        W73060  42.794  19.133  10.978
  636W        W73061  37.494  44.992  14.305
  637W        W73062  20.174  22.635   4.303
  638W        W73063  14.760   5.371   2.368
  639W        W73064  24.050   8.259  14.782
  640W        W73065   3.933   4.288  12.405
  641W        W73066  38.871  22.582   4.745
  642W        W73067   9.204  36.566  13.981
  643W        W73068  42.796  23.515  11.506
  644W        W73069  22.060   2.952   4.234
  645W        W73070   4.412  31.906   2.785
  646W        W73071  44.333  38.497  10.111
  647W        W73072  27.507  24.057  12.011
  648W        W73073   5.244  36.478   0.304
  649W        W73074  21.686   4.866   3.195
  650W        W73075   5.819  44.438   1.775
  651W        W73076  18.060  21.167  14.472
  652W        W73077   0.322   9.786  14.286
  653W        W73078  41.386  43.494  11.006
  654W        W73079  11.715  38.029  11.912
  655W        W73080  21.682  28.491  13.338
  656W        W73081  28.144  40.999  14.442
  657W        W73082  28.550  39.551   2.181
  658W        W73083  44.375  34.878   1.716
  659W        W73084  16.244  26.148  14.307
  660W        W73085  17.572  40.008   4.779
  661W        W73086  29.096  18.660  12.888
  662W        W73087  16.134  38.896  10.643
  663W        W73088  22.204  23.072  12.916
  664W        W73089  25.080  27.986   2.417
  665W        W73090  11.324   1.816   2.179
  666W        W73091  42.445  21.731  14.759
  667W        W73092  12.331  42.786   3.683
  668W        W73093  19.737  35.457   4.811
  669W        W73094  23.240  43.297   4.145
  670W        W73095   8.181  36.893  13.356
  671W        W73096  33.497  22.224   0.268
  672W        W73097  27.024  29.500   1.844
  673W        W73098  24.663  43.930  13.385
  674W        W73099  26.209  28.611   4.192
  675W        W73100  34.024  20.704   1.831
  676W        W73101   4.940  42.917   2.277
  677W        W73102  27.660  40.843  10.543
  678W        W73103   4.282  27.573   0.396
  679W        W73104  24.564  27.605  11.377
  680W        W73105   0.447  32.475   1.707
  681W        W73106   5.850  25.000   3.337
  682W        W73107   7.244   9.701  14.788
  683W        W73108  39.841  34.989  12.082
  684W        W73109  42.476  31.441   2.189
  685W        W73110  17.664   4.439  13.479
  686W        W73111  43.338  36.406  10.604
  687W        W73112  29.496  12.632   1.451
  688W        W73113  25.995  31.434   5.157
  689W        W73114  17.783   3.451  14.304
  690W        W73115  24.721   5.374   1.426
  691W        W73116  34.071  32.941  14.398
  692W        W73117  29.130  15.172   3.279
  693W        W73118   8.403  43.810   1.286
  694W        W73119   3.950   3.786  11.968
  695W        W73120  24.674   6.416   4.312
  696W        W73121  13.787  15.794   1.388
  697W        W73122  10.690  39.809  12.402
  698W        W73123  38.048  24.624   2.182
  699W        W73124  25.637  44.414  14.360
  700W        W73125   8.775  43.839  11.087
  701W        W73126  12.611  34.549  14.945
  702W        W73127  36.366  36.906   4.181
  703W        W73128  17.258  26.476  11.471
  704W        W73129  23.733  16.270  13.889
  705W        W73130  43.929   1.388  13.322
  706W        W73131   2.273  11.136   1.825
  707W        W73132  19.539  29.579   0.273
  708W        W73133  41.402   7.758   0.445
  709W        W73134  39.008  29.537   0.312
  710W        W73135  38.373  29.492  11.889
  711W        W73136  23.093   8.878  12.575
  712W        W73137  12.260  32.442  14.020
  713W        W73138   6.908   1.880   2.333
  714W        W73139  43.788  12.831  10.961
  715W        W73140  31.582  15.592   4.331
  716W        W73141  39.818  22.049   4.756
  717W        W73142   6.409   4.854   3.663
  718W        W73143  12.315  28.948  14.342
  719W        W73144  19.166  29.136  12.568
  720W        W73145  42.482  33.565   1.890
  721W        W73146  26.609   9.389   1.436
  722W        W73147   3.378  40.528   0.463
  723W        W73148  43.942  17.064   4.792
  724W        W73149   9.155  33.009   2.714
  725W        W73150  31.512  13.107  14.354
  726W        W73151  33.948  33.085  13.038
  727W        W73152  39.029   0.845  12.451
  728W        W73153  22.720  22.092   2.872
  729W        W73154  22.019  24.705   4.321
  730W        W73155  20.745  33.107   3.387
  731W        W73156  13.216  14.290  14.848
  732W        W73157   1.466  11.144   1.331
  733W        W73158  15.135  28.532   1.903
  734W        W73159  44.004  11.635  11.428
  735W        W73160  21.686   1.821  12.088
  736W        W73161  29.146  33.003  14.023
  737W        W73162  17.082  31.549  12.420
  738W        W73163  23.237  18.646   3.246
  739W        W73164  26.499  10.853  13.925
  740W        W73165  32.104  17.063   0.362
  741W        W73166  29.555   0.269  10.970
  742W        W73167  44.885  36.486   3.214
  743W        W73168  41.944   1.772   4.246
  744W        W73169  16.601  37.465  12.088
  745W        W73170   2.245   8.244  11.105
  746W        W73171  12.755  15.242   2.855
  747W        W73172   0.883  39.318   9.970
  748W        W73173  26.175   2.888  14.470
  749W        W73174  30.559  42.907   0.958
  750W        W73175  24.196  44.427   2.336
  751W        W73176  39.042  15.214   2.295
  752W        W73177  37.890  32.582   3.333
  753W        W73178  13.723  31.074  14.307
  754W        W73179  16.125   7.821  14.858
  755W        W73180  20.253  22.716  11.044
  756W        W73181  30.983  42.834  13.792
  757W        W73182   1.860  20.568  11.031
  758W        W73183  36.080   4.703  12.939
  759W        W73184  20.763  32.909  11.440
  760W        W73185  39.480  28.446  11.945
  761W        W73186  16.105   3.820  14.824
  762W        W73187  29.934   4.805  14.851
  763W        W73188   9.678  42.980   4.236
  764W        W73189  44.292  35.388  12.844
  765W        W73190  21.683  37.947  12.921
  766W        W73191  16.574  15.789  12.038
  767W        W73192  17.758  17.734  10.426
  768W        W73193  12.178  20.665  14.446
  769W        W73194  13.612  25.035   5.760
  770W        W73195  40.324  22.032   1.320
  771W        W73196  21.571   2.268  14.769
  772W        W73197  15.703  25.499  13.385
  773W        W73198  18.249  39.433   2.416
  774W        W73199  40.404   4.755   5.140
  775W        W73200  13.646  30.033  12.957
  776W        W73201  42.006  29.592  13.333
  777W        W73202  34.937  31.480   2.230
  778W        W73203  17.080  27.121   4.128
  779W        W73204  18.614  20.248  13.920
  780W        W73205  16.132  30.523  13.061
  781W        W73206  34.486  27.954  14.765
  782W        W73207  31.095  34.007   4.209
  783W        W73208  43.873  41.511  10.589
  784W        W73209  16.170  23.639  13.056
  785W        W73210  12.818  11.703  11.999
  786W        W73211  24.674   0.981   2.220
  787W        W73212  39.425  15.641  10.956
  788W        W73213  42.986  29.973   3.751
  789W        W73214  31.984  28.471  10.920
  790W        W73215  26.488   3.884   1.297
  791W        W73216  26.508  21.525  13.962
  792W        W73217  23.220  15.292   2.894
  793W        W73218  24.694  11.849   3.647
  794W        W73219  32.928   7.403   1.829
  795W        W73220  37.892  12.361   4.289
  796W        W73221  18.078  25.216  14.488
  797W        W73222  32.100  44.431   2.338
  798W        W73223  37.515  12.662   2.883
  799W        W73224  10.872  16.226   4.277
  800W        W73225  15.132  22.078   4.744
  801W        W73226   3.319  27.612   2.195
  802W        W73227  21.744  27.527   1.210
  803W        W73228  13.282  29.508   0.284
  804W        W73229   0.324  30.064   2.780
  805W        W73230  27.079   4.425  12.832
  806W        W73231  22.558  21.063   4.164
  807W        W73232  16.761  41.881  13.903
  808W        W73233  17.271  39.559  11.496
  809W        W73234  21.683  28.049   0.911
  810W        W73235  34.507  19.193  14.512
  811W        W73236  23.211  12.849   4.604
  812W        W73237   6.399  25.095  11.889
  813W        W73238  22.039  25.713   0.308
  814W        W73239  41.853  44.258  12.497
  815W        W73240  33.416  43.322   1.804
  816W        W73241  21.226  31.134  14.842
  817W        W73242  43.295  40.470   3.824
  818W        W73243   2.374  16.147  13.882
  819W        W73244  17.741   4.727   0.918
  820W        W73245   4.794  37.436  11.897
  821W        W73246  11.860  22.646   0.858
  822W        W73247  41.481  34.925  14.845
  823W        W73248  21.605  10.743   3.206
  824W        W73249   6.714  24.535   3.646
  825W        W73250   0.936  43.493  11.083
  826W        W73251  36.069  16.572  10.631
  827W        W73252  44.861  26.972  12.068
  828W        W73253  40.403  15.656   1.707
  829W        W73254   4.865   3.254  14.349
  830W        W73255  44.480  33.472   0.390
  831W        W73256  32.464  13.812  14.829
  832W        W73257  19.642   6.293  13.960
  833W        W73258  19.056  24.052   0.243
  834W        W73259  23.146  11.828  12.414
  835W        W73260  23.636  21.515  14.282
  836W        W73261  42.942  18.771   3.244
  837W        W73262  29.509  25.056   3.270
  838W        W73263  25.100   4.824  11.432
  839W        W73264  25.526  20.652   1.932
  840W        W73265  26.518  25.095  13.315
  841W        W73266  15.177  37.990   1.891
  842W        W73267   2.384  44.263   3.829
  843W        W73268  34.901   6.426  12.526
  844W        W73269  24.049  41.031  12.474
  845W        W73270  22.671  33.523   0.257
  846W        W73271  26.525  11.202   2.859
  847W        W73272  21.098  43.491  14.304
  848W        W73273  38.909  37.887   3.149
  849W        W73274  28.980  16.764   1.851
  850W        W73275  40.408  38.421  11.443
  851W        W73276   4.852  42.989  13.916
  852W        W73277  29.024  14.598   3.820
  853W        W73278   1.939  26.143   2.665
  854W        W73279  30.419  27.160   4.698
  855W        W73280  27.183  26.471  11.065
  856W        W73281   1.762  14.260   0.855
  857W        W73282  42.324  44.422   0.344
  858W        W73283  43.301  18.151  13.527
  859W        W73284  11.344  43.917   3.356
  860W        W73285  30.474  13.790   1.395
  861W        W73286  20.552   4.205   4.175
  862W        W73287  11.727  37.929  11.558
  863W        W73288  36.971  13.738   0.758
  864W        W73289  35.073  30.643  12.037
  865W        W73290  43.990   9.869  12.912
  866W        W73291   3.319  17.130   4.736
  867W        W73292  37.532  25.128  14.825
  868W        W73293  11.700   4.938   5.122
  869W        W73294  32.486  28.007  12.024
  870W        W73295  40.397   9.223   4.736
  871W        W73296  15.307  24.134   5.144
  872W        W73297  36.979  42.022   0.334
  873W        W73298  15.672  30.938  12.480
  874W        W73299  31.431  23.123  14.902
  875W        W73300  13.178   6.706   3.635
  876W        W73301   7.287  20.543   4.322
  877W        W73302  34.103  21.687   2.223
  878W        W73303  30.156  11.730   0.859
  879W        W73304   0.320  16.232  11.011
  880W        W73305  20.273  12.783  10.493
  881W        W73306  18.614  21.532  13.001
  882W        W73307  25.511  33.411   3.362
  883W        W73308  26.558   4.863  11.868
  884W        W73309   9.354  24.642   1.375
  885W        W73310  13.205  33.595   3.204
  886W        W73311  27.668   4.885   4.257
  887W        W73312  10.343  22.738   1.422
  888W        W73313   7.778   0.408  14.276
  889W        W73314   8.219   1.898   0.433
  890W        W73315   4.309  20.651  12.837
  891W        W73316  40.896   2.435  13.411
  892W        W73317   9.285  16.218  11.945
  893W        W73318  33.982  18.296   4.626
  894W        W73319  32.022  30.951  14.456
  895W        W73320  16.176  19.598   1.237
  896W        W73321  12.844  39.820  13.970
  897W        W73322  41.806  17.577   1.355
  898W        W73323  38.061  22.699  13.520
  899W        W73324  38.376  18.275  14.864
  900W        W73325  18.179   3.945  13.353
  901W        W73326   0.313   0.446   4.704
  902W        W73327  42.024  34.875   4.614
  903W        W73328  10.866   6.236   3.751
  904W        W73329   9.240   3.387   3.630
  905W        W73330  38.946   7.808  13.530
  906W        W73331  10.837  36.572   2.815
  907W        W73332  35.421   2.372   1.747
  908W        W73333  37.434  25.027   0.759
  909W        W73334   5.194  43.824  13.926
  910W        W73335  31.011  13.673  12.020
  911W        W73336  16.169  18.261   1.341
  912W        W73337  27.111  14.254  11.582
  913W        W73338  34.050  19.752   4.152
  914W        W73339  21.632  38.992  13.862
  915W        W73340  24.633  16.653   1.806
  916W        W73341  30.044   1.251   3.154
  917W        W73342  39.930  20.139   4.353
  918W        W73343   4.912   5.807  10.940
  919W        W73344   7.227  36.940   3.331
  920W        W73345  36.002  25.998   5.276
  921W        W73346  37.545  10.702  13.503
  922W        W73347  25.492  34.010  14.319
  923W        W73348  20.032  30.624   5.116
  924W        W73349  10.794   0.761  13.459
  925W        W73350  12.264  37.580   4.297
  926W        W73351  33.458  44.354  12.901
  927W        W73352  16.592   5.817  13.050
  928W        W73353  32.566  31.477   1.738
  929W        W73354  26.040  38.030  13.939
  930W        W73355  19.716  36.537   3.162
  931W        W73356  12.313  26.569  10.629
  932W        W73357   6.222  11.847   4.710
  933W        W73358  43.468  16.300   1.831
  934W        W73359  28.014   7.731  13.538
  935W        W73360  26.029  24.629  13.494
  936W        W73361  11.370   1.933  13.847
  937W        W73362   7.367  25.487  11.959
  938W        W73363  25.071  30.069  11.128
  939W        W73364  10.729   4.425   3.225
  940W        W73365  11.149  23.163   5.674
  941W        W73366   0.494  33.102  10.620
  942W        W73367   8.804   5.200   3.202
  943W        W73368  16.571   4.873   1.442
  944W        W73369  30.553  17.717  11.468
  945W        W73370  14.813  42.779   4.304
  946W        W73371  10.301  29.997   3.762
  947W        W73372   0.962  14.198   3.848
  948W        W73373  27.027  27.661   1.797
  949W        W73374   0.939  33.935  13.529
  950W        W73375  14.230  34.607   2.196
  951W        W73376   5.370  38.925  12.004
  952W        W73377  34.951   0.965   3.692
  953W        W73378  35.079   6.271  11.936
  954W        W73379  30.416  33.927   0.409
  955W        W73380  30.590  26.464  10.024
  956W        W73381  24.053  31.593   4.700
  957W        W73382   4.898  12.853   4.239
  958W        W73383  33.009   3.835   1.340
  959W        W73384  34.050  25.114  11.466
  960W        W73385  17.246  33.879   0.311
  961W        W73386  34.518  19.160   3.309
  962W        W73387  33.945  25.540   0.296
  963W        W73388  37.371   1.295  11.459
  964W        W73389  41.922  20.616   2.812
  965W        W73390   7.365  10.320  10.568
  966W        W73391  38.353  19.265   2.857
  967W        W73392   6.221  32.968   4.301
  968W        W73393  39.060  37.009   1.352
  969W        W73394  41.848   0.787  11.400
  970W        W73395  18.631  10.246   2.893
  971W        W73396  27.526  22.070   3.246
  972W        W73397  40.906   7.676  12.973
  973W        W73398  31.554  23.200  12.405
  974W        W73399  38.529   0.483  10.485
  975W        W73400  24.142  20.705   1.926
  976W        W73401  22.138  40.394   1.891
  977W        W73402   0.460  27.515   3.385
  978W        W73403  24.108  13.154   0.729
  979W        W73404  38.504   1.904  10.412
  980W        W73405  39.972   2.437  11.589
  981W        W73406  11.344  44.773   3.187
  982W        W73407  22.060  38.836  11.916
  983W        W73408  38.368  15.749   2.756
  984W        W73409  43.388   1.943   0.370
  985W        W73410   8.714  32.990  13.020
  986W        W73411   4.302  18.742  10.484
  987W        W73412   3.396  35.541   2.765
  988W        W73413  21.639  44.815  12.843
  989W        W73414  33.929  17.699   1.371
  990W        W73415  17.667  24.161   2.278
  991W        W73416  25.066  11.858  12.976
  992W        W73417   8.873  20.071  12.359
  993W        W73418  24.695  39.963  12.342
  994W        W73419   4.263  23.628   3.833
  995W        W73420  10.740   8.868  11.450
  996W        W73421   6.315  28.539   2.893
  997W        W73422  34.978  16.086  12.493
  998W        W73423   2.285   2.359   2.185
  999W        W73424  27.502  36.030  12.022
 1000W        W73425  29.942  29.550  10.515
 1001W        W73426   7.874  15.591  14.301
 1002W        W73427   3.738  14.165  13.805
 1003W        W73428  22.704  11.266   1.301
 1004W        W73429  26.587  20.576   2.681
 1005W        W73430   3.405  11.220   3.241
 1006W        W73431  18.277  22.207  10.405
 1007W        W73432   3.843  25.142  12.841
 1008W        W73433  11.286   5.892   4.616
 1009W        W73434  37.365   5.735  10.612
 1010W        W73435  26.150  16.708  12.445
 1011W        W73436  12.361  21.737  12.916
 1012W        W73437  21.733   4.372  12.088
 1013W        W73438  22.655   7.901  10.464
 1014W        W73439  40.429  30.566  14.327
 1015W        W73440  22.034  24.506  13.013
 1016W        W73441  32.566  31.987   4.648
 1017W        W73442   3.458   7.216   0.448
 1018W        W73443   5.752  39.813   0.306
 1019W        W73444   4.849   2.285  12.503
 1020W        W73445  10.800   0.330  11.542
 1021W        W73446  37.857  26.689   2.286
 1022W        W73447  39.916  44.422  10.462
 1023W        W73448  26.078  23.511   4.197
 1024W        W73449   3.942   2.742   2.385
 1025W        W73450   0.851  18.212  11.892
 1026W        W73451  33.613  23.003   3.828
 1027W        W73452  28.530   5.295  13.901
 1028W        W73453  36.422   7.307  12.509
 1029W        W73454  26.479  35.505  14.392
 1030W        W73455  15.196  19.561   5.196
 1031W        W73456  18.553  30.135   3.383
 1032W        W73457  17.737   6.319  11.598
 1033W        W73458  24.029  44.910  14.982
 1034W        W73459  17.715  17.650   1.217
 1035W        W73460  29.928  30.652   9.985
 1036W        W73461   1.935   0.396  14.023
 1037W        W73462  17.232   5.354   2.889
 1038W        W73463   3.734  43.778   0.775
 1039W        W73464  11.318  13.342  11.961
 1040W        W73465  31.072   8.721   4.777
 1041W        W73466   0.775  17.652  11.607
 1042W        W73467  33.113   1.374  11.470
 1043W        W73468  24.176  35.921  11.460
 1044W        W73469   7.805  36.896   3.195
 1045W        W73470   5.719  19.584  13.798
 1046W        W73471   2.382  36.090   0.948
 1047W        W73472   9.389  13.772   2.816
 1048W        W73473  34.013  30.915   4.688
 1049W        W73474   6.304  21.732   3.793
 1050W        W73475  12.671  26.172   4.163
 1051W        W73476  33.112  44.380  14.775
 1052W        W73477   2.864  25.468  13.478
 1053W        W73478  10.696  30.447   4.146
 1054W        W73479   7.671   9.338  14.013
 1055W        W73480  26.121   0.394  11.457
 1056W        W73481  10.171  34.065  12.873
 1057W        W73482  43.801   2.914  14.340
 1058W        W73483  38.363  19.756  13.971
 1059W        W73484  38.328   5.432   3.667
 1060W        W73485  16.207  20.552  12.933
 1061W        W73486  38.033  38.470  11.002
 1062W        W73487   3.267  36.543  11.895
 1063W        W73488  14.780   1.914   4.619
 1064W        W73489  32.993  38.050   0.304
 1065W        W73490  27.048  38.334   3.208
 1066W        W73491   9.882   1.910  12.461
 1067W        W73492   4.410  19.536  10.471
 1068W        W73493  18.769  20.565   1.720
 1069W        W73494  33.986  25.089  13.999
 1070W        W73495  36.533   4.707   5.204
 1071W        W73496  39.821  20.527   2.846
 1072W        W73497   2.416  30.495  13.827
 1073W        W73498  19.642   7.808  10.939
 1074W        W73499  44.413  26.684  11.118
 1075W        W73500  39.473   4.259   2.246
 1076W        W73501  13.255  15.267   0.758
 1077W        W73502  23.106   8.892  10.056
 1078W        W73503  28.455  36.914   3.797
 1079W        W73504  19.655   0.417   1.816
 1080W        W73505  13.347  14.107   4.769
 1081W        W73506  25.210  13.719   3.811
 1082W        W73507  32.567  32.458  12.392
 1083W        W73508  42.873  29.619   3.762
 1084W        W73509  11.626  36.346  12.924
 1085W        W73510   3.369  21.225  13.502
 1086W        W73511  30.522  19.533   1.873
 1087W        W73512  40.967  12.300   3.708
 1088W        W73513  17.564  30.621   0.450
 1089W        W73514  14.731  37.474   0.799
 1090W        W73515  30.931  29.111   1.800
 1091W        W73516  10.366  26.106  14.953
 1092W        W73517   8.724   5.748   2.268
 1093W        W73518  36.394  25.573  13.062
 1094W        W73519  14.605  24.134  11.471
 1095W        W73520  22.661   7.798   1.241
 1096W        W73521   9.218  21.145  14.451
 1097W        W73522  15.791  37.477   3.658
 1098W        W73523  30.616  10.315   3.230
 1099W        W73524  20.748  43.922  14.919
 1100W        W73525  40.321  34.884   4.328
 1101W        W73526  12.769  27.468  14.340
 1102W        W73527  24.106  30.915   4.782
 1103W        W73528  36.349  23.078  10.037
 1104W        W73529  22.178  30.969   2.271
 1105W        W73530   9.708  26.503  13.900
 1106W        W73531  23.241  11.762   1.327
 1107W        W73532  14.141  40.812   1.783
 1108W        W73533   9.214  43.981   2.389
 1109W        W73534  11.330  40.484  12.829
 1110W        W73535   5.399  32.518   2.351
 1111W        W73536  16.568  24.586  13.006
 1112W        W73537  37.890  30.989   4.252
 1113W        W73538  34.413  15.261   0.799
 1114W        W73539  42.518  20.141  12.044
 1115W        W73540  42.787  42.502   2.383
 1116W        W73541   9.393  30.023  11.899
 1117W        W73542   4.774  37.037   2.195
 1118W        W73543  16.794  17.133   1.215
 1119W        W73544  22.127  24.161  13.957
 1120W        W73545  21.181  33.593  14.995
 1121W        W73546  39.417  44.830  13.416
 1122W        W73547  42.282  42.422  11.992
 1123W        W73548  23.067   8.762  11.051
 1124W        W73549   4.214  44.904  11.102
 1125W        W73550  25.111  12.842   0.274
 1126W        W73551  14.138  18.746  13.887
 1127W        W73552  18.548  30.441  10.455
 1128W        W73553  25.628  27.995   0.265
 1129W        W73554  28.472  35.981  12.354
 1130W        W73555  43.431   0.452  12.998
 1131W        W73556  21.152  23.621  10.025
 1132W        W73557  28.442   1.459   0.828
 1133W        W73558  11.266  25.043  14.457
 1134W        W73559  34.516  31.106   4.195
 1135W        W73560   2.886  21.067   3.148
 1136W        W73561  43.968  41.902  13.835
 1137W        W73562  41.870  11.664  14.814
 1138W        W73563  43.021  43.867  12.536
 1139W        W73564   7.898   3.725  12.883
 1140W        W73565  38.985   6.386  12.416
 1141W        W73566  20.753  16.642  10.629
 1142W        W73567  28.501  22.145   4.255
 1143W        W73568  40.451   3.859  12.862
 1144W        W73569  19.647  29.069  12.887
 1145W        W73570  23.681   5.847  14.843
 1146W        W73571  13.165  42.991  10.467
 1147W        W73572  18.785   0.483  12.954
 1148W        W73573  25.080  26.584   4.830
 1149W        W73574  16.605  10.707   3.692
 1150W        W73575  40.799  26.555   0.774
 1151W        W73576  17.642  40.378   2.814
 1152W        W73577   2.414  35.021  12.431
 1153W        W73578  12.259  28.638  12.891
 1154W        W73579  18.122   8.694  12.378
 1155W        W73580  10.745  38.522   1.433
 1156W        W73581  41.364   3.419  11.382
 1157W        W73582  36.459  20.761   4.622
 1158W        W73583  30.933  23.050  13.835
 1159W        W73584   5.434   9.201  11.580
 1160W        W73585  38.020  43.401   1.255
 1161W        W73586   2.949  35.387  12.026
 1162W        W73587  28.485   8.847   4.711
 1163W        W73588  26.208   0.400   1.803
 1164W        W73589  34.607  37.483   0.478
 1165W        W73590  33.996   8.729   4.334
 1166W        W73591  35.108  17.214  12.024
 1167W        W73592  43.319  24.057  14.399
 1168W        W73593  34.959   2.893   0.794
 1169W        W73594  36.568  39.427  11.489
 1170W        W73595  24.529   0.932   1.785
 1171W        W73596   3.883  18.587  14.479
 1172W        W73597  32.497   9.249   3.323
 1173W        W73598  26.035  14.321  14.474
 1174W        W73599  16.196   0.298   2.381
 1175W        W73600  36.985  13.208  13.954
 1176W        W73601  28.624   7.769  13.378
 1177W        W73602  34.961  23.538   1.714
 1178W        W73603  36.462  19.588  13.809
 1179W        W73604  17.293  21.238  11.070
 1180W        W73605  11.162  11.181  14.280
 1181W        W73606  35.495  14.228  11.114
 1182W        W73607  22.728  44.997  12.056
 1183W        W73608  43.983   2.312   2.367
 1184W        W73609  31.430  15.316  12.838
 1185W        W73610   8.218  37.556   5.200
 1186W        W73611  39.558  43.941   5.237
 1187W        W73612  24.101  30.637   5.226
 1188W        W73613  20.599  39.393  12.482
 1189W        W73614  42.854  31.422  10.916
 1190W        W73615  28.483  26.498   0.460
 1191W        W73616  23.187  23.072   4.344
 1192W        W73617  34.590  14.194  13.473
 1193W        W73618  21.260   5.289  12.377
 1194W        W73619  33.057  13.789   4.609
 1195W        W73620  32.899  10.712   0.470
 1196W        W73621   8.356  43.458   3.320
 1197W        W73622   9.832  19.056   0.754
 1198W        W73623  40.950  37.056   2.760
 1199W        W73624  20.094  21.177   2.235
 1200W        W73625  28.174  13.257   5.127
 1201W        W73626  10.692  43.508  14.372
 1202W        W73627  11.648  23.525  10.920
 1203W        W73628  28.968  18.634  11.599
 1204W        W73629   0.824  38.473  14.409
 1205W        W73630  11.656  24.680   0.350
 1206W        W73631   8.851  43.893  14.772
 1207W        W73632  36.875  13.815  12.962
 1208W        W73633   6.412   3.861   2.272
 1209W        W73634  39.501  18.142   4.214
 1210W        W73635  18.726  11.179  11.497
 1211W        W73636  17.218  19.727  13.378
 1212W        W73637   8.829   1.844  12.918
 1213W        W73638  23.532  10.266  10.497
 1214W        W73639  12.629  40.945  12.918
 1215W        W73640  23.125   2.308   0.951
 1216W        W73641   8.854  29.957  12.389
 1217W        W73642   5.826  18.563  11.597
 1218W        W73643  28.605   9.664  14.907
 1219W        W73644   5.787  27.095  11.003
 1220W        W73645  21.723   0.478  12.507
 1221W        W73646  17.262   2.251  10.617
 1222W        W73647  30.144  10.806  11.525
 1223W        W73648  12.813  44.417  13.487
 1224W        W73649  27.673  31.647   2.871
 1225W        W73650  21.053  44.319   2.665
 1226W        W73651   0.490  25.078  14.994
 1227W        W73652  35.376  42.824  14.280
 1228W        W73653  28.627  34.042  12.422
 1229W        W73654  29.023  10.770  10.901
 1230W        W73655  21.072   0.818   4.684
 1231W        W73656  36.498  19.260  12.363
 1232W        W73657  30.102  33.948  14.823
 1233W        W73658  22.626  30.517   4.266
 1234W        W73659  34.998  25.132  12.836
 1235W        W73660  12.322  22.737   5.697
 1236W        W73661  29.526   4.243  14.833
 1237W        W73662   9.333  43.809   4.175
 1238W        W73663  30.956   0.407  11.053
 1239W        W73664  44.844  22.716   3.723
 1240W        W73665  19.638  31.084   2.387
 1241W        W73666  14.694   4.881   3.296
 1242W        W73667   7.868  21.210  13.340
 1243W        W73668   7.181   8.718  14.315
 1244W        W73669  44.324  22.212   1.875
 1245W        W73670   0.832  41.853  13.906
 1246W        W73671  19.042  33.087  12.067
 1247W        W73672  35.076  42.966   3.641
 1248W        W73673  28.953  23.647   2.341
 1249W        W73674  27.449  28.458   3.381
 1250W        W73675   7.346  10.346  11.579
 1251W        W73676   8.379  20.665   2.259
 1252W        W73677  37.840   2.359   1.437
 1253W        W73678  32.542  16.786  12.095
 1254W        W73679  33.541  26.637  14.298
 1255W        W73680  33.924  10.722  12.956
 1256W        W73681  11.164   1.365   2.257
 1257W        W73682  33.897  21.078   0.326
 1258W        W73683  23.083  38.973   4.631
 1259W        W73684  28.978   0.273  12.460
 1260W        W73685  37.871   1.434   1.327
 1261W        W73686  25.687  28.485   2.391
 1262W        W73687   7.843  37.360  13.514
 1263W        W73688  26.001   8.727  12.885
 1264W        W73689  41.790  25.492  12.007
 1265W        W73690   5.714   5.885  10.902
 1266W        W73691  10.748  38.048  13.986
 1267W        W73692   2.332  34.027  13.535
 1268W        W73693  36.946   9.317  10.900
 1269W        W73694  18.224  26.032   0.965
 1270W        W73695   8.227  22.680   2.850
 1271W        W73696  17.786  25.973   1.737
 1272W        W73697  41.341  25.672   3.254
 1273W        W73698   1.405  36.364   2.225
 1274W        W73699   8.196   8.334   2.263
 1275W        W73700  18.742  20.030   1.410
 1276W        W73701  27.571  33.907  13.923
 1277W        W73702  28.023   5.298   1.349
 1278W        W73703  40.852  29.138  14.883
 1279W        W73704  15.623  22.625   4.146
 1280W        W73705   6.870  12.158  11.979
 1281W        W73706   5.339  14.704  13.505
 1282W        W73707  41.001  27.538   3.693
 1283W        W73708  19.187  43.440  12.968
 1284W        W73709  10.309  43.824  12.470
 1285W        W73710   4.393  17.259   0.741
 1286W        W73711  11.302  40.982  13.327
 1287W        W73712  37.849  35.001  10.604
 1288W        W73713  20.633  19.103  12.823
 1289W        W73714  12.626  28.650   1.765
 1290W        W73715  20.763   3.402  14.843
 1291W        W73716  36.981   6.849   4.755
 1292W        W73717  10.715  30.554  13.478
 1293W        W73718   1.342  15.737  12.047
 1294W        W73719  15.090  27.683  14.014
 1295W        W73720  20.082  32.111  14.340
 1296W        W73721  25.528  13.620   3.204
 1297W        W73722  44.845  23.205   4.240
 1298W        W73723   3.368  13.706  11.518
 1299W        W73724  40.981  20.063  10.461
 1300W        W73725  12.700   5.369  11.006
 1301W        W73726  11.355  32.600  12.404
 1302W        W73727  33.928  17.174  11.381
 1303W        W73728  28.634  25.981  13.424
 1304W        W73729  42.940  43.459  11.970
 1305W        W73730  32.537  19.672  13.336
 1306W        W73731  38.523   1.783   2.737
 1307W        W73732  14.777  27.100  13.914
 1308W        W73733   6.334  31.959  14.417
 1309W        W73734  19.778  36.908   3.336
 1310W        W73735   4.944   8.342  12.983
 1311W        W73736  34.503  39.956  10.493
 1312W        W73737  27.944  38.942  12.979
 1313W        W73738  14.197   9.698  13.540
 1314W        W73739  44.841  15.764  13.984
 1315W        W73740  28.091  13.837  14.029
 1316W        W73741  15.168  21.628  12.940
 1317W        W73742  26.698  18.578  14.771
 1318W        W73743  42.374  18.776   2.209
 1319W        W73744  22.066  44.868   4.352
 1320W        W73745  34.395  14.186   2.853
 1321W        W73746  37.985  41.956  11.424
 1322W        W73747  38.397  14.612  14.764
 1323W        W73748  33.894  38.936  11.499
 1324W        W73749   1.935  28.074   5.163
 1325W        W73750   3.237   7.413  12.402
 1326W        W73751  38.003  21.709   2.748
 1327W        W73752  23.035  38.897  11.976
 1328W        W73753  14.200  44.796  12.461
 1329W        W73754  33.564  31.936  14.353
 1330W        W73755  29.650  19.097   0.442
 1331W        W73756  44.270  18.722   0.389
 1332W        W73757  29.620  24.037   1.288
 1333W        W73758  13.351  34.079  11.109
 1334W        W73759  26.647  15.173   2.821
 1335W        W73760   2.280  43.328  11.890
 1336W        W73761  43.354  15.169  12.023
 1337W        W73762  30.455  29.088  14.345
 1338W        W73763  37.013  34.104   2.810
 1339W        W73764  14.687  27.191   4.829
 1340W        W73765  17.073  44.363  14.000
 1341W        W73766  19.630  21.700  12.912
 1342W        W73767   1.945  43.889   3.172
 1343W        W73768  38.997   5.818  13.369
 1344W        W73769  37.959  15.821   1.322
 1345W        W73770  17.678  11.860  14.968
 1346W        W73771  15.305   2.824  11.068
 1347W        W73772  26.074  33.988  11.602
 1348W        W73773   5.736  44.444  11.600
 1349W        W73774  14.715  29.018  13.942
 1350W        W73775  23.534  33.008  12.444
 1351W        W73776  26.572  34.899  14.764
 1352W        W73777  41.445  14.183   2.750
 1353W        W73778  20.678  11.209   4.828
 1354W        W73779   8.727  35.967   3.153
 1355W        W73780  34.094  18.060  12.998
 1356W        W73781  15.241  28.570   0.302
 1357W        W73782  13.717  12.217   2.307
 1358W        W73783   0.263  32.594   2.284
 1359W        W73784  37.465   8.226  13.315
 1360W        W73785   0.831   1.843  14.856
 1361W        W73786   1.759  26.063  10.976
 1362W        W73787  26.502  33.566   1.869
 1363W        W73788  25.000  32.539  11.385
 1364W        W73789  17.076  29.505   2.255
 1365W        W73790  30.092  20.601   2.401
 1366W        W73791  13.275  23.228   0.938
 1367W        W73792   6.256   9.784  13.420
 1368W        W73793  25.590   6.918  14.954
 1369W        W73794   6.700   6.319  14.406
 1370W        W73795  21.688  13.268  11.051
 1371W        W73796   3.314  32.404  10.903
 1372W        W73797   7.887   2.421   3.807
 1373W        W73798  36.522  23.715   3.859
 1374W        W73799  36.574  38.920  14.820
 1375W        W73800  38.385  34.117  13.924
 1376W        W73801  35.895  31.045  10.509
 1377W        W73802  15.726   0.840   3.634
 1378W        W73803  33.990  11.239   3.804
 1379W        W73804  28.024   7.284   0.380
 1380W        W73805  38.934  35.361   2.710
 1381W        W73806  37.501  26.657   4.285
 1382W        W73807  13.769  23.696  11.568
 1383W        W73808   4.214   8.710   2.193
 1384W        W73809  17.676  34.518  13.875
 1385W        W73810  37.543  35.942  14.770
 1386W        W73811  12.810   2.900  11.100
 1387W        W73812  14.131   8.396   2.887
 1388W        W73813  24.558   4.766   0.748
 1389W        W73814  12.855  16.079   3.382
 1390W        W73815   9.703  11.705  14.372
 1391W        W73816  37.914  23.605   0.731
 1392W        W73817   1.845  10.830   0.820
 1393W        W73818  34.975  40.331   1.712
 1394W        W73819  25.155  26.459   3.387
 1395W        W73820   9.171  11.755  11.121
 1396W        W73821  24.147  21.054  11.610
 1397W        W73822  19.675  12.219  13.323
 1398W        W73823  14.240   1.741   2.357
 1399W        W73824  26.159  26.477  12.342
 1400W        W73825  41.852  12.163   2.673
 1401W        W73826  42.943  21.028  12.560
 1402W        W73827  18.554  44.977  11.035
 1403W        W73828  16.590   3.902  14.943
 1404W        W73829  20.152   1.893  10.637
 1405W        W73830   0.815  23.649   5.227
 1406W        W73831  24.513  24.070  14.488
 1407W        W73832   2.759  32.510  12.487
 1408W        W73833  41.485  17.556  10.476
 1409W        W73834  11.851  32.603  10.406
 1410W        W73835  25.152  34.997  13.016
 1411W        W73836  17.141  32.392  13.493
 1412W        W73837  16.240  23.240  14.782
 1413W        W73838  17.581   3.831   4.725
 1414W        W73839  24.187  12.679   2.407
 1415W        W73840  28.930  31.965   4.807
 1416W        W73841  18.725  31.994   5.243
 1417W        W73842  14.293  11.236   2.381
 1418W        W73843   7.173  32.089   4.617
 1419W        W73844   3.882  24.041  12.862
 1420W        W73845   8.215  40.371  12.894
 1421W        W73846  34.048  37.498   4.803
 1422W        W73847  11.821  28.990   1.793
 1423W        W73848   9.339   4.361   1.437
 1424W        W73849   7.403  19.643   4.306
 1425W        W73850  27.581  17.143   2.902
 1426W        W73851  22.723  33.466   2.739
 1427W        W73852  30.985  30.565   2.871
 1428W        W73853  16.608  13.220  10.431
 1429W        W73854  16.637  28.639  11.088
 1430W        W73855   5.890  29.546  11.477
 1431W        W73856  28.105   5.758  12.538
 1432W        W73857  33.876  21.046  14.973
 1433W        W73858  37.565  36.417   2.341
 1434W        W73859   1.385  39.479   3.629
 1435W        W73860   3.226  26.002  11.555
 1436W        W73861   8.829  37.542  14.498
 1437W        W73862  13.225  32.526  14.302
 1438W        W73863   7.807  34.459  11.583
 1439W        W73864  14.622  39.030   2.213
 1440W        W73865  12.166  30.972  10.438
 1441W        W73866  30.493  38.846  13.058
 1442W        W73867  16.757  18.593   4.623
 1443W        W73868  12.773  37.895   0.342
 1444W        W73869  17.206  19.767  11.110
 1445W        W73870  25.980  37.013  13.919
 1446W        W73871  19.590  31.553   2.356
 1447W        W73872  34.058  16.626  11.878
 1448W        W73873  20.717  22.629   4.114
 1449W        W73874   6.253  18.788  11.047
 1450W        W73875  25.112  16.265   1.930
 1451W        W73876  20.211  41.905   2.900
 1452W        W73877  13.124  40.365  14.774
 1453W        W73878  36.449  28.165  13.350
 1454W        W73879  21.030   9.830   4.795
 1455W        W73880  17.272   2.260  11.392
 1456W        W73881  17.731  35.477   3.240
 1457W        W73882  11.364  37.338   3.178
 1458W        W73883  38.401   8.255  10.619
 1459W        W73884  29.042  30.529  13.461
 1460W        W73885  44.845   1.932  13.897
 1461W        W73886  13.246  44.341   0.896
 1462W        W73887  40.863  38.544   2.754
 1463W        W73888  38.839   0.899  10.076
 1464W        W73889   4.701  43.290   4.184
 1465W        W73890  35.986  41.925  11.982
 1466W        W73891  18.719  43.454  14.811
 1467W        W73892  21.260  44.329   4.199
 1468W        W73893  36.854  33.937   0.369
 1469W        W73894  26.991  12.197  14.934
 1470W        W73895   4.290  31.559  11.521
 1471W        W73896  30.632  38.932  14.471
 1472W        W73897  11.806  40.956   4.635
 1473W        W73898  18.583  42.787   4.145
 1474W        W73899  41.352  41.437   1.328
 1475W        W73900   1.348  27.945   2.359
 1476W        W73901   2.831  30.092   1.404
 1477W        W73902  29.058  23.034   3.731
 1478W        W73903  38.471  20.527  14.369
 1479W        W73904  40.858  27.478  10.568
 1480W        W73905  22.031  22.015  11.104
 1481W        W73906  11.692  44.955   2.194
 1482W        W73907   3.237  23.623   0.742
 1483W        W73908  22.621   4.706  10.542
 1484W        W73909  15.090  11.734  10.489
 1485W        W73910  30.994   2.962   0.308
 1486W        W73911  44.760  37.982   3.148
 1487W        W73912  12.704  21.711  12.899
 1488W        W73913  26.084  18.236   2.272
 1489W        W73914  30.483  44.895   4.599
 1490W        W73915  26.181  22.721   2.699
 1491W        W73916  17.084  16.704  12.926
 1492W        W73917  18.213  14.259   2.366
 1493W        W73918  40.828  22.124   1.696
 1494W        W73919  20.250  12.681  12.855
 1495W        W73920  12.188   1.459   2.792
 1496W        W73921   4.234  29.163   3.686
 1497W        W73922   9.855  24.106   4.730
 1498W        W73923  42.439   2.274  14.949
 1499W        W73924  36.389  17.092   2.857
 1500W        W73925  33.923   5.226   2.723
 1501W        W73926   7.709  38.017   4.709
 1502W        W73927  33.111  10.292  10.999
 1503W        W73928  11.301  19.650   0.870
 1504W        W73929   2.856   9.260  11.042
 1505W        W73930  36.475  29.974   2.864
 1506W        W73931  17.604  15.762   1.242
 1507W        W73932  18.623  18.674   3.832
 1508W        W73933   1.424  44.446  11.075
 1509W        W73934  14.184  10.366   3.239
 1510W        W73935  27.025  29.522  14.000
 1511W        W73936  25.996  33.498  14.767
 1512W        W73937  21.033  27.060  14.513
 1513W        W73938  28.969   9.663   1.297
 1514W        W73939  20.675  26.623   1.398
 1515W        W73940  10.191  31.090   3.834
 1516W        W73941  23.698   3.243  14.930
 1517W        W73942   1.879  43.441   1.238
 1518W        W73943   0.298  21.230  12.091
 1519W        W73944  38.341  19.667  11.563
 1520W        W73945  39.435  27.021  10.425
 1521W        W73946  36.529  11.323   0.918
 1522W        W73947  25.007  22.130   0.923
 1523W        W73948   7.888   3.899   0.475
 1524W        W73949   0.900   8.723  14.453
 1525W        W73950   9.395  25.544   0.439
 1526W        W73951  36.470   1.955   3.823
 1527W        W73952  38.558  13.213   4.780
 1528W        W73953  23.509  40.840  10.496
 1529W        W73954  17.164  25.698  13.421
 1530W        W73955  38.968   8.744  14.425
 1531W        W73956   9.837  16.087  14.417
 1532W        W73957   8.263   0.447   0.742
 1533W        W73958  38.362   5.808  13.345
 1534W        W73959  28.498  29.129   2.312
 1535W        W73960  44.919  19.668   1.862
 1536W        W73961  33.092  38.979  13.923
 1537W        W73962  35.045  38.849  12.569
 1538W        W73963  35.534  31.443  13.856
 1539W        W73964   7.333  34.998   2.748
 1540W        W73965  10.266   6.411   3.348
 1541W        W73966  44.996  16.129   2.695
 1542W        W73967   5.751  27.678   0.410
 1543W        W73968   7.250   9.197   2.198
 1544W        W73969  25.962  36.946  14.905
 1545W        W73970  32.912  10.194   1.384
 1546W        W73971  37.863  33.564   3.850
 1547W        W73972  44.458  24.688  14.830
 1548W        W73973  24.654  12.729   3.858
 1549W        W73974  27.561   8.752   0.808
 1550W        W73975  34.497  31.938  13.315
 1551W        W73976  15.264  33.098  13.016
 1552W        W73977  12.223  32.579   4.148
 1553W        W73978   4.439  29.584  14.950
 1554W        W73979  25.038  14.740   3.302
 1555W        W73980  28.545  43.002   0.441
 1556W        W73981   7.745   3.345   0.839
 1557W        W73982  39.819   1.268   4.162
 1558W        W73983   8.225  40.870  12.504
 1559W        W73984   6.759  12.649   3.237
 1560W        W73985  23.682  20.061  14.850
 1561W        W73986   6.770  36.472   4.717
 1562W        W73987  24.138  13.629   4.179
 1563W        W73988  13.626  27.059   1.237
 1564W        W73989   3.793  33.086  10.570
 1565W        W73990  20.091  10.163   3.148
 1566W        W73991   8.674   4.362   0.399
 1567W        W73992  38.372   0.844  14.930
 1568W        W73993  17.292  35.362   0.341
 1569W        W73994  39.431  35.918  10.971
 1570W        W73995  12.849   0.969   3.752
 1571W        W73996  21.055  44.268   4.721
 1572W        W73997  26.703  27.620   3.328
 1573W        W73998  33.069  43.795   0.797
 1574W        W73999  33.526  14.169  14.803
 1575W        W74000   8.367  25.608   3.727
 1576W        W74001  26.662   5.728  13.890
 1577W        W74002  26.522  30.584  11.055
 1578W        W74003   7.269  20.732   0.471
 1579W        W74004   5.802  19.180   3.760
 1580W        W74005   2.803  11.323  13.547
 1581W        W74006  29.003   1.323   1.362
 1582W        W74007  14.641  24.592   1.359
 1583W        W74008   5.379  38.329   2.418
 1584W        W74009  27.682  32.068   1.276
 1585W        W74010  40.877  20.269  14.358
 1586W        W74011  34.989  37.020  13.049
 1587W        W74012   1.324  38.510  14.468
 1588W        W74013   8.699  34.552  12.472
 1589W        W74014  40.035  41.830   4.623
 1590W        W74015   5.882  26.582   4.738
 1591W        W74016  39.347  37.454  11.979
 1592W        W74017  12.136  35.007  14.433
 1593W        W74018  16.591  34.561  12.012
 1594W        W74019  31.467  20.166  10.473
 1595W        W74020  20.751   6.758  12.862
 1596W        W74021  35.527  43.299   4.193
 1597W        W74022  17.641  16.690   2.864
 1598W        W74023   0.273  38.833  14.868
 1599W        W74024  38.325  34.995   4.637
 1600W        W74025   2.412  27.961  10.059
 1601W        W74026   6.184   1.865   2.862
 1602W        W74027  15.796  39.402   0.927
 1603W        W74028  35.519  27.690  11.558
 1604W        W74029  15.679  20.643  11.605
 1605W        W74030  26.608  40.992   4.251
 1606W        W74031   1.432  28.159  14.372
 1607W        W74032   1.870  22.709   0.257
 1608W        W74033  42.930  15.222   4.165
 1609W        W74034  14.608  28.143  12.500
 1610W        W74035  20.090  10.319   2.672
 1611W        W74036  31.936  41.458   0.727
 1612W        W74037   2.816  37.355   2.737
 1613W        W74038  29.984  39.348   3.342
 1614W        W74039  11.371  16.101  10.621
 1615W        W74040  25.555  11.864  10.106
 1616W        W74041  11.194   0.439   3.668
 1617W        W74042   7.201  11.796  12.511
 1618W        W74043  34.072  43.319   0.367
 1619W        W74044  31.965  29.081  13.919
 1620W        W74045  42.919  38.483  12.846
 1621W        W74046  11.269  15.708   3.686
 1622W        W74047  20.590   8.775  13.465
 1623W        W74048  44.852   6.905  13.872
 1624W        W74049  43.433  19.186  13.049
 1625W        W74050  16.602  28.491   3.160
 1626W        W74051  24.571  29.010   2.814
 1627W        W74052  43.982  35.515   3.853
 1628W        W74053  44.399  33.494  12.369
 1629W        W74054  28.605  27.086  12.896
 1630W        W74055  27.671   5.728  10.555
 1631W        W74056  14.318   1.426  13.441
 1632W        W74057  39.367  28.557   1.885
 1633W        W74058  38.568  16.716   0.412
 1634W        W74059  41.033  39.812  12.988
 1635W        W74060  41.804  27.159   4.613
 1636W        W74061  15.291  35.942  10.488
 1637W        W74062  25.990  44.463   1.917
 1638W        W74063  40.335  23.071  14.963
 1639W        W74064   3.353  25.492  13.061
 1640W        W74065  21.066  44.485   0.917
 1641W        W74066  16.232  40.511   4.161
 1642W        W74067  27.668  27.173  11.450
 1643W        W74068  30.510   7.871  14.500
 1644W        W74069  29.019   3.276   1.213
 1645W        W74070  33.075  28.127  13.899
 1646W        W74071  13.231  41.322  10.141
 1647W        W74072   4.445  36.031   1.913
 1648W        W74073  29.593  36.889  14.942
 1649W        W74074   8.181   3.456   2.229
 1650W        W74075  12.765  29.155   0.439
 1651W        W74076  12.818   3.722   4.638
 1652W        W74077  44.345  33.119  10.456
 1653W        W74078  42.889  37.918  14.477
 1654W        W74079  30.555  23.676   3.636
 1655W        W74080  28.593  22.162   1.750
 1656W        W74081   7.179  32.088  11.400
 1657W        W74082  22.997  37.576  11.909
 1658W        W74083  43.448   3.323  13.381
 1659W        W74084   0.471  40.421   2.240
 1660W        W74085   6.320  43.902   2.412
 1661W        W74086  28.959  27.556   2.747
 1662W        W74087   3.432  27.990  10.510
 1663W        W74088  41.491  28.990   1.877
 1664W        W74089  11.225  18.244   2.667
 1665W        W74090  22.557  41.517   0.862
 1666W        W74091  44.407  40.400   3.799
 1667W        W74092  11.851   1.337   0.926
 1668W        W74093  30.500   7.862  13.433
 1669W        W74094  24.095  35.569  14.370
 1670W        W74095  29.517  36.956   1.731
 1671W        W74096  30.481  38.962  10.913
 1672W        W74097   6.400   0.356   0.367
 1673W        W74098  10.270  28.932  10.135
 1674W        W74099  36.954   3.938  12.855
 1675W        W74100  37.858   4.228   4.763
 1676W        W74101  39.914  32.944   4.128
 1677W        W74102  39.493  32.082  13.016
 1678W        W74103  19.697  12.741   1.300
 1679W        W74104  33.929   3.887   1.224
 1680W        W74105  28.491  31.621   2.729
 1681W        W74106  15.722  23.079   3.809
 1682W        W74107  31.122  21.524  13.855
 1683W        W74108  22.552   9.174  13.464
 1684W        W74109  37.852  34.101  10.446
 1685W        W74110  40.432  25.708   3.668
 1686W        W74111   0.858  19.209  14.782
 1687W        W74112  11.823   1.849   2.676
 1688W        W74113  15.628  13.284  12.964
 1689W        W74114  10.183  24.031   4.171
 1690W        W74115  17.090   5.348   1.383
 1691W        W74116   4.891  43.928  10.596
 1692W        W74117  43.917  17.149  14.892
 1693W        W74118  34.043  30.658   2.365
 1694W        W74119  30.581  13.835   4.187
 1695W        W74120  16.194   7.317   5.299
 1696W        W74121  25.024  30.511  12.978
 1697W        W74122  32.438  43.454  13.985
 1698W        W74123  22.647  29.005   3.176
 1699W        W74124  16.734  31.947   0.901
 1700W        W74125   4.913  21.155  14.357
 1701W        W74126   4.869  39.359   2.397
 1702W        W74127  36.055  28.953  11.525
 1703W        W74128  17.607  30.154  13.937
 1704W        W74129  35.992   8.771   2.320
 1705W        W74130  30.068  28.162  13.955
 1706W        W74131  28.547  36.059  14.436
 1707W        W74132  28.549  34.579  12.035
 1708W        W74133  31.896  11.355   9.947
 1709W        W74134  16.208  14.244   2.305
 1710W        W74135  24.486  13.823   2.418
 1711W        W74136  42.833  22.097   0.777
 1712W        W74137   8.866  10.258   2.286
 1713W        W74138  28.022  18.664  11.396
 1714W        W74139  35.982   3.841   3.155
 1715W        W74140  25.677  12.129  12.973
 1716W        W74141  41.796   5.713  13.945
 1717W        W74142  20.695  26.681  10.444
 1718W        W74143   2.864  36.375  12.492
 1719W        W74144   8.753  14.166   1.258
 1720W        W74145  43.792   7.902   0.305
 1721W        W74146  38.553  19.087  13.385
 1722W        W74147  29.454  30.138   0.381
 1723W        W74148  34.027  20.584   4.276
 1724W        W74149  20.173   9.181  13.312
 1725W        W74150  16.091  35.062  11.374
 1726W        W74151   2.741   3.277  11.081
 1727W        W74152  28.488   8.173  14.435
 1728W        W74153  33.034  33.535  13.467
 1729W        W74154  29.165   6.226  13.812
 1730W        W74155  39.427   4.940   4.802
 1731W        W74156   4.224  13.346  12.540
 1732W        W74157  42.004  11.757   2.350
 1733W        W74158  34.108  10.840  12.541
 1734W        W74159   6.777  35.540   4.301
 1735W        W74160  32.480  11.134   1.313
 1736W        W74161  42.496  33.575  14.419
 1737W        W74162   3.385  43.957  13.822
 1738W        W74163   4.794  22.657   1.928
 1739W        W74164  26.155  11.829   1.763
 1740W        W74165  27.579   5.726  13.516
 1741W        W74166  16.801  23.127  10.914
 1742W        W74167  35.421  20.714  10.590
 1743W        W74168  31.403  41.321  11.076
 1744W        W74169  25.548  30.568  11.573
 1745W        W74170   5.796  11.773   1.717
 1746W        W74171  28.606  18.791  12.533
 1747W        W74172  32.522   7.228   0.271
 1748W        W74173   0.988  18.168   0.428
 1749W        W74174  31.110  23.601   4.125
 1750W        W74175  31.581  32.636   4.831
 1751W        W74176  13.825   6.710   2.215
 1752W        W74177  24.545  30.563  13.391
 1753W        W74178  28.058  13.171  12.903
 1754W        W74179   2.834   7.702   4.146
 1755W        W74180   0.349   2.843  11.006
 1756W        W74181  40.330  37.902   0.755
 1757W        W74182  23.216   1.286   4.284
 1758W        W74183   5.828  13.689  10.459
 1759W        W74184  16.688  30.467   0.316
 1760W        W74185  35.888   3.889   2.666
 1761W        W74186  26.667  23.647  14.451
 1762W        W74187  26.587  25.127  10.644
 1763W        W74188  36.439  42.922  10.086
 1764W        W74189  29.514  36.473   1.222
 1765W        W74190  41.872   6.246   1.451
 1766W        W74191  15.697  18.192   2.380
 1767W        W74192  19.624  36.915  14.371
 1768W        W74193  36.848   6.204  10.417
 1769W        W74194  20.586  34.375   2.820
 1770W        W74195  39.894  38.378  14.332
 1771W        W74196  40.028  43.826   2.731
 1772W        W74197  13.203  21.707   0.890
 1773W        W74198  18.241  23.518  10.496
 1774W        W74199  10.759  37.463  10.049
 1775W        W74200  38.923  24.716   1.791
 1776W        W74201  19.706  39.355   2.326
 1777W        W74202  40.377  23.693  10.100
 1778W        W74203  11.746  21.197  14.899
 1779W        W74204  32.540  35.992  14.841
 1780W        W74205  21.688   2.916   4.815
 1781W        W74206  18.773  41.521   4.199
 1782W        W74207  26.193  29.052  14.979
 1783W        W74208  11.150  26.499  14.354
 1784W        W74209  27.983   4.741   4.298
 1785W        W74210  18.607  27.642  11.992
 1786W        W74211  18.672  40.921  14.983
 1787W        W74212  30.452  17.105  13.792
 1788W        W74213   8.340  42.974  11.121
 1789W        W74214   9.185  29.600  12.490
 1790W        W74215   8.277   0.434  11.004
 1791W        W74216  22.195   5.271  12.352
 1792W        W74217  36.526  11.839  14.884
 1793W        W74218  32.595   0.783  11.372
 1794W        W74219  40.507  12.853  13.904
 1795W        W74220  17.219   1.264   0.878
 1796W        W74221  17.576  29.483   0.958
 1797W        W74222  25.523  16.600  13.424
 1798W        W74223   4.282  17.068   4.260
 1799W        W74224  23.226  10.741  11.578
 1800W        W74225  34.944  16.740   0.405
 1801W        W74226  40.990  37.905  14.978
 1802W        W74227   4.833  11.351  11.058
 1803W        W74228  15.172  32.456   0.347
 1804W        W74229  13.734   7.338   2.664
 1805W        W74230  17.750   1.768  12.054
 1806W        W74231  17.801  35.083   2.192
 1807W        W74232  27.496   5.284   1.859
 1808W        W74233  25.691  10.667   3.151
 1809W        W74234  42.932  12.618   1.762
 1810W        W74235  42.939   5.242  13.413
 1811W        W74236  11.695  28.570   4.144
 1812W        W74237  22.036  17.567   2.811
 1813W        W74238  41.338   7.361  12.884
 1814W        W74239  20.044   0.865  12.976
 1815W        W74240  43.879  39.041   4.622
 1816W        W74241  13.612  44.768   3.654
 1817W        W74242  36.935  25.167   2.240
 1818W        W74243  37.868   6.306  10.409
 1819W        W74244  40.506  25.658   1.406
 1820W        W74245  43.818  23.637   2.822
 1821W        W74246   4.885  43.776  11.476
 1822W        W74247  28.180   4.925   2.889
 1823W        W74248  21.253  11.264  10.130
 1824W        W74249  41.342   7.879  11.579
 1825W        W74250  15.623  37.530  14.399
 1826W        W74251  25.006  31.014   0.265
 1827W        W74252  29.570  38.535  10.895
 1828W        W74253   8.789  44.918   0.280
 1829W        W74254  22.022   5.890  11.993
 1830W        W74255   4.829  17.065  12.360
 1831W        W74256   1.815  31.126   1.332
 1832W        W74257  30.551  21.741   3.691
 1833W        W74258   2.443  23.496  12.540
 1834W        W74259  24.227  21.741   1.303
 1835W        W74260   2.264   8.688   2.768
 1836W        W74261  32.459  28.664   3.856
 1837W        W74262   4.911  20.200  13.865
 1838W        W74263  28.101  23.552   0.374
 1839W        W74264  34.995  40.483  13.341
 1840W        W74265  42.936  27.053   0.254
 1841W        W74266  35.366  25.587   3.333
 1842W        W74267  23.173  16.729   0.825
 1843W        W74268   2.937  14.136  11.026
 1844W        W74269  15.594  22.525   2.355
 1845W        W74270  33.382  16.093  11.993
 1846W        W74271  29.484  43.793  12.871
 1847W        W74272   3.428  27.620  11.381
 1848W        W74273  24.067  44.327  10.504
 1849W        W74274  44.899  18.255  12.062
 1850W        W74275  30.473  14.127   1.294
 1851W        W74276   8.205  28.570  13.061
 1852W        W74277   8.828   1.906   1.391
 1853W        W74278  28.104   4.929   5.252
 1854W        W74279  33.967  16.174   1.897
 1855W        W74280  41.318   0.823   1.702
 1856W        W74281   1.384  37.524   1.731
 1857W        W74282   1.343  28.495   0.276
 1858W        W74283  40.392  23.604   0.824
 1859W        W74284   5.224  17.718  14.340
 1860W        W74285  25.532  20.127  10.899
 1861W        W74286  20.625  14.202   3.278
 1862W        W74287  16.206  44.944  14.789
 1863W        W74288  26.698  15.664  14.956
 1864W        W74289  19.602  39.039   2.664
 1865W        W74290  19.539  35.971   3.692
 1866W        W74291  14.232   6.915   4.755
 1867W        W74292   7.856  41.531   4.618
 1868W        W74293   0.266   3.727  12.468
 1869W        W74294  27.566  38.473   0.323
 1870W        W74295  20.597  16.788  14.501
 1871W        W74296  23.211  32.885  10.942
 1872W        W74297  25.589  10.636  11.984
 1873W        W74298  16.289  32.061   4.217
 1874W        W74299   1.239   2.454  12.417
 1875W        W74300  36.350  26.129  10.517
 1876W        W74301  18.669  21.513  14.388
 1877W        W74302  22.623   3.265  11.552
 1878W        W74303  16.282  23.996  14.439
 1879W        W74304  15.095  35.979  11.560
 1880W        W74305  31.453  32.979   0.277
 1881W        W74306   0.268  30.049   4.631
 1882W        W74307  15.608  43.989   0.415
 1883W        W74308  26.689   6.228  10.587
 1884W        W74309  44.447  38.024  13.346
 1885W        W74310  18.179  43.919   1.224
 1886W        W74311  37.456  11.261   1.913
 1887W        W74312  37.516   1.745   2.814
 1888W        W74313   4.923   1.781  11.075
 1889W        W74314  29.465  18.208  10.910
 1890W        W74315  27.088  37.897  12.505
 1891W        W74316  41.989  30.020  10.581
 1892W        W74317  12.809  24.186  14.952
 1893W        W74318   7.777  22.228  10.507
 1894W        W74319  27.196   7.799  12.493
 1895W        W74320  14.112  22.601  11.497
 1896W        W74321  38.557  32.422  14.377
 1897W        W74322  19.044  22.696  11.570
 1898W        W74323   6.322  17.687  10.571
 1899W        W74324  38.507  23.093  14.888
 1900W        W74325  30.158  26.025   2.238
 1901W        W74326  11.623  38.829  14.914
 1902W        W74327  44.781  31.128   0.376
 1903W        W74328  31.646  27.986  14.802
 1904W        W74329   7.199  42.015   0.838
 1905W        W74330   6.384  35.958   2.807
 1906W        W74331  24.057   3.238  12.372
 1907W        W74332  30.615  19.126   4.832
 1908W        W74333   0.959  40.339   1.444
 1909W        W74334  33.036  44.295   1.904
 1910W        W74335   2.744  29.938  11.930
 1911W        W74336  36.942  25.527   1.372
 1912W        W74337  32.607  12.652   0.775
 1913W        W74338  41.318  43.433  12.349
 1914W        W74339  11.297   7.773   4.153
 1915W        W74340   5.697   2.399   2.205
 1916W        W74341  38.836   8.895  12.576
 1917W        W74342   0.304  39.329  14.877
 1918W        W74343  22.544   4.714   3.324
 1919W        W74344  35.890  19.142   2.878
 1920W        W74345  36.427  15.117   1.858
 1921W        W74346  24.704   8.185   1.304
 1922W        W74347  14.731  35.578  10.536
 1923W        W74348   0.911  16.769  13.310
 1924W        W74349  44.435  28.015   1.735
 1925W        W74350  33.942  18.698   0.313
 1926W        W74351  16.801  15.612   4.662
 1927W        W74352  31.514  16.648  13.924
 1928W        W74353  14.627  10.807  14.312
 1929W        W74354  19.224  20.598   1.358
 1930W        W74355  30.572  24.091  13.846
 1931W        W74356   7.668   0.803  10.445
 1932W        W74357   7.370  14.181   1.264
 1933W        W74358  24.982  14.193  13.791
 1934W        W74359  25.537   6.690   0.843
 1935W        W74360  39.046  39.837  14.899
 1936W        W74361  40.935  13.774   1.350
 1937W        W74362  32.950  30.969   2.880
 1938W        W74363   8.313  15.723  12.963
 1939W        W74364  38.379   4.221  12.925
 1940W        W74365  24.505   2.451  12.019
 1941W        W74366  42.368  19.273  13.802
 1942W        W74367   8.330  37.863   3.315
 1943W        W74368  25.498   5.401   2.412
 1944W        W74369  41.469   9.830  11.563
 1945W        W74370  38.886  18.733  14.875
 1946W        W74371  17.586  21.546  11.097
 1947W        W74372  25.644   4.340  12.042
 1948W        W74373  31.083  41.008   3.343
 1949W        W74374  26.467  11.290   5.215
 1950W        W74375   1.812  26.584  12.061
 1951W        W74376  38.825   3.277   4.805
 1952W        W74377  39.411   7.279  11.510
 1953W        W74378  34.464  15.722  14.389
 1954W        W74379  11.822  27.115   3.857
 1955W        W74380  44.920   8.208  13.038
 1956W        W74381   8.237  18.237   1.714
 1957W        W74382  20.651   8.256  11.445
 1958W        W74383  38.994  25.000  14.388
 1959W        W74384  10.209  17.209  11.962
 1960W        W74385  26.024   8.885   2.412
 1961W        W74386  12.341  30.659   3.865
 1962W        W74387  35.574   2.883  13.891
 1963W        W74388  36.935  28.058   0.444
 1964W        W74389   2.722  40.321  12.508
 1965W        W74390   0.796  35.102   2.849
 1966W        W74391  15.687  34.995  10.068
 1967W        W74392  38.327  23.589   3.382
 1968W        W74393   4.384  23.647   4.338
 1969W        W74394  11.261  17.274  10.631
 1970W        W74395  37.429   2.884   2.394
 1971W        W74396  11.847  40.407  11.389
 1972W        W74397  25.692  41.368  11.868
 1973W        W74398  40.860  18.136  11.433
 1974W        W74399   5.908  41.951  14.402
 1975W        W74400  16.618  38.363  14.395
 1976W        W74401  20.698  43.916  12.423
 1977W        W74402  28.469  21.205   2.267
 1978W        W74403  11.671   5.814  12.416
 1979W        W74404   3.947   6.351   2.269
 1980W        W74405  23.059   4.267  14.792
 1981W        W74406  35.062  38.436  11.606
 1982W        W74407  14.628   5.736   0.829
 1983W        W74408  23.059   5.345   4.288
 1984W        W74409  23.218  27.569   2.258
 1985W        W74410  22.735  31.472   4.671
 1986W        W74411  11.714   6.240  11.923
 1987W        W74412  29.967  32.970   1.769
 1988W        W74413  10.656  25.212   2.718
 1989W        W74414  43.913   4.217  12.453
 1990W        W74415  15.190  17.779   4.216
 1991W        W74416  11.331   3.744   2.417
 1992W        W74417  16.634   9.231   3.651
 1993W        W74418  17.672  22.132  13.798
 1994W        W74419   7.333  11.142   2.711
 1995W        W74420  29.618  20.576   0.469
 1996W        W74421  44.868   8.663   4.285
 1997W        W74422  40.353  28.069   2.400
 1998W        W74423   8.869  21.194   5.237
 1999W        W74424  18.632   6.880  11.613
 2000W        W74425  20.732  41.929  10.417
 2001W        W74426  25.025  20.132  12.843
 2002W        W74427  41.315   9.316  10.515
 2003W        W74428   4.790  36.066   2.408
 2004W        W74429  31.051  38.862  13.044
 2005W        W74430  39.514  40.466  11.999
 2006W        W74431   1.336   0.914   0.477
 2007W        W74432  30.035  10.220   4.823
 2008W        W74433   1.467  28.539  11.501
 2009W        W74434   2.872  20.266   0.364
 2010W        W74435   7.719  15.189  10.584
 2011W        W74436   1.950  36.570  12.561
 2012W        W74437   1.894  15.718   1.245
 2013W        W74438  34.375  11.180   2.315
 2014W        W74439  21.032  22.060   2.780
 2015W        W74440  12.752  37.542   2.408
 2016W        W74441  37.415   2.945  11.534
 2017W        W74442  33.991  22.627   0.382
 2018W        W74443  32.472   4.905  10.052
 2019W        W74444  20.746  42.959   0.336
 2020W        W74445  33.470  27.970   5.124
 2021W        W74446  23.647  21.728   1.877
 2022W        W74447  39.887  15.798  11.118
 2023W        W74448  42.922  36.558  10.995
 2024W        W74449  20.134  43.822   1.298
 2025W        W74450  36.381   5.416  13.036
 2026W        W74451   3.847  44.307   3.303
 2027W        W74452   6.384   8.262   4.742
 2028W        W74453  27.553  19.105   3.339
 2029W        W74454  43.806   7.768  12.341
 2030W        W74455   5.725  15.277  12.961
 2031W        W74456   3.744  18.081  10.611
 2032W        W74457   2.286  41.987   2.345
 2033W        W74458  38.921   2.775  12.019
 2034W        W74459  21.643  15.792  12.473
 2035W        W74460   6.845  38.560  13.441
 2036W        W74461   7.200  40.355  13.841
 2037W        W74462  35.021  28.994   0.731
 2038W        W74463   5.384   7.688  12.008
 2039W        W74464   7.817  42.891   3.765
 2040W        W74465  37.961  41.983  14.341
 2041W        W74466  23.712  34.962  13.919
 2042W        W74467  23.002  16.579  13.026
 2043W        W74468  27.113  16.224   0.328
 2044W        W74469  18.184  32.575   9.614
 2045W        W74470  42.876  34.958  14.768
 2046W        W74471  20.721  35.553   2.301
 2047W        W74472  35.063   3.323  13.907
 2048W        W74473   7.881  41.295  10.974
 2049W        W74474  14.789  14.601  11.576
 2050W        W74475  20.719  30.037  14.832
 2051W        W74476  17.657  39.939  13.056
 2052W        W74477   8.839  39.438  13.328
 2053W        W74478   4.891  30.434   2.285
 2054W        W74479  39.837  33.018   3.173
 2055W        W74480   4.448  40.017  10.484
 2056W        W74481  17.760  26.655  10.463
 2057W        W74482  25.548  32.546  14.454
 2058W        W74483  35.939  13.633  14.834
 2059W        W74484   8.374  33.405   4.623
 2060W        W74485  27.968  33.025   3.341
 2061W        W74486  32.037  28.184   3.663
 2062W        W74487  33.903  37.903  12.843
 2063W        W74488  13.310  28.008   2.180
 2064W        W74489  14.763  20.205   2.299
 2065W        W74490  24.034  10.741  14.397
 2066W        W74491  20.066  41.903  12.091
 2067W        W74492  24.231  13.276   1.926
 2068W        W74493   6.211  23.204  13.545
 2069W        W74494  10.228  15.678   2.310
 2070W        W74495   4.738   7.334  11.883
 2071W        W74496  42.000  37.480   0.295
 2072W        W74497  19.604  18.132   2.825
 2073W        W74498  10.711   0.982   4.709
 2074W        W74499  26.549   1.863  10.915
 2075W        W74500   6.895  12.655  12.960
 2076W        W74501  31.445   7.820  14.501
 2077W        W74502  23.990  15.205  14.307
 2078W        W74503  38.016  35.406   1.419
 2079W        W74504   6.823  17.101  13.525
 2080W        W74505  21.208   5.419   1.449
 2081W        W74506  43.853  24.102  10.567
 2082W        W74507  17.652  31.032   2.337
 2083W        W74508  27.092  44.376   4.755
 2084W        W74509  21.628  40.333  10.020
 2085W        W74510   0.353  14.157  14.945
 2086W        W74511  40.469   7.832   1.250
 2087W        W74512  25.620  13.612   2.741
 2088W        W74513  30.445  37.955   4.832
 2089W        W74514  23.000  20.080  13.367
 2090W        W74515   0.837  37.061   3.760
 2091W        W74516  14.236  36.380  14.329
 2092W        W74517  37.906  30.525   1.349
 2093W        W74518   4.834  15.764  10.540
 2094W        W74519   7.187  41.932  11.471
 2095W        W74520   9.220  35.504  10.482
 2096W        W74521   2.230  20.570  11.017
 2097W        W74522   1.852   2.365   3.854
 2098W        W74523  18.759  14.737   4.697
 2099W        W74524  26.016  36.521  11.381
 2100W        W74525  32.024  19.123  12.953
 2101W        W74526  11.774   6.216   4.757
 2102W        W74527   3.349  18.559   2.249
 2103W        W74528  40.385  13.792  12.427
 2104W        W74529  15.280  41.912   0.357
 2105W        W74530  44.312  39.973   0.764
 2106W        W74531  11.221  21.172   4.330
 2107W        W74532  43.921  22.606  12.464
 2108W        W74533   7.239  36.481  13.056
 2109W        W74534  17.629   5.847  12.051
 2110W        W74535  15.141   6.248  11.519
 2111W        W74536  12.647  42.972  11.022
 2112W        W74537  29.111   1.750   2.227
 2113W        W74538  34.098  41.390   1.873
 2114W        W74539  10.701  26.693   1.257
 2115W        W74540  12.768  41.896  14.937
 2116W        W74541  43.022   8.668  13.957
 2117W        W74542  37.496  13.737  14.964
 2118W        W74543   5.880  27.961   4.235
 2119W        W74544  34.006   6.427   3.151
 2120W        W74545   4.772  19.212  12.498
 2121W        W74546  14.213  25.047  12.541
 2122W        W74547  28.491  31.976  14.792
 2123W        W74548  36.510  25.161   3.364
 2124W        W74549   1.748  23.143   2.215
 2125W        W74550  41.904  42.363  12.970
 2126W        W74551  33.106  35.962   4.228
 2127W        W74552  31.083  34.457  14.944
 2128W        W74553  31.638  24.022  11.585
 2129W        W74554  11.181  23.724  11.599
 2130W        W74555  27.541  41.862  13.064
 2131W        W74556   3.268  20.680   1.290
 2132W        W74557   7.384  10.175   3.172
 2133W        W74558  42.310  26.103  12.448
 2134W        W74559  42.374   9.364  14.889
 2135W        W74560  10.331  31.152  12.969
 2136W        W74561  39.497  44.365  13.050
 2137W        W74562  44.491  44.004   3.631
 2138W        W74563   3.740  33.881   3.868
 2139W        W74564   7.726  41.979   0.959
 2140W        W74565  11.780  35.477   2.297
 2141W        W74566  12.718  10.336   5.107
 2142W        W74567  16.156  36.452  11.462
 2143W        W74568   7.226   4.734   4.208
 2144W        W74569  44.333   1.735  11.887
 2145W        W74570  29.651   2.760  10.893
 2146W        W74571  39.065   7.708   4.780
 2147W        W74572   2.893  30.072   0.869
 2148W        W74573  31.088  42.430   4.607
 2149W        W74574  10.752  44.448   0.289
 2150W        W74575   0.752  18.692   4.278
 2151W        W74576   2.861   3.786  12.572
 2152W        W74577  29.174  25.532   4.634
 2153W        W74578  44.268  14.300  11.586
 2154W        W74579  38.920  38.357  10.511
 2155W        W74580  19.591  37.844  11.105
 2156W        W74581   9.783  23.578  12.961
 2157W        W74582  28.478   8.205  10.969
 2158W        W74583  18.115  27.126  10.507
 2159W        W74584  13.839  20.634  12.475
 2160W        W74585  42.966  24.604   4.289
 2161W        W74586   9.391  41.893  10.993
 2162W        W74587  41.911  24.625  13.016
 2163W        W74588   3.835   9.274  12.510
 2164W        W74589  25.971  34.965   4.781
 2165W        W74590  43.807   8.215   0.455
 2166W        W74591  42.414  30.107   0.260
 2167W        W74592  23.534   9.295  10.934
 2168W        W74593  34.972   1.879  11.060
 2169W        W74594  42.902  34.889  10.552
 2170W        W74595  30.483  12.655  10.633
 2171W        W74596   3.229   9.191  11.432
 2172W        W74597  29.636  35.488   3.161
 2173W        W74598  18.077   1.938   0.761
 2174W        W74599   5.772  43.473  12.370
 2175W        W74600  15.171   5.399  14.858
 2176W        W74601  13.259   9.866  13.972
 2177W        W74602  22.055  22.570  13.342
 2178W        W74603  40.393   7.822   3.664
 2179W        W74604  28.009   2.723  13.902
 2180W        W74605   3.931  42.406  13.526
 2181W        W74606   3.343   8.377   4.203
 2182W        W74607  15.727   6.883   4.839
 2183W        W74608  35.475  34.400   4.695
 2184W        W74609  18.255  23.588  11.551
 2185W        W74610  32.117   2.806  13.464
 2186W        W74611  26.184  11.359   2.244
 2187W        W74612   3.328  39.385   0.319
 2188W        W74613  42.910  34.580  13.045
 2189W        W74614   5.318  12.736  10.623
 2190W        W74615  23.621  39.525   4.205
 2191W        W74616   7.358  31.467   0.882
 2192W        W74617  13.287   1.944   2.326
 2193W        W74618  43.895  11.756  13.030
 2194W        W74619   6.893  19.583  13.411
 2195W        W74620  27.051  23.540   0.359
 2196W        W74621  17.200   8.278  12.545
 2197W        W74622  12.178  11.250  11.128
 2198W        W74623   5.777  44.937  14.328
 2199W        W74624   4.403  39.416   0.390
 2200W        W74625  22.014  29.106  11.931
 2201W        W74626  44.871  34.902   3.714
 2202W        W74627   6.831  10.175  13.813
 2203W        W74628  15.718   5.894  11.601
 2204W        W74629  32.086  18.574  13.956
 2205W        W74630  43.301  18.176  10.418
 2206W        W74631   2.294  33.555   1.300
 2207W        W74632  33.093  43.329  10.559
 2208W        W74633  42.006  23.134   4.343
 2209W        W74634  38.061   3.753   3.754
 2210W        W74635  21.596  10.293   3.818
 2211W        W74636  43.923   3.717  13.502
 2212W        W74637  40.884  14.214  10.515
 2213W        W74638   1.381   8.254  11.409
 2214W        W74639   1.763  33.120  12.011
 2215W        W74640  30.947  44.866   0.355
 2216W        W74641   5.905  26.477  14.457
 2217W        W74642  24.210  20.240   2.860
 2218W        W74643  17.275   9.298  11.513
 2219W        W74644  37.960   6.889   4.619
 2220W        W74645  12.132  11.763   4.811
 2221W        W74646   5.363  13.772  11.566
 2222W        W74647  18.790   1.903  12.019
 2223W        W74648  36.902  36.539   0.881
 2224W        W74649   0.492  44.287  13.464
 2225W        W74650  15.282  30.982   3.824
 2226W        W74651  14.264  30.030  14.010
 2227W        W74652   0.319  21.673  11.398
 2228W        W74653  31.612  39.955   4.730
 2229W        W74654  27.548   7.906   3.213
 2230W        W74655  28.575  13.703   3.171
 2231W        W74656  16.229  40.806  11.599
 2232W        W74657  35.082  18.250  14.002
 2233W        W74658   4.758  41.413   2.703
 2234W        W74659  11.324   7.231   5.631
 2235W        W74660   8.226  17.797   3.793
 2236W        W74661   9.871  44.438   3.691
 2237W        W74662  30.430  28.511   1.745
 2238W        W74663  20.242  34.381   1.868
 2239W        W74664   0.410   8.189   4.782
 2240W        W74665  39.464  12.255  11.972
 2241W        W74666   8.267  10.152   1.763
 2242W        W74667  38.981   4.767   5.170
 2243W        W74668  38.965   7.247   0.746
 2244W        W74669  18.777  42.925   0.933
 2245W        W74670   9.380  31.449  11.562
 2246W        W74671  31.572  26.490   1.823
 2247W        W74672   4.740  10.139   1.269
 2248W        W74673   8.353   9.289   4.673
 2249W        W74674  20.733  24.647   4.262
 2250W        W74675  40.435  28.968  14.953
 2251W        W74676  22.210  19.621   0.766
 2252W        W74677   2.432  35.905   4.714
 2253W        W74678  26.648   9.239   2.224
 2254W        W74679  11.172  13.807   0.906
 2255W        W74680  15.188   9.280  11.497
 2256W        W74681  20.646  21.629   0.738
 2257W        W74682   2.741  24.589   1.380
 2258W        W74683  34.493  25.978  13.367
 2259W        W74684   1.961  43.487   4.705
 2260W        W74685  44.910  12.228  14.351
 2261W        W74686  22.683  13.706   2.270
 2262W        W74687  28.438  40.348  12.092
 2263W        W74688  31.543  14.664   3.647
 2264W        W74689  42.465  34.099  11.470
 2265W        W74690   4.846  21.729  12.906
 2266W        W74691  41.300  41.324  12.378
 2267W        W74692  15.818  36.509   5.138
 2268W        W74693  26.551  31.572   3.183
 2269W        W74694  22.585  12.674  13.900
 2270W        W74695  23.672  34.611  13.369
 2271W        W74696  10.746  23.041   2.722
 2272W        W74697  29.087  30.540   3.181
 2273W        W74698   5.807  13.216  14.835
 2274W        W74699  30.071  10.765   2.190
 2275W        W74700   0.470  16.255   2.264
 2276W        W74701  35.013  19.278   2.193
 2277W        W74702   4.914  35.878  14.379
 2278W        W74703  13.222   4.288   1.284
 2279W        W74704  29.162  33.396  12.486
 2280W        W74705  29.078   0.882   2.182
 2281W        W74706  22.200  21.534   3.151
 2282W        W74707   7.193  17.287  10.902
 2283W        W74708   5.688  25.980  14.305
 2284W        W74709  25.112   7.881   0.776
 2285W        W74710  12.777  22.637  14.821
 2286W        W74711  38.922  14.320  13.968
 2287W        W74712  27.066  19.143   0.946
 2288W        W74713  26.561   5.279  13.373
 2289W        W74714  19.627   9.790  10.633
 2290W        W74715  38.328  35.531  12.942
 2291W        W74716  44.847  33.054   1.230
 2292W        W74717   7.719  33.031  12.067
 2293W        W74718  20.252  30.963   1.721
 2294W        W74719  27.135  29.584  14.504
 2295W        W74720  34.892  11.197  12.050
 2296W        W74721   8.214  42.995  14.354
 2297W        W74722  39.979  38.976   1.291
 2298W        W74723  19.187  40.518   0.291
 2299W        W74724  38.890  42.894  12.505
 2300W        W74725  43.498   6.207  14.429
 2301W        W74726   4.720  23.008   2.716
 2302W        W74727   5.359  17.729   2.389
 2303W        W74728  30.958   6.321  14.507
 2304W        W74729  20.041   3.760  14.419
 2305W        W74730  33.449  31.634  14.462
 2306W        W74731   7.877  28.638  13.323
 2307W        W74732  31.999  29.964   0.838
 2308W        W74733  22.552  16.088   0.388
 2309W        W74734  26.962   8.727   4.244
 2310W        W74735  22.582  37.435  10.596
 2311W        W74736  33.406  19.178  10.551
 2312W        W74737   2.881   7.270   4.701
 2313W        W74738  37.068  25.038  10.063
 2314W        W74739  19.694  10.222  14.857
 2315W        W74740   9.363  18.190   4.623
 2316W        W74741  12.327  22.563   0.887
 2317W        W74742  40.408  15.604   4.249
 2318W        W74743   1.301  13.272  11.382
 2319W        W74744  30.989  29.143  11.100
 2320W        W74745  12.754  44.284  12.430
 2321W        W74746  12.814  36.542   2.185
 2322W        W74747  19.104  12.717   0.449
 2323W        W74748  25.631  29.448   9.986
 2324W        W74749  26.174   3.360  12.091
 2325W        W74750   8.900   4.940  11.065
 2326W        W74751  14.269  40.855  11.867
 2327W        W74752  31.033  17.636  10.925
 2328W        W74753  34.546   7.271  13.800
 2329W        W74754  25.203  44.774  12.475
 2330W        W74755  13.128   7.714   3.298
 2331W        W74756  36.384   0.402   3.250
 2332W        W74757  27.071   2.404   3.713
 2333W        W74758  31.631   0.269  11.417
 2334W        W74759  44.308  30.071  11.410
 2335W        W74760  32.394  28.055   4.738
 2336W        W74761   8.384  18.727  11.581
 2337W        W74762  39.815  37.990   1.879
 2338W        W74763   6.801  20.558   0.471
 2339W        W74764  37.050  20.692   3.686
 2340W        W74765  26.207  35.025   2.693
 2341W        W74766  31.567   7.730  12.952
 2342W        W74767  23.718  37.949   2.265
 2343W        W74768  31.953   7.901  12.948
 2344W        W74769  20.130  18.718   2.848
 2345W        W74770  23.047  34.545   1.904
 2346W        W74771   4.913  28.136  11.957
 2347W        W74772   8.308   5.805   1.844
 2348W        W74773  21.049  29.126  14.514
 2349W        W74774  35.490  42.322  12.095
 2350W        W74775  24.538   8.386  10.021
 2351W        W74776  38.411  12.335   4.755
 2352W        W74777   6.908  32.009   0.754
 2353W        W74778  39.497  44.301  10.092
 2354W        W74779   1.280   6.309  14.320
 2355W        W74780   9.283  23.507   2.694
 2356W        W74781  44.384  13.760  15.000
 2357W        W74782  16.765  21.617  11.101
 2358W        W74783  32.395  16.725  11.383
 2359W        W74784  29.042  12.270  11.601
 2360W        W74785  17.088  31.421   2.406
 2361W        W74786  36.906   3.376  10.617
 2362W        W74787  44.912  15.236  14.796
 2363W        W74788   3.784  28.992  10.968
 2364W        W74789  27.570  43.507  14.853
 2365W        W74790  37.412  22.071   4.181
 2366W        W74791  17.233  26.486   1.269
 2367W        W74792  18.608   3.859   3.774
 2368W        W74793   4.247  16.617  13.904
 2369W        W74794  11.730  16.302  14.496
 2370W        W74795  26.042  34.487   1.835
 2371W        W74796  25.685  35.374  12.847
 2372W        W74797   1.473  33.900  12.395
 2373W        W74798  27.482  23.702  13.311
 2374W        W74799  10.221   2.799   1.927
 2375W        W74800  12.799  24.722  10.416
 2376W        W74801  37.379  39.403   2.807
 2377W        W74802  23.595  20.574   4.265
 2378W        W74803  30.562   9.776   2.864
 2379W        W74804  10.874  18.659   3.385
 2380W        W74805   3.403  18.753  11.056
 2381W        W74806   6.828  42.006   0.785
 2382W        W74807  14.756  20.185   1.353
 2383W        W74808  29.616  15.814   3.376
 2384W        W74809  41.354  16.245   1.412
 2385W        W74810  44.362   3.380   3.791
 2386W        W74811  13.605  44.951  13.839
 2387W        W74812  24.695  43.828  12.518
 2388W        W74813  40.492   8.249   0.846
 2389W        W74814   6.205  40.896   3.264
 2390W        W74815  39.335  10.325  10.507
 2391W        W74816   6.903  20.061  13.341
 2392W        W74817  29.638  32.460   0.930
 2393W        W74818  33.606  41.801   1.369
 2394W        W74819  25.520  14.768  14.442
 2395W        W74820  21.639  43.873   2.790
 2396W        W74821  18.558  25.565   4.682
 2397W        W74822   5.734  37.909   4.598
 2398W        W74823  39.370  11.246  13.442
 2399W        W74824  28.990   6.820   2.326
 2400W        W74825  38.473  37.870  12.080
 2401W        W74826  19.194  43.982  12.467
 2402W        W74827   3.269  10.826  14.454
 2403W        W74828   9.780   0.358  14.861
 2404W        W74829  27.169   1.866   4.660
 2405W        W74830  43.014  26.685  14.380
 2406W        W74831  11.143   6.188  12.495
 2407W        W74832  32.402  27.972   1.778
 2408W        W74833  40.881  16.755   2.768
 2409W        W74834  42.029  42.880   9.461
 2410W        W74835  26.573  30.508   5.173
 2411W        W74836  43.957  36.400   0.433
 2412W        W74837  28.178   1.761  13.833
 2413W        W74838  17.767  33.996  11.477
 2414W        W74839  31.567  41.477   2.218
 2415W        W74840  12.729  29.480  14.990
 2416W        W74841   5.217  26.147   0.793
 2417W        W74842  27.447   9.883  12.381
 2418W        W74843  13.682  43.892  13.965
 2419W        W74844  22.997  38.373  12.570
 2420W        W74845  31.459   6.229   1.347
 2421W        W74846  42.877   2.345  12.475
 2422W        W74847   2.957  10.721   0.871
 2423W        W74848  21.626  25.178  13.347
 2424W        W74849  24.501  10.315   3.195
 2425W        W74850   3.322  25.030   3.798
 2426W        W74851  15.648  33.076  14.925
 2427W        W74852   7.750  30.519  11.557
 2428W        W74853  20.742  24.534   2.768
 2429W        W74854   9.258   6.790  11.553
 2430W        W74855  21.090  27.523  14.957
 2431W        W74856  15.254  22.723  10.957
 2432W        W74857  31.630  20.701  12.094
 2433W        W74858  38.025  19.159   0.442
 2434W        W74859  27.614  16.670  10.534
 2435W        W74860   6.770   6.409   2.226
 2436W        W74861  19.747   7.378   1.341
 2437W        W74862  23.672  28.012  14.921
 2438W        W74863   6.347   9.330   3.710
 2439W        W74864   5.719  40.463   2.811
 2440W        W74865  38.528  43.998   4.833
 2441W        W74866  38.556   5.331   0.372
 2442W        W74867   4.411  22.633  13.524
 2443W        W74868   9.222  26.487  14.393
 2444W        W74869  24.671  41.977  12.977
 2445W        W74870   4.864   2.910   3.353
 2446W        W74871   2.911  26.201  12.857
 2447W        W74872  42.834  27.032  12.540
 2448W        W74873  34.442   9.833  11.414
 2449W        W74874  41.504  12.196   4.599
 2450W        W74875   0.324  29.620  13.835
 2451W        W74876  40.890  34.433  10.548
 2452W        W74877   8.211  29.131   3.816
 2453W        W74878  10.674  33.452  10.414
 2454W        W74879  28.524  43.848   4.722
 2455W        W74880  39.551   7.187   3.287
 2456W        W74881  41.914   6.232   0.942
 2457W        W74882  19.763  32.960   1.221
 2458W        W74883   0.296  26.977  12.059
 2459W        W74884  26.062   3.880  11.097
 2460W        W74885   6.323   7.282  12.861
 2461W        W74886   8.899  41.388   2.319
 2462W        W74887  29.078  27.043  13.531
 2463W        W74888  18.189  43.772   3.195
 2464W        W74889  20.595  36.924   4.676
 2465W        W74890  21.553  25.119  11.533
 2466W        W74891  20.581  30.003   0.881
 2467W        W74892  34.416  24.194   3.187
 2468W        W74893   8.783  27.074   4.269
 2469W        W74894  11.805   4.853   4.249
 2470W        W74895   8.318  29.114   0.433
 2471W        W74896  42.033  34.083   1.404
 2472W        W74897   5.437  14.639  11.408
 2473W        W74898  43.858  36.051   1.218
 2474W        W74899   5.903  17.175  13.548
 2475W        W74900  35.379  39.476  13.945
 2476W        W74901  13.328  22.534  10.961
 2477W        W74902  18.547  31.977  11.081
 2478W        W74903  36.978   2.373  11.538
 2479W        W74904  30.128   2.963  11.121
 2480W        W74905  29.616  10.335  10.103
 2481W        W74906  17.071   4.269  10.899
 2482W        W74907  28.649   1.314  14.425
 2483W        W74908  32.430  31.484   2.179
 2484W        W74909   2.345  25.666   1.694
 2485W        W74910  38.047  27.005  14.825
 2486W        W74911  33.034  44.989   1.721
 2487W        W74912  28.559  41.505   2.382
 2488W        W74913  34.960  22.144  13.494
 2489W        W74914  20.573   2.821  11.423
 2490W        W74915   6.889  27.041  13.430
 2491W        W74916  29.014  37.456  10.975
 2492W        W74917  24.177  43.460  11.081
 2493W        W74918  15.665  10.314  10.546
 2494W        W74919  31.555   1.260   1.374
 2495W        W74920   6.308   4.931  11.094
 2496W        W74921  32.635   8.327  13.915
 2497W        W74922   8.251  24.563   0.441
 2498W        W74923  21.626  38.410  13.438
 2499W        W74924  21.093  28.602   0.271
 2500W        W74925  10.858  33.564  12.576
 2501W        W74926   4.270  15.650   2.373
 2502W        W74927  11.257   2.783  14.400
 2503W        W74928  35.537  10.156   0.769
 2504W        W74929   2.861   1.274  11.569
 2505W        W74930   2.848  33.071  13.323
 2506W        W74931  12.705  36.021  12.430
 2507W        W74932  40.851   0.762   1.297
 2508W        W74933  17.255  33.041  11.498
 2509W        W74934  33.923  22.131  13.795
 2510W        W74935  31.929  16.669   3.206
 2511W        W74936   3.831  15.096   1.706
 2512W        W74937  44.294  37.969  11.891
 2513W        W74938  20.608   7.729   0.803
 2514W        W74939  26.523  18.134   2.309
 2515W        W74940  19.080  43.375   1.920
 2516W        W74941  31.120  16.209   5.105
 2517W        W74942   5.205  23.528  13.363
 2518W        W74943  19.643   2.837  12.567
 2519W        W74944  33.543  33.595   5.170
 2520W        W74945   4.227  40.404   4.135
 2521W        W74946  21.111  17.071   2.677
 2522W        W74947  30.494   8.322   1.240
 2523W        W74948  31.927   7.376   0.954
 2524W        W74949  20.228  20.234   0.769
 2525W        W74950  14.178  20.545   1.842
 2526W        W74951  25.149  12.332  13.977
 2527W        W74952  15.593  16.663   1.279
 2528W        W74953  30.933  11.700  12.992
 2529W        W74954   3.270  37.841   4.313
 2530W        W74955  25.193  35.957  14.819
 2531W        W74956   0.742  37.076  14.336
 2532W        W74957  17.260  19.217  12.368
 2533W        W74958  32.117  15.767  11.072
 2534W        W74959  26.204  28.507   0.843
 2535W        W74960   0.322  13.757  14.985
 2536W        W74961   2.433   1.350   2.245
 2537W        W74962  35.560   7.842   2.770
 2538W        W74963  28.510  14.777  14.508
 2539W        W74964   8.188  17.223   2.363
 2540W        W74965  28.015   4.931  14.354
 2541W        W74966  17.301   0.861  12.542
 2542W        W74967  22.744  24.487   2.285
 2543W        W74968  37.556  23.222   4.321
 2544W        W74969  32.513  16.584  13.830
 2545W        W74970   4.862  39.363  10.579
 2546W        W74971  23.133  38.825  11.459
 2547W        W74972  41.395  31.930  13.948
 2548W        W74973  27.000  42.800  11.465
 2549W        W74974  31.475  32.558  10.641
 2550W        W74975  44.425  28.566   3.382
 2551W        W74976  22.085  40.347   2.852
 2552W        W74977  27.649   0.368   3.164
 2553W        W74978  22.114  41.990  12.473
 2554W        W74979  28.499  20.642   1.389
 2555W        W74980  20.678  16.079  14.394
 2556W        W74981  26.040  39.021   1.237
 2557W        W74982   3.733  31.470  13.014
 2558W        W74983  27.594  27.530  12.910
 2559W        W74984  35.504  29.015  11.378
 2560W        W74985  40.797   2.448   0.873
 2561W        W74986  20.768  30.422  14.295
 2562W        W74987  26.104   9.723  10.601
 2563W        W74988  41.986  23.543  13.315
 2564W        W74989  22.651  14.340  14.344
 2565W        W74990   0.490  20.609   2.752
 2566W        W74991  26.697  33.381   1.379
 2567W        W74992   8.238  29.564  14.858
 2568W        W74993  24.698  23.117   1.911
 2569W        W74994  38.368  43.912  12.064
 2570W        W74995   7.912   3.363  13.432
 2571W        W74996  10.152   1.405   2.376
 2572W        W74997  33.601   3.410   0.913
 2573W        W74998  22.669  42.930  14.031
 2574W        W74999  25.598  35.873  12.044
 2575W        W75000  42.481  30.413  11.045
 2576W        W75001  31.438   9.328   3.682
 2577W        W75002  12.754  29.456   1.748
 2578W        W75003  24.156   5.693   3.776
 2579W        W75004  31.542  33.916  14.393
 2580W        W75005  19.191   7.415  11.548
 2581W        W75006   4.271  28.115  11.067
 2582W        W75007  43.867   1.924  10.608
 2583W        W75008  10.687  23.596   3.719
 2584W        W75009  24.706   5.368   0.801
 2585W        W75010   8.698   4.436  14.429
 2586W        W75011   5.912  22.565  12.578
 2587W        W75012  24.507  15.764   4.675
 2588W        W75013   0.359  16.600   3.815
 2589W        W75014  26.669  37.459  13.856
 2590W        W75015  33.977  16.724  13.438
 2591W        W75016   4.331  26.556   2.675
 2592W        W75017  42.912  43.893  11.525
 2593W        W75018  36.395  26.015  13.848
 2594W        W75019  14.150   1.377  14.799
 2595W        W75020   1.454  42.824  12.511
 2596W        W75021  13.703  22.554  12.552
 2597W        W75022  18.740  33.499   2.338
 2598W        W75023   0.466  18.150   1.729
 2599W        W75024  12.268  14.220   3.839
 2600W        W75025  28.932  35.942  12.062
 2601W        W75026  20.607  41.814  11.493
 2602W        W75027   2.740  36.499  13.957
 2603W        W75028   3.953  43.288  12.832
 2604W        W75029  17.270  36.460  13.900
 2605W        W75030  41.971  15.645  11.884
 2606W        W75031  34.928  29.471   5.138
 2607W        W75032  16.266  34.575  11.952
 2608W        W75033   9.199  32.571  14.991
 2609W        W75034   3.300  30.433   4.236
 2610W        W75035  13.212  42.811   2.828
 2611W        W75036  39.393  26.034   0.295
 2612W        W75037  19.142  19.130  11.409
 2613W        W75038  36.058  25.582  11.493
 2614W        W75039  42.345  11.666  14.426
 2615W        W75040  32.503  34.014   1.443
 2616W        W75041  32.625  26.152   4.306
 2617W        W75042   5.293  24.088   3.273
 2618W        W75043  38.958   7.201   3.670
 2619W        W75044  35.995  13.760   0.875
 2620W        W75045  24.587  42.860  13.937
 2621W        W75046  40.865  37.513   3.176
 2622W        W75047   1.884  41.882  10.454
 2623W        W75048  10.708  23.540  14.763
 2624W        W75049   9.194  43.872   3.176
 2625W        W75050  44.765  27.128  12.475
 2626W        W75051  13.217  42.390  10.604
 2627W        W75052  29.465  14.709  13.482
 2628W        W75053  26.574  39.525   3.743
 2629W        W75054   5.891  36.977  10.508
 2630W        W75055  19.582  11.626   0.344
 2631W        W75056   7.388  18.785  13.426
 2632W        W75057  43.388  10.187  10.076
 2633W        W75058  41.509  36.898  13.938
 2634W        W75059  15.618  27.160   1.306
 2635W        W75060  41.330  21.061  10.641
 2636W        W75061  33.478  10.378   0.354
 2637W        W75062  17.236  23.690  12.903
 2638W        W75063  29.032  33.003  10.435
 2639W        W75064   4.879  25.713  14.930
 2640W        W75065  33.551   3.339   0.319
 2641W        W75066  38.990   0.880  13.794
 2642W        W75067  12.723  24.563   9.966
 2643W        W75068  20.271  11.805   4.715
 2644W        W75069  10.191   2.763  13.400
 2645W        W75070   8.186  29.922   4.768
 2646W        W75071  42.474  16.301   2.866
 2647W        W75072  39.340  35.473  11.069
 2648W        W75073   8.224  34.550   5.151
 2649W        W75074  14.290  23.142   4.352
 2650W        W75075  40.834  15.750  14.450
 2651W        W75076  37.582  27.105  10.977
 2652W        W75077   0.338  10.265  10.634
 2653W        W75078   9.150   0.821   1.444
 2654W        W75079  30.021  28.981   0.962
 2655W        W75080  22.570  23.988  13.307
 2656W        W75081   3.232  42.872   5.298
 2657W        W75082  28.015  19.744   5.251
 2658W        W75083  43.954  12.813   3.750
 2659W        W75084  24.171  26.053  11.104
 2660W        W75085   2.804  42.825   4.320
 2661W        W75086   4.806  23.059   4.631
 2662W        W75087  30.992  30.118  11.558
 2663W        W75088  38.898  28.626   0.766
 2664W        W75089  15.308  31.147  10.435
 2665W        W75090  14.701  23.121   3.805
 2666W        W75091  15.669  20.662  14.934
 2667W        W75092   2.360  18.641   3.821
 2668W        W75093  14.615  13.291   4.691
 2669W        W75094  15.229   3.369   0.265
 2670W        W75095   5.748  33.060   0.316
 2671W        W75096   0.882   0.445   3.352
 2672W        W75097  17.222  15.210  11.032
 2673W        W75098  20.524  38.380  11.031
 2674W        W75099  17.786  34.456   1.847
 2675W        W75100  22.589  19.219  13.498
 2676W        W75101  26.009  40.538  11.536
 2677W        W75102  44.766  39.535  11.391
 2678W        W75103   7.326  32.932  13.892
 2679W        W75104  39.342  26.690   0.357
 2680W        W75105   9.696  40.419   0.920
 2681W        W75106  39.534  39.501  14.507
 2682W        W75107  14.715  33.996   2.874
 2683W        W75108  27.062  27.083  12.997
 2684W        W75109  17.559  33.527   4.667
 2685W        W75110  40.358  33.118  14.284
 2686W        W75111  14.704  16.136   4.216
 2687W        W75112  23.178   7.808  13.948
 2688W        W75113  43.921   0.814  11.882
 2689W        W75114  31.427  29.546   3.770
 2690W        W75115  26.989  24.987  10.958
 2691W        W75116  11.326  24.662  12.435
 2692W        W75117  35.449  44.980  11.086
 2693W        W75118  28.101  26.482  13.874
 2694W        W75119  26.954   3.826  11.469
 2695W        W75120  15.741  17.646   4.305
 2696W        W75121  37.444  25.099  12.459
 2697W        W75122   4.280  41.394  10.448
 2698W        W75123  14.232   2.294   0.305
 2699W        W75124  10.797  26.591  13.867
 2700W        W75125  36.074  11.200   4.146
 2701W        W75126   6.244  43.799  10.458
 2702W        W75127  41.381  12.343  10.914
 2703W        W75128  13.293  32.560  10.992
 2704W        W75129   9.727   4.851  14.318
 2705W        W75130  39.327  41.864  11.462
 2706W        W75131  17.281  42.311  14.925
 2707W        W75132  19.644  13.243   2.706
 2708W        W75133  42.361  39.338  12.053
 2709W        W75134  34.947  31.548   1.337
 2710W        W75135  25.203   9.367   2.795
 2711W        W75136  18.079   9.812   1.847
 2712W        W75137  16.192   1.903  11.095
 2713W        W75138   7.180  28.067  14.443
 2714W        W75139   7.263  17.105   0.304
 2715W        W75140  11.264   4.253   0.484
 2716W        W75141  17.793  17.116   1.808
 2717W        W75142   4.419  13.660   2.388
 2718W        W75143  14.160  15.758   3.213
 2719W        W75144  40.448  29.440   3.740
 2720W        W75145   0.867  13.130   0.280
 2721W        W75146  41.808   2.293  12.418
 2722W        W75147  42.775  29.496   0.952
 2723W        W75148  12.144  12.752   0.381
 2724W        W75149  29.440  25.159  13.443
 2725W        W75150   7.323  12.262   2.393
 2726W        W75151   3.281  10.682  11.529
 2727W        W75152  39.516  11.685   3.777
 2728W        W75153   1.913  20.620  11.502
 2729W        W75154  37.878  26.048  13.829
 2730W        W75155  14.118  28.476   0.436
 2731W        W75156  13.600  24.643   3.694
 2732W        W75157  44.459   7.683   1.867
 2733W        W75158   2.958  36.867   0.858
 2734W        W75159  16.235  17.631  11.891
 2735W        W75160  29.640  16.228  12.567
 2736W        W75161  25.089  43.418  11.868
 2737W        W75162  36.052   6.897   1.275
 2738W        W75163  39.362  22.205  10.976
 2739W        W75164  16.215  28.079  13.009
 2740W        W75165  33.123  18.599   2.410
 2741W        W75166  20.133  43.343  13.011
 2742W        W75167  22.637  19.045   4.826
 2743W        W75168  42.486  33.061   1.330
 2744W        W75169   7.348  20.220   0.797
 2745W        W75170  42.289  26.629  13.026
 2746W        W75171  31.102  10.740  13.472
 2747W        W75172   4.721   8.869   4.625
 2748W        W75173  27.967  39.815  14.996
 2749W        W75174   8.813   6.695  10.581
 2750W        W75175  31.957  18.614   4.332
 2751W        W75176  12.168  24.512  12.929
 2752W        W75177  31.474  18.763  11.113
 2753W        W75178   3.221   6.334  13.858
 2754W        W75179  19.567  15.290  13.958
 2755W        W75180   6.903  31.956  10.929
 2756W        W75181  18.176  10.780   4.179
 2757W        W75182  17.102  39.031   0.904
 2758W        W75183  15.626  28.018   0.840
 2759W        W75184  11.679  35.365  10.514
 2760W        W75185  24.629  27.013  11.876
 2761W        W75186   7.857  34.471  14.484
 2762W        W75187  31.932  31.485  11.099
 2763W        W75188  26.112  43.939   2.743
 2764W        W75189  19.740   8.304   3.293
 2765W        W75190  12.846  40.405   2.183
 2766W        W75191  34.866  14.754   0.839
 2767W        W75192  43.390  36.512   0.819
 2768W        W75193  35.438   6.363  11.874
 2769W        W75194  24.511  39.507   4.337
 2770W        W75195   4.921   9.353  10.447
 2771W        W75196  25.181   6.740   2.691
 2772W        W75197  23.995  28.595  12.923
 2773W        W75198  12.232  37.463  14.425
 2774W        W75199  26.134  35.576  12.061
 2775W        W75200  30.648  11.689   0.925
 2776W        W75201   8.767  43.768   3.676
 2777W        W75202  11.765  44.997  14.008
 2778W        W75203  16.676  36.085   2.854
 2779W        W75204  20.099   9.190  13.011
 2780W        W75205  21.205   2.963  12.491
 2781W        W75206  41.832  42.490   4.152
 2782W        W75207  38.547  25.965   3.387
 2783W        W75208  30.918   1.452  14.888
 2784W        W75209  25.133   3.406  12.398
 2785W        W75210  10.282   4.920   0.307
 2786W        W75211  28.102  38.933   3.717
 2787W        W75212   5.747  36.895  13.056
 2788W        W75213  16.801  32.492   3.383
 2789W        W75214  27.689   3.291  14.991
 2790W        W75215  27.517  19.269   0.259
 2791W        W75216   0.932  31.552   4.214
 2792W        W75217   5.419  41.977  13.523
 2793W        W75218  36.954  39.461  11.959
 2794W        W75219  14.755  15.169  13.513
 2795W        W75220  10.704   8.876   3.244
 2796W        W75221  17.781   2.362   2.789
 2797W        W75222  22.093  23.516   0.314
 2798W        W75223  11.671  40.816   0.254
 2799W        W75224  44.491  15.286   1.932
 2800W        W75225   3.399  34.468   0.735
 2801W        W75226  39.438  20.613   4.269
 2802W        W75227  32.003  11.679  13.997
 2803W        W75228  24.639   1.424  11.479
 2804W        W75229  30.933  43.372   0.422
 2805W        W75230  16.279  17.156   1.710
 2806W        W75231  26.609  10.251  10.968
 2807W        W75232  11.721   4.253  12.509
 2808W        W75233  40.497   7.385  10.133
 2809W        W75234  10.864  18.164   2.733
 2810W        W75235  32.075  42.378   4.728
 2811W        W75236   1.751   9.325  12.839
 2812W        W75237  37.057  15.721  13.526
 2813W        W75238   0.813   0.824  14.030
 2814W        W75239  36.408  31.934   9.937
 2815W        W75240  10.213  21.234  10.426
 2816W        W75241  19.269  24.673  14.454
 2817W        W75242  21.634  23.226  14.016
 2818W        W75243  33.107  32.116   3.870
 2819W        W75244  30.163  41.457   3.311
 2820W        W75245   2.867   1.341  12.001
 2821W        W75246  33.549  20.097  10.477
 2822W        W75247  38.073   9.172  11.431
 2823W        W75248  33.444  25.157  14.952
 2824W        W75249  15.712  16.178  11.858
 2825W        W75250  41.382  12.711  12.962
 2826W        W75251  37.900  16.593  12.847
 2827W        W75252  25.185   9.649   4.607
 2828W        W75253   6.208  42.506   2.695
 2829W        W75254  42.851  15.107  11.024
 2830W        W75255  18.291  41.423  12.468
 2831W        W75256  12.215   5.695   0.281
 2832W        W75257   8.691  23.629  13.893
 2833W        W75258  14.649  18.237  13.053
 2834W        W75259  36.392  29.503  14.338
 2835W        W75260  17.082   0.437   4.261
 2836W        W75261   5.845  14.821  11.033
 2837W        W75262  39.828  16.673   4.628
 2838W        W75263  12.255  41.404   3.742
 2839W        W75264  16.574  35.569   3.387
 2840W        W75265  16.170   3.842  14.455
 2841W        W75266  17.088  34.952   3.844
 2842W        W75267  37.887   2.916   1.729
 2843W        W75268  43.941  18.546   1.225
 2844W        W75269  31.425  23.508   0.844
 2845W        W75270  29.109  35.064   4.192
 2846W        W75271  19.546  38.940  12.893
 2847W        W75272  21.521  22.598   1.794
 2848W        W75273   0.916   6.207  14.411
 2849W        W75274  27.579  24.210   2.261
 2850W        W75275  38.564  22.728   2.821
 2851W        W75276  30.513  15.085   0.779
 2852W        W75277  41.926  20.552  13.875
 2853W        W75278  26.177  23.559  13.904
 2854W        W75279  23.016   4.936   9.922
 2855W        W75280  23.516  20.208  14.492
 2856W        W75281  41.383  40.836  10.942
 2857W        W75282  28.668  18.580   3.720
 2858W        W75283  44.934  22.689   3.261
 2859W        W75284   6.826  39.818  12.356
 2860W        W75285  20.193  23.545  14.427
 2861W        W75286  14.275  14.626   3.147
 2862W        W75287  41.040  26.610   0.350
 2863W        W75288   1.929  37.036  11.983
 2864W        W75289   2.324  40.890   4.764
 2865W        W75290  44.475   1.751  13.007
 2866W        W75291  40.428  36.509  12.027
 2867W        W75292  17.179   2.309  13.023
 2868W        W75293  24.159  38.023  10.645
 2869W        W75294   1.303  24.566  12.897
 2870W        W75295   5.907   7.318  12.047
 2871W        W75296  42.307   0.765  12.506
 2872W        W75297  12.757  21.208   4.202
 2873W        W75298  21.603  19.096   3.336
 2874W        W75299   2.287   6.726   3.630
 2875W        W75300  36.573   4.829  13.999
 2876W        W75301  44.895  22.566  14.983
 2877W        W75302  27.502  26.120  12.477
 2878W        W75303   9.758  23.555  10.891
 2879W        W75304  36.389  27.631   3.674
 2880W        W75305  18.633  18.636  11.610
 2881W        W75306  17.135  12.157   0.322
 2882W        W75307  40.524  10.761   3.857
 2883W        W75308  34.378  42.346   3.350
 2884W        W75309  14.222  39.876  12.031
 2885W        W75310  26.040  43.783  11.889
 2886W        W75311  14.704   9.221   2.872
 2887W        W75312  21.101   9.657   1.816
 2888W        W75313  29.617  17.627  11.875
 2889W        W75314  14.767  19.693   3.266
 2890W        W75315  20.057   8.368   0.250
 2891W        W75316  44.909   3.809   1.409
 2892W        W75317  12.235   1.281   1.797
 2893W        W75318  31.565  16.152   4.339
 2894W        W75319   5.318  43.906  12.945
 2895W        W75320  41.350  14.718  14.953
 2896W        W75321  11.731  25.167   2.258
 2897W        W75322  40.045  17.208   4.683
 2898W        W75323  27.535  44.989  14.021
 2899W        W75324  13.818   6.728  13.977
 2900W        W75325  35.993   4.735   4.206
 2901W        W75326   4.752  39.560   1.389
 2902W        W75327  26.649  19.723   3.333
 2903W        W75328  36.958  37.406   1.763
 2904W        W75329  42.904  43.911   2.817
 2905W        W75330   7.903  17.075  13.946
 2906W        W75331  32.982  27.078   3.364
 2907W        W75332  44.394   7.227   4.767
 2908W        W75333  30.128   2.921  12.045
 2909W        W75334  19.197  36.438   2.751
 2910W        W75335  35.936  34.496  14.466
 2911W        W75336  41.311  11.732  11.126
 2912W        W75337  41.354  10.338  14.297
 2913W        W75338  42.968  11.316   1.274
 2914W        W75339  15.732   7.753   2.277
 2915W        W75340  19.669  20.680  14.961
 2916W        W75341   4.438  10.275  13.928
 2917W        W75342   6.855  37.486   2.326
 2918W        W75343  41.393  32.994  11.510
 2919W        W75344  12.636  21.069  10.616
 2920W        W75345   1.922  25.495  10.485
 2921W        W75346  40.025  16.569  13.888
 2922W        W75347  26.986  40.470  12.928
 2923W        W75348  16.766  11.741   1.804
 2924W        W75349  20.676  37.554  11.386
 2925W        W75350  30.619  33.087   0.332
 2926W        W75351   4.875  32.920   3.177
 2927W        W75352  19.595  27.068  12.058
 2928W        W75353  37.524  34.582  12.927
 2929W        W75354  35.925  21.241  10.437
 2930W        W75355   6.766  43.998  11.577
 2931W        W75356  37.423   8.215  11.958
 2932W        W75357  18.107   6.808   2.723
 2933W        W75358  40.475  43.304  13.523
 2934W        W75359  34.536  15.655  13.014
 2935W        W75360   3.403  13.840   0.375
 2936W        W75361  21.237  40.409  12.387
 2937W        W75362  31.978   6.898  10.469
 2938W        W75363  24.485  27.656   2.719
 2939W        W75364  33.094  29.506   0.732
 2940W        W75365  36.370  16.740   2.812
 2941W        W75366   6.383  44.503  14.803
 2942W        W75367   6.339   2.383  14.343
 2943W        W75368  19.216  33.571  10.456
 2944W        W75369   4.863   4.784  12.912
 2945W        W75370   8.846  36.090   1.695
 2946W        W75371  37.950   8.238  11.402
 2947W        W75372  43.910  29.166   1.302
 2948W        W75373   1.916  31.922   5.156
 2949W        W75374  11.755   5.370  13.356
 2950W        W75375  32.904  38.479  14.498
 2951W        W75376  15.638   3.411  10.932
 2952W        W75377  41.359  33.569  12.575
 2953W        W75378   8.406   0.969  11.956
 2954W        W75379  20.764  39.933   0.479
 2955W        W75380  24.488  18.596  13.523
 2956W        W75381  10.821   9.371   4.637
 2957W        W75382  23.224  39.506  13.946
 2958W        W75383  18.681  41.909   4.735
 2959W        W75384  25.119  44.768   1.857
 2960W        W75385   4.943  31.007  11.484
 2961W        W75386   1.247  33.573  14.826
 2962W        W75387   2.318  23.120   3.168
 2963W        W75388  40.539  44.345   0.830
 2964W        W75389  20.244  13.731  14.473
 2965W        W75390  17.800  17.602  11.482
 2966W        W75391  20.101  32.979   1.898
 2967W        W75392  27.564  29.663  12.373
 2968W        W75393  23.085  22.124   1.792
 2969W        W75394   6.189  32.522   1.310
 2970W        W75395  11.716  34.060  11.989
 2971W        W75396   7.356  29.563  13.810
 2972W        W75397  23.661   1.433  10.964
 2973W        W75398   5.213   7.209  11.423
 2974W        W75399  11.266  20.732  10.570
 2975W        W75400  29.527  18.711   4.131
 2976W        W75401  40.833  23.644   3.202
 2977W        W75402  26.621  28.439  13.369
 2978W        W75403  21.654  23.500  12.040
 2979W        W75404  41.968  39.472  10.888
 2980W        W75405  15.187  19.188  13.875
 2981W        W75406   1.783   0.789  12.998
 2982W        W75407  32.550  18.617  11.091
 2983W        W75408  20.607  37.888  12.900
 2984W        W75409  28.171  14.782   3.344
 2985W        W75410  24.145  38.328  11.043
 2986W        W75411  37.874   3.407  12.878
 2987W        W75412  21.613  38.015  14.843
 2988W        W75413  15.747   9.889  14.935
 2989W        W75414  19.232  14.128  14.929
 2990W        W75415  24.723  20.194   3.246
 2991W        W75416  30.538  35.025  13.866
 2992W        W75417   9.698  10.289   0.479
 2993W        W75418  28.173  15.693  11.040
 2994W        W75419  37.855   9.798   0.266
 2995W        W75420   5.837  17.262   1.846
 2996W        W75421  26.593  28.627   4.308
 2997W        W75422  38.448  20.157   1.379
 2998W        W75423  24.714   1.470   1.855
 2999W        W75424   2.900  18.153  12.831
 3000W        W75425  24.211   9.301  14.831
 3001W        W75426   6.343   8.687  12.862
 3002W        W75427  38.477  28.569   0.481
 3003W        W75428  31.574  22.712   1.381
 3004W        W75429  21.039   6.218  10.906
 3005W        W75430  22.643  41.315  10.481
 3006W        W75431  28.581   0.920  14.924
 3007W        W75432  14.677  18.129   1.272
 3008W        W75433   5.932  19.571   1.916
 3009W        W75434  25.611  37.838   0.951
 3010W        W75435   9.376   0.832  12.908
 3011W        W75436  43.334  11.724   3.225
 3012W        W75437  25.472  42.525  13.956
 3013W        W75438  11.645  38.830  11.547
 3014W        W75439  40.327  43.334   4.778
 3015W        W75440  15.139   0.769  11.457
 3016W        W75441  23.013  20.681   1.727
 3017W        W75442  26.505  38.466   2.311
 3018W        W75443  16.134   4.278   4.687
 3019W        W75444   7.871  43.891   1.427
 3020W        W75445   6.856  38.959  13.939
 3021W        W75446  21.637   5.886  10.465
 3022W        W75447  39.343  34.956  10.530
 3023W        W75448   6.250   2.850  12.987
 3024W        W75449  15.158  18.250   0.477
 3025W        W75450  38.061  24.216   1.921
 3026W        W75451   6.756  25.018   4.258
 3027W        W75452  23.193  43.016  10.918
 3028W        W75453  21.058  36.593  14.973
 3029W        W75454  28.620  12.780  14.294
 3030W        W75455   8.759   4.942  13.324
 3031W        W75456  19.057  26.164   2.852
 3032W        W75457  43.511  12.611  14.284
 3033W        W75458  33.601  37.991  14.283
 3034W        W75459  21.675   9.245  12.485
 3035W        W75460  17.276   3.934   4.740
 3036W        W75461  32.482  43.931  11.475
 3037W        W75462   0.821   8.314  11.429
 3038W        W75463   5.216  15.205   0.887
 3039W        W75464  30.978   9.185   0.767
 3040W        W75465  36.487  32.024  12.519
 3041W        W75466  20.637  35.571  13.811
 3042W        W75467  24.553  25.538  14.419
 3043W        W75468  38.485  17.592  13.885
 3044W        W75469   4.407   8.170   4.652
 3045W        W75470  14.624  33.485  11.100
 3046W        W75471   1.826  43.422  14.911
 3047W        W75472  27.024  18.075   1.827
 3048W        W75473  33.058  15.621  12.527
 3049W        W75474  37.471  18.223  12.030
 3050W        W75475  13.230  40.812   1.843
 3051W        W75476  22.093  19.098   1.823
 3052W        W75477  14.663  32.601  12.848
 3053W        W75478   6.832  26.695   4.296
 3054W        W75479  37.931   6.802   1.913
 3055W        W75480  38.371  17.781   2.361
 3056W        W75481   8.714  37.926  13.015
 3057W        W75482  19.251   8.311  11.072
 3058W        W75483  21.250  30.967   0.308
 3059W        W75484  11.330  16.637   1.405
 3060W        W75485  19.056   0.456  12.962
 3061W        W75486  22.088  35.931  10.464
 3062W        W75487  34.418  23.529   1.713
 3063W        W75488  44.913  27.514  10.423
 3064W        W75489   1.364  44.387  13.869
 3065W        W75490   8.270   8.864   5.087
 3066W        W75491  23.582  12.186  11.084
 3067W        W75492  23.047  34.031  12.966
 3068W        W75493  29.628  31.449   2.389
 3069W        W75494   3.319   6.811  12.959
 3070W        W75495   7.373  36.023   4.354
 3071W        W75496   1.781  15.199  13.019
 3072W        W75497  24.037   2.383   3.173
 3073W        W75498   9.848  30.655   2.249
 3074W        W75499  25.093  28.586   1.774
 3075W        W75500  44.793  33.971  11.067
 3076W        W75501  22.708  26.132   0.948
 3077W        W75502  13.209  24.617  14.283
 3078W        W75503  22.556   1.327  11.109
 3079W        W75504  12.736  10.844  11.420
 3080W        W75505  28.497  27.671   1.849
 3081W        W75506  43.858  18.157  10.643
 3082W        W75507   4.906  28.080  11.506
 3083W        W75508   2.909  12.348   4.690
 3084W        W75509  41.522  24.715   4.655
 3085W        W75510  12.640  38.410  14.380
 3086W        W75511   4.283  37.449  11.907
 3087W        W75512  28.455  30.657  12.430
 3088W        W75513  38.563   8.344   0.770
 3089W        W75514  36.026  20.161   0.262
 3090W        W75515  10.339  42.995  11.983
 3091W        W75516   7.802  24.036   1.338
 3092W        W75517  28.483   9.659   0.966
 3093W        W75518  36.494  25.668   0.342
 3094W        W75519   1.311  15.292   2.391
 3095W        W75520  18.736  22.108  14.843
 3096W        W75521  41.987  13.293   1.334
 3097W        W75522   1.302  41.846   1.762
 3098W        W75523  35.526   0.489   0.950
 3099W        W75524   9.246  30.153  14.960
 3100W        W75525  22.246  16.683   2.875
 3101W        W75526  23.634  34.021   1.359
 3102W        W75527  13.804  36.469   4.236
 3103W        W75528  29.605  40.925  13.873
 3104W        W75529  30.545  30.426   4.701
 3105W        W75530  39.527  37.399   3.859
 3106W        W75531  21.724  38.520   4.116
 3107W        W75532   1.366  32.108  11.540
 3108W        W75533  24.118  27.594   4.265
 3109W        W75534  31.068  44.770   2.355
 3110W        W75535  15.689  21.685   4.706
 3111W        W75536  30.101  33.042  14.314
 3112W        W75537  25.973  19.066  10.996
 3113W        W75538  30.415  14.663   3.284
 3114W        W75539  15.090  22.627  13.816
 3115W        W75540   6.209  28.477  14.887
 3116W        W75541  28.508  33.968   3.379
 3117W        W75542  34.483   4.857  13.333
 3118W        W75543  44.807   2.247  11.498
 3119W        W75544   5.353   6.198  13.453
 3120W        W75545  23.101   9.276   2.292
 3121W        W75546  29.062  33.106   3.169
 3122W        W75547  14.321   4.212  11.874
 3123W        W75548   3.731   6.758   2.416
 3124W        W75549  34.381  10.247  12.508
 3125W        W75550  12.685  11.695   4.155
 3126W        W75551  29.535   9.258  10.917
 3127W        W75552  40.885  38.839   1.248
 3128W        W75553  41.464  24.504   4.294
 3129W        W75554  22.542  10.709   9.504
 3130W        W75555   4.410  43.436   0.746
 3131W        W75556  21.532  33.098  10.467
 3132W        W75557  21.609  35.494  12.454
 3133W        W75558  35.036   3.238  10.154
 3134W        W75559  41.000  19.604   3.383
 3135W        W75560   2.314  23.727   1.315
 3136W        W75561  10.278  10.273   2.334
 3137W        W75562  37.914  36.910  11.518
 3138W        W75563  11.748  22.710  14.981
 3139W        W75564  34.570  36.875  12.978
 3140W        W75565  19.704  34.993   3.361
 3141W        W75566  33.011  29.554  14.949
 3142W        W75567  27.177  42.882  10.972
 3143W        W75568  14.625  22.018   2.190
 3144W        W75569  21.733  33.056   2.275
 3145W        W75570   1.752  38.479  12.379
 3146W        W75571  34.954  13.280   1.354
 3147W        W75572  31.988  38.546  13.331
 3148W        W75573  42.480  44.971   3.652
 3149W        W75574  18.688  44.987   1.328
 3150W        W75575  44.809  44.320  13.434
 3151W        W75576  30.535  32.440  10.585
 3152W        W75577  42.524  17.801  13.907
 3153W        W75578  18.733  27.532   4.672
 3154W        W75579  18.210  24.973  10.406
 3155W        W75580  15.633  41.796  13.794
 3156W        W75581  13.148  23.991  12.874
 3157W        W75582  22.525   8.770   4.293
 3158W        W75583  17.797   7.210  12.827
 3159W        W75584  24.017  15.132  14.774
 3160W        W75585  25.705  21.578   0.739
 3161W        W75586  11.219   3.233  13.994
 3162W        W75587  14.601  33.567   1.246
 3163W        W75588   2.282  29.971   1.790
 3164W        W75589  36.020  25.566  10.054
 3165W        W75590  40.975   8.256  12.885
 3166W        W75591  27.955  20.250   1.749
 3167W        W75592  23.242  32.564  10.521
 3168W        W75593  44.877  25.542  11.902
 3169W        W75594  21.165  30.645  14.895
 3170W        W75595  33.007  18.177  14.023
 3171W        W75596  10.184  27.942  11.553
 3172W        W75597  18.068  25.119   2.396
 3173W        W75598  29.014  41.409   0.909
 3174W        W75599   3.296  34.073   0.408
 3175W        W75600  10.852  15.642  10.591
 3176W        W75601  16.745  37.488  12.457
 3177W        W75602  43.469  29.595  13.846
 3178W        W75603   1.472  14.188  12.579
 3179W        W75604  26.694  11.794  10.529
 3180W        W75605  25.087  40.446   0.283
 3181W        W75606  11.164  24.643  10.572
 3182W        W75607  29.585   6.385  10.046
 3183W        W75608  35.006  24.196  10.015
 3184W        W75609  16.107   3.786   3.330
 3185W        W75610  36.950  43.461  10.897
 3186W        W75611  11.712  27.061   0.935
 3187W        W75612  40.053   9.884   0.423
 3188W        W75613  34.561  26.200   2.775
 3189W        W75614  33.110  29.136   1.787
 3190W        W75615  42.875  24.182  13.971
 3191W        W75616  15.184  14.772  14.361
 3192W        W75617  22.060   0.427   2.768
 3193W        W75618  39.898  42.843   3.373
 3194W        W75619  19.197  11.282  12.350
 3195W        W75620  44.864  32.906   1.746
 3196W        W75621  37.397  15.123   2.781
 3197W        W75622  15.675  10.158   4.801
 3198W        W75623   4.902   7.394  14.290
 3199W        W75624   6.705  11.788  10.532
 3200W        W75625  26.667   2.875  13.934
 3201W        W75626  17.578  25.559   1.439
 3202W        W75627  28.581  30.451  13.466
 3203W        W75628   4.943  31.434  11.492
 3204W        W75629  41.301   9.227   1.776
 3205W        W75630  19.240  10.756   2.882
 3206W        W75631  38.895  25.629   3.244
 3207W        W75632  29.970  13.625   3.775
 3208W        W75633  16.706   3.335   3.718
 3209W        W75634   9.731  27.482  13.431
 3210W        W75635  20.038  26.983   0.435
 3211W        W75636  32.896  15.245  14.865
 3212W        W75637   2.776  19.283  12.064
 3213W        W75638  19.682  21.640  14.788
 3214W        W75639  40.473  29.516  12.371
 3215W        W75640  37.031  18.246  10.527
 3216W        W75641  24.501  38.982  11.088
 3217W        W75642  11.224   5.375  10.896
 3218W        W75643  35.948   4.380  13.029
 3219W        W75644  16.737  39.480   1.932
 3220W        W75645  10.205  36.956  12.461
 3221W        W75646   6.745  18.639  12.486
 3222W        W75647  37.855  21.261  12.498
 3223W        W75648  41.504  22.685   2.773
 3224W        W75649  31.563  16.773  14.512
 3225W        W75650  44.906   3.437  11.896
 3226W        W75651  32.515  30.945   3.822
 3227W        W75652   6.278  10.869  10.643
 3228W        W75653  23.665   1.301   0.938
 3229W        W75654  28.125  15.251  13.424
 3230W        W75655  23.635  34.906  14.797
 3231W        W75656   7.875  38.888   4.625
 3232W        W75657   9.215  33.509  14.353
 3233W        W75658   7.241  18.292  14.031
 3234W        W75659  30.636  25.092  11.879
 3235W        W75660  14.265   6.198   5.267
 3236W        W75661   3.322  40.007   2.894
 3237W        W75662  16.682  43.476   1.354
 3238W        W75663  37.848  44.373   0.955
 3239W        W75664   7.846   9.163  14.318
 3240W        W75665  37.352  17.790  12.010
 3241W        W75666  24.981   1.266  13.396
 3242W        W75667  20.093  35.092   3.635
 3243W        W75668  30.914   1.315   0.263
 3244W        W75669  37.506  20.125  12.015
 3245W        W75670  18.777   8.853  12.962
 3246W        W75671  24.642  20.531   0.849
 3247W        W75672  40.536  44.474  12.415
 3248W        W75673  25.193   6.795   2.279
 3249W        W75674  40.548   7.389   0.264
 3250W        W75675  32.542  30.161   3.777
 3251W        W75676  19.119  40.528  10.575
 3252W        W75677  38.829  38.560  11.105
 3253W        W75678  26.627  21.146   2.854
 3254W        W75679  12.243  36.523  14.485
 3255W        W75680  33.470  37.963   4.767
 3256W        W75681   9.219   9.156   9.608
 3257W        W75682  19.541   2.434   0.315
 3258W        W75683  11.667  38.555   1.320
 3259W        W75684  27.109  33.420  11.915
 3260W        W75685  35.967  29.578   4.347
 3261W        W75686   8.849  21.646   4.812
 3262W        W75687  18.599  16.256   4.171
 3263W        W75688  21.028  13.728   5.316
 3264W        W75689  43.997  10.635   2.756
 3265W        W75690   4.837  12.703   2.336
 3266W        W75691  18.745  34.096   3.805
 3267W        W75692  44.907  29.087  14.777
 3268W        W75693  31.960  37.542  13.011
 3269W        W75694  16.254   3.748   2.700
 3270W        W75695  38.961  10.828   0.450
 3271W        W75696  27.513  16.247  14.292
 3272W        W75697  14.287  17.698   0.281
 3273W        W75698  22.682  26.198  13.838
 3274W        W75699  28.441   0.298  12.424
 3275W        W75700  20.261  32.002  12.914
 3276W        W75701  38.403  14.626  12.377
 3277W        W75702  26.612  33.126   0.932
 3278W        W75703  44.366  24.138   4.315
 3279W        W75704  39.383  21.586  13.505
 3280W        W75705   8.655  34.595   3.306
 3281W        W75706  21.619  24.990   3.846
 3282W        W75707  27.608  39.522  14.408
 3283W        W75708  35.941  42.980  12.977
 3284W        W75709  39.559  12.297   0.777
 3285W        W75710  13.627  14.668   4.349
 3286W        W75711  30.987  25.154   1.831
 3287W        W75712  23.010   3.252  10.513
 3288W        W75713  29.445  41.520   0.911
 3289W        W75714  32.399  40.519   0.771
 3290W        W75715  20.180  19.226   1.271
 3291W        W75716  28.987  43.466  14.305
 3292W        W75717  15.623  14.159   4.794
 3293W        W75718  38.905  21.547  14.959
 3294W        W75719  32.553  20.105   0.467
 3295W        W75720  21.055   8.226   1.749
 3296W        W75721   9.876  40.044   4.257
 3297W        W75722  41.458   3.315  13.382
 3298W        W75723  19.605  22.251  14.404
 3299W        W75724   3.333  20.272  11.912
 3300W        W75725  22.144   8.388  12.075
 3301W        W75726  16.156  23.579   3.655
 3302W        W75727  27.012  43.964  11.525
 3303W        W75728  22.219  16.578  12.861
 3304W        W75729  20.062  25.598  12.015
 3305W        W75730  18.081   3.383  11.477
 3306W        W75731  18.650  37.061  12.054
 3307W        W75732   0.774  34.017   4.777
 3308W        W75733  35.854  10.700  14.845
 3309W        W75734  22.541  21.545  11.006
 3310W        W75735  14.601  26.680  14.357
 3311W        W75736  42.404  27.137  12.503
 3312W        W75737  35.460  13.187   2.297
 3313W        W75738  24.618  19.598  14.291
 3314W        W75739  38.369  29.142  14.780
 3315W        W75740  32.617  13.302  13.364
 3316W        W75741  20.253  43.339   4.323
 3317W        W75742  41.364  43.991  13.533
 3318W        W75743  33.902  22.178   4.797
 3319W        W75744  18.255  31.635   1.260
 3320W        W75745  39.332   7.779   3.787
 3321W        W75746  40.532  17.629  13.898
 3322W        W75747  12.660  33.090  10.931
 3323W        W75748   9.738   1.330  14.916
 3324W        W75749  33.415  22.073   0.926
 3325W        W75750  16.629  11.743  10.993
 3326W        W75751  42.925  29.152  11.123
 3327W        W75752  28.467  35.962  11.070
 3328W        W75753  29.024  33.030   5.572
 3329W        W75754  39.392  36.552   3.810
 3330W        W75755  10.193  16.608  11.600
 3331W        W75756  21.249  19.653  12.564
 3332W        W75757  39.550  27.133  11.103
 3333W        W75758  11.651  14.714   4.656
 3334W        W75759  30.947  29.927  14.790
 3335W        W75760  18.564  21.643  12.064
 3336W        W75761   5.214  43.489  12.031
 3337W        W75762   2.757   1.320   3.724
 3338W        W75763  34.110  20.712  11.960
 3339W        W75764  33.453  30.094  14.863
 3340W        W75765   2.349  34.442   1.386
 3341W        W75766  27.658  41.337  12.378
 3342W        W75767  19.122  42.950  12.045
 3343W        W75768   2.752  36.863   3.847
 3344W        W75769   1.471  15.768  13.519
 3345W        W75770  40.986  35.861   0.831
 3346W        W75771   6.726  14.277   5.089
 3347W        W75772  18.111  12.684  11.406
 3348W        W75773   1.428  12.343  12.027
 3349W        W75774  10.343  42.357   1.817
 3350W        W75775  18.786  27.196  12.495
 3351W        W75776  35.447  19.138  11.932
 3352W        W75777  37.030  16.186  11.880
 3353W        W75778   1.355  43.946  11.972
 3354W        W75779   0.878  25.696   4.728
 3355W        W75780  22.192  20.593   2.216
 3356W        W75781  29.531  12.786   0.757
 3357W        W75782  11.769  40.534   2.380
 3358W        W75783   9.644  38.524  13.374
 3359W        W75784  18.730  39.809   2.357
 3360W        W75785  15.690  21.186   3.725
 3361W        W75786  34.381   2.327   3.840
 3362W        W75787  40.946  16.088  10.905
 3363W        W75788  30.435  25.212   0.318
 3364W        W75789  25.646  31.045  12.520
 3365W        W75790   4.884  19.580   1.353
 3366W        W75791  16.276   4.284  12.351
 3367W        W75792  32.009  33.518   3.352
 3368W        W75793   4.293  15.613  12.080
 3369W        W75794  33.015  12.846   3.835
 3370W        W75795   1.352  43.776  13.362
 3371W        W75796   6.409  37.409  14.425
 3372W        W75797  40.923  39.377  13.852
 3373W        W75798  23.638  43.810  12.511
 3374W        W75799  36.347  38.373   3.230
 3375W        W75800  17.118   3.317   0.328
 3376W        W75801  40.910  39.930   0.819
 3377W        W75802   6.844  14.769   2.328
 3378W        W75803  17.070   9.708   3.760
 3379W        W75804   9.690  23.122   4.178
 3380W        W75805  30.071   9.748   3.170
 3381W        W75806  38.558   0.270   4.814
 3382W        W75807  31.048   3.396  14.317
 3383W        W75808   4.814  37.851   1.308
 3384W        W75809   1.741  27.104  13.849
 3385W        W75810  29.660  11.248   3.706
 3386W        W75811  31.086   3.881  12.076
 3387W        W75812  44.487  11.168  11.934
 3388W        W75813  33.491  34.522  10.501
 3389W        W75814  21.200   5.310   2.387
 3390W        W75815  16.661  16.724  14.941
 3391W        W75816  31.536  22.590  10.964
 3392W        W75817  14.317  34.099   0.896
 3393W        W75818  37.574  12.713  11.126
 3394W        W75819  31.140  41.414   1.695
 3395W        W75820   1.940  11.709  14.865
 3396W        W75821  25.685  29.989  10.497
 3397W        W75822  44.479  19.702   0.258
 3398W        W75823  18.554  30.022   9.576
 3399W        W75824   3.410  26.669   3.295
 3400W        W75825  11.714  41.535  14.513
 3401W        W75826  21.135  41.356  14.290
 3402W        W75827  22.540  42.787   2.196
 3403W        W75828  33.031   7.872  14.909
 3404W        W75829  24.159  40.442  10.097
 3405W        W75830  21.550   0.461   1.759
 3406W        W75831  13.728  23.170   3.387
 3407W        W75832  36.480  31.077  14.992
 3408W        W75833  23.607  21.709   2.197
 3409W        W75834  36.036  20.595  10.568
 3410W        W75835  31.461  15.594  14.320
 3411W        W75836  12.191   3.279  14.358
 3412W        W75837  31.611  44.957  13.414
 3413W        W75838  17.306  11.289  12.451
 3414W        W75839  28.045  14.231  10.094
 3415W        W75840  39.458  36.504  11.986
 3416W        W75841  39.502  26.514   3.657
 3417W        W75842  39.978  30.455   0.959
 3418W        W75843   7.723  37.432  14.853
 3419W        W75844  13.339   5.809  13.908
 3420W        W75845  41.025  44.403   2.326
 3421W        W75846   8.762  10.862  11.572
 3422W        W75847  28.104  27.676  13.531
 3423W        W75848   1.254  19.646   4.612
 3424W        W75849   6.275   7.233   4.769
 3425W        W75850  21.696   6.282  10.526
 3426W        W75851  40.889  11.264   4.732
 3427W        W75852   3.897   0.916  10.577
 3428W        W75853   2.803  40.526   0.244
 3429W        W75854  22.232   7.824   0.859
 3430W        W75855  41.796  19.156  13.892
 3431W        W75856  33.975  33.514   2.209
 3432W        W75857  34.930  25.711   4.167
 3433W        W75858   5.217  31.036  10.465
 3434W        W75859  32.056  10.756  12.837
 3435W        W75860  36.942  27.941  13.839
 3436W        W75861  13.213   0.971  10.429
 3437W        W75862  30.484  42.795   3.824
 3438W        W75863  24.091  43.409   2.840
 3439W        W75864  36.949  38.022  13.902
 3440W        W75865  30.937  36.891  13.001
 3441W        W75866  30.473  41.871   4.612
 3442W        W75867   7.217  28.447   1.731
 3443W        W75868   3.712  36.559  11.556
 3444W        W75869  20.668   2.252   2.740
 3445W        W75870  13.142  10.856  12.569
 3446W        W75871  42.367   3.947  11.451
 3447W        W75872  20.202  28.588  14.474
 3448W        W75873  15.633  19.233  13.409
 3449W        W75874  42.280  18.702   0.325
 3450W        W75875  44.393   9.695   0.863
 3451W        W75876  40.500   1.302   1.831
 3452W        W75877  30.626  34.435   3.333
 3453W        W75878  36.374  27.956  10.060
 3454W        W75879   1.759   7.720   2.264
 3455W        W75880   7.304  18.170   0.929
 3456W        W75881  14.741  34.447   4.302
 3457W        W75882   1.788  10.297   4.603
 3458W        W75883  25.006  20.753   1.346
 3459W        W75884  28.101   1.796   2.304
 3460W        W75885   2.809   8.702   3.822
 3461W        W75886  26.193  33.527   2.403
 3462W        W75887   6.745   2.409  11.909
 3463W        W75888   2.256  38.840  14.768
 3464W        W75889  25.068   3.454  11.602
 3465W        W75890  43.907  17.109  13.545
 3466W        W75891  25.207  29.554   3.372
 3467W        W75892  33.111  40.470   3.181
 3468W        W75893  32.892   4.413   0.848
 3469W        W75894  18.251  23.554  11.863
 3470W        W75895  28.560  16.637   3.861
 3471W        W75896  11.837   7.728   4.670
 3472W        W75897  31.536  39.333   0.833
 3473W        W75898   5.816  19.041   2.390
 3474W        W75899  12.823  25.005   3.211
 3475W        W75900   6.193  27.591   2.338
 3476W        W75901  44.373  16.123   4.603
 3477W        W75902   6.809   3.454  14.823
 3478W        W75903   3.244   2.840  14.887
 3479W        W75904  41.936  30.490   2.764
 3480W        W75905  19.267  26.638   1.378
 3481W        W75906  14.232  17.790  14.430
 3482W        W75907   4.290  17.076   3.852
 3483W        W75908   3.772  32.965   0.376
 3484W        W75909  26.001  18.119  14.791
 3485W        W75910  43.388  16.252  10.989
 3486W        W75911   4.793  23.004   4.327
 3487W        W75912  32.022  36.875  10.976
 3488W        W75913  19.747  19.175   0.793
 3489W        W75914  37.482  25.064  11.542
 3490W        W75915  41.990   8.176  10.484
 3491W        W75916  22.708  37.972   1.796
 3492W        W75917  22.741  13.231  10.986
 3493W        W75918  26.506  31.626  13.855
 3494W        W75919   2.255  34.120   1.739
 3495W        W75920  41.337  39.404   3.335
 3496W        W75921  42.988  38.482  10.623
 3497W        W75922  19.713  30.139  10.495
 3498W        W75923   5.778   6.415   2.826
 3499W        W75924  19.597  35.557  10.478
 3500W        W75925  32.423  13.751   1.791
 3501W        W75926  22.121  34.416   2.224
 3502W        W75927  19.181  31.536   9.986
 3503W        W75928  28.135   3.298  10.033
 3504W        W75929  34.559  24.698  14.819
 3505W        W75930  18.602  41.003  11.865
 3506W        W75931  43.866  18.641  14.370
 3507W        W75932  32.999   5.802  13.366
 3508W        W75933  19.273   3.331   0.417
 3509W        W75934  27.470  44.290  13.362
 3510W        W75935  21.139  38.029  12.076
 3511W        W75936  19.672   4.838   1.822
 3512W        W75937   6.791  31.563   0.318
 3513W        W75938  30.055   3.313  14.378
 3514W        W75939   2.295  42.966  12.385
 3515W        W75940  20.120   7.360   3.201
 3516W        W75941  33.114  34.094   4.717
 3517W        W75942  20.692  23.576  13.046
 3518W        W75943  26.022  19.133  11.952
 3519W        W75944  13.644  19.700  12.462
 3520W        W75945  20.099  24.604   0.470
 3521W        W75946  12.741  12.171  12.977
 3522W        W75947  32.578  26.679   3.639
 3523W        W75948   0.418  28.186   0.265
 3524W        W75949   4.794  15.760   1.393
 3525W        W75950   8.343   0.290   2.870
 3526W        W75951   2.916   7.888   4.753
 3527W        W75952  43.314  27.174   4.747
 3528W        W75953  40.546  33.624  13.816
 3529W        W75954  28.026   6.734   0.737
 3530W        W75955  44.324   4.343  13.923
 3531W        W75956  44.796  21.587  13.962
 3532W        W75957  19.667  42.782  11.605
 3533W        W75958  20.530  32.542   2.341
 3534W        W75959  31.006  30.604   0.743
 3535W        W75960  16.747  26.643   1.731
 3536W        W75961  40.392  43.953  13.856
 3537W        W75962  20.612  13.754   0.250
 3538W        W75963  41.947  23.123   4.727
 3539W        W75964  18.577  37.070   0.308
 3540W        W75965   1.790  39.816   1.362
 3541W        W75966   8.173  14.699   0.276
 3542W        W75967  20.596  10.738   3.179
 3543W        W75968  21.514  12.166  13.545
 3544W        W75969  43.893  20.523   2.237
 3545W        W75970  37.861  23.056  14.400
 3546W        W75971   8.307  33.503  12.083
 3547W        W75972  37.059  31.543   2.258
 3548W        W75973  14.210   0.841  10.631
 3549W        W75974   7.830  12.348   4.340
 3550W        W75975  12.163  44.902  10.499
 3551W        W75976  13.119   2.950   3.170
 3552W        W75977   4.437   4.834   3.236
 3553W        W75978   2.947  30.589   1.349
 3554W        W75979  20.604   9.328   3.204
 3555W        W75980  40.416  11.317   3.165
 3556W        W75981  19.181  37.466   2.192
 3557W        W75982  24.127  36.459  12.997
 3558W        W75983   2.919  10.694  12.931
 3559W        W75984  38.919  44.290   2.694
 3560W        W75985  14.156  21.651   3.241
 3561W        W75986   5.740   4.898  11.439
 3562W        W75987  36.857  17.779   2.692
 3563W        W75988   3.238   8.778  14.400
 3564W        W75989  28.629   3.348  11.519
 3565W        W75990   0.920  19.049  11.117
 3566W        W75991   5.369  36.010   4.251
 3567W        W75992  39.475   5.921  14.456
 3568W        W75993   4.716  22.157  14.810
 3569W        W75994   5.876  29.423  10.621
 3570W        W75995  18.599  16.222  10.428
 3571W        W75996  23.614  37.544  12.370
 3572W        W75997  18.278   7.865  12.830
 3573W        W75998  27.973   9.856  11.391
 3574W        W75999   6.732  25.676   2.799
 3575W        W76000  25.677  30.088  14.771
 3576W        W76001  29.122  38.023   2.184
 3577W        W76002  15.188   5.821  10.895
 3578W        W76003  21.573  19.176   2.864
 3579W        W76004  32.423  44.306  11.873
 3580W        W76005   6.742  12.743   0.429
 3581W        W76006  39.378  15.100   1.352
 3582W        W76007  22.175   9.801   5.136
 3583W        W76008  10.155  21.117  12.952
 3584W        W76009  26.605  22.730  14.333
 3585W        W76010  15.276  16.757  12.903
 3586W        W76011  37.490  22.033  13.983
 3587W        W76012  38.906  14.701  14.884
 3588W        W76013  43.931   3.844   3.235
 3589W        W76014   3.459  12.236  14.895
 3590W        W76015  15.680   5.424   0.422
 3591W        W76016  29.497   6.284  11.958
 3592W        W76017  39.053   0.966   4.229
 3593W        W76018  31.944   8.698  13.462
 3594W        W76019   2.309  18.582   4.811
 3595W        W76020  27.171  35.939   3.740
 3596W        W76021  27.965   4.936  11.090
 3597W        W76022  12.778   8.267   3.837
 3598W        W76023  29.483  30.635  14.513
 3599W        W76024   4.303  24.489  12.516
 3600W        W76025  31.513   0.871  11.065
 3601W        W76026   2.318  20.744   4.219
 3602W        W76027  34.602  34.405   1.263
 3603W        W76028  15.721  10.371   5.203
 3604W        W76029  36.092  23.577  12.069
 3605W        W76030  29.029  24.036   0.909
 3606W        W76031  11.200  29.481   0.919
 3607W        W76032  35.975  10.319  14.005
 3608W        W76033   6.822   1.886  13.014
 3609W        W76034  11.728  19.209  12.500
 3610W        W76035  34.938  25.047  14.003
 3611W        W76036  27.164  43.005   5.310
 3612W        W76037  19.575  44.799   0.447
 3613W        W76038  34.063  40.959  11.908
 3614W        W76039  19.137   1.311   2.337
 3615W        W76040  20.055   4.754   2.181
 3616W        W76041  12.781   6.798  13.817
 3617W        W76042  11.191  31.534   2.401
 3618W        W76043  42.482  33.988   2.897
 3619W        W76044  34.576  13.784  10.611
 3620W        W76045  34.082  20.130   2.772
 3621W        W76046  33.489   7.288  14.855
 3622W        W76047  22.529  27.025   2.182
 3623W        W76048  10.707   6.881  14.023
 3624W        W76049  16.176  40.341   3.867
 3625W        W76050  21.516  12.120   3.843
 3626W        W76051   6.289  39.316   1.702
 3627W        W76052  13.800  34.990  11.018
 3628W        W76053  42.510   9.249   1.262
 3629W        W76054  20.541   9.681   2.311
 3630W        W76055  40.798   8.709   4.257
 3631W        W76056  35.863  16.705   0.316
 3632W        W76057   8.838  44.399   4.833
 3633W        W76058  35.088   8.345  13.013
 3634W        W76059  15.136  13.812   0.796
 3635W        W76060  29.998  40.480   1.895
 3636W        W76061  18.669   9.173   2.250
 3637W        W76062  36.453   2.393  11.938
 3638W        W76063   2.231  32.607  12.910
 3639W        W76064  14.826  31.532  11.970
 3640W        W76065  44.406  32.976  12.836
 3641W        W76066  27.060   7.306  14.293
 3642W        W76067  44.495  42.365  14.322
 3643W        W76068   3.322  14.670   1.426
 3644W        W76069  43.936  41.794   1.783
 3645W        W76070  35.011  17.069  13.412
 3646W        W76071  26.504  32.422   2.354
 3647W        W76072  15.615  20.223   0.377
 3648W        W76073   1.941  27.656  11.390
 3649W        W76074   3.316   4.834  14.928
 3650W        W76075  22.633  44.341  14.277
 3651W        W76076  24.650  41.444  12.063
 3652W        W76077   6.378   2.765  14.480
 3653W        W76078  28.145  17.243  11.085
 3654W        W76079  11.698  10.292   1.365
 3655W        W76080   0.452  12.138   0.901
 3656W        W76081  19.584  21.227   2.409
 3657W        W76082  23.215  43.948   2.874
 3658W        W76083   2.334   2.270  11.943
 3659W        W76084  16.264   5.688   3.249
 3660W        W76085  39.422   8.814   3.669
 3661W        W76086  42.477   2.389  14.459
 3662W        W76087  29.993   8.360   2.253
 3663W        W76088  19.093   6.681   3.708
 3664W        W76089  14.745  16.731   2.900
 3665W        W76090   9.245  39.314   1.749
 3666W        W76091  43.971  39.489   1.760
 3667W        W76092  27.155  31.922  14.955
 3668W        W76093  30.533   5.791   3.644
 3669W        W76094  28.652  13.842   2.672
 3670W        W76095  27.034  44.457  11.401
 3671W        W76096  14.699  43.341   2.826
 3672W        W76097   1.434  17.140   0.321
 3673W        W76098   0.891   0.436   0.340
 3674W        W76099  16.764  28.514   0.857
 3675W        W76100  21.640  20.711  10.445
 3676W        W76101  39.013  25.183   5.308
 3677W        W76102   6.744   8.811  12.049
 3678W        W76103   1.870   8.379  14.412
 3679W        W76104   8.721  38.524   1.865
 3680W        W76105  40.303  38.027  12.082
 3681W        W76106   2.442  20.122   4.247
 3682W        W76107   3.896   1.391  10.991
 3683W        W76108  29.662  10.260  13.941
 3684W        W76109   2.899  23.210   1.420
 3685W        W76110  34.995  21.635   1.445
 3686W        W76111  39.318  40.393  14.019
 3687W        W76112  14.270   6.723  12.538
 3688W        W76113   6.923  35.033  12.423
 3689W        W76114   9.729   8.745   2.224
 3690W        W76115   2.421  20.639   2.722
 3691W        W76116  23.652  38.457   2.325
 3692W        W76117  33.050   1.739  13.432
 3693W        W76118  33.488  43.285  13.390
 3694W        W76119  25.700  22.646  10.080
 3695W        W76120  15.805  36.394   0.960
 3696W        W76121  32.070  17.174   2.219
 3697W        W76122  37.877  31.611  14.363
 3698W        W76123   1.791   5.814   1.744
 3699W        W76124  26.665  33.382  14.806
 3700W        W76125  19.672  27.946  13.483
 3701W        W76126  24.643  34.897  12.862
 3702W        W76127  32.497   3.281  13.035
 3703W        W76128   0.273   2.824   1.416
 3704W        W76129   4.434  12.826  11.592
 3705W        W76130  36.032  38.033  13.412
 3706W        W76131  23.579  15.736   4.827
 3707W        W76132  36.413  43.321  13.817
 3708W        W76133   7.704  37.997   5.648
 3709W        W76134  30.578  27.452   0.920
 3710W        W76135  36.009  41.873   1.754
 3711W        W76136  14.173   1.236  12.415
 3712W        W76137  22.553  38.833  14.912
 3713W        W76138  16.177  20.714  13.430
 3714W        W76139   4.889  37.996   2.870
 3715W        W76140   3.398  41.975  14.860
 3716W        W76141  12.855   8.175   1.769
 3717W        W76142  30.117   7.865  11.021
 3718W        W76143  40.479  38.445  10.414
 3719W        W76144  10.350  20.037  11.449
 3720W        W76145  34.486  37.398   3.762
 3721W        W76146  28.480  26.095  10.963
 3722W        W76147   3.743  20.041  12.564
 3723W        W76148  43.475  13.193  11.036
 3724W        W76149   6.814  38.347   1.720
 3725W        W76150   1.343  18.108   0.740
 3726W        W76151  31.939  24.551   5.158
 3727W        W76152  14.286  15.093   4.628
 3728W        W76153   5.376  26.507  14.352
 3729W        W76154  37.064  32.056  13.364
 3730W        W76155  25.010  14.169   4.621
 3731W        W76156  29.537   5.843   3.803
 3732W        W76157   6.830  12.135   4.229
 3733W        W76158   2.358  24.141   3.301
 3734W        W76159  15.580   4.935   0.891
 3735W        W76160   8.375  27.590   4.763
 3736W        W76161  16.227  18.628   2.197
 3737W        W76162  33.418  28.673  11.505
 3738W        W76163  11.742  17.186   3.206
 3739W        W76164  42.465  44.001   1.382
 3740W        W76165  37.041  35.992   1.912
 3741W        W76166   8.235  40.860  14.432
 3742W        W76167  38.899  24.088  13.335
 3743W        W76168  18.063  13.707  11.953
 3744W        W76169  33.922  10.665   0.358
 3745W        W76170  44.448  34.981  14.801
 3746W        W76171  17.094   4.382   3.296
 3747W        W76172  38.422   0.790   2.851
 3748W        W76173  17.799  16.732  12.896
 3749W        W76174   2.732  18.215  12.349
 3750W        W76175  10.348  38.974   3.636
 3751W        W76176   2.302  17.743  12.431
 3752W        W76177   8.271  33.534  14.970
 3753W        W76178  37.405  16.791  14.781
 3754W        W76179  32.486  29.565  14.425
 3755W        W76180  13.745  16.213   2.333
 3756W        W76181  32.020  39.388  14.416
 3757W        W76182  25.485   7.368   0.954
 3758W        W76183   6.334  14.720  13.037
 3759W        W76184   7.874  28.026   4.153
 3760W        W76185  16.273  26.532  10.966
 3761W        W76186   4.819  10.298  10.006
 3762W        W76187   1.282  18.192   3.299
 3763W        W76188  25.207  42.863  12.824
 3764W        W76189  20.205  36.414   3.661
 3765W        W76190  17.658  20.151  11.903
 3766W        W76191  15.288  42.024  13.883
 3767W        W76192  18.112  37.970  11.987
 3768W        W76193  31.625  19.053   9.627
 3769W        W76194  34.474  29.064  12.859
 3770W        W76195  14.750  39.451   2.405
 3771W        W76196  29.166  32.133  11.510
 3772W        W76197  19.650  17.800   2.688
 3773W        W76198  14.818  10.788  12.916
 3774W        W76199   0.889  28.053   1.255
 3775W        W76200  43.403  12.335  13.466
 3776W        W76201  29.551  38.963  11.894
 3777W        W76202  39.903   4.838  13.483
 3778W        W76203  43.304  32.115  13.347
 3779W        W76204  35.853  41.927  12.547
 3780W        W76205   5.213   8.810   1.243
 3781W        W76206  37.840   4.264  12.497
 3782W        W76207  33.029  36.587   1.895
 3783W        W76208   1.887  24.631  11.917
 3784W        W76209  38.564   4.310  10.896
 3785W        W76210   2.860  17.276   1.790
 3786W        W76211  22.247  20.102   0.319
 3787W        W76212  13.320   5.384  12.864
 3788W        W76213  14.326  14.159   3.296
 3789W        W76214  11.266  12.274  11.574
 3790W        W76215  40.973   4.396  12.010
 3791W        W76216  23.084   6.699  13.048
 3792W        W76217   6.372  26.630  14.826
 3793W        W76218  37.866   2.814   3.793
 3794W        W76219  22.126  27.536   2.360
 3795W        W76220   3.854  13.646  10.403
 3796W        W76221  27.470  37.422  10.462
 3797W        W76222  23.681  36.001   4.668
 3798W        W76223  12.164  31.923   4.278
 3799W        W76224   4.278  36.971  13.048
 3800W        W76225  27.956   5.344   4.628
 3801W        W76226  31.955  32.554  14.804
 3802W        W76227  37.991  43.951  11.452
 3803W        W76228  41.907   4.831  10.056
 3804W        W76229  33.967  35.098  14.863
 3805W        W76230  40.304  41.974  14.421
 3806W        W76231   1.867  38.934   0.278
 3807W        W76232  41.524  35.918  12.429
 3808W        W76233  41.429  17.212   5.126
 3809W        W76234  41.387  25.509  13.342
 3810W        W76235  24.187  26.059  14.359
 3811W        W76236  20.602  20.744  10.920
 3812W        W76237  39.983  32.048  10.985
 3813W        W76238  44.266   8.767  14.414
 3814W        W76239  11.656  27.540  14.302
 3815W        W76240   4.875   9.319  12.487
 3816W        W76241  23.003  26.143  12.841
 3817W        W76242  39.840   0.824   1.408
 3818W        W76243  19.056  12.162  14.029
 3819W        W76244  42.288   8.361  14.978
 3820W        W76245   9.658  34.373   2.326
 3821W        W76246   4.378  38.002  13.487
 3822W        W76247  17.631  34.968   1.445
 3823W        W76248   9.219   7.173  11.605
 3824W        W76249   9.273  11.783   2.858
 3825W        W76250  14.159  36.476  11.974
 3826W        W76251  31.955   7.330  14.830
 3827W        W76252  21.185  16.639   0.343
 3828W        W76253  32.885  18.056   3.180
 3829W        W76254  36.887  26.111  10.984
 3830W        W76255  33.391  41.011   2.804
 3831W        W76256  17.692   8.869  13.309
 3832W        W76257  11.720  35.000  11.560
 3833W        W76258  26.045   9.272  13.993
 3834W        W76259  16.743  16.192  14.311
 3835W        W76260  25.593  12.772   2.782
 3836W        W76261  15.819  24.497  13.310
 3837W        W76262   5.194  21.063   4.777
 3838W        W76263   4.416   8.161  11.538
 3839W        W76264   5.719   1.959  11.462
 3840W        W76265  22.098   6.354   4.707
 3841W        W76266  14.186   3.880  11.371
 3842W        W76267  39.530  26.146   4.230
 3843W        W76268  18.687   9.367  12.916
 3844W        W76269   5.874  39.531   3.302
 3845W        W76270  19.725  41.901   1.285
 3846W        W76271  15.675  26.109  14.909
 3847W        W76272  44.487  31.531  13.062
 3848W        W76273  18.575   8.899  13.537
 3849W        W76274  23.599   3.936   0.463
 3850W        W76275  19.224   6.750  13.028
 3851W        W76276  19.055  38.405   2.807
 3852W        W76277  20.678   6.265   3.728
 3853W        W76278  18.697  10.809   4.198
 3854W        W76279  26.702  27.985   1.270
 3855W        W76280  24.107  17.135   3.218
 3856W        W76281  23.694  27.569  10.514
 3857W        W76282  17.619  12.275  10.952
 3858W        W76283  42.450  21.082  12.046
 3859W        W76284  35.364  17.256   4.325
 3860W        W76285  37.412  35.362  11.530
 3861W        W76286  18.059  32.957  11.381
 3862W        W76287  16.743   1.792  14.471
 3863W        W76288  39.433  32.116   4.747
 3864W        W76289  12.818   3.371   3.160
 3865W        W76290  33.889  25.468  12.470
 3866W        W76291  27.655   0.907   0.404
 3867W        W76292  40.416   7.695  11.015
 3868W        W76293  38.329   1.386   1.839
 3869W        W76294  34.043   7.744   4.294
 3870W        W76295  43.779  28.175  14.398
 3871W        W76296   7.713  44.320   2.900
 3872W        W76297   2.371  28.460  10.408
 3873W        W76298  29.454  11.644   2.768
 3874W        W76299  44.328  39.938   1.217
 3875W        W76300  25.469   9.372   0.767
 3876W        W76301  23.540  43.462  11.518
 3877W        W76302  27.175  20.080  12.513
 3878W        W76303  43.445   9.736   3.232
 3879W        W76304  40.964  18.097   2.365
 3880W        W76305  25.977  22.169   0.889
 3881W        W76306  27.004  30.424   1.884
 3882W        W76307   3.761  33.407   0.743
 3883W        W76308  18.624  39.001  13.409
 3884W        W76309  41.398  37.972  11.580
 3885W        W76310  42.938  14.613  10.945
 3886W        W76311  15.700  14.338  10.122
 3887W        W76312  37.497   9.216   5.281
 3888W        W76313  42.400  31.433  10.526
 3889W        W76314  19.173  19.598   5.103
 3890W        W76315  36.958  37.421  12.858
 3891W        W76316   4.354   3.840   2.841
 3892W        W76317   4.755  15.578  14.813
 3893W        W76318  25.505  26.027  12.427
 3894W        W76319  40.849   5.202   4.621
 3895W        W76320  31.616  12.253   2.869
 3896W        W76321  36.984  30.638   0.377
 3897W        W76322  17.093  30.580   3.765
 3898W        W76323  21.670  20.218  10.539
 3899W        W76324  36.848  19.182   2.244
 3900W        W76325  25.501  43.878  13.423
 3901W        W76326  23.985  12.360  14.802
 3902W        W76327  18.783  12.809   4.759
 3903W        W76328  31.579  41.950   3.191
 3904W        W76329  10.739  18.184   4.812
 3905W        W76330   5.372   8.240  11.445
 3906W        W76331  31.608  32.471  14.773
 3907W        W76332   0.273  16.725  10.509
 3908W        W76333  30.620  37.505   3.752
 3909W        W76334   1.463  26.019  10.499
 3910W        W76335  16.209   2.255  10.072
 3911W        W76336  10.724  33.445   1.722
 3912W        W76337  24.132  24.565   2.413
 3913W        W76338   2.347   3.810   3.674
 3914W        W76339  12.711  31.147   0.765
 3915W        W76340  32.056  38.040   1.908
 3916W        W76341  43.368   3.758   4.271
 3917W        W76342  29.562  35.602  11.489
 3918W        W76343  26.195  17.065   2.884
 3919W        W76344  24.171   1.743  12.394
 3920W        W76345  33.886  28.017   4.788
 3921W        W76346  38.523   7.902  12.473
 3922W        W76347  11.173  44.993  12.347
 3923W        W76348   4.815   2.824   4.165
 3924W        W76349  41.878  33.624   0.475
 3925W        W76350  19.147  10.370  10.417
 3926W        W76351   9.238  43.878   4.798
 3927W        W76352   0.928  28.472   0.346
 3928W        W76353   6.372  21.219   4.807
 3929W        W76354  27.676   1.770  11.415
 3930W        W76355  30.112  40.016  13.409
 3931W        W76356  38.845  30.034   4.671
 3932W        W76357  27.971  41.922  11.459
 3933W        W76358  17.610  25.669  12.524
 3934W        W76359  20.691  27.973  11.991
 3935W        W76360  19.109  18.201  10.608
 3936W        W76361  29.071  14.718  12.836
 3937W        W76362   4.833  43.285   0.793
 3938W        W76363  17.280  35.530  13.907
 3939W        W76364  17.734   0.456   1.770
 3940W        W76365   9.346  21.667   0.822
 3941W        W76366  27.130   7.867   1.711
 3942W        W76367  11.351  21.692   0.285
 3943W        W76368   8.900  29.524  14.440
 3944W        W76369  19.780  23.163   4.732
 3945W        W76370  26.578  13.836  13.436
 3946W        W76371   0.372  31.405   0.960
 3947W        W76372  23.984   6.727   4.792
 3948W        W76373  28.605  28.949   1.817
 3949W        W76374  28.675  25.503   2.379
 3950W        W76375  39.361  39.915  12.012
 3951W        W76376  31.972   7.849   1.307
 3952W        W76377   9.318  33.380   4.831
 3953W        W76378  37.403  21.066  10.445
 3954W        W76379  21.734   7.732   3.368
 3955W        W76380  24.603  41.341   4.171
 3956W        W76381  44.774  37.844   0.923
 3957W        W76382  19.125  38.539   0.764
 3958W        W76383  16.246  39.387  10.642
 3959W        W76384  13.766   3.718  14.998
 3960W        W76385   1.858  39.941   4.282
 3961W        W76386  31.422  29.624  10.904
 3962W        W76387  17.274   8.737   4.713
 3963W        W76388   6.820  24.993   0.957
 3964W        W76389   6.268  13.202   1.848
 3965W        W76390  23.506  15.238   3.777
 3966W        W76391  30.957  22.543  11.416
 3967W        W76392  29.610  30.618  12.546
 3968W        W76393  27.596  11.630   3.652
 3969W        W76394  36.900  14.153   3.147
 3970W        W76395  40.040  12.785  12.863
 3971W        W76396  13.328  12.293   0.448
 3972W        W76397  40.523  23.628  10.464
 3973W        W76398  44.944  27.190   3.203
 3974W        W76399  21.635  12.809  12.404
 3975W        W76400   5.859  19.602   4.784
 3976W        W76401   9.805   8.393   3.724
 3977W        W76402   2.838  32.044   4.210
 3978W        W76403  43.941   4.328   4.720
 3979W        W76404  42.812  44.776   0.393
 3980W        W76405  19.722   0.830  11.549
 3981W        W76406   4.257   2.314   3.254
 3982W        W76407  41.521  21.231   4.148
 3983W        W76408  14.677  17.699   3.679
 3984W        W76409  36.572  26.584  10.934
 3985W        W76410  19.634  13.226   2.287
 3986W        W76411   9.367  10.280   0.258
 3987W        W76412  27.167  13.706  12.838
 3988W        W76413  40.938   6.754   4.831
 3989W        W76414  19.204  21.626   0.287
 3990W        W76415  10.330  13.783  11.070
 3991W        W76416  42.951  31.473   2.196
 3992W        W76417  12.134  26.060  14.017
 3993W        W76418  33.031  32.467  13.943
 3994W        W76419  11.255  13.332  13.015
 3995W        W76420  39.508   3.216   3.829
 3996W        W76421   6.400  24.508  14.799
 3997W        W76422  23.519  30.052   2.853
 3998W        W76423   2.417  16.643   0.448
 3999W        W76424  14.718  16.728   1.883
 4000W        W76425  21.034  21.724   4.181
 4001W        W76426  24.135  33.625   4.712
 4002W        W76427   7.349  25.060   3.175
 4003W        W76428  41.868   4.868  13.053
 4004W        W76429  30.956   5.259  13.316
 4005W        W76430   0.463  20.054   3.868
 4006W        W76431   1.865  28.472  12.015
 4007W        W76432  20.726  20.099  12.946
 4008W        W76433  42.367  43.003  13.367
 4009W        W76434   3.879  15.659   3.376
 4010W        W76435  21.248  39.824  14.880
 4011W        W76436  39.956  20.079  10.414
 4012W        W76437  17.268  34.110  10.425
 4013W        W76438  23.226   6.273   4.655
 4014W        W76439  10.876   1.842  10.963
 4015W        W76440  27.098  32.132  12.949
 4016W        W76441  37.377   6.401   2.836
 4017W        W76442  31.497  31.464   3.365
 4018W        W76443  34.977  33.440   1.896
 4019W        W76444   3.256  35.017  13.858
 4020W        W76445  39.393  27.487  13.878
 4021W        W76446  10.871  44.394   4.610
 4022W        W76447  39.935  15.155  12.436
 4023W        W76448   7.350   7.414  10.113
 4024W        W76449  40.334  34.392   2.300
 4025W        W76450   5.747  44.891  12.877
 4026W        W76451  14.321   9.288  14.773
 4027W        W76452   5.221  22.649  10.111
 4028W        W76453  29.165  10.704   2.724
 4029W        W76454  44.316  29.559   0.833
 4030W        W76455  43.817  32.392   4.611
 4031W        W76456  10.751  39.436   0.330
 4032W        W76457  43.770  23.051   3.688
 4033W        W76458  22.147   8.803   2.829
 4034W        W76459  19.756   2.450   1.884
 4035W        W76460   3.452  22.213   0.300
 4036W        W76461  31.618  25.996   4.246
 4037W        W76462   1.434  29.570   3.669
 4038W        W76463  26.648  11.827  14.862
 4039W        W76464  13.682   7.699  11.992
 4040W        W76465  15.760   7.382   2.277
 4041W        W76466  20.679  39.926  11.040
 4042W        W76467  43.502   0.334  13.819
 4043W        W76468  11.632  34.100   4.319
 4044W        W76469  21.221  33.933   1.730
 4045W        W76470   4.277  28.097  12.992
 4046W        W76471  37.016  23.054  13.061
 4047W        W76472  27.038   3.398  11.910
 4048W        W76473  18.269  30.435  14.467
 4049W        W76474  34.025  38.882  12.051
 4050W        W76475   8.884  20.076  13.486
 4051W        W76476   0.375   9.765  11.017
 4052W        W76477  19.276  18.772   1.925
 4053W        W76478  10.205  19.721  12.924
 4054W        W76479  13.713   5.871   4.256
 4055W        W76480  35.556   0.775  12.972
 4056W        W76481  39.816  39.352  12.976
 4057W        W76482  33.903  17.215   1.298
 4058W        W76483  31.644  34.960  13.045
 4059W        W76484  12.741  16.777  14.859
 4060W        W76485   6.374  16.078   1.863
 4061W        W76486  24.493  43.480  10.507
 4062W        W76487  33.992  35.918   1.435
 4063W        W76488  38.349  12.258   3.381
 4064W        W76489  29.432  14.175   0.438
 4065W        W76490  22.251   4.290   1.848
 4066W        W76491  27.197  20.619   2.301
 4067W        W76492   6.857  12.116  13.891
 4068W        W76493  22.038  43.008   3.300
 4069W        W76494   9.334  13.128   1.729
 4070W        W76495  24.638   3.739   1.439
 4071W        W76496  34.030  37.447   2.765
 4072W        W76497  39.933  16.084   2.872
 4073W        W76498  15.754   0.751   1.333
 4074W        W76499   7.280  35.523   0.284
 4075W        W76500  21.207   1.479  11.547
 4076W        W76501  39.012  36.565   2.385
 4077W        W76502  25.608   3.751   3.162
 4078W        W76503  34.967   2.416  12.427
 4079W        W76504  28.530   4.766   2.865
 4080W        W76505  25.667  30.119   2.301
 4081W        W76506  30.596  27.623  12.933
 4082W        W76507  24.484  19.732   4.752
 4083W        W76508  29.966  23.653  11.108
 4084W        W76509  25.504  44.371  14.892
 4085W        W76510  23.026  37.537   2.352
 4086W        W76511   5.711   3.402   1.784
 4087W        W76512  30.968  35.952   2.803
 4088W        W76513   5.863  33.127  11.560
 4089W        W76514  17.641   8.216   3.310
 4090W        W76515  29.139   5.335   2.796
 4091W        W76516  38.392  17.099  14.317
 4092W        W76517  32.486  23.165   2.748
 4093W        W76518  39.415  21.204  11.555
 4094W        W76519  41.022  14.303   2.891
 4095W        W76520  23.712  28.934   1.447
 4096W        W76521   8.268  14.221  13.489
 4097W        W76522  37.983   6.763   1.253
 4098W        W76523  37.417  35.514  12.904
 4099W        W76524  32.970  34.889   2.884
 4100W        W76525  19.063  20.045  11.077
 4101W        W76526  42.989  14.642   0.294
 4102W        W76527  10.167  27.961  14.354
 4103W        W76528  43.276  10.276  13.816
 4104W        W76529   7.834   8.318  10.941
 4105W        W76530  16.174  19.718   4.159
 4106W        W76531   5.220   9.668  13.063
 4107W        W76532   0.842  20.149   4.263
 4108W        W76533  44.812  13.290   4.627
 4109W        W76534   6.268  31.497   0.782
 4110W        W76535  17.655   4.227  12.418
 4111W        W76536  21.056  34.040   0.804
 4112W        W76537  33.467  19.103  14.781
 4113W        W76538   8.833  27.673   3.708
 4114W        W76539  29.928  14.336   1.702
 4115W        W76540   9.163   2.872   0.267
 4116W        W76541  25.171  37.425   2.397
 4117W        W76542  23.994  34.538  12.005
 4118W        W76543  42.454  32.452  12.031
 4119W        W76544   3.742  39.045   1.234
 4120W        W76545  23.562  24.990   4.825
 4121W        W76546  10.170  18.554   2.740
 4122W        W76547  34.932   9.375  13.399
 4123W        W76548  16.135  23.508   5.300
 4124W        W76549  18.099  36.448  11.007
 4125W        W76550  12.746  27.163   0.294
 4126W        W76551  25.053   2.330  14.323
 4127W        W76552  21.165  20.637   0.296
 4128W        W76553  22.710   7.900  13.513
 4129W        W76554  22.501  15.587   4.611
 4130W        W76555   3.378  28.109  12.524
 4131W        W76556  25.078  39.875   2.767
 4132W        W76557  43.930  24.197   1.901
 4133W        W76558  27.033   0.845   3.711
 4134W        W76559  44.371  16.704  13.400
 4135W        W76560   7.814  36.851   1.784
 4136W        W76561  16.628  33.086  11.002
 4137W        W76562  23.542  16.242  11.397
 4138W        W76563  44.938   7.758  11.940
 4139W        W76564  12.183  18.092  13.062
 4140W        W76565  18.572  15.223   4.834
 4141W        W76566   3.459  14.323   1.720
 4142W        W76567  16.224   4.749  13.468
 4143W        W76568  32.474  20.555  14.985
 4144W        W76569  19.161  28.445   1.310
 4145W        W76570  31.053  17.755  14.448
 4146W        W76571  34.939  34.421   3.772
 4147W        W76572   0.257  17.249   3.264
 4148W        W76573  29.572  28.587  12.365
 4149W        W76574  41.421   3.915   3.746
 4150W        W76575  35.501   0.477  10.558
 4151W        W76576  31.953  22.101   4.319
 4152W        W76577   0.908  15.615   0.351
 4153W        W76578   5.698  17.698   4.129
 4154W        W76579   5.859  29.547  12.897
 4155W        W76580  30.510   5.225  10.626
 4156W        W76581  40.907  35.084   2.252
 4157W        W76582  12.220  25.983   4.692
 4158W        W76583  15.732  19.112  12.886
 4159W        W76584  33.407   8.767  14.983
 4160W        W76585  41.830  27.960   3.645
 4161W        W76586   1.788  17.270  11.113
 4162W        W76587  38.569  38.062  10.642
 4163W        W76588   1.319  42.422  10.507
 4164W        W76589  36.467  35.863  10.035
 4165W        W76590   5.438  38.339  14.003
 4166W        W76591  19.175  15.768   0.478
 4167W        W76592  35.062  29.033   2.225
 4168W        W76593  23.557   4.745  13.809
 4169W        W76594  35.890   9.728  14.858
 4170W        W76595  19.279  31.910   4.244
 4171W        W76596  25.212   6.404  11.605
 4172W        W76597  12.681  20.574   0.883
 4173W        W76598  19.209  28.132  13.871
 4174W        W76599  29.548  12.639  14.414
 4175W        W76600  18.138   5.925   0.381
 4176W        W76601   7.218  11.862  14.412
 4177W        W76602  18.688  22.198  12.478
 4178W        W76603  39.381   7.911   4.206
 4179W        W76604   7.816  38.364  12.951
 4180W        W76605  27.005  24.219   3.777
 4181W        W76606  36.942   9.739   0.467
 4182W        W76607  17.078  38.957   5.121
 4183W        W76608   3.314  41.925   2.220
 4184W        W76609   7.381  39.385   0.270
 4185W        W76610   6.900  30.608   0.829
 4186W        W76611  27.078   1.340  12.011
 4187W        W76612  25.014  23.095   4.659
 4188W        W76613   1.918  16.788   1.230
 4189W        W76614   6.822  11.331  11.073
 4190W        W76615  38.533  23.030  10.483
 4191W        W76616  16.142  13.131  14.976
 4192W        W76617   6.378   3.394  10.618
 4193W        W76618  32.055  12.676   2.835
 4194W        W76619   7.404  19.630   0.266
 4195W        W76620  24.699  16.089  13.015
 4196W        W76621   5.907  39.989   4.721
 4197W        W76622  27.502  15.717   3.293
 4198W        W76623  16.779  10.833  13.484
 4199W        W76624  26.063  18.688   2.301
 4200W        W76625   3.892  34.411  10.001
 4201W        W76626   0.446  22.058  13.977
 4202W        W76627  36.019   3.358  12.095
 4203W        W76628  19.190  17.614   1.923
 4204W        W76629  36.057  34.537   1.858
 4205W        W76630  32.596   4.791   2.831
 4206W        W76631  20.629  39.450   4.352
 4207W        W76632  28.633  36.522   0.795
 4208W        W76633  28.533  19.273  12.493
 4209W        W76634  29.482   1.758   4.635
 4210W        W76635  25.171  43.999   1.826
 4211W        W76636  33.067  22.200   3.148
 4212W        W76637   2.865   0.784   2.355
 4213W        W76638  24.064  29.168  11.431
 4214W        W76639  40.813  36.018  12.558
 4215W        W76640  13.237  41.411   1.419
 4216W        W76641  13.109  32.608  12.005
 4217W        W76642  10.149  38.010   3.760
 4218W        W76643   9.284   8.319   3.300
 4219W        W76644  38.879  32.534   1.830
 4220W        W76645  12.711  24.179  10.103
 4221W        W76646  29.664   4.763   4.779
 4222W        W76647  21.065  20.207  12.919
 4223W        W76648  38.824  12.633  12.960
 4224W        W76649  19.780   2.424   3.730
 4225W        W76650  31.067  18.254  11.397
 4226W        W76651  15.173   3.948   2.237
 4227W        W76652  41.520  21.576  14.324
 4228W        W76653   6.183   9.827  14.910
 4229W        W76654  28.501  11.758  12.414
 4230W        W76655  13.197  38.943  12.986
 4231W        W76656  33.022  11.370   2.360
 4232W        W76657   6.836  33.475   2.726
 4233W        W76658  34.115  11.832  13.416
 4234W        W76659  40.535   1.446  12.345
 4235W        W76660  18.151  13.631   4.609
 4236W        W76661  11.752  37.838   4.800
 4237W        W76662  23.679  24.130   3.649
 4238W        W76663  14.240  44.973   2.409
 4239W        W76664  17.281   6.795   4.290
 4240W        W76665  33.048  20.637  10.471
 4241W        W76666  25.603   9.738  14.322
 4242W        W76667  15.159  24.033  12.045
 4243W        W76668  31.524  34.915   3.761
 4244W        W76669  13.737   6.891  12.507
 4245W        W76670  34.043  25.692   1.930
 4246W        W76671  22.148  21.660   4.754
 4247W        W76672  36.398  28.451   2.872
 4248W        W76673  39.065   7.765   3.201
 4249W        W76674  16.733  13.153   3.293
 4250W        W76675  40.305  32.063   5.114
 4251W        W76676  16.080   5.854  11.418
 4252W        W76677   6.842  34.913   0.809
 4253W        W76678   7.416  34.074  12.882
 4254W        W76679  13.715   2.278  10.437
 4255W        W76680  34.046  42.777   2.264
 4256W        W76681  34.968   5.893  11.897
 4257W        W76682  30.591  11.187  13.462
 4258W        W76683  35.091  25.553  14.387
 4259W        W76684  28.640  23.134  13.945
 4260W        W76685  10.716  26.068   0.832
 4261W        W76686  20.156  41.399  14.826
 4262W        W76687  18.117  13.261   4.609
 4263W        W76688   6.677  33.963   4.220
 4264W        W76689  34.019  32.063  12.066
 4265W        W76690  28.457  31.601   3.829
 4266W        W76691   0.789  31.961   2.335
 4267W        W76692  14.812   2.314  13.473
 4268W        W76693  40.513  10.291   0.414
 4269W        W76694  11.168   7.740   3.782
 4270W        W76695  42.527   7.372  13.354
 4271W        W76696  23.721  41.461   3.665
 4272W        W76697   1.929  29.965   4.766
 4273W        W76698  19.169  31.555  11.856
 4274W        W76699  15.207  22.583   2.201
 4275W        W76700  41.948  44.807   3.825
 4276W        W76701  36.996  36.030   0.298
 4277W        W76702   6.383  12.666  13.483
 4278W        W76703  13.628  32.016   3.661
 4279W        W76704  23.645  19.640   0.935
 4280W        W76705  29.005  19.204   1.386
 4281W        W76706  33.618  30.136  14.440
 4282W        W76707  11.678  20.135  14.389
 4283W        W76708   2.227   2.931  11.504
 4284W        W76709  17.263  32.612  12.938
 4285W        W76710  36.030  12.786  14.782
 4286W        W76711  13.618  11.813   2.790
 4287W        W76712  16.668  41.964   2.318
 4288W        W76713   6.405  13.145   4.351
 4289W        W76714   1.832  17.185   1.426
 4290W        W76715  33.898  12.696  13.488
 4291W        W76716  30.599  14.777   0.832
 4292W        W76717  10.680  22.692  12.391
 4293W        W76718  30.500  22.118   1.772
 4294W        W76719   7.288  44.797   4.354
 4295W        W76720  11.166  31.646  13.453
 4296W        W76721  31.987   4.420   4.624
 4297W        W76722  14.748  21.255   2.377
 4298W        W76723   1.291  41.492  11.964
 4299W        W76724  43.487   5.918  14.838
 4300W        W76725  39.338   3.752   1.787
 4301W        W76726   4.257  22.234  10.926
 4302W        W76727  19.179  41.534   2.718
 4303W        W76728  25.186  10.858  14.858
 4304W        W76729  16.724   7.186  14.889
 4305W        W76730  12.199  40.424   4.175
 4306W        W76731  31.403   2.292  12.504
 4307W        W76732  30.421  15.242  14.938
 4308W        W76733  24.171   2.283  12.460
 4309W        W76734  23.617  31.629   1.264
 4310W        W76735   6.692  36.946   1.356
 4311W        W76736  27.495   2.939  13.950
 4312W        W76737  10.648   5.886  10.608
 4313W        W76738  36.585  24.072  13.883
 4314W        W76739  15.695  29.657  13.519
 4315W        W76740  27.952  10.637  12.439
 4316W        W76741  40.459   9.819   4.765
 4317W        W76742  43.450  17.138  11.591
 4318W        W76743   7.344  40.417   4.260
 4319W        W76744  28.957  17.655  13.981
 4320W        W76745  10.227  17.788  11.609
 4321W        W76746   2.236  15.619  10.925
 4322W        W76747   4.359  12.663   3.369
 4323W        W76748  15.316  22.166  13.965
 4324W        W76749   9.329  37.346   1.788
 4325W        W76750   9.183   3.780   4.806
 4326W        W76751  14.198  33.942  11.604
 4327W        W76752   9.817  17.646  13.798
 4328W        W76753  33.468   7.197  11.545
 4329W        W76754  39.524  21.047   1.921
 4330W        W76755   9.719  24.479   2.197
 4331W        W76756  23.519  20.656   2.301
 4332W        W76757  30.517   9.262   5.273
 4333W        W76758  39.404  14.771   4.139
 4334W        W76759  37.380  19.216   4.761
 4335W        W76760   7.672  19.695  14.948
 4336W        W76761  13.222   7.321  13.908
 4337W        W76762  41.398  10.877  13.980
 4338W        W76763  39.989  23.121  13.019
 4339W        W76764  44.449  33.457  14.376
 4340W        W76765   9.312  24.179  14.958
 4341W        W76766  14.297  37.537   4.703
 4342W        W76767  27.194   7.705  14.291
 4343W        W76768  30.076  14.224   4.737
 4344W        W76769  42.954  28.539  13.038
 4345W        W76770  15.100  42.820   3.672
 4346W        W76771  18.678  10.871  11.105
 4347W        W76772  18.780  29.661  10.067
 4348W        W76773  38.997  24.613   4.814
 4349W        W76774  29.175  23.592   2.751
 4350W        W76775  33.075  14.701   0.376
 4351W        W76776  23.214  37.359  14.920
 4352W        W76777   0.939  20.116  14.793
 4353W        W76778  33.890   3.293   1.257
 4354W        W76779  13.676  33.058  12.996
 4355W        W76780  11.160  27.534  11.106
 4356W        W76781  38.845  33.456  11.887
 4357W        W76782  25.180  38.482  11.986
 4358W        W76783  39.967  39.530   3.800
 4359W        W76784  22.111  29.076  14.813
 4360W        W76785   6.684  27.559   0.914
 4361W        W76786  20.212  32.625  12.029
 4362W        W76787  23.034  38.821  13.481
 4363W        W76788  37.497  40.353   5.103
 4364W        W76789  43.479  10.757   2.733
 4365W        W76790  30.070   6.796  11.492
 4366W        W76791  13.605  29.521  10.977
 4367W        W76792  17.614  42.481  11.546
 4368W        W76793   6.681   5.926  13.943
 4369W        W76794  14.717  19.057  14.919
 4370W        W76795  30.614  19.647   2.263
 4371W        W76796  33.001  33.615   2.673
 4372W        W76797  17.789  30.018   1.849
 4373W        W76798  44.300  17.603   0.366
 4374W        W76799  11.255   5.401  13.383
 4375W        W76800   4.384  43.932  11.593
 4376W        W76801  34.898  31.900   4.689
 4377W        W76802   2.301   1.263  12.823
 4378W        W76803  30.543  24.218   1.354
 4379W        W76804  34.975  10.242  13.877
 4380W        W76805  12.135  20.596   0.341
 4381W        W76806  38.422  35.968   0.380
 4382W        W76807   7.709  11.149  10.919
 4383W        W76808  26.056   8.396  13.873
 4384W        W76809  38.964  42.895   0.954
 4385W        W76810   9.238  18.635   2.729
 4386W        W76811  14.632  33.876  11.384
 4387W        W76812  43.389  41.415   0.965
 4388W        W76813   8.854  15.578   4.163
 4389W        W76814  25.647  25.024  12.354
 4390W        W76815  44.936  16.105   0.318
 4391W        W76816  36.445  35.856   1.807
 4392W        W76817  19.550  11.627  12.948
 4393W        W76818  11.700  43.799  14.383
 4394W        W76819  25.206  28.027  14.833
 4395W        W76820  16.592   5.306   4.194
 4396W        W76821  19.676  23.685   4.213
 4397W        W76822  21.655  12.174   4.248
 4398W        W76823  26.593  25.590  11.110
 4399W        W76824  26.978  26.108  10.480
 4400W        W76825  35.054  31.997   3.834
 4401W        W76826   9.829  10.720  13.027
 4402W        W76827  11.805   9.149  12.342
 4403W        W76828  12.823  26.516  12.921
 4404W        W76829  15.206  16.770  11.974
 4405W        W76830  16.223   7.396   1.369
 4406W        W76831  13.342  31.500   0.775
 4407W        W76832  32.424  30.149  12.933
 4408W        W76833  13.668  26.664  11.951
 4409W        W76834  10.760  10.212  10.131
 4410W        W76835  31.925  17.134   3.275
 4411W        W76836   9.658  14.754   0.777
 4412W        W76837  25.965  32.088   2.244
 4413W        W76838  38.390  31.641   1.894
 4414W        W76839   4.373  30.443   3.256
 4415W        W76840  15.104   8.703  12.407
 4416W        W76841  21.630  44.435   2.731
 4417W        W76842  11.722  35.433   2.784
 4418W        W76843   4.401   7.252   1.421
 4419W        W76844  33.465  37.989   2.280
 4420W        W76845  28.117  38.457   3.833
 4421W        W76846   9.266  31.002   2.219
 4422W        W76847  43.916  25.703  12.532
 4423W        W76848  39.462  27.176  13.368
 4424W        W76849  12.300  23.112   1.699
 4425W        W76850  18.239  36.068  11.894
 4426W        W76851  13.631  14.294   4.682
 4427W        W76852   9.693  40.935   0.252
 4428W        W76853  42.809  29.604  11.968
 4429W        W76854  20.179  28.625   1.860
 4430W        W76855  30.635  26.163  14.943
 4431W        W76856  36.537   3.282   3.171
 4432W        W76857  33.412  34.586  14.015
 4433W        W76858  39.882  16.225  10.979
 4434W        W76859  43.443  11.297  11.581
 4435W        W76860   6.685   3.954   4.659
 4436W        W76861  29.148  39.440  13.017
 4437W        W76862   9.690   7.412   3.329
 4438W        W76863  15.622  33.451  12.529
 4439W        W76864  12.829  30.451  12.915
 4440W        W76865  25.190  14.639  10.607
 4441W        W76866  22.611  24.074   3.656
 4442W        W76867  32.527  19.075  12.860
 4443W        W76868  39.517   0.871   3.323
 4444W        W76869  40.038  40.449   4.353
 4445W        W76870  17.281  41.461  11.561
 4446W        W76871  10.260  39.907   3.759
 4447W        W76872  16.748  23.672   0.727
 4448W        W76873  26.956   3.237   4.626
 4449W        W76874   3.826  24.516  10.925
 4450W        W76875  28.084   5.230  10.962
 4451W        W76876  24.008  31.914  12.361
 4452W        W76877   4.759   2.388   1.246
 4453W        W76878  15.242  42.882  14.430
 4454W        W76879  21.645  40.478  12.386
 4455W        W76880  31.448  43.364   0.412
 4456W        W76881  10.766  33.042  13.041
 4457W        W76882  14.138  32.071   0.865
 4458W        W76883  43.351  27.683  13.805
 4459W        W76884  15.774  14.203   1.699
 4460W        W76885  27.125  20.580  14.376
 4461W        W76886  42.326  10.710   3.846
 4462W        W76887  10.715   1.460  12.081
 4463W        W76888   0.882  43.939  14.391
 4464W        W76889  35.866  40.373  10.459
 4465W        W76890  16.744  28.988   1.783
 4466W        W76891  18.055  21.233  13.501
 4467W        W76892  35.066   6.857   2.207
 4468W        W76893  41.923   2.776   0.749
 4469W        W76894  38.446  26.683   4.713
 4470W        W76895  15.218   5.359   3.225
 4471W        W76896  15.243   1.756  14.764
 4472W        W76897  15.131  23.016   3.757
 4473W        W76898  16.222   9.815  13.503
 4474W        W76899  21.101  15.227   0.369
 4475W        W76900  13.215  44.299  13.362
 4476W        W76901  18.149  18.744  13.936
 4477W        W76902  10.194  12.305  13.345
 4478W        W76903  15.306   2.832   3.166
 4479W        W76904  23.062  37.871   0.448
 4480W        W76905  16.659  16.271   4.742
 4481W        W76906  15.664  40.868   1.393
 4482W        W76907   4.413   8.315  13.972
 4483W        W76908  34.521  29.578  10.590
 4484W        W76909  10.763  16.750  12.480
 4485W        W76910   0.902  27.589  12.546
 4486W        W76911   5.282   6.854  11.436
 4487W        W76912  27.679  33.569   3.253
 4488W        W76913   9.843   8.876   9.626
 4489W        W76914  32.490  36.043  11.414
 4490W        W76915  11.837  25.610   0.299
 4491W        W76916  26.698  32.018   0.857
 4492W        W76917   1.470   9.769   0.352
 4493W        W76918  43.275  17.195   3.154
 4494W        W76919   3.902  28.546   3.296
 4495W        W76920  21.103  32.978  14.758
 4496W        W76921  26.465  36.060   4.626
 4497W        W76922  31.634   4.763   2.702
 4498W        W76923  13.322  29.008  13.435
 4499W        W76924  37.504  12.281  14.378
 4500W        W76925  11.860   6.246  13.386
 4501W        W76926   4.404  15.300  14.295
 4502W        W76927  13.216  10.757   2.267
 4503W        W76928   5.267  31.077   3.681
 4504W        W76929  36.842  24.686  10.515
 4505W        W76930   8.889  10.660   2.353
 4506W        W76931  15.142   8.272   0.888
 4507W        W76932  38.393  13.732  12.419
 4508W        W76933  30.569  37.365  14.287
 4509W        W76934   5.385  21.733   1.380
 4510W        W76935  11.148  16.791  11.891
 4511W        W76936  29.428   5.763   0.349
 4512W        W76937  18.197  18.234   0.756
 4513W        W76938  41.950  24.649   4.621
 4514W        W76939  40.909  16.075   4.234
 4515W        W76940   8.676  31.542  12.836
 4516W        W76941  43.774   3.890   0.801
 4517W        W76942   8.657  21.211  11.998
 4518W        W76943  34.017  17.674  10.423
 4519W        W76944  18.135  40.373  12.921
 4520W        W76945   6.705  38.483  13.859
 4521W        W76946  11.814  11.245   1.881
 4522W        W76947  23.667   5.272   4.805
 4523W        W76948  23.076  33.506  11.373
 4524W        W76949  37.049  32.965   2.398
 4525W        W76950  18.554   7.756   4.353
 4526W        W76951  40.911  28.518  12.355
 4527W        W76952  24.220  34.900  10.067
 4528W        W76953  40.377  36.442   4.704
 4529W        W76954  32.967   6.789   4.822
 4530W        W76955   8.751  40.942  13.528
 4531W        W76956  43.869  22.020   2.806
 4532W        W76957   3.906   3.894  12.906
 4533W        W76958  14.316  36.025   2.724
 4534W        W76959  22.632  23.507   5.107
 4535W        W76960   1.344  34.512   1.883
 4536W        W76961  36.084  25.147   1.369
 4537W        W76962   0.374  30.436  12.874
 4538W        W76963  32.442  20.080   4.822
 4539W        W76964   4.745  32.952  11.064
 4540W        W76965  40.045   7.178   2.331
 4541W        W76966  25.207  12.758   1.390
 4542W        W76967  37.574  19.132  14.023
 4543W        W76968  40.407  26.005   2.354
 4544W        W76969  18.582  10.759   1.354
 4545W        W76970  29.593  15.801  11.555
 4546W        W76971   1.785  34.110  13.410
 4547W        W76972  13.678   5.255   0.311
 4548W        W76973  23.170  17.797  12.364
 4549W        W76974  31.472   2.312  11.434
 4550W        W76975  19.565   6.884  14.308
 4551W        W76976  32.628   0.293  14.946
 4552W        W76977  40.041  20.734  14.280
 4553W        W76978   7.713   1.310   3.716
 4554W        W76979  22.731  12.316  12.435
 4555W        W76980   9.836  26.110  10.593
 4556W        W76981  16.171  18.176  10.462
 4557W        W76982   0.481  16.258  12.967
 4558W        W76983   3.806  38.370  10.456
 4559W        W76984  26.685  34.052   2.666
 4560W        W76985  22.648  33.048   0.941
 4561W        W76986  39.815  25.509  13.995
 4562W        W76987  15.313  38.538   2.307
 4563W        W76988   2.869  10.348  10.432
 4564W        W76989  15.728   3.279   1.837
 4565W        W76990   5.763  19.566   3.197
 4566W        W76991  40.003  21.600   1.327
 4567W        W76992  43.770  39.476   1.280
 4568W        W76993  13.610   7.376  13.524
 4569W        W76994  33.940  20.197   4.832
 4570W        W76995  31.967  26.144  11.066
 4571W        W76996   4.266  33.965   3.779
 4572W        W76997  19.678  19.127   0.336
 4573W        W76998  10.702  15.661   4.352
 4574W        W76999  13.310  43.355  13.449
 4575W        W77000   3.921  44.357   4.709
 4576W        W77001  12.631   7.875  12.993
 4577W        W77002  18.675   3.269   3.349
 4578W        W77003  43.456  24.038  10.906
 4579W        W77004  36.484  12.216   1.354
 4580W        W77005  15.235  14.336   1.845
 4581W        W77006  16.714   1.813  14.018
 4582W        W77007  39.513  41.998   1.271
 4583W        W77008  41.921  18.223  10.570
 4584W        W77009  14.780  12.725   4.786
 4585W        W77010  40.493  44.479   2.395
 4586W        W77011  44.402  33.050   2.678
 4587W        W77012  36.501  23.130  11.399
 4588W        W77013  13.281   3.284   1.300
 4589W        W77014   3.890  37.899  11.116
 4590W        W77015  44.753  33.590  14.512
 4591W        W77016  28.495   2.784   3.781
 4592W        W77017  17.178  20.153  14.807
 4593W        W77018  34.556   0.984  13.951
 4594W        W77019  34.553   5.326  12.551
 4595W        W77020  38.348  43.785   0.354
 4596W        W77021  23.599  24.598   0.383
 4597W        W77022  31.939  13.163   1.709
 4598W        W77023  19.696   8.397  14.479
 4599W        W77024  33.432  27.078   3.855
 4600W        W77025  43.345   4.714  13.412
 4601W        W77026  29.024  22.659   3.641
 4602W        W77027  27.076  31.504  12.373
 4603W        W77028  44.324  30.595  14.769
 4604W        W77029   8.775  23.604   1.876
 4605W        W77030  25.626   6.266   3.149
 4606W        W77031  39.060  35.508   3.281
 4607W        W77032  11.726  22.006   0.314
 4608W        W77033  21.526  24.524  14.918
 4609W        W77034  28.571  23.596  13.810
 4610W        W77035  35.920   5.336  14.453
 4611W        W77036  14.642  34.449   1.270
 4612W        W77037  35.500  16.795  12.503
 4613W        W77038  23.992   9.837  13.046
 4614W        W77039   1.436  39.424  13.865
 4615W        W77040  27.625  26.146   1.316
 4616W        W77041  37.341  44.310  12.826
 4617W        W77042   2.937   1.799   4.633
 4618W        W77043   7.191  16.605   4.669
 4619W        W77044  36.874  14.628   4.737
 4620W        W77045  38.829   4.414   4.618
 4621W        W77046   8.768  38.845  13.442
 4622W        W77047   5.294  10.774   1.216
 4623W        W77048  20.145  36.942  10.541
 4624W        W77049  42.323  17.647   3.369
 4625W        W77050  43.911  29.143   4.181
 4626W        W77051  24.488  12.735  13.841
 4627W        W77052  24.989  42.330   2.715
 4628W        W77053  26.666   8.170  11.571
 4629W        W77054  27.635   0.447  11.860
 4630W        W77055  38.349  36.082  12.488
 4631W        W77056   7.247  26.612  11.959
 4632W        W77057  32.523  30.032   1.308
 4633W        W77058  33.559  13.694  10.616
 4634W        W77059   5.434  14.196   3.800
 4635W        W77060  41.339  44.423   2.670
 4636W        W77061   6.194  33.966   0.862
 4637W        W77062  42.366  16.187   3.658
 4638W        W77063  17.294  38.038   3.172
 4639W        W77064   6.317  25.101   1.707
 4640W        W77065   6.374  23.676  10.643
 4641W        W77066  19.098  10.735  14.335
 4642W        W77067   5.866   8.813  13.813
 4643W        W77068  31.530   4.255  11.068
 4644W        W77069   7.345  43.967  10.568
 4645W        W77070   3.283   6.249   3.213
 4646W        W77071  43.007  42.888   1.896
 4647W        W77072  31.975   4.262  13.011
 4648W        W77073  18.734  18.721  11.045
 4649W        W77074  12.812   2.280  13.003
 4650W        W77075  42.369  39.856  14.404
 4651W        W77076  36.501  13.739   2.838
 4652W        W77077  41.000   5.722   4.184
 4653W        W77078  43.474  19.282   4.720
 4654W        W77079  40.921  20.158   0.759
 4655W        W77080  37.010  23.600  10.540
 4656W        W77081  33.470  19.170  11.546
 4657W        W77082  12.765   9.645  13.542
 4658W        W77083  41.948  37.534  13.377
 4659W        W77084  27.625  24.169   4.157
 4660W        W77085  25.180  11.246  11.883
 4661W        W77086  39.537   8.364  13.024
 4662W        W77087  27.452   7.822  10.596
 4663W        W77088   5.241  24.513  14.427
 4664W        W77089  37.454  38.543  10.563
 4665W        W77090  21.244  19.777   2.193
 4666W        W77091  18.120   2.763   2.319
 4667W        W77092   7.402  19.583   2.395
 4668W        W77093  39.965  26.047  10.434
 4669W        W77094  35.598  24.060   1.356
 4670W        W77095   7.806  43.419   2.293
 4671W        W77096  15.134  15.675  13.431
 4672W        W77097  39.018  18.289   1.796
 4673W        W77098   3.730   5.232  13.936
 4674W        W77099  17.199   4.732   1.309
 4675W        W77100  16.117  10.161  14.895
 4676W        W77101  19.182  11.708   0.964
 4677W        W77102   6.849  19.270   3.633
 4678W        W77103  12.332  10.664  10.490
 4679W        W77104   8.898  26.569   2.781
 4680W        W77105   1.969   4.915   4.629
 4681W        W77106  18.177  31.417   1.792
 4682W        W77107  31.138  37.575   3.827
 4683W        W77108  16.695  36.904   2.871
 4684W        W77109   7.394   1.285   4.284
 4685W        W77110  10.190  35.441  11.432
 4686W        W77111  43.405  34.894   2.348
 4687W        W77112  31.454  37.916  13.040
 4688W        W77113   5.390   1.751  14.824
 4689W        W77114  39.471  17.727   0.778
 4690W        W77115  35.856  32.899   3.862
 4691W        W77116  20.762   1.347   3.756
 4692W        W77117  29.470  30.636  10.986
 4693W        W77118  44.272   9.766  12.950
 4694W        W77119   8.273  23.232   1.337
 4695W        W77120  21.124  25.631  12.501
 4696W        W77121  16.773   1.856  11.025
 4697W        W77122   0.979  26.070  11.606
 4698W        W77123  10.870   6.802   5.754
 4699W        W77124   8.879  30.922  12.946
 4700W        W77125  31.426  30.086  12.910
 4701W        W77126  35.477  17.149  10.923
 4702W        W77127  24.156   1.785   3.261
 4703W        W77128   7.804   7.273   5.307
 4704W        W77129  31.598  34.894  10.514
 4705W        W77130  38.008  14.665   4.667
 4706W        W77131  10.192  32.989  12.071
 4707W        W77132  10.221  41.469  10.053
 4708W        W77133   3.909  27.976  10.998
 4709W        W77134  20.208  13.175  13.031
 4710W        W77135   0.350  10.812   1.267
 4711W        W77136  32.430   2.936   4.288
 4712W        W77137  41.965  33.128  11.545
 4713W        W77138  12.307  21.724   1.866
 4714W        W77139  39.392  12.703   1.289
 4715W        W77140  41.401  42.971  11.958
 4716W        W77141  36.487  31.439   0.960
 4717W        W77142  36.378  24.653  14.839
 4718W        W77143  22.184  26.017  13.052
 4719W        W77144  36.040  20.082   5.211
 4720W        W77145  43.499  37.023  12.831
 4721W        W77146  37.970  28.554  12.343
 4722W        W77147  42.474  15.648   2.722
 4723W        W77148  20.665  13.294  10.419
 4724W        W77149  16.223   0.744  14.287
 4725W        W77150  11.258  24.634  13.929
 4726W        W77151  18.620   0.916   5.191
 4727W        W77152   1.460  25.653   1.882
 4728W        W77153  43.422  20.588  14.437
 4729W        W77154  23.711  16.619   1.913
 4730W        W77155  17.675  39.363   4.677
 4731W        W77156  29.628  33.947  10.456
 4732W        W77157  40.453  26.595   5.166
 4733W        W77158   5.916   4.436   0.769
 4734W        W77159  28.068  36.942  11.517
 4735W        W77160   1.829   9.290   2.190
 4736W        W77161  43.282  28.545  13.534
 4737W        W77162   0.485  15.699  13.843
 4738W        W77163  10.320  42.846  12.823
 4739W        W77164  23.654  17.166   4.720
 4740W        W77165   1.755  36.844  12.913
 4741W        W77166  30.563  17.751   3.255
 4742W        W77167  34.482  21.020  11.585
 4743W        W77168  36.013  25.657   4.247
 4744W        W77169  42.427  22.736  12.452
 4745W        W77170  21.718  11.220   4.649
 4746W        W77171  15.120  25.176   3.663
 4747W        W77172  40.861  15.204   0.879
 4748W        W77173   1.383   1.840  10.429
 4749W        W77174   0.360  33.521   1.824
 4750W        W77175   7.786  34.405  10.518
 4751W        W77176  16.080  37.880  10.419
 4752W        W77177  39.048  38.536   1.391
 4753W        W77178  17.783  21.757   1.810
 4754W        W77179  33.515  28.575  13.325
 4755W        W77180  28.440  32.963  12.982
 4756W        W77181  35.952  38.027  14.020
 4757W        W77182   1.777  21.089   1.918
 4758W        W77183  31.920  29.059  14.934
 4759W        W77184  23.166   0.899  11.599
 4760W        W77185   3.327  42.834   3.816
 4761W        W77186  38.394   5.236  14.872
 4762W        W77187  43.987  39.462  12.922
 4763W        W77188  25.034   4.414  14.960
 4764W        W77189  37.852  40.376  13.408
 4765W        W77190  36.425  16.810  14.426
 4766W        W77191   8.696   1.854  12.092
 4767W        W77192   7.186  30.454   0.483
 4768W        W77193   9.719  37.468  14.991
 4769W        W77194   7.868  34.870   0.440
 4770W        W77195  39.364   2.429   3.376
 4771W        W77196  25.046   4.888   0.356
 4772W        W77197  15.275   6.317  12.006
 4773W        W77198   8.393  42.999  12.002
 4774W        W77199  16.089  39.817  12.863
 4775W        W77200  26.974  12.118   0.356
 4776W        W77201   3.427  37.561  12.429
 4777W        W77202  41.848  26.661  14.490
 4778W        W77203  35.371  37.836   0.818
 4779W        W77204   0.804   4.718   4.129
 4780W        W77205  39.390   1.306  14.851
 4781W        W77206   4.770   6.680  11.869
 4782W        W77207  11.160  23.546   3.835
 4783W        W77208  42.445  21.169   0.451
 4784W        W77209  32.497  34.524   3.150
 4785W        W77210  39.006   5.292  13.340
 4786W        W77211  32.115   5.248  10.431
 4787W        W77212  42.514  35.510   2.819
 4788W        W77213  30.140  14.637  10.986
 4789W        W77214  19.269  43.913   4.819
 4790W        W77215  43.849   9.188  10.609
 4791W        W77216   9.845  10.299  12.025
 4792W        W77217  32.092  32.558  13.937
 4793W        W77218  19.186  20.602   4.331
 4794W        W77219  40.840  33.444   1.430
 4795W        W77220  42.297  36.894   2.757
 4796W        W77221  34.526  31.522   2.338
 4797W        W77222  25.621  36.441  11.958
 4798W        W77223  27.965  20.561   2.773
 4799W        W77224  15.614   5.259   3.228
 4800W        W77225   9.876  40.434   1.275
 4801W        W77226  38.368  15.798  11.887
 4802W        W77227  12.129  24.170  12.084
 4803W        W77228  38.566  44.494   3.666
 4804W        W77229  36.445  15.744   2.413
 4805W        W77230  37.874  37.401  13.497
 4806W        W77231  21.542  35.877  10.089
 4807W        W77232   8.163   2.799  10.407
 4808W        W77233   6.219  18.712   0.782
 4809W        W77234   3.769  39.330   4.727
 4810W        W77235  17.124  21.179   0.268
 4811W        W77236   5.276  20.248   4.289
 4812W        W77237  33.408  28.526   0.436
 4813W        W77238  12.288  16.806  11.971
 4814W        W77239  36.383  16.277   2.213
 4815W        W77240  32.617  20.663   2.264
 4816W        W77241  25.654  30.026  12.963
 4817W        W77242  27.507  32.059  13.899
 4818W        W77243   5.822  29.533  10.975
 4819W        W77244  33.495   7.788  12.459
 4820W        W77245  33.041   8.724  10.971
 4821W        W77246   3.218  35.031   0.898
 4822W        W77247  27.961  27.484   0.757
 4823W        W77248  16.635  43.899  13.847
 4824W        W77249  19.602  20.193   0.738
 4825W        W77250  23.713  40.445   3.865
 4826W        W77251  37.034  31.907   3.174
 4827W        W77252   0.980  40.467  13.939
 4828W        W77253   5.740  42.431   0.820
 4829W        W77254  27.168  26.970   0.816
 4830W        W77255  21.631  32.062   4.636
 4831W        W77256  40.018  20.151   2.789
 4832W        W77257  39.397  32.106  13.431
 4833W        W77258  20.132  27.159   4.171
 4834W        W77259   1.327   3.454   0.285
 4835W        W77260   1.853   1.865   0.782
 4836W        W77261  14.755  21.095   1.699
 4837W        W77262  37.036  26.052   0.243
 4838W        W77263  40.972  19.080  14.315
 4839W        W77264  31.028   7.402   3.831
 4840W        W77265  39.876  24.542   2.261
 4841W        W77266  10.797  15.288  10.578
 4842W        W77267  43.998  10.694  13.334
 4843W        W77268   9.175   3.944  12.341
 4844W        W77269  37.902  42.437  12.361
 4845W        W77270  24.132  40.893  14.002
 4846W        W77271  16.216  11.774  11.438
 4847W        W77272  28.052  38.973   3.236
 4848W        W77273   9.878   0.851   4.174
 4849W        W77274   6.289  23.721  13.867
 4850W        W77275   6.306  10.358   1.442
 4851W        W77276  28.069  20.239   3.661
 4852W        W77277   5.919  39.494   3.727
 4853W        W77278  11.347   3.430   3.317
 4854W        W77279  16.204  32.970  13.410
 4855W        W77280   8.727  27.530  10.639
 4856W        W77281   7.237  42.013   2.753
 4857W        W77282  34.585  28.986   1.912
 4858W        W77283  19.147  22.143  11.117
 4859W        W77284  22.735  30.554   0.838
 4860W        W77285  33.549   7.802   2.727
 4861W        W77286   6.910  24.643   1.300
 4862W        W77287  25.062   4.352  11.956
 4863W        W77288  40.339  30.156  13.982
 4864W        W77289  27.024  16.678  13.969
 4865W        W77290  24.645   4.749  11.876
 4866W        W77291  30.583  15.161  12.902
 4867W        W77292  43.356   0.838  11.423
 4868W        W77293  38.006  31.121  14.890
 4869W        W77294  25.622  40.477  10.060
 4870W        W77295  15.684  11.251  11.978
 4871W        W77296  28.543  42.825   2.787
 4872W        W77297  30.143  43.491  10.614
 4873W        W77298  29.566  41.856   4.135
 4874W        W77299  13.767   6.812  10.586
 4875W        W77300  25.592  35.878   1.714
 4876W        W77301  18.178  23.728  10.892
 4877W        W77302  30.950  41.941   1.308
 4878W        W77303  30.564  44.930  13.793
 4879W        W77304   7.757  27.552  14.805
 4880W        W77305  24.203  33.953  14.473
 4881W        W77306  19.776  34.895   0.346
 4882W        W77307  21.755  34.872   1.926
 4883W        W77308  42.821  31.407   2.750
 4884W        W77309  16.092  25.616  14.312
 4885W        W77310  22.081  26.629   3.199
 4886W        W77311  22.107   8.395  12.532
 4887W        W77312  29.511  15.716  14.411
 4888W        W77313  22.227  26.117  14.361
 4889W        W77314  14.333  24.493   5.152
 4890W        W77315  28.507  17.187  13.396
 4891W        W77316  23.734  19.191   2.803
 4892W        W77317  16.651  44.278   3.191
 4893W        W77318  32.443  35.872   4.123
 4894W        W77319   6.796  26.598  14.339
 4895W        W77320  22.151  23.111   0.732
 4896W        W77321  37.953  10.279   0.422
 4897W        W77322  33.082  32.534   3.367
 4898W        W77323   8.377  40.313  11.555
 4899W        W77324   6.389  26.567  11.934
 4900W        W77325  36.560  36.481  12.093
 4901W        W77326   4.711   4.211  12.906
 4902W        W77327  15.283   8.240   3.637
 4903W        W77328  34.115  17.607   0.816
 4904W        W77329  36.446  26.139   3.213
 4905W        W77330  13.277  29.978  14.018
 4906W        W77331  13.195  29.426   1.799
 4907W        W77332  41.920  16.689  13.473
 4908W        W77333  25.144  28.439   4.834
 4909W        W77334   2.879  37.383  12.893
 4910W        W77335  10.782  43.422  14.948
 4911W        W77336  43.370  36.982   1.435
 4912W        W77337  37.382  26.599   3.290
 4913W        W77338  12.618  22.616   1.424
 4914W        W77339  32.405   2.826   0.866
 4915W        W77340  11.836  12.309  10.573
 4916W        W77341  44.388  11.156  12.912
 4917W        W77342  34.112  29.669  11.891
 4918W        W77343  19.218  14.291   3.777
 4919W        W77344  36.360   2.462   1.808
 4920W        W77345  18.587  23.011  13.995
 4921W        W77346   6.757  35.073   2.686
 4922W        W77347   8.842  37.485  11.524
 4923W        W77348  16.145   1.281  10.477
 4924W        W77349  34.388  20.619   1.298
 4925W        W77350  30.476   5.252  14.858
 4926W        W77351  12.791  22.676  12.537
 4927W        W77352   4.781  14.779   4.322
 4928W        W77353  37.020  15.583   2.262
 4929W        W77354  23.984   9.717  13.871
 4930W        W77355  23.121  22.741   2.349
 4931W        W77356  15.220  44.358   1.368
 4932W        W77357  18.568  10.814   4.712
 4933W        W77358  12.272  19.265  12.897
 4934W        W77359  10.223  19.583   5.270
 4935W        W77360   8.353  18.264  10.979
 4936W        W77361  32.410  42.854  13.990
 4937W        W77362   4.712  11.652   4.813
 4938W        W77363   7.784  40.807   3.765
 4939W        W77364  35.509   9.843   1.271
 4940W        W77365  44.385  35.075  14.463
 4941W        W77366   9.728  29.132   3.730
 4942W        W77367   8.340   9.186   1.765
 4943W        W77368  12.136  31.966   0.730
 4944W        W77369  13.176  30.096  11.069
 4945W        W77370  26.193  40.444  13.395
 4946W        W77371  17.656   0.298   0.760
 4947W        W77372  18.248  31.015   1.747
 4948W        W77373   2.894   2.780  11.011
 4949W        W77374   3.773   4.397   4.800
 4950W        W77375  43.963   2.853   4.758
 4951W        W77376  20.131  32.129  11.100
 4952W        W77377  13.699  12.339  12.949
 4953W        W77378  10.732  38.529   0.744
 4954W        W77379  36.519  10.256  11.885
 4955W        W77380  35.911  19.602  10.939
 4956W        W77381   5.406  21.056   0.873
 4957W        W77382  26.576   5.354  12.525
 4958W        W77383  38.552  23.519  10.440
 4959W        W77384   8.742   0.443  12.852
 4960W        W77385  44.817   3.370  13.044
 4961W        W77386  22.537  20.589  10.604
 4962W        W77387  42.310   1.949   1.342
 4963W        W77388   1.273  15.719  14.015
 4964W        W77389  38.028  35.373   4.143
 4965W        W77390  41.394   1.782  11.494
 4966W        W77391  15.648   1.322  13.384
 4967W        W77392  26.692   9.803  13.049
 4968W        W77393  13.684  25.189  10.557
 4969W        W77394  29.051  36.461  11.022
 4970W        W77395  16.699  25.658   2.699
 4971W        W77396  41.929  30.156   4.795
 4972W        W77397  21.747  36.046  12.459
 4973W        W77398  19.245  14.113  10.916
 4974W        W77399   0.399   4.432  11.983
 4975W        W77400  12.276  15.748  14.378
 4976W        W77401  15.758  34.463  10.091
 4977W        W77402   2.464  20.684   2.370
 4978W        W77403  38.831  29.965  13.504
 4979W        W77404   9.167  32.989  13.481
 4980W        W77405  16.195   1.352  12.964
 4981W        W77406  37.468  35.105   5.110
 4982W        W77407  19.548  26.519   1.285
 4983W        W77408  32.395  29.940  10.615
 4984W        W77409  10.814  22.032  14.855
 4985W        W77410  42.395   7.772  13.843
 4986W        W77411  38.346  17.212   4.731
 4987W        W77412  31.006  36.911   1.903
 4988W        W77413  27.623  21.196  12.378
 4989W        W77414  17.633  15.628  10.591
 4990W        W77415   7.401  28.089  10.433
 4991W        W77416   7.194  39.402   2.412
 4992W        W77417  18.696  31.639  12.532
 4993W        W77418  11.654  10.736  10.965
 4994W        W77419  30.599  25.009  11.049
 4995W        W77420  21.038  24.509   1.350
 4996W        W77421  32.490   0.263   1.856
 4997W        W77422  33.485  38.961  13.433
 4998W        W77423  33.887  14.773  13.455
 4999W        W77424   6.696  37.577  14.360
 5000W        W77425   8.169  31.088   0.363
 5001W        W77426  21.242  13.124  10.631
 5002W        W77427  32.517  41.350  14.403
 5003W        W77428  23.521  14.667  13.834
 5004W        W77429   9.263  24.108   2.884
 5005W        W77430  12.356   5.358  12.518
 5006W        W77431  21.149  17.142   4.335
 5007W        W77432  36.479  25.088  12.536
 5008W        W77433  32.522  44.334  12.484
 5009W        W77434  24.192   5.421   3.644
 5010W        W77435  43.384  32.941   4.827
 5011W        W77436  20.136   7.243   3.856
 5012W        W77437   8.873  44.853   2.688
 5013W        W77438   0.419  32.903   2.884
 5014W        W77439  34.398   3.433  12.021
 5015W        W77440  43.269  31.945  14.930
 5016W        W77441   2.434   5.266   2.337
 5017W        W77442  38.018  18.123   1.326
 5018W        W77443  23.027  29.598  13.046
 5019W        W77444  21.150  26.574   0.435
 5020W        W77445  37.973  32.030   2.696
 5021W        W77446  38.466   1.370   2.308
 5022W        W77447   4.732   2.259   2.203
 5023W        W77448  12.777  21.126   2.731
 5024W        W77449  16.157   7.797  13.472
 5025W        W77450  12.265  11.148  12.384
 5026W        W77451  24.617   5.375   2.188
 5027W        W77452  38.409  36.347   3.295
 5028W        W77453  18.622  38.330   2.663
 5029W        W77454   3.306   2.752  11.587
 5030W        W77455  43.475  23.657  11.516
 5031W        W77456  22.539  20.563   0.867
 5032W        W77457  18.154   5.348   3.229
 5033W        W77458  10.872   5.766   3.832
 5034W        W77459   8.254  40.466  14.996
 5035W        W77460  41.446   5.411   1.358
 5036W        W77461  32.907  24.675  10.579
 5037W        W77462  18.766  21.201   3.802
 5038W        W77463   6.677  28.519   2.341
 5039W        W77464  15.625  20.047  14.291
 5040W        W77465  35.523  18.091  12.876
 5041W        W77466  31.045  32.112   3.380
 5042W        W77467   6.396  31.648   1.224
 5043W        W77468  25.697  23.989   0.484
 5044W        W77469  30.909   6.349   0.443
 5045W        W77470  25.567   1.931  10.938
 5046W        W77471   9.780  16.774   4.173
 5047W        W77472   3.857  37.550   3.166
 5048W        W77473   5.242  12.828   0.364
 5049W        W77474  13.214  20.760   4.308
 5050W        W77475  21.681  37.877   0.333
 5051W        W77476  22.567   3.231   5.245
 5052W        W77477   2.931  18.163  10.434
 5053W        W77478  11.239  13.667   1.874
 5054W        W77479   9.863  31.410   4.664
 5055W        W77480  20.612  15.819  12.499
 5056W        W77481  19.672  14.258   3.870
 5057W        W77482  31.493  27.117  13.826
 5058W        W77483  37.839  29.940  11.443
 5059W        W77484   8.218  21.646   4.148
 5060W        W77485  22.018  39.397  12.058
 5061W        W77486  18.572  29.017   5.309
 5062W        W77487  37.912   5.204   3.747
 5063W        W77488  22.546  37.048   3.237
 5064W        W77489  33.383   9.814   4.147
 5065W        W77490  42.935  22.712  12.858
 5066W        W77491  17.240  19.117   1.224
 5067W        W77492  44.477  24.213  14.448
 5068W        W77493  23.161  24.509   1.238
 5069W        W77494  38.026  22.606   0.884
 5070W        W77495  25.077  27.000  11.122
 5071W        W77496  39.923  35.095   4.720
 5072W        W77497  41.000  39.548   2.678
 5073W        W77498  40.434  27.578   4.116
 5074W        W77499  22.177  21.757  14.014
 5075W        W77500  14.599   1.763   2.682
 5076W        W77501  18.096  23.681   3.691
 5077W        W77502  37.961  41.328  11.959
 5078W        W77503  36.880  18.100   0.474
 5079W        W77504  42.489  28.943  14.901
 5080W        W77505  11.712   9.215   4.177
 5081W        W77506  26.160  44.995  11.455
 5082W        W77507  25.481  33.116   2.687
 5083W        W77508  35.525  29.966  13.394
 5084W        W77509  35.525  27.492  12.386
 5085W        W77510  38.341   0.791   0.419
 5086W        W77511  23.518   1.377   3.733
 5087W        W77512  12.817  43.957   4.224
 5088W        W77513   2.443  35.084  10.566
 5089W        W77514  21.138  14.260   1.757
 5090W        W77515  33.019   9.695  11.450
 5091W        W77516   5.878  37.424  13.358
 5092W        W77517  18.136   2.757  12.473
 5093W        W77518  43.416  33.126   3.189
 5094W        W77519  18.083   4.910   3.705
 5095W        W77520  27.965  14.141  13.923
 5096W        W77521  37.522  41.357   1.700
 5097W        W77522  25.641  26.538  14.817
 5098W        W77523  40.947   5.825  14.310
 5099W        W77524  20.183   8.393  10.636
 5100W        W77525  30.048   1.954  13.985
 5101W        W77526   2.316  28.960   4.232
 5102W        W77527  18.623  43.480   3.183
 5103W        W77528  42.999  34.385   4.175
 5104W        W77529  14.665  28.620  11.498
 5105W        W77530  40.004  14.647  13.839
 5106W        W77531  10.673  13.793   1.338
 5107W        W77532   0.475  22.729  13.471
 5108W        W77533  33.498  14.159   2.675
 5109W        W77534  33.950  39.446  10.969
 5110W        W77535  44.909  17.709  14.467
 5111W        W77536  15.753  25.611  13.056
 5112W        W77537   6.276  27.116   4.299
 5113W        W77538  42.489  36.021   3.696
 5114W        W77539  39.929  21.157   4.627
 5115W        W77540  25.479  17.232  11.913
 5116W        W77541   8.853  40.951  14.391
 5117W        W77542  40.356   6.836  11.396
 5118W        W77543  27.545   6.893   1.858
 5119W        W77544  26.028  33.609  13.346
 5120W        W77545  38.909  26.062   2.851
 5121W        W77546  15.309  13.339   0.842
 5122W        W77547  14.238  31.055  14.864
 5123W        W77548  21.561   9.240  12.079
 5124W        W77549  38.523   4.744  13.811
 5125W        W77550   9.253   7.237  14.323
 5126W        W77551   0.490  20.696   3.359
 5127W        W77552  32.946  20.084   4.604
 5128W        W77553   8.393  12.221   1.430
 5129W        W77554  21.537  11.370  13.901
 5130W        W77555  19.682  43.928   2.375
 5131W        W77556  43.992   5.273  11.119
 5132W        W77557  29.101  31.546   1.401
 5133W        W77558  25.091  15.758  13.494
 5134W        W77559  31.116  43.485   3.811
 5135W        W77560  17.799  33.123   2.684
 5136W        W77561   7.872  16.605   2.700
 5137W        W77562   4.228  17.684  13.349
 5138W        W77563  42.985   8.697  12.412
 5139W        W77564   6.201  34.407  14.323
 5140W        W77565  28.186   2.771  14.880
 5141W        W77566  23.146  16.263   1.779
 5142W        W77567  19.586  43.916   1.234
 5143W        W77568  40.878   7.732  11.071
 5144W        W77569  23.719   6.414  11.938
 5145W        W77570  20.723   6.707  10.432
 5146W        W77571  35.994   1.853   2.186
 5147W        W77572  41.405  22.182  11.543
 5148W        W77573  28.465  44.336   4.325
 5149W        W77574  30.481  33.006  10.918
 5150W        W77575  30.445  17.211  13.047
 5151W        W77576  30.460  19.217  11.540
 5152W        W77577  22.246  32.928  14.996
 5153W        W77578   2.829  28.583  11.397
 5154W        W77579   0.252  14.174   0.871
 5155W        W77580   1.862   1.813   4.179
 5156W        W77581  27.151  17.703   4.296
 5157W        W77582  38.378   1.427  14.374
 5158W        W77583  18.689  16.115  12.020
 5159W        W77584   1.249   2.285   2.675
 5160W        W77585  40.854  33.482  11.402
 5161W        W77586  35.921  40.431  14.770
 5162W        W77587   6.758  42.505  11.098
 5163W        W77588  13.643  37.930  12.393
 5164W        W77589  44.313   9.295  12.493
 5165W        W77590  38.333  24.986  10.133
 5166W        W77591  43.829  34.500   0.780
 5167W        W77592  19.627  37.044  13.990
 5168W        W77593  44.425  23.024  11.075
 5169W        W77594  36.368  27.654   1.367
 5170W        W77595   2.455  32.115   3.232
 5171W        W77596   6.369  13.178  11.467
 5172W        W77597  41.312  14.148   3.323
 5173W        W77598  23.210   1.775  13.526
 5174W        W77599   0.825  13.783   4.189
 5175W        W77600   0.816  24.089   0.375
 5176W        W77601  32.924  36.429   1.243
 5177W        W77602   3.235   0.854  13.889
 5178W        W77603  25.986  18.093  11.010
 5179W        W77604  21.516  19.722   3.327
 5180W        W77605  44.308   2.346   1.242
 5181W        W77606  37.573  20.549  14.343
 5182W        W77607   8.246  36.538  14.334
 5183W        W77608  38.483  11.353  13.947
 5184W        W77609  17.131  14.099  10.046
 5185W        W77610   9.350  33.130  12.057
 5186W        W77611  30.539  22.740  13.462
 5187W        W77612  29.554  22.172   4.295
 5188W        W77613  44.323  18.225   5.301
 5189W        W77614  18.731  37.470   4.337
 5190W        W77615  16.179  43.963  13.949
 5191W        W77616  12.681  10.217  11.489
 5192W        W77617  10.259   5.320   4.350
 5193W        W77618  18.140  43.295   3.841
 5194W        W77619   1.760  25.516  14.790
 5195W        W77620  25.497  32.943  14.780
 5196W        W77621  10.202   3.306  12.997
 5197W        W77622  13.787  29.061  11.115
 5198W        W77623   4.275  41.447   0.735
 5199W        W77624  17.672  16.286  11.858
 5200W        W77625  25.140  21.032   3.812
 5201W        W77626  44.449  43.408  14.860
 5202W        W77627  30.093  17.710   5.603
 5203W        W77628  28.126  44.454   1.283
 5204W        W77629  29.542  33.614   3.320
 5205W        W77630  27.475  18.723  13.878
 5206W        W77631  31.552   6.707   2.266
 5207W        W77632   0.413  24.496  12.908
 5208W        W77633   4.387  40.475   4.715
 5209W        W77634  44.303  28.597   0.451
 5210W        W77635   2.314   0.903  12.540
 5211W        W77636   7.759  28.499   3.281
 5212W        W77637  21.524  36.540  13.995
 5213W        W77638   9.369  13.605  10.515
 5214W        W77639   1.731  13.230  13.423
 5215W        W77640   0.775   3.359  13.988
 5216W        W77641  25.533  42.505   1.324
 5217W        W77642  29.484  31.528   3.839
 5218W        W77643  13.113   6.833  12.442
 5219W        W77644  33.017  28.462   4.122
 5220W        W77645  39.043   1.866   0.458
 5221W        W77646   8.278  31.438   4.727
 5222W        W77647  26.966  41.804  11.571
 5223W        W77648  18.127  20.522  10.404
 5224W        W77649   1.295   9.876  11.872
 5225W        W77650  24.636   3.854  14.479
 5226W        W77651  30.016  37.580  11.868
 5227W        W77652  33.990   7.730  11.517
 5228W        W77653  24.999  16.737   0.284
 5229W        W77654   4.225  34.993   2.199
 5230W        W77655  27.186  18.218   1.212
 5231W        W77656   6.381  28.452   1.736
 5232W        W77657   2.915  27.577   0.964
 5233W        W77658   1.409   5.723  10.523
 5234W        W77659  10.298  29.165  12.992
 5235W        W77660  38.448   4.257   3.719
 5236W        W77661  41.950  25.552   1.866
 5237W        W77662  30.575   6.767   3.201
 5238W        W77663  26.153  35.019   4.189
 5239W        W77664  11.148  39.482  10.929
 5240W        W77665   8.821   9.762   0.784
 5241W        W77666   6.283  35.417  13.312
 5242W        W77667  39.994  35.860  13.353
 5243W        W77668  36.512  19.638  10.141
 5244W        W77669   8.895  18.173   2.818
 5245W        W77670  31.025  32.471  10.571
 5246W        W77671  30.546  40.021  10.906
 5247W        W77672  44.341  29.599  14.856
 5248W        W77673   3.710  20.592   4.346
 5249W        W77674   5.793  22.693  11.474
 5250W        W77675  16.622  34.393   2.666
 5251W        W77676  34.006  37.567  11.031
 5252W        W77677  20.157  25.683   4.604
 5253W        W77678  31.436   3.314  14.960
 5254W        W77679  30.960  41.839   0.307
 5255W        W77680  41.980   3.747   0.311
 5256W        W77681  42.953  30.014  13.329
 5257W        W77682  38.380  24.666   4.225
 5258W        W77683  34.887  19.589   1.432
 5259W        W77684  43.420  38.394   1.333
 5260W        W77685  28.641   1.853   2.191
 5261W        W77686  11.364  27.652  13.798
 5262W        W77687   9.335  30.986   4.781
 5263W        W77688  38.023  34.049   4.194
 5264W        W77689  29.669  16.634   0.263
 5265W        W77690  32.637   0.868  14.311
 5266W        W77691  20.676   1.808   3.180
 5267W        W77692   0.275  34.913   0.315
 5268W        W77693  28.980  30.510   5.601
 5269W        W77694  35.566  17.609   1.797
 5270W        W77695  20.063  38.842   1.698
 5271W        W77696  33.399  28.439   3.648
 5272W        W77697  41.338   8.846   2.721
 5273W        W77698  15.578  10.208  12.899
 5274W        W77699  27.174   7.897   3.745
 5275W        W77700   2.404  36.351  13.957
 5276W        W77701  39.894   5.755   4.823
 5277W        W77702  28.542  22.596  11.468
 5278W        W77703   8.896   9.822  12.542
 5279W        W77704  36.957  38.956   3.634
 5280W        W77705  11.262  13.317   1.706
 5281W        W77706  33.002  30.038  13.953
 5282W        W77707  21.249   9.706  12.923
 5283W        W77708  37.890  42.898   2.410
 5284W        W77709  11.130  39.321  14.926
 5285W        W77710  34.119  17.634   4.151
 5286W        W77711  23.566  11.806   4.228
 5287W        W77712   7.204  21.605   4.790
 5288W        W77713  18.109   1.463   0.394
 5289W        W77714  42.452  38.874   0.928
 5290W        W77715  43.424  30.954   2.184
 5291W        W77716  20.162  12.809   1.320
 5292W        W77717  38.904  22.581  11.057
 5293W        W77718  38.444  20.634   1.333
 5294W        W77719  23.641  15.640  10.585
 5295W        W77720  36.893  11.826  11.374
 5296W        W77721  40.425   7.178  13.512
 5297W        W77722  18.262   1.811   9.945
 5298W        W77723  25.595  22.669   1.306
 5299W        W77724  13.346  29.082   2.769
 5300W        W77725  37.061  11.332   4.244
 5301W        W77726  41.461  34.869  13.052
 5302W        W77727   0.485  30.026  14.819
 5303W        W77728  34.883  29.435   3.847
 5304W        W77729  11.775   5.736  14.983
 5305W        W77730  18.229  40.453  11.575
 5306W        W77731  13.681   5.242  13.422
 5307W        W77732   9.771  39.343   4.800
 5308W        W77733  35.535  26.135   4.618
 5309W        W77734  16.130   5.296   1.365
 5310W        W77735   3.952  34.879   0.961
 5311W        W77736  24.655  29.147  14.458
 5312W        W77737   2.944  16.264   3.850
 5313W        W77738  31.011  40.370   0.739
 5314W        W77739  25.164  16.729   4.153
 5315W        W77740  41.300  10.359   1.787
 5316W        W77741  33.056  11.211  13.994
 5317W        W77742  41.015   9.277  11.095
 5318W        W77743  17.260  19.224  11.508
 5319W        W77744  31.147  26.960   2.766
 5320W        W77745  12.689   2.931   2.838
 5321W        W77746  16.804  16.180  10.969
 5322W        W77747  35.032   8.311   1.835
 5323W        W77748  18.162  29.636   5.273
 5324W        W77749  26.134   8.195   4.631
 5325W        W77750  10.354  26.150  11.880
 5326W        W77751   5.776  30.067   2.324
 5327W        W77752  27.000  29.115  12.865
 5328W        W77753  33.922  28.506  12.847
 5329W        W77754  41.521  41.399  10.902
 5330W        W77755  16.686  28.945  14.463
 5331W        W77756  32.568  21.695  11.087
 5332W        W77757  20.266  43.482  13.405
 5333W        W77758  37.536  35.388   4.189
 5334W        W77759  39.808   8.767   2.397
 5335W        W77760  34.939  28.099  12.898
 5336W        W77761  22.745  31.903  13.484
 5337W        W77762  33.624  44.463  11.389
 5338W        W77763  10.734  33.431  13.971
 5339W        W77764  43.383  34.983   0.339
 5340W        W77765  42.421  17.072  10.488
 5341W        W77766  21.171  31.120   3.819
 5342W        W77767   1.796  22.581   3.786
 5343W        W77768  21.667  24.484   1.746
 5344W        W77769  32.479   5.869  10.526
 5345W        W77770  29.025   4.243  13.478
 5346W        W77771  20.566  38.341  13.968
 5347W        W77772  16.125  30.500   1.720
 5348W        W77773   3.916  26.543  11.933
 5349W        W77774  40.481  26.658   1.930
 5350W        W77775  31.008  32.930   1.229
 5351W        W77776  23.671  18.253   0.301
 5352W        W77777  15.131  30.918   4.783
 5353W        W77778  13.156  22.691   3.339
 5354W        W77779  30.622  14.195   4.661
 5355W        W77780  33.119  33.104   4.220
 5356W        W77781  33.009  16.273  12.095
 5357W        W77782   4.788   1.478   4.180
 5358W        W77783   7.400  14.174   2.841
 5359W        W77784   7.403  30.572   2.695
 5360W        W77785  28.982  36.025   0.266
 5361W        W77786   2.849  37.378  14.476
 5362W        W77787  20.631  28.605  14.899
 5363W        W77788   1.805  33.618   1.890
 5364W        W77789  25.476  27.959  14.830
 5365W        W77790  19.712   7.360  11.867
 5366W        W77791   4.920  37.363   1.285
 5367W        W77792  42.006  19.773  11.518
 5368W        W77793  37.497  22.055  10.981
 5369W        W77794  31.896  44.859  13.399
 5370W        W77795  44.863  20.566  11.606
 5371W        W77796   7.843  21.611   0.474
 5372W        W77797  22.190  16.602   0.909
 5373W        W77798  38.428  23.684   1.812
 5374W        W77799  42.416  21.719  11.601
 5375W        W77800  33.951  39.030  13.059
 5376W        W77801   5.764  32.093  13.442
 5377W        W77802   5.344  26.542  13.385
 5378W        W77803   3.774   7.417  14.805
 5379W        W77804   1.748  23.136  14.497
 5380W        W77805  10.218  29.091   3.815
 5381W        W77806  12.770  23.084  14.417
 5382W        W77807  26.521  39.991  13.472
 5383W        W77808  37.957  36.438   1.920
 5384W        W77809  16.761  26.658   4.752
 5385W        W77810   1.401  27.046  14.869
 5386W        W77811   3.270  39.033  10.586
 5387W        W77812   6.185  18.557  12.489
 5388W        W77813   1.978  37.074  14.998
 5389W        W77814  20.551  11.696   4.617
 5390W        W77815  42.287  19.209  11.886
 5391W        W77816  24.632  32.432  11.063
 5392W        W77817  10.717   4.333  13.882
 5393W        W77818   7.882  36.564   4.319
 5394W        W77819   7.279  25.169   2.229
 5395W        W77820  43.813  10.751   4.717
 5396W        W77821   3.726  16.711   0.441
 5397W        W77822  15.602   8.741   2.188
 5398W        W77823   3.232   6.880   4.245
 5399W        W77824  38.395   8.372  12.437
 5400W        W77825  30.587  11.228   3.158
 5401W        W77826  17.794  41.344  13.861
 5402W        W77827  39.043  23.522   0.769
 5403W        W77828  12.674  41.404  11.017
 5404W        W77829  23.693  44.970   4.341
 5405W        W77830  22.641  16.721  12.062
 5406W        W77831  10.365  24.204   1.861
 5407W        W77832   0.407   2.409  13.792
 5408W        W77833  44.895  17.731  14.850
 5409W        W77834  33.623  25.063  11.104
 5410W        W77835  16.649  27.975   1.908
 5411W        W77836   7.727  29.057  11.022
 5412W        W77837  22.041  14.593  14.497
 5413W        W77838   5.284  15.796  12.352
 5414W        W77839   7.209  19.652   4.668
 5415W        W77840  25.043  34.928   1.364
 5416W        W77841  13.148   5.434  11.968
 5417W        W77842  28.547  23.033  12.345
 5418W        W77843  20.112  24.670  12.417
 5419W        W77844  10.194  39.345   4.655
 5420W        W77845  13.632   7.186   0.878
 5421W        W77846  24.686   2.816  10.978
 5422W        W77847  16.231  11.621   4.654
 5423W        W77848  23.122  42.351   3.834
 5424W        W77849   6.730   0.825   2.679
 5425W        W77850  28.138  36.850  14.406
 5426W        W77851  11.150  28.630   1.270
 5427W        W77852  24.199  40.918   0.781
 5428W        W77853   8.884  40.817   2.670
 5429W        W77854  12.784  13.147   4.785
 5430W        W77855  15.161  37.955  12.961
 5431W        W77856  40.019   2.279  11.864
 5432W        W77857  22.746  16.153   2.777
 5433W        W77858   5.859  21.234  11.408
 5434W        W77859  35.403  14.832   4.834
 5435W        W77860  21.254  17.184  12.091
 5436W        W77861  19.223  31.040  14.907
 5437W        W77862  25.032  19.118   3.378
 5438W        W77863  18.574  17.790  13.339
 5439W        W77864   0.836   5.296  12.890
 5440W        W77865  44.339  13.256  14.786
 5441W        W77866  42.313  10.340   0.798
 5442W        W77867  16.796  27.149   2.334
 5443W        W77868  13.730  40.035  12.433
 5444W        W77869  41.956  34.974   1.438
 5445W        W77870   0.786  25.044   0.731
 5446W        W77871  16.746  38.888   4.203
 5447W        W77872  42.007  20.715  12.552
 5448W        W77873   9.800  41.913   2.694
 5449W        W77874   3.948  29.141  11.898
 5450W        W77875  15.287   4.299  10.608
 5451W        W77876   6.833  14.160  13.349
 5452W        W77877  38.928  31.031   2.281
 5453W        W77878  17.627  25.492  14.938
 5454W        W77879   2.242  29.668   3.255
 5455W        W77880  12.158  15.323   0.813
 5456W        W77881   9.327  40.930  12.044
 5457W        W77882  44.922  44.901   3.841
 5458W        W77883  36.054  30.609  10.904
 5459W        W77884  16.301  40.996   4.728
 5460W        W77885   4.930  25.092   0.451
 5461W        W77886  34.600  42.292   4.733
 5462W        W77887  26.480   6.734   1.891
 5463W        W77888  15.784  15.276  13.452
 5464W        W77889  18.606  42.522   0.840
 5465W        W77890   4.869  22.041  11.465
 5466W        W77891  11.309  28.984  11.119
 5467W        W77892  17.753  12.766   0.897
 5468W        W77893  24.523   9.825   9.463
 5469W        W77894  19.194  17.776   2.838
 5470W        W77895  44.773   5.926   1.417
 5471W        W77896  24.571  31.101   3.678
 5472W        W77897  36.042  20.575   0.746
 5473W        W77898   5.923  16.602  13.793
 5474W        W77899  14.334   5.689  12.343
 5475W        W77900   7.770  33.930   2.298
 5476W        W77901   7.738  27.027   1.429
 5477W        W77902  30.952   0.944   2.679
 5478W        W77903   1.897  29.955  11.450
 5479W        W77904  43.810  15.313  14.858
 5480W        W77905   4.303  19.183   2.295
 5481W        W77906  43.974  14.786  10.996
 5482W        W77907  16.112  41.394   3.686
 5483W        W77908  32.619  19.051  11.953
 5484W        W77909  15.235  19.111   1.924
 5485W        W77910   6.760  17.065   0.359
 5486W        W77911  32.054  17.584  14.504
 5487W        W77912  39.355  12.803  12.001
 5488W        W77913   5.419  34.549  14.278
 5489W        W77914   4.840  18.053   0.844
 5490W        W77915  16.625  22.718  12.006
 5491W        W77916  24.016  28.973   4.743
 5492W        W77917  26.697   5.338   1.778
 5493W        W77918   9.670  22.544  11.860
 5494W        W77919  18.247  20.613  13.391
 5495W        W77920  14.148  13.656  12.005
 5496W        W77921  43.981   3.765   2.820
 5497W        W77922  22.660  44.440   4.217
 5498W        W77923  27.476  21.119   3.266
 5499W        W77924  27.193  33.989   1.727
 5500W        W77925  35.984  20.254   2.335
 5501W        W77926  34.940  31.406   3.842
 5502W        W77927  21.647   1.928   1.219
 5503W        W77928   4.711  30.985  14.880
 5504W        W77929  42.002  15.136  13.944
 5505W        W77930  41.943  30.559   0.859
 5506W        W77931   4.865  23.646   3.325
 5507W        W77932  37.388   6.353  10.428
 5508W        W77933  15.810  37.471  13.516
 5509W        W77934   7.721  37.499   1.867
 5510W        W77935  36.976  44.468   4.805
 5511W        W77936  40.817  39.388  10.560
 5512W        W77937  20.627  36.512  13.992
 5513W        W77938   8.225  18.762  14.506
 5514W        W77939  39.065  33.971  11.599
 5515W        W77940   8.796  28.576  12.373
 5516W        W77941  33.004  29.026   0.286
 5517W        W77942  28.179   1.465   2.735
 5518W        W77943  14.646  16.614  12.440
 5519W        W77944  15.634   6.914   1.700
 5520W        W77945  24.043   4.414   3.785
 5521W        W77946  26.153  42.498   3.286
 5522W        W77947  20.213   5.419  14.951
 5523W        W77948  38.049  20.263   0.945
 5524W        W77949   0.770  36.904   9.921
 5525W        W77950  12.671   9.864   4.317
 5526W        W77951  13.172  18.277  11.575
 5527W        W77952  39.907  24.560   3.794
 5528W        W77953  10.192  31.136   4.811
 5529W        W77954  39.935  39.555  11.439
 5530W        W77955  25.628  25.024   2.245
 5531W        W77956  25.088  16.657  13.004
 5532W        W77957  44.849   5.913   0.436
 5533W        W77958   4.439  27.161   3.230
 5534W        W77959   4.763  18.741   5.198
 5535W        W77960  39.975  27.677   4.351
 5536W        W77961   3.872  25.473  12.982
 5537W        W77962  35.959  44.922   2.294
 5538W        W77963   2.229   5.305  13.819
 5539W        W77964   7.298  12.743   4.277
 5540W        W77965  25.497  31.957   3.362
 5541W        W77966  34.533  10.852   4.774
 5542W        W77967  31.500  27.518   1.268
 5543W        W77968  41.875  10.765  11.588
 5544W        W77969  44.853  18.768  12.366
 5545W        W77970  34.111   2.758   3.725
 5546W        W77971  42.841  33.063   4.795
 5547W        W77972  21.552  21.752   3.719
 5548W        W77973  28.528  43.294   0.437
 5549W        W77974  15.109   3.227  12.492
 5550W        W77975  27.496  35.438  10.565
 5551W        W77976  39.544   2.243   1.339
 5552W        W77977  12.839   8.206  12.836
 5553W        W77978   8.682   5.319  12.833
 5554W        W77979   5.896  18.243  10.474
 5555W        W77980  27.070  44.920   2.285
 5556W        W77981  13.341  24.568  13.914
 5557W        W77982  21.687  37.487  13.030
 5558W        W77983   0.909  29.461   0.838
 5559W        W77984  31.573  44.292   0.363
 5560W        W77985  22.560  24.600   1.917
 5561W        W77986  10.688   6.910  13.375
 5562W        W77987   1.437   3.757   2.236
 5563W        W77988   2.789  18.577  11.538
 5564W        W77989   8.401  12.341   3.822
 5565W        W77990  17.764   2.746  10.096
 5566W        W77991  14.744  36.407   2.242
 5567W        W77992  20.205  17.589   0.466
 5568W        W77993  38.467  30.443  14.852
 5569W        W77994  29.172  42.978   0.772
 5570W        W77995  41.817   7.911   3.345
 5571W        W77996  19.042  44.497  11.596
 5572W        W77997   6.224   5.813   3.159
 5573W        W77998  42.506  16.657  14.959
 5574W        W77999  31.098  22.568   0.333
 5575W        W78000  30.610   4.367  13.886
 5576W        W78001  13.133  41.930  12.995
 5577W        W78002  40.491  12.321  14.484
 5578W        W78003  16.229  30.990   0.936
 5579W        W78004   0.352  18.163   3.237
 5580W        W78005  20.663  14.828  10.975
 5581W        W78006  30.961   9.809   3.378
 5582W        W78007  20.597  11.355  10.435
 5583W        W78008  31.523  21.594  10.589
 5584W        W78009   1.937  13.303   1.739
 5585W        W78010  28.521  24.083  10.419
 5586W        W78011  29.550   4.857   1.776
 5587W        W78012  10.876  16.271   3.299
 5588W        W78013   8.165   7.209   0.307
 5589W        W78014  13.639  40.447  13.824
 5590W        W78015  12.350  44.838   3.838
 5591W        W78016   1.898  10.705   3.344
 5592W        W78017  19.081  37.541   1.922
 5593W        W78018  23.626  37.044  13.323
 5594W        W78019   0.797  22.512   0.295
 5595W        W78020  38.385  22.209  10.573
 5596W        W78021  36.549  29.955   1.333
 5597W        W78022  19.277   1.418   1.812
 5598W        W78023   7.862  28.637   1.756
 5599W        W78024  39.548  40.844   4.700
 5600W        W78025   9.834  36.923   5.630
 5601W        W78026  28.586  35.902   4.314
 5602W        W78027  16.253  16.094  10.924
 5603W        W78028  27.083  24.586  11.484
 5604W        W78029  21.697  10.636   1.706
 5605W        W78030  38.873   1.833  12.350
 5606W        W78031  19.754  19.550   1.307
 5607W        W78032   5.379  28.977  10.941
 5608W        W78033  22.519   2.380   1.709
 5609W        W78034  37.022  22.514   3.815
 5610W        W78035  41.995  35.107  11.956
 5611W        W78036  33.620  34.393  13.542
 5612W        W78037  44.861  25.694  13.983
 5613W        W78038  32.988  27.506  14.878
 5614W        W78039  19.087  40.452  14.934
 5615W        W78040  13.112  42.912   3.158
 5616W        W78041  31.598  18.180  11.942
 5617W        W78042  25.004  30.924   1.362
 5618W        W78043  27.992  19.690   3.350
 5619W        W78044  32.419  34.977   2.714
 5620W        W78045  34.459  20.689  14.784
 5621W        W78046  24.173  33.572  10.446
 5622W        W78047  25.524  15.590  13.064
 5623W        W78048  36.963   1.331  11.528
 5624W        W78049   9.245   8.295  10.640
 5625W        W78050   1.934  41.908   2.243
 5626W        W78051  24.126  22.504  10.495
 5627W        W78052   3.222   2.808  11.860
 5628W        W78053  44.952  44.399   4.334
 5629W        W78054  22.080  42.801  14.286
 5630W        W78055  16.705  13.812   0.856
 5631W        W78056  30.076  17.601   5.207
 5632W        W78057  40.486  33.998   4.806
 5633W        W78058  10.337   8.700   2.228
 5634W        W78059  35.430  28.641   4.790
 5635W        W78060  13.744  34.381   0.837
 5636W        W78061  23.176  37.083   4.721
 5637W        W78062  34.469  29.505   0.760
 5638W        W78063  32.965  37.406   0.263
 5639W        W78064   4.886   1.292   2.419
 5640W        W78065  37.362  29.938  13.852
 5641W        W78066  11.131  25.696   3.323
 5642W        W78067  36.896   1.403   2.248
 5643W        W78068  23.059  35.088   2.828
 5644W        W78069  19.106  20.664   2.393
 5645W        W78070  15.225  17.626   2.397
 5646W        W78071  22.118  19.591  10.435
 5647W        W78072  35.428   6.722   1.379
 5648W        W78073  23.500  20.539  12.987
 5649W        W78074  42.957  27.607  12.474
 5650W        W78075  21.517   7.827  11.127
 5651W        W78076   6.373   6.828  14.463
 5652W        W78077   3.780  12.129   2.355
 5653W        W78078  35.409  33.433  11.902
 5654W        W78079  34.597  31.027  11.421
 5655W        W78080  32.561   6.878   2.728
 5656W        W78081  30.947  43.286   1.426
 5657W        W78082  18.166  17.757  14.895
 5658W        W78083   1.237  25.113   4.719
 5659W        W78084  16.606  40.035   0.862
 5660W        W78085  18.765  19.618   2.186
 5661W        W78086  35.977  40.352  14.419
 5662W        W78087  29.946  31.937   4.319
 5663W        W78088   2.402  28.149   3.792
 5664W        W78089  17.155  35.544  11.870
 5665W        W78090  36.467  20.684   2.851
 5666W        W78091  30.930   2.433   1.243
 5667W        W78092  22.727  32.471  10.460
 5668W        W78093  30.572  20.699  13.900
 5669W        W78094  16.240   6.782  10.552
 5670W        W78095  28.593  23.614   2.901
 5671W        W78096   6.427  14.296   2.257
 5672W        W78097   6.778  30.944  12.967
 5673W        W78098  43.392  29.935   3.160
 5674W        W78099  41.345  21.654   1.427
 5675W        W78100  12.272  21.517  14.799
 5676W        W78101  20.596  40.844  11.073
 5677W        W78102  38.965  31.148  10.635
 5678W        W78103  10.295  12.290  11.898
 5679W        W78104   3.431  31.430   3.244
 5680W        W78105  32.944   3.763   0.916
 5681W        W78106  38.855  32.595  11.401
 5682W        W78107  36.994  32.478  12.958
 5683W        W78108  25.182   9.304   0.806
 5684W        W78109  16.694  16.779  10.947
 5685W        W78110  28.582   6.291  10.521
 5686W        W78111  32.137  33.411   2.800
 5687W        W78112  26.600   0.924   2.295
 5688W        W78113  24.648  44.271   1.425
 5689W        W78114  15.109  28.001   1.857
 5690W        W78115   3.232  27.627   1.223
 5691W        W78116  43.332  38.564  12.051
 5692W        W78117  15.260   4.916  11.903
 5693W        W78118  12.295  44.347   2.862
 5694W        W78119  41.960  32.036   1.727
 5695W        W78120  35.003  14.646   3.810
 5696W        W78121  24.503  30.125   4.303
 5697W        W78122  34.956  25.154  14.409
 5698W        W78123  11.171  30.967   2.831
 5699W        W78124   5.263   4.295   3.296
 5700W        W78125  23.626  39.459  10.894
 5701W        W78126  26.686   5.863  14.973
 5702W        W78127  43.413   1.458   4.259
 5703W        W78128   6.742  18.633   1.348
 5704W        W78129  22.034   2.249   4.783
 5705W        W78130  28.079  35.441  14.789
 5706W        W78131  26.517  11.712   4.636
 5707W        W78132   4.934   3.777   3.837
 5708W        W78133   1.959   6.690  14.388
 5709W        W78134  33.021  16.658   4.666
 5710W        W78135  12.708   0.448   2.383
 5711W        W78136  28.180   4.412   4.608
 5712W        W78137  20.186   6.258  12.386
 5713W        W78138  22.593  16.226  13.062
 5714W        W78139  38.451  30.631  12.428
 5715W        W78140  11.799  30.982  12.088
 5716W        W78141  26.132  40.365   2.310
 5717W        W78142   3.909  27.560   4.721
 5718W        W78143  34.016  26.197   4.289
 5719W        W78144  17.280  41.481  14.277
 5720W        W78145   9.644   3.377   0.242
 5721W        W78146  42.282   5.368   3.328
 5722W        W78147  35.491  34.383   2.309
 5723W        W78148   9.310  32.417   3.719
 5724W        W78149  19.168  31.898   0.758
 5725W        W78150   2.948  14.284  11.916
 5726W        W78151   4.417  26.660  12.979
 5727W        W78152   7.252   6.350   0.762
 5728W        W78153  35.949  43.302  10.421
 5729W        W78154  40.029  36.067   1.930
 5730W        W78155  21.233  15.230  10.565
 5731W        W78156  22.568  12.222   2.230
 5732W        W78157  16.159  39.544  11.520
 5733W        W78158  15.820  39.988  14.477
 5734W        W78159  19.750  39.354  13.462
 5735W        W78160  44.997  17.109  10.437
 5736W        W78161  22.187  26.008   1.719
 5737W        W78162   5.421  19.727   2.243
 5738W        W78163  29.640  44.389  13.886
 5739W        W78164  43.402  26.178  12.032
 5740W        W78165  16.209  11.187   4.766
 5741W        W78166  17.198  43.444   0.252
 5742W        W78167   3.949  25.684   1.701
 5743W        W78168  15.740  15.110  11.076
 5744W        W78169  19.169  18.086   3.804
 5745W        W78170  35.962  29.477  12.842
 5746W        W78171  24.689  17.273   3.687
 5747W        W78172  37.851  20.678  14.492
 5748W        W78173  32.089  20.265   0.921
 5749W        W78174  39.468  34.543  14.333
 5750W        W78175  41.356  43.433   5.216
 5751W        W78176  22.046  39.494  14.301
 5752W        W78177  25.062  13.228   0.817
 5753W        W78178   8.351   8.277   0.941
 5754W        W78179  43.328  25.572  13.456
 5755W        W78180   1.420   3.818  13.843
 5756W        W78181   5.873  41.325  10.503
 5757W        W78182   5.694  16.568  13.353
 5758W        W78183  34.968   3.934   1.227
 5759W        W78184  38.075  30.993   1.822
 5760W        W78185  17.751   0.957   2.816
 5761W        W78186  30.646  33.098   2.263
 5762W        W78187  22.213   6.768   4.693
 5763W        W78188   8.846  40.395  12.389
 5764W        W78189  16.776  34.975  13.531
 5765W        W78190  39.402  33.969  14.947
 5766W        W78191  27.616  40.338   3.194
 5767W        W78192  20.082  40.380  11.568
 5768W        W78193   5.869  10.709  12.872
 5769W        W78194  28.451   2.334  13.863
 5770W        W78195  22.208  27.132  14.282
 5771W        W78196  23.572  19.282  14.423
 5772W        W78197  11.279  21.723  14.983
 5773W        W78198  11.650   3.861   2.222
 5774W        W78199  28.028  44.451   3.668
 5775W        W78200  18.178  31.437   0.851
 5776W        W78201  18.601   2.888   4.690
 5777W        W78202  20.250  33.382  13.895
 5778W        W78203  25.083  24.510  14.879
 5779W        W78204  36.455  14.284  12.356
 5780W        W78205  38.059  24.014   2.688
 5781W        W78206  28.945  18.709   3.385
 5782W        W78207  41.020  13.691   4.720
 5783W        W78208  42.491   0.811   1.217
 5784W        W78209  44.319  25.640  12.412
 5785W        W78210   3.938  21.261   2.803
 5786W        W78211  37.961  43.400   2.281
 5787W        W78212  22.531  40.490  13.857
 5788W        W78213  11.758   6.360   2.823
 5789W        W78214  24.626   1.480   0.874
 5790W        W78215  38.339  16.607  14.357
 5791W        W78216  42.810  13.692  13.904
 5792W        W78217  42.808  22.595  12.359
 5793W        W78218  18.242   2.369  11.429
 5794W        W78219  23.632  10.145  12.878
 5795W        W78220  19.189  44.388  12.564
 5796W        W78221  29.514  41.491  13.326
 5797W        W78222  24.977  19.665   3.174
 5798W        W78223   8.856  13.144  12.502
 5799W        W78224  25.062  27.038  12.057
 5800W        W78225  24.208  21.608  12.889
 5801W        W78226  26.684  19.731   4.665
 5802W        W78227   1.746  30.949   4.832
 5803W        W78228   3.949  32.621   4.285
 5804W        W78229  23.133  18.149  14.374
 5805W        W78230  37.911  36.862  10.489
 5806W        W78231  13.625  41.888   4.804
 5807W        W78232  13.279  26.097  10.633
 5808W        W78233  41.495  15.326  12.922
 5809W        W78234  40.810  35.594  11.379
 5810W        W78235  24.501  43.501  14.473
 5811W        W78236  35.437  31.923   3.242
 5812W        W78237   1.948  22.014  13.884
 5813W        W78238  37.909  18.170  11.482
 5814W        W78239  28.468   9.678   2.730
 5815W        W78240  18.232  23.558  14.485
 5816W        W78241  38.363   0.927  12.579
 5817W        W78242  21.632  39.506  12.388
 5818W        W78243  31.536   4.227  12.347
 5819W        W78244  32.050  44.991  10.927
 5820W        W78245  25.971  33.475   3.664
 5821W        W78246  36.993  30.925   0.389
 5822W        W78247  20.703   4.417  12.012
 5823W        W78248  33.561  32.103   3.285
 5824W        W78249  44.280   7.327   0.873
 5825W        W78250  14.179  38.076  11.079
 5826W        W78251  38.913  36.475  14.297
 5827W        W78252  29.586  12.352   0.299
 5828W        W78253  44.389  31.911   0.351
 5829W        W78254  20.643  28.501  14.456
 5830W        W78255  11.308   2.355   2.683
 5831W        W78256   1.750   3.837   0.411
 5832W        W78257  39.032   2.938  11.573
 5833W        W78258  29.653  16.633  13.986
 5834W        W78259  25.623   1.442  11.607
 5835W        W78260  43.795  29.660   3.279
 5836W        W78261  12.651  35.442   0.861
 5837W        W78262   7.297  37.879  14.887
 5838W        W78263  32.435  13.349  14.922
 5839W        W78264   3.383  16.079  12.363
 5840W        W78265  22.090  36.856  11.076
 5841W        W78266  10.221  12.640  12.929
 5842W        W78267  16.110  28.960  11.549
 5843W        W78268  36.434  17.271  12.929
 5844W        W78269   7.375  22.111  10.480
 5845W        W78270  34.560  27.504   2.705
 5846W        W78271  29.500  26.479   5.258
 5847W        W78272  17.750   6.787  13.423
 5848W        W78273  18.228   7.878  11.062
 5849W        W78274  18.725   9.375  13.486
 5850W        W78275   8.272  43.792  12.501
 5851W        W78276  36.457   3.280  11.612
 5852W        W78277  30.996  21.154   0.876
 5853W        W78278  17.096  29.139   2.318
 5854W        W78279   9.662  17.687   1.447
 5855W        W78280  40.882  35.924  11.909
 5856W        W78281  11.358  28.975  10.557
 5857W        W78282   7.372  24.983   1.725
 5858W        W78283  15.107  28.146  13.391
 5859W        W78284   3.776  20.029   0.293
 5860W        W78285  26.634  40.022   2.738
 5861W        W78286  22.245  33.099  11.880
 5862W        W78287  32.064  35.082   3.175
 5863W        W78288  44.314  44.310  14.278
 5864W        W78289  32.942   2.262  12.096
 5865W        W78290  23.156   6.681  13.423
 5866W        W78291  35.522  30.652   1.258
 5867W        W78292  43.803   2.870   4.235
 5868W        W78293  15.658  30.593  14.822
 5869W        W78294  34.387  41.909  14.882
 5870W        W78295   3.754   1.324  13.949
 5871W        W78296  28.083  23.184   1.345
 5872W        W78297   9.704  13.682   0.851
 5873W        W78298   4.800  22.726  13.461
 5874W        W78299  41.513  32.938  11.867
 5875W        W78300   1.959   4.850  13.444
 5876W        W78301   9.762  15.244  12.841
 5877W        W78302  17.736  14.103  13.893
 5878W        W78303   0.927  25.633   3.637
 5879W        W78304  43.478  25.200   1.794
 5880W        W78305   8.171  35.479   0.266
 5881W        W78306   0.324  38.419  10.626
 5882W        W78307  28.964  25.698  10.641
 5883W        W78308  29.921   6.830   2.688
 5884W        W78309  23.033   8.832   9.623
 5885W        W78310  44.391  31.506   3.829
 5886W        W78311  15.806  36.510   4.622
 5887W        W78312   9.171  22.159   1.791
 5888W        W78313  11.634  14.643   3.335
 5889W        W78314   3.411   4.229  13.022
 5890W        W78315   7.871  33.423   3.644
 5891W        W78316   9.713  43.434   4.255
 5892W        W78317  15.153  27.617   2.890
 5893W        W78318  44.354   6.831   1.699
 5894W        W78319  28.524  22.664   1.841
 5895W        W78320  25.706  27.518  12.850
 5896W        W78321  11.181  35.473   3.760
 5897W        W78322  16.744  30.008  11.576
 5898W        W78323  20.081   7.788   0.787
 5899W        W78324  27.084  34.439   0.948
 5900W        W78325  16.576  18.210  13.900
 5901W        W78326   8.708  17.575   4.282
 5902W        W78327   7.818  12.151   2.892
 5903W        W78328  23.519  15.810  14.974
 5904W        W78329  13.189  35.106   1.708
 5905W        W78330  21.017   7.829  13.523
 5906W        W78331  39.000   4.836  10.597
 5907W        W78332  32.041  23.569   3.651
 5908W        W78333  14.616  37.534  13.334
 5909W        W78334  31.442   9.786   3.794
 5910W        W78335  44.459  32.624   4.150
 5911W        W78336  31.442  30.079  14.013
 5912W        W78337  41.966  26.102  14.794
 5913W        W78338  31.020  10.843   1.366
 5914W        W78339  33.516  34.954   0.421
 5915W        W78340  41.849  37.343   0.782
 5916W        W78341  25.712   5.722   2.724
 5917W        W78342  40.355  18.175   3.260
 5918W        W78343  33.056   8.885   2.194
 5919W        W78344  35.961   2.287   0.939
 5920W        W78345  20.028  14.673   1.796
 5921W        W78346  37.053  11.211  10.897
 5922W        W78347  27.599   9.722   2.392
 5923W        W78348   2.865  32.508   2.396
 5924W        W78349  39.519  36.435  10.627
 5925W        W78350  44.842   0.450  14.901
 5926W        W78351   1.394  17.166   4.196
 5927W        W78352   8.750   9.809  11.486
 5928W        W78353  38.467  43.011   4.795
 5929W        W78354  26.639  40.958  12.457
 5930W        W78355   3.215   3.800   3.868
 5931W        W78356  26.079  32.573  12.569
 5932W        W78357  24.145  39.003  11.106
 5933W        W78358  37.044  36.536  11.547
 5934W        W78359  16.631  14.651  11.950
 5935W        W78360  34.116  42.932   0.808
 5936W        W78361  33.541  17.303   1.712
 5937W        W78362  40.870   3.805   0.305
 5938W        W78363  40.381  20.226  13.370
 5939W        W78364   1.327  38.370   3.269
 5940W        W78365   1.931  10.877  10.544
 5941W        W78366   9.744   7.198   3.719
 5942W        W78367  17.062  44.965  11.083
 5943W        W78368   9.246   9.168   5.304
 5944W        W78369   9.658  20.769   2.220
 5945W        W78370   3.446  21.612   0.360
 5946W        W78371  16.265  13.694  14.865
 5947W        W78372  42.857   4.723  12.876
 5948W        W78373  25.553   2.746   1.756
 5949W        W78374  11.299  30.108   0.768
 5950W        W78375   7.730  17.196  12.465
 5951W        W78376  28.985  21.522   1.219
 5952W        W78377  34.480  35.491   2.703
 5953W        W78378   5.712   5.736   3.862
 5954W        W78379  26.586  44.416  14.996
 5955W        W78380  40.341  24.521   0.862
 5956W        W78381  31.522  37.483   4.178
 5957W        W78382  25.116   5.399  14.322
 5958W        W78383  22.520  10.812   2.399
 5959W        W78384  12.316  15.239   3.265
 5960W        W78385  13.111   7.288  12.445
 5961W        W78386  26.586   5.750  13.421
 5962W        W78387  23.682  44.926   3.154
 5963W        W78388  22.580   8.385  13.352
 5964W        W78389  44.981  16.116  12.511
 5965W        W78390  16.765  24.538   1.871
 5966W        W78391  42.901  24.127   4.341
 5967W        W78392   5.768  29.649  12.509
 5968W        W78393   5.294  29.667  13.898
 5969W        W78394  34.061   2.803  13.399
 5970W        W78395  17.141  36.048  10.075
 5971W        W78396  13.731  31.933  10.587
 5972W        W78397   5.870  11.644   0.416
 5973W        W78398  43.857  10.807  12.364
 5974W        W78399  29.933   8.214   0.293
 5975W        W78400  39.843  35.999   0.393
 5976W        W78401  11.753  38.012  12.879
 5977W        W78402   8.784  24.219  13.385
 5978W        W78403  18.122  14.324  14.975
 5979W        W78404  11.782  27.652  12.970
 5980W        W78405  30.975  21.657   1.853
 5981W        W78406  42.825  22.576   0.263
 5982W        W78407  34.907   2.379  14.967
 5983W        W78408  43.004   5.704  11.048
 5984W        W78409  19.692  17.622  11.474
 5985W        W78410  43.506   0.953   4.153
 5986W        W78411   8.901  25.966   3.867
 5987W        W78412   2.958  13.833  10.621
 5988W        W78413  39.372  11.819   2.870
 5989W        W78414  13.230   5.298   3.200
 5990W        W78415  10.668  11.332  14.274
 5991W        W78416  27.588  43.473   2.861
 5992W        W78417  36.396  36.513   1.374
 5993W        W78418  15.253   1.813   2.800
 5994W        W78419  31.994  25.666  13.946
 5995W        W78420  40.443  21.733   3.644
 5996W        W78421  10.165  35.491   4.738
 5997W        W78422  12.181  42.954  10.574
 5998W        W78423   6.787  23.553   0.433
 5999W        W78424   3.454  43.344   1.799
 6000W        W78425  37.339  38.557   3.305
 6001W        W78426  20.274   4.327  12.829
 6002W        W78427  18.137  29.038   3.843
 6003W        W78428   7.342  14.225   3.845
 6004W        W78429  29.632  27.996   3.658
 6005W        W78430  43.349  21.136  11.860
 6006W        W78431  21.228  32.123   2.218
 6007W        W78432   2.919  26.088  11.490
 6008W        W78433  30.150  24.613   1.235
 6009W        W78434  22.696  29.926  13.309
 6010W        W78435  15.734  14.703  14.382
 6011W        W78436  41.033  27.658  12.358
 6012W        W78437   7.819  10.862   2.777
 6013W        W78438  21.715   6.834   3.344
 6014W        W78439  31.994  31.642   1.859
 6015W        W78440  37.337   2.848  12.507
 6016W        W78441  40.314  32.138  12.526
 6017W        W78442   8.807  40.317   2.188
 6018W        W78443   9.358   5.425   2.744
 6019W        W78444  10.371  39.901   4.328
 6020W        W78445  41.318   5.271  13.347
 6021W        W78446  28.101  29.510  12.904
 6022W        W78447  12.807  18.187   0.250
 6023W        W78448  15.211  34.554   4.309
 6024W        W78449   3.292   3.853   2.334
 6025W        W78450  22.199   1.392   1.440
 6026W        W78451  13.619   6.326   1.275
 6027W        W78452  21.135  39.830   2.237
 6028W        W78453   5.724  30.569   0.415
 6029W        W78454  32.007  12.755  12.945
 6030W        W78455  39.546  25.196  14.296
 6031W        W78456  23.598  12.262  12.891
 6032W        W78457  24.073  20.655  11.900
 6033W        W78458  36.416   2.952   4.121
 6034W        W78459  22.728   8.335   9.947
 6035W        W78460  27.153  25.965   2.739
 6036W        W78461   3.910   3.325   1.319
 6037W        W78462  36.354  25.067   3.757
 6038W        W78463  42.785  25.489   2.796
 6039W        W78464  29.922  23.226   1.858
 6040W        W78465  36.525   8.162  14.276
 6041W        W78466  32.042   0.302   3.214
 6042W        W78467   3.352  38.523  12.373
 6043W        W78468  19.641   8.274   0.920
 6044W        W78469  13.346  26.154  14.367
 6045W        W78470  19.707  40.445   5.318
 6046W        W78471   4.250  37.037   1.413
 6047W        W78472   2.367   4.332  10.976
 6048W        W78473   8.852  33.503  12.909
 6049W        W78474  23.078   2.253  12.078
 6050W        W78475  33.070   0.478  13.512
 6051W        W78476   5.405  37.413  10.605
 6052W        W78477   3.848   9.275  12.848
 6053W        W78478  33.002  40.371  11.090
 6054W        W78479  39.913  29.028  11.478
 6055W        W78480  27.956  15.751  12.419
 6056W        W78481   3.261  30.983  10.553
 6057W        W78482  24.197  11.221   0.406
 6058W        W78483  28.483  43.884  13.987
 6059W        W78484  32.449   7.879  14.361
 6060W        W78485  16.673  42.478   3.198
 6061W        W78486  25.100  18.620   3.840
 6062W        W78487  26.660  13.274   1.343
 6063W        W78488  35.485  12.814   2.664
 6064W        W78489   2.867  20.253   3.845
 6065W        W78490  37.494  37.887  12.909
 6066W        W78491  25.024  22.630  12.004
 6067W        W78492  34.945  28.996  14.291
 6068W        W78493  31.611   1.964   1.888
 6069W        W78494  30.989   9.372  11.858
 6070W        W78495   3.806  18.156   1.358
 6071W        W78496  33.515  42.893   1.302
 6072W        W78497  24.128  27.492   4.608
 6073W        W78498  44.500   4.369   2.886
 6074W        W78499  43.884  32.508   3.749
 6075W        W78500   8.879  40.307   4.245
 6076W        W78501  39.439  20.625   2.216
 6077W        W78502   3.837  42.904  14.806
 6078W        W78503  41.965  42.414  10.443
 6079W        W78504  39.408  22.192  13.436
 6080W        W78505  41.992  10.378  14.384
 6081W        W78506   0.946   6.851  10.477
 6082W        W78507  44.269   9.797  14.334
 6083W        W78508  22.198  18.765   4.801
 6084W        W78509  14.708  11.696  14.332
 6085W        W78510  44.001   9.717   2.776
 6086W        W78511  32.493   4.395   4.634
 6087W        W78512  14.220  27.052  12.918
 6088W        W78513   9.246   7.799  13.805
 6089W        W78514  19.704  20.660  14.420
 6090W        W78515  24.545  29.995   4.776
 6091W        W78516  38.570  19.589   3.250
 6092W        W78517  23.040   4.718  11.394
 6093W        W78518  22.095  12.120  13.987
 6094W        W78519  25.202  15.582  11.563
 6095W        W78520   6.265  17.661  14.818
 6096W        W78521  36.854  12.673   4.155
 6097W        W78522  40.461  21.512   1.843
 6098W        W78523  24.987   1.461  13.993
 6099W        W78524  14.152   5.422  13.930
 6100W        W78525   7.299  41.419   2.353
 6101W        W78526  15.812   1.360   1.918
 6102W        W78527  42.782  29.433  13.499
 6103W        W78528   9.207   3.831  14.488
 6104W        W78529  22.633  42.324  14.352
 6105W        W78530  41.845  35.411  14.020
 6106W        W78531   1.911  12.693   2.280
 6107W        W78532   1.843  34.514   1.796
 6108W        W78533  42.912  10.372  14.828
 6109W        W78534  41.513   9.387   0.338
 6110W        W78535  14.827   8.324   1.780
 6111W        W78536  32.602   5.342   0.409
 6112W        W78537   0.389  15.757  10.017
 6113W        W78538  20.633  21.235   1.325
 6114W        W78539  33.102  41.459  14.796
 6115W        W78540  19.051  34.980  12.929
 6116W        W78541   9.751  28.057  11.089
 6117W        W78542  43.767   1.904   2.206
 6118W        W78543   9.863  17.099  13.319
 6119W        W78544  22.517   9.886  11.893
 6120W        W78545  33.565  36.905  11.595
 6121W        W78546   3.786  31.508  10.459
 6122W        W78547   9.271  11.191   0.921
 6123W        W78548   0.752   9.246  14.837
 6124W        W78549  41.469  30.522  14.407
 6125W        W78550  15.749  11.171  11.474
 6126W        W78551  21.662  34.034  11.125
 6127W        W78552   8.685  11.637   0.964
 6128W        W78553  16.133   1.404  14.811
 6129W        W78554  31.968   8.347  10.450
 6130W        W78555   7.855  44.975   4.339
 6131W        W78556  13.623   4.350   4.119
 6132W        W78557   2.776  37.987  13.961
 6133W        W78558  32.467  17.129  11.398
 6134W        W78559  12.151  15.766  10.445
 6135W        W78560  22.676  38.375   4.154
 6136W        W78561  26.055  20.610  11.097
 6137W        W78562  34.979  38.059   1.366
 6138W        W78563  37.431  30.909  11.388
 6139W        W78564  37.435  27.596   1.317
 6140W        W78565  36.847  44.843   0.452
 6141W        W78566  25.016  36.060   3.184
 6142W        W78567  44.792   3.945  11.523
 6143W        W78568   1.921  28.479  12.546
 6144W        W78569   3.874  11.239  11.857
 6145W        W78570   6.312  34.549  10.143
 6146W        W78571   2.469  43.957   1.215
 6147W        W78572  40.864  26.599  14.939
 6148W        W78573  21.535  11.690  10.998
 6149W        W78574  14.695  40.975   2.366
 6150W        W78575  27.122  18.586  12.933
 6151W        W78576   6.872  23.631   3.237
 6152W        W78577  41.939  10.376  11.398
 6153W        W78578   1.830   0.347  10.499
 6154W        W78579  14.196  22.022   5.313
 6155W        W78580  41.422  15.301  14.814
 6156W        W78581   4.892  43.769  14.392
 6157W        W78582   9.317   1.944   0.873
 6158W        W78583  42.886  37.369  12.446
 6159W        W78584  30.139  34.090  11.887
 6160W        W78585  24.162  15.695   3.830
 6161W        W78586  24.190  32.031  13.987
 6162W        W78587   2.382   8.403  13.900
 6163W        W78588  28.503  25.490  12.861
 6164W        W78589  29.034   5.899   1.835
 6165W        W78590   4.733  32.101  10.959
 6166W        W78591  37.854  30.140   2.849
 6167W        W78592  34.479  42.996   2.778
 6168W        W78593  33.421  31.493   3.178
 6169W        W78594  13.646  37.085   0.906
 6170W        W78595  12.214  13.269  10.502
 6171W        W78596  44.951   4.288   0.402
 6172W        W78597  34.014   5.818  13.892
 6173W        W78598  41.537  13.256  13.512
 6174W        W78599  12.641  34.021   0.955
 6175W        W78600  22.151   3.247  12.388
 6176W        W78601  32.896  31.924  11.067
 6177W        W78602  16.777   6.417  12.537
 6178W        W78603  29.014  33.477  12.854
 6179W        W78604  17.751  21.575  12.902
 6180W        W78605  37.993  12.639  13.875
 6181W        W78606  28.040  18.202   3.197
 6182W        W78607  33.476  40.830  12.851
 6183W        W78608  32.075  20.600  11.118
 6184W        W78609  20.636  10.194   0.459
 6185W        W78610  43.334  36.445   1.249
 6186W        W78611  37.861  21.218  13.434
 6187W        W78612  24.026  44.441  12.991
 6188W        W78613   6.389  17.113  13.346
 6189W        W78614   6.702  27.653  14.816
 6190W        W78615  30.566  16.571   2.757
 6191W        W78616  28.164  36.360  11.869
 6192W        W78617  34.407  43.283  11.946
 6193W        W78618  40.517  44.383  11.931
 6194W        W78619  21.222   4.734  12.851
 6195W        W78620   1.255   2.929   2.677
 6196W        W78621  22.206  29.483   2.776
 6197W        W78622  36.411  36.026  11.974
 6198W        W78623  37.978  26.529   4.617
 6199W        W78624   7.766  24.181   4.748
 6200W        W78625  17.716  11.706   3.385
 6201W        W78626  17.246   9.656  11.048
 6202W        W78627  42.014  25.575   0.341
 6203W        W78628  13.735  25.660  10.499
 6204W        W78629   1.739  37.526  13.459
 6205W        W78630  12.687  29.071   3.785
 6206W        W78631  23.156  22.999  12.534
 6207W        W78632  38.395  43.505  10.940
 6208W        W78633  19.570  40.843   0.285
 6209W        W78634  34.105  22.200  11.925
 6210W        W78635   2.802  30.125  12.411
 6211W        W78636  42.820   6.265  12.074
 6212W        W78637  23.164  29.014   3.265
 6213W        W78638  43.282  23.098  11.421
 6214W        W78639  25.528  25.571   2.868
 6215W        W78640  15.589  44.863  14.925
 6216W        W78641  11.710  18.263   1.409
 6217W        W78642  18.649  22.661  11.118
 6218W        W78643  28.681   9.294   3.331
 6219W        W78644  34.587  37.974  13.817
 6220W        W78645  20.135  30.533   9.572
 6221W        W78646  36.437  22.673   1.833
 6222W        W78647  35.498  11.783   0.302
 6223W        W78648  36.039  43.954  12.397
 6224W        W78649   1.794   4.736  10.632
 6225W        W78650  34.486  34.106  12.343
 6226W        W78651  31.026   0.476  13.508
 6227W        W78652  14.153   4.835   5.234
 6228W        W78653  43.385   6.873  14.905
 6229W        W78654  34.987   5.227  12.406
 6230W        W78655  34.879  17.555  11.568
 6231W        W78656  41.829   3.858   2.835
 6232W        W78657   8.218  38.409   4.220
 6233W        W78658  31.475  32.957  11.418
 6234W        W78659   6.804  18.776  13.016
 6235W        W78660   7.681  32.076  12.952
 6236W        W78661  25.145  12.848  13.823
 6237W        W78662  12.261  17.677   0.266
 6238W        W78663  25.600  19.142   3.659
 6239W        W78664  22.709  28.946  10.461
 6240W        W78665  19.631  32.536   2.745
 6241W        W78666  41.001  11.693  12.368
 6242W        W78667   4.698  39.994  10.051
 6243W        W78668  34.532  10.383   3.297
 6244W        W78669   4.916   0.304  11.420
 6245W        W78670  41.809  44.933   2.272
 6246W        W78671  37.546  29.035   2.846
 6247W        W78672  27.105   7.176   1.434
 6248W        W78673  24.516  30.971   0.918
 6249W        W78674   3.921  29.949   2.207
 6250W        W78675  40.832  35.513  13.999
 6251W        W78676  14.621  44.008  13.432
 6252W        W78677   3.804  19.738  11.608
 6253W        W78678  11.298  43.868   0.458
 6254W        W78679  26.975  32.566   0.804
 6255W        W78680  27.170  43.308  13.896
 6256W        W78681   5.806  25.178   2.340
 6257W        W78682   5.819   9.801  12.396
 6258W        W78683  27.054  23.645   3.673
 6259W        W78684  25.077  41.445  10.486
 6260W        W78685  26.574  12.671  12.903
 6261W        W78686  39.000  11.756  13.012
 6262W        W78687  20.744   0.880  14.310
 6263W        W78688  23.001  31.570   3.648
 6264W        W78689  17.247  14.166   2.197
 6265W        W78690  24.556   2.828   3.323
 6266W        W78691  19.219   3.738  12.880
 6267W        W78692  20.228  18.081  10.547
 6268W        W78693  19.068  43.991   2.751
 6269W        W78694  36.409  24.979   9.520
 6270W        W78695  10.349  28.658   3.353
 6271W        W78696  19.169  19.152   4.223
 6272W        W78697  17.236   7.787  12.388
 6273W        W78698  16.130  26.668   3.836
 6274W        W78699   0.300   0.349   1.280
 6275W        W78700   7.775  43.960   3.196
 6276W        W78701  19.609   8.870   4.262
 6277W        W78702  16.788  20.699   0.888
 6278W        W78703  38.055  10.193  12.406
 6279W        W78704  11.162  12.159   0.348
 6280W        W78705  29.983   9.188   4.321
 6281W        W78706  42.796  42.855   3.240
 6282W        W78707  26.099  40.459   4.641
 6283W        W78708  17.266  13.213  13.434
 6284W        W78709  16.190  20.048  13.426
 6285W        W78710   8.361  44.906   3.145
 6286W        W78711  24.140  32.625   2.365
 6287W        W78712  11.734  29.467  13.353
 6288W        W78713  31.071  14.654   2.200
 6289W        W78714  27.031  22.704   3.319
 6290W        W78715   4.717   5.252   0.791
 6291W        W78716   6.770  25.501   3.193
 6292W        W78717  11.250  43.306   1.803
 6293W        W78718   7.179  19.741  11.394
 6294W        W78719  40.376  24.222   2.780
 6295W        W78720   9.205  31.134   4.129
 6296W        W78721   6.218   2.426  11.402
 6297W        W78722  10.249  26.565   4.244
 6298W        W78723   9.208   7.863  14.779
 6299W        W78724  31.038  22.116   0.863
 6300W        W78725  16.130  32.902  14.430
 6301W        W78726  32.564  14.240  11.591
 6302W        W78727  11.322   6.828   4.273
 6303W        W78728  42.349  15.256   1.449
 6304W        W78729  34.442  29.517   1.754
 6305W        W78730   3.246  43.772   0.279
 6306W        W78731  10.360  24.638  13.938
 6307W        W78732   3.365  27.125  12.513
 6308W        W78733  16.703  11.195  13.323
 6309W        W78734  35.532  17.596  11.880
 6310W        W78735   5.718   4.230   3.823
 6311W        W78736  13.326   2.859   4.291
 6312W        W78737  18.649  32.886  12.979
 6313W        W78738  20.237   2.870  14.967
 6314W        W78739  32.041  13.750   2.260
 6315W        W78740   1.828  43.958   3.687
 6316W        W78741  38.848   4.782   0.250
 6317W        W78742   4.300   5.910  14.290
 6318W        W78743  23.583  10.234  12.051
 6319W        W78744  16.272  31.948   3.198
 6320W        W78745  38.024  19.154  11.544
 6321W        W78746   1.317  15.598  14.432
 6322W        W78747  38.529  11.151   3.305
 6323W        W78748  14.284  40.390   4.161
 6324W        W78749  29.988   7.174   1.732
 6325W        W78750   3.240   0.291   1.238
 6326W        W78751  39.388  22.171   0.824
 6327W        W78752   9.323  44.790   4.165
 6328W        W78753  24.161  17.577  11.998
 6329W        W78754   0.796  38.352  12.939
 6330W        W78755  28.971  37.985  13.862
 6331W        W78756  14.138  32.440   1.886
 6332W        W78757  31.468  40.529  11.065
 6333W        W78758  42.404  37.456  12.849
 6334W        W78759   0.278  28.583   3.384
 6335W        W78760  26.993  12.257   4.655
 6336W        W78761  31.575   1.255   3.264
 6337W        W78762   2.292   3.753   3.324
 6338W        W78763  43.923   4.727  14.031
 6339W        W78764  34.899  33.533   4.159
 6340W        W78765  23.514  43.812   3.352
 6341W        W78766   9.688  24.039  11.538
 6342W        W78767   4.864  29.468  14.326
 6343W        W78768  43.811   4.422  14.005
 6344W        W78769  16.639   7.389  13.944
 6345W        W78770  22.715  30.093  12.870
 6346W        W78771   4.207  28.612   3.778
 6347W        W78772  25.712  18.754   2.372
 6348W        W78773  28.609  33.580  10.931
 6349W        W78774  24.197   0.896   4.652
 6350W        W78775  11.233   5.762   9.665
 6351W        W78776  28.184  19.274  14.015
 6352W        W78777  36.848  29.589   4.188
 6353W        W78778  17.564  11.190  11.056
 6354W        W78779  24.720  23.000  14.812
 6355W        W78780  29.046   9.665  13.485
 6356W        W78781  15.237  29.145  13.528
 6357W        W78782  43.966   2.408  14.775
 6358W        W78783  18.667   5.765   4.254
 6359W        W78784  43.850   8.302   1.296
 6360W        W78785  32.057   8.660  10.554
 6361W        W78786  14.744  37.878  10.515
 6362W        W78787   7.313   1.312   0.380
 6363W        W78788   2.917  21.694   2.226
 6364W        W78789   2.429  39.843  14.860
 6365W        W78790  15.309  33.411  11.574
 6366W        W78791  20.609  33.524  13.952
 6367W        W78792  20.204   7.227  13.529
 6368W        W78793  18.193   9.727  13.435
 6369W        W78794  38.570   3.325  14.432
 6370W        W78795  27.168  28.602   0.830
 6371W        W78796  25.639   3.324   3.230
 6372W        W78797  35.496  18.626   1.795
 6373W        W78798  24.073  15.696   2.195
 6374W        W78799  24.482  33.988   0.738
 6375W        W78800  42.298  34.383  11.870
 6376W        W78801  17.244  19.121   0.904
 6377W        W78802  22.160  16.575  13.417
 6378W        W78803  17.172  15.779   3.639
 6379W        W78804  17.780  31.987   2.408
 6380W        W78805  11.174  34.440  14.423
 6381W        W78806  18.055  34.079   3.220
 6382W        W78807  22.019  10.754   0.906
 6383W        W78808  41.374  36.395   3.205
 6384W        W78809  28.605   4.234  13.389
 6385W        W78810  29.432   6.873  14.306
 6386W        W78811  35.568  13.158   0.423
 6387W        W78812  33.553  41.911   0.278
 6388W        W78813  17.794  21.258   3.330
 6389W        W78814   4.864   7.841   3.168
 6390W        W78815  12.145  30.501  14.310
 6391W        W78816   1.308  43.811  13.931
 6392W        W78817  28.513  36.903  11.513
 6393W        W78818  13.320  10.745   0.800
 6394W        W78819  33.414  31.940  14.973
 6395W        W78820   0.391  38.932  12.016
 6396W        W78821   9.680  39.425   0.847
 6397W        W78822   3.764  17.728   0.764
 6398W        W78823  28.107  34.556   3.287
 6399W        W78824  40.536  13.738  11.984
 6400W        W78825  21.528   6.420   2.241
 6401W        W78826  33.015  19.261   0.257
 6402W        W78827   0.370   5.290   4.604
 6403W        W78828  38.500   4.243  10.456
 6404W        W78829  38.893  43.903   4.793
 6405W        W78830  42.452  30.498   0.417
 6406W        W78831  21.077   2.776  14.775
 6407W        W78832  41.313   9.155   1.288
 6408W        W78833  15.767  12.252  13.805
 6409W        W78834  35.598  23.580   0.402
 6410W        W78835  40.547   6.369   1.291
 6411W        W78836  42.419  12.126  11.933
 6412W        W78837  26.074  21.538  13.372
 6413W        W78838  40.311  37.343   0.871
 6414W        W78839   2.889  42.778  14.333
 6415W        W78840  30.487  44.470  13.896
 6416W        W78841  38.532  18.641  14.892
 6417W        W78842  41.865   3.369   4.167
 6418W        W78843   5.823  36.089   0.735
 6419W        W78844  18.130  26.958  14.508
 6420W        W78845  40.414  14.624   2.816
 6421W        W78846  17.075   4.772   3.179
 6422W        W78847  31.964  12.729   0.300
 6423W        W78848   6.680  12.273   1.801
 6424W        W78849  44.437  24.611   2.741
 6425W        W78850   1.921  41.805   3.856
 6426W        W78851   5.872   7.367   4.305
 6427W        W78852   7.730  34.593   2.295
 6428W        W78853  38.359  28.654   4.806
 6429W        W78854  44.426  15.601   0.380
 6430W        W78855   5.394  22.014   3.242
 6431W        W78856  12.665  18.060   4.604
 6432W        W78857  40.042  43.490   0.947
 6433W        W78858  34.994  10.858  14.886
 6434W        W78859  37.458  23.689   3.285
 6435W        W78860  31.559   8.761  14.407
 6436W        W78861  32.924  40.512   1.401
 6437W        W78862  27.469  18.731  10.496
 6438W        W78863  13.845   4.332   0.904
 6439W        W78864  33.876   8.253  14.962
 6440W        W78865  21.123  28.008   1.815
 6441W        W78866  17.292  15.620   2.414
 6442W        W78867  29.451  30.529  10.466
 6443W        W78868  29.967  26.951   4.250
 6444W        W78869  38.979  21.697  13.016
 6445W        W78870  42.329  16.592   3.174
 6446W        W78871  36.031  18.089   3.206
 6447W        W78872  22.583  44.301   2.335
 6448W        W78873  40.415  16.290   3.678
 6449W        W78874  31.049  28.013  13.863
 6450W        W78875  24.589  40.331   1.903
 6451W        W78876   1.885  40.400   1.791
 6452W        W78877   5.280  44.767  14.979
 6453W        W78878  30.928  30.414  11.520
 6454W        W78879  43.449   8.359   3.840
 6455W        W78880  10.667   0.274   2.677
 6456W        W78881  33.382  35.908  14.857
 6457W        W78882   8.358  27.972  10.412
 6458W        W78883   2.863  18.548   3.197
 6459W        W78884  30.078  16.253   0.352
 6460W        W78885  11.673   3.331   2.854
 6461W        W78886  35.002  38.948   9.944
 6462W        W78887  21.133   0.800   3.778
 6463W        W78888  14.251  15.582  11.528
 6464W        W78889   1.800   5.315  14.823
 6465W        W78890   3.448  40.906  10.624
 6466W        W78891   2.415  42.018  12.488
 6467W        W78892  29.164  25.039  12.980
 6468W        W78893  18.672  27.175  14.857
 6469W        W78894  16.649  17.589  11.928
 6470W        W78895  31.101  13.671   4.804
 6471W        W78896   7.708  28.984  12.899
 6472W        W78897  13.171  11.650   0.333
 6473W        W78898   0.960  39.016  11.481
 6474W        W78899  28.181  37.836  10.922
 6475W        W78900  33.556  22.636  14.326
 6476W        W78901  36.539   8.760   3.680
 6477W        W78902   8.830  44.912  12.486
 6478W        W78903  37.426   1.781   1.822
 6479W        W78904  22.556  13.642  14.891
 6480W        W78905  24.592  12.190  12.398
 6481W        W78906  44.994  34.005  10.458
 6482W        W78907  22.661  24.211   0.767
 6483W        W78908  34.481  10.353  11.561
 6484W        W78909  36.936   6.278  12.925
 6485W        W78910   0.343  15.586   2.745
 6486W        W78911  21.143   7.250   0.902
 6487W        W78912   9.175  31.491  14.307
 6488W        W78913   1.299  31.903   4.833
 6489W        W78914   6.260  40.894   4.276
 6490W        W78915  40.487  12.147  11.932
 6491W        W78916  17.732   7.353  11.001
 6492W        W78917  36.869  20.231   1.234
 6493W        W78918  18.619  18.567  11.896
 6494W        W78919  24.096  25.512  10.467
 6495W        W78920  44.371  43.005  13.029
 6496W        W78921  35.504  35.389   4.602
 6497W        W78922  24.658  13.269   2.677
 6498W        W78923  24.007  29.513   2.294
 6499W        W78924  39.901  33.097  11.908
 6500W        W78925   9.246  39.887  13.026
 6501W        W78926  44.409   7.892   2.723
 6502W        W78927  43.297  36.503  14.471
 6503W        W78928   4.727   0.339  10.083
 6504W        W78929  37.915   3.749  14.874
 6505W        W78930  10.851   4.891   4.291
 6506W        W78931  31.644  32.549   2.347
 6507W        W78932  18.581  27.151  11.961
 6508W        W78933  21.686  28.034  13.893
 6509W        W78934   0.908  36.483   4.805
 6510W        W78935   6.920  34.548   4.745
 6511W        W78936  36.927  34.425   1.370
 6512W        W78937   9.693  42.373   4.336
 6513W        W78938  10.702  36.916   2.875
 6514W        W78939  33.107   4.879  10.616
 6515W        W78940  30.626   1.935  13.962
 6516W        W78941  18.225  31.418  14.982
 6517W        W78942  14.265   8.397  13.821
 6518W        W78943  17.786  36.023  10.640
 6519W        W78944  33.524  33.048   1.297
 6520W        W78945  40.833  44.273  13.461
 6521W        W78946  37.084  33.085  10.590
 6522W        W78947  19.264  39.907   3.373
 6523W        W78948   9.389  38.451  11.936
 6524W        W78949  17.124  12.670   3.267
 6525W        W78950   2.833  24.001  14.782
 6526W        W78951  13.171  15.131  14.484
 6527W        W78952   9.715   5.304   9.498
 6528W        W78953  31.079  36.530   0.345
 6529W        W78954  10.659   7.792   0.421
 6530W        W78955  10.745   3.813  10.895
 6531W        W78956  40.020  15.687   4.800
 6532W        W78957   8.326  37.873  12.013
 6533W        W78958  34.053   6.919  13.052
 6534W        W78959   9.793  34.967  12.047
 6535W        W78960  19.748  30.050   0.950
 6536W        W78961  29.111  10.677  11.535
 6537W        W78962  12.615   5.712  11.861
 6538W        W78963  43.865  25.191   0.325
 6539W        W78964  14.279  37.967  14.395
 6540W        W78965  21.582   2.827   0.838
 6541W        W78966  19.762  14.612   2.375
 6542W        W78967  10.791  30.084   0.462
 6543W        W78968  35.603   3.448   2.901
 6544W        W78969  20.092   8.174  13.875
 6545W        W78970  12.680   3.835  12.974
 6546W        W78971  19.102  14.336  13.916
 6547W        W78972  40.800  32.142   3.772
 6548W        W78973  11.661  39.954   3.220
 6549W        W78974  36.055  19.177  11.527
 6550W        W78975  33.060  15.233   0.435
 6551W        W78976  41.385  36.576  12.910
 6552W        W78977  44.985  13.228  14.933
 6553W        W78978  27.488  31.032   0.371
 6554W        W78979  35.454   7.174   4.825
 6555W        W78980  26.497  33.908  11.951
 6556W        W78981  24.008  14.282   5.320
 6557W        W78982  32.988  43.281   0.439
 6558W        W78983  30.653  21.263   4.180
 6559W        W78984  35.563  11.224   4.268
 6560W        W78985  31.596  12.323  14.478
 6561W        W78986  36.999  17.757  14.927
 6562W        W78987  10.694  24.193  13.331
 6563W        W78988  14.650   5.808   1.739
 6564W        W78989  10.704   8.821   1.696
 6565W        W78990  40.812  17.234  11.902
 6566W        W78991   7.875  28.648   4.319
 6567W        W78992  31.020  15.622  10.533
 6568W        W78993  42.514  26.461  12.000
 6569W        W78994   3.311  25.005   2.781
 6570W        W78995  44.905  38.977  10.966
 6571W        W78996  29.933  16.293   4.348
 6572W        W78997  27.659  40.515  11.042
 6573W        W78998  37.402  14.649   0.934
 6574W        W78999  13.681  41.005  11.405
 6575W        W79000   5.345  19.581  11.438
 6576W        W79001  33.069  23.497   4.195
 6577W        W79002  10.650   7.725  14.486
 6578W        W79003   5.917   3.841   0.814
 6579W        W79004  13.249   9.301  14.275
 6580W        W79005   7.287   4.406   4.124
 6581W        W79006  18.186  37.907  14.903
 6582W        W79007  40.958  33.874  13.537
 6583W        W79008  32.608   9.810  11.978
 6584W        W79009  44.902  28.474   4.136
 6585W        W79010  39.849  39.442  14.765
 6586W        W79011   5.205  37.968  13.873
 6587W        W79012  33.467   9.812   1.786
 6588W        W79013  25.083  17.180   3.757
 6589W        W79014  28.557  41.437   4.299
 6590W        W79015  24.087  32.590   0.440
 6591W        W79016  34.032  37.031   1.335
 6592W        W79017  32.036  13.744  12.082
 6593W        W79018   9.251  23.173   0.403
 6594W        W79019  34.929   7.777   0.436
 6595W        W79020  42.450  38.411  10.502
 6596W        W79021   7.201  33.566   3.370
 6597W        W79022  27.110  26.525   4.667
 6598W        W79023   9.828   3.749   4.822
 6599W        W79024   6.306  24.564   2.797
 6600W        W79025  19.744  29.065  14.306
 6601W        W79026   9.202   3.393   9.976
 6602W        W79027  28.064  19.735   4.152
 6603W        W79028   5.424  38.989  11.534
 6604W        W79029  23.491  35.404  12.446
 6605W        W79030   3.440  25.680   3.383
 6606W        W79031   6.689   9.718  11.004
 6607W        W79032  42.856   9.252  14.998
 6608W        W79033  41.786  38.393   1.887
 6609W        W79034  15.206   9.204   3.306
 6610W        W79035  32.070  10.152  13.527
 6611W        W79036  22.534  30.469  10.136
 6612W        W79037  34.412  31.017   2.873
 6613W        W79038   1.465   1.350   1.359
 6614W        W79039  44.954  16.183  14.843
 6615W        W79040  15.185   4.353  10.954
 6616W        W79041  44.302  39.913   3.775
 6617W        W79042   5.409  17.593  11.430
 6618W        W79043   1.851   3.714  11.912
 6619W        W79044  37.480  13.667   4.793
 6620W        W79045  14.160   6.312   4.637
 6621W        W79046   2.388  19.568  13.805
 6622W        W79047  34.924  26.179   2.677
 6623W        W79048  38.070  33.603  13.384
 6624W        W79049  22.652  36.001   2.319
 6625W        W79050  22.211   2.226   2.677
 6626W        W79051  31.914   2.930   4.174
 6627W        W79052  33.037  26.972   4.116
 6628W        W79053  22.150  30.984  11.550
 6629W        W79054  39.941   1.292  11.446
 6630W        W79055  17.605  35.533  14.347
 6631W        W79056  29.015  11.745  11.018
 6632W        W79057  25.154  18.646   4.191
 6633W        W79058  37.408  30.095  11.068
 6634W        W79059   0.988   4.340   2.360
 6635W        W79060  42.789  11.686   1.699
 6636W        W79061  10.221   2.436  11.058
 6637W        W79062  14.316  22.998  14.861
 6638W        W79063  25.524  18.050   1.836
 6639W        W79064   0.792  17.708  11.928
 6640W        W79065  38.541   6.253  14.884
 6641W        W79066  13.105  38.925   1.244
 6642W        W79067   7.856   4.914   5.301
 6643W        W79068   1.323  16.737   2.847
 6644W        W79069  42.805  41.850   0.796
 6645W        W79070  24.082   5.906   2.202
 6646W        W79071  29.639  11.174   0.328
 6647W        W79072  44.768  23.985   0.787
 6648W        W79073  35.969  32.442  13.824
 6649W        W79074  24.094   3.829  13.940
 6650W        W79075   3.789  43.398   3.679
 6651W        W79076  10.643  34.071   1.389
 6652W        W79077   3.831  42.348   4.619
 6653W        W79078  10.245  29.615  13.989
 6654W        W79079  14.313   7.227   0.792
 6655W        W79080  33.899  33.960  13.504
 6656W        W79081  27.051  35.598   2.353
 6657W        W79082  44.482  27.526   4.277
 6658W        W79083   0.900  33.551  11.611
 6659W        W79084  26.028  27.488  13.903
 6660W        W79085  28.097  19.686  11.862
 6661W        W79086  34.453  11.196  11.468
 6662W        W79087  33.553  38.924   3.314
 6663W        W79088   0.858   3.725   4.773
 6664W        W79089  26.701  18.695   1.821
 6665W        W79090  16.171   6.838   4.672
 6666W        W79091  18.175  20.156   0.390
 6667W        W79092  38.877   1.951   1.296
 6668W        W79093  33.015  18.074   3.772
 6669W        W79094  10.860   5.813   1.785
 6670W        W79095   1.973  27.187   0.770
 6671W        W79096  21.260  12.727  10.043
 6672W        W79097  37.978  16.158   4.623
 6673W        W79098  25.096  27.974  12.382
 6674W        W79099  40.375  26.530   4.673
 6675W        W79100   8.209  19.125  14.343
 6676W        W79101  18.099  14.156  12.961
 6677W        W79102  23.522  15.111  14.813
 6678W        W79103  18.765  42.981   3.169
 6679W        W79104  25.017  42.936   2.255
 6680W        W79105  39.852  34.947   4.342
 6681W        W79106  37.503  19.585   0.353
 6682W        W79107  24.998   9.301  14.002
 6683W        W79108  29.652  44.316  10.154
 6684W        W79109   1.366   6.784  11.607
 6685W        W79110  23.144   1.780  10.996
 6686W        W79111  29.559  31.616   4.167
 6687W        W79112   9.185  14.217  10.458
 6688W        W79113  33.935  35.363   1.365
 6689W        W79114   9.848   4.747   1.303
 6690W        W79115  35.078  28.137  12.472
 6691W        W79116  42.377  23.705   3.232
 6692W        W79117   1.945  39.366   4.670
 6693W        W79118  36.505  29.439  12.836
 6694W        W79119   3.216  33.527  12.025
 6695W        W79120  19.669  34.578   1.305
 6696W        W79121  15.749  33.994  11.014
 6697W        W79122  28.508  19.631   5.137
 6698W        W79123   7.707   5.364  14.852
 6699W        W79124  41.317  25.610  13.841
 6700W        W79125   4.901  38.567   4.334
 6701W        W79126  10.808  38.985   4.131
 6702W        W79127  31.965  36.419  12.937
 6703W        W79128   2.265  18.626   1.926
 6704W        W79129  40.519  31.074   3.696
 6705W        W79130  11.321  32.616   1.839
 6706W        W79131  32.533  33.456  13.379
 6707W        W79132  33.948  10.827   4.213
 6708W        W79133  33.113   8.310  10.534
 6709W        W79134  42.837  37.079   3.281
 6710W        W79135  12.826  13.785  11.011
 6711W        W79136  27.512  23.533   4.614
 6712W        W79137  29.535  19.761   1.796
 6713W        W79138  16.165  31.939   3.865
 6714W        W79139  24.980  30.589   3.645
 6715W        W79140  40.361  31.898   1.759
 6716W        W79141  12.789   3.277  11.995
 6717W        W79142  22.230  34.413  13.792
 6718W        W79143  20.659  16.681  14.956
 6719W        W79144  24.095  35.900   3.194
 6720W        W79145  31.074  21.161  14.780
 6721W        W79146  36.877  33.515   3.677
 6722W        W79147   2.349  24.532  11.970
 6723W        W79148  33.502   4.434  12.021
 6724W        W79149  36.051  27.053   3.665
 6725W        W79150   5.806  26.458  10.429
 6726W        W79151  44.992  14.806   4.162
 6727W        W79152  16.240  40.890   4.213
 6728W        W79153  23.066  33.936   2.882
 6729W        W79154  13.303  31.487  11.961
 6730W        W79155  31.997  11.282   3.256
 6731W        W79156  11.282  34.490  11.118
 6732W        W79157  34.110   9.646  10.931
 6733W        W79158  43.311  11.338  11.127
 6734W        W79159   1.442  36.084  11.106
 6735W        W79160  15.769  35.998  11.921
 6736W        W79161  19.194  18.712  13.354
 6737W        W79162  18.618  32.590  11.080
 6738W        W79163   0.974  18.178  13.372
 6739W        W79164  25.660  41.356   2.281
 6740W        W79165   0.377  18.224   1.416
 6741W        W79166  18.053  16.788   2.882
 6742W        W79167  28.558   1.429  13.327
 6743W        W79168   6.895   2.802  13.345
 6744W        W79169   3.316  19.643  12.044
 6745W        W79170  40.887   2.391  11.402
 6746W        W79171   4.856  31.102   3.351
 6747W        W79172  28.933  20.209   0.784
 6748W        W79173  32.966  29.990  11.482
 6749W        W79174  19.562   7.817  13.388
 6750W        W79175  42.505   1.960   2.407
 6751W        W79176  16.116  30.940  13.465
 6752W        W79177  42.286  34.383   2.388
 6753W        W79178   7.786  35.869  13.813
 6754W        W79179  42.431  14.817  10.913
 6755W        W79180  12.679  32.955  12.418
 6756W        W79181  36.418  14.724  10.419
 6757W        W79182   8.242   4.877  14.294
 6758W        W79183  25.995  18.176   4.608
 6759W        W79184  27.626   5.750  13.869
 6760W        W79185  30.946  37.005   0.890
 6761W        W79186  38.434  14.199  12.888
 6762W        W79187   0.879   7.736   0.924
 6763W        W79188  23.144  30.492   2.763
 6764W        W79189  10.648  19.151  13.337
 6765W        W79190  10.848  10.772   2.886
 6766W        W79191  20.525  25.518   0.412
 6767W        W79192  39.845  37.925  13.543
 6768W        W79193  19.088  38.019  14.842
 6769W        W79194  18.220  40.949   0.349
 6770W        W79195  20.240  25.107   3.728
 6771W        W79196  43.003  34.055   0.880
 6772W        W79197  12.818  32.441   3.292
 6773W        W79198  34.375  21.607   4.671
 6774W        W79199  40.838  30.636  13.421
 6775W        W79200  13.172  29.513  14.425
 6776W        W79201  29.068  17.705  10.415
 6777W        W79202  39.429  11.208  14.409
 6778W        W79203  42.313  40.960  13.832
 6779W        W79204  13.691   0.422   3.738
 6780W        W79205  31.131  28.446   3.233
 6781W        W79206  31.610  39.385  12.036
 6782W        W79207  25.616  19.578  11.372
 6783W        W79208  42.412  10.878  12.388
 6784W        W79209   2.731   3.851   2.214
 6785W        W79210  29.111  21.659  14.303
 6786W        W79211  32.954  16.610   3.705
 6787W        W79212  21.094  28.582   4.152
 6788W        W79213  18.176  18.221   2.720
 6789W        W79214  21.671  33.545   3.741
 6790W        W79215  28.114  31.545  13.938
 6791W        W79216   9.270  21.058  14.903
 6792W        W79217  25.481  13.214   1.421
 6793W        W79218  18.217  20.264   3.173
 6794W        W79219  37.381  22.667   0.278
 6795W        W79220  36.975   8.303  13.530
 6796W        W79221  30.469  24.117   4.633
 6797W        W79222  25.210  15.820  12.900
 6798W        W79223   9.714  40.308  14.372
 6799W        W79224  37.975  10.140  10.042
 6800W        W79225  27.118  14.264   3.866
 6801W        W79226   3.929  14.220   0.259
 6802W        W79227  39.415   0.317   0.466
 6803W        W79228  41.531  26.559   3.160
 6804W        W79229  10.662  13.649  10.420
 6805W        W79230   7.201  16.729   3.252
 6806W        W79231  35.996  13.816  14.408
 6807W        W79232  26.525  35.037   2.803
 6808W        W79233  26.667  33.882  12.929
 6809W        W79234  29.637  14.331   3.768
 6810W        W79235   2.419  34.599   4.308
 6811W        W79236  32.092  27.110  11.520
 6812W        W79237  12.170  33.504  14.946
 6813W        W79238   0.863  31.082  11.609
 6814W        W79239   3.416  30.613   0.767
 6815W        W79240  22.225  33.500   4.641
 6816W        W79241  29.059  18.296   2.846
 6817W        W79242  11.685  17.668  11.374
 6818W        W79243  17.595  32.054  14.908
 6819W        W79244  20.181  15.192   1.445
 6820W        W79245  31.064  42.352   2.341
 6821W        W79246  20.683  16.237   0.353
 6822W        W79247  22.536  43.276  14.763
 6823W        W79248   6.689   2.949  12.419
 6824W        W79249   9.744  26.632   1.372
 6825W        W79250  14.195  12.762   2.671
 6826W        W79251  18.275  33.999  13.956
 6827W        W79252  22.100  41.952  13.452
 6828W        W79253   4.943   6.680   4.689
 6829W        W79254  26.110  30.417   3.683
 6830W        W79255  38.968   3.434   3.638
 6831W        W79256  19.261   5.689  12.865
 6832W        W79257  44.915  35.368  13.030
 6833W        W79258  17.137  12.166   0.797
 6834W        W79259  16.675  10.802  10.471
 6835W        W79260  31.123  38.445  14.421
 6836W        W79261  10.852   8.335  14.960
 6837W        W79262   1.949  12.279  14.316
 6838W        W79263  28.633  21.746  10.562
 6839W        W79264  14.609  41.502  12.848
 6840W        W79265  19.677  37.867   4.345
 6841W        W79266  30.599  22.190   2.703
 6842W        W79267  16.806  44.292   4.117
 6843W        W79268   4.759  38.014   2.360
 6844W        W79269  12.226   3.453   4.255
 6845W        W79270  19.725  15.769  13.899
 6846W        W79271  33.000  20.677  14.339
 6847W        W79272  30.927  14.259   3.744
 6848W        W79273  44.416   8.805   2.866
 6849W        W79274  16.787  18.758   4.229
 6850W        W79275  42.426  44.758   0.332
 6851W        W79276  15.792  30.962  12.823
 6852W        W79277   5.878  16.163  11.394
 6853W        W79278  19.254  31.960   2.874
 6854W        W79279  33.607  25.015   2.852
 6855W        W79280  17.569  26.642  13.015
 6856W        W79281  41.318  38.512  11.576
 6857W        W79282  27.682  10.225  10.081
 6858W        W79283  13.681  22.169   5.322
 6859W        W79284   8.667   2.371   4.192
 6860W        W79285  42.314  22.162  11.903
 6861W        W79286  32.466  43.347   2.258
 6862W        W79287  15.122  34.475   1.711
 6863W        W79288  10.271  29.578   1.827
 6864W        W79289  30.443   1.454   1.419
 6865W        W79290  42.398  42.334   3.287
 6866W        W79291  15.250  17.082  12.005
 6867W        W79292   7.758  26.069   0.875
 6868W        W79293   8.365  30.626  13.050
 6869W        W79294  10.834  37.868  14.924
 6870W        W79295  10.271   9.166  11.554
 6871W        W79296  12.743   4.773  10.576
 6872W        W79297  37.425  22.045  14.300
 6873W        W79298  25.993  44.494  13.525
 6874W        W79299  11.224   2.965  10.580
 6875W        W79300  21.029  22.995  11.547
 6876W        W79301  39.317  37.441  12.408
 6877W        W79302  43.880  10.730   0.774
 6878W        W79303  35.420  24.647  11.963
 6879W        W79304  24.672  31.481   1.278
 6880W        W79305   5.339  31.045   0.388
 6881W        W79306  18.161  39.378  13.919
 6882W        W79307   6.792  18.072  11.471
 6883W        W79308  27.611  26.527   5.187
 6884W        W79309  19.601  16.183  10.422
 6885W        W79310  28.594   3.358   2.331
 6886W        W79311  40.500  11.783  13.928
 6887W        W79312   2.431  29.563  14.350
 6888W        W79313   7.344  19.283  12.831
 6889W        W79314  12.356  27.492  11.886
 6890W        W79315  31.051  34.442   4.790
 6891W        W79316   0.828   8.670   4.213
 6892W        W79317   4.865  23.664  14.872
 6893W        W79318   2.241  20.118  13.936
 6894W        W79319  14.700  21.548   9.584
 6895W        W79320  36.887  40.030   4.655
 6896W        W79321   7.373  24.588   3.230
 6897W        W79322   0.268  32.624  14.819
 6898W        W79323  26.618  31.042   3.690
 6899W        W79324   4.846  41.495  14.917
 6900W        W79325   4.314  10.678   4.685
 6901W        W79326  18.287  35.870   1.812
 6902W        W79327  44.293  26.027   3.782
 6903W        W79328  37.878   0.288   2.265
 6904W        W79329  13.654  34.426  14.970
 6905W        W79330   0.473  13.331   3.348
 6906W        W79331  42.803  43.845   2.319
 6907W        W79332  22.529   6.252  13.436
 6908W        W79333  36.408  40.491   4.354
 6909W        W79334   4.291   1.859  12.575
 6910W        W79335  42.328  44.363   4.761
 6911W        W79336  28.671  15.264  13.932
 6912W        W79337   6.270  35.924  11.514
 6913W        W79338  14.321   8.282  11.432
 6914W        W79339  22.562  11.668   4.832
 6915W        W79340  13.244  19.261   0.277
 6916W        W79341  12.726  12.709  11.425
 6917W        W79342  29.959  20.051  14.465
 6918W        W79343  19.154  24.536   3.287
 6919W        W79344   8.710  31.492   3.803
 6920W        W79345  14.628  24.993  10.546
 6921W        W79346  32.551  38.960   1.342
 6922W        W79347   7.682   6.368   3.344
 6923W        W79348  21.737  15.284  14.461
 6924W        W79349  31.443  10.229   3.225
 6925W        W79350  40.504  11.208   0.463
 6926W        W79351  23.993  19.182   4.190
 6927W        W79352  44.820  38.471   0.464
 6928W        W79353   1.373  21.151   0.947
 6929W        W79354  35.947  44.313  14.361
 6930W        W79355  11.738   7.855   1.244
 6931W        W79356  36.855  41.513   4.306
 6932W        W79357   1.438  27.117  12.441
 6933W        W79358  34.035  21.756  12.436
 6934W        W79359   9.655  30.628   1.451
 6935W        W79360  36.508   1.876  14.361
 6936W        W79361   3.368  30.553  11.063
 6937W        W79362  29.649   2.419   1.766
 6938W        W79363   2.456  42.015   4.677
 6939W        W79364  34.423  31.120   1.737
 6940W        W79365  13.223  32.055  14.297
 6941W        W79366  34.374  37.858  11.943
 6942W        W79367  42.368  11.753   0.788
 6943W        W79368   7.869  43.846  12.013
 6944W        W79369  24.216   4.382   2.774
 6945W        W79370  23.016   2.459   0.274
 6946W        W79371   5.426  44.922   1.375
 6947W        W79372   9.708  26.001   4.831
 6948W        W79373  24.067  40.492  10.609
 6949W        W79374  32.952  15.147  11.906
 6950W        W79375   7.754  12.300   2.335
 6951W        W79376  11.234   0.782  13.008
 6952W        W79377   8.782  16.121  14.967
 6953W        W79378  32.006  36.024  13.390
 6954W        W79379  26.090  29.134  13.336
 6955W        W79380  39.919  26.145   0.434
 6956W        W79381  23.078  44.885  14.390
 6957W        W79382  44.866  34.994   0.428
 6958W        W79383  27.660  33.479  14.840
 6959W        W79384   3.417  23.593   3.366
 6960W        W79385  24.668  37.528  10.129
 6961W        W79386  13.749  13.133  14.794
 6962W        W79387  40.461  40.802  13.497
 6963W        W79388  17.076  40.023  10.430
 6964W        W79389  20.623  25.172  12.939
 6965W        W79390   1.277  17.688  10.488
 6966W        W79391  40.430  14.610  10.543
 6967W        W79392  33.081   9.803   0.439
 6968W        W79393  21.636  37.369  12.511
 6969W        W79394  17.236   5.763  14.811
 6970W        W79395   1.865  20.630   3.307
 6971W        W79396  35.009   4.448   1.772
 6972W        W79397  38.511  17.728  12.870
 6973W        W79398  40.349  18.222  11.105
 6974W        W79399  24.481   6.754   1.932
 6975W        W79400  24.229   6.290   4.142
 6976W        W79401  18.247   8.163  11.573
 6977W        W79402   0.433  19.561   4.690
 6978W        W79403  11.283  25.045  12.835
 6979W        W79404  42.915  42.993   4.282
 6980W        W79405  35.951   2.469   3.253
 6981W        W79406   8.714  14.227   1.755
 6982W        W79407  16.082  37.578  14.918
 6983W        W79408   3.327   5.284   0.464
 6984W        W79409  34.038  10.790  14.777
 6985W        W79410   3.710  11.775   0.954
 6986W        W79411  41.299  23.531  12.436
 6987W        W79412  36.348  28.159   0.440
 6988W        W79413   8.697   9.293  11.555
 6989W        W79414  41.359  39.018   3.768
 6990W        W79415  34.417   7.378  14.302
 6991W        W79416   9.230  17.720   0.931
 6992W        W79417   3.262  32.955   3.667
 6993W        W79418  12.168   2.966  14.797
 6994W        W79419  40.444   6.364  10.951
 6995W        W79420  20.106  25.468   3.338
 6996W        W79421  24.029  38.843  10.140
 6997W        W79422  26.689  35.586  11.560
 6998W        W79423   6.412  15.604   1.244
 6999W        W79424  31.042   7.183   0.933
 7000W        W79425  29.521  27.477   0.826
 7001W        W79426  29.158  18.064   0.321
 7002W        W79427  37.479  31.047   0.272
 7003W        W79428  24.117  36.000  11.003
 7004W        W79429  31.470  39.389   1.418
 7005W        W79430  39.454   2.810  14.882
 7006W        W79431   2.950  33.399  11.528
 7007W        W79432  21.157  27.573  11.954
 7008W        W79433  22.681  21.184   3.746
 7009W        W79434  43.333   4.762   4.703
 7010W        W79435  12.730  22.739   0.924
 7011W        W79436  44.768   6.862   2.745
 7012W        W79437   5.217  33.598   1.306
 7013W        W79438  13.124   2.301  11.531
 7014W        W79439   4.318   1.891  13.405
 7015W        W79440  30.644  20.042  12.480
 7016W        W79441  27.980  35.084  13.438
 7017W        W79442  13.134  20.180  13.952
 7018W        W79443   3.271   0.342  11.934
 7019W        W79444  11.152   6.772  11.483
 7020W        W79445  18.274  40.329   0.397
 7021W        W79446  39.893  10.730  12.938
 7022W        W79447  43.360  22.019  14.814
 7023W        W79448  14.708  11.775  10.614
 7024W        W79449   3.439   2.325  12.954
 7025W        W79450  17.630  32.622  11.940
 7026W        W79451  30.969  38.363   2.405
 7027W        W79452   3.740  29.582   2.198
 7028W        W79453  16.604  23.595   4.820
 7029W        W79454  37.487  10.275   0.838
 7030W        W79455  43.827  27.660   3.746
 7031W        W79456  15.207  16.083  14.923
 7032W        W79457   5.429  31.071  14.278
 7033W        W79458  14.635  18.644   2.418
 7034W        W79459  31.985  26.134  10.010
 7035W        W79460  22.056  31.586  14.878
 7036W        W79461  28.012   2.352  12.391
 7037W        W79462  29.500  44.445   0.865
 7038W        W79463  25.526  18.078  11.481
 7039W        W79464  44.771  23.731   3.705
 7040W        W79465   1.476  33.037  10.619
 7041W        W79466  23.693  20.609   1.312
 7042W        W79467   7.699  25.565  14.447
 7043W        W79468  38.485   3.776   3.162
 7044W        W79469  36.457  10.865   0.361
 7045W        W79470  42.417  44.845   2.386
 7046W        W79471  19.274  14.180  11.492
 7047W        W79472  37.832  36.482  12.413
 7048W        W79473  43.386  15.790  11.115
 7049W        W79474  10.256  40.799  14.883
 7050W        W79475   4.444  15.177   2.261
 7051W        W79476  37.972   9.725  12.342
 7052W        W79477  40.420  13.315   2.412
 7053W        W79478  16.777  18.287  14.827
 7054W        W79479  19.728  44.837   1.813
 7055W        W79480   9.173  40.464  14.492
 7056W        W79481   3.291   5.215   0.945
 7057W        W79482  12.154  15.599  12.366
 7058W        W79483   8.664  22.639  13.942
 7059W        W79484  17.268  16.076   0.883
 7060W        W79485  19.682  16.277   0.839
 7061W        W79486  31.555  27.597  14.483
 7062W        W79487  23.529  32.433  12.428
 7063W        W79488  22.575  14.103   5.150
 7064W        W79489   3.387  26.983  10.514
 7065W        W79490  39.979  44.765   2.761
 7066W        W79491  40.341  31.621   4.644
 7067W        W79492  12.162  12.807   2.271
 7068W        W79493  16.588  38.561  13.898
 7069W        W79494  27.008  13.732   3.778
 7070W        W79495  33.453  14.705  10.913
 7071W        W79496  34.888  18.085   1.232
 7072W        W79497  10.651  20.605   3.288
 7073W        W79498  27.454   8.406   1.871
 7074W        W79499  24.488  39.000   4.276
 7075W        W79500   3.332  23.709   4.145
 7076W        W79501  25.482  36.444   2.823
 7077W        W79502   4.396  27.519  13.026
 7078W        W79503  21.176  31.523  14.439
 7079W        W79504   1.335  34.936  13.509
 7080W        W79505  29.480  22.020  10.439
 7081W        W79506  15.173  23.512  10.947
 7082W        W79507  38.530   8.671  10.407
 7083W        W79508  32.030  42.346   1.841
 7084W        W79509  42.982  36.855  11.526
 7085W        W79510  34.500   3.753  11.037
 7086W        W79511  18.058   3.795   3.178
 7087W        W79512  14.192  12.780  12.854
 7088W        W79513  14.326   7.399   3.819
 7089W        W79514  17.150  37.350   1.292
 7090W        W79515  43.822  29.974  12.482
 7091W        W79516   5.373  23.660   1.775
 7092W        W79517  44.378  35.998   3.636
 7093W        W79518  31.991   5.919  13.469
 7094W        W79519  43.369  39.397  13.335
 7095W        W79520  32.116  18.121  12.972
 7096W        W79521   4.375   0.284   4.303
 7097W        W79522  39.515  36.375   4.340
 7098W        W79523  29.503   5.714   1.781
 7099W        W79524   5.252   5.422   3.169
 7100W        W79525  20.631  30.073  12.943
 7101W        W79526  12.852  23.673  13.941
 7102W        W79527  28.156  14.703   4.124
 7103W        W79528  17.735  16.700  13.827
 7104W        W79529  19.718  25.580   3.702
 7105W        W79530  14.258  29.108  10.088
 7106W        W79531  43.362  11.860   2.192
 7107W        W79532   3.854   9.846   1.324
 7108W        W79533  17.273  13.784   2.418
 7109W        W79534   8.822  11.854   3.288
 7110W        W79535  21.518  42.378  11.117
 7111W        W79536  41.333   5.302  14.298
 7112W        W79537  23.584  36.080   4.295
 7113W        W79538  41.523  25.127   4.807
 7114W        W79539  26.687  22.029   0.897
 7115W        W79540  10.239  15.748   2.860
 7116W        W79541  38.379  21.555   0.434
 7117W        W79542  29.612  22.511   0.768
 7118W        W79543  25.204  41.040   3.347
 7119W        W79544  14.296  36.430   1.700
 7120W        W79545  15.579  38.458   4.796
 7121W        W79546  26.041  27.635  14.769
 7122W        W79547   1.889  10.636  11.486
 7123W        W79548   5.409  40.482   3.836
 7124W        W79549  22.622   3.411  12.024
 7125W        W79550  34.480  21.050   4.700
 7126W        W79551  34.918  35.360  10.889
 7127W        W79552  17.230  31.917   4.273
 7128W        W79553   5.844  41.311  13.043
 7129W        W79554  10.207  38.335   2.829
 7130W        W79555  10.802  13.137   4.160
 7131W        W79556  12.797  14.249  11.383
 7132W        W79557  42.875  17.303  13.937
 7133W        W79558  21.687  33.604  11.996
 7134W        W79559  22.588  36.042   3.863
 7135W        W79560   5.759  44.792   2.302
 7136W        W79561  27.025  23.012  13.419
 7137W        W79562   9.300  12.143  11.054
 7138W        W79563  27.615  20.099  13.987
 7139W        W79564  18.099   1.354  11.405
 7140W        W79565  40.549  34.930   4.677
 7141W        W79566  11.144  15.184  11.926
 7142W        W79567   4.748  21.033   3.705
 7143W        W79568   3.393   7.219   1.882
 7144W        W79569  39.318  24.593   5.244
 7145W        W79570  16.242  22.179  13.333
 7146W        W79571  10.363  27.502   1.294
 7147W        W79572  27.469  24.664   0.289
 7148W        W79573  29.456  16.752  12.062
 7149W        W79574  44.406   3.300   1.350
 7150W        W79575  34.077  31.148  13.886
 7151W        W79576  17.790   6.307  10.151
 7152W        W79577   9.715   3.853   0.800
 7153W        W79578   7.405   8.223  11.982
 7154W        W79579  17.142  28.158  11.855
 7155W        W79580  16.245  17.098   3.368
 7156W        W79581  12.253  20.763   1.760
 7157W        W79582  10.378  42.953  12.533
 7158W        W79583  37.572  18.145  13.956
 7159W        W79584  21.258  18.204   2.257
 7160W        W79585  24.638  40.395  12.472
 7161W        W79586  14.663  11.318   4.178
 7162W        W79587  23.678   4.900  10.139
 7163W        W79588   7.835  23.087   3.701
 7164W        W79589   4.833   1.807   1.256
 7165W        W79590  15.797   3.224   9.955
 7166W        W79591  33.036  35.967   0.884
 7167W        W79592  41.874  29.168   2.360
 7168W        W79593   4.775   1.842   5.201
 7169W        W79594  38.915  12.725   4.613
 7170W        W79595  36.363  31.925   5.114
 7171W        W79596  38.500  34.050  11.028
 7172W        W79597   0.940  28.141   3.714
 7173W        W79598  32.505   6.725  11.553
 7174W        W79599  29.027  10.645  12.080
 7175W        W79600  16.184  37.488  14.490
 7176W        W79601   5.726   6.345   0.459
 7177W        W79602  15.182  32.995  12.438
 7178W        W79603  15.089  25.031  12.521
 7179W        W79604   7.792  24.721  10.962
 7180W        W79605  26.483  14.262   9.991
 7181W        W79606  22.548   6.217   2.324
 7182W        W79607  34.881  42.915   5.088
 7183W        W79608  37.482  28.525   4.632
 7184W        W79609  38.363  38.900   4.689
 7185W        W79610  34.494  36.982   3.231
 7186W        W79611   9.839   5.389   5.088
 7187W        W79612  20.098  42.509   1.780
 7188W        W79613   8.376  13.628   3.223
 7189W        W79614   9.178  34.492  14.358
 7190W        W79615  29.496  31.450   2.712
 7191W        W79616  28.602  27.672  10.532
 7192W        W79617  30.490  15.102   0.370
 7193W        W79618  33.609  15.171   4.742
 7194W        W79619  42.777  41.910   3.238
 7195W        W79620  21.082  29.429  13.536
 7196W        W79621  21.190   7.417   3.849
 7197W        W79622   8.714  33.905   4.179
 7198W        W79623  14.270  21.060  12.827
 7199W        W79624  36.891  18.146   2.868
 7200W        W79625  31.528   5.908  14.821
 7201W        W79626  38.418  42.473   0.780
 7202W        W79627  35.527   6.689  14.865
 7203W        W79628  22.181  38.544  10.416
 7204W        W79629  26.598  40.337  12.354
 7205W        W79630   6.322  32.411  13.909
 7206W        W79631  29.002  15.723   1.245
 7207W        W79632   0.410  11.247   4.798
 7208W        W79633  18.051  20.736  10.894
 7209W        W79634   7.717  26.640  13.354
 7210W        W79635  13.617  43.918   4.282
 7211W        W79636  18.078  23.058   1.777
 7212W        W79637  31.942  34.017  12.464
 7213W        W79638   4.425  33.497   2.369
 7214W        W79639  22.168  31.634  10.580
 7215W        W79640  16.153   7.307  12.863
 7216W        W79641  40.392  40.900  14.762
 7217W        W79642   5.321  22.569   2.799
 7218W        W79643  13.820   7.251  13.883
 7219W        W79644  18.715  10.737   2.719
 7220W        W79645  30.648  13.133   1.759
 7221W        W79646  38.500  33.996  14.909
 7222W        W79647  40.327   5.353   2.797
 7223W        W79648  11.781  28.493   2.834
 7224W        W79649  31.621  35.988   2.230
 7225W        W79650  12.310  27.635   2.381
 7226W        W79651  38.962   2.763   3.169
 7227W        W79652  44.407   7.315  10.466
 7228W        W79653  40.987  22.999  11.608
 7229W        W79654  38.528  30.561  13.409
 7230W        W79655  43.484  16.735   1.850
 7231W        W79656  27.955   9.817  13.353
 7232W        W79657  10.144  18.287   0.730
 7233W        W79658  42.860  43.891   0.303
 7234W        W79659  43.285  26.484  12.445
 7235W        W79660  17.241  12.137   4.644
 7236W        W79661  18.089  10.668  10.540
 7237W        W79662  29.106  16.797   0.865
 7238W        W79663  18.145  23.222   2.367
 7239W        W79664  42.374  33.925   4.658
 7240W        W79665  37.449   5.852  14.790
 7241W        W79666  23.208  33.099   3.638
 7242W        W79667   6.844   8.819   2.835
 7243W        W79668   7.411  17.253   3.356
 7244W        W79669  14.197  12.719   1.710
 7245W        W79670  14.633  31.444   4.176
 7246W        W79671   1.333  44.005  14.877
 7247W        W79672  23.579  34.871   2.774
 7248W        W79673  32.950  21.637  10.493
 7249W        W79674  29.450   0.340   4.723
 7250W        W79675  39.423   1.962  12.045
 7251W        W79676  25.977  39.930   0.296
 7252W        W79677   0.334  37.860  10.535
 7253W        W79678   1.875  10.331  13.009
 7254W        W79679  37.869   3.395  11.565
 7255W        W79680  25.646   4.881   3.295
 7256W        W79681  42.906  18.220  10.900
 7257W        W79682   7.208  25.562   0.418
 7258W        W79683  44.769  13.773   3.691
 7259W        W79684  20.769  23.717   3.387
 7260W        W79685  19.123  14.772  13.363
 7261W        W79686   3.408  17.707  11.899
 7262W        W79687  28.612  15.172  12.488
 7263W        W79688  40.918  16.642   1.374
 7264W        W79689   1.820  40.854   1.431
 7265W        W79690   6.728  27.979  13.910
 7266W        W79691   2.834  32.051  10.991
 7267W        W79692   2.229  10.653   0.759
 7268W        W79693  39.322   8.743  10.416
 7269W        W79694  12.728  27.470   4.114
 7270W        W79695  41.496   4.724   2.188
 7271W        W79696  38.962  26.655   1.267
 7272W        W79697  11.850  32.045  13.958
 7273W        W79698  37.416  35.511  14.855
 7274W        W79699  10.702  10.146   0.945
 7275W        W79700  22.579  10.826  12.934
 7276W        W79701  10.294   9.318  14.929
 7277W        W79702  43.011  13.208   2.841
 7278W        W79703  28.502  42.289   0.919
 7279W        W79704   0.958  42.918   2.894
 7280W        W79705  16.756  30.493   0.951
 7281W        W79706  44.401   1.408  11.587
 7282W        W79707  29.095   2.828  13.055
 7283W        W79708  11.643  33.938  13.840
 7284W        W79709  28.052  38.420  11.905
 7285W        W79710  36.469  41.439   5.272
 7286W        W79711   7.790  43.344   3.755
 7287W        W79712  30.572  22.626   2.787
 7288W        W79713  19.549  24.712  12.843
 7289W        W79714  34.909  25.595  12.567
 7290W        W79715  13.120  33.952  11.608
 7291W        W79716   6.798  37.542  11.999
 7292W        W79717  10.641   7.701  12.541
 7293W        W79718   1.411   3.438  14.399
 7294W        W79719  26.058  10.649   4.235
 7295W        W79720  13.258  42.409   1.704
 7296W        W79721   9.287  15.673   1.311
 7297W        W79722   2.372  28.660   4.792
 7298W        W79723  30.577  17.097   3.836
 7299W        W79724  32.908  36.420  13.900
 7300W        W79725  27.557  17.696  12.019
 7301W        W79726  42.406   3.308  14.848
 7302W        W79727  29.126  15.595  12.422
 7303W        W79728  33.427  44.472   0.936
 7304W        W79729  24.018   8.339   9.525
 7305W        W79730  32.980  42.000   1.707
 7306W        W79731  26.144   8.252   4.268
 7307W        W79732   4.227  31.094   2.767
 7308W        W79733  43.860  19.548   4.822
 7309W        W79734  13.761  43.406  10.966
 7310W        W79735  27.958  44.764  14.915
 7311W        W79736   7.192  41.504   4.641
 7312W        W79737  44.788   5.779  11.929
 7313W        W79738  28.508   2.739  14.431
 7314W        W79739   8.714  27.114  13.324
 7315W        W79740  36.903  18.597  13.468
 7316W        W79741  18.677  33.585  14.505
 7317W        W79742  31.412  34.028   1.858
 7318W        W79743   4.905  38.845   4.214
 7319W        W79744   6.350  29.164   0.946
 7320W        W79745  30.533   3.419  11.537
 7321W        W79746  38.948  16.286   0.848
 7322W        W79747   0.771  39.839  11.533
 7323W        W79748   0.919  29.536   3.798
 7324W        W79749  33.389  13.299  13.978
 7325W        W79750  40.988   1.392   2.346
 7326W        W79751   7.771   0.332   3.297
 7327W        W79752  13.312   0.753   3.321
 7328W        W79753  28.447  13.724  10.409
 7329W        W79754  39.873  39.898   1.753
 7330W        W79755   2.244   9.276  14.998
 7331W        W79756  21.747  40.972   4.633
 7332W        W79757  12.797  32.624   2.367
 7333W        W79758  25.187   2.316   2.866
 7334W        W79759  17.583  21.682   1.356
 7335W        W79760   1.413  41.043  14.355
 7336W        W79761  18.595  35.442   2.361
 7337W        W79762  38.417  23.135   9.494
 7338W        W79763   0.953  13.147  13.016
 7339W        W79764   7.235   8.301  10.576
 7340W        W79765  28.561  39.364   2.679
 7341W        W79766  16.615   0.415   1.220
 7342W        W79767  19.052  38.461  11.470
 7343W        W79768  23.735  23.120  11.886
 7344W        W79769  17.141   8.364  12.014
 7345W        W79770  25.665   3.329   1.823
 7346W        W79771  22.620  38.062   3.191
 7347W        W79772  34.965  38.523  13.320
 7348W        W79773  10.154  15.588   3.692
 7349W        W79774   3.767  20.623   3.745
 7350W        W79775  28.160  44.477  12.012
 7351W        W79776  39.868   2.948  13.543
 7352W        W79777  14.589  26.684   2.235
 7353W        W79778   8.196  44.861   0.899
 7354W        W79779  41.436  16.082   3.722
 7355W        W79780   9.185  41.329   0.750
 7356W        W79781  32.089   8.695   2.402
 7357W        W79782  34.034  41.009   1.793
 7358W        W79783   7.324  31.592  13.481
 7359W        W79784  11.798  44.430  13.430
 7360W        W79785  34.372  25.471   2.892
 7361W        W79786  13.710  12.830  13.529
 7362W        W79787  29.970   7.315  13.869
 7363W        W79788  17.740  28.183  11.891
 7364W        W79789  17.800  18.235   2.701
 7365W        W79790  28.542  30.643   9.605
 7366W        W79791  18.281  14.818  11.908
 7367W        W79792  33.435  13.739   1.241
 7368W        W79793  42.919  36.085   0.414
 7369W        W79794   9.190  38.075   2.215
 7370W        W79795   5.255  38.534  14.304
 7371W        W79796  38.350  39.826   4.716
 7372W        W79797  34.991   0.263  12.863
 7373W        W79798  42.883  15.203   3.711
 7374W        W79799  12.684  10.220   4.635
 7375W        W79800   2.924   0.901   4.345
 7376W        W79801   6.738  17.724  14.778
 7377W        W79802  37.574  13.234  13.475
 7378W        W79803   5.867  19.106   1.284
 7379W        W79804  42.924  12.817  13.369
 7380W        W79805  18.702  42.787  12.401
 7381W        W79806  29.147  28.976  13.443
 7382W        W79807   6.909  41.792   3.239
 7383W        W79808  10.193   1.856   1.246
 7384W        W79809  35.591  20.229   1.414
 7385W        W79810  26.087  35.991   0.777
 7386W        W79811  30.084  36.040   1.319
 7387W        W79812  25.634  34.026   4.265
 7388W        W79813  41.807  28.946  14.492
 7389W        W79814   1.926  14.265   1.292
 7390W        W79815  21.711  43.826   4.281
 7391W        W79816  21.670  28.520   0.373
 7392W        W79817  14.640  37.069   2.774
 7393W        W79818  34.873  44.857   4.164
 7394W        W79819   0.341   2.428   2.741
 7395W        W79820   1.931  19.600   5.211
 7396W        W79821  11.687   9.700  10.452
 7397W        W79822   9.275  10.187   9.939
 7398W        W79823  30.638  42.441   3.841
 7399W        W79824  41.977  30.570   3.706
 7400W        W79825  14.645  33.519   4.674
 7401W        W79826  38.428  34.921   4.246
 7402W        W79827  11.257  12.307   4.781
 7403W        W79828  19.229  12.706  10.894
 7404W        W79829  19.079  15.653  10.430
 7405W        W79830  19.157  42.891  14.500
 7406W        W79831   4.377   3.831   1.326
 7407W        W79832  15.181   5.276   4.618
 7408W        W79833  44.830  25.691   1.289
 7409W        W79834   9.229  10.687  12.939
 7410W        W79835  12.740   4.346   0.449
 7411W        W79836   1.914  44.991   1.883
 7412W        W79837   9.728   9.390  14.771
 7413W        W79838  32.090   9.729   2.759
 7414W        W79839  29.622  36.957  11.548
 7415W        W79840  28.143  40.328  14.884
 7416W        W79841  39.430   2.376   2.675
 7417W        W79842  39.554   4.770   1.266
 7418W        W79843   5.811  27.079  10.578
 7419W        W79844  24.977   1.266   0.875
 7420W        W79845  43.355   0.775  13.014
 7421W        W79846  16.217   6.355   1.216
 7422W        W79847  21.544  36.502   4.685
 7423W        W79848  35.430  34.069  13.336
 7424W        W79849  38.848  40.878   4.646
 7425W        W79850  33.508  18.071   5.097
 7426W        W79851  25.135  21.047  13.426
 7427W        W79852  14.303  20.059   3.634
 7428W        W79853  29.593  31.931  14.026
 7429W        W79854   4.380  11.197  13.423
 7430W        W79855  13.203  17.238  11.924
 7431W        W79856  39.036  30.162   1.318
 7432W        W79857  10.187   1.422  13.405
 7433W        W79858   1.796  25.564   1.827
 7434W        W79859   9.161  34.909   1.845
 7435W        W79860   8.679  21.758   2.237
 7436W        W79861  43.998  31.529  11.955
 7437W        W79862   0.862  35.855  12.058
 7438W        W79863  13.237  43.465   1.731
 7439W        W79864   0.272  17.679   4.269
 7440W        W79865  23.703  38.062  10.477
 7441W        W79866   6.766  21.184   2.363
 7442W        W79867  16.660  41.846   0.782
 7443W        W79868  10.709  24.033  12.920
 7444W        W79869  23.041  40.342   4.831
 7445W        W79870  44.754   7.781   2.741
 7446W        W79871  44.757  34.408  11.437
 7447W        W79872  26.575  43.460   2.690
 7448W        W79873  15.251  40.492   1.311
 7449W        W79874  31.604  15.641   9.503
 7450W        W79875   8.887  34.556  11.445
 7451W        W79876  34.889  15.753  14.010
 7452W        W79877  11.705  26.619   4.650
 7453W        W79878   0.449  44.437  14.011
 7454W        W79879  37.872  14.602  13.921
 7455W        W79880  34.961   1.251   1.260
 7456W        W79881  18.140   5.740   3.201
 7457W        W79882  18.050  43.915   0.919
 7458W        W79883  18.558  33.963   4.114
 7459W        W79884  11.314  30.921  11.394
 7460W        W79885  35.386  37.405  13.547
 7461W        W79886  30.647  43.818  13.481
 7462W        W79887  22.551  30.439   4.827
 7463W        W79888   4.833   4.896   1.427
 7464W        W79889   5.701  26.144   1.368
 7465W        W79890  21.178  10.747   1.219
 7466W        W79891  27.673  33.007  12.079
 7467W        W79892  38.936  44.996   4.667
 7468W        W79893  33.006  38.894  11.424
 7469W        W79894   7.808  15.815   5.190
 7470W        W79895  23.564  31.988  12.876
 7471W        W79896  37.849  14.162   0.426
 7472W        W79897  11.836   3.454  10.992
 7473W        W79898  38.881  33.505   0.380
 7474W        W79899   0.854  13.200  11.480
 7475W        W79900  41.412  13.158   3.858
 7476W        W79901  23.706  11.794  11.964
 7477W        W79902   8.713   6.315   9.951
 7478W        W79903   8.349  35.530   0.839
 7479W        W79904  31.970   9.207  12.395
 7480W        W79905   7.290  19.609  11.021
 7481W        W79906  16.232   1.963   4.207
 7482W        W79907  37.474  19.077   3.847
 7483W        W79908   1.311  32.569  11.909
 7484W        W79909   8.197  19.075  11.487
 7485W        W79910  44.411  19.285  11.987
 7486W        W79911  18.233  42.959  11.048
 7487W        W79912  33.463  13.828  12.838
 7488W        W79913  37.529  28.020   5.228
 7489W        W79914  15.742  31.439   2.893
 7490W        W79915  29.050  14.723   1.787
 7491W        W79916  28.631   3.937   0.808
 7492W        W79917  37.953  40.425  12.895
 7493W        W79918   2.292  35.976   3.688
 7494W        W79919  38.355   7.827  14.315
 7495W        W79920  24.111  21.106   3.243
 7496W        W79921  27.076  22.225   4.746
 7497W        W79922  35.595   0.333   3.203
 7498W        W79923  18.114  33.593  10.636
 7499W        W79924  30.007  19.246  13.846
 7500W        W79925  27.637  42.504  11.926
 7501W        W79926  14.798  40.859  11.886
 7502W        W79927  32.509  14.262   0.851
 7503W        W79928  10.185  24.207   5.238
 7504W        W79929   8.202   9.805   0.325
 7505W        W79930  16.717  18.641   3.629
 7506W        W79931  32.442  13.837   0.847
 7507W        W79932   8.212  19.678   3.251
 7508W        W79933  35.911  32.442  10.640
 7509W        W79934  33.031  36.948   0.338
 7510W        W79935  23.169  30.053   1.267
 7511W        W79936   7.201  14.785   0.727
 7512W        W79937   8.212  38.331  13.866
 7513W        W79938  12.674  14.794  10.417
 7514W        W79939  13.824   5.289  12.414
 7515W        W79940  17.638  20.578  13.983
 7516W        W79941  24.173   8.812  11.518
 7517W        W79942  35.537  37.038  10.539
 7518W        W79943  11.791  32.050   0.804
 7519W        W79944  13.337  12.763  13.879
 7520W        W79945  43.449  25.194  12.051
 7521W        W79946  35.908  34.461  13.870
 7522W        W79947  39.478  34.466   0.782
 7523W        W79948  37.429  25.577   2.727
 7524W        W79949  43.011   4.242  13.547
 7525W        W79950   7.744  24.989   1.328
 7526W        W79951   5.228  34.886  11.471
 7527W        W79952   9.660  35.016   0.960
 7528W        W79953   8.257  19.614   2.738
 7529W        W79954   5.809  40.049  14.788
 7530W        W79955  11.749  41.355   4.269
 7531W        W79956   4.767   6.881  10.917
 7532W        W79957  23.099  22.190   2.377
 7533W        W79958  18.182  41.471  10.933
 7534W        W79959   7.263   6.262   2.787
 7535W        W79960   9.812  36.542  12.882
 7536W        W79961   5.198   9.327  12.030
 7537W        W79962  40.908  20.598   3.297
 7538W        W79963   0.419   1.323  12.445
 7539W        W79964  30.620   1.408  13.369
 7540W        W79965  33.492   8.773   1.329
 7541W        W79966  29.445  15.148   2.809
 7542W        W79967   7.311  31.112  14.371
 7543W        W79968  31.949  28.963   1.796
 7544W        W79969   3.798  29.554  11.039
 7545W        W79970  14.627  12.160   3.801
 7546W        W79971  34.598  24.573  12.959
 7547W        W79972  40.534  21.627   2.875
 7548W        W79973   7.332   1.792  13.814
 7549W        W79974   1.483   3.901  13.441
 7550W        W79975  13.275  36.081  10.452
 7551W        W79976  43.459  43.431   1.934
 7552W        W79977  28.127   8.196   9.920
 7553W        W79978  44.870  41.847  11.379
 7554W        W79979   5.689  43.972  12.446
 7555W        W79980   1.434  20.268   4.718
 7556W        W79981   2.390   8.227   2.662
 7557W        W79982  19.281  40.436  12.831
 7558W        W79983  18.225  21.091   2.853
 7559W        W79984   0.394  25.080   2.182
 7560W        W79985  39.424   5.234  13.500
 7561W        W79986  43.880  32.001  10.440
 7562W        W79987  16.143  24.119   4.288
 7563W        W79988  33.481  29.603  11.882
 7564W        W79989  15.096  18.682   1.808
 7565W        W79990   6.835  28.994  12.376
 7566W        W79991  34.369  22.742  12.917
 7567W        W79992  44.947  17.659   1.791
 7568W        W79993   7.706   1.378   4.617
 7569W        W79994  36.497  23.656  13.912
 7570W        W79995  10.310   7.834  11.383
 7571W        W79996   9.155  32.523   1.764
 7572W        W79997  24.639  14.642  11.123
 7573W        W79998  36.360  16.088   4.308
 7574W        W79999   2.948  16.145  14.451
 7575W        W80000  44.783  33.434   4.314
 7576W        W80001   6.678  17.612   0.749
 7577W        W80002   6.267   9.689   1.837
 7578W        W80003  18.204  41.834   1.776
 7579W        W80004  15.610  28.178  10.999
 7580W        W80005  13.221   8.885  12.444
 7581W        W80006  28.117   0.768  10.443
 7582W        W80007   5.395  16.703   0.477
 7583W        W80008  28.090  10.768  13.977
 7584W        W80009  27.102  23.107   2.803
 7585W        W80010  40.850  32.013   2.186
 7586W        W80011  33.457  21.582   3.252
 7587W        W80012  13.245  32.549  14.930
 7588W        W80013  12.663  39.824  12.830
 7589W        W80014  40.392   8.745  11.870
 7590W        W80015  34.425  24.682  14.306
 7591W        W80016  20.582  36.027   1.359
 7592W        W80017  14.692   4.400  10.988
 7593W        W80018  38.904   8.368   0.461
 7594W        W80019  40.440  28.124   3.293
 7595W        W80020  17.571  23.237  11.971
 7596W        W80021  35.427   7.754  12.542
 7597W        W80022  15.627   7.325   1.327
 7598W        W80023  31.063  30.005  13.814
 7599W        W80024  21.629  24.547   3.785
 7600W        W80025  15.656  16.090   0.900
 7601W        W80026  28.466  27.504   3.272
 7602W        W80027  33.037  13.206  14.275
 7603W        W80028   1.789   5.705  14.962
 7604W        W80029   4.307  39.065  11.377
 7605W        W80030  15.631  12.838   2.257
 7606W        W80031  25.169  22.565   2.677
 7607W        W80032  23.580  37.449   1.897
 7608W        W80033   9.657   3.737  13.918
 7609W        W80034  34.416  20.624   0.948
 7610W        W80035  22.098   3.765  11.861
 7611W        W80036  25.122  21.709   1.239
 7612W        W80037  29.597  38.850   4.835
 7613W        W80038  32.443  26.057   1.878
 7614W        W80039  40.995  41.897   2.759
 7615W        W80040   6.239  14.189   4.238
 7616W        W80041   7.340   4.925   3.653
 7617W        W80042  23.109  43.343   3.736
 7618W        W80043  20.273  30.460   0.749
 7619W        W80044  30.590  16.108   1.902
 7620W        W80045  29.098  35.089  12.979
 7621W        W80046   7.902  36.909  12.037
 7622W        W80047   1.392  34.060   3.372
 7623W        W80048  12.312  20.644  10.594
 7624W        W80049  26.565   5.817   9.965
 7625W        W80050  40.038   8.758   0.367
 7626W        W80051  33.028  16.122  13.411
 7627W        W80052  19.574   3.240   4.158
 7628W        W80053   1.899   7.205  14.822
 7629W        W80054  22.684  28.441  14.378
 7630W        W80055  25.185  25.115  13.441
 7631W        W80056  41.027  35.439  12.471
 7632W        W80057  42.833  24.694   0.808
 7633W        W80058   6.909  31.643  13.846
 7634W        W80059  10.214  39.340   4.290
 7635W        W80060   7.711  26.186   3.208
 7636W        W80061  12.803   9.393  10.444
 7637W        W80062  35.061  14.170   5.175
 7638W        W80063  39.349  29.432  13.387
 7639W        W80064  34.484  20.718   1.881
 7640W        W80065  13.225   9.669   0.387
 7641W        W80066  19.562  15.644   4.780
 7642W        W80067   8.866  42.519  13.017
 7643W        W80068   5.243   3.386  13.513
 7644W        W80069   2.741  26.698   3.213
 7645W        W80070  26.074   5.858  12.357
 7646W        W80071  41.442  36.037  12.959
 7647W        W80072  38.016   1.342   4.614
 7648W        W80073   7.309   2.874  14.279
 7649W        W80074  34.870  29.580   1.826
 7650W        W80075  20.050  13.303   2.824
 7651W        W80076  42.403  32.040  12.898
 7652W        W80077  33.417  18.582   3.189
 7653W        W80078   3.348  36.036   4.129
 7654W        W80079  22.526   1.935   4.191
 7655W        W80080  19.116  35.853  13.826
 7656W        W80081  20.558  30.553   4.156
 7657W        W80082  40.440  24.125  11.511
 7658W        W80083   1.406  30.958  10.984
 7659W        W80084  39.458  33.621  13.828
 7660W        W80085  12.299  34.921   4.235
 7661W        W80086  44.454   7.406  13.796
 7662W        W80087  10.767  12.346   4.337
 7663W        W80088  27.521  14.175  11.489
 7664W        W80089  43.880   6.813  11.862
 7665W        W80090  20.029  41.508   4.349
 7666W        W80091  37.065  13.206  10.956
 7667W        W80092  36.484  30.032  11.594
 7668W        W80093  16.288   7.217   3.375
 7669W        W80094  14.277  36.496   4.261
 7670W        W80095  21.716  25.996   4.317
 7671W        W80096  16.588  44.456  12.077
 7672W        W80097  40.899   6.202  14.349
 7673W        W80098   3.343  14.777   5.175
 7674W        W80099  10.702  24.032   3.725
 7675W        W80100   1.853  29.028  10.419
 7676W        W80101  42.005  20.225   3.207
 7677W        W80102  31.054  20.211  12.074
 7678W        W80103  40.922  44.770  13.421
 7679W        W80104  13.231  25.491  12.963
 7680W        W80105   9.169   0.811  11.394
 7681W        W80106   6.218  14.721  10.570
 7682W        W80107  27.678  27.046  10.600
 7683W        W80108  11.742  42.417  11.959
 7684W        W80109   3.807   0.441  13.534
 7685W        W80110  16.295  21.641   0.954
 7686W        W80111  36.854  24.092   9.992
 7687W        W80112  15.181  31.527  13.541
 7688W        W80113  36.932  26.681  14.008
 7689W        W80114  27.153  19.555   2.410
 7690W        W80115  34.580  14.304  12.087
 7691W        W80116   5.397  33.111   3.827
 7692W        W80117   1.355   6.903   4.325
 7693W        W80118  17.231  22.607  13.969
 7694W        W80119   8.721  34.575  10.092
 7695W        W80120  25.008  15.250   2.855
 7696W        W80121  31.948  30.122   2.822
 7697W        W80122  41.520  36.995  13.002
 7698W        W80123  12.323  13.266  12.905
 7699W        W80124   6.306   0.277  14.821
 7700W        W80125  42.775  15.638   3.235
 7701W        W80126  20.763  31.437  13.485
 7702W        W80127  42.979   0.970  10.981
 7703W        W80128   2.239  13.785  11.962
 7704W        W80129  33.612  44.762   1.370
 7705W        W80130  43.431  40.325   0.328
 7706W        W80131  29.163  11.290   3.812
 7707W        W80132  29.547   7.861   4.608
 7708W        W80133  33.548  37.864  14.026
 7709W        W80134  24.212  30.659   3.659
 7710W        W80135  41.835  20.100   1.431
 7711W        W80136  22.735  27.043   3.798
 7712W        W80137  32.959  27.190  13.824
 7713W        W80138  24.576   9.746  13.028
 7714W        W80139  27.077   2.397  12.392
 7715W        W80140  32.600  19.118   4.305
 7716W        W80141  27.654   1.306  12.473
 7717W        W80142   5.860   2.278   0.402
 7718W        W80143  20.211  14.292   1.253
 7719W        W80144  30.039  17.302   3.149
 7720W        W80145  14.320   2.458   1.390
 7721W        W80146  41.313  28.053   3.806
 7722W        W80147   9.654  26.484  12.403
 7723W        W80148  25.499   2.958  12.987
 7724W        W80149  29.507   7.906   1.335
 7725W        W80150   0.841   9.842   4.602
 7726W        W80151  20.562   2.338  13.334
 7727W        W80152  22.671   7.393  10.046
 7728W        W80153  15.197   9.357  12.972
 7729W        W80154  15.308  32.034   1.308
 7730W        W80155   4.281  37.543  11.598
 7731W        W80156  36.086  38.980   5.157
 7732W        W80157  20.573  22.660  10.963
 7733W        W80158  20.158  39.028   0.728
 7734W        W80159  13.229  30.505  10.609
 7735W        W80160  24.052  12.303  14.361
 7736W        W80161  18.271   1.970  14.376
 7737W        W80162  41.387  30.548   0.359
 7738W        W80163  22.130  32.408  14.815
 7739W        W80164  16.185   5.886  11.093
 7740W        W80165  40.944  17.218  12.842
 7741W        W80166  13.735  40.319   4.349
 7742W        W80167  38.944  12.701  11.018
 7743W        W80168  10.351  41.993   2.361
 7744W        W80169  31.549  19.224   4.134
 7745W        W80170  39.021   3.392  11.493
 7746W        W80171  17.757   2.230  14.994
 7747W        W80172  15.094  16.310  11.005
 7748W        W80173  31.611  40.540   1.304
 7749W        W80174  29.453  29.951  12.059
 7750W        W80175  31.623  13.260  11.610
 7751W        W80176  13.606  21.107  13.339
 7752W        W80177   9.252  41.024   0.319
 7753W        W80178  34.386  29.101  13.431
 7754W        W80179  23.984   9.772   4.731
 7755W        W80180  12.260   9.725   1.313
 7756W        W80181  41.022  22.090  11.501
 7757W        W80182   9.333  38.940   2.335
 7758W        W80183   8.742   5.818  11.374
 7759W        W80184  27.966  34.937   5.114
 7760W        W80185   1.304  26.546  11.111
 7761W        W80186  22.089  22.046  11.881
 7762W        W80187   7.303  37.507   0.852
 7763W        W80188   9.276  10.281   4.702
 7764W        W80189  10.162  16.600   2.340
 7765W        W80190  42.997  40.001  10.593
 7766W        W80191   2.393  44.281  12.031
 7767W        W80192  44.755   5.706   1.823
 7768W        W80193  29.057  14.287   2.676
 7769W        W80194  33.891  20.208  13.890
 7770W        W80195  34.102  13.195   2.670
 7771W        W80196  14.105   0.786  12.386
 7772W        W80197  37.387   7.825   1.781
 7773W        W80198  37.028  26.198   3.858
 7774W        W80199  27.679  16.594   4.280
 7775W        W80200   1.364  20.208  14.400
 7776W        W80201   5.335  43.968  12.573
 7777W        W80202  25.507   5.725  12.384
 7778W        W80203   7.209   8.174   2.190
 7779W        W80204  31.550  11.275  14.409
 7780W        W80205  32.539   7.845  12.061
 7781W        W80206  24.976  23.500   3.379
 7782W        W80207  24.597  23.013   2.183
 7783W        W80208  41.999  10.202   0.935
 7784W        W80209  28.060  22.703  10.428
 7785W        W80210  21.231  31.980   3.274
 7786W        W80211  19.690   4.208   4.662
 7787W        W80212   9.754  37.572   1.421
 7788W        W80213   6.759   2.834   3.870
 7789W        W80214  12.850   5.727  12.925
 7790W        W80215   1.786   4.406   1.258
 7791W        W80216  32.960  32.135  10.027
 7792W        W80217  44.457   8.237   3.371
 7793W        W80218   7.234  10.648  12.518
 7794W        W80219  16.659  22.696   4.296
 7795W        W80220  27.577   2.284   1.364
 7796W        W80221   4.211  26.516   3.789
 7797W        W80222  28.017  32.508  13.332
 7798W        W80223  40.382  39.420  12.969
 7799W        W80224  34.451  32.425  13.385
 7800W        W80225   9.669   5.871  13.327
 7801W        W80226  30.468  16.156  10.936
 7802W        W80227  15.616   1.794  10.900
 7803W        W80228  26.117   6.748  12.433
 7804W        W80229  11.728  31.915  12.410
 7805W        W80230  11.689   9.307  11.872
 7806W        W80231   7.272   2.817  12.973
 7807W        W80232  43.961  25.569   3.201
 7808W        W80233  16.218  19.733  11.500
 7809W        W80234   1.783  44.378  10.569
 7810W        W80235   5.703  12.662  12.001
 7811W        W80236  26.675  22.245  14.977
 7812W        W80237  11.738  41.858  12.079
 7813W        W80238  25.693  40.937   2.796
 7814W        W80239  41.529   1.268  10.961
 7815W        W80240  38.555   0.416  12.972
 7816W        W80241  23.173  35.953  14.458
 7817W        W80242   4.423  22.240   2.791
 7818W        W80243   5.689   9.762  13.044
 7819W        W80244   4.852  24.083   2.333
 7820W        W80245  15.611  41.911  12.861
 7821W        W80246  43.283   3.240  14.332
 7822W        W80247  29.991   2.848   1.313
 7823W        W80248  21.167  26.083   4.806
 7824W        W80249   6.295   7.682  13.323
 7825W        W80250  36.991  40.374  13.344
 7826W        W80251  42.461  42.988  12.339
 7827W        W80252  25.605  20.640  13.342
 7828W        W80253  38.044  25.204   0.932
 7829W        W80254  40.394   6.242  13.007
 7830W        W80255  27.532  33.998   9.512
 7831W        W80256  35.450  38.360   2.862
 7832W        W80257  17.182  21.097  11.930
 7833W        W80258   2.917  10.724   3.291
 7834W        W80259  34.005  28.467   0.437
 7835W        W80260  33.426  30.146   2.231
 7836W        W80261   6.802   3.859   4.350
 7837W        W80262  16.762   2.425   3.358
 7838W        W80263   5.847  33.505  11.019
 7839W        W80264  36.048  20.704  12.065
 7840W        W80265  38.512   6.830   2.403
 7841W        W80266  19.119   3.260  14.021
 7842W        W80267  18.666  40.450   0.896
 7843W        W80268  10.675  44.821  10.595
 7844W        W80269  34.466   8.862  12.538
 7845W        W80270  24.605  13.615   1.268
 7846W        W80271  22.722  17.142   2.862
 7847W        W80272  30.482  18.146  11.892
 7848W        W80273  14.606  43.335   4.689
 7849W        W80274   5.890  17.699  12.476
 7850W        W80275  27.588  17.285  12.371
 7851W        W80276  12.745  12.674   2.278
 7852W        W80277  38.880  43.989   3.174
 7853W        W80278  39.863   8.728   3.263
 7854W        W80279  33.434  25.007  10.600
 7855W        W80280  40.431   3.944   2.840
 7856W        W80281  44.793   1.883  14.818
 7857W        W80282  24.592   3.372   4.225
 7858W        W80283   7.775  43.351  13.464
 7859W        W80284   0.476  32.061  14.502
 7860W        W80285   8.299  35.385  10.122
 7861W        W80286  44.757  22.704  12.095
 7862W        W80287  15.138  21.186   4.118
 7863W        W80288  40.444  44.763  13.061
 7864W        W80289  32.504  10.849  13.984
 7865W        W80290  30.511  33.553  14.285
 7866W        W80291  23.673  39.917  11.073
 7867W        W80292  37.462   6.389   4.321
 7868W        W80293  36.471   6.224   1.730
 7869W        W80294  16.161   7.327  10.449
 7870W        W80295   0.977  39.916   1.854
 7871W        W80296   2.346  26.137   3.833
 7872W        W80297   2.899  13.242  13.062
 7873W        W80298  15.598  19.778   1.797
 7874W        W80299  11.850  34.069   0.767
 7875W        W80300  36.073   7.213   0.822
 7876W        W80301  11.733  32.454  13.419
 7877W        W80302  43.906  35.986   0.924
 7878W        W80303  37.066  43.413   2.391
 7879W        W80304   2.868  44.360  12.392
 7880W        W80305  27.125  37.066   0.293
 7881W        W80306  10.859  24.209   0.328
 7882W        W80307  39.394  44.395   1.826
 7883W        W80308  44.266  21.258   0.475
 7884W        W80309  40.889  42.356   2.285
 7885W        W80310   9.838  44.865  12.464
 7886W        W80311  16.289   0.923  13.903
 7887W        W80312  23.652  19.183  10.600
 7888W        W80313  18.637  10.336  14.431
 7889W        W80314  33.506   3.317  13.332
 7890W        W80315   0.255  42.892   1.433
 7891W        W80316  37.550  24.658   1.394
 7892W        W80317  16.152  44.843  10.570
 7893W        W80318   7.804  17.604   1.804
 7894W        W80319  40.891   8.173  11.102
 7895W        W80320  35.478   0.277   1.865
 7896W        W80321  19.601  31.034  14.486
 7897W        W80322  42.923  26.174  12.416
 7898W        W80323  12.802  28.151   1.762
 7899W        W80324  17.264  14.633  14.018
 7900W        W80325  37.344  22.176   3.867
 7901W        W80326   4.716  12.770  12.367
 7902W        W80327  26.476   5.306  13.974
 7903W        W80328   2.898  41.000   4.207
 7904W        W80329  13.702  17.101   2.379
 7905W        W80330  26.700  22.049   4.806
 7906W        W80331  21.191  26.160   0.259
 7907W        W80332   9.166  43.786   0.452
 7908W        W80333  18.621  28.930  14.859
 7909W        W80334   5.416  16.572  11.566
 7910W        W80335   1.469   0.452  10.940
 7911W        W80336  26.680  14.165   2.703
 7912W        W80337  20.133  41.504  13.406
 7913W        W80338  39.021  20.155  10.531
 7914W        W80339  19.771  15.156  12.454
 7915W        W80340  12.695  40.835   3.175
 7916W        W80341  10.842  14.760   2.344
 7917W        W80342  42.409   6.239   4.140
 7918W        W80343  41.370  42.527   2.879
 7919W        W80344  31.931  38.911   2.783
 7920W        W80345  20.034  37.518   3.828
 7921W        W80346  11.310  21.565   1.715
 7922W        W80347  34.533   8.258  11.417
 7923W        W80348  20.632  14.657  14.367
 7924W        W80349  22.501  26.168   1.271
 7925W        W80350  42.823  39.444  13.910
 7926W        W80351  33.546  35.065  10.414
 7927W        W80352  27.582  16.683  11.090
 7928W        W80353   8.779  12.150  14.985
 7929W        W80354   5.418  42.324   2.373
 7930W        W80355  31.439  25.215   2.735
 7931W        W80356  10.146   0.749  14.780
 7932W        W80357  41.499  26.986  11.379
 7933W        W80358  34.373  11.838  14.890
 7934W        W80359  22.554  41.345   2.700
 7935W        W80360  37.562  28.604  10.492
 7936W        W80361  22.180  36.873   2.382
 7937W        W80362  34.999  15.659   4.128
 7938W        W80363  21.695  39.999   5.187
 7939W        W80364  17.207  29.016   4.257
 7940W        W80365  33.962  26.483   4.712
 7941W        W80366  22.153  29.488   3.379
 7942W        W80367   6.294  38.899  10.958
 7943W        W80368   5.207  12.783  11.951
 7944W        W80369   5.352   9.697   2.407
 7945W        W80370   0.842  43.450   1.277
 7946W        W80371  22.126  12.212  14.777
 7947W        W80372   1.307  24.181  11.940
 7948W        W80373   3.776   5.703   4.240
 7949W        W80374  26.019   1.917   0.810
 7950W        W80375   7.382  10.789   4.177
 7951W        W80376  22.995  44.786  12.939
 7952W        W80377  28.974  23.599   4.768
 7953W        W80378  13.226  15.145   3.186
 7954W        W80379   5.897  16.688  14.870
 7955W        W80380   4.446  39.986   2.892
 7956W        W80381  12.775  37.500   4.814
 7957W        W80382   8.404  42.912  13.368
 7958W        W80383  21.512  41.390  13.487
 7959W        W80384   5.736  28.030  14.894
 7960W        W80385   4.338  35.963   0.783
 7961W        W80386  43.781  44.952  12.571
 7962W        W80387  39.325  19.704  14.284
 7963W        W80388   4.342   7.846  12.834
 7964W        W80389  42.777   0.363  10.990
 7965W        W80390  25.624  16.301  14.302
 7966W        W80391  40.978   8.374  11.931
 7967W        W80392   3.786  43.326  14.930
 7968W        W80393  43.807   8.769   1.793
 7969W        W80394   2.367  27.544  13.454
 7970W        W80395  15.277  31.583   0.371
 7971W        W80396  29.113  12.783  11.109
 7972W        W80397  14.154  38.419   4.238
 7973W        W80398   5.828  23.127  12.016
 7974W        W80399   6.219  28.129   4.670
 7975W        W80400  34.591  30.611   3.642
 7976W        W80401  18.114  16.222  14.402
 7977W        W80402  19.711  31.525  12.076
 7978W        W80403  16.737   0.314   4.343
 7979W        W80404  31.075  25.061   3.840
 7980W        W80405  28.448  29.061  12.560
 7981W        W80406   3.382  11.730   4.808
 7982W        W80407  39.995   8.356   0.359
 7983W        W80408  17.135  29.508  12.920
 7984W        W80409  24.156  44.855   2.262
 7985W        W80410  11.152  19.201  11.008
 7986W        W80411  40.423  33.605   9.956
 7987W        W80412   5.732  25.145   2.663
 7988W        W80413  24.547  23.016  12.957
 7989W        W80414  24.088  35.006   0.448
 7990W        W80415  31.434  17.734  10.049
 7991W        W80416  13.764  11.192  12.581
 7992W        W80417  14.665  28.011  14.511
 7993W        W80418   1.458  39.866  10.576
 7994W        W80419  13.719  22.213  13.806
 7995W        W80420  13.139  13.840   2.386
 7996W        W80421  33.515  43.850   0.902
 7997W        W80422  31.150  12.821   0.888
 7998W        W80423   6.363  36.929   5.133
 7999W        W80424  33.065  13.757   3.746
 8000W        W80425  22.535  25.659   1.881
 8001W        W80426  18.093   4.449  12.917
 8002W        W80427  21.185  26.038   4.224
 8003W        W80428  16.661  36.945   0.367
 8004W        W80429  15.631  20.040   3.167
 8005W        W80430  34.402  18.208   0.476
 8006W        W80431  36.579  32.978   2.401
 8007W        W80432  15.610  43.421  10.406
 8008W        W80433  13.262  26.157  12.018
 8009W        W80434  25.597  11.329  10.900
 8010W        W80435   2.243  12.136  14.032
 8011W        W80436  16.200   0.286   4.776
 8012W        W80437   3.803  29.473  12.459
 8013W        W80438  29.930   7.337   3.285
 8014W        W80439  16.087  27.550   1.299
 8015W        W80440  43.295  10.372   1.878
 8016W        W80441  34.526   3.719  10.562
 8017W        W80442   4.820  13.677  13.498
 8018W        W80443  34.612  29.511   0.479
 8019W        W80444  15.272   8.722   0.357
 8020W        W80445   5.335   4.270   0.848
 8021W        W80446  37.421  40.950   1.779
 8022W        W80447  10.254  32.000   2.716
 8023W        W80448  39.457  40.003   1.388
 8024W        W80449  29.639  39.465  14.869
 8025W        W80450  11.712  15.812  11.882
 8026W        W80451  34.951  20.192   3.869
 8027W        W80452  16.091  32.524   2.197
 8028W        W80453  41.349  20.607   3.788
 8029W        W80454  41.993  24.594   3.738
 8030W        W80455  28.962  17.116  10.954
 8031W        W80456  33.997  14.834   2.825
 8032W        W80457  26.676  24.986  10.141
 8033W        W80458  32.534   2.378  13.903
 8034W        W80459   7.288  43.887   0.779
 8035W        W80460  13.171  12.304  11.513
 8036W        W80461  14.216  26.164  14.410
 8037W        W80462  29.097  40.489  14.285
 8038W        W80463   4.825  37.854  10.619
 8039W        W80464  15.112  10.287   2.697
 8040W        W80465  17.093  17.729   3.842
 8041W        W80466   1.754  43.408   0.304
 8042W        W80467  44.968  21.062   2.206
 8043W        W80468  32.963  29.041  10.430
 8044W        W80469  41.958  28.483   4.651
 8045W        W80470   5.373  13.114   2.740
 8046W        W80471   6.786  28.164  12.893
 8047W        W80472  12.233  23.994   0.251
 8048W        W80473  37.513  41.410  11.858
 8049W        W80474   0.413  13.165  11.982
 8050W        W80475  20.619   3.908  14.876
 8051W        W80476  26.694  41.401  14.286
 8052W        W80477  39.360  17.798   1.409
 8053W        W80478   0.989  14.638   2.743
 8054W        W80479   5.194  35.966  13.334
 8055W        W80480  28.511  38.923   2.314
 8056W        W80481  33.601  34.978   1.352
 8057W        W80482   1.861  30.982  12.497
 8058W        W80483  44.341   2.239  11.946
 8059W        W80484   2.342  32.106   2.800
 8060W        W80485  32.521   7.763  12.401
 8061W        W80486  23.226  20.241   4.140
 8062W        W80487  38.074  38.900   2.717
 8063W        W80488  26.032  19.644  11.872
 8064W        W80489   0.367  42.848  10.612
 8065W        W80490  18.632  37.909   1.324
 8066W        W80491  17.217  42.446   4.785
 8067W        W80492  18.622  14.750  14.512
 8068W        W80493  34.405  28.100   3.274
 8069W        W80494  27.478  31.452  11.002
 8070W        W80495  30.088  30.544   4.319
 8071W        W80496   4.737  21.550   1.436
 8072W        W80497  11.221  41.930  12.842
 8073W        W80498  13.795  22.054  14.870
 8074W        W80499  19.709  20.753   1.374
 8075W        W80500   9.890  36.384   4.668
 8076W        W80501  26.500  33.042  11.061
 8077W        W80502  40.819  23.621  11.585
 8078W        W80503  24.599  15.801  14.299
 8079W        W80504  23.519   9.175  14.374
 8080W        W80505   0.315  36.089   2.840
 8081W        W80506  17.749  44.328   3.685
 8082W        W80507  15.183  19.178  12.443
 8083W        W80508   7.341  31.530   1.289
 8084W        W80509  44.266  28.493   4.837
 8085W        W80510   6.694  21.672  12.997
 8086W        W80511   2.770  24.532   4.294
 8087W        W80512   9.717  33.977  11.963
 8088W        W80513  41.331  14.319  12.481
 8089W        W80514  13.149  32.027   1.836
 8090W        W80515  38.492  31.604  10.501
 8091W        W80516  39.856   6.704  11.550
 8092W        W80517  14.265  27.544  14.980
 8093W        W80518  40.999  26.488  13.338
 8094W        W80519   0.934  20.118   2.662
 8095W        W80520   8.190  32.610  13.469
 8096W        W80521  20.136   1.291   1.372
 8097W        W80522  41.014   4.867   9.953
 8098W        W80523  40.499  11.289  12.431
 8099W        W80524  15.695  30.052  11.487
 8100W        W80525  43.831  39.827   4.606
 8101W        W80526  22.139  28.525   0.768
 8102W        W80527  10.725  11.803   0.351
 8103W        W80528  19.679  44.973   3.699
 8104W        W80529  41.425  18.227   2.280
 8105W        W80530   5.352  42.880   1.799
 8106W        W80531  33.490  34.038  10.083
 8107W        W80532  34.510  22.718  11.440
 8108W        W80533  34.615   1.387   1.706
 8109W        W80534  21.633   1.747   3.724
 8110W        W80535  43.777  23.685  11.497
 8111W        W80536   2.389  28.998   3.306
 8112W        W80537   7.688  39.881   0.450
 8113W        W80538  44.794  42.429  11.579
 8114W        W80539   2.306  30.556   2.680
 8115W        W80540   4.901  38.944  11.518
 8116W        W80541  11.354  11.823  13.045
 8117W        W80542   2.391  16.603  13.041
 8118W        W80543  34.572  13.123  14.473
 8119W        W80544  27.127  26.097   0.313
 8120W        W80545  37.944  11.238   1.425
 8121W        W80546  31.571  31.918   2.883
 8122W        W80547   6.769  29.437   0.736
 8123W        W80548   0.783  31.430  14.999
 8124W        W80549  36.585  14.801  14.814
 8125W        W80550  24.687  22.732  14.878
 8126W        W80551  26.076  13.777   3.346
 8127W        W80552  39.320  14.214   2.775
 8128W        W80553  29.979   6.319   2.902
 8129W        W80554  24.084  25.051  12.978
 8130W        W80555  43.431  38.053  13.384
 8131W        W80556  42.814  23.534  14.773
 8132W        W80557  13.180  17.725  11.392
 8133W        W80558  24.665  25.079  12.869
 8134W        W80559  19.726   1.424   0.849
 8135W        W80560   2.422  16.742  13.416
 8136W        W80561   4.823  15.652   0.248
 8137W        W80562  19.119  30.911   0.822
 8138W        W80563  42.868  44.450   4.628
 8139W        W80564   2.317  14.157  12.401
 8140W        W80565  24.704   8.740   2.316
 8141W        W80566  13.819   2.334   1.435
 8142W        W80567  17.171  15.806   5.274
 8143W        W80568  39.382  24.602   3.660
 8144W        W80569  29.603  36.426  14.421
 8145W        W80570  36.928  21.188  12.843
 8146W        W80571  35.958  14.783   1.727
 8147W        W80572  16.740   3.328   1.244
 8148W        W80573  10.714  32.000  13.491
 8149W        W80574   7.309  30.958  11.005
 8150W        W80575   9.652   0.284  12.902
 8151W        W80576  31.415  34.975  14.916
 8152W        W80577   1.313   1.276  13.336
 8153W        W80578  39.808  37.000   0.245
 8154W        W80579  19.042  13.222   3.210
 8155W        W80580  25.993  16.173  13.829
 8156W        W80581  31.057   1.777  12.568
 8157W        W80582  41.925  15.634  14.846
 8158W        W80583  25.547  35.072   2.408
 8159W        W80584  33.524  25.126  11.883
 8160W        W80585  36.069  33.124  11.466
 8161W        W80586  27.554  20.656   2.768
 8162W        W80587   4.885   7.756   4.828
 8163W        W80588  20.549  16.167   2.313
 8164W        W80589  36.017  19.143  14.958
 8165W        W80590   4.755  36.938  14.482
 8166W        W80591  28.050  38.373  10.577
 8167W        W80592   4.919  32.472   1.347
 8168W        W80593   0.957  21.018  14.816
 8169W        W80594  12.151  36.031  12.054
 8170W        W80595  29.963  36.085   4.706
 8171W        W80596  16.258  41.885   1.430
 8172W        W80597  10.147  16.117   0.250
 8173W        W80598  35.943   7.683   2.371
 8174W        W80599  39.456  38.968  11.084
 8175W        W80600  33.073  24.530  14.984
 8176W        W80601  37.444   6.310   0.454
 8177W        W80602  13.117   8.260   4.828
 8178W        W80603   9.227  39.900   1.885
 8179W        W80604  42.957   5.732   2.819
 8180W        W80605  26.472  34.958   1.234
 8181W        W80606  42.356  30.963   4.227
 8182W        W80607  13.783  28.624  11.032
 8183W        W80608  41.514  22.143   1.727
 8184W        W80609  35.528  16.686   1.801
 8185W        W80610  26.058   3.335   1.292
 8186W        W80611  39.038  21.598  12.394
 8187W        W80612  16.191  33.399   2.714
 8188W        W80613  37.928  33.434  11.873
 8189W        W80614   2.737  36.390   0.250
 8190W        W80615  40.510   4.265  10.892
 8191W        W80616  15.599  20.210   4.607
 8192W        W80617   5.272  34.435   1.425
 8193W        W80618  32.546   8.777  14.511
 8194W        W80619  33.578  18.168  10.145
 8195W        W80620  38.520  39.485  11.904
 8196W        W80621  22.741   5.274  14.398
 8197W        W80622   9.832  40.999  13.504
 8198W        W80623   6.215  42.337   4.291
 8199W        W80624  36.484  21.166   3.809
 8200W        W80625  14.660   1.288   3.194
 8201W        W80626  25.569  39.893   0.874
 8202W        W80627  18.728  20.260  14.418
 8203W        W80628  20.030  35.951   4.647
 8204W        W80629  18.625  35.463   4.217
 8205W        W80630  24.701  22.593   3.170
 8206W        W80631   6.236   0.378  14.393
 8207W        W80632   3.345  13.616  13.936
 8208W        W80633   8.389  25.649   4.143
 8209W        W80634  12.133  39.408   0.356
 8210W        W80635  44.343   0.761   2.323
 8211W        W80636  19.710  35.083   0.915
 8212W        W80637  44.966  19.557  10.966
 8213W        W80638   3.724  13.195  14.366
 8214W        W80639  11.203   2.831  12.931
 8215W        W80640   7.189  12.775  10.974
 8216W        W80641  34.048  38.058  12.527
 8217W        W80642  31.911  31.056   2.824
 8218W        W80643  22.114   1.855  11.535
 8219W        W80644  41.787  37.427   2.798
 8220W        W80645   4.450   6.813   4.237
 8221W        W80646  28.137  18.632   2.365
 8222W        W80647  29.972   1.258  13.816
 8223W        W80648   3.299  36.544   1.738
 8224W        W80649  24.206  27.485  11.381
 8225W        W80650  33.897  15.795   1.370
 8226W        W80651   1.931  14.739   2.886
 8227W        W80652  38.012  15.711   3.307
 8228W        W80653   5.377  38.052   1.748
 8229W        W80654  24.105  41.824  13.063
 8230W        W80655  38.470  27.083   2.223
 8231W        W80656  23.012  44.866   3.648
 8232W        W80657  44.473   9.190   2.180
 8233W        W80658  33.098  12.658   3.372
 8234W        W80659   8.749  38.057  13.941
 8235W        W80660  12.163   3.398  12.084
 8236W        W80661  15.278  43.807   1.817
 8237W        W80662  27.048   6.919  13.815
 8238W        W80663   8.203   2.415  11.899
 8239W        W80664  33.990  11.255  10.580
 8240W        W80665  28.117  34.461  12.498
 8241W        W80666  30.093  20.171   4.255
 8242W        W80667  37.514  18.147   9.961
 8243W        W80668  25.480   6.284   1.286
 8244W        W80669  37.070   1.813   4.311
 8245W        W80670  21.716  19.697  14.953
 8246W        W80671  36.952  32.909  14.885
 8247W        W80672  30.433  14.282  11.999
 8248W        W80673  38.960   9.855   4.308
 8249W        W80674  34.073  19.595   4.614
 8250W        W80675  36.933  12.648   0.860
 8251W        W80676  24.601  37.087  14.346
 8252W        W80677  12.713  40.991  12.385
 8253W        W80678  16.134  36.412   2.315
 8254W        W80679  41.897  32.520  12.040
 8255W        W80680  20.576  11.246   2.868
 8256W        W80681  26.085  34.529  13.465
 8257W        W80682  22.678  34.021  12.961
 8258W        W80683   1.921  18.609   1.781
 8259W        W80684  10.261  13.247  14.298
 8260W        W80685  36.844   2.395  13.483
 8261W        W80686   0.877  26.499  13.335
 8262W        W80687  17.263  15.279  13.840
 8263W        W80688   5.720  13.772  12.451
 8264W        W80689   8.195  39.383   3.200
 8265W        W80690  28.505  23.000   3.210
 8266W        W80691  19.538  29.147   4.615
 8267W        W80692  38.938  40.527   0.829
 8268W        W80693   6.887  43.981   2.376
 8269W        W80694   9.712  15.725   1.349
 8270W        W80695   8.889   0.359  10.578
 8271W        W80696   0.894  38.450   0.947
 8272W        W80697  28.127  27.999   3.280
 8273W        W80698  40.433  38.977   3.352
 8274W        W80699  33.116  37.532   4.804
 8275W        W80700  30.912  35.898  10.544
 8276W        W80701  20.715  24.709  12.974
 8277W        W80702  28.129  37.478   4.327
 8278W        W80703   4.323  23.645  11.552
 8279W        W80704  23.055  23.689   1.860
 8280W        W80705  17.254   8.361   4.239
 8281W        W80706   2.951  44.319  14.810
 8282W        W80707  39.511  34.519  14.941
 8283W        W80708  23.496  11.868   3.202
 8284W        W80709  36.960   6.258  11.080
 8285W        W80710  21.724  37.887  13.979
 8286W        W80711  12.650  33.446  12.436
 8287W        W80712  43.861  15.624   4.334
 8288W        W80713   9.380  17.773   4.336
 8289W        W80714  16.154   2.833  12.446
 8290W        W80715  30.460  41.035   1.414
 8291W        W80716  20.126  39.029  13.994
 8292W        W80717  11.784  27.556  10.905
 8293W        W80718  17.143  27.010   4.604
 8294W        W80719   4.770  38.474   2.290
 8295W        W80720  30.431  29.435  11.486
 8296W        W80721  27.629  31.036   1.353
 8297W        W80722  42.419  20.659  11.119
 8298W        W80723  17.102   5.909  12.876
 8299W        W80724  32.528  20.652  11.526
 8300W        W80725  34.073   3.234  12.876
 8301W        W80726   8.207  23.678   0.751
 8302W        W80727  27.188  16.219   2.259
 8303W        W80728   7.690  41.337  13.877
 8304W        W80729  10.286  13.604  14.852
 8305W        W80730  25.034  42.949  11.995
 8306W        W80731  39.406  36.366  13.938
 8307W        W80732  17.647  42.441  12.567
 8308W        W80733  15.093   2.336  12.834
 8309W        W80734  24.519  21.128  10.139
 8310W        W80735  22.666  30.953   2.395
 8311W        W80736   5.698  44.401   3.384
 8312W        W80737  15.139  42.828   3.220
 8313W        W80738  27.644  30.105  10.435
 8314W        W80739  38.396   2.284  12.984
 8315W        W80740  39.385   4.345  11.416
 8316W        W80741  13.146  40.986  12.580
 8317W        W80742  31.011   2.756   1.798
 8318W        W80743  32.973  25.149  11.974
 8319W        W80744  40.942   2.775  12.577
 8320W        W80745   3.948  19.178   3.224
 8321W        W80746  31.410  30.132  12.537
 8322W        W80747  33.439  33.925   0.373
 8323W        W80748   7.694   1.827   4.302
 8324W        W80749  11.631  40.038  13.331
 8325W        W80750  29.647  11.772   1.323
 8326W        W80751   8.827  43.303  14.879
 8327W        W80752  23.625  37.510  14.845
 8328W        W80753  40.026  22.654   4.303
 8329W        W80754  34.969   6.317  13.520
 8330W        W80755  39.046  22.176   2.299
 8331W        W80756  32.448  27.497   0.272
 8332W        W80757  15.777  34.885   0.464
 8333W        W80758  16.725  36.919   3.329
 8334W        W80759  13.777  42.785  13.801
 8335W        W80760  36.560  17.782   3.231
 8336W        W80761  22.197  29.100   1.236
 8337W        W80762   7.267   9.828   3.643
 8338W        W80763  10.658  30.562   3.740
 8339W        W80764  29.620   0.381  12.543
 8340W        W80765  31.057  15.712  14.956
 8341W        W80766  15.590   0.272  10.992
 8342W        W80767  38.482  18.213  13.798
 8343W        W80768   4.799  10.836  12.864
 8344W        W80769  41.928   4.766   4.149
 8345W        W80770   2.409  22.054   0.745
 8346W        W80771  24.020   5.388   2.396
 8347W        W80772  19.265  38.555  14.917
 8348W        W80773  38.878  25.533  13.029
 8349W        W80774   7.222   4.380   2.896
 8350W        W80775   0.934  27.154   2.317
 8351W        W80776  40.385  24.579  14.417
 8352W        W80777  35.598   5.426  14.981
 8353W        W80778  43.413  41.296  11.040
 8354W        W80779  10.801  27.072   3.789
 8355W        W80780  12.750   5.868  14.004
 8356W        W80781   1.425  27.676  13.407
 8357W        W80782  13.823  24.528   4.331
 8358W        W80783  19.647  11.260  13.022
 8359W        W80784  12.141  34.462  11.006
 8360W        W80785  41.989  43.290  12.375
 8361W        W80786   9.287  20.525   2.761
 8362W        W80787  42.369  23.546   0.375
 8363W        W80788  19.207   4.886   2.185
 8364W        W80789  32.513  28.047   2.666
 8365W        W80790   4.853  25.468  13.049
 8366W        W80791   1.247   0.960  13.367
 8367W        W80792  31.034  20.036   0.425
 8368W        W80793  32.611  22.540  12.904
 8369W        W80794  11.729  17.219   5.121
 8370W        W80795   3.278   2.750   1.445
 8371W        W80796  12.268  38.389   0.284
 8372W        W80797  28.669  23.513   1.265
 8373W        W80798  12.643   5.931  10.925
 8374W        W80799  34.514  14.208  14.844
 8375W        W80800  44.889  21.753  12.569
 8376W        W80801  30.451   9.277   0.836
 8377W        W80802  36.385   9.284   3.165
 8378W        W80803  23.187  37.361   0.288
 8379W        W80804  27.569  30.618   3.666
 8380W        W80805   0.454  41.807   3.778
 8381W        W80806  22.647  28.616  14.952
 8382W        W80807   1.906  17.062   2.200
 8383W        W80808  10.720  12.822  10.982
 8384W        W80809  25.530  16.129   2.274
 8385W        W80810  43.967   4.418  11.865
 8386W        W80811  34.983  39.971   2.722
 8387W        W80812  38.950  32.985  12.857
 8388W        W80813  11.126  29.975  10.920
 8389W        W80814  38.346  10.274  14.763
 8390W        W80815   3.380  40.476  10.477
 8391W        W80816  14.172  35.869  13.520
 8392W        W80817  17.695  37.884   1.246
 8393W        W80818  30.651  16.172   2.888
 8394W        W80819  40.359  14.674   1.380
 8395W        W80820   1.414  33.046  13.410
 8396W        W80821  29.079  29.426  11.484
 8397W        W80822   4.898  25.091   0.790
 8398W        W80823  31.901   2.410   2.878
 8399W        W80824  17.148  39.446  14.306
 8400W        W80825   8.191   7.285   1.739
 8401W        W80826  40.913  29.095   4.132
 8402W        W80827  14.103  31.505  12.038
 8403W        W80828  41.897   2.787  10.404
 8404W        W80829  34.981   3.737   3.237
 8405W        W80830   9.220  36.568  12.484
 8406W        W80831  12.720  13.215  12.422
 8407W        W80832   5.250   0.824  13.932
 8408W        W80833  11.863  29.508   0.845
 8409W        W80834  28.562  10.653   0.827
 8410W        W80835  44.431  42.945   0.962
 8411W        W80836  14.650  39.039  13.457
 8412W        W80837  31.097   1.282   2.368
 8413W        W80838  10.639  10.196  12.875
 8414W        W80839  32.482  25.682  14.820
 8415W        W80840  23.075  16.270   4.626
 8416W        W80841  23.092  32.027  12.979
 8417W        W80842   4.874  23.225  13.942
 8418W        W80843  13.287   2.764  11.463
 8419W        W80844  36.883  34.406  11.111
 8420W        W80845  41.500  16.697  12.831
 8421W        W80846  15.256  40.477   4.156
 8422W        W80847  10.234  25.471  13.980
 8423W        W80848  17.663  26.511  11.003
 8424W        W80849  18.151  25.649   3.385
 8425W        W80850  43.468  11.641  10.600
 8426W        W80851  21.517  11.335  12.067
 8427W        W80852  31.063  39.407  14.977
 8428W        W80853  28.029  25.576   4.341
 8429W        W80854  20.546  35.390   3.757
 8430W        W80855  17.766  32.570   4.170
 8431W        W80856  15.704  34.032  14.875
 8432W        W80857  35.954  11.728  11.040
 8433W        W80858  38.959  25.963  10.020
 8434W        W80859  12.625  39.324   3.718
 8435W        W80860  25.106  39.389   3.771
 8436W        W80861   9.708  12.714  14.490
 8437W        W80862  37.379  20.696   0.415
 8438W        W80863  41.860   3.873  13.841
 8439W        W80864  31.074   0.467   1.837
 8440W        W80865  14.131  18.603   1.697
 8441W        W80866   0.385  17.245  12.079
 8442W        W80867   3.421  12.798  10.941
 8443W        W80868  32.050  15.617   5.188
 8444W        W80869   2.255   4.255  13.446
 8445W        W80870  35.529   0.855  10.910
 8446W        W80871  41.458  36.028   4.671
 8447W        W80872  38.850  14.117   2.258
 8448W        W80873   0.844  10.192  13.996
 8449W        W80874  37.505   3.228   2.813
 8450W        W80875  41.021   5.701   3.316
 8451W        W80876  43.785  39.990   3.680
 8452W        W80877  13.105  29.477   0.750
 8453W        W80878  34.023  39.854   0.419
 8454W        W80879  30.001  21.161  13.453
 8455W        W80880  30.108  16.308  14.335
 8456W        W80881  15.742   4.784   3.326
 8457W        W80882  21.033  18.170   3.671
 8458W        W80883  31.986  16.567  14.421
 8459W        W80884   5.816  36.940   1.299
 8460W        W80885  41.453  43.882  10.419
 8461W        W80886   5.339  25.180   0.807
 8462W        W80887  37.008  19.266   3.335
 8463W        W80888  18.265  21.692  11.120
 8464W        W80889  26.070   6.201   3.363
 8465W        W80890  35.095  22.669   1.406
 8466W        W80891  16.701   9.868   0.851
 8467W        W80892   7.205   2.395   3.246
 8468W        W80893  27.029  11.775   2.826
 8469W        W80894  42.440  37.834   2.181
 8470W        W80895   9.364  19.217   1.779
 8471W        W80896   4.332  18.589  12.038
 8472W        W80897  38.459  16.206  12.832
 8473W        W80898  39.039   6.743   2.840
 8474W        W80899  44.358   4.870   5.147
 8475W        W80900  11.779  12.752   0.484
 8476W        W80901   4.392   7.754   2.729
 8477W        W80902   6.754  25.969  11.383
 8478W        W80903  32.525  23.209  11.861
 8479W        W80904  29.992  40.947   0.811
 8480W        W80905  11.153  12.302  11.116
 8481W        W80906  44.884  36.385  14.423
 8482W        W80907  29.072  26.141  13.886
 8483W        W80908  13.706  11.803  10.604
 8484W        W80909  22.705  43.405   2.418
 8485W        W80910  12.271   4.824  12.824
 8486W        W80911  27.563  26.649   0.892
 8487W        W80912  10.179  34.488  14.465
 8488W        W80913  30.975  39.546   4.777
 8489W        W80914  16.130  29.992   2.299
 8490W        W80915  18.060  38.996   2.365
 8491W        W80916  40.522  27.658  11.576
 8492W        W80917  32.479  39.437  12.958
 8493W        W80918  22.009  13.220   4.822
 8494W        W80919  41.883  34.112   3.783
 8495W        W80920  22.567  11.241  13.351
 8496W        W80921   0.472   7.842   1.374
 8497W        W80922   9.360  32.053  12.916
 8498W        W80923  37.365  18.161  14.969
 8499W        W80924  29.547  31.413   0.831
 8500W        W80925  30.574   4.709   3.685
 8501W        W80926  13.106  21.550   2.865
 8502W        W80927  22.583  11.348   5.156
 8503W        W80928   9.687   1.473   0.811
 8504W        W80929  33.117   0.295  14.984
 8505W        W80930   7.369  35.599  13.942
 8506W        W80931  34.022   6.849  14.421
 8507W        W80932   2.248   6.864  12.518
 8508W        W80933  16.577  44.882  14.410
 8509W        W80934   3.265   0.758   0.261
 8510W        W80935  16.594  22.736   0.841
 8511W        W80936  20.586  34.611  13.438
 8512W        W80937  38.821  14.331   5.087
 8513W        W80938   3.376  18.125   4.818
 8514W        W80939  25.156   3.254   0.930
 8515W        W80940  20.132  19.764  10.892
 8516W        W80941  27.668  16.290  12.087
 8517W        W80942  19.668  43.478   0.373
 8518W        W80943  42.377  14.214  11.394
 8519W        W80944  25.672  38.990  10.061
 8520W        W80945  40.361   3.851  14.027
 8521W        W80946  14.180  14.636  10.560
 8522W        W80947   7.758  25.530   4.155
 8523W        W80948  44.809  14.640  14.857
 8524W        W80949  18.085   9.766   2.365
 8525W        W80950  42.395   7.760  10.570
 8526W        W80951   6.220  28.090  14.789
 8527W        W80952  42.334  21.249  11.011
 8528W        W80953  42.409   0.468   3.321
 8529W        W80954  17.085  17.064   1.233
 8530W        W80955  15.788  17.187   2.810
 8531W        W80956  28.950  42.832   0.348
 8532W        W80957  18.075   5.762  12.403
 8533W        W80958   4.243  39.040   2.274
 8534W        W80959  26.497   1.768   4.278
 8535W        W80960   2.384  40.325   0.478
 8536W        W80961  17.257  43.372  10.511
 8537W        W80962  16.622   2.279  10.031
 8538W        W80963  34.056  19.160  14.831
 8539W        W80964  14.212  28.488  14.992
 8540W        W80965  39.536  34.900   4.127
 8541W        W80966  13.196  10.285   2.185
 8542W        W80967  10.866   1.912  14.826
 8543W        W80968  11.231  20.664  14.863
 8544W        W80969  19.232  16.635  14.015
 8545W        W80970  17.753  16.596   1.423
 8546W        W80971  13.129  17.756  11.983
 8547W        W80972  25.641  39.062   1.891
 8548W        W80973  15.093  38.558   4.146
 8549W        W80974  42.954  18.671  11.011
 8550W        W80975   6.277   2.964   2.864
 8551W        W80976  31.093  16.182  12.919
 8552W        W80977  11.126  32.507   1.436
 8553W        W80978  23.051  26.549  13.467
 8554W        W80979   3.218  20.623   3.238
 8555W        W80980  26.991  30.642   0.332
 8556W        W80981  36.074  17.694   1.848
 8557W        W80982  21.625  43.486  12.068
 8558W        W80983   7.199  24.988  11.411
 8559W        W80984  10.173  30.030  11.459
 8560W        W80985  21.165  13.768  13.490
 8561W        W80986  42.907  42.988  11.901
 8562W        W80987  30.995  14.248   2.377
 8563W        W80988   6.325  14.175  12.514
 8564W        W80989   8.693  27.947   4.729
 8565W        W80990   6.870  35.423  14.790
 8566W        W80991   8.675  29.659   0.919
 8567W        W80992   2.827  30.594   3.868
 8568W        W80993   8.839  27.561  11.468
 8569W        W80994   7.697  18.213   3.254
 8570W        W80995  27.686   8.377   4.612
 8571W        W80996  39.931  43.935  11.403
 8572W        W80997  17.071  39.855   0.316
 8573W        W80998  28.498  43.768   4.178
 8574W        W80999   5.391  38.494   4.163
 8575W        W81000   5.744  40.337  13.832
 8576W        W81001  44.415  42.946   1.757
 8577W        W81002  10.648  17.700  13.808
 8578W        W81003  13.324  24.588   3.813
 8579W        W81004   0.955   3.431  10.038
 8580W        W81005   9.720   7.271  10.578
 8581W        W81006  28.649   8.781  13.024
 8582W        W81007  27.188  32.989   9.513
 8583W        W81008  27.550  21.614  11.100
 8584W        W81009  23.548   3.933   2.417
 8585W        W81010   1.256   3.365  11.904
 8586W        W81011  15.652  37.923   2.331
 8587W        W81012  41.475  11.831  11.476
 8588W        W81013  28.085  35.488   2.410
 8589W        W81014  16.791   7.866  13.056
 8590W        W81015  43.332  35.419  11.004
 8591W        W81016   7.842  40.472  13.324
 8592W        W81017   6.236  31.016   1.397
 8593W        W81018  40.461  17.127  12.966
 8594W        W81019   7.786   2.275   2.758
 8595W        W81020  20.095  22.111  13.862
 8596W        W81021   3.801  32.082   1.787
 8597W        W81022  17.081  26.202   1.905
 8598W        W81023  31.522   6.716  13.311
 8599W        W81024  35.076  23.578  10.579
 8600W        W81025  10.142  38.349   2.289
 8601W        W81026  41.477  29.591   0.292
 8602W        W81027  17.680  32.623   5.228
 8603W        W81028  34.379   9.865  12.475
 8604W        W81029  17.628  37.022   1.722
 8605W        W81030  35.106  13.268   3.675
 8606W        W81031  34.112  28.530  14.797
 8607W        W81032  34.430  12.764  14.830
 8608W        W81033  27.066  44.903   0.803
 8609W        W81034   2.847  33.538  14.373
 8610W        W81035  41.943   4.347  12.389
 8611W        W81036  23.538  18.207  11.920
 8612W        W81037  31.061  14.283  12.046
 8613W        W81038  25.652   3.756   0.310
 8614W        W81039  35.946  12.299   1.801
 8615W        W81040  27.184  34.437  14.436
 8616W        W81041  19.624   6.286   0.411
 8617W        W81042  29.588  23.642  12.533
 8618W        W81043   5.851   9.816  13.468
 8619W        W81044  20.537   7.818   4.192
 8620W        W81045  32.997  18.171  11.569
 8621W        W81046  18.072  26.523  11.064
 8622W        W81047  35.948  32.453   1.932
 8623W        W81048  33.621  13.788  14.324
 8624W        W81049  11.255  43.343  13.377
 8625W        W81050   2.922  34.054   3.374
 8626W        W81051   9.670   0.886  14.376
 8627W        W81052   5.905  40.314  12.454
 8628W        W81053  29.580  21.626   1.881
 8629W        W81054  12.137  35.529   1.811
 8630W        W81055  29.072  28.619  10.911
 8631W        W81056  18.551  31.544   0.413
 8632W        W81057  42.810  13.159   4.274
 8633W        W81058  40.534  32.103  13.495
 8634W        W81059  30.979   9.192  11.493
 8635W        W81060   4.826   4.277  14.901
 8636W        W81061  10.295   5.808  14.866
 8637W        W81062  29.058  18.625  14.412
 8638W        W81063   5.258  43.459  12.923
 8639W        W81064  32.500  23.108  13.952
 8640W        W81065  25.146  37.926   0.876
 8641W        W81066  17.205   4.895  14.780
 8642W        W81067  15.134  43.793   0.246
 8643W        W81068  35.997  32.066   3.363
 8644W        W81069  43.790  33.112   1.803
 8645W        W81070  36.486  12.250   4.786
 8646W        W81071  34.559  36.970  11.060
 8647W        W81072  36.499  13.607   4.339
 8648W        W81073  13.737  19.194   2.278
 8649W        W81074  15.212  17.207   3.265
 8650W        W81075  11.301  26.501   4.653
 8651W        W81076  14.765  19.639   0.249
 8652W        W81077  30.460  25.979   1.260
 8653W        W81078  20.269   6.426   2.268
 8654W        W81079  27.972   2.238   4.831
 8655W        W81080   6.849   1.850  11.399
 8656W        W81081  32.499  18.705  14.861
 8657W        W81082  21.169  27.996  11.085
 8658W        W81083  19.651  43.819   1.770
 8659W        W81084  23.044  15.630   1.350
 8660W        W81085  27.538   3.260  12.517
 8661W        W81086  14.304  38.495  12.469
 8662W        W81087  16.796   4.756  11.048
 8663W        W81088  33.879   1.773  12.573
 8664W        W81089  17.642  20.735  14.311
 8665W        W81090  27.647  12.652  12.828
 8666W        W81091  24.527   7.743  14.000
 8667W        W81092  34.917  24.121  13.318
 8668W        W81093  26.680   0.449   1.736
 8669W        W81094   5.786  17.085  11.011
 8670W        W81095  26.563  23.088   4.611
 8671W        W81096  30.976   2.852  14.943
 8672W        W81097  23.592  30.156   1.872
 8673W        W81098   2.906  14.295   2.753
 8674W        W81099  26.560   6.366  14.957
 8675W        W81100   2.823   0.483   4.712
 8676W        W81101  16.761   6.743  12.347
 8677W        W81102  23.218  29.166  13.047
 8678W        W81103  28.508  35.383   4.209
 8679W        W81104  32.466  29.144   4.155
 8680W        W81105  24.504   8.343  10.506
 8681W        W81106  11.830  30.950   4.169
 8682W        W81107  39.559  43.870   2.382
 8683W        W81108  22.617  30.623  14.299
 8684W        W81109  19.754   5.358  13.458
 8685W        W81110  26.663  43.485   1.726
 8686W        W81111  38.450  13.708   0.368
 8687W        W81112  34.889  15.261   1.439
 8688W        W81113  16.693  33.485   0.786
 8689W        W81114  27.492  44.814  12.541
 8690W        W81115  44.865  24.084   4.348
 8691W        W81116  32.492   8.658  10.992
 8692W        W81117   3.391  11.706  12.519
 8693W        W81118  39.051   2.867   0.470
 8694W        W81119  10.212  24.221   0.433
 8695W        W81120  17.579   0.470  10.898
 8696W        W81121   7.214  21.634   2.327
 8697W        W81122  28.090  24.552  13.499
 8698W        W81123   3.369  32.068   2.833
 8699W        W81124  39.397   8.398   3.273
 8700W        W81125  11.289   2.958   2.411
 8701W        W81126  42.849  28.135   2.732
 8702W        W81127  18.753  30.095  12.512
 8703W        W81128   5.726  29.542   0.471
 8704W        W81129   9.349   8.714   2.861
 8705W        W81130  39.314  29.614   2.887
 8706W        W81131  26.080  41.923   3.660
 8707W        W81132  24.054  22.042   3.249
 8708W        W81133  15.673  42.021   1.932
 8709W        W81134  36.051  11.842   3.742
 8710W        W81135   2.962  24.488  11.399
 8711W        W81136   0.457  10.162   2.851
 8712W        W81137  20.085  23.192   2.294
 8713W        W81138  17.759   3.761  14.361
 8714W        W81139   7.753   1.278  14.950
 8715W        W81140  40.420   7.794   0.398
 8716W        W81141  26.004  17.188  10.997
 8717W        W81142  19.694   2.403  11.129
 8718W        W81143  42.340  25.140  14.283
 8719W        W81144  43.492   7.907  12.925
 8720W        W81145   0.764  39.844   3.354
 8721W        W81146   2.397  41.353  11.960
 8722W        W81147  21.518  34.562  14.003
 8723W        W81148  31.098   4.409  11.114
 8724W        W81149  43.459   2.936  14.377
 8725W        W81150   3.897  15.109  13.944
 8726W        W81151  16.205  43.859   2.792
 8727W        W81152  13.244  20.567  12.474
 8728W        W81153  31.081  29.111  13.811
 8729W        W81154  26.140  25.093   1.768
 8730W        W81155   1.785   8.840   4.232
 8731W        W81156  36.931  29.571  12.030
 8732W        W81157  34.607  10.837   4.193
 8733W        W81158  23.584  22.668  11.608
 8734W        W81159  24.199  41.891   2.902
 8735W        W81160  35.497  37.033  14.944
 8736W        W81161  44.364  12.192  14.015
 8737W        W81162   5.918  42.829   1.927
 8738W        W81163   5.862   7.398   1.241
 8739W        W81164  36.479  11.351   3.846
 8740W        W81165  17.624  30.651  14.931
 8741W        W81166  11.179  14.800   4.169
 8742W        W81167  10.843  38.831  13.023
 8743W        W81168  23.182  41.376  14.416
 8744W        W81169   7.264  14.235  12.475
 8745W        W81170  37.051   4.888   4.222
 8746W        W81171  16.100  32.955   4.725
 8747W        W81172   0.460  42.792  13.902
 8748W        W81173  31.018   3.277   4.658
 8749W        W81174  17.757  18.710  14.407
 8750W        W81175  39.353   2.835   4.651
 8751W        W81176  32.077  30.028   3.278
 8752W        W81177  15.203  26.951  14.468
 8753W        W81178   0.871   3.387  12.553
 8754W        W81179  25.496  39.360   4.650
 8755W        W81180  30.453  36.469  10.933
 8756W        W81181   0.824  12.281  14.838
 8757W        W81182  19.247  41.299   0.868
 8758W        W81183  28.532  17.221  14.436
 8759W        W81184   6.231  37.977  10.516
 8760W        W81185  38.508  32.999   4.768
 8761W        W81186  14.670  21.577   3.182
 8762W        W81187  18.267  14.635   0.354
 8763W        W81188  20.536  28.438   4.688
 8764W        W81189  37.949  37.042   1.776
 8765W        W81190  28.637   9.383  14.003
 8766W        W81191   2.965  37.389  13.336
 8767W        W81192  21.620  43.366   2.784
 8768W        W81193  34.075   9.158  13.521
 8769W        W81194  30.931   0.337   1.260
 8770W        W81195  13.754  29.468  13.939
 8771W        W81196  31.103  39.042   2.343
 8772W        W81197  22.714   2.289   4.166
 8773W        W81198  24.591  44.837  12.354
 8774W        W81199  21.197  33.031   1.867
 8775W        W81200  11.140  33.914  11.983
 8776W        W81201  15.234  13.608  14.882
 8777W        W81202  17.206   3.430   2.791
 8778W        W81203  30.010  14.731  14.426
 8779W        W81204  41.389  42.852   4.138
 8780W        W81205  22.140  35.857  12.552
 8781W        W81206  22.669   3.914  11.378
 8782W        W81207  37.456  11.255   3.233
 8783W        W81208  25.608  41.354   3.647
 8784W        W81209  21.170  41.509   4.791
 8785W        W81210  38.389  20.682   2.700
 8786W        W81211  21.691  32.950  12.050
 8787W        W81212  35.463  19.048   3.177
 8788W        W81213  26.953   8.732   0.308
 8789W        W81214  20.117  14.341  12.399
 8790W        W81215  15.599  13.201  14.828
 8791W        W81216  20.766  32.014  14.829
 8792W        W81217  10.359   3.434  11.861
 8793W        W81218  12.189   6.246   1.882
 8794W        W81219   0.266   7.225  10.491
 8795W        W81220  35.876   7.798   1.382
 8796W        W81221  39.424  34.982  11.526
 8797W        W81222  44.834  32.577   0.467
 8798W        W81223  17.160  43.808   1.408
 8799W        W81224  36.414  25.605  11.439
 8800W        W81225   6.199  17.176   4.836
 8801W        W81226  28.610  32.606  12.905
 8802W        W81227  25.473  28.522  11.041
 8803W        W81228  35.388  21.165   4.302
 8804W        W81229  30.988   2.415   4.123
 8805W        W81230  42.850  38.505   0.733
 8806W        W81231  29.555  20.637  14.850
 8807W        W81232  37.564  37.946   4.355
 8808W        W81233   6.346  39.528  13.853
 8809W        W81234   6.774  15.180   0.762
 8810W        W81235  38.507  22.146  12.420
 8811W        W81236   5.733  24.580   4.652
 8812W        W81237   0.353   8.828   2.309
 8813W        W81238  37.571   4.861  14.816
 8814W        W81239  18.639  12.712   0.389
 8815W        W81240   6.309  22.502   0.447
 8816W        W81241  32.029   0.894  10.907
 8817W        W81242  17.208  20.678  13.923
 8818W        W81243  11.157  35.581  12.923
 8819W        W81244  40.535  37.833   3.734
 8820W        W81245  25.006  25.128  10.943
 8821W        W81246   6.858  11.218   0.871
 8822W        W81247   3.341  34.519   2.211
 8823W        W81248   3.301  38.880   3.274
 8824W        W81249  33.996   0.764  14.763
 8825W        W81250  42.987   1.898   2.832
 8826W        W81251   6.248   6.891  11.881
 8827W        W81252  40.371   2.747   0.361
 8828W        W81253  27.593   8.789   2.870
 8829W        W81254  30.129   0.753  10.906
 8830W        W81255   4.365  42.321  12.490
 8831W        W81256  12.153  17.278   3.148
 8832W        W81257  27.042  31.116  14.462
 8833W        W81258  26.036  25.500   1.768
 8834W        W81259  14.275   6.782  12.827
 8835W        W81260  33.456  24.578   2.776
 8836W        W81261   4.405  29.599  14.511
 8837W        W81262  25.588  26.661   2.675
 8838W        W81263  42.997  31.014  11.072
 8839W        W81264   1.481  40.990   1.365
 8840W        W81265  42.378   9.354   3.755
 8841W        W81266  32.554  42.320   3.761
 8842W        W81267  21.168  41.346  13.007
 8843W        W81268  23.634  33.600  13.434
 8844W        W81269  24.572  25.203  14.765
 8845W        W81270  43.362  18.079   1.294
 8846W        W81271  34.442   9.812   3.738
 8847W        W81272  19.157  33.888  12.885
 8848W        W81273  19.680  32.426   4.143
 8849W        W81274  22.639  25.030  11.600
 8850W        W81275  19.623  19.607  12.349
 8851W        W81276  33.470   2.312   3.324
 8852W        W81277  43.481  16.172   0.439
 8853W        W81278  18.094   9.748   1.304
 8854W        W81279  43.817  34.461  13.893
 8855W        W81280  30.024   1.878  14.787
 8856W        W81281  23.512   7.328  14.940
 8857W        W81282  28.618   8.193   3.341
 8858W        W81283  36.376  39.545  12.466
 8859W        W81284  11.142  13.831  10.447
 8860W        W81285  38.930  17.556   0.798
 8861W        W81286  14.180  16.159  12.567
 8862W        W81287  37.867   0.334  14.351
 8863W        W81288   8.735  22.538   0.370
 8864W        W81289  40.927  30.027  13.827
 8865W        W81290  13.769  30.033   3.789
 8866W        W81291  40.862  36.522  11.388
 8867W        W81292  40.510  22.721  10.071
 8868W        W81293  17.714   9.882  14.511
 8869W        W81294  29.089   6.250   4.670
 8870W        W81295   0.888  22.062  10.453
 8871W        W81296  23.523  16.278  13.048
 8872W        W81297  44.863  16.733   0.307
 8873W        W81298  29.517  31.144  10.543
 8874W        W81299  40.483  24.144   4.599
 8875W        W81300   5.901  43.416   1.255
 8876W        W81301  39.314  29.607  11.092
 8877W        W81302  36.481  12.664   9.920
 8878W        W81303  23.719   8.234   2.190
 8879W        W81304   0.834   8.772  10.543
 8880W        W81305   8.881  24.001  14.387
 8881W        W81306  41.003  19.168   4.262
 8882W        W81307  11.749   1.352  12.484
 8883W        W81308  38.363  10.693   2.198
 8884W        W81309  25.535   7.729  12.356
 8885W        W81310  39.830   4.329  10.909
 8886W        W81311  38.363  10.717  13.328
 8887W        W81312  31.929  14.626  12.017
 8888W        W81313  16.274  24.991   4.694
 8889W        W81314  42.403  40.009   3.750
 8890W        W81315  23.180   9.720   5.191
 8891W        W81316  17.252  42.332  13.390
 8892W        W81317  31.141  24.685  11.553
 8893W        W81318  17.581  26.624   3.173
 8894W        W81319   8.403   9.804  10.502
 8895W        W81320   4.383  40.964   0.913
 8896W        W81321   8.163  36.059   0.963
 8897W        W81322  13.600  30.908   4.319
 8898W        W81323   4.785  34.528  10.610
 8899W        W81324   1.783  17.073  14.409
 8900W        W81325  39.465   7.198  14.890
 8901W        W81326  43.496   4.738  10.624
 8902W        W81327  36.469  32.619   1.354
 8903W        W81328  18.154  33.609  10.078
 8904W        W81329  36.572  42.421  12.892
 8905W        W81330   6.362   0.385   0.798
 8906W        W81331  36.454  13.236   3.178
 8907W        W81332  42.394  15.791   4.314
 8908W        W81333  12.302  11.746   0.751
 8909W        W81334   1.902   3.743  12.912
 8910W        W81335  20.166  26.653  13.004
 8911W        W81336  32.068  41.397   3.186
 8912W        W81337  33.406  38.865  11.999
 8913W        W81338  23.999  32.018   1.917
 8914W        W81339   9.206  41.504  11.863
 8915W        W81340  17.571  39.838  11.393
 8916W        W81341   0.385  30.536   4.285
 8917W        W81342  24.643  25.990  14.480
 8918W        W81343  39.348   1.750   4.633
 8919W        W81344  34.896  26.974   4.616
 8920W        W81345   1.429  12.816  11.861
 8921W        W81346   2.860  40.957   3.862
 8922W        W81347  44.842  29.056   5.144
 8923W        W81348  19.217   7.786   4.762
 8924W        W81349  27.985  15.697   0.464
 8925W        W81350  14.811  20.708   4.227
 8926W        W81351  38.550  18.651   1.340
 8927W        W81352  16.274  36.482   2.754
 8928W        W81353  34.477  24.111   3.636
 8929W        W81354  15.133  25.604  13.457
 8930W        W81355  30.459  38.886  13.437
 8931W        W81356  40.919  28.079   2.755
 8932W        W81357  18.596  43.303   4.253
 8933W        W81358   9.889  29.640  12.044
 8934W        W81359  36.521  24.568  10.930
 8935W        W81360  16.256  44.771  13.061
 8936W        W81361  25.705  44.867   3.386
 8937W        W81362  34.387  12.246  11.925
 8938W        W81363   4.205  38.425   0.938
 8939W        W81364  42.971   5.231   0.772
 8940W        W81365  25.695   7.415  11.437
 8941W        W81366   9.759  19.735   0.354
 8942W        W81367  18.070   5.838   1.241
 8943W        W81368  43.430  18.578   4.819
 8944W        W81369  25.586  43.827   2.692
 8945W        W81370  25.965  41.320  12.063
 8946W        W81371   0.816  20.660  10.520
 8947W        W81372  19.164   9.689  14.486
 8948W        W81373   9.695   1.949  10.403
 8949W        W81374  21.646  11.726   1.720
 8950W        W81375  32.599   3.306  13.866
 8951W        W81376  31.988  29.934  13.525
 8952W        W81377  34.455  37.574  13.927
 8953W        W81378  24.511  44.964  14.948
 8954W        W81379  20.652  10.705   4.186
 8955W        W81380  30.067  34.096   0.855
 8956W        W81381  33.601  36.348  11.481
 8957W        W81382   9.331   0.936  10.407
 8958W        W81383   3.448  12.139  13.364
 8959W        W81384  20.626  44.332  14.397
 8960W        W81385   0.441  37.359   1.307
 8961W        W81386  27.643   4.337  12.467
 8962W        W81387   0.776  44.753  14.324
 8963W        W81388   9.743  24.499   3.161
 8964W        W81389  18.787  33.125   1.343
 8965W        W81390  14.335  15.798  11.988
 8966W        W81391  11.867  21.222   0.383
 8967W        W81392  11.244  36.025   0.807
 8968W        W81393   3.440   8.285  12.424
 8969W        W81394   9.753   8.760   0.869
 8970W        W81395  22.183  11.166   1.214
 8971W        W81396   0.419  42.405  11.577
 8972W        W81397   0.275   3.804   1.370
 8973W        W81398   5.762  19.742   1.443
 8974W        W81399  27.022  13.679  12.425
 8975W        W81400   9.180  44.009   1.727
 8976W        W81401  26.623  18.770  10.609
 8977W        W81402   5.239  16.765   3.694
 8978W        W81403  24.131   4.915  13.481
 8979W        W81404  17.730   5.838  14.990
 8980W        W81405  20.553  41.363   2.188
 8981W        W81406   1.394   8.371   2.759
 8982W        W81407  33.389   2.327  14.904
 8983W        W81408  35.885  26.067  12.461
 8984W        W81409  30.945   7.255  10.555
 8985W        W81410  35.083  32.076   0.372
 8986W        W81411   8.654  28.963   1.752
 8987W        W81412  15.311   5.413  11.048
 8988W        W81413  22.249  19.719   5.107
 8989W        W81414  36.371  34.378   4.685
 8990W        W81415  27.626   7.749  11.069
 8991W        W81416   1.279   7.265   2.352
 8992W        W81417  26.178  24.075  13.535
 8993W        W81418  30.925   3.265   4.190
 8994W        W81419   0.792  32.131   0.774
 8995W        W81420   1.368  37.509  14.290
 8996W        W81421  37.566  24.105  11.591
 8997W        W81422  17.781  19.727  11.940
 8998W        W81423  31.504  18.553   3.268
 8999W        W81424  41.969  10.158   5.234
 9000W        W81425  37.572  28.074  12.042
 9001W        W81426  11.157  40.035  13.532
 9002W        W81427  12.127   2.426   1.222
 9003W        W81428   4.430   2.720   2.720
 9004W        W81429  31.021  31.598  14.313
 9005W        W81430  18.626  25.688   2.334
 9006W        W81431  11.754  16.773  13.000
 9007W        W81432  36.091  41.379   4.194
 9008W        W81433  13.175  29.104   3.297
 9009W        W81434  31.000  10.348   2.748
 9010W        W81435   5.231  26.129  14.358
 9011W        W81436   9.392  23.682   0.918
 9012W        W81437  14.127  16.683   0.428
 9013W        W81438  15.752   9.306   2.301
 9014W        W81439  22.166  23.199   2.333
 9015W        W81440  25.690  16.251  13.915
 9016W        W81441   1.389  21.534   4.140
 9017W        W81442  39.549  42.946   4.236
 9018W        W81443  42.811  38.986   2.868
 9019W        W81444   1.850   3.890   2.726
 9020W        W81445  20.251  11.175   2.727
 9021W        W81446   7.258   6.189   0.402
 9022W        W81447  14.677   8.710   5.088
 9023W        W81448   2.791   5.338  13.342
 9024W        W81449  37.960  12.763   4.328
 9025W        W81450  20.067  21.070  10.519
 9026W        W81451  42.323  35.873   1.417
 9027W        W81452  11.854   3.743   0.827
 9028W        W81453  16.253   9.879  10.976
 9029W        W81454  34.097   0.329   0.804
 9030W        W81455  39.908  27.680  12.399
 9031W        W81456  32.433  22.606   0.875
 9032W        W81457  30.094  37.947   4.643
 9033W        W81458  37.065   0.835   1.792
 9034W        W81459  21.126  38.036   4.161
 9035W        W81460   2.234  25.113   3.176
 9036W        W81461  21.244  12.186   3.326
 9037W        W81462   7.233  27.453  11.099
 9038W        W81463  25.527  44.975  11.612
 9039W        W81464  35.580   0.964   1.309
 9040W        W81465  27.606  22.690   0.280
 9041W        W81466  28.008  43.306  14.911
 9042W        W81467   5.885  32.572  13.439
 9043W        W81468  32.415  12.350  12.441
 9044W        W81469  17.261   2.949   0.333
 9045W        W81470   1.466  15.292  13.809
 9046W        W81471   9.176  20.584  13.945
 9047W        W81472  24.109  22.648  10.976
 9048W        W81473   3.366  21.730   3.216
 9049W        W81474  37.059   7.716  14.945
 9050W        W81475  19.609   0.396   4.146
 9051W        W81476  11.157  22.249  10.570
 9052W        W81477  26.573   6.726   3.210
 9053W        W81478  21.548   6.737  12.549
 9054W        W81479  31.476  21.715   2.208
 9055W        W81480  14.324  36.892   4.249
 9056W        W81481  32.422  32.054  14.349
 9057W        W81482  41.992  33.413  14.993
 9058W        W81483  23.695  35.545   3.823
 9059W        W81484  33.601  30.591   4.793
 9060W        W81485  35.090   8.178  13.364
 9061W        W81486  16.252  17.777   2.296
 9062W        W81487  18.241  36.043   4.236
 9063W        W81488  25.989   6.380   4.291
 9064W        W81489  21.526  41.516   2.205
 9065W        W81490  26.677  24.121  10.894
 9066W        W81491  12.256  23.610   2.847
 9067W        W81492  42.858  12.203   0.307
 9068W        W81493  21.202  35.448   0.334
 9069W        W81494   4.730  24.992   3.218
 9070W        W81495  23.143  44.440   3.774
 9071W        W81496  39.385  30.601  11.079
 9072W        W81497  24.046   5.891  11.480
 9073W        W81498  18.237  28.001  14.330
 9074W        W81499  37.880  42.975   4.827
 9075W        W81500  23.607   9.799  11.000
 9076W        W81501  35.002  13.135   5.143
 9077W        W81502  33.971  24.482  13.893
 9078W        W81503  42.940   4.776   0.307
 9079W        W81504   5.215   9.758  11.032
 9080W        W81505  42.456  37.534   4.145
 9081W        W81506   9.655  16.591   1.741
 9082W        W81507  27.976  10.721  11.466
 9083W        W81508   0.460  43.377  13.913
 9084W        W81509   8.334  15.260  14.798
 9085W        W81510  18.682  24.705  10.888
 9086W        W81511  29.931  18.652   5.102
 9087W        W81512  21.108  34.871  10.614
 9088W        W81513  21.043  17.169  12.953
 9089W        W81514   7.802  15.707   1.702
 9090W        W81515  29.014  43.309   4.297
 9091W        W81516  20.582  24.106   4.270
 9092W        W81517  36.369  39.008   0.957
 9093W        W81518  13.157  26.115  12.424
 9094W        W81519  35.985  10.342   4.155
 9095W        W81520  18.176  37.557  11.054
 9096W        W81521  15.668  19.703  12.889
 9097W        W81522  24.022  32.980   3.170
 9098W        W81523  12.176  32.930   3.198
 9099W        W81524  26.490  42.434  13.419
 9100W        W81525  41.823   7.896  12.448
 9101W        W81526  14.635  22.196  11.468
 9102W        W81527  19.677  15.607   1.829
 9103W        W81528   2.248  24.034   3.777
 9104W        W81529   2.471  39.368  14.842
 9105W        W81530  33.033  29.429  11.423
 9106W        W81531   1.859   7.706   4.802
 9107W        W81532  25.037  27.112   2.308
 9108W        W81533  44.003  29.130  12.847
 9109W        W81534  35.382  42.826   0.256
 9110W        W81535   7.688  34.054   2.720
 9111W        W81536  22.660  33.592  11.993
 9112W        W81537  24.121  14.614  12.429
 9113W        W81538   7.751   0.925  11.491
 9114W        W81539   5.367  19.599  12.002
 9115W        W81540  19.604  17.568  12.984
 9116W        W81541  25.712  36.867   1.734
 9117W        W81542   0.494  30.110  14.476
 9118W        W81543   8.363  36.381  11.504
 9119W        W81544  31.010   2.750  13.436
 9120W        W81545  15.301   4.822  10.498
 9121W        W81546  31.102   5.753   2.195
 9122W        W81547  21.622   3.238   4.795
 9123W        W81548  44.389   4.369   2.206
 9124W        W81549  32.519   4.896   2.259
 9125W        W81550   4.363   2.282  12.529
 9126W        W81551  33.099  10.337   0.318
 9127W        W81552   1.868  40.548  14.904
 9128W        W81553  27.648   8.353  12.494
 9129W        W81554  42.890  18.148  14.786
 9130W        W81555  18.141  43.446   0.923
 9131W        W81556   7.406  34.873   3.379
 9132W        W81557  13.105  11.665  14.021
 9133W        W81558  26.568  39.460   0.484
 9134W        W81559  16.595  16.158   3.305
 9135W        W81560  43.493   7.774  12.449
 9136W        W81561   2.347  10.702  11.069
 9137W        W81562  11.678  22.639   5.198
 9138W        W81563  22.509   0.409  14.785
 9139W        W81564  36.382  37.087   1.880
 9140W        W81565  11.625  13.200   4.680
 9141W        W81566  29.974  26.165  12.555
 9142W        W81567  13.696  43.904   1.275
 9143W        W81568   5.791  33.124   4.117
 9144W        W81569   0.313   6.357   3.852
 9145W        W81570   4.320  35.999   0.436
 9146W        W81571  26.095  14.127   4.297
 9147W        W81572   4.324   8.223   2.399
 9148W        W81573   5.915  22.239   3.230
 9149W        W81574  16.244   4.389   0.433
 9150W        W81575  23.120  43.276  13.456
 9151W        W81576  30.956  40.425  12.090
 9152W        W81577  14.258   4.907   0.752
 9153W        W81578   5.425  29.097   4.728
 9154W        W81579  16.765  15.308   1.376
 9155W        W81580   1.922  33.046   1.699
 9156W        W81581  25.643   4.389  13.462
 9157W        W81582  18.074   1.775   3.330
 9158W        W81583  38.843  42.513  10.901
 9159W        W81584  43.373  32.613   2.305
 9160W        W81585  42.005   0.483  11.454
 9161W        W81586  12.262  34.906  12.049
 9162W        W81587   0.256  43.777   1.251
 9163W        W81588  17.746  31.012   4.803
 9164W        W81589  44.756  10.280  10.406
 9165W        W81590  25.177  25.594   4.219
 9166W        W81591  22.635   2.735  12.045
 9167W        W81592   1.897  38.935  14.836
 9168W        W81593  29.654  42.858   3.292
 9169W        W81594  37.545  31.008  10.593
 9170W        W81595  24.528  10.289   4.257
 9171W        W81596   9.395  21.599  13.389
 9172W        W81597   2.389   8.833   1.450
 9173W        W81598  38.478  20.566   0.791
 9174W        W81599  27.030  28.449   1.880
 9175W        W81600   1.779  17.233   2.871
 9176W        W81601  32.459   6.775   4.264
 9177W        W81602  26.179   2.943   2.875
 9178W        W81603  13.840   2.233   0.365
 9179W        W81604  28.136  13.172  10.542
 9180W        W81605  29.473  39.893   0.809
 9181W        W81606  14.105  21.087   2.254
 9182W        W81607  20.034  13.166  10.505
 9183W        W81608  15.231  30.998  10.978
 9184W        W81609  36.446  27.105   1.302
 9185W        W81610  14.231  32.124  11.961
 9186W        W81611  27.991  24.087  12.097
 9187W        W81612   5.406  41.948   2.842
 9188W        W81613  31.420   9.739  10.583
 9189W        W81614  31.448  41.522  13.927
 9190W        W81615  43.304  14.664   3.792
 9191W        W81616  19.279  38.846   4.773
 9192W        W81617  14.710  38.034   3.849
 9193W        W81618  37.965  12.709  12.485
 9194W        W81619  21.067   8.712  14.347
 9195W        W81620  18.152  27.513  14.362
 9196W        W81621  15.690  37.038  13.461
 9197W        W81622  18.107  17.212  10.420
 9198W        W81623   8.835  22.610  12.069
 9199W        W81624   3.832  18.647   0.449
 9200W        W81625  23.206  32.925  12.080
 9201W        W81626  29.991  28.111  12.388
 9202W        W81627  27.138  39.416  11.487
 9203W        W81628  32.142  26.112   0.371
 9204W        W81629  43.830  31.098  13.981
 9205W        W81630  11.253  16.724   3.237
 9206W        W81631  13.328   0.372  11.400
 9207W        W81632  29.009  25.552  12.045
 9208W        W81633   2.855  22.546  14.366
 9209W        W81634   4.896  37.025   0.268
 9210W        W81635   9.692  15.667  14.373
 9211W        W81636  37.869   9.278   2.226
 9212W        W81637   0.964  10.802  12.514
 9213W        W81638  27.663  25.966   2.724
 9214W        W81639  24.497   5.343   1.710
 9215W        W81640  43.497  19.759   2.197
 9216W        W81641  22.233  25.559   1.420
 9217W        W81642   7.380   0.391  14.380
 9218W        W81643  15.619  31.606   4.616
 9219W        W81644  37.547   5.295   3.737
 9220W        W81645  39.469  25.679  10.461
 9221W        W81646  18.738  11.288  13.929
 9222W        W81647  14.682  14.672  12.902
 9223W        W81648  39.002  22.182   3.373
 9224W        W81649  37.939  41.340   3.329
 9225W        W81650  40.830   4.744  12.061
 9226W        W81651  15.233  28.935  12.948
 9227W        W81652  20.054  14.716  14.401
 9228W        W81653   7.789  10.750   1.292
 9229W        W81654  21.657   2.240   1.706
 9230W        W81655  35.443  21.568   2.780
 9231W        W81656  22.090  10.291   2.296
 9232W        W81657  35.388  39.813  11.955
 9233W        W81658   1.427  15.667   0.279
 9234W        W81659   1.248  27.480  14.278
 9235W        W81660  32.028  14.829  13.390
 9236W        W81661  19.245  14.704  13.956
 9237W        W81662  22.678  37.491   0.254
 9238W        W81663   4.795  33.051  14.491
 9239W        W81664  12.691  23.589   1.219
 9240W        W81665   6.768  16.121   3.709
 9241W        W81666  23.137   0.820  11.883
 9242W        W81667   6.191  44.807  13.907
 9243W        W81668   6.824  23.233  12.509
 9244W        W81669  19.632  27.961  14.312
 9245W        W81670  25.058  36.071  10.616
 9246W        W81671  24.542  42.008   4.333
 9247W        W81672  35.409  24.990   9.619
 9248W        W81673  14.619   1.913  11.053
 9249W        W81674  38.427  14.786  13.383
 9250W        W81675  34.924   5.252   4.206
 9251W        W81676   0.853   0.830   2.305
 9252W        W81677  42.523  35.393  12.852
 9253W        W81678   9.204   6.269   3.233
 9254W        W81679   8.394  29.492  11.016
 9255W        W81680  23.174  21.017  14.773
 9256W        W81681  25.019   2.820   3.311
 9257W        W81682   5.739  25.503  11.436
 9258W        W81683  10.240  40.927   2.414
 9259W        W81684  41.846   2.431   4.144
 9260W        W81685  39.454  33.939   3.718
 9261W        W81686   4.317  29.102  13.523
 9262W        W81687   7.848  38.983  11.069
 9263W        W81688   1.441   4.231   3.823
 9264W        W81689  34.501  16.682  13.037
 9265W        W81690  27.069  25.112  11.426
 9266W        W81691  30.014  13.253  14.388
 9267W        W81692  28.643   6.823  14.511
 9268W        W81693  33.006   1.372  13.362
 9269W        W81694  40.525   4.210  11.388
 9270W        W81695  38.041  24.553   2.706
 9271W        W81696  39.469   0.390   1.779
 9272W        W81697   8.659   6.838  10.138
 9273W        W81698   0.416   9.757   1.832
 9274W        W81699   4.803   6.288   0.294
 9275W        W81700  18.237  31.570  11.540
 9276W        W81701  42.391  15.611   1.746
 9277W        W81702  41.014  29.012  11.521
 9278W        W81703  11.278  32.140   4.668
 9279W        W81704  26.075   2.952   4.769
 9280W        W81705  19.234  39.451  11.533
 9281W        W81706  20.627   9.846  14.427
 9282W        W81707   4.422  43.512  12.977
 9283W        W81708  32.078  25.560   1.879
 9284W        W81709  32.465  33.069  13.865
 9285W        W81710  28.449  30.023   2.868
 9286W        W81711  22.050  21.131  13.544
 9287W        W81712  15.304  15.263  10.974
 9288W        W81713   4.438  28.643  11.518
 9289W        W81714  16.651   8.171  11.612
 9290W        W81715  40.845   2.385   4.270
 9291W        W81716  15.179  16.142  12.958
 9292W        W81717  20.106  29.633  10.506
 9293W        W81718   6.419  27.191   2.415
 9294W        W81719   5.437  21.556  13.481
 9295W        W81720  17.777  27.671  12.823
 9296W        W81721  14.280  10.781  12.427
 9297W        W81722  21.225  43.370   1.419
 9298W        W81723  39.409  22.668  12.913
 9299W        W81724  20.611  10.752  12.095
 9300W        W81725   0.263   2.380   3.208
 9301W        W81726  32.457  44.874   4.719
 9302W        W81727  13.636  33.490  10.958
 9303W        W81728  35.915  13.786  12.063
 9304W        W81729  41.000  39.008  11.010
 9305W        W81730  11.127  25.978  12.865
 9306W        W81731  38.921  27.047  10.532
 9307W        W81732  34.937  15.636  11.042
 9308W        W81733  26.972  36.006  14.366
 9309W        W81734  13.256  35.417   2.818
 9310W        W81735   0.295  14.123   4.739
 9311W        W81736  15.289  18.676  12.928
 9312W        W81737  23.164   4.327  10.585
 9313W        W81738   1.417  35.070  13.961
 9314W        W81739  25.139  44.266   4.598
 9315W        W81740  40.951  13.328   1.273
 9316W        W81741   2.382  22.714  13.952
 9317W        W81742   6.787  13.231  12.094
 9318W        W81743  26.037  36.890   4.757
 9319W        W81744  44.759  38.566   1.785
 9320W        W81745  26.043  19.129   3.867
 9321W        W81746  43.925  33.429   1.854
 9322W        W81747  17.585  28.133   3.188
 9323W        W81748  27.192  26.701  13.858
 9324W        W81749  36.007  37.461   3.311
 9325W        W81750  34.375  43.820  13.962
 9326W        W81751  33.083   2.394  10.604
 9327W        W81752   4.357  38.045   3.309
 9328W        W81753   1.868   1.893  12.389
 9329W        W81754   6.867  20.044  10.423
 9330W        W81755  21.139  19.245  11.085
 9331W        W81756   8.873  18.548   5.185
 9332W        W81757   7.382  40.809   3.850
 9333W        W81758  36.857  21.151  12.063
 9334W        W81759   0.337  14.215   1.268
 9335W        W81760   1.312  16.197   0.386
 9336W        W81761  21.161  42.818  13.380
 9337W        W81762  15.160  32.523   3.695
 9338W        W81763  12.615  27.690   3.220
 9339W        W81764  29.043   9.210   2.762
 9340W        W81765  41.449  37.381   0.852
 9341W        W81766  44.986  27.965   4.833
 9342W        W81767  38.396  25.195   3.806
 9343W        W81768  35.453  36.082  14.985
 9344W        W81769  43.999  17.256   3.783
 9345W        W81770  11.219   8.310  14.410
 9346W        W81771  28.115  17.784  13.904
 9347W        W81772  27.561  34.056   4.271
 9348W        W81773   1.249  41.835   1.322
 9349W        W81774  39.437  15.579   4.679
 9350W        W81775  11.847  16.810   2.736
 9351W        W81776  38.868  17.096  14.812
 9352W        W81777  24.622   8.664   9.677
 9353W        W81778   2.877   3.880   3.703
 9354W        W81779  20.674  34.496   1.383
 9355W        W81780  31.632  24.988   3.865
 9356W        W81781  18.558  22.657   1.287
 9357W        W81782  10.305  12.290   3.204
 9358W        W81783   3.931  41.385   1.902
 9359W        W81784  27.946   5.405  13.504
 9360W        W81785  38.930  23.676   4.154
 9361W        W81786  39.343  40.932  10.480
 9362W        W81787   6.241   4.252   0.451
 9363W        W81788  24.089  23.092   4.616
 9364W        W81789  16.164   9.350  11.109
 9365W        W81790   8.312   0.277   1.865
 9366W        W81791  13.662  34.961   0.917
 9367W        W81792  42.314  38.004  12.874
 9368W        W81793  43.900  34.580   1.313
 9369W        W81794  11.241  26.979   2.287
 9370W        W81795  11.287  13.727  11.424
 9371W        W81796  36.890  17.789   1.380
 9372W        W81797  28.093  11.371  14.494
 9373W        W81798  29.933  44.491  11.978
 9374W        W81799  14.611  26.111  12.571
 9375W        W81800  19.213  20.042   0.945
 9376W        W81801   7.326  11.168   4.794
 9377W        W81802   7.817  37.452   0.924
 9378W        W81803  13.809   8.246  13.447
 9379W        W81804  19.541  12.821  13.882
 9380W        W81805  12.341  34.930   2.399
 9381W        W81806  21.038  31.641  14.005
 9382W        W81807  31.974  15.598   0.807
 9383W        W81808   7.188  26.060   1.340
 9384W        W81809  27.528  33.099   5.091
 9385W        W81810  17.755  29.116   3.276
 9386W        W81811  42.431   3.380   1.876
 9387W        W81812  15.592  38.564  10.509
 9388W        W81813  11.819  13.111  10.420
 9389W        W81814   2.758   7.669   0.955
 9390W        W81815   0.428  28.997  11.548
 9391W        W81816  33.079   0.473   4.641
 9392W        W81817   4.897  34.878   1.349
 9393W        W81818  10.297  14.787   1.245
 9394W        W81819  38.510  25.146   4.820
 9395W        W81820  41.382  44.451  10.949
 9396W        W81821  33.079  27.573   3.855
 9397W        W81822   7.339  25.549  13.795
 9398W        W81823   9.883  12.272  13.009
 9399W        W81824  14.243   0.970  11.487
 9400W        W81825  41.926  33.462   5.148
 9401W        W81826  31.540  36.034  14.764
 9402W        W81827  19.607  35.577   4.296
 9403W        W81828   5.373  41.379   3.833
 9404W        W81829   9.377  31.992   4.818
 9405W        W81830  25.574   3.279  10.583
 9406W        W81831  30.577  44.293  10.887
 9407W        W81832  39.516  33.923  10.945
 9408W        W81833  25.006  39.439   1.844
 9409W        W81834  26.109  12.751  13.044
 9410W        W81835  41.894  25.014   0.390
 9411W        W81836  36.955   2.426   3.284
 9412W        W81837   2.872  28.544  13.508
 9413W        W81838  23.199  44.301  12.063
 9414W        W81839  15.772   6.767   1.311
 9415W        W81840  43.306   2.257  13.843
 9416W        W81841  20.629  26.028   2.670
 9417W        W81842  18.657  24.184   4.262
 9418W        W81843   4.851  34.905  11.865
 9419W        W81844  29.026  29.960   1.715
 9420W        W81845   7.264   5.311  10.981
 9421W        W81846  37.436  24.581   1.934
 9422W        W81847  29.005   4.938  11.490
 9423W        W81848  19.104  34.024   2.250
 9424W        W81849  38.540  24.589   5.108
 9425W        W81850  32.058   0.819   2.342
 9426W        W81851  22.175   8.785   1.925
 9427W        W81852  33.610  41.800   2.769
 9428W        W81853   5.762  42.384   0.300
 9429W        W81854  11.360  17.605  11.527
 9430W        W81855   4.790  44.468   2.187
 9431W        W81856  13.744  15.264   2.700
 9432W        W81857  38.437  42.342  13.855
 9433W        W81858  17.633   6.833   3.151
 9434W        W81859  16.094   7.394   2.874
 9435W        W81860  34.065  27.956   4.176
 9436W        W81861  20.566  16.574   1.406
 9437W        W81862  33.090  31.481  14.869
 9438W        W81863  18.680  38.918  12.564
 9439W        W81864  41.853  39.524   4.629
 9440W        W81865  28.660  28.486   2.767
 9441W        W81866   4.903  34.052   4.643
 9442W        W81867  16.594  44.275   1.433
 9443W        W81868  36.084  13.661  10.931
 9444W        W81869  42.459  32.515  14.765
 9445W        W81870  44.827   7.806  13.811
 9446W        W81871  36.923  23.503  11.079
 9447W        W81872  19.273  40.447   0.800
 9448W        W81873  35.968  24.494  13.343
 9449W        W81874  24.629   0.304   3.694
 9450W        W81875  27.073  32.092  12.027
 9451W        W81876   9.727   9.719   3.337
 9452W        W81877  36.564  14.139   1.849
 9453W        W81878  27.522   2.244  13.445
 9454W        W81879  11.864  11.829  10.930
 9455W        W81880  40.364   3.933   4.680
 9456W        W81881  42.451   0.404  14.348
 9457W        W81882  29.538   1.973   3.691
 9458W        W81883  12.750  18.789   0.273
 9459W        W81884  23.581  34.032  14.834
 9460W        W81885  30.000   3.431  11.863
 9461W        W81886  35.443  18.771   0.283
 9462W        W81887  42.871   5.327   1.851
 9463W        W81888   2.294   6.245   3.833
 9464W        W81889   4.874  39.977   1.279
 9465W        W81890  10.807  12.677  10.536
 9466W        W81891   3.713  37.444  13.419
 9467W        W81892   9.773   8.391   1.268
 9468W        W81893   1.956  24.017  10.919
 9469W        W81894  18.104   1.856   1.381
 9470W        W81895  36.097  44.295  12.955
 9471W        W81896   2.860  42.995  13.822
 9472W        W81897  37.917  31.070   1.352
 9473W        W81898  18.231  34.897   3.304
 9474W        W81899  32.129  19.562  12.350
 9475W        W81900  21.123  36.019   2.868
 9476W        W81901   3.927  22.721  14.482
 9477W        W81902  12.336  21.553   4.144
 9478W        W81903   9.736   4.738   4.232
 9479W        W81904  43.785  34.003  14.893
 9480W        W81905  28.507  40.455   2.866
 9481W        W81906   2.360  19.148  12.069
 9482W        W81907  36.462  17.220  12.532
 9483W        W81908  11.346  35.050  14.900
 9484W        W81909  10.368  18.594  13.949
 9485W        W81910  31.111  21.752  12.514
 9486W        W81911  42.475  39.057   1.907
 9487W        W81912   6.918  34.931   2.222
 9488W        W81913   3.381  24.706  12.547
 9489W        W81914   9.178  39.329   0.396
 9490W        W81915  12.277  10.365  13.004
 9491W        W81916   4.347  17.173   1.377
 9492W        W81917  14.307  16.759  13.469
 9493W        W81918  38.399  13.772   4.598
 9494W        W81919  16.698  38.488  13.359
 9495W        W81920  26.541  25.573  14.905
 9496W        W81921  13.845  40.409   3.266
 9497W        W81922  18.237  17.656  10.578
 9498W        W81923   8.392  11.268  11.600
 9499W        W81924  21.187  43.808  12.874
 9500W        W81925  22.645  13.283   1.260
 9501W        W81926  23.018   4.240   4.684
 9502W        W81927  42.921  43.018   5.234
 9503W        W81928   3.730   3.401   2.210
 9504W        W81929  23.710  14.746   1.382
 9505W        W81930  10.382   6.212  11.415
 9506W        W81931  22.599  27.631  10.477
 9507W        W81932  10.795  23.199   3.651
 9508W        W81933  17.237  43.945   1.810
 9509W        W81934   3.938  37.441   4.658
 9510W        W81935  31.491  43.876   2.233
 9511W        W81936   7.267  35.564   1.288
 9512W        W81937  26.974  29.103   1.288
 9513W        W81938  44.776  21.551  13.403
 9514W        W81939  11.638  37.887   3.206
 9515W        W81940  11.307  22.731   2.850
 9516W        W81941   3.924  27.559   0.854
 9517W        W81942  26.525  42.440   2.300
 9518W        W81943   1.970  16.175   1.238
 9519W        W81944  44.295  21.211   5.203
 9520W        W81945  20.584   2.312  10.630
 9521W        W81946  20.696  27.530   0.764
 9522W        W81947  34.389  36.430   4.711
 9523W        W81948  24.604  18.287  10.639
 9524W        W81949  16.672  22.117   4.243
 9525W        W81950  14.756  12.121  12.033
 9526W        W81951  37.952  39.915   0.404
 9527W        W81952  14.117  38.497  10.436
 9528W        W81953  32.072  37.361  13.342
 9529W        W81954  24.974   8.229   3.385
 9530W        W81955  28.655  28.596   1.391
 9531W        W81956  36.568  16.207  12.065
 9532W        W81957  20.638  32.901  10.892
 9533W        W81958  35.363   6.734  11.552
 9534W        W81959  33.903  42.398   3.372
 9535W        W81960  11.317  18.788  13.399
 9536W        W81961   4.883  12.123  10.903
 9537W        W81962  39.869  14.712  13.384
 9538W        W81963  35.428  13.844  11.076
 9539W        W81964  33.460  19.064   4.713
 9540W        W81965  32.520  40.942   1.413
 9541W        W81966  21.228  43.897   1.291
 9542W        W81967   8.735  34.864   0.965
 9543W        W81968  25.178   2.444   0.917
 9544W        W81969  11.719  26.687  10.925
 9545W        W81970  29.599  32.080   2.777
 9546W        W81971  30.073  22.629  11.928
 9547W        W81972  36.978  34.459  13.901
 9548W        W81973  32.978  18.184   5.803
 9549W        W81974  31.103  36.453   2.833
 9550W        W81975  29.594  27.945   3.279
 9551W        W81976  13.664   5.200  11.012
 9552W        W81977  40.361  21.189   3.208
 9553W        W81978  13.757  39.039  10.511
 9554W        W81979  22.747  37.456  12.574
 9555W        W81980  20.250   5.397   1.771
 9556W        W81981  20.766  23.120   3.776
 9557W        W81982  33.070  31.014   2.214
 9558W        W81983  23.569  34.464  12.510
 9559W        W81984  36.990  14.812   4.332
 9560W        W81985  40.950  40.525   0.317
 9561W        W81986  36.983   0.342   3.363
 9562W        W81987  42.858  32.441  10.558
 9563W        W81988   2.279  17.210   2.378
 9564W        W81989  24.218   7.799  10.981
 9565W        W81990  28.167  36.896   2.831
 9566W        W81991  34.027  35.587  12.016
 9567W        W81992   9.777  32.917   2.418
 9568W        W81993  29.541   1.370   4.157
 9569W        W81994   1.807  22.656  13.371
 9570W        W81995   1.874  14.761   2.285
 9571W        W81996  33.897   4.425  13.056
 9572W        W81997   2.330  39.376  10.966
 9573W        W81998   1.935  40.017   2.690
 9574W        W81999  13.267  24.014  11.983
 9575W        W82000  24.155   8.376   1.394
 9576W        W82001  39.813  34.561  14.011
 9577W        W82002  30.110  21.050   4.313
 9578W        W82003   6.367  35.089  11.990
 9579W        W82004  41.984  20.100  13.322
 9580W        W82005  30.974  30.062   3.240
 9581W        W82006  14.238  24.103  11.555
 9582W        W82007  22.519   7.384   4.672
 9583W        W82008   9.716  39.028  12.986
 9584W        W82009  38.508  38.911   3.256
 9585W        W82010  13.181  31.419  13.315
 9586W        W82011  24.641  23.985   3.858
 9587W        W82012   2.302  35.584   2.234
 9588W        W82013  40.904  11.175  12.341
 9589W        W82014   9.782  31.519   3.160
 9590W        W82015  30.010  32.927  13.509
 9591W        W82016  29.137  28.024   3.689
 9592W        W82017  31.969  43.325  14.449
 9593W        W82018  12.652  13.655   3.868
 9594W        W82019  43.501  12.185   4.333
 9595W        W82020  33.882  32.616   1.697
 9596W        W82021  38.512  12.156  11.604
 9597W        W82022   5.208  12.294   2.350
 9598W        W82023   2.761  26.955  10.900
 9599W        W82024   6.705  25.100  11.587
 9600W        W82025  36.504  44.836   0.415
 9601W        W82026   7.851   8.657  11.565
 9602W        W82027  36.948   4.763  10.981
 9603W        W82028  37.516  18.185  13.446
 9604W        W82029  27.569  23.536  13.984
 9605W        W82030   1.821  41.414  13.022
 9606W        W82031   2.316   1.402  13.955
 9607W        W82032  33.879  30.998   1.370
 9608W        W82033   4.233  23.580  10.541
 9609W        W82034   2.784  36.094   4.221
 9610W        W82035   3.804  19.646  14.770
 9611W        W82036   5.295   3.805  11.856
 9612W        W82037  34.056  35.992  14.320
 9613W        W82038  29.609  42.469   4.236
 9614W        W82039  25.016  11.627  12.521
 9615W        W82040  30.983  34.583  12.547
 9616W        W82041  31.075  44.945   0.810
 9617W        W82042   6.241  22.650  13.526
 9618W        W82043  10.662  27.110   4.805
 9619W        W82044  36.424  17.179   9.967
 9620W        W82045  15.653  26.592  11.385
 9621W        W82046   8.683  34.089   1.754
 9622W        W82047  30.067  29.151  12.443
 9623W        W82048   3.452  25.106  13.800
 9624W        W82049  42.297  36.893  11.980
 9625W        W82050  44.430  10.285  13.795
 9626W        W82051  14.766   5.238  11.071
 9627W        W82052  28.611  11.625  14.943
 9628W        W82053  21.579  36.550   1.757
 9629W        W82054  40.832  37.059   4.748
 9630W        W82055  26.075  43.503  14.924
 9631W        W82056  32.492  16.146  14.871
 9632W        W82057   8.193   8.300   1.306
 9633W        W82058   7.180  35.388   4.685
 9634W        W82059  11.131   1.280  10.417
 9635W        W82060  39.443  16.651  14.774
 9636W        W82061   8.747  29.166  12.401
 9637W        W82062  33.111  43.962  12.342
 9638W        W82063  30.535   3.941   4.202
 9639W        W82064  25.521  41.461   0.800
 9640W        W82065   4.702   7.233  11.555
 9641W        W82066  32.595  21.625   0.439
 9642W        W82067  44.297  10.803   0.737
 9643W        W82068  20.582  43.275   3.733
 9644W        W82069   4.720  42.956   9.967
 9645W        W82070  31.479   6.767  13.003
 9646W        W82071  41.295  34.934   1.864
 9647W        W82072  40.339   9.730  14.469
 9648W        W82073  17.563  28.050  10.404
 9649W        W82074  35.496  41.303   4.670
 9650W        W82075  36.886  29.133  13.792
 9651W        W82076  22.167   4.277   3.685
 9652W        W82077   5.290  26.536   2.357
 9653W        W82078   4.762  37.361  12.439
 9654W        W82079  20.054  22.066   4.302
 9655W        W82080  22.669   1.802   2.317
 9656W        W82081  37.485   6.383  13.502
 9657W        W82082  10.197  33.431   2.280
 9658W        W82083  10.147  15.812  10.925
 9659W        W82084   4.437  41.409   2.292
 9660W        W82085  24.187  32.500   3.788
 9661W        W82086   4.815  30.527   1.779
 9662W        W82087  26.023   6.343   0.283
 9663W        W82088   0.966  42.291   3.293
 9664W        W82089   4.354   4.720  14.783
 9665W        W82090  38.975  26.468  12.851
 9666W        W82091  38.540  41.039   4.175
 9667W        W82092  40.521  34.554  13.539
 9668W        W82093  19.611  42.398   0.443
 9669W        W82094  32.456  15.612  13.036
 9670W        W82095   7.326   3.813  12.931
 9671W        W82096  11.777  41.521  12.372
 9672W        W82097  42.868   1.390  13.940
 9673W        W82098  44.291   9.721  12.462
 9674W        W82099  15.183  15.121   1.320
 9675W        W82100  22.692   9.823  12.959
 9676W        W82101  30.144  40.517  14.285
 9677W        W82102  31.000  20.074  10.439
 9678W        W82103  41.912  17.633  10.575
 9679W        W82104  33.960  29.664  12.972
 9680W        W82105   0.854  24.642  10.570
 9681W        W82106  20.749  37.993   0.281
 9682W        W82107   5.927  19.122  14.787
 9683W        W82108  26.520  28.511   2.734
 9684W        W82109  17.635  30.566   2.781
 9685W        W82110  39.462  12.304  14.825
 9686W        W82111  30.976  24.080   1.820
 9687W        W82112  44.431  11.688  10.570
 9688W        W82113  20.653  44.289   3.831
 9689W        W82114  19.262  33.908  13.332
 9690W        W82115  38.936  11.640   5.119
 9691W        W82116  34.377   2.922  10.514
 9692W        W82117  36.983  11.224  12.993
 9693W        W82118  41.439  39.929  12.965
 9694W        W82119  32.539  34.042  11.905
 9695W        W82120  38.558  32.076   0.832
 9696W        W82121  30.942  23.624   0.925
 9697W        W82122  37.001  42.465   3.820
 9698W        W82123  18.235  37.571  10.436
 9699W        W82124  26.005   4.308   3.363
 9700W        W82125  33.918   8.296   1.739
 9701W        W82126  30.041  16.783  11.565
 9702W        W82127  16.620  17.706  13.949
 9703W        W82128  40.462   1.746   0.857
 9704W        W82129  41.450  16.707   0.457
 9705W        W82130  33.044   6.372   3.373
 9706W        W82131  42.803  14.750  11.968
 9707W        W82132  22.050  40.038   3.259
 9708W        W82133  31.077  23.115  14.404
 9709W        W82134   4.422  19.131   2.803
 9710W        W82135   8.881  15.241  11.488
 9711W        W82136   4.263  37.565   0.734
 9712W        W82137  19.679  32.478   5.181
 9713W        W82138   3.366   7.726   2.386
 9714W        W82139  20.229   5.301   2.718
 9715W        W82140   8.758   6.188  13.375
 9716W        W82141  40.983  24.600   4.279
 9717W        W82142  12.324  35.862  13.019
 9718W        W82143  34.919  23.158  13.809
 9719W        W82144  28.955   0.855  11.388
 9720W        W82145  17.629  43.790  10.533
 9721W        W82146  12.728  24.202  13.841
 9722W        W82147   5.235   2.800   4.812
 9723W        W82148   4.775  26.136   0.963
 9724W        W82149  23.722  34.469   3.847
 9725W        W82150  10.243  11.243  11.952
 9726W        W82151  31.909  36.498  13.544
 9727W        W82152   0.801  40.978  14.807
 9728W        W82153  23.553  11.259  10.504
 9729W        W82154   9.315  11.358  14.306
 9730W        W82155   8.836  31.568   3.223
 9731W        W82156   9.716  28.655   4.768
 9732W        W82157  19.106  11.346  11.984
 9733W        W82158   9.360  38.030   9.930
 9734W        W82159  32.624  36.867   0.957
 9735W        W82160   6.297  23.092   3.685
 9736W        W82161  10.215   2.930   2.848
 9737W        W82162  13.319  13.724  14.946
 9738W        W82163   6.730  13.772  13.358
 9739W        W82164  11.230   1.349   0.918
 9740W        W82165   3.902  41.296  11.416
 9741W        W82166  42.390  31.003   0.314
 9742W        W82167  42.876   9.205   4.717
 9743W        W82168   2.298  32.067  13.511
 9744W        W82169  33.492  12.633  12.374
 9745W        W82170  33.991  12.817  13.927
 9746W        W82171  36.480  37.012  13.417
 9747W        W82172   5.929  26.966  12.520
 9748W        W82173  37.376  20.099   2.204
 9749W        W82174  10.306  44.265   3.202
 9750W        W82175  35.978  23.232   0.736
 9751W        W82176  21.025  11.755  14.496
 9752W        W82177   2.920  19.060  13.801
 9753W        W82178  12.701  23.002   4.341
 9754W        W82179   9.320  40.508  13.000
 9755W        W82180  12.362  25.039  11.061
 9756W        W82181  42.017  22.582   3.814
 9757W        W82182  12.211  41.493   1.742
 9758W        W82183  20.177  31.645   3.214
 9759W        W82184  17.075  29.652   5.260
 9760W        W82185  12.720  20.577  12.434
 9761W        W82186  37.572  32.481  10.497
 9762W        W82187  12.654  43.782  12.845
 9763W        W82188  33.452  10.832  13.327
 9764W        W82189  11.176  25.172  12.348
 9765W        W82190  44.311  41.865  10.951
 9766W        W82191  35.445  29.472   0.819
 9767W        W82192  33.050  36.878  11.124
 9768W        W82193  30.494   2.464  12.015
 9769W        W82194  30.964  28.491   0.744
 9770W        W82195  10.192  16.265   4.304
 9771W        W82196  14.099  35.456  12.051
 9772W        W82197  10.709  34.588   1.906
 9773W        W82198   1.383   4.916   1.410
 9774W        W82199  12.843   0.404   4.709
 9775W        W82200  12.333  32.949   0.788
 9776W        W82201  34.527  19.055  10.930
 9777W        W82202  39.972   1.736   4.270
 9778W        W82203  29.454  30.440   1.225
 9779W        W82204  41.435  43.861  11.118
 9780W        W82205  35.499   2.280   0.902
 9781W        W82206  24.606  29.601   3.831
 9782W        W82207  24.490  30.500  12.001
 9783W        W82208  43.768  13.787  10.910
 9784W        W82209   2.878  23.020  12.093
 9785W        W82210  14.692  33.969   0.329
 9786W        W82211  36.996  44.829  14.874
 9787W        W82212  26.692  42.808   2.313
 9788W        W82213  36.428   1.273  12.451
 9789W        W82214  30.606  24.083   2.837
 9790W        W82215  36.022   5.398  13.867
 9791W        W82216  40.844  39.873   4.238
 9792W        W82217  44.354  22.686   4.242
 9793W        W82218  32.058  28.052   0.767
 9794W        W82219  38.836  12.243   4.204
 9795W        W82220  24.209  20.038   0.346
 9796W        W82221   0.831   5.422  10.493
 9797W        W82222  18.260  18.099  14.963
 9798W        W82223  18.784  22.588  11.928
 9799W        W82224  25.491   5.420   0.459
 9800W        W82225  33.126  20.757   4.314
 9801W        W82226  43.446  26.982   3.671
 9802W        W82227  26.667   0.482   9.946
 9803W        W82228   6.267   5.198   2.235
 9804W        W82229  20.063   3.939   0.252
 9805W        W82230  44.937  30.561   3.677
 9806W        W82231  18.724  44.941   5.114
 9807W        W82232  23.583  11.804  12.971
 9808W        W82233  22.519  26.676  11.938
 9809W        W82234  27.495  12.250  14.818
 9810W        W82235  12.646  25.199  14.454
 9811W        W82236  28.160  15.664  13.492
 9812W        W82237  23.120  10.383   2.285
 9813W        W82238  12.201  21.047   2.762
 9814W        W82239   2.435   9.295   2.837
 9815W        W82240  44.349  23.668   0.307
 9816W        W82241  21.724   3.888  10.435
 9817W        W82242  12.684  20.712  14.791
 9818W        W82243  11.335  17.175   4.237
 9819W        W82244  41.955  14.678  10.892
 9820W        W82245   3.913  24.481  14.992
 9821W        W82246  12.117  23.051   4.273
 9822W        W82247  28.150  27.571   1.829
 9823W        W82248   2.420  19.569   2.884
 9824W        W82249  38.042   1.379  11.384
 9825W        W82250  15.595  42.977  10.611
 9826W        W82251  13.267  38.417  11.510
 9827W        W82252  10.653  22.693  11.032
 9828W        W82253  43.385  34.912   1.908
 9829W        W82254  35.088  16.289   1.410
 9830W        W82255  27.099  35.892  11.564
 9831W        W82256  22.726   2.412  10.625
 9832W        W82257  39.521   9.284   1.918
 9833W        W82258  35.044  25.672  11.559
 9834W        W82259   7.808  39.968  10.451
 9835W        W82260  12.282  25.178  11.444
 9836W        W82261   5.428  43.891   3.176
 9837W        W82262   3.363  13.838  10.906
 9838W        W82263  32.978  13.741  14.769
 9839W        W82264   1.382  25.490  12.918
 9840W        W82265   3.239  29.521  10.464
 9841W        W82266  13.179  34.034   2.236
 9842W        W82267  29.570  29.668   1.392
 9843W        W82268  43.481  18.237   2.341
 9844W        W82269   0.843   6.377  10.449
 9845W        W82270  42.840   5.739  13.001
 9846W        W82271  14.118  29.537   2.399
 9847W        W82272  41.391   2.413   2.767
 9848W        W82273  19.719   7.186   2.306
 9849W        W82274  27.472  36.539   1.786
 9850W        W82275  31.005  23.047  12.993
 9851W        W82276  21.213  18.592   1.705
 9852W        W82277  17.569   0.390  14.438
 9853W        W82278  16.226  20.616  11.567
 9854W        W82279  23.208  14.211  14.838
 9855W        W82280   5.858   2.366  10.426
 9856W        W82281   2.243  28.609  11.872
 9857W        W82282  38.448  23.140   2.333
 9858W        W82283  34.500  26.487  11.523
 9859W        W82284   8.682   7.735   3.322
 9860W        W82285  20.111  13.645  10.618
 9861W        W82286  24.724  33.551   3.714
 9862W        W82287  25.986  36.414   2.231
 9863W        W82288  35.108  44.296   2.703
 9864W        W82289   5.697  24.620   3.187
 9865W        W82290  22.233  28.453  10.599
 9866W        W82291  25.663  32.977   0.263
 9867W        W82292  22.032  17.667   0.320
 9868W        W82293  31.511  44.773  10.525
 9869W        W82294  31.496  35.571   0.266
 9870W        W82295  30.925  25.069   9.921
 9871W        W82296  43.787  39.874  14.030
 9872W        W82297  34.402  19.245  12.004
 9873W        W82298  29.058  42.426  10.546
 9874W        W82299  41.023   7.818   3.706
 9875W        W82300  41.484  21.555  10.962
 9876W        W82301  43.458   3.783  11.054
 9877W        W82302  29.098  22.214  10.526
 9878W        W82303  30.653   5.433  10.977
 9879W        W82304  11.663  29.667  12.539
 9880W        W82305  11.170  41.321  11.112
 9881W        W82306   0.870  44.940  11.041
 9882W        W82307  42.482  17.154  14.393
 9883W        W82308  39.866   0.883   0.726
 9884W        W82309  27.603  21.628  14.816
 9885W        W82310  34.535  13.601   1.343
 9886W        W82311  20.109  38.530   4.299
 9887W        W82312  20.584  39.389  11.443
 9888W        W82313  27.601  38.920   4.736
 9889W        W82314   4.755  35.573  11.042
 9890W        W82315  36.072  11.164   1.332
 9891W        W82316  21.120  11.622   3.694
 9892W        W82317   8.340  24.659   4.345
 9893W        W82318  39.490  32.429  13.420
 9894W        W82319   8.249  34.414  14.291
 9895W        W82320  43.432  13.290  12.366
 9896W        W82321   5.710  18.246  13.036
 9897W        W82322  33.102   6.703  12.860
 9898W        W82323  11.324  22.010   2.344
 9899W        W82324  25.622  29.639   3.659
 9900W        W82325  10.860  29.150  14.472
 9901W        W82326  20.734  39.053  10.931
 9902W        W82327  18.246  19.639   2.237
 9903W        W82328  21.019  18.607   2.402
 9904W        W82329  16.567  42.872   2.286
 9905W        W82330  43.942  34.445  13.002
 9906W        W82331   8.254  37.043   2.378
 9907W        W82332  30.461   8.843   2.222
 9908W        W82333  27.587  16.291   2.179
 9909W        W82334  21.705  29.131  11.942
 9910W        W82335   3.792  21.251  14.421
 9911W        W82336  43.928   3.773  12.058
 9912W        W82337  44.500  27.147   4.344
 9913W        W82338   6.314  39.318  10.978
 9914W        W82339  44.977  34.948   2.348
 9915W        W82340   8.770  41.943  10.638
 9916W        W82341  38.032   9.186   1.236
 9917W        W82342  43.803  44.259   4.772
 9918W        W82343  42.301  37.402  13.315
 9919W        W82344  17.302  33.533   0.799
 9920W        W82345  23.557   0.447  12.378
 9921W        W82346   7.816  16.254   0.327
 9922W        W82347  27.061  37.551   4.742
 9923W        W82348  16.667  38.069   3.211
 9924W        W82349  35.405  15.674   0.839
 9925W        W82350  41.348  35.597  14.484
 9926W        W82351  30.143   3.243   2.705
 9927W        W82352  33.501  24.640  11.099
 9928W        W82353  16.269   3.859   1.364
 9929W        W82354  44.375   0.474  11.408
 9930W        W82355  31.149  11.350  14.904
 9931W        W82356   5.712  11.347   4.766
 9932W        W82357  28.640  35.894  13.021
 9933W        W82358  38.451  12.329  13.352
 9934W        W82359  19.679  24.088   1.348
 9935W        W82360  27.974  15.724  10.504
 9936W        W82361  11.766  44.297   4.343
 9937W        W82362  23.200  11.175   2.215
 9938W        W82363  25.567  27.523   4.756
 9939W        W82364  19.647  30.044   5.240
 9940W        W82365  24.103  39.858   0.454
 9941W        W82366  42.802  14.761   1.799
 9942W        W82367  35.538   8.868  12.928
 9943W        W82368  29.036  31.125   0.356
 9944W        W82369  34.075  28.937   3.751
 9945W        W82370  34.039  25.615  10.928
 9946W        W82371  15.611  17.157  12.057
 9947W        W82372  10.148  13.641   3.331
 9948W        W82373  21.085  20.205   3.764
 9949W        W82374   1.837  24.512  13.359
 9950W        W82375  44.372  43.948   9.980
 9951W        W82376  20.709   0.896  13.963
 9952W        W82377   3.446  38.513   2.409
 9953W        W82378  18.139  43.415   3.316
 9954W        W82379  34.118  10.143  14.867
 9955W        W82380  30.510   4.412  14.882
 9956W        W82381  44.799  33.882   4.335
 9957W        W82382  14.170  16.684   1.414
 9958W        W82383  30.912  19.114  13.867
 9959W        W82384  18.666  38.039   0.269
 9960W        W82385  37.474  25.999  14.961
 9961W        W82386  29.085   6.400   3.244
 9962W        W82387  39.826  21.565   4.834
 9963W        W82388  18.212   8.825   4.820
 9964W        W82389   8.776  32.075  10.968
 9965W        W82390  33.981  21.642   0.468
 9966W        W82391  23.522  14.737   0.403
 9967W        W82392  31.935  27.510   0.292
 9968W        W82393  31.139  30.629  11.077
 9969W        W82394  15.632   8.310   1.842
 9970W        W82395  26.099  42.314   4.302
 9971W        W82396  15.742  25.172   2.353
 9972W        W82397  41.910  34.961  12.880
 9973W        W82398   4.871  24.089   1.331
 9974W        W82399  42.450   4.824   3.730
 9975W        W82400  39.857  13.833   2.742
 9976W        W82401  21.727  35.882   3.333
 9977W        W82402  34.493  32.131   2.757
 9978W        W82403  15.301  15.819  12.563
 9979W        W82404  41.490  31.503   3.775
 9980W        W82405   7.851  42.325   3.728
 9981W        W82406   1.882   0.983   3.838
 9982W        W82407  39.919  13.299   0.435
 9983W        W82408  14.806  25.625  13.931
 9984W        W82409  20.089  23.014  12.047
 9985W        W82410  41.787  27.674   2.225
 9986W        W82411   8.875  35.010  13.880
 9987W        W82412   4.342  17.228  14.974
 9988W        W82413  41.905  11.722   4.640
 9989W        W82414  28.967  26.997   4.319
 9990W        W82415  22.501  40.957  10.630
 9991W        W82416  33.602   9.732   2.864
 9992W        W82417   9.778  31.951   1.794
 9993W        W82418  28.941  42.453  10.892
 9994W        W82419  25.164  37.834   0.319
 9995W        W82420   5.210  30.654  12.873
 9996W        W82421  20.188   1.788  11.542
 9997W        W82422  33.594  31.947  10.532
 9998W        W82423   4.712  15.229   4.347
 9999W        W82424  23.028  15.718   2.209
10000W        W82425  35.557  19.730  12.874
10001W        W82426  32.137  20.214   2.271
10002W        W82427  33.079  21.682   1.918
10003W        W82428  12.651  26.692   3.786
10004W        W82429  41.500  40.029  10.414
10005W        W82430  25.105  44.758   1.330
10006W        W82431   0.876  29.571   9.929
10007W        W82432  16.719  19.728  13.330
10008W        W82433   5.915   5.747  12.968
10009W        W82434   6.368  33.921  11.566
10010W        W82435   4.798  36.994   4.689
10011W        W82436  13.764  37.441   2.778
10012W        W82437   8.199  39.977   0.916
10013W        W82438  26.677   5.290   4.692
10014W        W82439  36.574  16.188  13.043
10015W        W82440  28.136  20.098  13.383
10016W        W82441  14.721  27.996   2.700
10017W        W82442   6.252   2.954   1.306
10018W        W82443  28.674   8.167  12.428
10019W        W82444  34.467  35.039   0.737
10020W        W82445  18.669   0.856  11.488
10021W        W82446  24.068   9.816   5.299
10022W        W82447   9.873  21.657  12.927
10023W        W82448  16.093  22.053  10.894
10024W        W82449  22.121   1.789   0.398
10025W        W82450  10.681   6.328   2.793
10026W        W82451  35.083  35.941  13.447
10027W        W82452  38.447  18.144   1.860
10028W        W82453  38.360  29.084   2.417
10029W        W82454  21.652  37.497   2.668
10030W        W82455  43.331  23.198   3.235
10031W        W82456  30.960   2.898   0.922
10032W        W82457  43.425  11.738  12.081
10033W        W82458   3.359  23.173  13.447
10034W        W82459  14.813   9.355  12.982
10035W        W82460  32.902  25.078   0.788
10036W        W82461  32.431  37.420   0.397
10037W        W82462  16.568  11.255   2.248
10038W        W82463  42.424  19.542   2.352
10039W        W82464  10.829  42.365  11.419
10040W        W82465   5.196   0.272   0.934
10041W        W82466  36.434  25.185   2.670
10042W        W82467   6.355  39.548  13.061
10043W        W82468  44.396  42.448  11.896
10044W        W82469  44.347  38.064   1.747
10045W        W82470   0.772  11.729   4.763
10046W        W82471  30.914  38.960   1.750
10047W        W82472  40.909  10.284  13.980
10048W        W82473  35.911  11.195  12.946
10049W        W82474  28.107  26.675   2.199
10050W        W82475  26.688  15.116   4.599
10051W        W82476  39.815  13.636  12.999
10052W        W82477  29.938  41.444   4.682
10053W        W82478   9.774  32.108   0.839
10054W        W82479   6.260  19.203   4.246
10055W        W82480  20.660  15.118  13.969
10056W        W82481   6.358  27.650  11.473
10057W        W82482   9.169  28.081   2.871
10058W        W82483  16.653   1.311  10.635
10059W        W82484  10.376  44.502  10.454
10060W        W82485   6.899  14.654   2.683
10061W        W82486  41.492  22.248   3.318
10062W        W82487  40.890  16.110   0.950
10063W        W82488  12.335  24.537   4.296
10064W        W82489   7.677  15.777  11.422
10065W        W82490  10.795   6.396  14.012
10066W        W82491  31.104   9.797  12.429
10067W        W82492   0.754  24.160  13.003
10068W        W82493  29.034   4.374   3.342
10069W        W82494  19.752  32.915  14.368
10070W        W82495  10.232  30.513  14.984
10071W        W82496  36.428   5.723  10.503
10072W        W82497  44.362  21.184   4.831
10073W        W82498   6.306   9.850   0.947
10074W        W82499  28.009  18.253  11.592
10075W        W82500  23.510  36.580   0.359
10076W        W82501  21.254  40.502  13.308
10077W        W82502  33.040   5.915  10.980
10078W        W82503  12.265  23.732  13.404
10079W        W82504  33.545  19.117  14.340
10080W        W82505  33.132  38.360  13.320
10081W        W82506  22.677  28.029   2.378
10082W        W82507   4.883  20.052   2.265
10083W        W82508  22.718  32.486  14.427
10084W        W82509   9.226  24.093   0.859
10085W        W82510  38.902  34.087  13.858
10086W        W82511   4.313  12.342  11.600
10087W        W82512  25.051  37.925  12.905
10088W        W82513  36.554  36.424   2.348
10089W        W82514  19.606  28.981   0.336
10090W        W82515  44.814  32.506   4.649
10091W        W82516  13.276   3.781  12.445
10092W        W82517   0.395  15.286   4.333
10093W        W82518  38.479  32.532   0.736
10094W        W82519  33.541  22.038  14.425
10095W        W82520  29.497  39.436   1.442
10096W        W82521  35.904   7.366   1.891
10097W        W82522   7.799  37.018  14.501
10098W        W82523  16.696  18.169   0.911
10099W        W82524  38.411  25.548  13.362
10100W        W82525  33.049  20.546   3.737
10101W        W82526  34.472  14.336  10.931
10102W        W82527  16.188  22.607  10.448
10103W        W82528   1.977  29.998  12.009
10104W        W82529  24.535  21.117   2.894
10105W        W82530  20.658  17.784  11.045
10106W        W82531  11.859  24.079   4.352
10107W        W82532  10.220   6.759  13.026
10108W        W82533   2.417  22.658   1.783
10109W        W82534  10.639  30.909   4.349
10110W        W82535   4.714  29.652   1.739
10111W        W82536  23.658  30.005  12.987
10112W        W82537  30.011  43.417  14.305
10113W        W82538  15.771  22.591  10.468
10114W        W82539  18.608  13.320   0.301
10115W        W82540  13.708  36.088  14.354
10116W        W82541  24.532  31.585  14.469
10117W        W82542  30.924  16.629  11.957
10118W        W82543  13.674  35.550  13.021
10119W        W82544  36.370  27.169   4.353
10120W        W82545   8.681  34.077  12.542
10121W        W82546  18.577   6.816  10.489
10122W        W82547  35.069   9.313  14.002
10123W        W82548  18.630   8.707   2.806
10124W        W82549  21.119  22.035  12.940
10125W        W82550  10.865  25.552   1.854
10126W        W82551  13.105  27.640  12.343
10127W        W82552  15.285   6.195   1.828
10128W        W82553  41.920  42.946   4.214
10129W        W82554  34.044  31.635  10.625
10130W        W82555   6.910   4.254   0.764
10131W        W82556  39.539  42.032  10.480
10132W        W82557   4.395   5.254   4.711
10133W        W82558  40.524   7.298  14.400
10134W        W82559   5.737  21.609   1.346
10135W        W82560  37.865  10.753   0.260
10136W        W82561  39.549   6.830  14.899
10137W        W82562  21.586  22.040  12.962
10138W        W82563   7.739   7.374   3.365
10139W        W82564  25.197  21.664   4.295
10140W        W82565  36.498  18.152  11.919
10141W        W82566  43.783   3.763  12.443
10142W        W82567  32.391  22.121   3.173
10143W        W82568  18.199  16.220  14.958
10144W        W82569   7.748  14.197  14.496
10145W        W82570  34.536   4.228  12.361
10146W        W82571  40.403  18.189  14.929
10147W        W82572  16.181  32.629  12.504
10148W        W82573  36.861  12.644   3.174
10149W        W82574  17.102  21.750  13.941
10150W        W82575  33.934  42.790  11.104
10151W        W82576  28.545  19.193  13.810
10152W        W82577  32.058  18.281   3.308
10153W        W82578  26.062  43.939  10.513
10154W        W82579  33.011  42.973  14.849
10155W        W82580   9.782   5.417   2.901
10156W        W82581  38.953  32.028   3.725
10157W        W82582  37.906   4.699  12.070
10158W        W82583  34.488  20.702   2.859
10159W        W82584  20.034   5.786   0.867
10160W        W82585  36.098   8.321   4.130
10161W        W82586  29.157   5.830  12.090
10162W        W82587  28.558  25.686  10.408
10163W        W82588   6.421  32.417   4.683
10164W        W82589  37.027  25.654  10.574
10165W        W82590  17.783  14.654  13.868
10166W        W82591  16.204  18.682  12.827
10167W        W82592  12.143  37.834  12.015
10168W        W82593   7.397  43.487   4.319
10169W        W82594  10.336  43.924  14.842
10170W        W82595   7.378   4.718   1.863
10171W        W82596  24.148  11.336  14.983
10172W        W82597   9.162  15.620   0.912
10173W        W82598  42.384  25.051   1.215
10174W        W82599  20.252  15.120   3.170
10175W        W82600  39.874  31.966  14.964
10176W        W82601  37.946   2.240  14.803
10177W        W82602  44.836  37.988  14.772
10178W        W82603  30.077  19.691  11.910
10179W        W82604  39.356  25.599   4.120
10180W        W82605  33.407  22.693   3.859
10181W        W82606  31.439  12.659  13.338
10182W        W82607  24.070  43.820   4.618
10183W        W82608  10.369  23.095  13.317
10184W        W82609  17.246  12.313  12.946
10185W        W82610  12.711  40.984   4.704
10186W        W82611  20.115  16.695  13.039
10187W        W82612   4.392   9.770  10.553
10188W        W82613  27.009  26.518   1.740
10189W        W82614   4.724  15.743  13.880
10190W        W82615  29.045  29.499   1.787
10191W        W82616  43.795   3.303  14.948
10192W        W82617  29.138   7.358  14.815
10193W        W82618   7.795   6.234  10.948
10194W        W82619  20.751  24.104  13.370
10195W        W82620  32.080  35.096   0.399
10196W        W82621  26.495  32.418   3.646
10197W        W82622  32.540  36.526  14.945
10198W        W82623   9.150  31.476  13.543
10199W        W82624  20.065   6.276   3.681
10200W        W82625   7.181  13.711   3.163
10201W        W82626   1.414  40.369   2.802
10202W        W82627  10.642  26.490  14.771
10203W        W82628   0.394   9.384  11.428
10204W        W82629  27.141  35.525   0.882
10205W        W82630  32.025  31.440   0.256
10206W        W82631  11.855  15.310  11.020
10207W        W82632   7.888   9.224   3.220
10208W        W82633   3.713  17.672   0.353
10209W        W82634   4.232   4.425  11.094
10210W        W82635   1.401  19.700  13.318
10211W        W82636  28.461  27.595  12.043
10212W        W82637   8.192  39.417  10.897
10213W        W82638   1.413   4.811  11.388
10214W        W82639  33.520  14.614  14.439
10215W        W82640   0.812  43.980  11.013
10216W        W82641  15.738  31.977  12.853
10217W        W82642   8.356  22.571   0.459
10218W        W82643  18.759  19.767   0.273
10219W        W82644  14.248  17.280   2.181
10220W        W82645   7.345  15.242   2.382
10221W        W82646  12.258  30.090  13.963
10222W        W82647  27.608   5.828  11.025
10223W        W82648  42.494  35.043   4.292
10224W        W82649  20.174  22.600  10.029
10225W        W82650  40.323  21.607  13.052
10226W        W82651  41.877  14.309   5.194
10227W        W82652   7.757   2.862   4.687
10228W        W82653   1.268  34.376  11.446
10229W        W82654  41.336  28.141   0.266
10230W        W82655  10.842  11.362   2.308
10231W        W82656   6.751  43.297  12.556
10232W        W82657  31.973  38.959   0.954
10233W        W82658   6.813  27.646  11.129
10234W        W82659  18.074  27.537   4.217
10235W        W82660  23.566   6.721  11.510
10236W        W82661  23.131  29.990  13.935
10237W        W82662  15.119  11.866  11.007
10238W        W82663  42.972   1.882  12.085
10239W        W82664  10.348  44.848   4.780
10240W        W82665  21.182   2.949  10.533
10241W        W82666  34.433  36.434  10.952
10242W        W82667   8.209  40.485   0.350
10243W        W82668  35.883  20.641   1.393
10244W        W82669  16.261  41.394   3.338
10245W        W82670   4.746   0.449   0.759
10246W        W82671  33.122  26.123   3.749
10247W        W82672  10.680  22.031   3.307
10248W        W82673  12.637   9.326  10.982
10249W        W82674   8.320  13.192  14.832
10250W        W82675  12.215  24.176   2.353
10251W        W82676  21.073  23.580   1.793
10252W        W82677   2.322  38.867   2.823
10253W        W82678  15.588   0.486   3.800
10254W        W82679  42.455  15.597   4.751
10255W        W82680  24.988  15.618  12.038
10256W        W82681   8.839  32.558   4.146
10257W        W82682  16.674  37.922   1.368
10258W        W82683  41.922  19.731   5.099
10259W        W82684  21.685  26.582   0.960
10260W        W82685   5.703  39.041   1.277
10261W        W82686  23.543  26.505  13.416
10262W        W82687  32.002  16.254   2.713
10263W        W82688   0.482  25.639  12.910
10264W        W82689  39.471  38.823   2.391
10265W        W82690   6.184   1.791  10.514
10266W        W82691  30.987  19.771   2.863
10267W        W82692  11.149   4.724  10.473
10268W        W82693  35.445  38.495  12.984
10269W        W82694   0.255  10.673  14.307
10270W        W82695  34.025   8.878   1.366
10271W        W82696  42.489  14.617  13.922
10272W        W82697   2.769  44.859  11.378
10273W        W82698  24.987  40.423  14.889
10274W        W82699  18.560   3.826  11.861
10275W        W82700  15.771  24.993  14.842
10276W        W82701  31.103  35.493   2.181
10277W        W82702  32.961  38.065   2.189
10278W        W82703  34.386  31.582   0.918
10279W        W82704  33.612   8.873   2.209
10280W        W82705  29.546  10.659  14.759
10281W        W82706   5.698   3.799  10.583
10282W        W82707  21.257  23.589  14.020
10283W        W82708  13.769  32.631  11.497
10284W        W82709  14.311  23.533   1.879
10285W        W82710   9.840  43.437  12.050
10286W        W82711  13.160  22.532  13.346
10287W        W82712   6.367  16.809   4.642
10288W        W82713  31.558  38.983  14.395
10289W        W82714  34.580  27.103   1.274
10290W        W82715   3.403   7.684  10.487
10291W        W82716  26.529  42.936  13.498
10292W        W82717  17.237  41.513   3.639
10293W        W82718  41.314  36.587   1.271
10294W        W82719   2.335  28.570   1.894
10295W        W82720  25.037  29.952   0.963
10296W        W82721   3.442   9.178   2.829
10297W        W82722  12.303  27.191  12.402
10298W        W82723   3.760  36.968   0.804
10299W        W82724  42.302   2.884   2.381
10300W        W82725  22.215  36.909   1.861
10301W        W82726  31.468  31.518  13.906
10302W        W82727  20.029  41.529  12.860
10303W        W82728  11.140  20.176  13.917
10304W        W82729  25.109  16.263  12.040
10305W        W82730  36.060  37.423  12.882
10306W        W82731   7.724   9.755  11.610
10307W        W82732   1.777  41.523   4.833
10308W        W82733   6.698  35.013   5.311
10309W        W82734  17.227  33.039  11.881
10310W        W82735  41.520   2.412   4.205
10311W        W82736  34.536  20.238   4.273
10312W        W82737   9.743  29.488   1.766
10313W        W82738  26.957  39.460   0.964
10314W        W82739   9.167   1.868   1.312
10315W        W82740   6.330  12.679   5.197
10316W        W82741  33.968  10.271  10.592
10317W        W82742  19.761  24.654   3.339
10318W        W82743  41.426  28.571   4.294
10319W        W82744  12.230  19.083  12.351
10320W        W82745  43.322  34.538   5.199
10321W        W82746   2.361   2.261   3.758
10322W        W82747  32.988  30.454  11.960
10323W        W82748  41.478  20.117  14.355
10324W        W82749  22.106  38.014   4.681
10325W        W82750   6.735  26.202  12.496
10326W        W82751  39.428  19.717   4.768
10327W        W82752  33.118   3.274  11.897
10328W        W82753  11.653  28.451   4.806
10329W        W82754  36.380  32.013   0.291
10330W        W82755  36.412  37.022   4.748
10331W        W82756  16.231  33.422   3.764
10332W        W82757  20.576   0.357   3.646
10333W        W82758   5.925   3.763   3.636
10334W        W82759   8.204  22.674   4.607
10335W        W82760  39.389  29.082   3.791
10336W        W82761   8.667  30.497  13.805
10337W        W82762  35.980  23.675   4.822
10338W        W82763  33.448  28.552   0.848
10339W        W82764  19.588   6.389   4.183
10340W        W82765  22.997  37.063   0.727
10341W        W82766   7.227   3.354  11.930
10342W        W82767  17.752  41.375  11.589
10343W        W82768   9.197   0.301  10.928
10344W        W82769  14.783  31.583   3.707
10345W        W82770  36.953  19.257  11.042
10346W        W82771  31.119  40.965   4.773
10347W        W82772  39.333  16.698  11.525
10348W        W82773  34.112   4.244  12.477
10349W        W82774   7.318  32.557  12.556
10350W        W82775  11.814  26.173  14.428
10351W        W82776  34.931  39.835   1.292
10352W        W82777   7.411  23.166  11.118
10353W        W82778   3.813  16.753   1.904
10354W        W82779   4.736  16.637   0.942
10355W        W82780  13.183  42.496  13.322
10356W        W82781  29.076  41.420  14.960
10357W        W82782  37.425  14.332   0.360
10358W        W82783  17.569  21.037  13.985
10359W        W82784  17.264   8.186   2.847
10360W        W82785  20.591  21.057   4.235
10361W        W82786  43.385  37.573   0.957
10362W        W82787  13.624  36.978  14.457
10363W        W82788  44.259  27.650   0.369
10364W        W82789  37.568  42.328  12.012
10365W        W82790  14.131  33.461  10.642
10366W        W82791  13.160  16.688   2.763
10367W        W82792  41.402  27.507  14.970
10368W        W82793  18.567  14.783   2.323
10369W        W82794  23.082   4.207   2.875
10370W        W82795  41.365  13.763   2.370
10371W        W82796  22.685  42.867  10.024
10372W        W82797  26.168  29.014  12.393
10373W        W82798  42.366  44.764   4.691
10374W        W82799  21.046  15.197  11.991
10375W        W82800  21.579  28.079   1.265
10376W        W82801   5.887  26.554   4.139
10377W        W82802  13.234  22.014   1.786
10378W        W82803  16.286  33.987  13.464
10379W        W82804  29.049  34.017   2.886
10380W        W82805  34.443  23.130   1.415
10381W        W82806  26.011  27.081  11.433
10382W        W82807  18.594   9.685  11.928
10383W        W82808  12.167  27.997  13.821
10384W        W82809  27.525   6.229  13.009
10385W        W82810  16.748  43.814   0.353
10386W        W82811  36.464  25.056   4.170
10387W        W82812   4.862   4.860   3.707
10388W        W82813  33.521  20.579   0.850
10389W        W82814  40.855  42.825   4.808
10390W        W82815  35.534   9.291   0.419
10391W        W82816  16.221   0.792   3.784
10392W        W82817  28.963  30.542   4.137
10393W        W82818   2.404  13.174   4.178
10394W        W82819   1.969  15.208  13.417
10395W        W82820   0.970  18.775  14.416
10396W        W82821  24.575  44.966   0.478
10397W        W82822   1.279  39.470  13.323
10398W        W82823  24.075  31.567   0.250
10399W        W82824  10.830  38.990   1.322
10400W        W82825  16.616  18.604   3.353
10401W        W82826   2.732  38.328  10.504
10402W        W82827  17.631  14.302  12.940
10403W        W82828  10.229   9.366  14.006
10404W        W82829  42.333  21.687   4.168
10405W        W82830  10.326   6.857   2.765
10406W        W82831  11.670  12.292  13.955
10407W        W82832  21.091  35.998   1.291
10408W        W82833  24.520  21.167  14.306
10409W        W82834  16.144  23.149  13.925
10410W        W82835   1.444  36.999  12.561
10411W        W82836   0.426  19.259   4.613
10412W        W82837   3.807  19.672   4.718
10413W        W82838  38.456  34.524   4.671
10414W        W82839  39.396  43.466   3.230
10415W        W82840  13.822  32.585   3.339
10416W        W82841   5.806  35.005   2.820
10417W        W82842  20.103  42.962  11.412
10418W        W82843  33.595   1.346  11.093
10419W        W82844  29.999  32.596   4.798
10420W        W82845  11.802   4.908   3.265
10421W        W82846  36.459   0.376   4.340
10422W        W82847  18.153  21.607  13.526
10423W        W82848   0.424  22.569  13.961
10424W        W82849  44.822  41.408  14.514
10425W        W82850  23.997  10.152   4.810
10426W        W82851  11.823  20.696  11.007
10427W        W82852  34.875   0.855   0.405
10428W        W82853  33.405  28.112  13.878
10429W        W82854  15.648  21.135  10.038
10430W        W82855  38.994  36.403   5.120
10431W        W82856  26.014  19.748   0.332
10432W        W82857  34.559  25.213   0.476
10433W        W82858  23.003   9.149   0.321
10434W        W82859  12.215  32.081   3.664
10435W        W82860  18.222  23.994   0.317
10436W        W82861  22.194   8.792  11.486
10437W        W82862  21.535  23.502   4.770
10438W        W82863  39.040  40.958   1.324
10439W        W82864  40.373   4.425   0.300
10440W        W82865  13.268  11.787  14.965
10441W        W82866  35.404  29.476   3.813
10442W        W82867   0.355  41.865  14.387
10443W        W82868  23.033   8.367  12.040
10444W        W82869  26.206  33.097   0.967
10445W        W82870  38.529  37.582   5.086
10446W        W82871  31.569  14.125   0.912
10447W        W82872  42.338   4.300  11.024
10448W        W82873  30.471  31.923   1.717
10449W        W82874   2.815  26.073  14.331
10450W        W82875  17.228  28.973   0.962
10451W        W82876   1.243  30.481  14.972
10452W        W82877  15.094  13.113  13.441
10453W        W82878   3.420   5.329   1.340
10454W        W82879  23.617  24.090  13.922
10455W        W82880  23.992  30.429  10.498
10456W        W82881  44.498   5.214  14.927
10457W        W82882   9.823  23.126  11.082
10458W        W82883  17.752  22.592  11.017
10459W        W82884  42.335  38.840  12.502
10460W        W82885  22.097   4.334  11.580
10461W        W82886   2.803  28.958   3.311
10462W        W82887  40.032   5.204  13.475
10463W        W82888  17.584  42.967  10.451
10464W        W82889   5.806   6.683   0.808
10465W        W82890  25.479  24.530   2.674
10466W        W82891  43.343  35.890   1.217
10467W        W82892  18.282  34.996   1.851
10468W        W82893   7.319   7.279   2.681
10469W        W82894  44.764  14.679   2.680
10470W        W82895  42.908  44.452  10.892
10471W        W82896   7.738  15.214  13.359
10472W        W82897   1.933  44.944  13.801
10473W        W82898   1.898   8.273   0.883
10474W        W82899  22.569   9.247   3.709
10475W        W82900  12.616  44.936   3.645
10476W        W82901  31.015   0.767  11.125
10477W        W82902  26.186  37.910   0.328
10478W        W82903  17.749  43.951   0.959
10479W        W82904  28.671   0.812   1.234
10480W        W82905  25.576  10.328  13.466
10481W        W82906   4.234  39.834  13.365
10482W        W82907  38.826  27.021   2.674
10483W        W82908   8.239  42.866  11.450
10484W        W82909  17.098  14.335  11.440
10485W        W82910   6.679  24.162   1.694
10486W        W82911  39.461  28.523  12.419
10487W        W82912  20.751  17.700  13.389
10488W        W82913  32.421  42.486  12.370
10489W        W82914  18.776  31.033   0.924
10490W        W82915  18.750  41.462   0.848
10491W        W82916   9.174  19.588  11.053
10492W        W82917  42.334  39.511   1.382
10493W        W82918  12.198  40.342   3.721
10494W        W82919  28.567   8.350  12.999
10495W        W82920  38.344   2.786  11.427
10496W        W82921  17.619  29.030   1.794
10497W        W82922   7.742  27.981  12.893
10498W        W82923  22.094  18.693  11.092
10499W        W82924  30.079  12.844   0.781
10500W        W82925  38.420   6.250  10.456
10501W        W82926   1.840  27.596  12.391
10502W        W82927  19.715  35.474   2.893
10503W        W82928  19.716   4.921   1.240
10504W        W82929  23.199  12.676  12.986
10505W        W82930   5.330   5.830   0.248
10506W        W82931   3.925   6.406  12.378
10507W        W82932   7.891  43.986   2.287
10508W        W82933  25.475  15.688   3.354
10509W        W82934   0.875  24.022  12.465
10510W        W82935  27.499  39.382   1.865
10511W        W82936  18.277  31.594  10.408
10512W        W82937  35.889  30.073  14.023
10513W        W82938  37.440  36.405  13.870
10514W        W82939  28.975  37.359   5.100
10515W        W82940  24.129  29.516   1.875
10516W        W82941  33.470   3.348  12.075
10517W        W82942   1.350  28.050  11.540
10518W        W82943  10.725   8.393   1.698
10519W        W82944  35.500  29.994   4.768
10520W        W82945  14.719  16.075   0.866
10521W        W82946  29.081   2.330  14.843
10522W        W82947  35.600  19.538   4.314
10523W        W82948  13.787  15.295   0.326
10524W        W82949   6.862  35.925   0.300
10525W        W82950   3.855  16.765   4.327
10526W        W82951  35.412  29.167  10.605
10527W        W82952  26.193  17.608  11.059
10528W        W82953   3.780  36.941   2.844
10529W        W82954  23.496   1.767   3.378
10530W        W82955  41.377  12.359   2.706
10531W        W82956  11.323  19.608  13.463
10532W        W82957  24.509  14.251   1.443
10533W        W82958  33.037  16.268   4.749
10534W        W82959   5.267  23.672  12.357
10535W        W82960  18.228  11.318  12.952
10536W        W82961  11.251  27.670   2.217
10537W        W82962  18.187  36.919   1.420
10538W        W82963  33.392  16.672  14.336
10539W        W82964  41.850  37.041   2.854
10540W        W82965  12.771   9.653   2.228
10541W        W82966  27.463  19.761  11.591
10542W        W82967  40.838   4.333   1.913
10543W        W82968   0.298  41.335   0.961
10544W        W82969  42.777  10.668   3.235
10545W        W82970   0.339  40.473  11.469
10546W        W82971  21.153   8.874   1.437
10547W        W82972  22.678  19.683  10.081
10548W        W82973  30.974  20.070   4.827
10549W        W82974  37.499  43.853  13.803
10550W        W82975  28.949  25.210   3.726
10551W        W82976  37.888  34.121  13.386
10552W        W82977  27.592   4.788   0.293
10553W        W82978  31.051  14.804   3.212
10554W        W82979  26.125  17.103  12.561
10555W        W82980  21.513  14.703  12.069
10556W        W82981  11.248  18.067  11.042
10557W        W82982   7.851  41.351  14.776
10558W        W82983   0.446  13.666   2.293
10559W        W82984   4.390   6.902   0.399
10560W        W82985   9.676  11.130  10.472
10561W        W82986  16.298  43.902  13.408
10562W        W82987  16.284  32.428  12.864
10563W        W82988  10.320  21.539   3.772
10564W        W82989  14.617  22.206  13.901
10565W        W82990  22.655  33.948   3.309
10566W        W82991  23.572  22.190  13.434
10567W        W82992   6.828  27.176  10.573
10568W        W82993  37.499  34.431   1.379
10569W        W82994  43.336  13.293   1.810
10570W        W82995  22.550  28.013   1.282
10571W        W82996  18.239   2.234  10.987
10572W        W82997  37.351  43.862  13.541
10573W        W82998   7.234  40.491  13.472
10574W        W82999  40.487   5.196  13.373
10575W        W83000  19.118  29.921   5.681
10576W        W83001  38.560  20.069   1.809
10577W        W83002  31.046  14.329  12.456
10578W        W83003  33.039  25.573  14.811
10579W        W83004  24.140  23.063   3.731
10580W        W83005  39.852  37.506   2.884
10581W        W83006   9.164  40.388  11.951
10582W        W83007  19.743   3.830  14.297
10583W        W83008  24.095  25.588   2.370
10584W        W83009  37.460  40.855   0.755
10585W        W83010  31.127  13.151  13.053
10586W        W83011  20.098  14.296  12.020
10587W        W83012  30.082  25.630  11.449
10588W        W83013  37.516  40.884  14.833
10589W        W83014  30.624  16.661  13.441
10590W        W83015   9.770  38.395   1.786
10591W        W83016  32.453  11.691   0.968
10592W        W83017  16.630  11.769   4.263
10593W        W83018  22.663   0.901  14.896
10594W        W83019   8.858  23.994   4.227
10595W        W83020  19.717  12.234   2.201
10596W        W83021  37.565  25.537  11.578
10597W        W83022  44.381  34.094  11.035
10598W        W83023  19.590  42.860  12.928
10599W        W83024  37.992   3.922  12.469
10600W        W83025  13.296   7.771  11.986
10601W        W83026   7.907  39.541  12.916
10602W        W83027  42.867  11.245  13.848
10603W        W83028  22.071   8.213   4.636
10604W        W83029  18.092  26.979   0.268
10605W        W83030  12.782   2.405  11.492
10606W        W83031  12.714   7.186  13.009
10607W        W83032  22.723  40.463   3.689
10608W        W83033   8.678   5.837  14.401
10609W        W83034  31.618  10.345  10.636
10610W        W83035  31.905   3.857   4.320
10611W        W83036  13.280  10.695   1.319
10612W        W83037  21.626  44.469  11.524
10613W        W83038   6.751   9.320  12.567
10614W        W83039  43.781  38.506  14.480
10615W        W83040  22.685   0.414  10.010
10616W        W83041  21.040   6.848   1.430
10617W        W83042  27.619  40.810  14.410
10618W        W83043   2.465   6.773  13.376
10619W        W83044  15.651  15.132  13.943
10620W        W83045  28.958  17.695   0.786
10621W        W83046   9.824  32.899   0.261
10622W        W83047  26.527  43.342   3.676
10623W        W83048  30.087  42.866   0.944
10624W        W83049  19.282   0.867  14.501
10625W        W83050   9.857   9.205  14.333
10626W        W83051  34.520  23.072   3.867
10627W        W83052  24.632  33.021   2.874
10628W        W83053  27.635  30.648  12.578
10629W        W83054  12.828  18.766  14.360
10630W        W83055  34.936   1.896  13.818
10631W        W83056   0.975   0.453  13.310
10632W        W83057   9.166  14.750  11.403
10633W        W83058  33.427  23.667   4.786
10634W        W83059  28.084   0.795   0.364
10635W        W83060  11.722  12.753  12.065
10636W        W83061  14.830  33.415  14.394
10637W        W83062  25.157  40.507   4.757
10638W        W83063   6.273  21.595   1.839
10639W        W83064  32.491  12.799  11.577
10640W        W83065  31.555   5.748   4.648
10641W        W83066  16.163   0.377   1.758
10642W        W83067  12.131  29.525  12.482
10643W        W83068  12.612  22.183  10.544
10644W        W83069  28.008  23.122   1.744
10645W        W83070  17.659   4.206   0.367
10646W        W83071  41.982  28.969   0.443
10647W        W83072  17.086  44.302   4.775
10648W        W83073  11.146  22.235   3.185
10649W        W83074  34.461   6.684  14.836
10650W        W83075  22.577  32.560   2.783
10651W        W83076  22.514  17.603   1.862
10652W        W83077  32.101  43.980  10.574
10653W        W83078  17.082  27.630   1.214
10654W        W83079  18.681  35.873   9.992
10655W        W83080   7.338   2.358   2.315
10656W        W83081  16.286   3.794   0.452
10657W        W83082   8.720  33.442  11.037
10658W        W83083  32.055   0.461  14.798
10659W        W83084  22.050  26.071  14.973
10660W        W83085  30.024  13.140   3.758
10661W        W83086   1.950  15.286  12.416
10662W        W83087  31.429  12.663  14.932
10663W        W83088   3.922   1.759  13.826
10664W        W83089  34.422   2.426  10.464
10665W        W83090  25.143   5.436   1.212
10666W        W83091  21.737  41.495   4.350
10667W        W83092  19.148  18.591   0.917
10668W        W83093  25.473  24.646   3.671
10669W        W83094  36.470  28.495   3.712
10670W        W83095   3.256  18.225  14.823
10671W        W83096  38.498  30.128   0.927
10672W        W83097   8.867   6.784   0.364
10673W        W83098  10.830   9.212   4.190
10674W        W83099  21.543  28.027   2.795
10675W        W83100   1.929  31.431  11.113
10676W        W83101  38.066  41.319  13.998
10677W        W83102  18.222  34.515  12.422
10678W        W83103  17.640  10.671  10.562
10679W        W83104  16.698   3.368   4.237
10680W        W83105  17.800  38.984   2.240
10681W        W83106   0.964  25.989  14.421
10682W        W83107  17.107  42.794   0.279
10683W        W83108  34.984  44.993   0.943
10684W        W83109  34.034   8.287   4.205
10685W        W83110   6.719  40.955   0.843
10686W        W83111   0.354  25.126  13.810
10687W        W83112  18.076  31.924  14.399
10688W        W83113  28.068   5.205  10.617
10689W        W83114  10.347   8.750  13.932
10690W        W83115  20.139   7.376  10.941
10691W        W83116   4.368  23.492   2.845
10692W        W83117  22.051   5.871  13.355
10693W        W83118  24.681  25.601  12.365
10694W        W83119  41.483  42.420  14.436
10695W        W83120  26.521  44.878   4.247
10696W        W83121  12.737  15.581   1.751
10697W        W83122  10.798  10.697   0.316
10698W        W83123   5.206  29.489  14.402
10699W        W83124  12.257  26.973  11.902
10700W        W83125  42.834  33.438   1.354
10701W        W83126  41.466  43.858  14.513
10702W        W83127  39.475  34.874  14.450
10703W        W83128  20.258  33.934  12.858
10704W        W83129  12.319  31.070  13.792
10705W        W83130  24.146   2.735  14.849
10706W        W83131   0.801  37.847  11.858
10707W        W83132   9.708  43.009   0.963
10708W        W83133  42.316  33.555  11.521
10709W        W83134  27.476  20.272  12.412
10710W        W83135  41.823  27.969  12.461
10711W        W83136  13.618  34.051  10.902
10712W        W83137  35.913   1.327  10.518
10713W        W83138  25.657  32.000   2.386
10714W        W83139   0.919  43.443   4.650
10715W        W83140  43.486   0.278  10.581
10716W        W83141  22.103  38.481   2.234
10717W        W83142  43.326  13.680   4.704
10718W        W83143   4.257  22.736   2.686
10719W        W83144  38.477  22.600   4.736
10720W        W83145   6.752   5.873  10.974
10721W        W83146  26.544  34.390  12.079
10722W        W83147  15.654  16.639  11.102
10723W        W83148   6.405  25.674  12.413
10724W        W83149  40.362   1.301  14.347
10725W        W83150   2.260  34.978   0.278
10726W        W83151  29.143  22.576  12.882
10727W        W83152  19.780   1.437  11.885
10728W        W83153  42.526  11.724  14.032
10729W        W83154  26.962  13.700   1.717
10730W        W83155   9.740  19.051  12.443
10731W        W83156  20.127  43.878  13.989
10732W        W83157  38.067  14.652   2.881
10733W        W83158  44.825  23.064   1.330
10734W        W83159  40.307  41.448   4.609
10735W        W83160  41.914  15.778  14.428
10736W        W83161  25.084  10.854   5.649
10737W        W83162  36.073  44.910   1.410
10738W        W83163  32.035  35.865  13.003
10739W        W83164  14.194   8.851  10.475
10740W        W83165  23.517  39.063  10.552
10741W        W83166   4.300  25.608   2.242
10742W        W83167  40.464  17.657  12.487
10743W        W83168  29.089  16.283   2.404
10744W        W83169  28.010  22.666   4.336
10745W        W83170  17.754  26.049  13.525
10746W        W83171  39.948  31.488  13.061
10747W        W83172  40.043  19.072  12.545
10748W        W83173  22.206  11.373  13.905
10749W        W83174  44.789  26.015   4.810
10750W        W83175  22.740   4.314   4.623
10751W        W83176  40.486  35.977  10.454
10752W        W83177  34.059  15.325   1.352
10753W        W83178  26.544  13.825  14.969
10754W        W83179   3.780  15.794   3.793
10755W        W83180  42.829  17.123  11.005
10756W        W83181  29.161  19.757  10.951
10757W        W83182  17.753   7.240  10.550
10758W        W83183  25.987   3.732   0.965
10759W        W83184  13.349  41.799  12.007
10760W        W83185  43.306  43.876   1.269
10761W        W83186   9.276  28.068  13.316
10762W        W83187   6.365  34.053  12.998
10763W        W83188  10.147  29.638   2.417
10764W        W83189  10.809   6.890  11.090
10765W        W83190  36.063  39.024  11.536
10766W        W83191  18.281  21.562   4.255
10767W        W83192  27.478  31.580   3.205
10768W        W83193  11.265  16.153  10.950
10769W        W83194  25.181  28.007   0.312
10770W        W83195  34.882  20.523   4.771
10771W        W83196  24.179  34.021  13.409
10772W        W83197   5.322  28.961  12.372
10773W        W83198  26.117  20.634  12.479
10774W        W83199   4.887  42.851  14.482
10775W        W83200   4.699  11.252   2.198
10776W        W83201  21.603  29.497   4.768
10777W        W83202  21.514  39.535   2.281
10778W        W83203  27.586   6.737   3.169
10779W        W83204   3.452  42.433  14.491
10780W        W83205  16.640   2.842   3.246
10781W        W83206  20.557  13.842  14.342
10782W        W83207  12.207  20.259  12.885
10783W        W83208   1.911  41.033  13.043
10784W        W83209   2.872   1.440  13.320
10785W        W83210  40.906   1.964  13.052
10786W        W83211  35.894  13.717  13.826
10787W        W83212   3.231  41.527   3.775
10788W        W83213  44.350  15.085   2.733
10789W        W83214  24.103  31.025  14.994
10790W        W83215  11.352  17.788  11.978
10791W        W83216  11.773  34.488   0.952
10792W        W83217  37.523  32.627   0.291
10793W        W83218  20.555  44.897  12.950
10794W        W83219  36.403  22.205  11.934
10795W        W83220  29.528  25.622  14.930
10796W        W83221   2.787  41.821  14.462
10797W        W83222  31.142  18.054   4.830
10798W        W83223  25.176  17.766  11.379
10799W        W83224  40.441  42.807  14.414
10800W        W83225  42.396  14.767   0.728
10801W        W83226  24.043  29.040  14.499
10802W        W83227  15.766  19.698   2.719
10803W        W83228   8.818   0.915  14.934
10804W        W83229   7.405  42.890   1.889
10805W        W83230  31.982  14.246   3.238
10806W        W83231   4.923  35.581   4.647
10807W        W83232  12.170  28.004   1.736
10808W        W83233  39.872   9.815   2.733
10809W        W83234  36.471  17.275  14.331
10810W        W83235   0.937  22.695   4.760
10811W        W83236  42.453  22.697   4.769
10812W        W83237   4.791  36.929  11.105
10813W        W83238   8.816  38.950  12.491
10814W        W83239  21.148  27.137  11.485
10815W        W83240  18.093  12.275   0.248
10816W        W83241  15.767  23.580  10.888
10817W        W83242  10.192  10.305   3.324
10818W        W83243   9.765   0.369   1.754
10819W        W83244   2.813  21.606  12.026
10820W        W83245  18.763  42.514  11.002
10821W        W83246   4.830  25.702  13.861
10822W        W83247  37.440  39.442  14.397
10823W        W83248  13.199   3.431  11.003
10824W        W83249  18.661   7.809  12.511
10825W        W83250  20.671   6.258   0.845
10826W        W83251  33.513  27.957  11.468
10827W        W83252  14.268  39.991   1.765
10828W        W83253   7.217  17.579   4.668
10829W        W83254  16.214  12.235   1.703
10830W        W83255  18.712  24.161  10.511
10831W        W83256   8.212  25.646   3.149
10832W        W83257  44.965  42.913  13.380
10833W        W83258  43.400   7.900   3.208
10834W        W83259  36.855  38.541  12.558
10835W        W83260  14.150  40.332  10.562
10836W        W83261  17.223   7.273   3.319
10837W        W83262  39.429  27.054   2.668
10838W        W83263  22.571   5.307  13.481
10839W        W83264  11.670  37.540  11.078
10840W        W83265  10.256  36.077  10.160
10841W        W83266  34.880  32.949   1.305
10842W        W83267  23.171  11.639  13.337
10843W        W83268  31.903  17.775   0.861
10844W        W83269  13.732  16.195  14.481
10845W        W83270  37.447  39.403   2.365
10846W        W83271  44.412   2.433   1.871
10847W        W83272   7.229  38.464  11.496
10848W        W83273   7.205  19.593   1.317
10849W        W83274  39.479   5.368   0.945
10850W        W83275  17.773  12.280   1.308
10851W        W83276  14.145  13.201   2.345
10852W        W83277  28.128  18.651   4.753
10853W        W83278  11.270  37.503   0.733
10854W        W83279   8.234  16.240  13.060
10855W        W83280   6.368  41.023   1.312
10856W        W83281  13.329  25.192  12.490
10857W        W83282  44.762  10.303   2.821
10858W        W83283  21.228  42.986   1.376
10859W        W83284  32.950  29.535   4.814
10860W        W83285   4.857  17.210   3.776
10861W        W83286   0.472  42.390   1.918
10862W        W83287  39.000  29.941  14.978
10863W        W83288  19.118  13.668  13.830
10864W        W83289  44.763  13.783  14.504
10865W        W83290  31.412   6.909   0.759
10866W        W83291  41.803  30.055  11.974
10867W        W83292  44.416   2.262  13.313
10868W        W83293  37.845   5.262  10.624
10869W        W83294  19.576  29.660   3.672
10870W        W83295  14.278  43.335   3.334
10871W        W83296   8.310  20.139   4.783
10872W        W83297   5.728   4.207  14.794
10873W        W83298  27.641  24.993   4.700
10874W        W83299  33.402  35.878  12.870
10875W        W83300   7.414  31.930   1.865
10876W        W83301   8.891  26.157   0.811
10877W        W83302   8.381  23.642   4.765
10878W        W83303  21.567   1.452  10.584
10879W        W83304  21.216   5.384   3.677
10880W        W83305  35.552  13.771  11.597
10881W        W83306  44.927  33.591   2.301
10882W        W83307  13.611  43.769   2.206
10883W        W83308  25.016   9.340   4.713
10884W        W83309  18.062  17.631  13.517
10885W        W83310  43.452  15.145  13.041
10886W        W83311  37.549  23.696  11.960
10887W        W83312  28.508   4.887   4.711
10888W        W83313   2.771  32.924  11.594
10889W        W83314  29.962  39.479  11.960
10890W        W83315   0.254  41.038   0.788
10891W        W83316  34.079   0.855   0.968
10892W        W83317  24.121   3.449   0.283
10893W        W83318  17.759   1.420  11.898
10894W        W83319  24.537  34.085  14.983
10895W        W83320  19.690  18.554   3.314
10896W        W83321   6.831  42.819  11.920
10897W        W83322  39.044  35.968  14.383
10898W        W83323   6.865  16.134   0.747
10899W        W83324  28.098   8.211  13.427
10900W        W83325   6.905  29.020   1.700
10901W        W83326  43.947   0.933  11.070
10902W        W83327   7.303  19.573   3.171
10903W        W83328  25.045  13.142   4.272
10904W        W83329   1.256  41.041  13.471
10905W        W83330   7.249  41.014   2.325
10906W        W83331  27.104  35.976  11.899
10907W        W83332  18.740   6.765  11.002
10908W        W83333  26.517  23.133   1.246
10909W        W83334  44.827  42.295  10.897
10910W        W83335  24.104  22.089  12.836
10911W        W83336  13.800  21.560   1.350
10912W        W83337  37.992  34.964  14.898
10913W        W83338  33.465  31.596  12.894
10914W        W83339  37.516  17.075  14.335
10915W        W83340  30.610   5.332  13.000
10916W        W83341   9.263  31.066  14.370
10917W        W83342  17.295  14.161  13.861
10918W        W83343  21.520  18.659  13.905
10919W        W83344   8.235  38.017  13.499
10920W        W83345  20.677   1.903   3.677
10921W        W83346  14.802   9.179  12.398
10922W        W83347  42.019  31.581   2.756
10923W        W83348  18.226   7.401  10.991
10924W        W83349  32.634  36.411   4.322
10925W        W83350  11.623  14.227   5.308
10926W        W83351   0.890  34.531   3.733
10927W        W83352  42.521   8.340   0.257
10928W        W83353  40.948  12.277   2.817
10929W        W83354  43.325  16.618  11.535
10930W        W83355  17.236   3.952   4.120
10931W        W83356  12.786  39.484  11.944
10932W        W83357  32.027  14.641   1.710
10933W        W83358  16.307  34.923  14.423
10934W        W83359   2.244  34.112  11.074
10935W        W83360  30.020  14.750   3.364
10936W        W83361  25.698  11.715  13.547
10937W        W83362  27.990  40.031   1.783
10938W        W83363  39.454  42.836   0.406
10939W        W83364  24.693  22.190   4.129
10940W        W83365  42.859   9.759   2.892
10941W        W83366  15.178  36.894  12.934
10942W        W83367  43.327  18.586   1.906
10943W        W83368  16.085  16.592   1.418
10944W        W83369  29.956   1.477   4.650
10945W        W83370  33.540  23.048  10.509
10946W        W83371   6.261   0.757  12.986
10947W        W83372  23.208  33.386  11.990
10948W        W83373  16.790  44.421   0.853
10949W        W83374   3.404  24.656   1.885
10950W        W83375  14.758  20.083  14.904
10951W        W83376  14.127   2.797   0.756
10952W        W83377  19.047  24.677  11.886
10953W        W83378  34.555  18.711  13.348
10954W        W83379  15.757   2.902  13.437
10955W        W83380   3.339  42.953  13.061
10956W        W83381  29.430  41.882  13.794
10957W        W83382  26.108  26.691  10.514
10958W        W83383  28.602  26.481   1.866
10959W        W83384  40.881  11.331   1.237
10960W        W83385  11.703  37.397   3.191
10961W        W83386  24.113   7.874   2.772
10962W        W83387  32.066   3.746   1.695
10963W        W83388  14.824  11.823   0.801
10964W        W83389   4.855  12.300   2.226
10965W        W83390   6.378  37.384  13.064
10966W        W83391  41.007  16.665  14.921
10967W        W83392  22.238  30.537   4.146
10968W        W83393   7.807  14.210   3.662
10969W        W83394  29.451  18.595  10.447
10970W        W83395  28.681  33.618   1.775
10971W        W83396   6.786   1.969   1.782
10972W        W83397   9.394   3.357   2.357
10973W        W83398  22.603  33.412   4.602
10974W        W83399  29.142  28.079  11.981
10975W        W83400  26.519  36.949   4.282
10976W        W83401  43.497  21.047  13.062
10977W        W83402  33.408  35.442   0.889
10978W        W83403  17.594  44.792  14.313
10979W        W83404   7.195  42.425  10.433
10980W        W83405  22.642  10.347  14.380
10981W        W83406  35.876   1.444  11.908
10982W        W83407  41.303  24.573  13.861
10983W        W83408  32.630  43.326   3.801
10984W        W83409  14.742  29.462   0.799
10985W        W83410  33.500   4.227  10.030
10986W        W83411  32.616  22.689   1.711
10987W        W83412  25.600  40.840  13.911
10988W        W83413   4.934  25.487   4.686
10989W        W83414  38.858  39.535  12.488
10990W        W83415  33.615  16.249  13.337
10991W        W83416  35.941   8.858   0.381
10992W        W83417  22.672  39.393  13.385
10993W        W83418  17.616  21.152  13.336
10994W        W83419  33.015  43.316  13.841
10995W        W83420  44.455   2.452  14.335
10996W        W83421  18.588  15.165  12.900
10997W        W83422  21.225   9.878  13.967
10998W        W83423  19.233  15.623   3.738
10999W        W83424  20.239  39.974  13.821
11000W        W83425  25.552  23.039  10.957
11001W        W83426   2.293   5.713  10.441
11002W        W83427  20.769  19.138   3.370
11003W        W83428   1.874  15.238   3.781
11004W        W83429  24.512  13.689   2.729
11005W        W83430  25.540  40.936  13.476
11006W        W83431  38.058  32.594   1.897
11007W        W83432  19.549  37.934   0.919
11008W        W83433  20.547  23.135  10.487
11009W        W83434  19.182  25.607  11.389
11010W        W83435  15.279   5.803   2.676
11011W        W83436  12.329   6.303   2.291
11012W        W83437  11.646  32.002   5.272
11013W        W83438  36.382  18.227  12.836
11014W        W83439  15.172  31.044   4.278
11015W        W83440  38.045  26.615  10.057
11016W        W83441  21.131  40.490   4.682
11017W        W83442  12.227   5.802  14.871
11018W        W83443  36.067   9.841   3.348
11019W        W83444  26.529   7.717  10.936
11020W        W83445  21.611   5.319   4.251
11021W        W83446   4.210  39.880  10.918
11022W        W83447   1.800  30.913  11.863
11023W        W83448   7.398   3.268   1.877
11024W        W83449  20.721   1.351   2.388
11025W        W83450   3.846  21.038   0.932
11026W        W83451   2.776   5.810   2.348
11027W        W83452  30.001   8.803  11.931
11028W        W83453   8.268  35.432   4.238
11029W        W83454  17.598   0.491  13.931
11030W        W83455  43.773  19.591  10.606
11031W        W83456  21.138  34.049   1.317
11032W        W83457  18.593  29.514  11.396
11033W        W83458  16.217  36.352   0.814
11034W        W83459  15.246  24.682   0.812
11035W        W83460  28.112  25.075   3.801
11036W        W83461  33.905  28.540  10.500
11037W        W83462   7.232  17.632   3.179
11038W        W83463  22.242  43.513  14.324
11039W        W83464  23.620   3.364   4.164
11040W        W83465  21.079  14.600  12.959
11041W        W83466  29.078  25.107   4.151
11042W        W83467  41.537  28.956  14.992
11043W        W83468  34.108  21.514   3.275
11044W        W83469  42.001  21.227  10.619
11045W        W83470  41.357  24.626  10.636
11046W        W83471  30.545  43.838  14.026
11047W        W83472  14.782  22.225   9.958
11048W        W83473   4.211  36.504   1.807
11049W        W83474  11.218  37.404   2.790
11050W        W83475  40.943  13.142   3.780
11051W        W83476  10.720  17.585   3.656
11052W        W83477  22.171   1.384  11.501
11053W        W83478  15.801  12.198   3.864
11054W        W83479  19.743  12.172  14.924
11055W        W83480  11.294  33.388   3.281
11056W        W83481  34.096  22.596  10.558
11057W        W83482  19.772  33.467   5.271
11058W        W83483  39.980  23.721  13.816
11059W        W83484  11.623  15.786   3.251
11060W        W83485   8.821  30.486  14.824
11061W        W83486  42.026   8.274  12.452
11062W        W83487  25.663  27.114  13.975
11063W        W83488  11.756   8.226  11.031
11064W        W83489  41.907  43.920   0.315
11065W        W83490  37.979  34.952   3.193
11066W        W83491  37.493  37.422  10.610
11067W        W83492  40.982  29.582  11.422
11068W        W83493  10.843  21.186  14.904
11069W        W83494  34.381   2.301   4.286
11070W        W83495   6.333  14.799  13.369
11071W        W83496  44.898   3.710  13.816
11072W        W83497  24.578  15.246  10.543
11073W        W83498  23.565   9.738  13.512
11074W        W83499   1.325  15.652  14.759
11075W        W83500  38.021  14.681  11.101
11076W        W83501  16.631  34.114   4.161
11077W        W83502  44.773   7.822  13.504
11078W        W83503  35.086   4.910   0.911
11079W        W83504   2.756  43.507   4.292
11080W        W83505  33.547  31.494   4.159
11081W        W83506  25.126  44.466  10.146
11082W        W83507  34.565  39.935   1.753
11083W        W83508   0.424  42.450   2.722
11084W        W83509   6.901  39.427   4.712
11085W        W83510  41.389  37.461  11.893
11086W        W83511   0.864  40.320  12.838
11087W        W83512  40.892   5.362   1.816
11088W        W83513   2.316  32.921   3.318
11089W        W83514  34.474  29.630  11.094
11090W        W83515   3.415   8.264   1.901
11091W        W83516  37.576  18.787   4.272
11092W        W83517   3.808  12.138  12.024
11093W        W83518  43.005  12.827   1.263
11094W        W83519  40.542  19.213  10.900
11095W        W83520  17.643  24.090   0.811
11096W        W83521  39.368  34.391  11.111
11097W        W83522  43.398  27.598   1.336
11098W        W83523  15.259  33.490   2.749
11099W        W83524  17.600  25.026  14.774
11100W        W83525  43.952  13.243   0.285
11101W        W83526  26.182   7.857   1.272
11102W        W83527   0.289   5.392  11.436
11103W        W83528   2.841   5.409   4.787
11104W        W83529  44.869  34.056   2.795
11105W        W83530  15.151  43.982   2.225
11106W        W83531  19.249  42.433   1.349
11107W        W83532  41.859  28.549  11.060
11108W        W83533   5.249  19.584  13.918
11109W        W83534  27.185  25.653   2.360
11110W        W83535  24.115  21.075  14.937
11111W        W83536  43.417  32.075   3.716
11112W        W83537  17.668  11.308  13.440
11113W        W83538  44.927   6.380   4.311
11114W        W83539  22.213   1.467  12.418
11115W        W83540  10.668  13.801  10.892
11116W        W83541  16.221  37.537   1.741
11117W        W83542  25.025  18.254  12.432
11118W        W83543  15.134  30.982  14.279
11119W        W83544  34.436  44.383   4.253
11120W        W83545  20.186  20.689  14.804
11121W        W83546  10.341  17.254   4.195
11122W        W83547  12.327  43.399  12.031
11123W        W83548  35.551  32.580  14.359
11124W        W83549  26.556  21.224   1.932
11125W        W83550  13.768  32.973   2.746
11126W        W83551  16.078   0.347  11.417
11127W        W83552   8.810  21.034   1.268
11128W        W83553  27.959   8.394   2.369
11129W        W83554   1.378  26.007  13.906
11130W        W83555  43.923  36.463  10.619
11131W        W83556   3.716  15.093   3.762
11132W        W83557  12.825  43.767   0.789
11133W        W83558  29.072  26.080   2.258
11134W        W83559  19.077  33.601   0.390
11135W        W83560  42.930  17.133   2.336
11136W        W83561  33.420   5.899  10.969
11137W        W83562  12.256  38.506  11.383
11138W        W83563   7.403  10.236  12.457
11139W        W83564  38.947  42.306   4.611
11140W        W83565  27.981  20.203  12.528
11141W        W83566  33.495   6.394  14.965
11142W        W83567  10.848   4.438   2.735
11143W        W83568  32.932  43.007   1.398
11144W        W83569   4.883   6.883   4.237
11145W        W83570  26.076  21.248   1.840
11146W        W83571  24.698  36.880  11.005
11147W        W83572   0.371  12.302   2.242
11148W        W83573   6.744  24.034  11.595
11149W        W83574  44.974  44.385   1.924
11150W        W83575  18.569  33.967   0.785
11151W        W83576  41.816  43.835   5.154
11152W        W83577  14.279   8.742  13.010
11153W        W83578   9.759  14.775   4.313
11154W        W83579  21.751  32.918  14.439
11155W        W83580  21.562   6.388  13.858
11156W        W83581  36.415  35.061  11.078
11157W        W83582  18.601  36.450   0.752
11158W        W83583   0.765   8.183   1.753
11159W        W83584  16.713  44.814   3.786
11160W        W83585  35.536  41.428   2.264
11161W        W83586  20.261   9.728  14.809
11162W        W83587  44.864  32.443  13.419
11163W        W83588  20.623  30.623  10.010
11164W        W83589  17.241  43.288   2.669
11165W        W83590  42.008   9.352   1.366
11166W        W83591  31.559  26.966  12.976
11167W        W83592  27.585  33.108  11.119
11168W        W83593  23.993  25.197   4.828
11169W        W83594  25.992   3.281  13.476
11170W        W83595  26.539  34.429   4.707
11171W        W83596  40.488   9.225   2.878
11172W        W83597  14.140  32.630   5.248
11173W        W83598  35.077  36.427  11.396
11174W        W83599   4.772  40.995   3.630
11175W        W83600  10.231  23.727   0.836
11176W        W83601  15.107  12.844   1.898
11177W        W83602  32.982  33.883  14.424
11178W        W83603  30.056  31.949  11.531
11179W        W83604  17.122  40.455   2.674
11180W        W83605   5.688   7.859  13.944
11181W        W83606   8.256  22.555   2.408
11182W        W83607   4.800  15.167  12.017
11183W        W83608  41.842   5.336   3.785
11184W        W83609  37.082  30.606  13.984
11185W        W83610  35.595  15.284   0.940
11186W        W83611  19.187   3.244   4.780
11187W        W83612  24.020  43.982  10.440
11188W        W83613  13.166  23.735  13.014
11189W        W83614  32.123   8.883  11.018
11190W        W83615   7.863  28.998  13.914
11191W        W83616  21.652   2.773   2.298
11192W        W83617  13.680  23.587  10.534
11193W        W83618   8.792  44.264   2.857
11194W        W83619   6.834  14.101  11.049
11195W        W83620  41.044  33.098   1.349
11196W        W83621  38.878  28.548   2.360
11197W        W83622  26.161  31.574  12.533
11198W        W83623  30.012  11.718   3.756
11199W        W83624  29.069   9.743   0.354
11200W        W83625  33.081   4.282  13.362
11201W        W83626  21.570   9.393  10.948
11202W        W83627  30.915  23.507  13.795
11203W        W83628  14.775  13.754   0.400
11204W        W83629  19.729  28.111   1.440
11205W        W83630  15.274  31.047   3.332
11206W        W83631  15.579  25.040  11.935
11207W        W83632   6.284   9.325   4.831
11208W        W83633   4.287  11.781  10.985
11209W        W83634  16.134  31.592  14.284
11210W        W83635  40.969  38.492  11.865
11211W        W83636  17.580   2.254  14.345
11212W        W83637   7.852  21.632   1.774
11213W        W83638   5.426  11.247   2.679
11214W        W83639   9.753  39.968  10.415
11215W        W83640  16.277   0.789   1.220
11216W        W83641  32.455  12.198   2.669
11217W        W83642  23.026  31.975  10.630
11218W        W83643  42.458   4.449   1.902
11219W        W83644  16.771  44.461  14.944
11220W        W83645  22.541   5.795   3.840
11221W        W83646  38.339   8.805   2.857
11222W        W83647  13.728  19.549  13.414
11223W        W83648  22.564  18.105  11.435
11224W        W83649  28.579   0.314   4.254
11225W        W83650  15.594  12.144   1.371
11226W        W83651  29.016   3.370   2.662
11227W        W83652   3.780  42.865   9.969
11228W        W83653   0.802   6.742   1.762
11229W        W83654  44.818  42.307   3.364
11230W        W83655  30.476  30.423   1.451
11231W        W83656  21.117  10.146  10.075
11232W        W83657  30.015   5.424   4.348
11233W        W83658  25.113  14.277   3.312
11234W        W83659  17.615  32.474  11.611
11235W        W83660   3.860  11.626  13.407
11236W        W83661  30.057  38.895  11.089
11237W        W83662  41.373  38.071  13.320
11238W        W83663  24.496  14.135  11.039
11239W        W83664  10.249  23.079  11.935
11240W        W83665  31.135   1.736  11.923
11241W        W83666   5.406  14.166  13.369
11242W        W83667   9.648   8.366   0.914
11243W        W83668  19.616  40.402   0.470
11244W        W83669  17.633  11.631   4.206
11245W        W83670  37.565  33.496  14.465
11246W        W83671  30.015  28.053   3.371
11247W        W83672  31.541  24.072   3.372
11248W        W83673  12.770   3.736  14.907
11249W        W83674   6.223  27.087  10.552
11250W        W83675  16.574   3.273   0.285
11251W        W83676  19.131  32.449  12.833
11252W        W83677  20.065  22.113   1.278
11253W        W83678  31.967  40.904   1.697
11254W        W83679  25.580  12.819  11.602
11255W        W83680  38.471  28.954   1.926
11256W        W83681  19.253  12.259   1.356
11257W        W83682   4.708  23.205  13.043
11258W        W83683  38.342   1.961  13.369
11259W        W83684  30.577   5.703   1.772
11260W        W83685  34.508  19.228  10.470
11261W        W83686  19.198  12.668  13.448
11262W        W83687  41.382  19.744   4.633
11263W        W83688   7.354  29.538  11.041
11264W        W83689   7.391  27.999   3.698
11265W        W83690  29.643   8.705  14.921
11266W        W83691   3.339  30.998   3.216
11267W        W83692  33.903   5.801  14.497
11268W        W83693   0.470   1.835  12.520
11269W        W83694  13.623  41.360   2.730
11270W        W83695  42.395   2.467   1.748
11271W        W83696  39.907  15.685  10.046
11272W        W83697  34.947   2.310   2.410
11273W        W83698  21.047  33.116   0.258
11274W        W83699  23.173  18.695  13.878
11275W        W83700  24.511   2.785   2.801
11276W        W83701  36.972   4.245   1.366
11277W        W83702  27.461  37.400   3.344
11278W        W83703  32.439  16.601   5.239
11279W        W83704  17.672  33.469   1.868
11280W        W83705   6.230  39.908   2.185
11281W        W83706   3.884  20.098  11.577
11282W        W83707  11.621  30.493  10.642
11283W        W83708  41.306  24.171  14.855
11284W        W83709  11.710   0.946   1.820
11285W        W83710  22.613  22.212  14.300
11286W        W83711   6.375   6.794  10.576
11287W        W83712  32.913  25.140   4.149
11288W        W83713  36.525  17.791  10.545
11289W        W83714  14.690  33.614   3.319
11290W        W83715  21.176  11.137  11.857
11291W        W83716  13.207   9.237   2.214
11292W        W83717   5.359  41.401   4.827
11293W        W83718  36.908   7.270   3.754
11294W        W83719  37.050  44.313   0.370
11295W        W83720  13.315  36.485   4.619
11296W        W83721  35.509  19.065   4.186
11297W        W83722  32.905  31.145   4.336
11298W        W83723  39.966  38.847  11.565
11299W        W83724   4.268  25.675  12.411
11300W        W83725  38.900   6.405   0.369
11301W        W83726  40.343  27.679   3.215
11302W        W83727   1.482   6.759   3.759
11303W        W83728  21.204  34.521  11.434
11304W        W83729  35.860  40.482  13.957
11305W        W83730  11.368  41.487  13.546
11306W        W83731  24.095   8.267   5.120
11307W        W83732  14.787  29.101   2.285
11308W        W83733  30.927  35.509  14.771
11309W        W83734  18.694  16.805  13.867
11310W        W83735  39.833  34.380  13.510
11311W        W83736  13.718  18.786  11.376
11312W        W83737   6.258   0.300   1.878
11313W        W83738  19.555  22.528   4.636
11314W        W83739  36.427   9.287   1.797
11315W        W83740  41.991  16.187   2.878
11316W        W83741  17.788  27.176  13.343
11317W        W83742  37.456  32.565  13.985
11318W        W83743   0.826   1.843   2.261
11319W        W83744  21.517  25.170   1.764
11320W        W83745  28.667  26.575   1.368
11321W        W83746   9.823  41.328  10.567
11322W        W83747   4.824   6.785  12.400
11323W        W83748   9.173  22.677  12.404
11324W        W83749  20.680  28.950  11.521
11325W        W83750  37.981   0.380  11.442
11326W        W83751  12.357  10.862   4.235
11327W        W83752   0.954  23.702   3.200
11328W        W83753  35.973  17.123   4.784
11329W        W83754  39.516  12.773  11.535
11330W        W83755   5.285  44.307  12.408
11331W        W83756  25.148  44.293   3.803
11332W        W83757  25.217  15.608   1.404
11333W        W83758  39.317  21.712   3.782
11334W        W83759  40.897  19.270   0.392
11335W        W83760   2.290  17.197  10.616
11336W        W83761  30.505  14.332  12.413
11337W        W83762  20.247   5.361  13.989
11338W        W83763  29.610  39.556  14.429
11339W        W83764  28.620  10.382  10.022
11340W        W83765  23.600  18.087   3.761
11341W        W83766  40.910   7.311   3.205
11342W        W83767  17.658  32.016  12.936
11343W        W83768  16.285  31.616  13.858
11344W        W83769  14.221   0.900   3.226
11345W        W83770  11.359  10.299   2.785
11346W        W83771  29.961  34.541   4.243
11347W        W83772   2.283   5.845  14.286
11348W        W83773   6.800  32.555   2.761
11349W        W83774  29.432   0.885   0.371
11350W        W83775  10.640   5.758  12.574
11351W        W83776   9.271  10.220   1.816
11352W        W83777  17.660  38.016   3.650
11353W        W83778   3.330  22.590   0.435
11354W        W83779  33.393  16.192  13.980
11355W        W83780  29.107  25.688  12.434
11356W        W83781  23.061  19.710   0.888
11357W        W83782  24.540   1.395   3.279
11358W        W83783   9.370  12.849  11.901
11359W        W83784  37.423  11.196   3.719
11360W        W83785   8.722   7.765   4.197
11361W        W83786  35.407  44.848   4.184
11362W        W83787  11.201   6.780  14.335
11363W        W83788  39.419   0.346  11.493
11364W        W83789  13.258   5.765   3.385
11365W        W83790   9.668  14.100   3.150
11366W        W83791  18.283  41.014   3.677
11367W        W83792  26.199   0.375  10.509
11368W        W83793  15.228  20.084  12.896
11369W        W83794  32.532  26.485  12.356
11370W        W83795  35.080  10.211  12.064
11371W        W83796  21.682  30.946   4.215
11372W        W83797   3.383   7.667  13.053
11373W        W83798  35.525  29.467  14.381
11374W        W83799  37.879  14.163   1.751
11375W        W83800  30.489  34.477  13.952
11376W        W83801  31.928  23.167  11.578
11377W        W83802  18.607  32.540   0.897
11378W        W83803  44.854   2.887  10.529
11379W        W83804  37.454   1.283   3.721
11380W        W83805  30.482  38.398   2.324
11381W        W83806  18.282  39.534  12.977
11382W        W83807  40.360  20.169  11.121
11383W        W83808   6.343   1.921  13.961
11384W        W83809  17.078  15.254   3.339
11385W        W83810  37.479  32.561   2.686
11386W        W83811  40.996  26.057   4.804
11387W        W83812   0.393  16.652  13.023
11388W        W83813  31.436  11.146  11.482
11389W        W83814  37.023  39.475   3.310
11390W        W83815   8.811  35.574   1.803
11391W        W83816   9.656  34.979   1.285
11392W        W83817  16.151  34.471  12.494
11393W        W83818   2.777  15.729  11.445
11394W        W83819  18.640  23.670   3.837
11395W        W83820   8.703   2.457   5.321
11396W        W83821   5.364  37.004   3.348
11397W        W83822  26.954  22.565  12.452
11398W        W83823  17.194  26.565   9.988
11399W        W83824  41.503  35.056   3.315
11400W        W83825  19.693   7.720  11.557
11401W        W83826  32.577  22.615   2.385
11402W        W83827   8.794  21.636  10.514
11403W        W83828  38.931   3.824  14.951
11404W        W83829   3.406  31.445   2.220
11405W        W83830  44.356  26.955   3.720
11406W        W83831  36.955  28.073   1.889
11407W        W83832  28.931  30.078   4.226
11408W        W83833  23.236   4.882   4.655
11409W        W83834  23.582   8.239   1.779
11410W        W83835  29.094  26.191  12.412
11411W        W83836  40.373  43.334  14.481
11412W        W83837  17.300  25.649   2.897
11413W        W83838  39.831  15.587   4.350
11414W        W83839  15.779  21.109   2.849
11415W        W83840  36.852  33.505  11.497
11416W        W83841  29.643   2.359  13.455
11417W        W83842  25.177  35.978   0.279
11418W        W83843   3.868  16.106  12.051
11419W        W83844  44.938  42.473   0.869
11420W        W83845  26.565  19.720   2.202
11421W        W83846  14.698  28.610   4.658
11422W        W83847  27.153   1.881  14.873
11423W        W83848  36.508   1.868  10.641
11424W        W83849  38.522  18.105  13.514
11425W        W83850  12.225   5.782   3.188
11426W        W83851  42.030  35.500  12.533
11427W        W83852   8.808  21.031   2.200
11428W        W83853  27.024  41.500   0.739
11429W        W83854  28.060  17.260   3.367
11430W        W83855   0.982  36.514  14.450
11431W        W83856  35.031   8.328   2.698
11432W        W83857  18.242  11.257  13.813
11433W        W83858  43.773  17.560   3.670
11434W        W83859  19.553  16.572   1.715
11435W        W83860  16.629  18.763  10.429
11436W        W83861  20.702  34.906  14.825
11437W        W83862  40.004  31.522  10.451
11438W        W83863  26.490  30.580   3.718
11439W        W83864  35.485  34.979   3.849
11440W        W83865  11.705  13.265   3.236
11441W        W83866  17.129  40.945   3.650
11442W        W83867  19.746  18.167  13.006
11443W        W83868  13.684  18.703   0.817
11444W        W83869  18.296  41.821   2.800
11445W        W83870  21.031  26.661   0.883
11446W        W83871  17.633   4.337   3.289
11447W        W83872  18.244  18.659  14.411
11448W        W83873  16.257  44.940   4.292
11449W        W83874  43.891  10.710  13.830
11450W        W83875  44.935  33.935  11.585
11451W        W83876  21.704   1.952  13.480
11452W        W83877  24.161  41.472   0.930
11453W        W83878  37.561   1.827  10.035
11454W        W83879  13.771  15.759  14.826
11455W        W83880  25.580   4.289  14.932
11456W        W83881  12.142  18.589   4.632
11457W        W83882  31.942   5.410   1.926
11458W        W83883   5.338  27.090   4.826
11459W        W83884  19.657  40.419  11.507
11460W        W83885  42.293  43.287   0.852
11461W        W83886  44.904   6.259  10.472
11462W        W83887  24.536   9.783  14.985
11463W        W83888  15.655  31.913   4.623
11464W        W83889  37.992  11.738   3.252
11465W        W83890  28.542  19.730  12.946
11466W        W83891  34.454  30.943  12.874
11467W        W83892  38.376  30.441  11.914
11468W        W83893  29.466  36.041   1.407
11469W        W83894   1.749  40.050   3.670
11470W        W83895  13.741  17.579  11.913
11471W        W83896  44.266  37.462  10.455
11472W        W83897  20.051  12.692   0.832
11473W        W83898  15.662  22.105   1.398
11474W        W83899  10.341  34.960   5.251
11475W        W83900  38.536  34.400   4.141
11476W        W83901  32.626  20.743  14.455
11477W        W83902  10.830  33.919  13.999
11478W        W83903  38.477  10.749   3.188
11479W        W83904  42.300  21.245  12.373
11480W        W83905  11.731  31.907   0.396
11481W        W83906  19.594  27.975  12.064
11482W        W83907  21.133   7.187  13.956
11483W        W83908  20.058  22.170   3.647
11484W        W83909  25.623  15.652  14.418
11485W        W83910  43.426  32.987  13.893
11486W        W83911  10.221  19.088   0.394
11487W        W83912  19.641   4.295  14.972
11488W        W83913   6.740  19.176  14.419
11489W        W83914  25.540  36.988  12.483
11490W        W83915  30.569  44.972   2.226
11491W        W83916  43.960  31.081   2.699
11492W        W83917  17.243  38.464  10.499
11493W        W83918  25.991  35.055   3.665
11494W        W83919  24.016   3.943   3.375
11495W        W83920  36.910   7.196  13.540
11496W        W83921  44.263  41.862   2.306
11497W        W83922  25.660   3.240   3.635
11498W        W83923  33.569  42.990  10.482
11499W        W83924  32.118  19.057   9.674
11500W        W83925  25.087  13.153   1.791
11501W        W83926  35.909  26.535  14.894
11502W        W83927   6.314  20.174   1.832
11503W        W83928  29.943   1.802   1.720
11504W        W83929  37.946  24.501   3.840
11505W        W83930  18.779  13.277  13.447
11506W        W83931  25.642  15.695   0.365
11507W        W83932  27.086  17.224   3.713
11508W        W83933  35.088  25.072  11.438
11509W        W83934   4.279   8.829   1.270
11510W        W83935  44.784  17.116   4.206
11511W        W83936  13.759   2.457   3.749
11512W        W83937  24.051  36.433  12.460
11513W        W83938  41.389   1.855   0.387
11514W        W83939  42.476   4.363  11.430
11515W        W83940  25.531  27.613   0.298
11516W        W83941   9.218  27.074   0.742
11517W        W83942  38.828  43.300   9.923
11518W        W83943  41.394   3.836  11.910
11519W        W83944  39.832  40.818   4.120
11520W        W83945   0.949  43.827   3.167
11521W        W83946   9.694  15.195  10.915
11522W        W83947  43.861  39.856   2.191
11523W        W83948  29.100   3.914  13.408
11524W        W83949   5.880  43.389   4.621
11525W        W83950  40.849  44.898  11.063
11526W        W83951   3.751  31.628   4.137
11527W        W83952  32.907  33.944  12.865
11528W        W83953  13.348  35.032   2.373
11529W        W83954  38.053  30.064   0.264
11530W        W83955  33.461  31.940   0.779
11531W        W83956  24.716   6.206   2.264
11532W        W83957   2.809  36.962  11.898
11533W        W83958  39.397  10.729   0.737
11534W        W83959  30.533  27.603   4.247
11535W        W83960  11.850  28.439   3.281
11536W        W83961  15.582  44.762  14.000
11537W        W83962  43.888  35.439   3.309
11538W        W83963   7.800   6.816  13.899
11539W        W83964  43.270   2.282  11.912
11540W        W83965  22.085  12.178   0.824
11541W        W83966  38.948  12.676   1.900
11542W        W83967  36.937  24.614   2.841
11543W        W83968  26.152  24.573  10.983
11544W        W83969  28.544  15.197   1.370
11545W        W83970  10.338  29.025  11.935
11546W        W83971   8.275  41.955  10.915
11547W        W83972   9.317  26.121   1.433
11548W        W83973  44.502  34.869   9.944
11549W        W83974   4.301  11.357   1.893
11550W        W83975  33.916  25.677  13.512
11551W        W83976   4.910   0.882   2.283
11552W        W83977  16.660   9.762   1.828
11553W        W83978   7.360  38.065   1.903
11554W        W83979  29.160   5.369  11.074
11555W        W83980  22.062  17.196  11.603
11556W        W83981  10.287   0.405  11.578
11557W        W83982  35.364  36.890  12.066
11558W        W83983  42.304  39.002   4.685
11559W        W83984  17.193  32.585  10.993
11560W        W83985  43.363  16.120   2.374
11561W        W83986  16.776  25.163   2.401
11562W        W83987  20.143   1.372   4.210
11563W        W83988  44.284  13.642  14.361
11564W        W83989  38.511   1.852  13.017
11565W        W83990  33.959  20.691  11.576
11566W        W83991  21.166  33.564   1.424
11567W        W83992   7.815  21.100   2.748
11568W        W83993  15.754  40.488  10.629
11569W        W83994  34.568  36.457   4.314
11570W        W83995  24.480  10.355   4.642
11571W        W83996   2.779  20.736  11.043
11572W        W83997  14.685   1.429  12.447
11573W        W83998  37.512  34.388  14.965
11574W        W83999  27.092  15.114   1.842
11575W        W84000  34.078  23.236  14.870
11576W        W84001  42.017  24.992   4.333
11577W        W84002  44.930  44.856  10.605
11578W        W84003  15.187  22.512  13.364
11579W        W84004   1.843  36.051  11.455
11580W        W84005  19.622  33.466   2.394
11581W        W84006  22.114  42.920  11.061
11582W        W84007  31.589   1.396   2.391
11583W        W84008  41.031  43.923   3.336
11584W        W84009  27.539   3.255   4.768
11585W        W84010  36.027  32.580   4.707
11586W        W84011   8.739   8.392   5.586
11587W        W84012   7.738  39.508  10.480
11588W        W84013  14.758  34.053  14.494
11589W        W84014  42.835   4.825   3.686
11590W        W84015  17.118  42.000   4.767
11591W        W84016  24.017  37.913   2.349
11592W        W84017   9.755  35.364  14.786
11593W        W84018  17.188  12.169  11.385
11594W        W84019  18.744  33.973   1.795
11595W        W84020  19.706  12.719   3.247
11596W        W84021  23.681  41.930   0.359
11597W        W84022  33.898  37.435  10.413
11598W        W84023  36.381  44.951   4.627
11599W        W84024  28.641   6.900   4.205
11600W        W84025  30.085   3.862   3.815
11601W        W84026  43.367  24.610   2.289
11602W        W84027  34.994   1.316   3.859
11603W        W84028  43.946  24.126   3.387
11604W        W84029  38.030   8.881   5.316
11605W        W84030  32.428  21.624   4.317
11606W        W84031  12.821  16.774   1.286
11607W        W84032   2.746  43.975   3.354
11608W        W84033  21.179  41.538  13.828
11609W        W84034   3.716  16.754   2.662
11610W        W84035  12.179  42.791   5.120
11611W        W84036  15.694  15.600   3.320
11612W        W84037  11.201  18.607  12.845
11613W        W84038   7.363  13.636   1.884
11614W        W84039   9.676  36.587   4.166
11615W        W84040   3.949  33.936   2.368
11616W        W84041  15.243  11.669   0.294
11617W        W84042  39.347  33.417  11.534
11618W        W84043  12.353   1.356  11.119
11619W        W84044  34.586  27.983  12.419
11620W        W84045  40.488   9.244  11.469
11621W        W84046  11.782  25.153   5.221
11622W        W84047  16.746  32.099  11.049
11623W        W84048  44.841  23.530  13.036
11624W        W84049  20.555  43.372  14.906
11625W        W84050  35.054   3.272   3.212
11626W        W84051  39.038   9.155  13.520
11627W        W84052  13.754  42.015  13.978
11628W        W84053  37.352  28.507   1.810
11629W        W84054  18.607  22.019   0.410
11630W        W84055   5.415   8.394   2.770
11631W        W84056  31.428  17.164   2.266
11632W        W84057  41.963  27.474   2.684
11633W        W84058  33.505  36.437   0.784
11634W        W84059  41.789  26.558   1.243
11635W        W84060  15.294  25.021   1.924
11636W        W84061   3.448  33.115   1.304
11637W        W84062  27.624  23.227  14.398
11638W        W84063  34.928  22.669   4.678
11639W        W84064  14.663   7.793  11.871
11640W        W84065  36.975  16.096  12.340
11641W        W84066  24.103   2.939  13.438
11642W        W84067  29.631  21.153   3.711
11643W        W84068  14.196  40.920  12.534
11644W        W84069  15.770   1.819   0.857
11645W        W84070   9.348  13.229  10.574
11646W        W84071  10.682  37.857  14.497
11647W        W84072   4.266  28.951  14.503
11648W        W84073   3.937  44.327  11.430
11649W        W84074  37.540  32.628   4.348
11650W        W84075  33.561  34.535  10.941
11651W        W84076  38.054   2.954  13.405
11652W        W84077  37.481  11.223  11.929
11653W        W84078  26.120  20.565  14.447
11654W        W84079  16.784   6.809  13.503
11655W        W84080  20.614  41.417  10.891
11656W        W84081   7.180  43.825   0.304
11657W        W84082  10.236  36.862   1.826
11658W        W84083  38.487  16.804   2.690
11659W        W84084  26.977  30.646  11.551
11660W        W84085  32.620   2.954   1.908
11661W        W84086  27.073  13.715   0.874
11662W        W84087   5.777  40.806  14.478
11663W        W84088  38.467  12.661  10.620
11664W        W84089  16.774  20.062  11.068
11665W        W84090  12.837  24.721   3.737
11666W        W84091   6.410  32.435  11.439
11667W        W84092  17.297   2.733  13.935
11668W        W84093   6.899  19.225  13.010
11669W        W84094  40.508  30.476  10.410
11670W        W84095  18.716  36.390   1.262
11671W        W84096  39.982  38.570   4.158
11672W        W84097  18.087  33.087  13.441
11673W        W84098   3.800  32.437   1.245
11674W        W84099  21.219   2.417  13.528
11675W        W84100  43.789  38.467   2.243
11676W        W84101  25.479  18.161  13.315
11677W        W84102  22.241  32.039  11.958
11678W        W84103  20.746   1.304  13.435
11679W        W84104  38.865   8.680  14.002
11680W        W84105  10.155  32.062   1.231
11681W        W84106  16.166  31.456   3.826
11682W        W84107  31.127   0.832  12.877
11683W        W84108  43.801  38.993   4.236
11684W        W84109   5.264  16.653   0.910
11685W        W84110  23.715  32.496   0.346
11686W        W84111  22.090  10.303   3.367
11687W        W84112  43.846   2.929   1.379
11688W        W84113  18.651  30.957   4.323
11689W        W84114   0.284  25.999   3.762
11690W        W84115  30.945  12.700   3.181
11691W        W84116  19.248   1.946  13.008
11692W        W84117  32.479  26.624  11.056
11693W        W84118  16.221  32.941  12.431
11694W        W84119  34.914  16.155  11.995
11695W        W84120  26.564  16.311   3.297
11696W        W84121  14.820  43.021   3.327
11697W        W84122  32.946   1.454   3.741
11698W        W84123  31.622  10.851  10.589
11699W        W84124  42.784   5.848   3.862
11700W        W84125  10.696  18.207  12.443
11701W        W84126  24.666   2.292  13.052
11702W        W84127  33.624  16.695  10.544
11703W        W84128  12.324   3.276   2.229
11704W        W84129  11.184  22.741   3.200
11705W        W84130  41.882  37.558  10.616
11706W        W84131   2.875   6.865   0.484
11707W        W84132   3.838  27.088   0.398
11708W        W84133  29.602   6.239  11.541
11709W        W84134   0.381  28.450  11.542
11710W        W84135   3.857  43.773  12.428
11711W        W84136  16.811  32.462   5.681
11712W        W84137  11.755  36.866  13.327
11713W        W84138  10.776  10.172  14.390
11714W        W84139  44.757  40.918   1.396
11715W        W84140  42.469  23.621  10.414
11716W        W84141  11.758  24.645  10.571
11717W        W84142  12.205  30.468   4.655
11718W        W84143   9.686  37.953  10.574
11719W        W84144  23.046  31.579   0.963
11720W        W84145  27.175  19.187  10.494
11721W        W84146   1.751  35.595  11.377
11722W        W84147  18.122  31.007  11.426
11723W        W84148  32.543  25.141   5.128
11724W        W84149   8.285  31.466  11.998
11725W        W84150   0.745   3.910   4.188
11726W        W84151  39.332  37.415   2.785
11727W        W84152  38.832  12.128   0.960
11728W        W84153  21.058  21.620  13.323
11729W        W84154   8.261   7.735   3.729
11730W        W84155  35.542  11.197  10.413
11731W        W84156   0.405  25.146   0.481
11732W        W84157  26.531  43.885   3.180
11733W        W84158  27.041  18.200   0.472
11734W        W84159  39.372  21.651  12.881
11735W        W84160  14.633  30.115  12.457
11736W        W84161   0.369  16.735  11.532
11737W        W84162  36.846  12.690  10.428
11738W        W84163  42.861  43.848  11.957
11739W        W84164   3.223  40.960  12.560
11740W        W84165  18.773  19.131  11.064
11741W        W84166  23.648  27.638   3.359
11742W        W84167  38.983  23.501  12.837
11743W        W84168   2.888  28.090   3.801
11744W        W84169  21.169   2.791   1.762
11745W        W84170  44.442  43.316   2.884
11746W        W84171  42.971  44.305  14.352
11747W        W84172   9.830   6.425  14.417
11748W        W84173   8.237   1.340   2.814
11749W        W84174  44.298  32.542  11.448
11750W        W84175  18.773  10.825   0.740
11751W        W84176  44.861  41.462  13.333
11752W        W84177  38.824  37.574  14.441
11753W        W84178  30.049  11.687  14.775
11754W        W84179  30.481  43.466  13.958
11755W        W84180  20.610  27.566  12.899
11756W        W84181  23.696  33.476   3.701
11757W        W84182  40.503  16.227  13.045
11758W        W84183  17.609  30.656   3.659
11759W        W84184  20.263  27.602  13.429
11760W        W84185   6.919  27.081   3.729
11761W        W84186  13.813   8.736   4.324
11762W        W84187  42.009  26.054   4.790
11763W        W84188  44.337  22.539   3.285
11764W        W84189  39.512  24.649  13.969
11765W        W84190  29.132  43.833  13.519
11766W        W84191   3.280  43.361  10.405
11767W        W84192  35.510  31.128  13.342
11768W        W84193  37.869  20.751  11.859
11769W        W84194  21.693  42.995   4.798
11770W        W84195  20.621  11.189   1.275
11771W        W84196  18.764  34.378  11.055
11772W        W84197  34.590   6.346  11.906
11773W        W84198  29.088  16.598   4.817
11774W        W84199  27.643  18.757  11.026
11775W        W84200  32.023  36.404   2.668
11776W        W84201  36.076  22.190  13.979
11777W        W84202   6.413  23.191   0.396
11778W        W84203  12.359  11.623   3.766
11779W        W84204  33.582  21.150  12.445
11780W        W84205  28.573  11.356  13.308
11781W        W84206  23.130  41.352  10.949
11782W        W84207  24.669  39.415   2.336
11783W        W84208  30.950   4.772   1.848
11784W        W84209  44.768   4.439  10.913
11785W        W84210  38.856  14.811  12.859
11786W        W84211  16.740  40.834  12.412
11787W        W84212  44.306  41.414   1.807
11788W        W84213  19.196   7.733  14.935
11789W        W84214  19.263  30.013  11.556
11790W        W84215  27.942  10.289   2.378
11791W        W84216  44.787  25.547   3.334
11792W        W84217  12.806  11.337   1.844
11793W        W84218   9.178  23.568  14.435
11794W        W84219  37.378  19.607  12.380
11795W        W84220   8.857  39.504  14.797
11796W        W84221   5.396  43.412   0.281
11797W        W84222  36.948   8.340   3.163
11798W        W84223  39.931  39.831   0.875
11799W        W84224   1.345  26.501  14.382
11800W        W84225  20.053  36.492   1.222
11801W        W84226  40.895   3.354   1.382
11802W        W84227  29.084  44.262  14.905
11803W        W84228   2.888   5.267   0.471
11804W        W84229   6.793   7.903   2.189
11805W        W84230  44.326  42.404   0.903
11806W        W84231   3.941  39.515  14.026
11807W        W84232  26.997  14.337  12.018
11808W        W84233  37.335   7.220   2.856
11809W        W84234  37.963  28.552   3.811
11810W        W84235   7.341  34.560  14.848
11811W        W84236  42.421  39.980  12.390
11812W        W84237   1.748  19.256  13.418
11813W        W84238   5.237  13.682  14.381
11814W        W84239   7.712  44.757  11.004
11815W        W84240  22.150  20.088   4.679
11816W        W84241  41.361  37.545  14.858
11817W        W84242  23.017  18.082   0.847
11818W        W84243  10.322   7.706   2.374
11819W        W84244  21.146  20.572  14.017
11820W        W84245   1.771  15.680  13.956
11821W        W84246  12.302  23.509   3.869
11822W        W84247  13.788  24.001   4.313
11823W        W84248  15.224  16.756   1.381
11824W        W84249   4.916  36.575   5.214
11825W        W84250  40.471  41.353   3.166
11826W        W84251  11.135  38.075  13.385
11827W        W84252  15.301  43.288   3.343
11828W        W84253  33.569   3.912   1.729
11829W        W84254  30.080  34.993  14.305
11830W        W84255  33.116   6.311  12.957
11831W        W84256  44.808  15.607   1.863
11832W        W84257  33.519  20.137  11.987
11833W        W84258  40.488  14.762   0.938
11834W        W84259  41.447  35.026   4.768
11835W        W84260  26.032  26.126  14.987
11836W        W84261  23.083  12.839   0.946
11837W        W84262   7.392  15.285  11.053
11838W        W84263  40.499  17.176  10.030
11839W        W84264  19.729  41.907  14.446
11840W        W84265  13.755  31.424  12.929
11841W        W84266   8.736  36.045  13.005
11842W        W84267  33.576  23.099  14.993
11843W        W84268  22.627   0.861  12.570
11844W        W84269  43.501  44.457   0.308
11845W        W84270   9.351  20.085  10.987
11846W        W84271  17.697   8.166   3.646
11847W        W84272   0.943  41.529  14.895
11848W        W84273  41.872  42.946   3.795
11849W        W84274   8.211  24.122   1.325
11850W        W84275  30.014  23.531   1.932
11851W        W84276   1.298  26.602   1.878
11852W        W84277   7.867   9.350  10.984
11853W        W84278  31.582  32.905  12.048
11854W        W84279  34.970  25.102   1.711
11855W        W84280  39.432  40.483  12.916
11856W        W84281  28.618  22.065  11.950
11857W        W84282  40.047  18.739  12.094
11858W        W84283   1.278  41.443   1.211
11859W        W84284  29.927  18.274  12.825
11860W        W84285  36.351  22.504   1.347
11861W        W84286  38.393  19.768  10.569
11862W        W84287  14.214  40.305   3.654
11863W        W84288  34.076  43.477   4.184
11864W        W84289  34.004  34.879   1.406
11865W        W84290  43.911  14.293  13.525
11866W        W84291  20.229  19.591  14.454
11867W        W84292   4.336  21.630   2.180
11868W        W84293  21.198  22.071   3.838
11869W        W84294  29.008  44.381  11.935
11870W        W84295  42.486  32.886   2.803
11871W        W84296  14.159  13.206  10.587
11872W        W84297  15.306  42.369   2.314
11873W        W84298  37.032  42.352  10.943
11874W        W84299  29.605   8.744   3.333
11875W        W84300   3.414  18.194   0.830
11876W        W84301   8.350  26.495  10.596
11877W        W84302  27.122  17.769   1.352
11878W        W84303  37.036  43.802  11.510
11879W        W84304  40.443  19.159   2.344
11880W        W84305  24.613  37.512   0.313
11881W        W84306   5.865  19.203   0.766
11882W        W84307  18.732  20.609  12.914
11883W        W84308  22.672   2.240  14.760
11884W        W84309  17.189  34.065  11.408
11885W        W84310  23.690  41.912   1.337
11886W        W84311  27.622  16.679   3.255
11887W        W84312  26.054  28.490  14.505
11888W        W84313  27.140  29.995   2.366
11889W        W84314  22.248  44.374  12.530
11890W        W84315  28.535  25.993  13.957
11891W        W84316  26.588   3.763  12.524
11892W        W84317   9.204   6.887   1.306
11893W        W84318  23.044   9.837   3.706
11894W        W84319  36.943  38.538  10.571
11895W        W84320   3.344  44.918   2.813
11896W        W84321  32.464  17.164  10.478
11897W        W84322   4.702  11.159  10.016
11898W        W84323  24.675  12.244  13.374
11899W        W84324  28.014  38.038   1.406
11900W        W84325  11.310   3.847  11.588
11901W        W84326  32.434  36.959  10.461
11902W        W84327  17.791  39.501   1.760
11903W        W84328  30.577   5.903   4.329
11904W        W84329  20.683  33.098   4.235
11905W        W84330  39.849   8.850  10.547
11906W        W84331  16.621  41.967  12.556
11907W        W84332   6.745  34.000  12.361
11908W        W84333   4.810  10.380   2.255
11909W        W84334  13.159  41.445  12.480
11910W        W84335  40.367  20.624  12.375
11911W        W84336  36.028   0.829  11.899
11912W        W84337  14.188  26.652   2.271
11913W        W84338  44.870  42.473  13.822
11914W        W84339   9.275  29.615   4.153
11915W        W84340   8.277   4.721  10.563
11916W        W84341  23.164  39.353  10.581
11917W        W84342  38.014  19.209   3.338
11918W        W84343  32.581  20.596   3.186
11919W        W84344  39.365   0.355   9.946
11920W        W84345  41.788  12.797  10.978
11921W        W84346   4.346  15.304   0.900
11922W        W84347  18.720  34.084  11.944
11923W        W84348  35.937  20.565   4.271
11924W        W84349  15.324  41.881  12.577
11925W        W84350  19.587  32.054   9.436
11926W        W84351  14.173  43.778  14.288
11927W        W84352  24.643  31.490  11.864
11928W        W84353  21.724  23.112   1.398
11929W        W84354  10.749  36.423  12.841
11930W        W84355  22.013   4.936  12.553
11931W        W84356  15.160   6.388  14.890
11932W        W84357  39.809  10.290   3.203
11933W        W84358  42.420  27.589   4.158
11934W        W84359  11.810  30.571  13.047
11935W        W84360  25.218  34.935   3.198
11936W        W84361  20.135  43.908  11.408
11937W        W84362  34.060  44.424   1.362
11938W        W84363   5.701   7.765  14.767
11939W        W84364  34.885  39.487   1.420
11940W        W84365  14.598  36.098  10.994
11941W        W84366  19.133   0.794   3.870
11942W        W84367  41.503   1.343  13.890
11943W        W84368  39.023  10.738  13.856
11944W        W84369  19.057  14.814   4.815
11945W        W84370  13.764   2.798   0.246
11946W        W84371  34.952   3.919   1.853
11947W        W84372  25.164  32.541   2.771
11948W        W84373  27.607  37.491  12.056
11949W        W84374   7.290  22.505   2.894
11950W        W84375  35.424  25.040  14.793
11951W        W84376  40.466  38.549  12.483
11952W        W84377   4.918  29.988   1.387
11953W        W84378  33.539   3.930   3.385
11954W        W84379   9.713  12.641   0.409
11955W        W84380  21.124  14.598   4.760
11956W        W84381  26.521   9.317  12.353
11957W        W84382  25.984  38.871  13.528
11958W        W84383  19.719   4.933  11.550
11959W        W84384  16.634  12.235  13.954
11960W        W84385  17.136  23.100  15.000
11961W        W84386  44.990  26.154  14.001
11962W        W84387   4.744  12.805   2.707
11963W        W84388  34.872  12.155   2.414
11964W        W84389  38.494  20.106  13.995
11965W        W84390  17.272   0.391  10.980
11966W        W84391  20.111   6.804  13.309
11967W        W84392  43.414  26.677  14.956
11968W        W84393  28.601  23.643  14.371
11969W        W84394  44.943  19.061  13.980
11970W        W84395  28.130  17.658   0.394
11971W        W84396  23.056  13.301   2.208
11972W        W84397  21.745  35.929   0.256
11973W        W84398   2.726   8.188   0.245
11974W        W84399   6.276  22.133  14.930
11975W        W84400   8.750   3.780  13.979
11976W        W84401   4.242   6.186   4.708
11977W        W84402  19.637  31.144   1.765
11978W        W84403  44.903  40.953   2.749
11979W        W84404   9.225  38.371  10.546
11980W        W84405  24.593   9.204   0.949
11981W        W84406  21.218   8.792  11.374
11982W        W84407  22.160  22.094  10.416
11983W        W84408  20.033   4.890  12.050
11984W        W84409  31.480   4.222  10.467
11985W        W84410  40.390  25.199   0.768
11986W        W84411  28.666  38.571  12.383
11987W        W84412  39.434  18.686   0.333
11988W        W84413   6.785   7.393  14.864
11989W        W84414  31.637  34.530   1.211
11990W        W84415  32.127   3.880   1.407
11991W        W84416  34.563  10.299  12.913
11992W        W84417   7.300  21.237   1.922
11993W        W84418   1.956  38.960  13.854
11994W        W84419  42.494  42.347  13.926
11995W        W84420  30.488  14.269   4.263
11996W        W84421  31.599  34.451  11.008
11997W        W84422  32.524  19.652   0.805
11998W        W84423  44.915  11.666   3.723
11999W        W84424  18.704  10.857  11.597
12000W        W84425  43.436  28.604  13.048
12001W        W84426  27.561   8.281   4.218
12002W        W84427  27.951  25.069   1.230
12003W        W84428  38.841  29.981  12.538
12004W        W84429   6.862   3.937   1.885
12005W        W84430  35.916  24.228   0.882
12006W        W84431  43.315   5.873  11.944
12007W        W84432  23.996  35.978   1.398
12008W        W84433  33.937   7.283   1.795
12009W        W84434   7.187  39.851  10.551
12010W        W84435  25.659  25.560  14.284
12011W        W84436  19.221  41.915  12.390
12012W        W84437  36.351   4.316  12.508
12013W        W84438  29.075  29.053  11.987
12014W        W84439   0.307  38.400   1.705
12015W        W84440  22.110  20.231  11.526
12016W        W84441  40.538  12.245   2.374
12017W        W84442  24.120  35.382  14.928
12018W        W84443  17.288  35.444   0.798
12019W        W84444  20.166   3.935   1.717
12020W        W84445  30.531  43.399  13.535
12021W        W84446  18.584  36.588  11.387
12022W        W84447   5.793  36.074  13.827
12023W        W84448  33.104   5.805   0.329
12024W        W84449   2.441  36.908  12.036
12025W        W84450   0.865   1.931  14.376
12026W        W84451   7.724  17.306   4.829
12027W        W84452  10.770  38.894  11.998
12028W        W84453   2.337  28.065  14.966
12029W        W84454  29.449  25.618  13.532
12030W        W84455  40.973   8.331  14.399
12031W        W84456  22.240   4.907   1.801
12032W        W84457   7.246  21.040   4.203
12033W        W84458   8.698  19.649  11.415
12034W        W84459  34.022  44.870   2.897
12035W        W84460  44.460  39.551  14.928
12036W        W84461   6.911  36.077   3.843
12037W        W84462  42.944  14.195   0.469
12038W        W84463  34.599   3.876  13.460
12039W        W84464  20.569  19.780   1.346
12040W        W84465   3.408  10.644  10.446
12041W        W84466  24.508   3.762   3.853
12042W        W84467  17.164  39.399   3.349
12043W        W84468  17.267  18.637   0.472
12044W        W84469  36.488  44.292   5.105
12045W        W84470   0.431   0.808  12.930
12046W        W84471  31.077  10.754   2.409
12047W        W84472   2.353   6.287   0.320
12048W        W84473  29.441  25.549   3.834
12049W        W84474  24.679  40.986  13.421
12050W        W84475  23.002   6.703  10.505
12051W        W84476  33.491  32.545   4.676
12052W        W84477  21.066  22.021  13.359
12053W        W84478  21.571  25.112   2.834
12054W        W84479   9.255  42.482   1.241
12055W        W84480  20.744  27.640   4.280
12056W        W84481  35.094  33.584   1.215
12057W        W84482  12.329  10.653   1.765
12058W        W84483  11.720   7.286   2.816
12059W        W84484  23.497   6.725  12.495
12060W        W84485  16.147   1.806   9.645
12061W        W84486  17.758   0.270   0.446
12062W        W84487  36.413  21.587  13.062
12063W        W84488   2.323  33.520  13.048
12064W        W84489   3.262  27.190  11.060
12065W        W84490  38.464  24.496  10.114
12066W        W84491  41.492   2.904   4.712
12067W        W84492   5.438   5.748  12.496
12068W        W84493   4.923   5.751   0.803
12069W        W84494  10.352  43.768   2.260
12070W        W84495   3.845  20.590  13.956
12071W        W84496   0.928  24.109  10.921
12072W        W84497  27.014  16.628  10.553
12073W        W84498   6.820   1.750  14.016
12074W        W84499  29.163   2.892   1.872
12075W        W84500  26.071  39.397  11.480
12076W        W84501  23.183  25.095  12.555
12077W        W84502  26.091  37.539  10.931
12078W        W84503  34.937  20.212   2.238
12079W        W84504  21.072  32.457   2.319
12080W        W84505  39.876  31.426   4.835
12081W        W84506  29.940   5.721  12.922
12082W        W84507  22.556  22.133   0.754
12083W        W84508  30.518  11.129  10.429
12084W        W84509  23.030   7.365   3.816
12085W        W84510   7.783  40.030  14.364
12086W        W84511   4.393  26.648   1.399
12087W        W84512  19.101  10.850  13.493
12088W        W84513   3.341  28.671  10.546
12089W        W84514  11.272  38.343   2.879
12090W        W84515  14.248  28.450  11.021
12091W        W84516  28.061   4.890   0.425
12092W        W84517  31.547  14.589  11.525
12093W        W84518  25.017  26.614  14.312
12094W        W84519  32.633  26.563   1.853
12095W        W84520  25.035  11.327   4.617
12096W        W84521  22.244  32.099  13.046
12097W        W84522  43.405  18.285   3.864
12098W        W84523  42.309  12.842  13.368
12099W        W84524  26.059  20.116  12.886
12100W        W84525  10.718  11.137   0.335
12101W        W84526   8.381  18.103   4.177
12102W        W84527  38.833  19.576   2.198
12103W        W84528  17.300   8.714  14.404
12104W        W84529  13.343   9.317  14.976
12105W        W84530  32.408  35.569  11.117
12106W        W84531  16.196  22.589  12.466
12107W        W84532   3.781  39.486  12.343
12108W        W84533  23.709  32.504  10.571
12109W        W84534  31.470  32.471   1.877
12110W        W84535   8.735  37.041   5.308
12111W        W84536  26.477  12.233   2.809
12112W        W84537  19.046  36.870   1.812
12113W        W84538  17.295  32.983   0.900
12114W        W84539   8.319  12.758  12.913
12115W        W84540   6.752  28.129  11.404
12116W        W84541  31.531  21.683  12.055
12117W        W84542  44.811  27.593   0.255
12118W        W84543  22.102  30.567  10.639
12119W        W84544  40.464  43.433  11.499
12120W        W84545   2.261  37.376   4.122
12121W        W84546  14.266  11.264   1.217
12122W        W84547  35.563   5.698   0.821
12123W        W84548  39.358  26.627  14.374
12124W        W84549  20.548   0.417   2.733
12125W        W84550  12.321  32.460   1.808
12126W        W84551  16.607  25.173   4.340
12127W        W84552   5.802  12.298  13.492
12128W        W84553  15.132  36.979  11.905
12129W        W84554   1.460   3.850  14.373
12130W        W84555   6.720  41.970  14.309
12131W        W84556  29.054  15.804  11.038
12132W        W84557  12.251   6.343   3.263
12133W        W84558  32.510  19.200   3.213
12134W        W84559   0.936  24.035   4.794
12135W        W84560  26.674   6.381   1.775
12136W        W84561  28.043  31.638   3.828
12137W        W84562   2.408   0.429   0.822
12138W        W84563   1.894   2.938   4.654
12139W        W84564  37.910  44.803  13.435
12140W        W84565   5.723  41.040   0.363
12141W        W84566   9.696  20.585   4.834
12142W        W84567  18.092  11.179  14.496
12143W        W84568  33.438  26.588  11.561
12144W        W84569  37.410  31.950  10.599
12145W        W84570  39.483  27.643  11.437
12146W        W84571  42.033   2.300   2.306
12147W        W84572  14.614  37.370   3.278
12148W        W84573  15.633   8.901  10.999
12149W        W84574  23.723  36.059   3.206
12150W        W84575  18.588   0.960  12.085
12151W        W84576  35.053  27.553   0.822
12152W        W84577   1.747  41.386  11.045
12153W        W84578   4.303  36.887   2.258
12154W        W84579  10.801   5.358   2.782
12155W        W84580   4.433  36.470   3.200
12156W        W84581   0.819  10.697  13.880
12157W        W84582  14.219  10.293   4.775
12158W        W84583  28.996   4.396   1.335
12159W        W84584  32.115  26.465  14.416
12160W        W84585  42.402  10.200   1.789
12161W        W84586  24.211  43.887  14.484
12162W        W84587   8.304  44.438   0.809
12163W        W84588  28.652  40.805  14.429
12164W        W84589   9.322   9.273   1.211
12165W        W84590  37.533  25.031  13.517
12166W        W84591  13.210  41.952   4.832
12167W        W84592   6.429   6.293   3.798
12168W        W84593  30.067  38.331   4.304
12169W        W84594  28.143  20.151  12.967
12170W        W84595   0.902   5.317  13.358
12171W        W84596   3.447  40.309  14.929
12172W        W84597  39.343  29.136  12.430
12173W        W84598  30.578   1.888   0.875
12174W        W84599   8.730   2.948  14.491
12175W        W84600   0.848  23.103   2.264
12176W        W84601  29.563  16.220  10.599
12177W        W84602  28.620  18.172  12.039
12178W        W84603  41.320   4.912  11.537
12179W        W84604  28.028  17.740  12.045
12180W        W84605  27.092   4.933  13.956
12181W        W84606  32.478  26.562  14.370
12182W        W84607   7.417   2.949   0.815
12183W        W84608  44.866  28.569  11.415
12184W        W84609   1.762  38.033  12.365
12185W        W84610  28.533  44.317   3.264
12186W        W84611  21.602  27.148   3.159
12187W        W84612  42.490  27.530  14.762
12188W        W84613   5.390   2.756   2.808
12189W        W84614   7.242  44.766   3.198
12190W        W84615  36.368   3.395   1.878
12191W        W84616  40.805  30.022   4.247
12192W        W84617  22.738   4.410  13.451
12193W        W84618   9.179  13.341   3.704
12194W        W84619   0.758   0.960  10.047
12195W        W84620  27.483  39.447  10.461
12196W        W84621   7.766  11.168   4.648
12197W        W84622   8.306  42.472  14.903
12198W        W84623   0.743  19.106   4.717
12199W        W84624  20.094  11.796  11.543
12200W        W84625  20.144  26.009   1.308
12201W        W84626  31.478  17.225  14.332
12202W        W84627  42.844  18.216   3.700
12203W        W84628  22.519  10.684  10.098
12204W        W84629  37.384  29.987  12.342
12205W        W84630  22.251  40.428  11.859
12206W        W84631   9.678   1.769   4.785
12207W        W84632   9.241  27.184  11.522
12208W        W84633  23.490  32.958  12.005
12209W        W84634  36.585  35.379   2.860
12210W        W84635  32.089  11.824   0.439
12211W        W84636   6.781  24.086  10.516
12212W        W84637   5.284  10.289   1.802
12213W        W84638   9.356  33.542   3.270
12214W        W84639  17.739  34.439  11.538
12215W        W84640  15.582  34.463  11.476
12216W        W84641  17.802  26.125   4.602
12217W        W84642  18.237  23.723   4.626
12218W        W84643  22.105  22.711  14.815
12219W        W84644  35.880  41.370   1.268
12220W        W84645   5.221   0.953   3.641
12221W        W84646  43.311  12.838  14.849
12222W        W84647  28.133  35.914  14.310
12223W        W84648  32.415  18.196  12.569
12224W        W84649  26.068   6.295  11.922
12225W        W84650  33.887  20.608  12.401
12226W        W84651  41.476   4.367  11.885
12227W        W84652  23.625  11.651  10.989
12228W        W84653  18.664   4.382   0.413
12229W        W84654  41.391  30.479   0.773
12230W        W84655  15.690  39.913  13.419
12231W        W84656  10.811  20.087   4.146
12232W        W84657   4.302  35.500  12.862
12233W        W84658   5.311   3.310   3.746
12234W        W84659  18.670   7.889  12.991
12235W        W84660  26.956  31.009   0.780
12236W        W84661  35.874   6.882   0.786
12237W        W84662  18.745   3.878  11.049
12238W        W84663  19.701  20.129   2.264
12239W        W84664   5.807   1.769   3.733
12240W        W84665  23.115  29.975   0.863
12241W        W84666  13.700  36.853   3.836
12242W        W84667   9.319  30.547   1.291
12243W        W84668  29.136   9.154   0.736
12244W        W84669  43.867  13.641  12.857
12245W        W84670  24.569  16.220  14.343
12246W        W84671  44.981  23.492   3.366
12247W        W84672  37.924  29.094   3.184
12248W        W84673   2.460  37.546  12.838
12249W        W84674  15.124  23.636   3.221
12250W        W84675   8.304  38.468  10.113
12251W        W84676  26.143  38.383  13.904
12252W        W84677   4.804  18.263   0.372
12253W        W84678  37.892   2.765   2.699
12254W        W84679  27.962   1.276  14.937
12255W        W84680  33.587  32.411   1.444
12256W        W84681  27.601   9.675   3.858
12257W        W84682  33.405  34.970   4.628
12258W        W84683  18.670  21.137   4.648
12259W        W84684  11.845  11.226   0.887
12260W        W84685  39.473  23.174  10.589
12261W        W84686   5.411  40.938   3.808
12262W        W84687  18.557   8.806  10.439
12263W        W84688  25.492  40.798   2.355
12264W        W84689   7.214  39.365  12.504
12265W        W84690   9.856  19.717  11.539
12266W        W84691   3.229  31.983   1.771
12267W        W84692  32.080  23.227  13.808
12268W        W84693   2.941   3.340   4.222
12269W        W84694   7.334  15.316  14.476
12270W        W84695  38.955  26.615  14.879
12271W        W84696  28.576  30.573   2.210
12272W        W84697  24.097  38.840  12.404
12273W        W84698  25.145  29.043   1.403
12274W        W84699  44.483   3.274  12.406
12275W        W84700  13.130  40.424   3.704
12276W        W84701  38.024   6.848  12.532
12277W        W84702  18.240  38.474  13.887
12278W        W84703  19.204  22.227   0.368
12279W        W84704  18.710  18.610   3.310
12280W        W84705   3.433  31.511   4.824
12281W        W84706  16.756  21.058   0.408
12282W        W84707  25.197   2.345   4.115
12283W        W84708  24.498  16.126   2.770
12284W        W84709  37.496  41.376  11.119
12285W        W84710  10.262  14.176   2.700
12286W        W84711   2.386  35.441  14.390
12287W        W84712  40.852  36.366  13.855
12288W        W84713   4.274   1.850  12.990
12289W        W84714   3.951  40.502  11.086
12290W        W84715   3.272  24.725   0.267
12291W        W84716  44.259  39.984  11.452
12292W        W84717   1.366  43.937   2.842
12293W        W84718  32.603   0.262   4.154
12294W        W84719  27.645  39.422   2.376
12295W        W84720  28.617  29.136  11.024
12296W        W84721  16.099  19.178  11.558
12297W        W84722  25.987   9.338  14.922
12298W        W84723   1.919  15.220   1.767
12299W        W84724  20.537   5.412   1.383
12300W        W84725   5.332  42.337   0.842
12301W        W84726  30.121   6.198   1.414
12302W        W84727  23.132   9.826  12.078
12303W        W84728  22.223  10.719  11.554
12304W        W84729  21.065  38.462   4.789
12305W        W84730  21.586   0.374  11.859
12306W        W84731  30.961  36.034   3.277
12307W        W84732  41.324  23.716   0.344
12308W        W84733  22.076   4.888  14.768
12309W        W84734   9.284  14.122  14.997
12310W        W84735  13.325  40.941  10.504
12311W        W84736  33.607  35.430  14.899
12312W        W84737  26.700  17.797   3.295
12313W        W84738   4.874   6.889   2.715
12314W        W84739  30.575  21.640  13.436
12315W        W84740  28.166   2.910  12.501
12316W        W84741  26.684  36.887  14.330
12317W        W84742  11.195  39.503  10.445
12318W        W84743  25.649   1.775   2.664
12319W        W84744  36.924  36.482   2.251
12320W        W84745  24.668  27.586  11.910
12321W        W84746  12.212  27.034   2.395
12322W        W84747  20.532  20.552  14.011
12323W        W84748  23.986  14.691  13.314
12324W        W84749   7.808  18.675  11.415
12325W        W84750  25.197   5.842   4.785
12326W        W84751  37.841  24.097   3.769
12327W        W84752  27.956   5.230   4.197
12328W        W84753  14.676  10.787  13.352
12329W        W84754  36.003  30.134  14.509
12330W        W84755   9.383  12.660   1.422
12331W        W84756  22.142  41.511  12.982
12332W        W84757   2.240  11.143  13.370
12333W        W84758   4.813  28.617   2.812
12334W        W84759   5.390  22.595   4.352
12335W        W84760   0.888  41.033   4.176
12336W        W84761  43.412   8.788   0.456
12337W        W84762  22.035  13.216  10.912
12338W        W84763  22.223   5.252   3.830
12339W        W84764  43.940   0.924   3.382
12340W        W84765  38.976   8.700   4.301
12341W        W84766   8.355  13.127   0.747
12342W        W84767  23.688   7.783   3.211
12343W        W84768  18.594  28.441  14.000
12344W        W84769  30.603   4.366  11.090
12345W        W84770  31.521   9.318  14.513
12346W        W84771  33.115  12.327  10.939
12347W        W84772   7.711  22.095   4.673
12348W        W84773  19.268   8.768  12.897
12349W        W84774  19.095  23.149   4.225
12350W        W84775  23.216  16.576  11.942
12351W        W84776  27.662  40.510  13.491
12352W        W84777  41.987  44.463   0.745
12353W        W84778  12.721  12.167  11.996
12354W        W84779  14.290   9.725  11.121
12355W        W84780   4.306  29.497   0.785
12356W        W84781  16.252  23.032  13.364
12357W        W84782  10.309  32.939  10.954
12358W        W84783  43.904   4.233  14.439
12359W        W84784  26.021  36.014   2.413
12360W        W84785  22.054   0.489  10.625
12361W        W84786  13.349  28.679  10.534
12362W        W84787  35.854  34.042  12.883
12363W        W84788   0.346  24.578   4.295
12364W        W84789  39.955  21.624   3.844
12365W        W84790  26.502  38.843   4.757
12366W        W84791  13.789  38.074  13.832
12367W        W84792   0.263   3.859  11.524
12368W        W84793   6.726  27.126  10.891
12369W        W84794  28.041  17.079  10.020
12370W        W84795  44.908  12.194  12.537
12371W        W84796  38.883  17.615  12.025
12372W        W84797  32.532  35.405   4.282
12373W        W84798  18.721  42.293   4.168
12374W        W84799  27.498   2.461   2.215
12375W        W84800  12.267  22.720  10.522
12376W        W84801  10.241   7.759  12.539
12377W        W84802  27.009  24.636   1.431
12378W        W84803  13.290  40.520  12.520
12379W        W84804  37.927  32.112  14.838
12380W        W84805  35.452  19.174   2.711
12381W        W84806  36.041  39.360   1.275
12382W        W84807  17.598   6.378  12.444
12383W        W84808  38.859  13.335  11.385
12384W        W84809  18.573  30.653   4.816
12385W        W84810  34.871  10.201  14.281
12386W        W84811  13.790  32.629  12.857
12387W        W84812  18.779   1.864   9.540
12388W        W84813  25.042  34.036   3.855
12389W        W84814  32.425  30.958  14.896
12390W        W84815  39.917  35.019  11.491
12391W        W84816  44.897  15.649  10.048
12392W        W84817  41.460  22.176   3.636
12393W        W84818  11.254  38.043   2.231
12394W        W84819  36.857   8.202  12.516
12395W        W84820  19.557  21.182   4.157
12396W        W84821   8.255  39.869  11.472
12397W        W84822  18.095  11.811  11.092
12398W        W84823  31.988  29.050   2.715
12399W        W84824   6.816  36.367   0.303
12400W        W84825  39.359  42.372   0.478
12401W        W84826  18.611   7.821   1.310
12402W        W84827  43.459  23.505  11.062
12403W        W84828  15.085   6.367  14.382
12404W        W84829   7.795   0.274  11.445
12405W        W84830  13.309  16.780   1.931
12406W        W84831  41.396  27.042  10.442
12407W        W84832  39.009   7.218  13.318
12408W        W84833  21.577  31.941   0.933
12409W        W84834  13.163  39.062  11.441
12410W        W84835  23.077  44.352  11.377
12411W        W84836  34.080  27.551  10.580
12412W        W84837  23.054  27.966   2.798
12413W        W84838   7.229  41.536  13.930
12414W        W84839  10.851  43.944  13.375
12415W        W84840  16.605  19.215  13.428
12416W        W84841  40.414  42.813   3.673
12417W        W84842  26.975  13.126  11.957
12418W        W84843  14.309  24.571   5.684
12419W        W84844  13.789  37.582  12.909
12420W        W84845  20.578  30.549  13.356
12421W        W84846  38.476   7.346   3.762
12422W        W84847   7.383   8.831  10.913
12423W        W84848  37.834   3.817  12.870
12424W        W84849  31.955  30.597   1.258
12425W        W84850  41.996  44.856  12.919
12426W        W84851  11.212  29.011   4.208
12427W        W84852  22.562  20.564   4.201
12428W        W84853  25.057  10.188  10.456
12429W        W84854  13.746  24.215   1.347
12430W        W84855  24.508   3.325  14.513
12431W        W84856   8.202   7.778   0.306
12432W        W84857  31.009  23.553   5.309
12433W        W84858  15.188  14.690   3.162
12434W        W84859   7.175   4.354  14.974
12435W        W84860  30.014  17.682   9.452
12436W        W84861  11.258  30.133  13.870
12437W        W84862   9.294   7.695   0.449
12438W        W84863  22.641  25.148   1.442
12439W        W84864  24.054  40.906  12.035
12440W        W84865  22.234  39.024  12.455
12441W        W84866  18.122  43.502   1.330
12442W        W84867   4.414  27.495   4.836
12443W        W84868  35.097  15.318  11.520
12444W        W84869  20.063  21.188   0.384
12445W        W84870   2.270   8.309   4.181
12446W        W84871  26.523   9.670   3.269
12447W        W84872  28.539   2.385   1.716
12448W        W84873  10.201  37.076   4.195
12449W        W84874   9.868  26.565  12.050
12450W        W84875  35.451  43.912  14.809
12451W        W84876  42.508   8.842   0.330
12452W        W84877  12.646   9.203   0.847
12453W        W84878  11.129  10.797  11.975
12454W        W84879  34.073  42.438   2.720
12455W        W84880   7.850   6.335   4.733
12456W        W84881  16.118  24.058  13.843
12457W        W84882   6.234  35.582   1.283
12458W        W84883  30.937  24.065  14.920
12459W        W84884  20.227  12.358  13.331
12460W        W84885  40.025  10.334  14.301
12461W        W84886  24.077  30.030   1.292
12462W        W84887  33.515  30.925   3.236
12463W        W84888  17.771  20.730   4.811
12464W        W84889  30.470  43.447  12.548
12465W        W84890  32.084  42.411   2.797
12466W        W84891  31.415  37.550   1.304
12467W        W84892  40.409  35.405  13.402
12468W        W84893  17.567  33.096   2.293
12469W        W84894  36.442  11.324   2.811
12470W        W84895  12.206   2.802   4.228
12471W        W84896  41.844   3.399   5.135
12472W        W84897  31.908  28.649  12.082
12473W        W84898  43.946   1.758   4.603
12474W        W84899  21.069   9.759  10.631
12475W        W84900   1.379  39.035  10.102
12476W        W84901  34.910   1.927  14.446
12477W        W84902  37.073  22.666   1.911
12478W        W84903  16.141  27.537   0.879
12479W        W84904   8.889   7.856  12.551
12480W        W84905  27.538  27.102  12.498
12481W        W84906  42.004  11.696   4.188
12482W        W84907  42.839  40.516   4.351
12483W        W84908  14.732  35.939   5.260
12484W        W84909   1.829   7.331  11.963
12485W        W84910  11.294   4.803   0.398
12486W        W84911   4.717  35.853  11.393
12487W        W84912  28.648  36.369  10.528
12488W        W84913  33.391  24.146   3.809
12489W        W84914  28.041  11.331   1.896
12490W        W84915   3.788  33.387   2.748
12491W        W84916  35.857  24.518   0.253
12492W        W84917   1.464  42.004   3.168
12493W        W84918  28.648  34.588  10.433
12494W        W84919  39.435  27.987  13.898
12495W        W84920  22.189   2.430   2.310
12496W        W84921   2.356   9.695  13.316
12497W        W84922  42.333   3.740  13.356
12498W        W84923   4.274  11.753  11.378
12499W        W84924  12.708  39.324   2.355
12500W        W84925  25.605  40.974   4.733
12501W        W84926  25.003   7.871   3.739
12502W        W84927  22.194  11.658  14.811
12503W        W84928   7.202  42.999   3.254
12504W        W84929  28.176  25.141  11.586
12505W        W84930  40.960  28.933   0.762
12506W        W84931  20.237  44.268   3.685
12507W        W84932  44.761  39.411  10.605
12508W        W84933   9.241  23.069   2.286
12509W        W84934   8.847  33.035   3.740
12510W        W84935   2.774  37.988   3.377
12511W        W84936   5.930  15.768   9.940
12512W        W84937  41.891  44.380  11.928
12513W        W84938   0.383   1.751   4.191
12514W        W84939   9.334  21.753   3.754
12515W        W84940  24.173  19.138  10.492
12516W        W84941  40.318   0.869  10.999
12517W        W84942  26.995  29.116  10.532
12518W        W84943  30.585   4.352  14.344
12519W        W84944   3.286   0.447  13.046
12520W        W84945  29.567  36.475  14.007
12521W        W84946  29.022  41.905  12.902
12522W        W84947  16.663  40.409  11.883
12523W        W84948   0.945  13.208  10.457
12524W        W84949   8.198  29.503   1.860
12525W        W84950   7.868   4.356   0.249
12526W        W84951  40.890  41.442  12.575
12527W        W84952  20.223  31.587  14.996
12528W        W84953  21.117   2.243   0.791
12529W        W84954  35.887  22.167  11.919
12530W        W84955  40.850  42.369  14.441
12531W        W84956  44.756   1.469  13.936
12532W        W84957  38.478  44.874   1.853
12533W        W84958  17.187  37.542   2.314
12534W        W84959  41.953  42.525  13.998
12535W        W84960  11.308  34.041   0.309
12536W        W84961  16.308  43.786  12.913
12537W        W84962  44.343   5.395  11.101
12538W        W84963  44.367   7.682  14.489
12539W        W84964   3.380  29.058  10.585
12540W        W84965   9.703  13.241   0.939
12541W        W84966   6.797   7.750   4.695
12542W        W84967   2.900  30.484  11.042
12543W        W84968  26.140  44.435  14.902
12544W        W84969  26.047  31.970   9.604
12545W        W84970  14.615  43.884  13.896
12546W        W84971  21.135  42.502   4.279
12547W        W84972  23.557   0.316  10.972
12548W        W84973  27.670  41.420   1.398
12549W        W84974  24.590  22.096   1.841
12550W        W84975  14.175   0.264   2.735
12551W        W84976  44.967  18.127  11.536
12552W        W84977  27.152  27.684   0.333
12553W        W84978  19.095  42.374   0.869
12554W        W84979   6.254  44.010  13.361
12555W        W84980   1.423  19.194  11.608
12556W        W84981  34.990   7.765   2.857
12557W        W84982  37.356  28.009   2.272
12558W        W84983  25.637  15.262  11.428
12559W        W84984   7.899  41.961   3.666
12560W        W84985  35.585   7.829   4.795
12561W        W84986  41.881  24.579  14.027
12562W        W84987  37.371   4.819  13.531
12563W        W84988  11.735  23.213  14.834
12564W        W84989  38.053  22.996   1.737
12565W        W84990   0.447   4.882  13.973
12566W        W84991  21.661  16.205   2.722
12567W        W84992  28.640  27.972  11.428
12568W        W84993  35.071  21.617  12.080
12569W        W84994  10.656  14.802  15.000
12570W        W84995  23.182  35.504  14.484
12571W        W84996  23.542  17.665   0.955
12572W        W84997   8.249  32.895   4.114
12573W        W84998  36.524  28.986  13.500
12574W        W84999  36.008   8.322  11.400
12575W        W85000  44.933  19.599  14.393
12576W        W85001  40.507   1.471   3.373
12577W        W85002  35.579  26.565   2.893
12578W        W85003  12.684  34.498   1.382
12579W        W85004   1.785   6.743  11.111
12580W        W85005  41.362  29.151   3.330
12581W        W85006  27.668   6.280  12.354
12582W        W85007  37.460  38.484  12.501
12583W        W85008   1.851  16.721  12.547
12584W        W85009   7.821   4.242   2.750
12585W        W85010  10.723  30.105  13.978
12586W        W85011  14.700  18.665  13.915
12587W        W85012  28.046  10.755   4.148
12588W        W85013  16.712  21.243  10.618
12589W        W85014  43.389  10.248   4.815
12590W        W85015  16.802   5.862   1.698
12591W        W85016   4.833  12.715  11.612
12592W        W85017  36.481  30.011  14.383
12593W        W85018   4.369  32.033  14.442
12594W        W85019  35.458   1.249   0.438
12595W        W85020  34.600  17.237   2.856
12596W        W85021  42.879  25.520   2.301
12597W        W85022  32.985   2.898   2.672
12598W        W85023  33.621  44.781   4.738
12599W        W85024  14.664  41.403   0.842
12600W        W85025  16.076  14.646  12.984
12601W        W85026  21.224  20.163  11.955
12602W        W85027  14.806   8.387   0.895
12603W        W85028  27.156  10.356  13.335
12604W        W85029  22.649  22.118  10.466
12605W        W85030  20.273  44.772  13.519
12606W        W85031  39.897  29.076  10.947
12607W        W85032  21.741  10.199   4.346
12608W        W85033  26.168  33.925  12.404
12609W        W85034   9.327  18.718  12.559
12610W        W85035   9.308   9.258  11.416
12611W        W85036  41.500  24.557   2.835
12612W        W85037  12.853  10.306  14.501
12613W        W85038   9.331  18.700  10.463
12614W        W85039  22.697  24.656   0.398
12615W        W85040   4.925  37.497   0.821
12616W        W85041  10.806  44.483  13.978
12617W        W85042   8.166  41.361   3.856
12618W        W85043  28.956  42.808  13.346
12619W        W85044   8.255   9.276  11.072
12620W        W85045  42.514  26.515   1.903
12621W        W85046  28.154  27.068  13.959
12622W        W85047  28.525  36.539   1.769
12623W        W85048   2.272  21.642  14.810
12624W        W85049  44.978  19.701  11.483
12625W        W85050  20.548   4.333   2.863
12626W        W85051  11.829  33.005   3.778
12627W        W85052  20.069  36.521   0.830
12628W        W85053  41.442  36.350  13.386
12629W        W85054  12.121   8.306   2.664
12630W        W85055  26.039  32.401  12.855
12631W        W85056   6.187  24.519   1.857
12632W        W85057  17.248  36.046   2.265
12633W        W85058   2.334  39.449   1.391
12634W        W85059   3.803  27.614   0.383
12635W        W85060  10.695  34.372   0.448
12636W        W85061  32.987  32.595   1.849
12637W        W85062  25.610  40.476   2.219
12638W        W85063  19.567  26.458  10.492
12639W        W85064  30.460  24.636   2.727
12640W        W85065  41.897  29.558  10.515
12641W        W85066  34.609   9.848  13.436
12642W        W85067   0.268  44.350  12.926
12643W        W85068  32.487  38.880   0.441
12644W        W85069  20.250   8.712  12.580
12645W        W85070  13.668  37.010   1.928
12646W        W85071  20.054  26.568  11.470
12647W        W85072  25.563  17.277   1.890
12648W        W85073  42.920   4.837   1.252
12649W        W85074  32.089  15.102   1.751
12650W        W85075   0.935  26.954  10.962
12651W        W85076   0.965   5.780   3.712
12652W        W85077  37.864  27.464   2.724
12653W        W85078  19.116  35.476  11.385
12654W        W85079   5.332  29.571   2.375
12655W        W85080  26.073  35.514   1.865
12656W        W85081  14.256  44.322  13.523
12657W        W85082  16.692  27.551  12.902
12658W        W85083  12.706  11.817  13.465
12659W        W85084   4.293  44.922   2.225
12660W        W85085  33.034   9.382   4.246
12661W        W85086  25.498  13.638  11.994
12662W        W85087  32.416   3.726  13.851
12663W        W85088  10.223  39.418  14.831
12664W        W85089   8.738   4.418   4.348
12665W        W85090  10.866  27.119  12.068
12666W        W85091  38.986  31.016   0.773
12667W        W85092   3.951  42.921   3.374
12668W        W85093  18.575  20.147  11.472
12669W        W85094   9.358  36.031   2.764
12670W        W85095  17.735  35.935   0.461
12671W        W85096  33.002   2.429   1.857
12672W        W85097  29.093  22.625  11.019
12673W        W85098  10.311  44.999   3.710
12674W        W85099  42.857   7.679   1.806
12675W        W85100   7.827  18.073   1.446
12676W        W85101  18.613  30.110  13.026
12677W        W85102  37.493  15.807   3.731
12678W        W85103  18.603  44.488   1.353
12679W        W85104   7.370  31.952  11.970
12680W        W85105  31.065   0.758   2.323
12681W        W85106  32.476  28.139  12.502
12682W        W85107  36.858   9.763   4.725
12683W        W85108   3.723  25.051   0.382
12684W        W85109  17.743  38.929   0.250
12685W        W85110  23.705  40.836   4.203
12686W        W85111  31.989  29.645   2.294
12687W        W85112  43.502  29.013   4.771
12688W        W85113  44.803  12.683  11.596
12689W        W85114   9.306  17.114  11.935
12690W        W85115  36.589  16.170  13.438
12691W        W85116   7.386  43.412   0.326
12692W        W85117  32.405  12.611   2.748
12693W        W85118   5.859  40.365   3.163
12694W        W85119  43.978  27.045   1.781
12695W        W85120   6.348  25.965   3.180
12696W        W85121  14.208  27.523   1.827
12697W        W85122  40.308   2.253  12.363
12698W        W85123  33.575  37.954   1.782
12699W        W85124  27.516   1.875   2.180
12700W        W85125   5.745  38.959   4.164
12701W        W85126  24.482  29.652  12.842
12702W        W85127  25.029  42.939  14.464
12703W        W85128  25.114  43.426   0.442
12704W        W85129   5.763   9.383  14.367
12705W        W85130  33.551  28.077   0.342
12706W        W85131  36.872  42.956   2.282
12707W        W85132  14.599  11.177   0.778
12708W        W85133   3.792   9.792  11.112
12709W        W85134   1.255  18.143   2.669
12710W        W85135  29.929  43.772   0.304
12711W        W85136   5.392  21.659  11.450
12712W        W85137  40.481   5.699  14.031
12713W        W85138  10.381  30.978   0.786
12714W        W85139  17.183   0.901   3.730
12715W        W85140   2.909  18.605   4.763
12716W        W85141  14.140   2.909   4.337
12717W        W85142   5.929  14.747  12.524
12718W        W85143  27.460  35.371   0.784
12719W        W85144  10.646  41.421   3.655
12720W        W85145  32.023  11.664   5.132
12721W        W85146  39.989   0.458   5.760
12722W        W85147  16.628  10.814   0.323
12723W        W85148  18.791  25.020  12.013
12724W        W85149  16.148  20.715  10.477
12725W        W85150  14.331  15.766  14.294
12726W        W85151  29.086  25.983  12.979
12727W        W85152  30.455  30.533   1.806
12728W        W85153  38.941  20.637   1.702
12729W        W85154  21.063  15.603   4.234
12730W        W85155  14.743  34.562   0.285
12731W        W85156  30.650  26.566  11.553
12732W        W85157  36.416  43.445   2.885
12733W        W85158  10.235  18.568   4.661
12734W        W85159  35.996   6.355   0.382
12735W        W85160  25.078  35.408   1.736
12736W        W85161  12.292  35.867   3.692
12737W        W85162  11.137  37.498   3.749
12738W        W85163  31.093   0.420   2.741
12739W        W85164  44.443  42.863   0.335
12740W        W85165   0.458  41.477  14.838
12741W        W85166  40.039   5.791   3.749
12742W        W85167  25.045  35.984  14.369
12743W        W85168  23.232  28.131   3.347
12744W        W85169  34.379  16.623  13.835
12745W        W85170  25.002  34.014   4.280
12746W        W85171   7.250  40.038   1.884
12747W        W85172  26.037  14.137  13.309
12748W        W85173  25.028   1.398  11.579
12749W        W85174   6.758  23.094  13.836
12750W        W85175  25.567  15.192  12.960
12751W        W85176  21.623  40.549  12.834
12752W        W85177  16.281  44.264   3.313
12753W        W85178   2.441  42.888  12.092
12754W        W85179  43.831   5.850  12.094
12755W        W85180  10.194   8.288  13.488
12756W        W85181  15.091  36.409   2.750
12757W        W85182  24.483  16.227  12.357
12758W        W85183   8.269  41.903   2.409
12759W        W85184  42.887   0.458  14.511
12760W        W85185  28.037  44.943   1.713
12761W        W85186  41.946  16.761  14.799
12762W        W85187   5.407  31.577   2.712
12763W        W85188  34.042   1.959  10.901
12764W        W85189  12.299  11.254   4.254
12765W        W85190  24.977   8.345  13.489
12766W        W85191  15.244   3.838   0.729
12767W        W85192  27.165  40.549  12.495
12768W        W85193  35.078  19.748   0.445
12769W        W85194  42.921  11.864  11.406
12770W        W85195  33.009  28.673  13.902
12771W        W85196  21.576  16.802  14.985
12772W        W85197  11.746   4.734   0.247
12773W        W85198  44.447  42.867   2.727
12774W        W85199  37.868  38.989   4.803
12775W        W85200  40.312  33.457   1.711
12776W        W85201  10.314   9.832  13.352
12777W        W85202  37.433   9.743  14.821
12778W        W85203  25.118   1.933   2.751
12779W        W85204  21.542  35.886   3.857
12780W        W85205  20.222  21.180   0.733
12781W        W85206   8.897  15.659  13.056
12782W        W85207  38.852   0.320  12.434
12783W        W85208  15.211  14.113   0.836
12784W        W85209   2.721  24.092   3.158
12785W        W85210  13.149  34.906   0.294
12786W        W85211  43.908  41.439  12.496
12787W        W85212  25.621  40.487   3.723
12788W        W85213   3.863   1.813  11.491
12789W        W85214  27.112   1.329  13.930
12790W        W85215  18.769  17.624  12.072
12791W        W85216  26.551  17.141  13.445
12792W        W85217  12.738  26.680  14.369
12793W        W85218   3.356  34.043  11.473
12794W        W85219   7.390  32.601   1.364
12795W        W85220  43.910  35.109   2.691
12796W        W85221   5.230  43.974  11.501
12797W        W85222  42.422   0.342   2.827
12798W        W85223  29.484  44.951  11.096
12799W        W85224  19.712  38.527  12.355
12800W        W85225  29.590   3.287  10.612
12801W        W85226  24.184  22.563   1.885
12802W        W85227   2.799   8.786   3.156
12803W        W85228  20.747   8.405   1.394
12804W        W85229   3.759  30.069   3.758
12805W        W85230  44.899  16.114   1.363
12806W        W85231  38.880  44.862  11.919
12807W        W85232   6.409  19.157  13.351
12808W        W85233  14.695  14.790   0.344
12809W        W85234  22.597  34.406  11.925
12810W        W85235  23.532  41.519   1.850
12811W        W85236  13.843  10.812  11.948
12812W        W85237  32.583  13.350   4.334
12813W        W85238  41.949   9.325   0.370
12814W        W85239  11.741   4.413  14.848
12815W        W85240  14.593  32.577   4.288
12816W        W85241  40.888  18.085  14.826
12817W        W85242  25.690  14.713   4.166
12818W        W85243   7.346   4.253   0.245
12819W        W85244  37.413  39.376   1.260
12820W        W85245  29.922  25.593  13.846
12821W        W85246  17.286  39.940   2.348
12822W        W85247   8.182  15.132  12.513
12823W        W85248   5.765  13.601   3.831
12824W        W85249  26.465  26.703   0.749
12825W        W85250   0.387  37.893  14.289
12826W        W85251  13.247  25.616  10.594
12827W        W85252  43.806   8.890  10.420
12828W        W85253  22.144  28.677   1.311
12829W        W85254  22.609  29.096  13.537
12830W        W85255  35.467  33.130   3.355
12831W        W85256  33.041  10.874   4.649
12832W        W85257   4.306   9.682   0.912
12833W        W85258  38.880  28.950   1.756
12834W        W85259   2.798  35.556  13.529
12835W        W85260  36.572  11.336  12.892
12836W        W85261  38.326  41.014  13.329
12837W        W85262  16.767  32.090   2.249
12838W        W85263  34.428  18.777  13.896
12839W        W85264  28.535  13.757   2.324
12840W        W85265  20.578  38.896   2.237
12841W        W85266   3.376   8.668   2.326
12842W        W85267  40.896   9.727  11.865
12843W        W85268   3.318   9.727   1.278
12844W        W85269  43.324   0.273  12.057
12845W        W85270  15.300  43.811   4.699
12846W        W85271   5.390   0.848  10.036
12847W        W85272  13.669  31.966   1.284
12848W        W85273  28.135  19.584   0.782
12849W        W85274  14.177  35.522   2.261
12850W        W85275  33.491   9.356   3.234
12851W        W85276  32.052  30.072  10.990
12852W        W85277   4.251  14.148  11.078
12853W        W85278  39.439   7.265  12.931
12854W        W85279  25.575   7.751   4.700
12855W        W85280  10.824  24.019   2.401
12856W        W85281  21.263  21.225   0.291
12857W        W85282   7.692  16.587  11.530
12858W        W85283  43.516  35.037  12.503
12859W        W85284  32.000  19.069   2.316
12860W        W85285   0.989  36.398   3.375
12861W        W85286  25.685  43.394   3.179
12862W        W85287  27.679  21.600  11.401
12863W        W85288  20.207  16.171  13.404
12864W        W85289  31.914  20.031  13.957
12865W        W85290  25.640  11.351   0.814
12866W        W85291  21.570  20.156   0.371
12867W        W85292  21.748  40.308  13.487
12868W        W85293  31.516  37.497  14.990
12869W        W85294  12.757  17.581  11.404
12870W        W85295  41.788   1.772   0.356
12871W        W85296   5.838   1.477   1.224
12872W        W85297   5.692   5.893  11.942
12873W        W85298  30.994  25.172  11.504
12874W        W85299   8.395  44.340  11.946
12875W        W85300  27.584  20.056  10.471
12876W        W85301  24.721  18.137  14.849
12877W        W85302  18.782  12.746   0.839
12878W        W85303  32.417  39.557  11.107
12879W        W85304  21.536  22.058   2.753
12880W        W85305  25.711  35.968   2.410
12881W        W85306  41.958  33.130   0.436
12882W        W85307  15.131  12.622   4.306
12883W        W85308   2.271  14.785  13.955
12884W        W85309  29.133  13.665   3.367
12885W        W85310  23.503   3.328   2.223
12886W        W85311  44.321  40.370   2.332
12887W        W85312  43.508  40.019   0.307
12888W        W85313  28.133  19.760  13.870
12889W        W85314   7.325  29.961  11.963
12890W        W85315   8.747  24.632   3.718
12891W        W85316  40.446  10.329   5.122
12892W        W85317  28.041  27.493  13.904
12893W        W85318  37.992  27.156  10.909
12894W        W85319  12.353  26.132  10.578
12895W        W85320  31.631  33.586  13.792
12896W        W85321  33.478  25.504   0.844
12897W        W85322  20.637   6.775  11.375
12898W        W85323  24.974  31.966  12.390
12899W        W85324   6.684   9.795  13.401
12900W        W85325  17.802  40.352   1.696
12901W        W85326  11.706  41.391  13.911
12902W        W85327  29.582   9.717  11.438
12903W        W85328   0.447  21.101   2.303
12904W        W85329  25.105  16.643   1.320
12905W        W85330  17.748  16.676  14.864
12906W        W85331  16.224  44.288  11.984
12907W        W85332   4.338  23.996  11.520
12908W        W85333   2.402  33.545  14.429
12909W        W85334  27.477  29.009   1.248
12910W        W85335  44.329  27.104  11.870
12911W        W85336  34.118  31.006   1.919
12912W        W85337  35.501  28.136  10.498
12913W        W85338  12.650   1.271   3.322
12914W        W85339  14.163  12.730   0.325
12915W        W85340  19.134   3.887  14.338
12916W        W85341  34.423  38.412  13.489
12917W        W85342  18.061  38.940  10.526
12918W        W85343  26.133  42.980  10.134
12919W        W85344  19.768  21.520  13.522
12920W        W85345  17.166  26.204  14.820
12921W        W85346  18.767  13.290   3.167
12922W        W85347  24.063  28.048   1.924
12923W        W85348   6.764   9.648   0.265
12924W        W85349  19.116  36.511   4.265
12925W        W85350  36.897   0.952  14.415
12926W        W85351   2.389  18.067   4.758
12927W        W85352   0.357  19.122  12.883
12928W        W85353  38.398   8.360   1.781
12929W        W85354  25.164  15.250   3.699
12930W        W85355  17.295  27.133  13.024
12931W        W85356   4.913   8.788  12.885
12932W        W85357   9.663  36.438   2.183
12933W        W85358  24.040  23.990  14.421
12934W        W85359  15.818  27.669   1.451
12935W        W85360  31.617  28.944   3.778
12936W        W85361  13.679  33.587   1.242
12937W        W85362  39.841  27.057   2.414
12938W        W85363   1.312  13.327  12.032
12939W        W85364  18.168  19.759  13.447
12940W        W85365  35.378  13.766   0.398
12941W        W85366  38.386   2.950  14.829
12942W        W85367   6.350  38.898   3.213
12943W        W85368   8.661  28.075   2.247
12944W        W85369  41.305  14.808  13.808
12945W        W85370   1.921  32.006  12.485
12946W        W85371  11.143  13.302  12.532
12947W        W85372  32.978  26.051  11.925
12948W        W85373   7.792  19.237   2.705
12949W        W85374  24.525  43.010   3.175
12950W        W85375  39.832  44.853   5.208
12951W        W85376  29.574   1.443  12.448
12952W        W85377   7.677  44.967   4.603
12953W        W85378  41.313  42.450  11.966
12954W        W85379  21.660  43.806   2.413
12955W        W85380  11.147  33.029  14.989
12956W        W85381  20.663   5.247   2.808
12957W        W85382   1.790  29.058  13.384
12958W        W85383  27.512  22.583   2.330
12959W        W85384  10.370  20.248  12.031
12960W        W85385  25.536  34.093  11.975
12961W        W85386  19.241  44.358   3.365
12962W        W85387  37.539  10.303   4.205
12963W        W85388  33.041  12.137  13.939
12964W        W85389  22.217  15.158  11.483
12965W        W85390   5.424   0.433  11.964
12966W        W85391  39.838  29.574  12.866
12967W        W85392  40.855  25.171   1.703
12968W        W85393  39.338  42.788   1.829
12969W        W85394  26.471  16.231  12.893
12970W        W85395  32.100  38.349   3.174
12971W        W85396  25.999  28.655   2.354
12972W        W85397  12.173  15.195   1.279
12973W        W85398  26.509   1.370   0.860
12974W        W85399   4.316  29.608   4.718
12975W        W85400  24.546  24.512  13.000
12976W        W85401  21.103  32.585  11.981
12977W        W85402  19.608  38.870   5.130
12978W        W85403  25.628   4.329  10.901
12979W        W85404   6.233  25.986  11.083
12980W        W85405  29.487   4.310  11.402
12981W        W85406   9.300  10.147  10.436
12982W        W85407  43.796  31.961  13.831
12983W        W85408  44.369  22.746  10.066
12984W        W85409  12.671  22.551   4.658
12985W        W85410  39.918   2.275  12.434
12986W        W85411  38.365  27.050  12.443
12987W        W85412   3.317  27.110   3.849
12988W        W85413  44.484  32.089   1.347
12989W        W85414  10.307  12.776  11.125
12990W        W85415  35.088  33.410  14.465
12991W        W85416  42.006   8.731   1.306
12992W        W85417   2.901  38.918   0.738
12993W        W85418   3.823  44.950  11.087
12994W        W85419  40.919  43.479  12.404
12995W        W85420   0.870  27.014   2.871
12996W        W85421  40.811  11.254  13.840
12997W        W85422   9.345  41.835   4.671
12998W        W85423  13.743   5.919   3.682
12999W        W85424  35.091   5.267   3.314
13000W        W85425  24.048  26.060   3.202
13001W        W85426   1.765  38.463   4.692
13002W        W85427  43.993  40.454  12.494
13003W        W85428   8.203   1.329  10.632
13004W        W85429  16.308   6.313  13.341
13005W        W85430  10.736  20.058  14.357
13006W        W85431  16.158   1.434   4.156
13007W        W85432   3.288  29.161   2.273
13008W        W85433  16.777  17.190  13.002
13009W        W85434  23.619   6.768  13.480
13010W        W85435  41.918   8.311  13.372
13011W        W85436  31.425  37.983   1.405
13012W        W85437   5.732  36.925   0.812
13013W        W85438   8.802  20.702  12.536
13014W        W85439  31.524  29.156   2.735
13015W        W85440  29.574  37.999  13.811
13016W        W85441  40.897   2.408  13.974
13017W        W85442  15.154   1.807   1.230
13018W        W85443  11.642   7.895  11.074
13019W        W85444  20.604  31.602   1.857
13020W        W85445  13.683   5.751   0.907
13021W        W85446  20.654  21.694   0.421
13022W        W85447   9.699   9.394  10.615
13023W        W85448  10.322  11.645   1.924
13024W        W85449  17.704   1.856   4.309
13025W        W85450  43.839  24.717  14.976
13026W        W85451  20.188  40.477   0.285
13027W        W85452   6.867  25.019  14.028
13028W        W85453  17.233  21.061   2.396
13029W        W85454  36.414  41.393  10.464
13030W        W85455  37.484  35.894   3.674
13031W        W85456   1.473  25.613  12.415
13032W        W85457  20.683   3.859   2.785
13033W        W85458  33.901  32.980   2.744
13034W        W85459  23.667   8.273  13.043
13035W        W85460  22.688  40.432  14.353
13036W        W85461   0.893  13.212   4.264
13037W        W85462  35.091  30.069  14.486
13038W        W85463  31.464  35.899  11.516
13039W        W85464   3.870  35.075  12.926
13040W        W85465   8.733  27.135  14.464
13041W        W85466  15.701  19.056   2.681
13042W        W85467  14.201  34.119   0.460
13043W        W85468  30.485  32.603   2.752
13044W        W85469   6.298  20.149  13.868
13045W        W85470  23.664  22.073   1.851
13046W        W85471  44.496  40.837   3.213
13047W        W85472  42.969  19.193  11.558
13048W        W85473  14.834  40.945   1.426
13049W        W85474   1.463  26.022  14.298
13050W        W85475  38.879  23.691  12.352
13051W        W85476   2.240  14.324   5.219
13052W        W85477  32.137  38.509   3.646
13053W        W85478  17.171  12.857  13.806
13054W        W85479  40.309  25.013   3.282
13055W        W85480   3.879  23.556   4.724
13056W        W85481   3.794  43.396  12.361
13057W        W85482  22.734  39.462   0.306
13058W        W85483   9.713  38.038   4.730
13059W        W85484  39.423  31.022   0.411
13060W        W85485   3.302  23.515   1.935
13061W        W85486  38.344  35.600   4.338
13062W        W85487  44.897  22.574  11.609
13063W        W85488  24.616  14.634  11.925
13064W        W85489  11.778  11.293  14.983
13065W        W85490  32.469  17.162   4.187
13066W        W85491  10.821   1.371  10.416
13067W        W85492  32.433  23.515  14.010
13068W        W85493  13.678  26.093  14.298
13069W        W85494  30.640   6.842  12.398
13070W        W85495  15.634  33.107  12.004
13071W        W85496   5.925  30.652   4.805
13072W        W85497  21.747  39.988  10.637
13073W        W85498   7.210  44.797  14.012
13074W        W85499  42.354  35.427   1.246
13075W        W85500  27.090  31.488  10.513
13076W        W85501  30.649  26.695   2.331
13077W        W85502   6.362  32.929   3.786
13078W        W85503  31.962  32.012   5.261
13079W        W85504   9.783  27.509  10.547
13080W        W85505   7.903  33.953   3.859
13081W        W85506  15.611  24.665   1.861
13082W        W85507   5.788  26.181   4.641
13083W        W85508   9.858  31.016  10.972
13084W        W85509  21.616   1.975  14.978
13085W        W85510  40.317  33.556  11.509
13086W        W85511  34.876   6.893  12.542
13087W        W85512  33.092  43.901   1.374
13088W        W85513  26.111   3.256  11.001
13089W        W85514  25.629  10.859  10.936
13090W        W85515  24.024   7.369  13.484
13091W        W85516   8.846   6.314  10.439
13092W        W85517  22.250   0.258   3.733
13093W        W85518   1.435  39.439  14.369
13094W        W85519  19.224  15.189   1.248
13095W        W85520   2.330  33.051  12.836
13096W        W85521  26.965  43.370   2.741
13097W        W85522  39.342  27.095   1.840
13098W        W85523  35.602   8.863   0.430
13099W        W85524  21.126  20.765   3.267
13100W        W85525  16.757  43.829   4.618
13101W        W85526  20.213  13.237  11.119
13102W        W85527   5.825   3.930   1.850
13103W        W85528  44.494  30.597  12.526
13104W        W85529  40.026  36.085  10.638
13105W        W85530  28.963  19.267   2.797
13106W        W85531  41.961  44.904  13.353
13107W        W85532  40.414  22.091   3.145
13108W        W85533  22.049  12.836   0.932
13109W        W85534  30.060  22.999   0.469
13110W        W85535  19.229   1.859   2.699
13111W        W85536  39.347   8.305   1.419
13112W        W85537  31.509  34.027   0.473
13113W        W85538  42.520  19.080   2.212
13114W        W85539   0.356  21.146   4.623
13115W        W85540  11.802  42.490   2.823
13116W        W85541  12.256   3.744   2.279
13117W        W85542   8.690   6.829  14.337
13118W        W85543  37.860   4.826   3.294
13119W        W85544   9.748  11.342   4.287
13120W        W85545   3.303  44.761   4.651
13121W        W85546  39.346   9.739  14.327
13122W        W85547  44.258  10.743   4.205
13123W        W85548  30.952  10.375   4.277
13124W        W85549  34.092   2.904  12.069
13125W        W85550  25.155  39.488  11.579
13126W        W85551  35.476  42.786   0.834
13127W        W85552   5.227   8.840  14.823
13128W        W85553  33.040  37.539  10.906
13129W        W85554   1.256   4.286   4.635
13130W        W85555   3.835  12.260  14.906
13131W        W85556  19.644  13.696  10.984
13132W        W85557  28.947  30.118   9.672
13133W        W85558  34.112  17.182  12.397
13134W        W85559   3.930  27.021   1.883
13135W        W85560  17.670   5.780   4.615
13136W        W85561  12.794  19.743   2.740
13137W        W85562   9.250  37.355   3.678
13138W        W85563   0.809  24.179   2.881
13139W        W85564  14.617  37.559   9.978
13140W        W85565   9.689  17.303  13.010
13141W        W85566  26.693  43.475  11.896
13142W        W85567  29.027   2.784   4.779
13143W        W85568  42.415  37.900  10.601
13144W        W85569  44.436  35.958  14.503
13145W        W85570   4.244   9.236   4.606
13146W        W85571   0.292   4.775  12.916
13147W        W85572  29.658  39.059  11.012
13148W        W85573  17.112  44.850  10.024
13149W        W85574  23.612  44.892  11.439
13150W        W85575  30.475  10.705   4.163
13151W        W85576  17.243  40.391  10.924
13152W        W85577  34.470  35.377   1.308
13153W        W85578  33.595  22.727   2.379
13154W        W85579   4.249   9.393  11.495
13155W        W85580  30.643  18.255   1.298
13156W        W85581  23.070  43.468  14.873
13157W        W85582  25.633  28.648  13.486
13158W        W85583   8.813  22.162   1.871
13159W        W85584  11.271  17.236   3.342
13160W        W85585  34.050  34.970   0.957
13161W        W85586  10.861   3.755  11.511
13162W        W85587   8.810  16.230  11.514
13163W        W85588   9.651  13.802  12.339
13164W        W85589  16.103  37.412  12.455
13165W        W85590  31.523   4.317   0.890
13166W        W85591  25.981  44.408  12.924
13167W        W85592  27.085  32.512  12.523
13168W        W85593  38.557   2.887   0.350
13169W        W85594  27.032   6.812  12.539
13170W        W85595   8.160  22.531   3.217
13171W        W85596   9.270  13.171   0.824
13172W        W85597   2.355  24.502  10.619
13173W        W85598  36.373   3.955  12.873
13174W        W85599  13.609   5.432  14.029
13175W        W85600  31.605  30.964   4.764
13176W        W85601   1.481   7.224  14.306
13177W        W85602  16.169  16.087   4.728
13178W        W85603  18.787  37.874  12.007
13179W        W85604  18.586  13.242  14.890
13180W        W85605  24.696   1.841   4.789
13181W        W85606  30.107  23.687   2.212
13182W        W85607  20.559   2.451   4.761
13183W        W85608  39.407   2.837  14.422
13184W        W85609  20.203  10.329   2.223
13185W        W85610  37.846  35.962   2.698
13186W        W85611  35.914  21.671   2.198
13187W        W85612  36.468  43.300  11.420
13188W        W85613  25.469  34.108   1.267
13189W        W85614  16.198  19.175   4.289
13190W        W85615  21.237  18.581  10.554
13191W        W85616  41.995  36.065   4.790
13192W        W85617  35.440   7.670   3.810
13193W        W85618  31.512  33.625   1.389
13194W        W85619   5.252  31.560  10.552
13195W        W85620  18.102  33.462  13.452
13196W        W85621  44.996  33.448   4.742
13197W        W85622  15.200  31.983  12.551
13198W        W85623  16.254  19.149  11.992
13199W        W85624  39.933  42.483   0.848
13200W        W85625  23.061  30.430  14.454
13201W        W85626  14.280  42.883  12.862
13202W        W85627  11.805  33.597  13.942
13203W        W85628  32.548   6.678   3.639
13204W        W85629   3.795  33.561  10.573
13205W        W85630  38.925  25.526   3.786
13206W        W85631   1.781  40.354   3.209
13207W        W85632  10.827  13.284   0.819
13208W        W85633  10.197  42.487  10.411
13209W        W85634  35.375  11.657   4.744
13210W        W85635  22.183  18.297  11.379
13211W        W85636  19.276  17.646   3.323
13212W        W85637  14.716   6.783   3.724
13213W        W85638  30.017  18.241  14.894
13214W        W85639   4.836  43.407   1.707
13215W        W85640  22.159  33.552   0.967
13216W        W85641  43.464  33.129   3.819
13217W        W85642  10.200  13.793   0.905
13218W        W85643  16.215  34.105   2.312
13219W        W85644  28.504  15.717   4.224
13220W        W85645  34.879  38.953  13.337
13221W        W85646   7.370   7.184   4.780
13222W        W85647  38.854   6.306  11.477
13223W        W85648  38.852   0.326  11.396
13224W        W85649  23.197  39.031  14.903
13225W        W85650  35.106  26.670  14.452
13226W        W85651   1.745  19.642  11.552
13227W        W85652   1.293  42.802   3.851
13228W        W85653  28.078  42.996   3.256
13229W        W85654   5.697  26.500  12.848
13230W        W85655   0.488  15.159   0.452
13231W        W85656  16.607  24.030  14.798
13232W        W85657   9.171  12.774  14.004
13233W        W85658  10.216  10.729  12.020
13234W        W85659  31.429  15.602  13.794
13235W        W85660  28.158  29.497  13.502
13236W        W85661  28.123  37.431  11.571
13237W        W85662  11.234   0.787   4.335
13238W        W85663  32.919  24.159   1.275
13239W        W85664   4.894   4.892  10.484
13240W        W85665   8.663  12.132   2.803
13241W        W85666  31.555  14.337   4.652
13242W        W85667   8.319  27.522   2.878
13243W        W85668  14.810  13.770   2.256
13244W        W85669  36.394  32.591  13.847
13245W        W85670  29.481  40.823   2.354
13246W        W85671  16.673  16.784   3.297
13247W        W85672  13.245  21.239   3.839
13248W        W85673   8.859  42.310   0.848
13249W        W85674  11.660  19.636   4.229
13250W        W85675   9.660  25.086  11.453
13251W        W85676  26.592  24.065   2.790
13252W        W85677  44.479   4.768  14.330
13253W        W85678  42.351  39.373   0.910
13254W        W85679  27.479  44.438  14.386
13255W        W85680  26.654  13.166  12.382
13256W        W85681   6.918  10.149   2.334
13257W        W85682   8.806  19.110  11.894
13258W        W85683  44.785   8.810  14.773
13259W        W85684   6.331  37.851  10.994
13260W        W85685  17.758  30.989   0.449
13261W        W85686   8.235   2.726   2.410
13262W        W85687  38.838  17.242   0.900
13263W        W85688  40.501  13.669  12.998
13264W        W85689   2.278  34.556  14.797
13265W        W85690  34.565  12.632  14.005
13266W        W85691  17.562  37.025  11.539
13267W        W85692  42.923  35.034   2.728
13268W        W85693   7.317   9.720  11.063
13269W        W85694  34.561  33.444   1.914
13270W        W85695  23.500  12.856  11.445
13271W        W85696  17.606  37.531  14.359
13272W        W85697   9.304  15.627  11.128
13273W        W85698  35.887  35.869  14.498
13274W        W85699  29.092  32.632  12.487
13275W        W85700   2.934  23.643  14.471
13276W        W85701   7.183   7.880   3.811
13277W        W85702   4.774  20.268   1.820
13278W        W85703  27.012   3.358  10.472
13279W        W85704  29.952  20.571   3.866
13280W        W85705  43.484  19.780  13.063
13281W        W85706  23.719  20.084   1.242
13282W        W85707  26.182  23.549   2.771
13283W        W85708  32.059  26.624   0.793
13284W        W85709  35.368   4.360  10.543
13285W        W85710  17.581  25.192   4.709
13286W        W85711  12.768   0.919  12.558
13287W        W85712   7.195  18.197   3.656
13288W        W85713  32.036  35.010  13.036
13289W        W85714   3.360   2.862   3.757
13290W        W85715  21.262   1.482   0.786
13291W        W85716  29.136  35.578   3.637
13292W        W85717   6.815  10.354   0.425
13293W        W85718  12.720   0.392  10.910
13294W        W85719   5.263  13.725   2.866
13295W        W85720  27.460  27.136   2.845
13296W        W85721  42.326  16.319   0.477
13297W        W85722   5.827  10.806  13.523
13298W        W85723   4.755  17.765  12.966
13299W        W85724  22.064   7.292   3.862
13300W        W85725   4.248   5.415   1.737
13301W        W85726   6.852  26.561  10.482
13302W        W85727   4.702  38.846   4.810
13303W        W85728  44.328  11.298  11.086
13304W        W85729  32.467  28.501   0.910
13305W        W85730  27.683  30.457   0.777
13306W        W85731  16.119  16.591  14.501
13307W        W85732  11.858  31.525  11.402
13308W        W85733  44.491  14.628   2.371
13309W        W85734  29.617  10.847   2.849
13310W        W85735  27.061  42.941  13.327
13311W        W85736   7.408   7.218  12.885
13312W        W85737  32.114  34.528   3.682
13313W        W85738   9.225  44.960  12.062
13314W        W85739  29.969  33.900  11.548
13315W        W85740  36.990  22.216   4.712
13316W        W85741  29.153  32.449   9.984
13317W        W85742  26.698  32.513  12.909
13318W        W85743  14.701  39.066   9.953
13319W        W85744  37.074   0.382   4.253
13320W        W85745  19.146  31.113  11.972
13321W        W85746  36.563  25.559  10.949
13322W        W85747  35.550  23.728   0.767
13323W        W85748  28.089   1.768   0.412
13324W        W85749  32.110  21.727  10.992
13325W        W85750  39.995  35.370  13.506
13326W        W85751  44.454  35.392  11.921
13327W        W85752  43.422  37.862   1.833
13328W        W85753  11.847  11.276  13.004
13329W        W85754   4.818  15.596   4.335
13330W        W85755  28.531  39.441   4.223
13331W        W85756  34.379   6.890   1.391
13332W        W85757  32.527   2.904  14.497
13333W        W85758  40.303  28.168  12.029
13334W        W85759  44.817  19.635  10.522
13335W        W85760  14.629   4.945  14.456
13336W        W85761   5.922  32.550  11.052
13337W        W85762  14.139   8.697  13.485
13338W        W85763  19.623   5.233  10.896
13339W        W85764   9.712   5.792   9.636
13340W        W85765  13.332  19.082  12.376
13341W        W85766   5.241  13.748   0.416
13342W        W85767  26.163  34.960   2.271
13343W        W85768  29.578  31.571   3.230
13344W        W85769   2.896   6.827   2.371
13345W        W85770  30.497   8.268  14.826
13346W        W85771  38.384   7.380  14.874
13347W        W85772  27.030  36.544  14.859
13348W        W85773  16.642  25.193  12.872
13349W        W85774  14.330  25.649   1.325
13350W        W85775  24.655   2.811  13.341
13351W        W85776  35.590  40.509  11.583
13352W        W85777  10.665  16.232  13.476
13353W        W85778  16.252   9.155   3.207
13354W        W85779  39.046  31.450   0.840
13355W        W85780  30.922  30.948   3.228
13356W        W85781  26.634  37.889  12.361
13357W        W85782  40.865  28.678   1.731
13358W        W85783  37.369  17.673   0.804
13359W        W85784  26.692  23.228   1.886
13360W        W85785  43.887  18.054  11.941
13361W        W85786   3.433   4.302   3.675
13362W        W85787  27.067  10.814   1.316
13363W        W85788  14.230   3.385  10.888
13364W        W85789  18.684  20.256  13.048
13365W        W85790  35.499  30.415   0.848
13366W        W85791  36.542  24.055  12.061
13367W        W85792  29.942   8.739   1.214
13368W        W85793  26.998  35.387   4.709
13369W        W85794  12.240   2.960   0.390
13370W        W85795  29.152   0.411   3.697
13371W        W85796  17.175  32.008  11.034
13372W        W85797  36.063  24.697  11.934
13373W        W85798  29.659   6.238  14.807
13374W        W85799  34.380  37.392   4.322
13375W        W85800  24.519  13.651  14.464
13376W        W85801  23.212  41.958   0.925
13377W        W85802  15.604  12.817  11.938
13378W        W85803   2.347   5.285   0.257
13379W        W85804  41.821  22.640   4.344
13380W        W85805  30.925  11.223  13.052
13381W        W85806  42.510  44.410   0.798
13382W        W85807  38.026  41.819   1.219
13383W        W85808  34.018  42.849   3.736
13384W        W85809   0.825  16.266  13.809
13385W        W85810  13.181   7.815   4.137
13386W        W85811  11.178  30.571  12.475
13387W        W85812  12.613  11.623  12.969
13388W        W85813  15.144   7.740  14.901
13389W        W85814   9.857  29.433  10.959
13390W        W85815  26.189  27.629  14.428
13391W        W85816  42.514   9.272  12.363
13392W        W85817   7.768  39.824  13.062
13393W        W85818  27.558   0.383   2.404
13394W        W85819  10.709  38.416  12.363
13395W        W85820   7.274  12.626   1.248
13396W        W85821  40.351  32.448  12.900
13397W        W85822  44.389  29.620   0.477
13398W        W85823  11.855  22.537   1.440
13399W        W85824  19.192  20.115  14.850
13400W        W85825   7.908  40.459   2.701
13401W        W85826  34.025  33.535  10.956
13402W        W85827  28.013  35.057   4.327
13403W        W85828  29.929  17.707  12.084
13404W        W85829  41.432   4.298  13.536
13405W        W85830  27.176  19.099   2.769
13406W        W85831  28.097  44.266   0.894
13407W        W85832  41.346  41.390  14.463
13408W        W85833  19.730  33.421   3.224
13409W        W85834  33.067   4.877  10.042
13410W        W85835  39.969  25.632  12.000
13411W        W85836  27.548   9.692   4.285
13412W        W85837  34.543  32.022   4.195
13413W        W85838  31.064  31.569  10.435
13414W        W85839  34.977  33.580  11.470
13415W        W85840   0.772  22.217   4.674
13416W        W85841  37.442   6.833  11.079
13417W        W85842  32.123  41.034  12.507
13418W        W85843  28.567  36.537  13.830
13419W        W85844   4.330  11.835   3.694
13420W        W85845  24.673  36.912  12.064
13421W        W85846  37.969   6.334   3.773
13422W        W85847  19.063  30.159  13.431
13423W        W85848  15.724  14.751  13.936
13424W        W85849  25.482  34.531   3.630
13425W        W85850  21.072  30.095  14.445
13426W        W85851  12.210  21.176   2.201
13427W        W85852  14.731  35.557  13.833
13428W        W85853  24.108  34.549  11.420
13429W        W85854  12.308  26.580  12.868
13430W        W85855  35.921  36.984   1.216
13431W        W85856  34.569  13.708   3.363
13432W        W85857  37.536   3.232   3.804
13433W        W85858   2.407   4.450  14.492
13434W        W85859  32.590  44.417  14.894
13435W        W85860  21.658   4.318  12.564
13436W        W85861   6.402  35.516   0.886
13437W        W85862  24.229  27.993  12.033
13438W        W85863  43.439  30.642   0.268
13439W        W85864  38.977   4.420   4.244
13440W        W85865  24.062  23.108  10.555
13441W        W85866  23.094   9.680  14.317
13442W        W85867  39.471  38.941   1.296
13443W        W85868  43.437  36.349  11.866
13444W        W85869  27.457   9.196   2.396
13445W        W85870  16.243  42.875  13.540
13446W        W85871   7.274  17.763  14.881
13447W        W85872  25.193  35.365  12.555
13448W        W85873  36.909  38.489   3.170
13449W        W85874   0.401  40.991  12.849
13450W        W85875   9.232  35.551   4.715
13451W        W85876   2.444  30.626   1.694
13452W        W85877  11.246  24.646  11.993
13453W        W85878  16.106   7.186  13.333
13454W        W85879  12.130   5.687   3.789
13455W        W85880  20.060   2.896  11.104
13456W        W85881  31.033  41.515   4.252
13457W        W85882   5.324  17.116   0.322
13458W        W85883  36.430   2.264   1.391
13459W        W85884  26.175   3.897  10.558
13460W        W85885   2.732  13.793   1.401
13461W        W85886  12.204  34.522   3.341
13462W        W85887   8.700  17.768  10.555
13463W        W85888   1.888  10.295   3.201
13464W        W85889  25.675  30.114  11.019
13465W        W85890  36.382  42.788  13.001
13466W        W85891  19.725   3.812   4.197
13467W        W85892  44.828  38.526  11.942
13468W        W85893  27.108  28.032   3.318
13469W        W85894  23.646   0.921   4.835
13470W        W85895  38.066  26.175  12.024
13471W        W85896  19.763  40.476   3.711
13472W        W85897  30.954  21.559  14.475
13473W        W85898  37.073  37.002   3.161
13474W        W85899  30.580  35.897   4.280
13475W        W85900  34.614   7.270   0.966
13476W        W85901   3.921  35.886  13.870
13477W        W85902  17.653  16.145   2.228
13478W        W85903  34.382  16.197  10.971
13479W        W85904  25.129  34.945  14.398
13480W        W85905   0.335   3.460   0.474
13481W        W85906  30.944  28.559   1.789
13482W        W85907   8.846  38.010   2.817
13483W        W85908  22.675  10.173   1.292
13484W        W85909  28.964  28.165  12.500
13485W        W85910  44.954  44.772  13.950
13486W        W85911  42.431  32.636  10.589
13487W        W85912  35.593  25.080  10.091
13488W        W85913   5.386  18.164  14.953
13489W        W85914  17.291  16.764   2.285
13490W        W85915  42.523  38.970   1.358
13491W        W85916  29.492  18.715   3.313
13492W        W85917  37.918   6.285   0.404
13493W        W85918  13.165  24.011  12.358
13494W        W85919  11.844  31.642   3.369
13495W        W85920  25.607   3.720   3.775
13496W        W85921  42.471  39.065  14.364
13497W        W85922  34.964   6.678  11.973
13498W        W85923  28.662  30.931  11.121
13499W        W85924   3.768  24.706  14.390
13500W        W85925  30.575  29.460  13.460
13501W        W85926  21.235  38.007   3.634
13502W        W85927  30.505  38.415   0.786
13503W        W85928  10.877  19.639   2.681
13504W        W85929   5.200   2.443   3.716
13505W        W85930  30.114  18.644   2.878
13506W        W85931  33.119  18.656  10.534
13507W        W85932  40.452  12.614   1.839
13508W        W85933   4.935  27.594  13.386
13509W        W85934  15.722  30.079   0.763
13510W        W85935  13.766  38.445  13.790
13511W        W85936   9.288  10.658  11.472
13512W        W85937  20.736   0.262  12.884
13513W        W85938  44.952  17.738   2.882
13514W        W85939   3.435  35.014   0.364
13515W        W85940  32.543  44.872  10.994
13516W        W85941  39.500  42.326   2.353
13517W        W85942  36.088  40.407  13.473
13518W        W85943  20.230  34.019   4.747
13519W        W85944  16.687  27.446   3.377
13520W        W85945  38.544  39.533  13.920
13521W        W85946  18.225  33.906  12.934
13522W        W85947  42.302  20.626  11.936
13523W        W85948  22.689   8.862   2.855
13524W        W85949   4.341   0.381   3.342
13525W        W85950  23.058  24.040   1.329
13526W        W85951  18.762   8.244  11.080
13527W        W85952  28.641  20.261   4.790
13528W        W85953  13.635   4.335   1.819
13529W        W85954   0.905  12.671   4.351
13530W        W85955  41.343   9.854  14.347
13531W        W85956  16.593  11.725   0.424
13532W        W85957  37.842  22.042   3.773
13533W        W85958  28.012  42.005   3.184
13534W        W85959  31.915  15.748  12.947
13535W        W85960  38.925   6.360   2.796
13536W        W85961  21.704  18.745   3.350
13537W        W85962  28.096  21.118  12.090
13538W        W85963  16.113   3.728   2.275
13539W        W85964  10.176   1.473  13.850
13540W        W85965   5.320  23.049  12.970
13541W        W85966  20.757  20.188   4.320
13542W        W85967  25.196  38.443  12.416
13543W        W85968  32.404  14.107  12.869
13544W        W85969   3.801  40.879  14.362
13545W        W85970  30.117   0.351  11.508
13546W        W85971   8.357  37.051   2.810
13547W        W85972  20.101  15.578   3.249
13548W        W85973  36.928  14.635   1.885
13549W        W85974  27.601  43.504   3.215
13550W        W85975  17.133   1.836   0.317
13551W        W85976  24.992  35.507   1.350
13552W        W85977   9.165  34.029  14.876
13553W        W85978  32.961  28.166   0.964
13554W        W85979  13.608  35.862  14.930
13555W        W85980  30.426   6.865   0.794
13556W        W85981  36.866  35.088   0.253
13557W        W85982   5.364   7.680  12.396
13558W        W85983  22.622  33.094   4.749
13559W        W85984  29.544  38.982   2.858
13560W        W85985  26.615  13.813   3.223
13561W        W85986   5.845   5.796   3.230
13562W        W85987  17.584  30.599   1.309
13563W        W85988  31.008   8.808  11.862
13564W        W85989   7.414  25.657   4.788
13565W        W85990  18.263  21.080  11.129
13566W        W85991  38.428  29.627   0.771
13567W        W85992  36.499   0.875  13.539
13568W        W85993  42.824  38.551   3.323
13569W        W85994   3.716   1.387  12.825
13570W        W85995   0.454  35.913   3.849
13571W        W85996  15.113   9.356  12.442
13572W        W85997   3.740  29.937   0.248
13573W        W85998  32.446  25.067   4.244
13574W        W85999  37.553  18.747  10.515
13575W        W86000  24.181  31.922   2.255
13576W        W86001   7.172  11.735  11.124
13577W        W86002  19.730  40.851   0.962
13578W        W86003  41.354  33.891   4.770
13579W        W86004  33.886  26.581  13.954
13580W        W86005  44.846  14.592  13.400
13581W        W86006  18.128  42.323  14.807
13582W        W86007  15.161   6.320  14.021
13583W        W86008  13.822  44.286   4.234
13584W        W86009   8.274  12.354  14.505
13585W        W86010  37.555   2.245   2.809
13586W        W86011  22.704  30.923  13.017
13587W        W86012  27.573   0.290   3.786
13588W        W86013  21.730  11.201   4.151
13589W        W86014   8.162  23.588  12.870
13590W        W86015  43.895   2.412  11.041
13591W        W86016  38.459  13.265  12.490
13592W        W86017  24.159  34.413   0.946
13593W        W86018  27.001  14.163  12.919
13594W        W86019  25.209  29.659  12.452
13595W        W86020  13.621  16.638  11.434
13596W        W86021  33.974  27.633   0.868
13597W        W86022  22.669   3.750  14.901
13598W        W86023   8.264  20.580   1.242
13599W        W86024  35.090  10.766  10.973
13600W        W86025   3.330   7.769   4.327
13601W        W86026   8.248  34.609  11.608
13602W        W86027  43.912  18.083  13.018
13603W        W86028  21.664  32.099   3.846
13604W        W86029  43.472  37.506  12.436
13605W        W86030  13.691  22.129   0.847
13606W        W86031   7.814  22.209   0.868
13607W        W86032   4.942  43.347  11.408
13608W        W86033  33.028   1.472  14.430
13609W        W86034  16.634   7.705   3.376
13610W        W86035  41.292  18.255  12.416
13611W        W86036  37.459  24.193  13.915
13612W        W86037  20.544  11.687   2.272
13613W        W86038  31.602  19.210  10.024
13614W        W86039   4.836  34.936   3.172
13615W        W86040  13.188   3.420   0.925
13616W        W86041  32.105  19.592   1.307
13617W        W86042  39.528   7.175   0.361
13618W        W86043  30.134  36.573   0.883
13619W        W86044  36.921  30.001  11.547
13620W        W86045   1.464  35.475  12.492
13621W        W86046  36.086  19.211  13.025
13622W        W86047   5.868  43.301   3.186
13623W        W86048  23.619   7.886   3.855
13624W        W86049  15.208  41.826  12.092
13625W        W86050  33.404   4.401  14.324
13626W        W86051  39.350  37.468  10.515
13627W        W86052  22.146  18.117   1.379
13628W        W86053  34.920  33.424  13.811
13629W        W86054  41.907  10.357  10.587
13630W        W86055  44.759  25.024   3.271
13631W        W86056  15.641  33.006  10.002
13632W        W86057  36.092   3.216  11.099
13633W        W86058  44.869  22.531  13.373
13634W        W86059  33.912   7.693   3.725
13635W        W86060  18.050   9.652  14.396
13636W        W86061   5.427  32.581   0.367
13637W        W86062   4.887   1.363   4.791
13638W        W86063  34.541  39.866   4.185
13639W        W86064  42.434   0.457   1.750
13640W        W86065   3.272  17.079  13.521
13641W        W86066  30.018  28.569   2.738
13642W        W86067  35.982   5.773   4.204
13643W        W86068  11.179  21.523  11.372
13644W        W86069  35.858  19.538  13.016
13645W        W86070  37.411  15.774   3.279
13646W        W86071  35.021  17.213  14.392
13647W        W86072  25.200   9.733  14.281
13648W        W86073   0.924  44.828  11.412
13649W        W86074  40.345  38.936  14.823
13650W        W86075  26.171  27.524  12.027
13651W        W86076  26.036  24.711   3.757
13652W        W86077  40.399  20.709   3.314
13653W        W86078  20.081  32.888  12.903
13654W        W86079  13.123   4.301   2.267
13655W        W86080  29.944  41.003  10.961
13656W        W86081   9.772  33.964  11.382
13657W        W86082  41.897  40.335   4.307
13658W        W86083  30.119  19.100  12.467
13659W        W86084  34.109  24.668   2.414
13660W        W86085  19.645  41.981   0.737
13661W        W86086  16.124  38.369   2.847
13662W        W86087  43.942   0.433  14.329
13663W        W86088   2.289  42.865  11.590
13664W        W86089  10.241  14.621   1.697
13665W        W86090  21.714  13.186  11.448
13666W        W86091   1.483   8.393  11.007
13667W        W86092  13.687  19.139   4.759
13668W        W86093   8.687   5.750  12.924
13669W        W86094  26.961  14.325   5.159
13670W        W86095   5.698   4.835  14.989
13671W        W86096  33.468  13.105   4.151
13672W        W86097   3.952  18.174   3.151
13673W        W86098  20.683  43.476  11.573
13674W        W86099   2.462  30.507   5.236
13675W        W86100  25.183  27.635   2.795
13676W        W86101  17.270  15.662  14.847
13677W        W86102  20.273   1.346   4.794
13678W        W86103  27.958  34.084   1.774
13679W        W86104   8.251   4.321   3.680
13680W        W86105  19.735   9.691  13.459
13681W        W86106  25.061  30.429   1.918
13682W        W86107   8.371   8.835   2.194
13683W        W86108  42.854  19.550  13.050
13684W        W86109  37.363   6.214   4.663
13685W        W86110  16.765  39.537   4.126
13686W        W86111  23.157  10.861  10.454
13687W        W86112  33.446  18.778  10.520
13688W        W86113  31.103  29.515  13.960
13689W        W86114  43.934   7.745  14.864
13690W        W86115  13.222  20.646   1.356
13691W        W86116  39.980  30.054  11.045
13692W        W86117   3.419   0.396  11.511
13693W        W86118  23.222   1.344   0.779
13694W        W86119  43.834  39.064   0.246
13695W        W86120  30.131  12.174   4.614
13696W        W86121  11.723  43.329  10.960
13697W        W86122   3.238  22.156   1.825
13698W        W86123  16.119  18.657   2.709
13699W        W86124  25.496  34.534  11.590
13700W        W86125  34.993  23.156   0.736
13701W        W86126  26.575  14.105  14.774
13702W        W86127  37.884  23.684   1.238
13703W        W86128  38.066  31.469  12.434
13704W        W86129  12.789  29.643  12.918
13705W        W86130   1.346  43.001   2.778
13706W        W86131  28.582  10.286  10.545
13707W        W86132  43.510  17.259  12.989
13708W        W86133   1.831  17.561  12.008
13709W        W86134   2.413   3.923  12.498
13710W        W86135  22.606   1.362   4.771
13711W        W86136  27.655  28.467   2.318
13712W        W86137  23.714   4.725  10.889
13713W        W86138   8.777  35.062  10.618
13714W        W86139  27.457  20.032  14.447
13715W        W86140  37.909  26.142   1.424
13716W        W86141  31.973   2.322  13.984
13717W        W86142  34.973  22.144   3.755
13718W        W86143  26.569  40.860   2.417
13719W        W86144  27.167   7.715  13.875
13720W        W86145  11.345  22.549  11.499
13721W        W86146  26.543  39.848   1.210
13722W        W86147  15.120   1.237   5.182
13723W        W86148  19.166  19.168   1.850
13724W        W86149   2.358  38.885   1.294
13725W        W86150  39.463  23.628   0.323
13726W        W86151   6.225  11.742   2.755
13727W        W86152  16.167  16.271  12.008
13728W        W86153   9.179  37.518   9.474
13729W        W86154   1.950  21.637   0.459
13730W        W86155   5.404  10.156   0.940
13731W        W86156  15.320  20.576   1.855
13732W        W86157  22.560   4.834   2.665
13733W        W86158  25.565   7.736  13.361
13734W        W86159  41.502   5.416  11.892
13735W        W86160   5.766  34.007  14.366
13736W        W86161  43.404   4.215   4.343
13737W        W86162  42.347  18.621  13.009
13738W        W86163  25.534  31.036  11.525
13739W        W86164   5.720  11.178  12.437
13740W        W86165  38.840  11.696   1.320
13741W        W86166  25.025   4.926  14.485
13742W        W86167  31.073  33.889  11.395
13743W        W86168  12.765  33.525   0.951
13744W        W86169  18.244  21.131   1.867
13745W        W86170   5.898   1.958   4.117
13746W        W86171  11.771  40.368  13.838
13747W        W86172  44.780  10.360  13.401
13748W        W86173   4.896   0.468   4.609
13749W        W86174  15.652   7.215  13.951
13750W        W86175  27.466  38.007  12.547
13751W        W86176  24.713  36.383  12.339
13752W        W86177   4.912   7.909   4.354
13753W        W86178  44.424  42.870   5.136
13754W        W86179   3.241   3.946  12.356
13755W        W86180  16.742  29.149  13.965
13756W        W86181   2.472  17.650   3.364
13757W        W86182  24.541  24.503  11.969
13758W        W86183  24.668  40.481  14.369
13759W        W86184  26.994  32.989  11.063
13760W        W86185  44.761  32.607   4.117
13761W        W86186   3.323  33.988   3.815
13762W        W86187  22.571  34.431  12.830
13763W        W86188  39.387  44.348  14.361
13764W        W86189   1.760  30.649   3.248
13765W        W86190   1.333  16.104  13.328
13766W        W86191   9.291  14.722   0.757
13767W        W86192  37.955   1.811  12.429
13768W        W86193  39.333  13.619   0.389
13769W        W86194  43.005  37.063   2.824
13770W        W86195  26.043  17.769   4.604
13771W        W86196  27.467  31.989  10.522
13772W        W86197  26.595  20.161  10.468
13773W        W86198   8.201  32.910   2.234
13774W        W86199  11.758  22.131  14.791
13775W        W86200  40.319   2.949  14.309
13776W        W86201  34.551  14.677  12.443
13777W        W86202   8.293   8.286   1.916
13778W        W86203  18.658   5.372  12.922
13779W        W86204  16.606  41.961  14.927
13780W        W86205  33.528  13.284   1.356
13781W        W86206  37.075   7.378  11.041
13782W        W86207  31.989  26.094   1.257
13783W        W86208  21.647  13.173   3.817
13784W        W86209   3.924  19.164  14.947
13785W        W86210   7.326  44.774  14.324
13786W        W86211   7.743  18.664   4.836
13787W        W86212   6.886   6.259  13.437
13788W        W86213  42.320  39.423  12.826
13789W        W86214  13.166  32.584  13.388
13790W        W86215  20.211  12.758  12.410
13791W        W86216  19.556  19.661   0.834
13792W        W86217   8.782  26.955  11.882
13793W        W86218  13.690  21.705   3.195
13794W        W86219   2.359  28.663   2.318
13795W        W86220  26.970  39.349   2.682
13796W        W86221  38.018  37.885  12.867
13797W        W86222  40.816  24.531   2.819
13798W        W86223  42.352  21.132  13.433
13799W        W86224  36.028  28.053   3.243
13800W        W86225  14.206  22.687  13.826
13801W        W86226   1.905  29.001  14.787
13802W        W86227  40.027  33.549  14.918
13803W        W86228   3.414  10.726   4.601
13804W        W86229  15.087  29.053  12.475
13805W        W86230  36.545   8.379   2.360
13806W        W86231  12.694  23.719   3.746
13807W        W86232  37.000  37.485  11.899
13808W        W86233  18.229  34.512   1.287
13809W        W86234  21.751  19.155  11.564
13810W        W86235   7.874   5.692  13.349
13811W        W86236  11.342   9.839   0.449
13812W        W86237  28.023  15.674   1.335
13813W        W86238  28.480   6.722  14.988
13814W        W86239  35.416  31.942  11.959
13815W        W86240  43.392  15.679   4.775
13816W        W86241  22.238  15.205   4.826
13817W        W86242  35.923  18.174  14.923
13818W        W86243   0.337  43.919   0.738
13819W        W86244  32.441   1.940   3.807
13820W        W86245  39.931  25.189  12.946
13821W        W86246  17.086  19.229  13.892
13822W        W86247  35.510  32.461   4.114
13823W        W86248  43.864   1.958  13.943
13824W        W86249  42.343  10.355   3.728
13825W        W86250  31.561  15.184  10.589
13826W        W86251  27.129  31.151  11.000
13827W        W86252   5.834   6.316   1.822
13828W        W86253  43.313   4.803   3.771
13829W        W86254  27.591   9.379   4.616
13830W        W86255  26.469  31.497   1.448
13831W        W86256  33.946  42.810   0.471
13832W        W86257  24.090  19.605   2.897
13833W        W86258  32.416  19.566   1.698
13834W        W86259  17.757  25.965  10.479
13835W        W86260   6.230  19.770  10.543
13836W        W86261  20.191  22.586   0.812
13837W        W86262  35.926  19.639   0.858
13838W        W86263  17.605  22.573   0.823
13839W        W86264   9.804  23.697   0.965
13840W        W86265   9.781  41.387   4.602
13841W        W86266  22.511  30.014   3.160
13842W        W86267  12.304   7.699  10.987
13843W        W86268  14.232  13.147  12.352
13844W        W86269  28.467  30.557  10.533
13845W        W86270  21.758  31.599  10.946
13846W        W86271   7.405   1.922  14.513
13847W        W86272  30.039  40.805   1.412
13848W        W86273  24.515  20.046  11.486
13849W        W86274  25.713  27.940   2.238
13850W        W86275  11.134  26.512  10.644
13851W        W86276  24.211  41.472   3.661
13852W        W86277  18.664   1.934  10.610
13853W        W86278  20.552  14.176   1.403
13854W        W86279  24.603   2.755  12.999
13855W        W86280  14.676   0.256   0.863
13856W        W86281  23.234  27.174   2.689
13857W        W86282  38.378  30.924   2.684
13858W        W86283  21.036  21.042  12.445
13859W        W86284  39.429   4.877   0.404
13860W        W86285  13.173   0.965  10.080
13861W        W86286  26.142   9.185  12.451
13862W        W86287  30.012  41.841   4.217
13863W        W86288  19.077  18.591   3.233
13864W        W86289   7.220  20.542   0.746
13865W        W86290   3.426  18.170  12.840
13866W        W86291  44.501  31.008   2.352
13867W        W86292  27.034   2.938   3.348
13868W        W86293  38.993  40.413  10.971
13869W        W86294  41.519  44.936  13.004
13870W        W86295  43.858  36.421   1.293
13871W        W86296  42.284   3.248  12.355
13872W        W86297  30.058  21.646  14.973
13873W        W86298   5.857  21.605  13.051
13874W        W86299  27.161  18.064  11.034
13875W        W86300  23.190  18.660  11.090
13876W        W86301  29.035  22.210   3.677
13877W        W86302  15.758  29.056   3.364
13878W        W86303  24.605  23.561  14.420
13879W        W86304  12.123  18.184   1.210
13880W        W86305  23.711  13.351   3.643
13881W        W86306  15.642  36.465   3.661
13882W        W86307  18.287  33.495  14.283
13883W        W86308   4.719   2.366  14.869
13884W        W86309  39.963  12.680   4.797
13885W        W86310   7.816  41.872  13.493
13886W        W86311  18.658  32.506   3.325
13887W        W86312   9.863  30.032  13.975
13888W        W86313  29.035   7.912   0.388
13889W        W86314  14.616  42.812  11.458
13890W        W86315   2.921  39.977   0.449
13891W        W86316  30.146  21.556   0.425
13892W        W86317  14.737   0.440   2.333
13893W        W86318  22.199  31.621  11.110
13894W        W86319  44.796   3.258   5.273
13895W        W86320  19.254  31.043  11.549
13896W        W86321  21.523  14.757   1.447
13897W        W86322  29.957  35.579   4.692
13898W        W86323  11.732   5.214  13.818
13899W        W86324  38.014  44.495   1.278
13900W        W86325  29.580  20.539   4.820
13901W        W86326   2.360  31.947   1.357
13902W        W86327   1.970  27.445   2.339
13903W        W86328  29.485  43.970  10.565
13904W        W86329   6.190  12.238  11.105
13905W        W86330  40.918   6.777  14.906
13906W        W86331  40.807  14.737   4.810
13907W        W86332  43.278  28.004   0.967
13908W        W86333  22.676  29.470  13.894
13909W        W86334  23.576  41.015  12.932
13910W        W86335   4.279   1.935  14.985
13911W        W86336   8.235  40.443  13.826
13912W        W86337  11.239   2.430   2.409
13913W        W86338  18.580  19.120   1.780
13914W        W86339   3.785   9.734   2.769
13915W        W86340  12.842  39.495   1.241
13916W        W86341  14.207  25.120   3.724
13917W        W86342  19.639  13.645  12.520
13918W        W86343   2.404  21.729  11.593
13919W        W86344   4.346  44.979  13.404
13920W        W86345  29.938  25.069   4.745
13921W        W86346  11.642  21.262   3.213
13922W        W86347  31.531   4.913   4.328
13923W        W86348   2.455  29.457  11.106
13924W        W86349  31.447  29.053   4.268
13925W        W86350   6.881  15.580   0.955
13926W        W86351  37.962  42.876  13.416
13927W        W86352  13.840  14.693   1.909
13928W        W86353  13.714  25.579  12.520
13929W        W86354  36.983  16.180   0.866
13930W        W86355  30.078  16.615   5.616
13931W        W86356  24.141  37.895   2.682
13932W        W86357  10.859   8.880  11.897
13933W        W86358  42.923  18.294  13.372
13934W        W86359  27.122  16.133  11.399
13935W        W86360  34.494   7.392  14.854
13936W        W86361  42.318   7.822   0.786
13937W        W86362   7.705  42.026   2.713
13938W        W86363  12.771   0.758   4.810
13939W        W86364  22.140   9.782  10.946
13940W        W86365  17.695  40.522  10.427
13941W        W86366  19.763  19.593  10.977
13942W        W86367  39.038  32.090   1.737
13943W        W86368  33.944  36.038   3.710
13944W        W86369  40.910  42.924   9.617
13945W        W86370   5.260  20.035  14.867
13946W        W86371  17.208   5.203  14.763
13947W        W86372  26.620   9.349  11.124
13948W        W86373  27.090  30.058   0.272
13949W        W86374  44.316   9.647   1.873
13950W        W86375  37.496  42.525   4.246
13951W        W86376  13.663  18.589   4.312
13952W        W86377  24.178  17.760   3.655
13953W        W86378   3.302  43.274   3.633
13954W        W86379  12.679   4.401   3.183
13955W        W86380  24.033  37.085  11.578
13956W        W86381   3.805  26.986  12.469
13957W        W86382   3.763  30.596  13.322
13958W        W86383   6.753  36.880   4.819
13959W        W86384  44.908  17.196   0.256
13960W        W86385  20.692  44.910   4.780
13961W        W86386  34.027  41.845  14.792
13962W        W86387  12.820  39.981   2.382
13963W        W86388  15.270   3.456   5.293
13964W        W86389  26.170  11.665  14.760
13965W        W86390  36.967  43.793  13.406
13966W        W86391  30.916   8.876  14.380
13967W        W86392  24.154  17.235   4.721
13968W        W86393  32.494  24.182  12.081
13969W        W86394   3.875  23.588   0.397
13970W        W86395  24.564  30.135   0.947
13971W        W86396  23.111  37.421   5.161
13972W        W86397  19.240  27.541  14.906
13973W        W86398  23.109   1.876   4.125
13974W        W86399  19.186  30.100   4.301
13975W        W86400  40.437  18.256   0.820
13976W        W86401  22.651  27.041   2.886
13977W        W86402   9.692  44.334   4.629
13978W        W86403  39.039  34.973  10.525
13979W        W86404   6.734  36.396   1.281
13980W        W86405  11.698  13.116  11.588
13981W        W86406  21.188  18.776  14.908
13982W        W86407  44.974  39.401   0.804
13983W        W86408  25.054  37.948   1.813
13984W        W86409  21.055  14.593   0.957
13985W        W86410  18.111  26.137   4.254
13986W        W86411  31.496  26.470  10.535
13987W        W86412  38.955  34.440   4.699
13988W        W86413   4.781   1.324  11.102
13989W        W86414  13.770   8.793  13.486
13990W        W86415  28.988  14.233   3.689
13991W        W86416  43.280  33.557   2.197
13992W        W86417  30.939  19.137   1.335
13993W        W86418   4.931  22.014  11.102
13994W        W86419  30.947   6.325  10.892
13995W        W86420  34.900   4.403  11.978
13996W        W86421  14.743  29.430  11.984
13997W        W86422  38.931  25.043  12.881
13998W        W86423  36.066  28.599   3.823
13999W        W86424  24.054  28.102  13.511
14000W        W86425  38.427  29.097  12.886
14001W        W86426  40.797  35.480   3.225
14002W        W86427  17.129  39.916  14.290
14003W        W86428  31.440  16.164   2.249
14004W        W86429   8.387  31.148   3.784
14005W        W86430   0.367  35.991   2.243
14006W        W86431  25.615   2.867   0.767
14007W        W86432  13.221  31.007   4.252
14008W        W86433  43.485  10.375  14.925
14009W        W86434  41.967  35.110  14.356
14010W        W86435  39.472  11.134   1.280
14011W        W86436  33.939  30.115   0.771
14012W        W86437  26.018  43.393  13.937
14013W        W86438   1.448   6.380  12.945
14014W        W86439  31.002   8.189  13.928
14015W        W86440   0.453   1.338   0.912
14016W        W86441  31.575   6.250   3.287
14017W        W86442  18.173  44.356  12.510
14018W        W86443  40.040   4.793   1.715
14019W        W86444   6.746   4.856   0.317
14020W        W86445  11.315  32.030   0.747
14021W        W86446  41.301  33.037   2.360
14022W        W86447  25.591  31.993  12.089
14023W        W86448  28.003  13.250   2.742
14024W        W86449  25.194  23.183   0.916
14025W        W86450  38.366  11.294   1.402
14026W        W86451   5.852  33.887  11.592
14027W        W86452  30.031  37.082  11.857
14028W        W86453  41.428  38.960   1.448
14029W        W86454  35.467  23.123   5.303
14030W        W86455  11.687   6.773   1.834
14031W        W86456  38.384   2.269  13.916
14032W        W86457  21.644  40.047   2.400
14033W        W86458  19.693  33.480   0.426
14034W        W86459  15.634   9.873   4.643
14035W        W86460  15.714  41.932   0.812
14036W        W86461  37.440  19.748   1.834
14037W        W86462  40.987  13.206  11.416
14038W        W86463  14.677  34.371  11.882
14039W        W86464   7.773  23.585  13.815
14040W        W86465  22.113  22.536   3.851
14041W        W86466  22.680  40.530   5.314
14042W        W86467  29.997  27.482   0.762
14043W        W86468  12.800  14.277  12.915
14044W        W86469  19.118  19.063   2.326
14045W        W86470  33.967  27.582   2.833
14046W        W86471  11.670   9.307   3.763
14047W        W86472  26.133  14.191   4.792
14048W        W86473  34.864  12.141  14.380
14049W        W86474  36.842  24.700  13.532
14050W        W86475  32.001   1.919   3.292
14051W        W86476  43.828  15.712   1.728
14052W        W86477  26.460  10.718   4.283
14053W        W86478  40.502   8.720   1.826
14054W        W86479  41.949  24.703   2.757
14055W        W86480  35.594  14.308  13.547
14056W        W86481  26.079  29.490  14.491
14057W        W86482  24.179  24.479  14.024
14058W        W86483  16.121  24.507  11.606
14059W        W86484  24.028   6.360   0.452
14060W        W86485   1.754  10.202   2.252
14061W        W86486  19.548  26.164  11.112
14062W        W86487  44.478   8.813   2.204
14063W        W86488  44.888  28.025   0.819
14064W        W86489   9.709  39.951  14.498
14065W        W86490  31.928  35.881  12.046
14066W        W86491  21.131  37.000   3.257
14067W        W86492  28.477  42.293   2.752
14068W        W86493   9.868  21.079  13.477
14069W        W86494  39.432  44.849   2.877
14070W        W86495   4.313  36.570   0.394
14071W        W86496  16.695  19.748   0.433
14072W        W86497   1.733  35.874  12.872
14073W        W86498  34.107  36.482  14.384
14074W        W86499  21.056  31.064  12.450
14075W        W86500  40.411   4.763  13.062
14076W        W86501  12.625  19.577  14.285
14077W        W86502   8.401  35.514   1.330
14078W        W86503  13.734  24.655  14.858
14079W        W86504  13.298  42.458  12.052
14080W        W86505  29.513  18.269   3.377
14081W        W86506  31.526  20.044   2.409
14082W        W86507  40.488  41.312  12.071
14083W        W86508  35.099  40.850  14.822
14084W        W86509   9.809   2.952   2.285
14085W        W86510   1.238  19.094  13.821
14086W        W86511  23.111   0.315  11.557
14087W        W86512  44.266  36.058   3.362
14088W        W86513  38.395  23.665  10.101
14089W        W86514  44.913   3.317  13.803
14090W        W86515  36.912  10.725  13.453
14091W        W86516  23.078  23.091   3.212
14092W        W86517  14.108  31.433   2.863
14093W        W86518  21.234  27.583   1.720
14094W        W86519  30.108  15.093   0.329
14095W        W86520  37.963  13.732   0.802
14096W        W86521  32.898  41.457  13.836
14097W        W86522  10.666  25.165   0.398
14098W        W86523  13.659  11.660   4.821
14099W        W86524   1.281  11.186  14.022
14100W        W86525  28.617   2.276   4.644
14101W        W86526   3.430  30.970   1.382
14102W        W86527  40.856  16.736  10.430
14103W        W86528  27.523   7.739  12.895
14104W        W86529   9.813  42.027   3.259
14105W        W86530  36.585  24.175  11.065
14106W        W86531   8.874   6.248   0.847
14107W        W86532  27.602  37.390  14.847
14108W        W86533  40.378  37.511   4.647
14109W        W86534   5.766  44.857   1.407
14110W        W86535  30.609  32.474  12.453
14111W        W86536   3.950   6.725   3.298
14112W        W86537  15.755   2.870  14.789
14113W        W86538  16.637   6.344  10.540
14114W        W86539   7.865  18.743  10.061
14115W        W86540  37.843   1.784   4.813
14116W        W86541  10.732   6.330   3.277
14117W        W86542   1.304  27.484   4.345
14118W        W86543  38.536  38.954   2.807
14119W        W86544  16.769   4.813  13.352
14120W        W86545  35.081  31.975  12.472
14121W        W86546   0.892  13.782   0.834
14122W        W86547  38.850  33.072   1.882
14123W        W86548   5.876  19.228   4.229
14124W        W86549  15.268  24.662   9.541
14125W        W86550   4.730  26.686  11.108
14126W        W86551  14.778   6.209   3.269
14127W        W86552  38.511   6.840  10.424
14128W        W86553   0.417  27.053  14.806
14129W        W86554  37.910  15.171   2.674
14130W        W86555  40.380  39.848   1.901
14131W        W86556  24.039  25.037   3.756
14132W        W86557  41.309  38.551  14.352
14133W        W86558  26.668   3.748  14.998
14134W        W86559  41.504  33.880  12.953
14135W        W86560  14.110  36.080  14.005
14136W        W86561  21.119  13.287   0.736
14137W        W86562   8.764   3.383   4.639
14138W        W86563  33.493  20.546   3.864
14139W        W86564  11.743   8.796  12.493
14140W        W86565  39.885  26.484   4.774
14141W        W86566  23.072  39.871   1.888
14142W        W86567  11.253  18.150   1.930
14143W        W86568  19.698  43.274  14.809
14144W        W86569  39.831  41.856  12.081
14145W        W86570  13.675   5.379  14.976
14146W        W86571  43.365  41.376  12.956
14147W        W86572   8.670  42.351   3.341
14148W        W86573  32.532  33.129  14.366
14149W        W86574  19.729   6.727   4.734
14150W        W86575  12.327  14.725  13.384
14151W        W86576  23.138   8.701  14.482
14152W        W86577   1.854  39.933  13.440
14153W        W86578  11.332   9.213  13.949
14154W        W86579  34.944  32.017  13.863
14155W        W86580  23.516  42.443   2.242
14156W        W86581   1.783  26.651   4.639
14157W        W86582   5.907  43.919   3.656
14158W        W86583  37.478   2.256  14.866
14159W        W86584  36.505   0.419   1.700
14160W        W86585  12.687  31.570   1.292
14161W        W86586  43.013  34.954  12.407
14162W        W86587   2.777  14.624   4.810
14163W        W86588  40.033   1.826  13.828
14164W        W86589  44.297   0.786  11.037
14165W        W86590   5.901  20.125  14.493
14166W        W86591  40.507  25.560  12.500
14167W        W86592   5.814   0.409   1.821
14168W        W86593  23.514  26.099   3.733
14169W        W86594   4.251   2.448  12.952
14170W        W86595  43.348   4.742  14.939
14171W        W86596  35.104   7.172   2.875
14172W        W86597  21.511  31.923  11.932
14173W        W86598  22.213  30.995   0.886
14174W        W86599  12.297  30.115  10.427
14175W        W86600  23.513  41.004   3.338
14176W        W86601   0.799  27.106  12.823
14177W        W86602  34.445  30.082   4.754
14178W        W86603  18.287   9.348  12.452
14179W        W86604  23.492   5.739   2.328
14180W        W86605  36.521  41.999   0.813
14181W        W86606  29.945  31.983   3.639
14182W        W86607  41.827  13.351   1.694
14183W        W86608  20.058  32.559   3.148
14184W        W86609  18.622  20.745  10.541
14185W        W86610   3.836  42.981   4.237
14186W        W86611  42.514   6.815  14.804
14187W        W86612  39.465  40.546   1.334
14188W        W86613  17.091  40.447  14.895
14189W        W86614  33.955  24.214  14.403
14190W        W86615  19.051   2.272   2.721
14191W        W86616  19.696  27.011  14.334
14192W        W86617  11.135  44.915   4.293
14193W        W86618   1.263  41.954   0.445
14194W        W86619  22.644   9.254  13.048
14195W        W86620   0.835  22.582   0.905
14196W        W86621  29.457  35.034  14.413
14197W        W86622  19.667  43.457   4.790
14198W        W86623   4.382   6.811   4.702
14199W        W86624  34.030  23.219  10.458
14200W        W86625  35.368  43.300  13.490
14201W        W86626  17.647  30.088  11.448
14202W        W86627  15.745   6.252  14.320
14203W        W86628  16.086   4.211   3.704
14204W        W86629  25.591  29.612   4.300
14205W        W86630  42.494  25.964   4.294
14206W        W86631  21.647  10.760   5.121
14207W        W86632  31.017  36.533   2.218
14208W        W86633  42.995  14.236  14.493
14209W        W86634  35.047  26.585   2.882
14210W        W86635  21.718  10.825  14.336
14211W        W86636  34.007  12.697  12.488
14212W        W86637  28.978  19.132  12.011
14213W        W86638   2.789  18.176   1.442
14214W        W86639  20.598   0.347   4.777
14215W        W86640  37.052  38.048   0.843
14216W        W86641  41.505  19.779  11.466
14217W        W86642  11.675  29.001   2.877
14218W        W86643  24.193  40.032   3.241
14219W        W86644   1.483  21.590  11.443
14220W        W86645  25.536  19.679  13.527
14221W        W86646  25.146  39.008   0.478
14222W        W86647  32.929  25.144   0.426
14223W        W86648  32.890  16.136   0.957
14224W        W86649  27.094  41.508  14.437
14225W        W86650  13.702  19.709  11.567
14226W        W86651  38.479  22.174   3.814
14227W        W86652   2.467   7.342   2.694
14228W        W86653   6.287  40.893   2.848
14229W        W86654  17.089  32.898   4.352
14230W        W86655  26.097  15.659   1.242
14231W        W86656  12.640   9.264  13.862
14232W        W86657  42.865   7.900   0.855
14233W        W86658  37.579  16.695  13.906
14234W        W86659   2.967  39.823   1.934
14235W        W86660  24.609  20.545  10.528
14236W        W86661  15.182  25.659   4.736
14237W        W86662  18.117  32.123   0.875
14238W        W86663   8.310  36.958   0.386
14239W        W86664  34.608  14.129   3.678
14240W        W86665  22.995  20.145  10.424
14241W        W86666  24.179  26.997  12.535
14242W        W86667  19.045  21.652  11.456
14243W        W86668   1.309  43.984  11.039
14244W        W86669   4.809  38.879   1.774
14245W        W86670  15.142  25.143   1.397
14246W        W86671   2.280   1.948  13.450
14247W        W86672   9.823  26.093  14.330
14248W        W86673  40.986  23.240   4.647
14249W        W86674  15.208  35.079  13.399
14250W        W86675  42.954  26.467   2.307
14251W        W86676  19.596   1.876  14.809
14252W        W86677  15.587  28.990   2.290
14253W        W86678  19.237  37.068  12.052
14254W        W86679  34.961  19.041  11.490
14255W        W86680   3.889  34.917  12.503
14256W        W86681  24.087  19.706   5.195
14257W        W86682  24.598  15.674   3.702
14258W        W86683  38.433  24.667  12.983
14259W        W86684  38.940  24.081  11.495
14260W        W86685  17.287  36.097   1.818
14261W        W86686  19.237  30.997   3.647
14262W        W86687   3.291  32.088  11.128
14263W        W86688   3.391  19.747   4.171
14264W        W86689  16.168  25.114   3.809
14265W        W86690  40.352  27.999   5.112
14266W        W86691   8.330  13.182  14.430
14267W        W86692   9.348  14.647   4.653
14268W        W86693  24.049  38.879  13.443
14269W        W86694  24.654  44.402  12.353
14270W        W86695   5.417  11.782  14.317
14271W        W86696  18.590  14.115   5.137
14272W        W86697  16.609   5.432   0.393
14273W        W86698   8.780   7.372  10.639
14274W        W86699  18.711  14.140   1.288
14275W        W86700  44.471  28.655   3.726
14276W        W86701  36.069  32.390   3.300
14277W        W86702  20.062   6.910  14.783
14278W        W86703  39.445  25.566  13.001
14279W        W86704  21.596  10.168  10.592
14280W        W86705   2.897  37.832   2.293
14281W        W86706  35.542  30.952   0.411
14282W        W86707  43.403  38.505   4.774
14283W        W86708   8.321   7.677   2.858
14284W        W86709  30.533  40.019   3.172
14285W        W86710  21.674  34.981   2.861
14286W        W86711   5.702   6.399  14.943
14287W        W86712  24.059  37.023   0.429
14288W        W86713  20.568  37.939  10.917
14289W        W86714  30.630  39.365  13.892
14290W        W86715  13.128  22.631   0.953
14291W        W86716  38.947  15.139   4.353
14292W        W86717  11.654  13.619  14.459
14293W        W86718  43.764   9.795  13.315
14294W        W86719  23.696   4.852   4.821
14295W        W86720  42.981  33.980  13.314
14296W        W86721  24.680  18.626   3.247
14297W        W86722  23.650  18.293  14.437
14298W        W86723  28.600   6.885   0.274
14299W        W86724  39.450  28.111   0.364
14300W        W86725  22.603   4.282  12.909
14301W        W86726  28.581  25.006   0.939
14302W        W86727  43.948  43.877   2.820
14303W        W86728  37.983  11.838   2.802
14304W        W86729  23.591   1.406  11.395
14305W        W86730  10.319  18.056   2.704
14306W        W86731  25.060   6.414   1.848
14307W        W86732   7.835   4.727  10.987
14308W        W86733  33.506   0.259  14.437
14309W        W86734  36.018  30.055  12.032
14310W        W86735  35.085  15.759   5.231
14311W        W86736  19.699  20.761   4.838
14312W        W86737  21.102  40.042   2.725
14313W        W86738  39.352  23.679  12.948
14314W        W86739   8.845  19.644   4.316
14315W        W86740  21.600  12.832  14.871
14316W        W86741  21.641  41.420  14.471
14317W        W86742  14.773   6.763  13.906
14318W        W86743  18.706  24.672  14.397
14319W        W86744  22.158  26.645   2.410
14320W        W86745   5.284  14.635  14.803
14321W        W86746  20.092  28.017  12.924
14322W        W86747   4.731  39.405  14.462
14323W        W86748  18.751   2.431  11.017
14324W        W86749  44.395  26.032   5.099
14325W        W86750  14.828  34.595  13.343
14326W        W86751  41.985  15.160  14.433
14327W        W86752  44.906   2.751  12.976
14328W        W86753  29.999  32.416   3.282
14329W        W86754  11.316  36.486  11.072
14330W        W86755  43.909   2.433   0.739
14331W        W86756  16.232  41.885  13.510
14332W        W86757  17.286  34.408  12.930
14333W        W86758  16.742   5.713  14.458
14334W        W86759  43.809  16.789  11.411
14335W        W86760   8.900   0.913   2.290
14336W        W86761  14.711  41.921   3.816
14337W        W86762   6.754  22.208  11.986
14338W        W86763  19.678  13.815   4.273
14339W        W86764  29.476  16.632  10.427
14340W        W86765   7.384  44.335  14.777
14341W        W86766   6.227  38.888  13.991
14342W        W86767  38.041  18.110  13.878
14343W        W86768   3.937  13.761  12.522
14344W        W86769  37.498  22.171  14.972
14345W        W86770   7.182   6.389  10.968
14346W        W86771  16.785  29.435  12.455
14347W        W86772  22.723  10.156   1.750
14348W        W86773  38.861  12.749  14.326
14349W        W86774  11.683  33.920  13.052
14350W        W86775  43.974  27.013   2.348
14351W        W86776  42.917  14.621   3.337
14352W        W86777   6.790  22.524   2.245
14353W        W86778  16.073   8.761  12.848
14354W        W86779   5.388  10.340  12.534
14355W        W86780  30.412   1.787  14.288
14356W        W86781   5.341  39.884   3.178
14357W        W86782  19.654  37.072  13.542
14358W        W86783  43.938   2.429   4.721
14359W        W86784  32.435  27.497   1.288
14360W        W86785  24.531  41.836   1.772
14361W        W86786   3.765  37.969  11.458
14362W        W86787  31.643  29.062  13.351
14363W        W86788  30.650  39.937   1.310
14364W        W86789  41.375  23.707   2.784
14365W        W86790  32.582  12.738   4.788
14366W        W86791  40.435  28.587   1.753
14367W        W86792   4.880  21.262   3.244
14368W        W86793  16.085  26.954   2.356
14369W        W86794   4.239  16.073  14.958
14370W        W86795   4.246  39.457   4.677
14371W        W86796  32.526  14.206   0.357
14372W        W86797  40.474  36.363   1.907
14373W        W86798  33.561  19.062   1.282
14374W        W86799  29.663   5.430  11.024
14375W        W86800  14.828   6.868   1.788
14376W        W86801  33.517  32.525  13.467
14377W        W86802  16.106  33.460   3.268
14378W        W86803  12.751  44.326   3.755
14379W        W86804   7.886  38.510   3.710
14380W        W86805  12.844  41.878   0.373
14381W        W86806   8.297  26.499   1.888
14382W        W86807  14.245  28.079   1.874
14383W        W86808  39.394  26.960   4.248
14384W        W86809   3.292  31.414  11.104
14385W        W86810  41.815  33.072  14.388
14386W        W86811   3.921  35.072   3.339
14387W        W86812  20.545  27.090  12.018
14388W        W86813   8.283  29.153  14.465
14389W        W86814   3.733  21.169  11.602
14390W        W86815  31.643  11.676   2.310
14391W        W86816  35.979  14.169  12.042
14392W        W86817  13.699  26.059  12.412
14393W        W86818  19.105  12.280  12.866
14394W        W86819  33.059  12.274   4.735
14395W        W86820  37.570  10.793   0.242
14396W        W86821   1.286  32.908   3.354
14397W        W86822  15.751  10.770  11.509
14398W        W86823  28.536  39.041   4.225
14399W        W86824  37.986  28.547  12.895
14400W        W86825  16.797  28.998  12.466
14401W        W86826  34.053  42.471  13.917
14402W        W86827  38.852   6.359  12.879
14403W        W86828  37.504  37.444   5.302
14404W        W86829  24.999  38.530   2.862
14405W        W86830  15.305  19.687   3.699
14406W        W86831  39.053   2.720   2.403
14407W        W86832  12.208  27.548   4.316
14408W        W86833   5.906  22.066  13.032
14409W        W86834  12.823  19.131  14.887
14410W        W86835  44.426  13.765  10.569
14411W        W86836  16.645  42.902   1.301
14412W        W86837   9.261   1.417   3.321
14413W        W86838   2.234  10.758   1.815
14414W        W86839  21.237  12.687  13.344
14415W        W86840   1.975   7.401   2.228
14416W        W86841  29.960  28.513  11.482
14417W        W86842  43.514   1.353  12.512
14418W        W86843  44.465  19.537  12.360
14419W        W86844  20.196   9.693   4.283
14420W        W86845  39.487   6.237  10.612
14421W        W86846  25.673  21.254   1.901
14422W        W86847   4.402   6.213   1.404
14423W        W86848  30.957  27.513  10.625
14424W        W86849  35.940  37.884  10.501
14425W        W86850  41.462   3.253  11.064
14426W        W86851  44.783  42.412  13.471
14427W        W86852  41.495   1.943   3.791
14428W        W86853  26.182  23.565   3.708
14429W        W86854  20.222  25.118   1.759
14430W        W86855  33.556  20.546  13.352
14431W        W86856  39.395  27.494  13.477
14432W        W86857  14.282   9.170   2.357
14433W        W86858   5.355  35.994   2.343
14434W        W86859  42.788  40.328   1.842
14435W        W86860  10.332  14.631  14.332
14436W        W86861  11.331  34.949   4.343
14437W        W86862  38.969  44.411   0.842
14438W        W86863  43.988  24.975  10.976
14439W        W86864  32.080   3.818  13.436
14440W        W86865  22.087  40.901   3.341
14441W        W86866  43.405  31.584  12.919
14442W        W86867  28.669   9.846  11.475
14443W        W86868  43.446  22.015   3.783
14444W        W86869  18.122   2.325  11.915
14445W        W86870  43.409  21.165   1.755
14446W        W86871  19.660  14.727  12.083
14447W        W86872  25.522  27.187   2.726
14448W        W86873  13.784   3.435   1.349
14449W        W86874  11.335  15.723   2.807
14450W        W86875   8.723  20.753  13.886
14451W        W86876   3.902  37.540   5.310
14452W        W86877  10.684   2.243  14.335
14453W        W86878  22.140   5.276   1.822
14454W        W86879  23.513  44.802  13.887
14455W        W86880   9.736  12.216  14.329
14456W        W86881  17.158  36.032  13.514
14457W        W86882   8.252  40.390   4.827
14458W        W86883   3.830  23.068  14.503
14459W        W86884  39.430  11.318   2.757
14460W        W86885   4.879  15.173   1.747
14461W        W86886  19.659   7.290   4.181
14462W        W86887  20.130  12.240   2.732
14463W        W86888  40.941  23.555  12.018
14464W        W86889  28.603  22.184   0.445
14465W        W86890  33.489  10.654   1.834
14466W        W86891  26.531   2.912  13.367
14467W        W86892  29.059  26.132  13.490
14468W        W86893  29.038  16.595  13.962
14469W        W86894  38.959  35.077   2.664
14470W        W86895  31.448   2.910  12.920
14471W        W86896   7.279  25.608   2.896
14472W        W86897  19.750  17.607  14.331
14473W        W86898  31.531  30.494   4.708
14474W        W86899   9.200  26.181   4.723
14475W        W86900  37.494  26.115   4.279
14476W        W86901   7.671  29.527   4.194
14477W        W86902  25.017  34.081   1.309
14478W        W86903   4.783   1.839   4.811
14479W        W86904   2.304   3.906   0.729
14480W        W86905  20.549  32.558   3.796
14481W        W86906  32.391  22.132  14.421
14482W        W86907  26.113  21.192  11.578
14483W        W86908  25.992   2.373   4.648
14484W        W86909  37.032  41.916  10.917
14485W        W86910  20.674   4.862   0.965
14486W        W86911  17.690  18.668  12.452
14487W        W86912   9.335   3.721  12.911
14488W        W86913  38.025  28.599   0.282
14489W        W86914  42.995  12.295   3.359
14490W        W86915  17.153  24.984   0.842
14491W        W86916  27.464  14.235   0.473
14492W        W86917  28.538  12.785   0.798
14493W        W86918  14.263  11.676  13.875
14494W        W86919  44.389  39.438  10.053
14495W        W86920  11.243   8.352  10.527
14496W        W86921  25.579  39.533   4.274
14497W        W86922  39.976  44.340   3.220
14498W        W86923  10.723  13.131   0.255
14499W        W86924  27.576  30.501  11.403
14500W        W86925   8.245   8.704  14.490
14501W        W86926  44.969  14.160   0.372
14502W        W86927   8.782  43.494  12.896
14503W        W86928   8.186   5.879   3.169
14504W        W86929  15.195  38.474  13.021
14505W        W86930  29.436  15.280  14.939
14506W        W86931  44.348  17.715  14.814
14507W        W86932   8.738  11.786   3.659
14508W        W86933  16.223  39.421   0.878
14509W        W86934  29.576  39.375  12.936
14510W        W86935  25.497   0.255   4.318
14511W        W86936  30.024  25.215   2.711
14512W        W86937  15.187  40.448  10.418
14513W        W86938   4.810   5.201  12.906
14514W        W86939  41.912  12.252  14.850
14515W        W86940  18.749  44.924   2.382
14516W        W86941   0.336   1.745   1.425
14517W        W86942   1.339   1.240  14.864
14518W        W86943   4.732  27.961  14.507
14519W        W86944  19.077  34.570  11.946
14520W        W86945  41.473  31.509  12.010
14521W        W86946  28.941  24.225   2.758
14522W        W86947  27.044   5.771  12.408
14523W        W86948   3.251  38.336  14.452
14524W        W86949  12.207  18.290   3.775
14525W        W86950  44.358  32.998  13.491
14526W        W86951  18.779  16.162  10.889
14527W        W86952  39.834  44.451   9.999
14528W        W86953   8.684   5.272   4.326
14529W        W86954  11.647  13.713  13.982
14530W        W86955  28.137  18.067  13.514
14531W        W86956  30.063  44.868  13.392
14532W        W86957   5.730   8.800  14.892
14533W        W86958  11.138  31.118   0.306
14534W        W86959  14.171  43.465   0.386
14535W        W86960  37.877  29.561  14.475
14536W        W86961   0.377  42.867   2.198
14537W        W86962  42.873  20.533  11.092
14538W        W86963  17.069   4.440   4.156
14539W        W86964  18.111  19.100  11.119
14540W        W86965  39.555  44.934  14.800
14541W        W86966  25.543  21.105   2.230
14542W        W86967  32.123   0.313   3.848
14543W        W86968   0.366  36.529  10.561
14544W        W86969  31.957  37.357  12.427
14545W        W86970  25.984  43.806  14.878
14546W        W86971  23.530   4.891   3.869
14547W        W86972  22.081   3.415  13.359
14548W        W86973  23.134  44.447  12.873
14549W        W86974  24.538  39.812   1.707
14550W        W86975  38.504  31.142   1.373
14551W        W86976   6.209  27.041  14.802
14552W        W86977   4.287  30.950   0.265
14553W        W86978  20.034   5.874   2.873
14554W        W86979  35.935   5.723   4.721
14555W        W86980   0.254  12.620   4.337
14556W        W86981   4.747  36.969  13.537
14557W        W86982  29.562  28.077   1.259
14558W        W86983   5.394  28.070   1.362
14559W        W86984   1.422  25.706   3.831
14560W        W86985   1.273   0.894   2.330
14561W        W86986  44.996  39.881  14.443
14562W        W86987  43.853  34.965  14.925
14563W        W86988  16.249  41.450   1.214
14564W        W86989  44.914   3.897   0.329
14565W        W86990  25.498  24.096  10.604
14566W        W86991  32.907  22.658   2.210
14567W        W86992  43.374  41.412   0.336
14568W        W86993  10.651  21.215  12.503
14569W        W86994  16.692   4.375   0.356
14570W        W86995   6.395  16.620   1.431
14571W        W86996   1.881  27.530  10.971
14572W        W86997  14.226  32.422  10.534
14573W        W86998  39.388   8.723  11.085
14574W        W86999   3.454  11.658  11.386
14575W        W87000  29.542  37.059   0.928
14576W        W87001  22.152  21.569  13.020
14577W        W87002   4.220  38.377  13.472
14578W        W87003  30.037  30.155  10.490
14579W        W87004   8.400  10.240  10.951
14580W        W87005   6.383  42.372  12.878
14581W        W87006  44.328  21.713   3.825
14582W        W87007   2.439  18.697   4.181
14583W        W87008  32.896  34.954   2.249
14584W        W87009  43.806  33.434  14.970
14585W        W87010  33.912  28.635   3.753
14586W        W87011  15.207  28.072   0.411
14587W        W87012  37.879  24.533   5.118
14588W        W87013  11.708  40.525  14.405
14589W        W87014  18.186  36.477   3.293
14590W        W87015  10.273  40.843   3.764
14591W        W87016  25.628  26.049  10.976
14592W        W87017  23.650   0.979   2.276
14593W        W87018  25.138  34.440   4.164
14594W        W87019  15.594  33.412   4.637
14595W        W87020  23.669   9.389   2.399
14596W        W87021  42.392  43.305   0.280
14597W        W87022  34.882  18.071   2.415
14598W        W87023  34.970  29.031  10.900
14599W        W87024   9.867   3.858  10.978
14600W        W87025  43.926  20.628   3.364
14601W        W87026   9.165  10.173  13.878
14602W        W87027   9.382  41.351   1.427
14603W        W87028  29.607  16.810   1.810
14604W        W87029  30.548  42.925  13.949
14605W        W87030  21.032  21.707  14.375
14606W        W87031  12.804  21.653  13.399
14607W        W87032  36.999  12.293  12.019
14608W        W87033  35.048  29.526   1.340
14609W        W87034   8.794  16.176   1.738
14610W        W87035  15.118  42.320   3.841
14611W        W87036  28.142   3.886   2.757
14612W        W87037   7.725  20.554  10.543
14613W        W87038  40.314  36.923  12.014
14614W        W87039  19.717  29.962  10.944
14615W        W87040   4.313  43.335   1.891
14616W        W87041  37.851  13.615  12.927
14617W        W87042   3.321  23.097  12.392
14618W        W87043  32.629  32.481  14.838
14619W        W87044  39.063  11.696   0.896
14620W        W87045  29.120  19.755   3.309
14621W        W87046  30.555  28.097  13.027
14622W        W87047   5.295  38.363  11.039
14623W        W87048   7.695  36.077   0.859
14624W        W87049  15.103  24.214  13.968
14625W        W87050   0.878  29.153   0.743
14626W        W87051   8.881  23.025   2.290
14627W        W87052   8.203  22.740   1.757
14628W        W87053  21.170  14.640   0.463
14629W        W87054  21.128   9.212  11.018
14630W        W87055  11.726  13.303   1.822
14631W        W87056  17.142   8.695   9.995
14632W        W87057  22.151  33.058   3.711
14633W        W87058  19.615  33.390  10.464
14634W        W87059  30.659   4.374   3.834
14635W        W87060  25.629  28.556   3.870
14636W        W87061  19.189  16.617   3.654
14637W        W87062  23.053  13.721  11.580
14638W        W87063  30.475  35.413  12.339
14639W        W87064  32.006  13.132  11.081
14640W        W87065  34.421   6.352  11.117
14641W        W87066  12.257   2.379   4.131
14642W        W87067  30.043  43.364   2.763
14643W        W87068   2.901  35.553   0.439
14644W        W87069  44.971  15.180   1.768
14645W        W87070  36.384  38.922   4.315
14646W        W87071  16.291   1.462  14.434
14647W        W87072  26.165  31.541  10.603
14648W        W87073  12.260  33.994  12.362
14649W        W87074  38.515  43.477   1.737
14650W        W87075  27.551  22.177  14.449
14651W        W87076  35.881   8.226  12.881
14652W        W87077  13.782  25.598   0.459
14653W        W87078  11.827  11.622   0.955
14654W        W87079   4.361   3.849  13.519
14655W        W87080  23.051  28.619   0.425
14656W        W87081  24.033  39.899   0.801
14657W        W87082  26.456   9.710  14.419
14658W        W87083  39.527  23.063   4.162
14659W        W87084  10.669  23.129   1.842
14660W        W87085   1.446   6.303   2.284
14661W        W87086  15.253   9.735  12.502
14662W        W87087   8.261  22.146  13.350
14663W        W87088  19.162  23.527   3.201
14664W        W87089  24.206  10.658  11.059
14665W        W87090  24.595  35.953  11.050
14666W        W87091  41.943   0.449  10.523
14667W        W87092  43.785  15.213  13.898
14668W        W87093  25.207  24.710   1.294
14669W        W87094  24.501  38.371  11.393
14670W        W87095   3.856   5.903   1.706
14671W        W87096  32.973  31.449   0.862
14672W        W87097  17.203  32.004   1.716
14673W        W87098  27.652   0.841   2.387
14674W        W87099  40.497  19.056  12.089
14675W        W87100  40.867  38.394  10.489
14676W        W87101  33.979  12.785   4.234
14677W        W87102  42.447  26.615   2.688
14678W        W87103  17.102  37.993  12.559
14679W        W87104   1.282  25.510  10.944
14680W        W87105  39.377  39.825  10.474
14681W        W87106  15.164  25.545   1.215
14682W        W87107  30.654   8.863  13.892
14683W        W87108  28.999  15.699  10.601
14684W        W87109  15.146  21.084   3.322
14685W        W87110  42.465  44.858   1.845
14686W        W87111  27.584  12.857   3.243
14687W        W87112  35.094  16.582  11.465
14688W        W87113  44.947  41.529   0.270
14689W        W87114   7.390  40.458  14.415
14690W        W87115  40.415  42.779  10.552
14691W        W87116   8.668  26.459  14.343
14692W        W87117  43.322  17.263  11.038
14693W        W87118  34.536  38.840   2.220
14694W        W87119  33.100  32.501   4.121
14695W        W87120  23.695   0.939  14.861
14696W        W87121   3.879  32.586   2.193
14697W        W87122  38.052  22.705   3.266
14698W        W87123   2.307  17.680   4.309
14699W        W87124   8.699  25.184   3.284
14700W        W87125  12.144  32.964   0.468
14701W        W87126  43.449   5.317   4.171
14702W        W87127  35.471  42.290  14.926
14703W        W87128  32.476  39.992  12.438
14704W        W87129   7.802  16.269  13.544
14705W        W87130  44.332  18.051  14.355
14706W        W87131  19.695  31.962   1.302
14707W        W87132   3.859  39.882  11.400
14708W        W87133  24.169  30.464   9.961
14709W        W87134   6.305   8.223   1.283
14710W        W87135  12.360  39.030   4.724
14711W        W87136  39.330  40.973   4.235
14712W        W87137  33.613   4.304   4.257
14713W        W87138   3.812  29.051   0.398
14714W        W87139  22.551  20.666   1.393
14715W        W87140  40.549  16.312   4.752
14716W        W87141   7.752  32.973   4.779
14717W        W87142  40.827   2.802   4.233
14718W        W87143  35.066  17.696   1.738
14719W        W87144  14.666  13.188   0.821
14720W        W87145  43.924  38.561  12.016
14721W        W87146   7.804   3.931   3.259
14722W        W87147  19.104  34.447  10.457
14723W        W87148  29.929  14.780   2.760
14724W        W87149   0.765  14.651  12.579
14725W        W87150  22.206   4.440  14.515
14726W        W87151  40.483  42.817  11.063
14727W        W87152  17.165  10.838  11.025
14728W        W87153   1.805  22.507   1.446
14729W        W87154  29.099  43.906   0.935
14730W        W87155  17.281  29.984  10.636
14731W        W87156  43.381   4.757  14.005
14732W        W87157   2.384  13.292   3.153
14733W        W87158  16.716  24.182  11.049
14734W        W87159  30.492  23.705  11.129
14735W        W87160   7.669  43.320   3.345
14736W        W87161  34.480  32.093  14.945
14737W        W87162  24.027  39.359   3.308
14738W        W87163  29.589  10.272  13.404
14739W        W87164  35.063  31.578  11.022
14740W        W87165   6.227  18.193  14.386
14741W        W87166   4.384  43.918   2.787
14742W        W87167  13.322  34.956  14.762
14743W        W87168  41.356  27.045   1.362
14744W        W87169  21.607  33.393  11.470
14745W        W87170   2.381   0.474   1.444
14746W        W87171  26.127  34.510  14.888
14747W        W87172  18.607   1.357   1.372
14748W        W87173  29.071   4.261  12.959
14749W        W87174  44.422  37.064   3.683
14750W        W87175  34.486  26.049  11.460
14751W        W87176   8.739  11.317   4.180
14752W        W87177  32.506  20.730   1.927
14753W        W87178  15.251   1.897   3.862
14754W        W87179  22.224  26.085  10.563
14755W        W87180  19.083  42.500  12.049
14756W        W87181  32.457  30.524  14.489
14757W        W87182  41.413  15.180  11.497
14758W        W87183  34.976   4.798   4.792
14759W        W87184  34.991  11.784   2.777
14760W        W87185  44.771  31.008  14.283
14761W        W87186  39.028  29.570  13.429
14762W        W87187   1.798  34.971  12.033
14763W        W87188  24.986  37.961   2.300
14764W        W87189  39.334  19.279   4.338
14765W        W87190   3.943  38.535   3.323
14766W        W87191   5.802  12.773   1.357
14767W        W87192  43.419  17.090   2.869
14768W        W87193  15.100  43.352   1.892
14769W        W87194  10.674  34.002  14.856
14770W        W87195  26.118   3.717  13.840
14771W        W87196   5.365  44.850   1.935
14772W        W87197  28.597   2.330   1.405
14773W        W87198  41.031  10.166  14.471
14774W        W87199  11.323  25.645   4.213
14775W        W87200  10.762  23.572  13.416
14776W        W87201  26.624  33.113  14.760
14777W        W87202  13.279  15.275  10.986
14778W        W87203  33.513  25.077   2.336
14779W        W87204  33.999  10.674   2.320
14780W        W87205   4.734  12.847   3.643
14781W        W87206  30.126   7.366   1.354
14782W        W87207  43.973   0.257   1.347
14783W        W87208  37.514   3.436  11.570
14784W        W87209   8.187  30.473   1.884
14785W        W87210  41.808  41.381  13.462
14786W        W87211  37.914   8.321   2.722
14787W        W87212  11.819   9.744  12.420
14788W        W87213  23.047  21.038  14.411
14789W        W87214   2.348   3.844   2.276
14790W        W87215  40.890  36.867  10.576
14791W        W87216  25.707  40.374   1.321
14792W        W87217  28.674  44.870  11.023
14793W        W87218  12.135  29.606   0.770
14794W        W87219  13.689  28.937   0.845
14795W        W87220   2.430  31.490   3.733
14796W        W87221  21.535  42.971   0.253
14797W        W87222   0.354  28.169  13.451
14798W        W87223   3.350   4.446  11.887
14799W        W87224  11.696  38.924  12.366
14800W        W87225   3.900  29.492  10.040
14801W        W87226   1.914  41.409   1.263
14802W        W87227   7.217  17.584   0.439
14803W        W87228  13.291  19.578  14.788
14804W        W87229  14.755  41.322   3.161
14805W        W87230  26.622  24.216  13.837
14806W        W87231   1.462  32.397  14.994
14807W        W87232  37.891  36.061   5.288
14808W        W87233  35.518  30.912   3.687
14809W        W87234   9.766   6.713  10.947
14810W        W87235  26.982  43.331   3.655
14811W        W87236  20.587  42.777  12.518
14812W        W87237  17.127  37.079  11.445
14813W        W87238  24.175   4.726   4.732
14814W        W87239  37.398  20.064   1.927
14815W        W87240  38.433  16.748   1.448
14816W        W87241  39.961  34.005  13.438
14817W        W87242  29.478   0.854   2.728
14818W        W87243  39.485  31.067  10.940
14819W        W87244   1.398  23.163  12.534
14820W        W87245   5.843  44.293  13.800
14821W        W87246  31.133  18.677  14.956
14822W        W87247   1.754  15.237   1.392
14823W        W87248  16.724  26.144  13.375
14824W        W87249  24.151  21.260   1.247
14825W        W87250  20.767  20.587  14.873
14826W        W87251   8.252  11.828  12.019
14827W        W87252  32.419  17.240  14.367
14828W        W87253   2.815  12.313  14.393
14829W        W87254  31.151  12.832  12.860
14830W        W87255  41.989  20.582  11.391
14831W        W87256  22.229  34.482   1.726
14832W        W87257  37.461  35.995  11.889
14833W        W87258   0.438  25.045  10.645
14834W        W87259   4.368  44.361  11.961
14835W        W87260  24.517  36.856  10.532
14836W        W87261  31.543  38.376  13.454
14837W        W87262   8.758  31.925   4.195
14838W        W87263  21.108  41.330  12.020
14839W        W87264  17.682  29.424   1.264
14840W        W87265  24.505  15.193   4.240
14841W        W87266  28.507  37.530  12.950
14842W        W87267  36.065  20.651   1.870
14843W        W87268   2.237  40.053  12.034
14844W        W87269  16.232  38.552  11.914
14845W        W87270  44.447   2.364   4.352
14846W        W87271   7.737   1.801  14.398
14847W        W87272  24.092  26.503  12.458
14848W        W87273  36.022  41.475   0.334
14849W        W87274  13.135  21.222   4.786
14850W        W87275  32.555  16.648   9.991
14851W        W87276  31.909  12.660   1.387
14852W        W87277  36.384  31.590   4.639
14853W        W87278  33.897  19.279   4.236
14854W        W87279  35.456  26.983   3.198
14855W        W87280  23.572   8.779   2.867
14856W        W87281  16.769   0.352   0.463
14857W        W87282  12.660  39.863  11.946
14858W        W87283  22.681   2.870  12.965
14859W        W87284  26.663  34.599  13.379
14860W        W87285  21.061  33.983   4.740
14861W        W87286  36.382  15.764   0.890
14862W        W87287  36.578  22.187   3.667
14863W        W87288   5.294  37.564   4.154
14864W        W87289  20.045  10.384  10.928
14865W        W87290  20.592   7.331  10.629
14866W        W87291   8.772  27.987   3.855
14867W        W87292   2.360  19.140  12.928
14868W        W87293   4.836  17.240   2.373
14869W        W87294  31.974  20.060  10.507
14870W        W87295  11.820   2.405  11.904
14871W        W87296  11.734  17.668  14.292
14872W        W87297  39.964  20.532   4.699
14873W        W87298  34.905  17.266   4.781
14874W        W87299  44.980  23.046  11.885
14875W        W87300  28.066  38.330  14.322
14876W        W87301  35.375  12.848  14.844
14877W        W87302  42.386  28.046  10.557
14878W        W87303  29.489  15.106   4.354
14879W        W87304  27.582  26.190  10.996
14880W        W87305  36.536  17.267  10.546
14881W        W87306  10.775  21.188  13.548
14882W        W87307  18.547  21.126  14.848
14883W        W87308  36.391  22.649  14.903
14884W        W87309  44.325  43.450  13.836
14885W        W87310  22.692  35.518   4.742
14886W        W87311  10.869  29.493  13.047
14887W        W87312  14.709   7.894  10.475
14888W        W87313  39.314  35.413   0.784
14889W        W87314  40.413  10.141   4.332
14890W        W87315  26.161   5.748  11.951
14891W        W87316  33.111  21.627  11.600
14892W        W87317   4.405  29.942  10.458
14893W        W87318   4.364  27.950   1.728
14894W        W87319  32.455   5.204   3.819
14895W        W87320  31.597   8.667   0.478
14896W        W87321  11.823  23.196   9.984
14897W        W87322  32.944  22.230  13.512
14898W        W87323  14.682  29.057  11.046
14899W        W87324  19.124  36.500  10.925
14900W        W87325  19.196  26.084  11.597
14901W        W87326  15.197   9.856   4.809
14902W        W87327  32.467  38.506   2.230
14903W        W87328  44.842   1.313  11.123
14904W        W87329  29.001   6.745  11.398
14905W        W87330   1.978  39.057   3.798
14906W        W87331  12.652  28.930   1.408
14907W        W87332  40.898  18.690  12.424
14908W        W87333   3.377  25.135   4.135
14909W        W87334  34.557  36.501   1.902
14910W        W87335   4.767  25.157   4.831
14911W        W87336  10.186  13.349  14.928
14912W        W87337  24.029   3.833  11.457
14913W        W87338  10.159  24.106   4.711
14914W        W87339  39.839  12.233  12.557
14915W        W87340  40.508  13.764  11.545
14916W        W87341  20.269  40.043   3.859
14917W        W87342  14.735   4.830   0.785
14918W        W87343  41.933   6.360  13.007
14919W        W87344  27.456  37.341  11.605
14920W        W87345  18.561   1.307  12.418
14921W        W87346  20.136  29.596  14.020
14922W        W87347   2.891  41.506   1.371
14923W        W87348  10.307  43.367  10.121
14924W        W87349  16.622  37.048   3.673
14925W        W87350  32.451  28.640   4.157
14926W        W87351   8.267  18.282   1.234
14927W        W87352  16.649  28.580   1.419
14928W        W87353  34.518  39.913  13.864
14929W        W87354  14.196   1.762   3.832
14930W        W87355   5.877  39.835   2.327
14931W        W87356  32.087  22.155  10.979
14932W        W87357  37.497   7.359   3.361
14933W        W87358  21.059   0.777   1.884
14934W        W87359  42.483  38.899  10.567
14935W        W87360  27.582  41.966  13.419
14936W        W87361  14.111  19.642  10.544
14937W        W87362  27.463  21.054   5.231
14938W        W87363  44.825  29.931   3.762
14939W        W87364  39.817  26.531   0.264
14940W        W87365  11.289  20.708  13.899
14941W        W87366   4.361  31.547  13.452
14942W        W87367  37.435  18.238   3.355
14943W        W87368  32.925   2.906   2.266
14944W        W87369   9.351  34.527   1.302
14945W        W87370  32.596  41.365   3.208
14946W        W87371  17.276  44.287   0.782
14947W        W87372  22.742  25.511  13.492
14948W        W87373  20.723  33.620  12.513
14949W        W87374  15.629  42.366  12.536
14950W        W87375  29.664  44.817   3.196
14951W        W87376  16.709  40.958  11.088
14952W        W87377  13.208  43.809   1.437
14953W        W87378  33.400  28.489  13.954
14954W        W87379  12.130  24.050  12.857
14955W        W87380  22.247  34.508   0.936
14956W        W87381   5.920  20.166   2.736
14957W        W87382  39.813  11.371  11.952
14958W        W87383  23.120  12.765  12.048
14959W        W87384  36.381   8.197   3.150
14960W        W87385   9.303   7.368  13.037
14961W        W87386   3.458  30.010  11.057
14962W        W87387  34.486  17.171   1.802
14963W        W87388  19.210  16.122  11.390
14964W        W87389   0.776  13.693   4.808
14965W        W87390  30.152  42.308  12.956
14966W        W87391   6.696  16.200  12.074
14967W        W87392  39.051  33.387   4.652
14968W        W87393  27.564   2.960   0.315
14969W        W87394  35.401  19.075  13.449
14970W        W87395  32.475  38.496  12.398
14971W        W87396  44.428   1.748  14.484
14972W        W87397  29.176  21.560  12.405
14973W        W87398  24.123  11.285   3.366
14974W        W87399   1.833  14.227   2.768
14975W        W87400  28.651  19.715  10.902
14976W        W87401  19.600  42.929   1.824
14977W        W87402  34.395   9.245  13.943
14978W        W87403  17.061   6.677   4.691
14979W        W87404  16.763  34.590  10.436
14980W        W87405  22.607  43.423   1.856
14981W        W87406  22.595  19.725   3.855
14982W        W87407  22.514  21.125   4.837
14983W        W87408  21.583  31.442   1.345
14984W        W87409  37.066  22.729  13.989
14985W        W87410  41.964  28.582   0.879
14986W        W87411  41.908   6.235   0.386
14987W        W87412  19.643  16.645  14.451
14988W        W87413  10.143  23.027  12.919
14989W        W87414  15.730  28.159   2.820
14990W        W87415  32.971  30.025   4.123
14991W        W87416  23.206  25.678  11.520
14992W        W87417  12.737  18.706  12.570
14993W        W87418   7.827  30.963   1.772
14994W        W87419  32.032  16.107  10.031
14995W        W87420  44.315  41.496  13.973
14996W        W87421   0.830  23.594   2.666
14997W        W87422   7.834   1.838   9.932
14998W        W87423  35.095   9.339   4.351
14999W        W87424  36.886  36.390  12.880
15000W        W87425   7.892  11.780  10.889
15001W        W87426  28.449  42.029   3.305
15002W        W87427  36.025   9.820  10.538
15003W        W87428  42.006  28.497  13.308
15004W        W87429  35.533  26.508  11.060
15005W        W87430  11.345  27.586   3.679
15006W        W87431  40.012   9.857   1.216
15007W        W87432  35.375  10.207  12.901
15008W        W87433  20.670  19.119   3.649
15009W        W87434  13.201   6.193   2.393
15010W        W87435  27.560  27.166   1.765
15011W        W87436  41.507   0.271   4.626
15012W        W87437  40.329  34.994  12.089
15013W        W87438  11.716  31.055   1.709
15014W        W87439  25.669  44.967   3.823
15015W        W87440  25.216  33.116  11.949
15016W        W87441  21.522  38.934   3.314
15017W        W87442  16.284  37.381  10.628
15018W        W87443  11.154  33.875  10.944
15019W        W87444  21.219   0.880  14.951
15020W        W87445   2.413  18.242  10.508
15021W        W87446  34.915   6.421   4.330
15022W        W87447  41.877  23.547   2.665
15023W        W87448  22.100  35.540  10.616
15024W        W87449  22.015  42.337   0.843
15025W        W87450   8.274  33.412   2.404
15026W        W87451   4.940  36.580   1.386
15027W        W87452  14.269  23.723  14.827
15028W        W87453  43.499  29.049   0.775
15029W        W87454  29.113  37.918  12.349
15030W        W87455  16.242  10.764  14.413
15031W        W87456  20.678  10.352   4.823
15032W        W87457   4.292  35.977   2.856
15033W        W87458  13.771  28.656   2.770
15034W        W87459  39.506  37.374  12.882
15035W        W87460  20.527   8.310   4.323
15036W        W87461  27.619  13.306  11.958
15037W        W87462  22.514   3.429  13.003
15038W        W87463  25.630  14.599   3.260
15039W        W87464  14.278  34.594  13.048
15040W        W87465   5.863  32.032   2.900
15041W        W87466  26.508  44.371  14.292
15042W        W87467   1.919  36.553  12.825
15043W        W87468  24.999  36.992   0.378
15044W        W87469  22.036  11.710  13.945
15045W        W87470   6.722   1.815   4.121
15046W        W87471  43.324  36.929  12.529
15047W        W87472  11.240  42.996   0.393
15048W        W87473   4.347  15.220   1.326
15049W        W87474  18.594  29.094   3.375
15050W        W87475   3.822  17.249   3.266
15051W        W87476   2.935  42.968   1.785
15052W        W87477  34.460  42.786   0.400
15053W        W87478  17.109  27.519   1.832
15054W        W87479  15.308  15.112  11.453
15055W        W87480   2.369  10.191  10.440
15056W        W87481  39.404  41.507   0.740
15057W        W87482   5.329   3.414  10.464
15058W        W87483   6.801  37.953   1.253
15059W        W87484  40.436  21.252  12.524
15060W        W87485  23.605  43.345  12.037
15061W        W87486   1.400   7.749   3.741
15062W        W87487  31.634  13.650   2.834
15063W        W87488  44.466   1.440   1.301
15064W        W87489  28.492   3.822  11.054
15065W        W87490  42.314  34.566  12.893
15066W        W87491  26.642  12.638   4.322
15067W        W87492  18.576  16.811   1.696
15068W        W87493  16.135  23.184   3.197
15069W        W87494  13.344  30.563   4.598
15070W        W87495  43.979  44.926  13.375
15071W        W87496   7.322   2.903   3.224
15072W        W87497  24.525   8.753  13.338
15073W        W87498   9.296  37.022  12.989
15074W        W87499  13.172   8.319  12.000
15075W        W87500   6.730  24.048   3.176
15076W        W87501  31.122  25.128  12.945
15077W        W87502  25.595  21.045  10.639
15078W        W87503  29.446  10.777   4.310
15079W        W87504  40.420  23.003  11.549
15080W        W87505  13.785  25.679  14.835
15081W        W87506  40.846  39.342   1.745
15082W        W87507   7.672  11.329  13.869
15083W        W87508  21.580  19.134   0.353
15084W        W87509  37.454   2.806   3.635
15085W        W87510  16.748  42.812  13.024
15086W        W87511  34.560  18.195  12.992
15087W        W87512  22.598  40.013   2.816
15088W        W87513  35.436  32.081   5.311
15089W        W87514   9.214  20.674  14.496
15090W        W87515   8.205  18.753  14.799
15091W        W87516  31.636  10.146  12.039
15092W        W87517   1.392  37.963   2.272
15093W        W87518  39.898  25.026  12.522
15094W        W87519  21.592  21.221   9.954
15095W        W87520  19.551  43.382   1.849
15096W        W87521  12.770  11.233   1.275
15097W        W87522  34.072   5.195   1.742
15098W        W87523  15.815  34.480   3.312
15099W        W87524   9.740   1.256  10.977
15100W        W87525  23.205   1.796  14.413
15101W        W87526  16.136  22.129   4.685
15102W        W87527  27.533   9.203  12.955
15103W        W87528   0.427  18.128  14.891
15104W        W87529   0.799  12.159   2.392
15105W        W87530  43.497  25.505  12.946
15106W        W87531  30.939  18.556  13.955
15107W        W87532  37.047  38.920   2.278
15108W        W87533  24.641  12.134   3.153
15109W        W87534  42.992  38.467  13.910
15110W        W87535  32.074  14.283  11.976
15111W        W87536  12.793  34.863  10.543
15112W        W87537  23.182  19.051  12.916
15113W        W87538  40.313   8.314  12.394
15114W        W87539  41.443  21.625   0.904
15115W        W87540  41.921  40.427   0.869
15116W        W87541  37.835  24.208  14.279
15117W        W87542  30.555   2.289  13.983
15118W        W87543   2.261  28.000   4.303
15119W        W87544  42.797  42.456  10.476
15120W        W87545  43.884  36.074   4.620
15121W        W87546  16.273  29.038  12.826
15122W        W87547  11.232  35.954   1.830
15123W        W87548  35.377  21.613  11.070
15124W        W87549   5.439  37.878   2.257
15125W        W87550  30.918  20.264  14.354
15126W        W87551  41.460  39.953  10.901
15127W        W87552   0.961  34.375   4.658
15128W        W87553  11.166  43.320  14.467
15129W        W87554  29.563   3.355   4.268
15130W        W87555   8.868   6.264   4.828
15131W        W87556   6.699  38.329  10.629
15132W        W87557  28.513  29.464   3.809
15133W        W87558  25.049  44.308   2.188
15134W        W87559   3.358  25.575  10.473
15135W        W87560  12.851   8.726  13.928
15136W        W87561  37.427  22.663  13.979
15137W        W87562   9.328  21.549   4.167
15138W        W87563  10.797   5.904   1.311
15139W        W87564  41.041  39.854  11.415
15140W        W87565  21.101  28.093   2.736
15141W        W87566  12.140   2.431  12.980
15142W        W87567  34.536   2.248   4.600
15143W        W87568  22.152  29.560   4.657
15144W        W87569  14.780  15.748   3.327
15145W        W87570   2.347  37.470   2.391
15146W        W87571   4.860  27.947  14.959
15147W        W87572   9.250   6.272   2.785
15148W        W87573  19.127  29.520   0.932
15149W        W87574   1.846  10.353  13.833
15150W        W87575  14.606  29.147   2.689
15151W        W87576  10.700  44.924   2.828
15152W        W87577  36.857  43.447   1.228
15153W        W87578  29.013   8.217  10.447
15154W        W87579  12.336  41.495  13.414
15155W        W87580  24.188  11.347  14.397
15156W        W87581  16.737  13.778   4.751
15157W        W87582  19.614  17.065  12.541
15158W        W87583  40.801  26.126  11.875
15159W        W87584  15.633   5.268  11.960
15160W        W87585  42.357  39.436  11.412
15161W        W87586  39.005  27.997  14.365
15162W        W87587   7.398  34.542   2.837
15163W        W87588  22.659  17.714  10.536
15164W        W87589  32.988  42.481   2.375
15165W        W87590  27.581  23.050   4.663
15166W        W87591   8.171   8.374  13.418
15167W        W87592  34.486  11.287   1.864
15168W        W87593   7.310  28.962   3.705
15169W        W87594  41.422   1.291   0.420
15170W        W87595  22.686  36.505   4.780
15171W        W87596  35.938  22.158   0.320
15172W        W87597  25.120  20.747   3.311
15173W        W87598  27.064   4.255  10.631
15174W        W87599  31.584   0.269  14.314
15175W        W87600  38.404  43.009  11.957
15176W        W87601  37.069  34.001  12.878
15177W        W87602  43.500   2.457   4.729
15178W        W87603  18.200  22.090   3.687
15179W        W87604  28.579   2.450  14.766
15180W        W87605  15.204  20.190   2.304
15181W        W87606  17.757  38.400   2.837
15182W        W87607  32.472  12.213   2.243
15183W        W87608  31.505  22.661  14.500
15184W        W87609  13.617  10.858  14.351
15185W        W87610  42.905  32.138  10.546
15186W        W87611  14.246  16.762   1.866
15187W        W87612  25.506  25.015  10.035
15188W        W87613  38.849   0.924   3.765
15189W        W87614  27.463  25.146   2.382
15190W        W87615   1.473  34.442   3.855
15191W        W87616  32.928  26.464   0.389
15192W        W87617  36.521   4.810   0.258
15193W        W87618  12.819  17.591   2.825
15194W        W87619   1.844  25.599   3.795
15195W        W87620  10.202  28.081   1.428
15196W        W87621   1.371  38.900   4.265
15197W        W87622   2.234  41.043   4.267
15198W        W87623  34.528   4.402   2.715
15199W        W87624  27.519  38.903   0.801
15200W        W87625  23.587  34.561   1.431
15201W        W87626  28.160  21.148   4.290
15202W        W87627  35.855  40.053  14.351
15203W        W87628  34.923  16.713  12.963
15204W        W87629  40.472  27.177  12.870
15205W        W87630  39.320  17.076   2.679
15206W        W87631  33.920  29.625   1.820
15207W        W87632  21.120  32.050  13.916
15208W        W87633  11.663  17.616   4.182
15209W        W87634  38.333  35.380   0.766
15210W        W87635  16.635   4.210   3.638
15211W        W87636  12.268   6.292   3.731
15212W        W87637  35.451  12.158   2.224
15213W        W87638   7.338  13.129   0.262
15214W        W87639  41.891  32.973   3.228
15215W        W87640  28.496   5.434  12.936
15216W        W87641  29.130   0.823  10.500
15217W        W87642  33.546  20.598  12.345
15218W        W87643  37.548   0.401  10.491
15219W        W87644  16.144   9.295  12.496
15220W        W87645  24.070  30.513  12.945
15221W        W87646  20.238   1.341   0.815
15222W        W87647  39.330  15.123  14.947
15223W        W87648   6.311  38.516   1.273
15224W        W87649  32.996  26.182   2.390
15225W        W87650   2.816  34.521   2.884
15226W        W87651  14.737  24.670  11.942
15227W        W87652   2.728  25.694  12.042
15228W        W87653   9.328  33.896   4.116
15229W        W87654  21.708   7.680  13.953
15230W        W87655   3.928  33.425  11.075
15231W        W87656   2.764  43.358  10.492
15232W        W87657  28.540  19.206   2.878
15233W        W87658   2.967  21.606  12.550
15234W        W87659  39.421   3.831   3.319
15235W        W87660  17.275  14.731  13.314
15236W        W87661  40.541   9.352   4.189
15237W        W87662  38.477  34.548  11.086
15238W        W87663  24.713  40.330   0.302
15239W        W87664   9.240   1.409  11.417
15240W        W87665  15.616   0.963  11.901
15241W        W87666  11.822   1.827  11.078
15242W        W87667   6.372  25.501  11.068
15243W        W87668  37.428  35.416   1.887
15244W        W87669  20.661  31.479   2.241
15245W        W87670  14.340  28.123  13.312
15246W        W87671  25.579  22.067  12.856
15247W        W87672  19.554  25.638   2.359
15248W        W87673  41.487  15.816  13.832
15249W        W87674  11.748   8.240   4.731
15250W        W87675  37.543  16.207  14.815
15251W        W87676  18.611  21.239   9.956
15252W        W87677  10.829  45.000   0.864
15253W        W87678  41.349  35.531   3.786
15254W        W87679  29.126   3.789   2.348
15255W        W87680  39.869  11.147  11.557
15256W        W87681  33.054   3.783   1.819
15257W        W87682  31.079  15.696   4.675
15258W        W87683  10.878  26.678  10.097
15259W        W87684  40.010  28.581  14.017
15260W        W87685  14.158  40.447   2.269
15261W        W87686   3.779  37.900   3.268
15262W        W87687   1.322  11.150   0.245
15263W        W87688  10.643  25.547  12.944
15264W        W87689  35.857  39.506  13.428
15265W        W87690  20.073  34.865  10.589
15266W        W87691  36.532  23.536   2.250
15267W        W87692  32.459   0.418   0.281
15268W        W87693  30.159  36.844   0.778
15269W        W87694  42.945  38.043   3.284
15270W        W87695  28.953  32.900   0.918
15271W        W87696  15.221  11.318  13.021
15272W        W87697  29.642   4.414   4.721
15273W        W87698  22.221  15.174   3.850
15274W        W87699  26.201  20.582  12.823
15275W        W87700  21.700   4.718   0.898
15276W        W87701  36.358  40.948   1.813
15277W        W87702  38.850  36.357  14.960
15278W        W87703  37.488  34.059   2.849
15279W        W87704  33.882  40.528   4.633
15280W        W87705  24.638  18.787   0.414
15281W        W87706  37.924  27.072  14.007
15282W        W87707  27.666  29.543  14.391
15283W        W87708  26.493  44.457   2.698
15284W        W87709  16.315  44.362  10.451
15285W        W87710   6.399   7.337   3.301
15286W        W87711  42.839  32.587   4.299
15287W        W87712  19.277  15.809  11.880
15288W        W87713   1.909  35.507   0.308
15289W        W87714  30.063  33.591   0.263
15290W        W87715  11.740  16.258  11.871
15291W        W87716   0.449  44.312  10.510
15292W        W87717   0.869  19.157  12.825
15293W        W87718  26.606  10.718   1.833
15294W        W87719  27.166   2.949  13.049
15295W        W87720  13.762  31.957  10.951
15296W        W87721  42.903  21.627  13.921
15297W        W87722  13.211  41.455  11.446
15298W        W87723  42.909   0.474  12.561
15299W        W87724  24.165  18.605   0.352
15300W        W87725  12.772  14.318   2.409
15301W        W87726  18.293  22.662   2.188
15302W        W87727  32.899  32.937   2.296
15303W        W87728  21.621  17.680   2.375
15304W        W87729  15.295  36.974   4.326
15305W        W87730  44.259  21.111  10.424
15306W        W87731  43.951  23.995  12.456
15307W        W87732  39.457  36.555   1.914
15308W        W87733  19.258  23.238   4.665
15309W        W87734  19.090  21.187   1.404
15310W        W87735  26.982  17.215  13.529
15311W        W87736  19.216  10.763  11.442
15312W        W87737  12.239   7.181  14.841
15313W        W87738  31.418   5.715  13.827
15314W        W87739  19.737   0.251   2.756
15315W        W87740  10.185  41.538   3.345
15316W        W87741   0.271  24.509   3.679
15317W        W87742  13.685  41.860   0.319
15318W        W87743  28.562  42.838   9.966
15319W        W87744  23.005  42.777  13.820
15320W        W87745   0.325  26.080   2.184
15321W        W87746  11.715  24.141   0.813
15322W        W87747  16.669   0.444  11.061
15323W        W87748   2.813  37.049  14.766
15324W        W87749  26.951  28.615  14.856
15325W        W87750  16.737  22.045  14.996
15326W        W87751  34.081  15.087  12.993
15327W        W87752  32.001  36.506   0.414
15328W        W87753  27.503  12.138   3.861
15329W        W87754   9.845  44.987  10.491
15330W        W87755   2.409  42.814  10.892
15331W        W87756  26.121   6.722   3.741
15332W        W87757   3.324  25.509   2.825
15333W        W87758   8.309  19.620  14.396
15334W        W87759  28.487  41.316  12.385
15335W        W87760  21.613   8.214  12.408
15336W        W87761  18.167   6.852   0.941
15337W        W87762   5.768   6.758  13.354
15338W        W87763  27.497  40.836   2.667
15339W        W87764  27.534  22.009  11.051
15340W        W87765   7.782  23.180   4.680
15341W        W87766   2.802   5.903  11.866
15342W        W87767  11.322  24.100   3.287
15343W        W87768   9.685  24.001  11.929
15344W        W87769  42.903  40.378  13.494
15345W        W87770   7.327  23.152  10.490
15346W        W87771  24.195  19.568   1.394
15347W        W87772  18.068  29.968  10.422
15348W        W87773  15.787  12.836  14.022
15349W        W87774  43.288  39.945  12.526
15350W        W87775  14.268  13.720  12.904
15351W        W87776  29.608   7.908  14.765
15352W        W87777  40.000  14.797   1.803
15353W        W87778  28.151  33.989  14.488
15354W        W87779  29.494  21.152   1.433
15355W        W87780  42.939  32.987  13.477
15356W        W87781  10.848   1.741  12.075
15357W        W87782  21.753  14.118   1.926
15358W        W87783  28.037  15.133   3.286
15359W        W87784  29.600  19.230  13.379
15360W        W87785  32.104  15.743  13.316
15361W        W87786  34.535  15.765  11.060
15362W        W87787  37.498  44.942   4.271
15363W        W87788  15.636  32.103   2.796
15364W        W87789  31.944   5.234  12.353
15365W        W87790  33.558  34.004  11.959
15366W        W87791  31.943   8.363  11.444
15367W        W87792  21.685  16.711   1.707
15368W        W87793  14.205  31.046  10.428
15369W        W87794  43.504   6.238  13.989
15370W        W87795  17.603  43.274   4.296
15371W        W87796   2.941   7.853  13.335
15372W        W87797  30.423   7.296   0.290
15373W        W87798  37.539  37.514  10.026
15374W        W87799  16.309  16.214  14.412
15375W        W87800   8.329  35.004  13.823
15376W        W87801  27.523  20.181  13.331
15377W        W87802  35.926  12.179   2.853
15378W        W87803  24.508  28.069  11.035
15379W        W87804   7.322   7.838   5.276
15380W        W87805  37.450  36.486   0.406
15381W        W87806  38.551   6.413  11.963
15382W        W87807  25.566  28.140  14.392
15383W        W87808   9.204   5.437  14.926
15384W        W87809  36.033  24.662   1.377
15385W        W87810  37.848  12.687   2.224
15386W        W87811  21.031  12.158   3.808
15387W        W87812  13.685  22.596  10.608
15388W        W87813  39.470   8.252  10.557
15389W        W87814   8.731   6.785   4.295
15390W        W87815  35.877  11.686   2.798
15391W        W87816  20.561  35.872  13.831
15392W        W87817  41.964  37.835   2.276
15393W        W87818  25.574  44.761   1.249
15394W        W87819   7.218  28.052  11.494
15395W        W87820  41.310   0.850   2.325
15396W        W87821  10.163  19.214   1.334
15397W        W87822  33.513  18.564   5.642
15398W        W87823   9.688  14.202  10.995
15399W        W87824  23.063  22.117  10.935
15400W        W87825   8.311  28.666  12.377
15401W        W87826   4.773   2.457   1.924
15402W        W87827  13.257  30.513  11.538
15403W        W87828  41.956   0.265  13.818
15404W        W87829  31.085   3.828   3.631
15405W        W87830   6.880  13.105   4.616
15406W        W87831  43.014  24.654  11.072
15407W        W87832  43.288  29.121   1.230
15408W        W87833  44.979  16.738   1.798
15409W        W87834   8.749  30.442   1.831
15410W        W87835  41.309  44.758  14.430
15411W        W87836  43.787  34.431  10.470
15412W        W87837  17.301  38.851  11.575
15413W        W87838   0.962  12.621   3.334
15414W        W87839  17.731  19.703   1.230
15415W        W87840  10.805   1.294   4.254
15416W        W87841  15.208   9.159   2.678
15417W        W87842  25.526  31.897   1.922
15418W        W87843  26.700   7.874   4.705
15419W        W87844  40.466  19.085  14.363
15420W        W87845  33.969  31.917  10.913
15421W        W87846  23.119  10.318   1.423
15422W        W87847   4.699  17.665  12.363
15423W        W87848   9.230  21.263  13.402
15424W        W87849  43.272  25.133  12.526
15425W        W87850  37.483  15.181  13.868
15426W        W87851  16.181  16.242  12.921
15427W        W87852  41.470  20.199  14.901
15428W        W87853  40.914  14.184   5.304
15429W        W87854  14.178  38.942  13.798
15430W        W87855  37.536  35.981   0.447
15431W        W87856  41.500  21.694  13.433
15432W        W87857   9.873  27.121  14.370
15433W        W87858   6.276  41.802  14.983
15434W        W87859  17.763  31.980  12.559
15435W        W87860  31.461   5.276   2.879
15436W        W87861   7.854   9.337  14.907
15437W        W87862  15.771   1.816  14.304
15438W        W87863   8.272  14.329   1.367
15439W        W87864  13.107  10.652   4.179
15440W        W87865  28.090  24.130  12.415
15441W        W87866   3.879   3.712   3.180
15442W        W87867  26.633   2.835  14.287
15443W        W87868   0.833  22.238   1.311
15444W        W87869  26.089   0.276   0.820
15445W        W87870  41.478  19.041  13.971
15446W        W87871  26.477  35.387   4.302
15447W        W87872  37.907  40.326   1.372
15448W        W87873  39.465  10.854  14.909
15449W        W87874   2.393   1.809   0.395
15450W        W87875  42.838  22.121   0.343
15451W        W87876  18.545   5.750  14.509
15452W        W87877  10.251   8.833  14.282
15453W        W87878  30.425  20.110  13.869
15454W        W87879  28.154   0.285  14.995
15455W        W87880  28.129  13.677  12.445
15456W        W87881  38.365  30.438   4.742
15457W        W87882   4.744  41.894  12.454
15458W        W87883  14.227  39.004   0.929
15459W        W87884  36.384  29.043   3.224
15460W        W87885  20.168  28.651  14.952
15461W        W87886  14.281  40.896  11.048
15462W        W87887   1.891  25.556   0.884
15463W        W87888  18.097  37.029  14.837
15464W        W87889  21.056  32.978   3.839
15465W        W87890  21.656  22.690  14.326
15466W        W87891  31.420  29.999   1.445
15467W        W87892  21.601  17.706  13.049
15468W        W87893  10.812  29.089   3.227
15469W        W87894  12.181  30.577   1.445
15470W        W87895  35.483   4.733  14.911
15471W        W87896  29.109   0.331   1.835
15472W        W87897  16.163  35.880  14.911
15473W        W87898  29.109  43.765   2.696
15474W        W87899   0.283  44.764  11.121
15475W        W87900   1.405  42.436  14.306
15476W        W87901  33.029   7.728   4.219
15477W        W87902  31.605  10.227   0.341
15478W        W87903   2.893  24.043  12.855
15479W        W87904   8.364  11.189   0.391
15480W        W87905  41.864  38.075  13.966
15481W        W87906   6.922  15.248   2.283
15482W        W87907  17.756  30.611  12.044
15483W        W87908  42.384  16.723   0.356
15484W        W87909  25.178  12.807   0.907
15485W        W87910  13.261  10.335  14.812
15486W        W87911  39.335  25.606  14.955
15487W        W87912  15.093  39.358  13.452
15488W        W87913  10.767  17.298  14.884
15489W        W87914  25.577  39.480  13.935
15490W        W87915  43.301   8.807  14.909
15491W        W87916   5.918   5.328   1.737
15492W        W87917  27.674  43.341  13.825
15493W        W87918   1.247  22.602  13.009
15494W        W87919  21.225   2.811   4.829
15495W        W87920  25.058  35.964   2.811
15496W        W87921  25.539  34.424   2.321
15497W        W87922  14.244  26.526   1.310
15498W        W87923   9.785   7.903  13.802
15499W        W87924  35.089  38.357   0.800
15500W        W87925  41.520  19.216   1.929
15501W        W87926   1.845  15.746   2.851
15502W        W87927  31.898  22.153  14.318
15503W        W87928   8.197  20.565   1.823
15504W        W87929  17.170  17.574   0.441
15505W        W87930  19.609   3.889  12.062
15506W        W87931  17.663   7.396  12.525
15507W        W87932  40.970   9.309   4.280
15508W        W87933  17.168  43.972  13.028
15509W        W87934  24.143  24.115  13.055
15510W        W87935  23.164  33.518  14.857
15511W        W87936  36.534  33.392  11.912
15512W        W87937  13.111  31.989   9.980
15513W        W87938   3.935  10.143   0.764
15514W        W87939  21.097  28.030   4.802
15515W        W87940  12.756   0.788  13.984
15516W        W87941  32.970   3.331  13.454
15517W        W87942  12.313  38.014   0.378
15518W        W87943   5.899  11.292   3.161
15519W        W87944  39.900  43.866   4.748
15520W        W87945  23.115  13.662   3.184
15521W        W87946  17.724  15.750  10.103
15522W        W87947  38.519  29.660  14.405
15523W        W87948   1.277  16.277   1.276
15524W        W87949  31.452  27.146   0.842
15525W        W87950  30.093   0.934  13.460
15526W        W87951  27.010  27.993   1.926
15527W        W87952   9.187  31.139   0.847
15528W        W87953  37.465  21.645  11.976
15529W        W87954  39.451  36.974   2.345
15530W        W87955  17.568   0.287   3.271
15531W        W87956  15.690  23.635   5.093
15532W        W87957  28.162   0.823   3.313
15533W        W87958   5.258  41.520   2.331
15534W        W87959  11.326  44.941  10.967
15535W        W87960  25.492  12.743   3.165
15536W        W87961  31.605  23.527  12.535
15537W        W87962  26.149  37.469   1.435
15538W        W87963  31.526   7.251  12.042
15539W        W87964  23.656  16.157   0.343
15540W        W87965  16.136   0.955   5.159
15541W        W87966  21.708   7.717  14.783
15542W        W87967  22.653  39.922   1.358
15543W        W87968  29.577  43.838   3.270
15544W        W87969   2.782   0.298  13.367
15545W        W87970   6.245   6.360   0.865
15546W        W87971   7.245  17.283   4.229
15547W        W87972  30.965  41.364   4.829
15548W        W87973   7.829   5.352  12.553
15549W        W87974  13.629   1.734   4.215
15550W        W87975  10.344  15.210   4.610
15551W        W87976  18.730  44.878   0.384
15552W        W87977   1.243   9.374  11.071
15553W        W87978  10.198  32.637   0.248
15554W        W87979  42.821  23.701   0.286
15555W        W87980  17.146   0.937  11.471
15556W        W87981  13.762  36.972   1.309
15557W        W87982  31.972   0.494   5.106
15558W        W87983  42.984  43.373   0.471
15559W        W87984  30.463   3.324  12.395
15560W        W87985  36.857  33.035   3.734
15561W        W87986  13.740  16.278  13.446
15562W        W87987  10.289  15.720   5.316
15563W        W87988   2.850  15.329  10.614
15564W        W87989  16.758  24.643  12.465
15565W        W87990  13.290  15.104  13.837
15566W        W87991  39.013  27.515  11.477
15567W        W87992   3.888  26.008   1.808
15568W        W87993  41.457  39.842  12.533
15569W        W87994  40.893   4.227   3.814
15570W        W87995   2.758  13.642  13.058
15571W        W87996  41.875   4.837   4.826
15572W        W87997  11.685  37.923   0.374
15573W        W87998  10.305  27.470   4.352
15574W        W87999   7.764  19.600   1.815
15575W        W88000  14.117   8.675   1.418
15576W        W88001   7.189  23.231  11.417
15577W        W88002  33.034  28.622   3.338
15578W        W88003  37.350  39.409  10.409
15579W        W88004  30.940  13.299   1.768
15580W        W88005  28.633  31.547  12.921
15581W        W88006  43.960  21.102  11.460
15582W        W88007  28.999  17.570  14.951
15583W        W88008  32.507  40.824  10.641
15584W        W88009   0.429  44.373  11.015
15585W        W88010  37.401   1.443   2.720
15586W        W88011  38.995  42.349   3.275
15587W        W88012  10.745  43.895   0.899
15588W        W88013  22.705  44.426  11.931
15589W        W88014  44.904  15.165   3.195
15590W        W88015  30.629   2.786  14.371
15591W        W88016  11.287  11.284   3.708
15592W        W88017   7.766  19.650  10.576
15593W        W88018  17.181  14.171  14.354
15594W        W88019  42.946  36.891  14.969
15595W        W88020  39.891  28.453   0.800
15596W        W88021   4.253  38.982  13.018
15597W        W88022  39.952  15.107  14.900
15598W        W88023  43.500  30.037   4.823
15599W        W88024  27.646  13.345   2.205
15600W        W88025   1.242  23.683   1.838
15601W        W88026  25.197  15.244  10.634
15602W        W88027  33.994  13.831   4.165
15603W        W88028  32.938  25.199  13.429
15604W        W88029  20.094  38.067   0.789
15605W        W88030   6.774   9.163   0.426
15606W        W88031  17.712  12.319   3.226
15607W        W88032  43.000  17.637   4.179
15608W        W88033   1.807  26.601  13.985
15609W        W88034  24.091   7.291   0.376
15610W        W88035  14.776  32.437  11.086
15611W        W88036  26.690  31.484   4.305
15612W        W88037   4.374  20.607   1.861
15613W        W88038  25.707  42.976  14.978
15614W        W88039  23.070  43.463  14.353
15615W        W88040  37.439  23.217   3.363
15616W        W88041  19.122  15.318  11.595
15617W        W88042   6.394  22.674  14.888
15618W        W88043  25.170  38.518   4.337
15619W        W88044  25.473  34.991   4.221
15620W        W88045  28.954  35.433  14.359
15621W        W88046  39.529  33.037   4.131
15622W        W88047  25.177  30.036  10.627
15623W        W88048  28.610  22.606  12.347
15624W        W88049  36.880   4.711   2.375
15625W        W88050  12.302  21.216  11.546
15626W        W88051  40.921  34.117   2.715
15627W        W88052  33.879  36.367  10.526
15628W        W88053  42.910  30.525  11.125
15629W        W88054  39.064  16.697   0.260
15630W        W88055  37.354  11.209  11.410
15631W        W88056  35.981  33.447   2.298
15632W        W88057  20.764  23.023   0.750
15633W        W88058  42.445   0.406  11.548
15634W        W88059  23.517  27.691   1.296
15635W        W88060   1.476  44.767   0.807
15636W        W88061  41.809  23.209  12.564
15637W        W88062   7.221  44.308  11.583
15638W        W88063  39.492  40.540   4.597
15639W        W88064  28.005  21.100   1.908
15640W        W88065  13.164  16.256  10.489
15641W        W88066   7.814  37.543   9.543
15642W        W88067   4.860   9.813   1.844
15643W        W88068   7.874   8.854  13.483
15644W        W88069  34.563  12.631  12.432
15645W        W88070   2.300  13.757  14.394
15646W        W88071   1.455  24.500  13.406
15647W        W88072  41.438  43.983   5.753
15648W        W88073  26.678   7.232   1.731
15649W        W88074  33.479   2.261   3.734
15650W        W88075  12.804  19.220   3.149
15651W        W88076  19.250   9.835  10.449
15652W        W88077  10.244  12.211   3.754
15653W        W88078  34.427   1.451  14.987
15654W        W88079  41.833  43.896  11.879
15655W        W88080  39.995  22.219  13.913
15656W        W88081  24.524  15.227   4.630
15657W        W88082  13.747  24.145   0.779
15658W        W88083  16.195  41.839   3.692
15659W        W88084   5.817   7.319   0.393
15660W        W88085   7.856  38.467   4.825
15661W        W88086  41.325   8.236  13.521
15662W        W88087  26.040  14.646  10.635
15663W        W88088  41.820  21.033  11.007
15664W        W88089  14.094  35.493   1.870
15665W        W88090   4.379  16.811  10.446
15666W        W88091  43.934   1.482  11.857
15667W        W88092   9.845  36.422   1.261
15668W        W88093  22.162  26.533  12.040
15669W        W88094  43.372  27.091  14.413
15670W        W88095  42.937  18.110  11.935
15671W        W88096  25.167  32.074   1.316
15672W        W88097  10.644   9.810  10.582
15673W        W88098  10.314  38.860   0.398
15674W        W88099  35.051  40.953  13.394
15675W        W88100  22.215  10.792   9.554
15676W        W88101  41.829  42.371   1.762
15677W        W88102  43.504   0.265  11.578
15678W        W88103   5.380   6.749  11.032
15679W        W88104  36.053  19.240  11.860
15680W        W88105   6.736  23.637  11.975
15681W        W88106  43.432  44.775   0.900
15682W        W88107  26.981   0.285  14.966
15683W        W88108  25.561   8.683   0.471
15684W        W88109  20.605  27.176  14.809
15685W        W88110  20.232  29.948  10.594
15686W        W88111  12.153  38.521  12.566
15687W        W88112  30.949  15.755  13.307
15688W        W88113   7.356  24.694  14.350
15689W        W88114   3.366  30.517  14.492
15690W        W88115  15.614  10.764   3.150
15691W        W88116  41.348   8.786   1.298
15692W        W88117  18.210  44.321   1.395
15693W        W88118  23.594  24.543  14.780
15694W        W88119  33.996  35.038   3.297
15695W        W88120  26.148   7.748  14.822
15696W        W88121  42.002  17.210   4.776
15697W        W88122  43.944  38.476  13.060
15698W        W88123  32.413  13.274  11.946
15699W        W88124  22.212  39.385   4.122
15700W        W88125  20.058  38.407  14.842
15701W        W88126  30.442  33.003  14.867
15702W        W88127   4.293  25.700  11.575
15703W        W88128  38.325  21.200   2.285
15704W        W88129  43.005  32.404   1.282
15705W        W88130   0.987  35.375   4.301
15706W        W88131  30.578  34.921  12.071
15707W        W88132   6.277   8.191  12.858
15708W        W88133  11.722  28.090  10.542
15709W        W88134  40.984  14.184   3.737
15710W        W88135  41.970   1.317   4.291
15711W        W88136  29.027  30.969  11.068
15712W        W88137  43.998  18.681   1.796
15713W        W88138  14.224  44.765  14.986
15714W        W88139   8.794  16.285   4.127
15715W        W88140  24.049  41.041  14.894
15716W        W88141   2.889  33.092  11.101
15717W        W88142   1.441   3.881  11.422
15718W        W88143   2.255  20.062  13.447
15719W        W88144   9.329  15.585   1.758
15720W        W88145  29.099  44.313   1.722
15721W        W88146  27.179  14.762  13.955
15722W        W88147  10.255  41.364  13.900
15723W        W88148   8.775   5.795   1.287
15724W        W88149  21.667  24.227  14.990
15725W        W88150  20.589  16.748   3.724
15726W        W88151  42.348   9.231  13.421
15727W        W88152  10.802   7.831   2.288
15728W        W88153  25.969  15.324  12.900
15729W        W88154  10.723  40.525   2.191
15730W        W88155  23.172   0.345   4.132
15731W        W88156  44.998   2.322  10.515
15732W        W88157  23.011  24.027   0.432
15733W        W88158  38.035  15.095  12.395
15734W        W88159  28.935   9.818   4.831
15735W        W88160  40.943  40.420   4.655
15736W        W88161   1.479  31.568   4.723
15737W        W88162  18.105   2.421   1.815
15738W        W88163   7.747  34.493   3.190
15739W        W88164   3.915  39.810   0.840
15740W        W88165  10.270  26.195   3.673
15741W        W88166  31.420  15.144   5.600
15742W        W88167  43.348  38.425  14.791
15743W        W88168  20.631   5.932   1.702
15744W        W88169  41.028  15.662   4.806
15745W        W88170  37.874  36.969   2.681
15746W        W88171  18.611  15.772  10.577
15747W        W88172  24.049  34.001  10.632
15748W        W88173  10.287  13.806   1.294
15749W        W88174  34.863   0.363   2.752
15750W        W88175  29.940  35.972  11.030
15751W        W88176  41.947  17.276  14.866
15752W        W88177  37.846  42.809   1.334
15753W        W88178  10.268  32.535   2.731
15754W        W88179  18.065  12.258  14.414
15755W        W88180   6.334  13.663   0.937
15756W        W88181   0.433   0.484  11.428
15757W        W88182  26.469  23.150   2.864
15758W        W88183  10.149  39.055   4.137
15759W        W88184  38.399  38.425   1.802
15760W        W88185  33.537   2.453  14.498
15761W        W88186  35.402  21.193  14.321
15762W        W88187  40.928   2.786  11.936
15763W        W88188  31.971   1.732   1.354
15764W        W88189  32.992  42.843   2.857
15765W        W88190  39.910   3.433   4.806
15766W        W88191  40.866  27.451  12.876
15767W        W88192   8.727  40.879  14.810
15768W        W88193  17.205   3.306   2.374
15769W        W88194  42.866  42.520   1.710
15770W        W88195  28.659   4.329   2.344
15771W        W88196  23.182  13.642  14.028
15772W        W88197  34.885  41.372  13.527
15773W        W88198   9.737  14.098  14.915
15774W        W88199  44.820  33.543  14.968
15775W        W88200  34.490  26.469   3.667
15776W        W88201   0.969  35.516  11.909
15777W        W88202  43.013   2.456   2.348
15778W        W88203   7.206  23.020  13.530
15779W        W88204  35.438   3.318   3.691
15780W        W88205  28.660  26.036  12.460
15781W        W88206   7.216  42.451  14.967
15782W        W88207  24.682  38.404  10.403
15783W        W88208  22.706  29.669   2.403
15784W        W88209  24.186  13.279   3.220
15785W        W88210  44.279   3.837  13.309
15786W        W88211  15.736  16.690  13.434
15787W        W88212  18.219  42.841   1.263
15788W        W88213  16.089  42.516  14.900
15789W        W88214  15.626   4.836   2.334
15790W        W88215  17.785  31.467  14.465
15791W        W88216  32.628  24.694  11.936
15792W        W88217   5.413  34.495   3.175
15793W        W88218  10.823  44.376  11.986
15794W        W88219   3.424  20.120  14.970
15795W        W88220  18.158  36.058   2.834
15796W        W88221  43.362   9.221   3.322
15797W        W88222  31.464  26.954   4.610
15798W        W88223  20.650  11.829  12.388
15799W        W88224  14.238  17.687   2.208
15800W        W88225  24.604   8.890  14.922
15801W        W88226  28.085   0.905  11.907
15802W        W88227  23.571  24.037  12.452
15803W        W88228  17.174   9.357  14.298
15804W        W88229   2.309   8.311  14.853
15805W        W88230  33.878  22.182   2.311
15806W        W88231  38.052  22.152  12.908
15807W        W88232   2.391  28.125   4.756
15808W        W88233   6.748   0.416   1.394
15809W        W88234  43.412  33.892   1.317
15810W        W88235  15.132  40.328   4.744
15811W        W88236  15.307  27.992   4.300
15812W        W88237  35.366  28.935   3.149
15813W        W88238  39.874  20.269   0.783
15814W        W88239  21.042  20.069   5.102
15815W        W88240   1.874  20.596  12.386
15816W        W88241  40.993  39.891   1.400
15817W        W88242  32.085  24.150  11.600
15818W        W88243   4.216  20.754   2.718
15819W        W88244  15.667  34.069  12.065
15820W        W88245   7.316  14.589  10.638
15821W        W88246  41.482  34.444   4.267
15822W        W88247  26.048  38.411   4.161
15823W        W88248  20.679  21.086  10.418
15824W        W88249  22.010   5.423   0.429
15825W        W88250  15.098  36.911   3.820
15826W        W88251  14.172  40.415   5.105
15827W        W88252  18.267  33.500   1.240
15828W        W88253  29.954  39.428  14.406
15829W        W88254  13.728   5.933  14.423
15830W        W88255  15.758  19.624  10.087
15831W        W88256  20.069  14.255   0.823
15832W        W88257   3.924  14.205   4.751
15833W        W88258   4.725  11.720   5.082
15834W        W88259  20.104  17.241  12.355
15835W        W88260  25.528  37.534   0.265
15836W        W88261   9.259  44.366   3.380
15837W        W88262  43.420  20.734   3.355
15838W        W88263  11.633  40.800   2.857
15839W        W88264  18.780  32.137   4.736
15840W        W88265  15.621  22.712  13.850
15841W        W88266   8.798  39.542   0.273
15842W        W88267  18.791  17.791   2.409
15843W        W88268   4.290  10.358   0.862
15844W        W88269  43.495  18.558   0.388
15845W        W88270  44.923  15.142  12.938
15846W        W88271  36.007   3.948   0.752
15847W        W88272  35.414  39.549   2.351
15848W        W88273  29.040  12.315   0.865
15849W        W88274  31.071  36.419   1.215
15850W        W88275  34.562  41.414  14.324
15851W        W88276  43.834  32.928  11.917
15852W        W88277  43.917  11.295  12.553
15853W        W88278  17.166  41.038   0.269
15854W        W88279  21.513  42.508   2.379
15855W        W88280  29.961  35.361   2.899
15856W        W88281  27.524  32.538  12.345
15857W        W88282  13.153  28.504   4.820
15858W        W88283   2.339  22.239  14.361
15859W        W88284  14.786   1.914  13.312
15860W        W88285  24.172   4.793  14.295
15861W        W88286  29.107  40.339  13.801
15862W        W88287  33.084  37.988  13.535
15863W        W88288  16.611  33.396   2.778
15864W        W88289  22.225  36.428   2.297
15865W        W88290  34.369  33.620  14.787
15866W        W88291  30.107  37.907  12.503
15867W        W88292  15.321   9.254   4.724
15868W        W88293  34.901  22.722  12.092
15869W        W88294   9.394   2.940  14.769
15870W        W88295  12.181   5.272  10.546
15871W        W88296  12.660  16.616  11.052
15872W        W88297   1.907  13.325   2.688
15873W        W88298  24.689  42.808   2.698
15874W        W88299  35.921  41.401  11.443
15875W        W88300  11.168   7.325   1.814
15876W        W88301   6.781  27.129  12.340
15877W        W88302  37.465  21.119  12.827
15878W        W88303  28.131  13.828   0.843
15879W        W88304   9.705   1.261  10.581
15880W        W88305  39.065  16.569   4.775
15881W        W88306  40.981  35.977   0.271
15882W        W88307  12.705  38.895  12.000
15883W        W88308  16.587   9.701  11.123
15884W        W88309   9.648  11.767  14.009
15885W        W88310  19.191  16.600   0.293
15886W        W88311  22.170  22.618  14.310
15887W        W88312  22.551  38.529  13.911
15888W        W88313  34.548  10.782   3.254
15889W        W88314  16.138  35.596   3.827
15890W        W88315  10.143  39.443  14.308
15891W        W88316  24.586  20.115  10.944
15892W        W88317   0.839   7.358  10.445
15893W        W88318  40.850   6.347  12.853
15894W        W88319  37.580  24.607  12.990
15895W        W88320  42.897  37.556   2.392
15896W        W88321  31.993  31.633   2.809
15897W        W88322  34.935  22.180   2.677
15898W        W88323  42.914  19.555   4.725
15899W        W88324  30.958  33.077   4.664
15900W        W88325   6.801  30.154  12.033
15901W        W88326  42.411  21.602  12.506
15902W        W88327  16.247   5.901   0.250
15903W        W88328  24.040  18.751   0.863
15904W        W88329  12.132  38.993  11.429
15905W        W88330  24.148  44.325   3.186
15906W        W88331   5.415  42.457  13.421
15907W        W88332   4.339  42.890  12.425
15908W        W88333  28.117  25.621   2.674
15909W        W88334  11.250   7.362  12.857
15910W        W88335  16.764  44.311   1.924
15911W        W88336  10.784  40.894   0.727
15912W        W88337  15.759  26.186   4.211
15913W        W88338  10.724  32.625   1.926
15914W        W88339  27.596  40.942   4.709
15915W        W88340  32.904  17.205   4.684
15916W        W88341  33.913   3.280   0.378
15917W        W88342  43.311  15.809   1.911
15918W        W88343  44.412  27.957   0.269
15919W        W88344  37.926  11.247  11.066
15920W        W88345  15.766   2.445   5.084
15921W        W88346  32.546  28.508  12.944
15922W        W88347   6.352  38.039   4.765
15923W        W88348  12.167  22.171  10.501
15924W        W88349  37.549   4.443   4.185
15925W        W88350   9.353  10.163   4.242
15926W        W88351  27.672   3.740  14.430
15927W        W88352  30.554  43.903  10.608
15928W        W88353  13.663  10.652  12.436
15929W        W88354  12.155  19.111  13.431
15930W        W88355  13.292  27.109  10.556
15931W        W88356  44.334  23.512   2.208
15932W        W88357  11.365  28.050  10.606
15933W        W88358  34.100  23.042  12.450
15934W        W88359  25.107  15.579  14.352
15935W        W88360  18.256  30.102   2.330
15936W        W88361  40.910  17.646  13.338
15937W        W88362  16.246  24.021   0.355
15938W        W88363  14.340  12.798   0.961
15939W        W88364  26.684  30.979   3.226
15940W        W88365  44.998  23.146  14.280
15941W        W88366   1.772  26.467  13.486
15942W        W88367  14.303   4.210   1.835
15943W        W88368  13.799   9.389  11.482
15944W        W88369  19.270  40.341   1.809
15945W        W88370  41.416  40.465  13.330
15946W        W88371  25.578  25.204  11.371
15947W        W88372  14.300  42.480   1.816
15948W        W88373  32.413  17.794   3.744
15949W        W88374  12.793  18.149   2.823
15950W        W88375  30.557  11.202   0.278
15951W        W88376  20.067   9.775  10.889
15952W        W88377  40.906  29.069   1.258
15953W        W88378  12.283  31.038   0.292
15954W        W88379  16.724  27.955  14.299
15955W        W88380   6.721  28.477  11.970
15956W        W88381   0.793  15.727  12.837
15957W        W88382  30.595  19.634  11.913
15958W        W88383   8.689  32.117  14.479
15959W        W88384  43.500   7.794  10.941
15960W        W88385   5.781   9.682   4.222
15961W        W88386  20.675  44.292   0.806
15962W        W88387   4.871  26.570  14.485
15963W        W88388  10.212   7.732  10.578
15964W        W88389  44.797  30.027   3.237
15965W        W88390  39.316  16.799   3.160
15966W        W88391  11.678   5.798  11.022
15967W        W88392   3.385  39.389   1.715
15968W        W88393   1.970   4.849  11.969
15969W        W88394  31.527  32.932   3.737
15970W        W88395  27.594  24.980   3.710
15971W        W88396  20.563  28.652  10.492
15972W        W88397  12.652  42.999   2.376
15973W        W88398  43.794  10.258   4.660
15974W        W88399  12.304  39.962   4.644
15975W        W88400  32.893  34.982   3.176
15976W        W88401   4.889  10.851  12.395
15977W        W88402   3.248  44.503  11.423
15978W        W88403  10.332  19.768   3.796
15979W        W88404  40.485  19.700   2.686
15980W        W88405  20.665  16.266  13.862
15981W        W88406  35.375   8.659  13.525
15982W        W88407  24.586  29.926   0.367
15983W        W88408  10.261  43.965  10.446
15984W        W88409  40.450   3.782  12.051
15985W        W88410  30.155   7.181   4.347
15986W        W88411  42.379  30.070   0.876
15987W        W88412  14.728  42.448  14.815
15988W        W88413   2.443  24.544   3.382
15989W        W88414  43.770  44.417   1.396
15990W        W88415   7.708   1.780  14.972
15991W        W88416  12.804  12.855   0.791
15992W        W88417  41.814   7.742   5.294
15993W        W88418  25.061  12.683  10.473
15994W        W88419  21.644  36.362   2.740
15995W        W88420  17.064   7.762  12.980
15996W        W88421  28.536  14.130   4.126
15997W        W88422  44.467  23.224  11.875
15998W        W88423   1.754   4.386   4.813
15999W        W88424  12.796  16.272  13.461
16000W        W88425  29.038  29.536   0.375
16001W        W88426  43.434  39.962  11.478
16002W        W88427  28.115  11.232  10.466
16003W        W88428  30.477  21.731  14.834
16004W        W88429  43.021   2.400  12.953
16005W        W88430  38.551  27.195   2.853
16006W        W88431  13.228  39.034  14.878
16007W        W88432   2.918  19.744  10.969
16008W        W88433  25.666  36.510   4.205
16009W        W88434   4.359  23.217   4.655
16010W        W88435   8.809  38.055   9.996
16011W        W88436  21.051  38.926   0.350
16012W        W88437  33.056  15.086  12.934
16013W        W88438   2.444  33.481  12.357
16014W        W88439  27.961  25.185   1.858
16015W        W88440   2.926  10.321  11.987
16016W        W88441  40.954  30.658   1.772
16017W        W88442  19.212   3.739   2.863
16018W        W88443  27.107   6.218   2.290
16019W        W88444   1.874  40.880   2.266
16020W        W88445   0.799   9.695   4.196
16021W        W88446  38.973  12.129   1.301
16022W        W88447  19.664  33.082   1.882
16023W        W88448  14.776  32.916   0.379
16024W        W88449   2.866  19.255  13.505
16025W        W88450  28.112  38.532  11.440
16026W        W88451   7.790  11.721   0.331
16027W        W88452  23.025  35.007  12.464
16028W        W88453  38.964  10.680   4.234
16029W        W88454  23.668  19.622  13.856
16030W        W88455  23.026  23.522  13.052
16031W        W88456   5.351  23.666   2.847
16032W        W88457  42.970   0.272  14.778
16033W        W88458  22.074  26.556   3.752
16034W        W88459  43.499   9.293   0.925
16035W        W88460  17.107  32.037  10.038
16036W        W88461  41.388  33.883  13.338
16037W        W88462  16.128  18.270   5.114
16038W        W88463  33.945  35.385   3.696
16039W        W88464  42.324  28.932  10.583
16040W        W88465  41.418  32.119   4.124
16041W        W88466  32.980  26.978  11.962
16042W        W88467  34.981  34.082   2.798
16043W        W88468  23.713  44.802  10.415
16044W        W88469  44.461  18.550  12.050
16045W        W88470  28.608  35.903   4.716
16046W        W88471  15.262  33.505   0.737
16047W        W88472  44.319  44.767   4.775
16048W        W88473  10.667  24.198  12.577
16049W        W88474  31.437  36.591  14.026
16050W        W88475   0.395   3.274   3.665
16051W        W88476  29.994   3.812   0.301
16052W        W88477  41.034  25.165   2.846
16053W        W88478  36.409  32.970  14.475
16054W        W88479  37.995   5.751   2.227
16055W        W88480  21.213  29.119   1.331
16056W        W88481  34.392  21.041   2.860
16057W        W88482  12.241   7.728   2.808
16058W        W88483  23.620  31.024   2.273
16059W        W88484  26.990  41.844   2.369
16060W        W88485  41.317  35.981   2.268
16061W        W88486  40.547  19.724   3.292
16062W        W88487  37.924  34.475   0.440
16063W        W88488  28.058  29.630  14.822
16064W        W88489  26.619  19.274  13.534
16065W        W88490  25.090  13.177   2.714
16066W        W88491  44.863   6.390  11.083
16067W        W88492  20.683   7.235  12.019
16068W        W88493  12.203  38.835   0.387
16069W        W88494  30.562  41.341  13.816
16070W        W88495  33.599  36.845   4.789
16071W        W88496  36.024   9.330  14.841
16072W        W88497   0.458  25.629   2.896
16073W        W88498  38.851   2.254   4.122
16074W        W88499   1.444  24.678   0.315
16075W        W88500  39.998  13.327  14.311
16076W        W88501  17.230  29.995   2.760
16077W        W88502  18.759  19.276   1.212
16078W        W88503  11.727   8.694   1.319
16079W        W88504  17.305  33.121   1.789
16080W        W88505  36.905   3.800  10.910
16081W        W88506  20.666  35.859  14.423
16082W        W88507  22.088  21.233  11.604
16083W        W88508   9.818  33.591   4.142
16084W        W88509  23.493  28.959   3.365
16085W        W88510  19.682   7.330  14.847
16086W        W88511   2.901  42.900   4.657
16087W        W88512  38.820  42.844   1.299
16088W        W88513   7.895  18.588  13.852
16089W        W88514  24.086  22.645   3.733
16090W        W88515   0.773  26.552  12.348
16091W        W88516  10.330  39.956   0.951
16092W        W88517   4.728   5.268   1.889
16093W        W88518  41.882  39.390  14.447
16094W        W88519  13.626  37.010   2.191
16095W        W88520  37.517  35.924   9.951
16096W        W88521  36.548  34.507  14.973
16097W        W88522  17.273  20.041   4.782
16098W        W88523  10.779  15.783   1.725
16099W        W88524  17.194  38.535   1.788
16100W        W88525   8.198  12.828  14.424
16101W        W88526  27.099  22.049  12.492
16102W        W88527  40.344   0.473   4.627
16103W        W88528  40.391   6.339   0.806
16104W        W88529   2.779  41.400  14.812
16105W        W88530   7.199   2.287   1.349
16106W        W88531   6.683  19.175   4.663
16107W        W88532  14.264  10.145   1.356
16108W        W88533  18.106   7.222   1.899
16109W        W88534  33.594   2.410  11.932
16110W        W88535  42.965  23.027   4.282
16111W        W88536  24.173   0.332   4.711
16112W        W88537  33.974  38.424   0.843
16113W        W88538  17.228  29.018  13.383
16114W        W88539  28.138  33.029   0.765
16115W        W88540  27.188  30.149   4.336
16116W        W88541  15.182  23.581   1.850
16117W        W88542   9.783  44.771   0.860
16118W        W88543   8.302  18.244  10.512
16119W        W88544   8.268  38.471  11.965
16120W        W88545  40.830   5.324   2.214
16121W        W88546  43.497  28.087   1.927
16122W        W88547  25.703  39.848  13.396
16123W        W88548   8.184  29.036  10.998
16124W        W88549  34.433   1.795  12.007
16125W        W88550  19.108  42.927   3.779
16126W        W88551  41.972  29.095  12.386
16127W        W88552  41.491   3.324  13.945
16128W        W88553  32.142  15.794   1.291
16129W        W88554  30.957  13.669  10.576
16130W        W88555   0.971  42.461   0.825
16131W        W88556   9.282  25.109  11.902
16132W        W88557   0.946   6.388   3.276
16133W        W88558  26.617  42.806  12.850
16134W        W88559   8.827  32.568  11.611
16135W        W88560  22.242  39.951  14.921
16136W        W88561  18.555  32.085   3.195
16137W        W88562   0.825   2.349  12.065
16138W        W88563  22.222   8.353   1.421
16139W        W88564  30.001  33.016  14.909
16140W        W88565  25.025  17.582   0.371
16141W        W88566  44.860  16.626   4.601
16142W        W88567  11.262   1.379   4.250
16143W        W88568  37.511  12.769  12.580
16144W        W88569  31.068  15.140  14.787
16145W        W88570  30.512  29.968   2.348
16146W        W88571  11.759   7.713   2.827
16147W        W88572   9.722  40.542   4.598
16148W        W88573  42.486  27.975   1.714
16149W        W88574   2.362  39.004   3.680
16150W        W88575  41.953  28.550   2.390
16151W        W88576  14.106  37.408  14.967
16152W        W88577  20.680   5.261  10.541
16153W        W88578  22.227  42.370  13.890
16154W        W88579  38.471  27.198  11.888
16155W        W88580   3.744   0.929   3.236
16156W        W88581  39.831  38.339   3.228
16157W        W88582  21.696   4.419  10.580
16158W        W88583  41.998  19.672   1.213
16159W        W88584   4.309   2.246  13.905
16160W        W88585   0.341  26.649   2.673
16161W        W88586  40.459  38.848  12.927
16162W        W88587  21.180  27.157   2.374
16163W        W88588  38.397   9.233   4.818
16164W        W88589  41.966  15.232   3.727
16165W        W88590  37.933  40.360  10.889
16166W        W88591  22.717  38.926   3.825
16167W        W88592  16.590  15.734  14.409
16168W        W88593   1.960  23.674  10.891
16169W        W88594  19.267   5.410  13.818
16170W        W88595   9.754   2.441  11.055
16171W        W88596  31.497  42.912   2.230
16172W        W88597   8.233  33.571  13.436
16173W        W88598  32.513  26.681  12.095
16174W        W88599   7.358  21.089   0.319
16175W        W88600  26.577   4.264   4.644
16176W        W88601  26.076  34.944  11.098
16177W        W88602  32.452  19.730  12.841
16178W        W88603  26.462  36.473  13.347
16179W        W88604  39.934   5.284   1.885
16180W        W88605  42.923  19.240  13.839
16181W        W88606  22.996  33.899  13.995
16182W        W88607   3.422   4.234   4.172
16183W        W88608  25.071  17.209  14.502
16184W        W88609  43.400   9.681  14.309
16185W        W88610   5.738   5.806  13.503
16186W        W88611  36.977  19.730   4.205
16187W        W88612  24.056  35.905   5.214
16188W        W88613  20.142   4.895   3.807
16189W        W88614  22.053  24.531   1.251
16190W        W88615  37.532  36.868   3.744
16191W        W88616  37.512   9.266  11.034
16192W        W88617   1.752  25.521   1.253
16193W        W88618  27.049  36.939  13.411
16194W        W88619   6.830  21.091   3.641
16195W        W88620  23.026  30.967  14.451
16196W        W88621   1.796  18.252  13.436
16197W        W88622  11.193  29.121  14.847
16198W        W88623  13.176  26.550  10.541
16199W        W88624  10.367  13.696  14.368
16200W        W88625  11.859   2.820   1.758
16201W        W88626  31.108  12.813  10.032
16202W        W88627  40.005  42.347   4.185
16203W        W88628  32.036  12.128   2.187
16204W        W88629  44.909  30.945  12.030
16205W        W88630  27.989  10.345  14.961
16206W        W88631  16.632  14.304  10.599
16207W        W88632  40.935  11.323  14.984
16208W        W88633  18.144  44.943  13.488
16209W        W88634   1.358  39.892  12.077
16210W        W88635  24.975  29.928  13.933
16211W        W88636  33.614  32.899  12.869
16212W        W88637  21.148   7.729  10.911
16213W        W88638  39.344  16.110  14.796
16214W        W88639  36.858  41.876   2.242
16215W        W88640  40.541  12.325   1.331
16216W        W88641  29.150  22.694   4.182
16217W        W88642  27.662  14.311   3.160
16218W        W88643  11.346  27.140   4.161
16219W        W88644  22.035   0.944   2.798
16220W        W88645  21.737  22.007  14.896
16221W        W88646   2.249   0.366   4.301
16222W        W88647  14.325  10.807   3.706
16223W        W88648  37.344  32.396   2.218
16224W        W88649  28.516  22.539   4.708
16225W        W88650  15.647   9.704   3.682
16226W        W88651  19.065   4.711  11.417
16227W        W88652  36.989  35.024   4.348
16228W        W88653  16.263   2.430   1.786
16229W        W88654  43.335   5.433  10.984
16230W        W88655   3.271  13.771  10.471
16231W        W88656  26.018  19.607  10.535
16232W        W88657  31.901  33.895   4.241
16233W        W88658  14.696  33.437   2.267
16234W        W88659  26.089  17.173  14.995
16235W        W88660  43.370  36.885  14.802
16236W        W88661  43.901  36.411  12.545
16237W        W88662   7.672  11.354   2.358
16238W        W88663   2.389  38.891  12.060
16239W        W88664   0.440  29.447   2.275
16240W        W88665  28.485  28.121   4.140
16241W        W88666  29.974  38.526   3.836
16242W        W88667  24.170   5.209  10.939
16243W        W88668   0.861  10.696  10.438
16244W        W88669  25.554   6.372   5.278
16245W        W88670  16.677  38.550  10.513
16246W        W88671  15.640   7.280   1.831
16247W        W88672  18.571  43.479  11.914
16248W        W88673  42.886   7.828   1.330
16249W        W88674  26.578  34.536   4.310
16250W        W88675  40.903   1.909  10.568
16251W        W88676  18.613  38.450  10.638
16252W        W88677   5.329  33.402  13.885
16253W        W88678  10.653  28.948   2.667
16254W        W88679  41.526  31.954   2.356
16255W        W88680  15.691  39.872   0.844
16256W        W88681  42.857   8.337   2.669
16257W        W88682  22.732   2.917   0.734
16258W        W88683   2.787  27.638  14.990
16259W        W88684  42.301  12.677   1.807
16260W        W88685  32.476  44.342   4.602
16261W        W88686  11.822  20.259  14.916
16262W        W88687  41.501   3.231   3.788
16263W        W88688  41.505  19.123  13.486
16264W        W88689  10.831  11.648  14.305
16265W        W88690  27.654  36.848   4.302
16266W        W88691  38.873   2.461   9.932
16267W        W88692   2.958   0.377  14.032
16268W        W88693  20.123  31.148  10.473
16269W        W88694  26.076  10.791   1.296
16270W        W88695  10.139  26.666   1.924
16271W        W88696  21.596  23.137   3.233
16272W        W88697  12.120   5.789  11.544
16273W        W88698  40.369   5.345  11.496
16274W        W88699   6.897  43.293   2.788
16275W        W88700  11.146  30.096   4.156
16276W        W88701   1.923  23.146  11.528
16277W        W88702  28.637  33.382  10.079
16278W        W88703  18.564   5.350   2.872
16279W        W88704  35.997  37.340   2.231
16280W        W88705  31.605  12.261  13.062
16281W        W88706  39.366  33.055  14.773
16282W        W88707  14.333  11.762   4.788
16283W        W88708  18.282  18.699   0.374
16284W        W88709  23.126   8.163   0.452
16285W        W88710   1.929  12.117  12.092
16286W        W88711  31.482  27.636  12.907
16287W        W88712  34.488   5.225   2.334
16288W        W88713   6.694  18.117  12.027
16289W        W88714  40.508   9.660   0.833
16290W        W88715  41.997  34.468   2.755
16291W        W88716  11.632  38.950  14.365
16292W        W88717  27.037   2.941  14.883
16293W        W88718  40.933  43.819   5.137
16294W        W88719  19.146  13.737  12.838
16295W        W88720  38.444  39.336  11.408
16296W        W88721  12.649  39.931  12.430
16297W        W88722  23.107   2.911   0.918
16298W        W88723  13.158  18.625  10.512
16299W        W88724  28.092  27.497  13.063
16300W        W88725  20.668  35.046   3.820
16301W        W88726  44.464  39.923  12.432
16302W        W88727  35.954  19.734   0.308
16303W        W88728  20.705  10.241   3.708
16304W        W88729  10.659   8.190  10.438
16305W        W88730  24.596  19.738  11.867
16306W        W88731  13.334  29.620  10.583
16307W        W88732  42.963  31.084   2.843
16308W        W88733  42.322  39.443  13.409
16309W        W88734   6.264  17.787   3.770
16310W        W88735  18.727  35.995   4.645
16311W        W88736  37.442   4.817   0.809
16312W        W88737   7.218   0.300  10.482
16313W        W88738  14.784  34.543   3.861
16314W        W88739  40.044  23.529  11.911
16315W        W88740  39.004   3.809   4.123
16316W        W88741   2.953  21.035  14.803
16317W        W88742   5.350  14.599  12.084
16318W        W88743  36.014  19.566   3.380
16319W        W88744   4.928  25.182   1.755
16320W        W88745  15.735  37.896   1.237
16321W        W88746  14.159   5.852  10.615
16322W        W88747  40.535  34.918  10.587
16323W        W88748   3.369  13.206   1.403
16324W        W88749  38.515  17.718   2.670
16325W        W88750  10.873  42.783  12.449
16326W        W88751  16.796  20.260  12.345
16327W        W88752   5.927  14.826  13.885
16328W        W88753   1.816  40.041  13.932
16329W        W88754  36.379   3.379   3.828
16330W        W88755  42.914  21.556  10.962
16331W        W88756  24.216  30.155   3.702
16332W        W88757  15.775  14.619   1.895
16333W        W88758  26.023  17.579   3.798
16334W        W88759  12.122  43.408   4.630
16335W        W88760  11.848  18.784  13.366
16336W        W88761  20.561   1.826  14.884
16337W        W88762  31.457  15.182   5.178
16338W        W88763  29.920  32.602   5.140
16339W        W88764  18.767  13.157   2.319
16340W        W88765  11.833   0.467  11.569
16341W        W88766  39.974  26.958   1.899
16342W        W88767  28.592  18.650  11.578
16343W        W88768   8.712  18.091   4.726
16344W        W88769  10.174   1.939   3.701
16345W        W88770  20.735  23.214   4.748
16346W        W88771  32.970  26.659  14.375
16347W        W88772  37.883  24.108  13.851
16348W        W88773  18.705  27.166  13.489
16349W        W88774  38.447  40.043   0.872
16350W        W88775  29.095  27.106  14.918
16351W        W88776  10.282  25.522   0.427
16352W        W88777  42.026  16.781  10.532
16353W        W88778  29.934   9.258  11.877
16354W        W88779  40.880  38.340  13.945
16355W        W88780  17.277  27.468   4.306
16356W        W88781  28.487  32.563  10.956
16357W        W88782  41.512  30.612  14.876
16358W        W88783  30.033  30.630  10.563
16359W        W88784  41.356   7.318  10.519
16360W        W88785   0.867  26.473  11.513
16361W        W88786  32.929   2.303   3.213
16362W        W88787   9.758  19.039  14.833
16363W        W88788  19.207  12.746  10.599
16364W        W88789  21.163  23.585  11.458
16365W        W88790   2.772   2.262  14.305
16366W        W88791  38.378  31.103   4.683
16367W        W88792  38.030  29.050   5.184
16368W        W88793   1.833  41.856   1.860
16369W        W88794  22.021  28.033  14.930
16370W        W88795   4.841  26.981   1.870
16371W        W88796  39.916  16.270  10.526
16372W        W88797  12.749   6.324  11.109
16373W        W88798   1.456  41.495  13.974
16374W        W88799  36.359  39.342  14.392
16375W        W88800  37.959   5.806  14.860
16376W        W88801  23.210  40.452  13.871
16377W        W88802  26.643  32.476   5.213
16378W        W88803  43.394  27.166  12.340
16379W        W88804  15.622  41.515   3.162
16380W        W88805   1.266  26.660  12.867
16381W        W88806  34.400  17.093   2.300
16382W        W88807  16.225  18.694  12.009
16383W        W88808  44.338  28.150   0.735
16384W        W88809   7.172   9.656   2.713
16385W        W88810  43.802  29.169   2.873
16386W        W88811  31.976  34.899   4.302
16387W        W88812  24.516  34.998   4.755
16388W        W88813  33.541  21.695   2.214
16389W        W88814  10.671  15.313  12.024
16390W        W88815   2.406   2.444  12.913
16391W        W88816   1.240  35.459   4.169
16392W        W88817  27.069  36.533  11.582
16393W        W88818  38.551  13.151   1.270
16394W        W88819  31.530   1.910   1.411
16395W        W88820  36.074  39.556   2.694
16396W        W88821  18.774  13.276   4.262
16397W        W88822  17.667  25.625   1.756
16398W        W88823  42.816   3.752   3.644
16399W        W88824   4.874  18.199   4.807
16400W        W88825  35.404  28.668  10.642
16401W        W88826  12.167  35.447  11.882
16402W        W88827  22.561   9.366   1.443
16403W        W88828  11.229  19.214  10.501
16404W        W88829  22.128   4.418   0.274
16405W        W88830  33.026  19.664  10.556
16406W        W88831  17.757  16.313   3.830
16407W        W88832  20.743  31.453  10.972
16408W        W88833  19.261  17.559   3.711
16409W        W88834  33.478  20.082  13.349
16410W        W88835  40.348  14.154   0.419
16411W        W88836  13.802  34.412   3.337
16412W        W88837  15.091  12.655  12.481
16413W        W88838   0.294  19.726  11.942
16414W        W88839  25.022   2.394   3.754
16415W        W88840  32.996  17.676  13.798
16416W        W88841  19.102  37.976   3.249
16417W        W88842  27.002  25.152  13.539
16418W        W88843  43.421  34.874  13.324
16419W        W88844  13.621  23.572   2.720
16420W        W88845  42.464  34.903   4.639
16421W        W88846   7.678  20.522   4.234
16422W        W88847  25.214  41.908   0.315
16423W        W88848  43.437   3.810   1.337
16424W        W88849  35.360   4.422  12.019
16425W        W88850  10.155  42.957  10.426
16426W        W88851   9.253  44.950  12.889
16427W        W88852  31.922  10.191  11.120
16428W        W88853  20.723  39.964   3.375
16429W        W88854  12.229  32.567  10.474
16430W        W88855  16.100  29.967  13.056
16431W        W88856  31.620  34.558  14.773
16432W        W88857  22.154  23.499   3.384
16433W        W88858  41.520  25.157   0.734
16434W        W88859  44.940  16.809  13.847
16435W        W88860  20.614   0.440  11.528
16436W        W88861  29.618  42.371   1.735
16437W        W88862  21.555  25.672   3.237
16438W        W88863  18.176  16.670   1.752
16439W        W88864  38.361   4.335  14.847
16440W        W88865  39.517  11.329   1.839
16441W        W88866  14.811  13.116  10.573
16442W        W88867  21.028  19.634  11.080
16443W        W88868  11.692  32.115  11.116
16444W        W88869  32.541  42.317   4.203
16445W        W88870   2.319  31.578  12.021
16446W        W88871  35.574  21.635   4.718
16447W        W88872  40.497  34.472  14.482
16448W        W88873  19.214  21.083   4.323
16449W        W88874  22.660  31.445  14.767
16450W        W88875  36.376   2.250   4.793
16451W        W88876   2.905  35.474   2.410
16452W        W88877  25.607  44.421   1.257
16453W        W88878  19.254   1.262  14.456
16454W        W88879  24.990  20.712  13.497
16455W        W88880   4.402  10.846  12.926
16456W        W88881   1.277  11.704   1.918
16457W        W88882  32.066  12.185   2.766
16458W        W88883  26.575  37.361   1.924
16459W        W88884  40.428   1.272  10.635
16460W        W88885  24.510  13.659   3.304
16461W        W88886  22.237  42.401  12.437
16462W        W88887   6.212  40.375  14.893
16463W        W88888   4.215   7.774   4.132
16464W        W88889  26.146  19.585   2.748
16465W        W88890  43.315  28.115   1.331
16466W        W88891  15.695   7.309  12.082
16467W        W88892  44.475  14.606  13.437
16468W        W88893  20.162  44.857   4.152
16469W        W88894  11.701  26.667  14.984
16470W        W88895  44.274  23.018   3.869
16471W        W88896  41.537  20.202  13.832
16472W        W88897   6.387  26.190  11.500
16473W        W88898  10.352  33.075  14.298
16474W        W88899  15.242  31.585  11.043
16475W        W88900  16.813   1.786   3.272
16476W        W88901  16.802  20.232   1.320
16477W        W88902  23.083  23.504   4.619
16478W        W88903  24.698  33.535   1.741
16479W        W88904   3.334  20.051   3.707
16480W        W88905   9.731   3.379  14.031
16481W        W88906   7.885  16.206   2.368
16482W        W88907  13.802  18.205  11.516
16483W        W88908  26.142  25.685   4.815
16484W        W88909  31.611  18.167   3.273
16485W        W88910  44.935  22.579   0.391
16486W        W88911  33.484  38.858  10.042
16487W        W88912  11.834  12.125   0.730
16488W        W88913  15.671  21.512  12.892
16489W        W88914   3.927   0.818   4.281
16490W        W88915   0.317  40.411  14.962
16491W        W88916  10.290  31.956   0.754
16492W        W88917  27.666  12.220  11.465
16493W        W88918  39.376  42.472   3.340
16494W        W88919  39.054   1.445  13.462
16495W        W88920  29.003  31.643   4.709
16496W        W88921  44.499  25.006  10.054
16497W        W88922  41.521  14.253  10.888
16498W        W88923  38.001  17.284  11.013
16499W        W88924  33.887  42.981  11.562
16500W        W88925  36.995   2.930  14.386
16501W        W88926   3.308  44.408  12.847
16502W        W88927  44.932   1.811   3.373
16503W        W88928  11.194  23.000  10.484
16504W        W88929  34.588  35.051   2.207
16505W        W88930  16.700  27.965  11.451
16506W        W88931  20.139  14.318   2.204
16507W        W88932  13.115   7.275   3.708
16508W        W88933  11.310  22.506  14.339
16509W        W88934  17.064  31.560   2.882
16510W        W88935  31.141   1.467  13.326
16511W        W88936   9.688  34.073  13.909
16512W        W88937  14.133  36.906  13.460
16513W        W88938  44.397  22.535  14.448
16514W        W88939   4.290   1.392  12.046
16515W        W88940  11.693   4.810  10.545
16516W        W88941  35.594  30.959   4.775
16517W        W88942  35.107  44.897   0.323
16518W        W88943  22.097  18.661   1.293
16519W        W88944  37.454  21.253   0.952
16520W        W88945   0.901  13.285   3.853
16521W        W88946  37.475   1.410  14.436
16522W        W88947  33.527  21.023   1.907
16523W        W88948  23.626  13.809   2.809
16524W        W88949  44.328  22.095   4.164
16525W        W88950  10.863  30.060   1.841
16526W        W88951  35.881  35.860   3.810
16527W        W88952  42.982  17.152   1.709
16528W        W88953  21.683  31.008   2.683
16529W        W88954  33.066  24.182  12.947
16530W        W88955  34.374   7.278  10.438
16531W        W88956   3.946  41.307  10.987
16532W        W88957   5.797  21.132   1.365
16533W        W88958   3.313  44.409  11.965
16534W        W88959  38.954  26.062   3.639
16535W        W88960  22.039  35.557  12.879
16536W        W88961  11.225  22.685   2.348
16537W        W88962   8.893  18.174  13.918
16538W        W88963  31.995   6.416   4.140
16539W        W88964   3.265  10.200   1.230
16540W        W88965  37.852  24.089   5.304
16541W        W88966  28.453  14.204   4.698
16542W        W88967  12.854  31.550  13.862
16543W        W88968  42.523  20.126  12.342
16544W        W88969  42.013  11.690  13.884
16545W        W88970   3.296  13.293  14.011
16546W        W88971  40.503   2.808   2.300
16547W        W88972  10.717  13.821   3.818
16548W        W88973  36.854  32.400   3.841
16549W        W88974  25.211  26.047   0.249
16550W        W88975  22.503  44.961   0.450
16551W        W88976   0.819  32.618  11.886
16552W        W88977  14.648  18.258  10.447
16553W        W88978  12.782   3.818  10.609
16554W        W88979  14.793   3.912   3.180
16555W        W88980  35.983  43.011  13.949
16556W        W88981  35.478   6.855   0.895
16557W        W88982  33.011  12.220   4.129
16558W        W88983  39.512  23.700   2.336
16559W        W88984  29.970   7.335   2.274
16560W        W88985  22.192   6.428  14.287
16561W        W88986  19.756   2.872   2.382
16562W        W88987   9.879   6.791   1.835
16563W        W88988  11.661  29.042   1.415
16564W        W88989  25.537  34.494   1.726
16565W        W88990  40.941  30.003   0.284
16566W        W88991  40.932  28.514   4.252
16567W        W88992  20.668  35.961   2.758
16568W        W88993  41.830   7.794  14.768
16569W        W88994  36.567  39.858   2.366
16570W        W88995  34.062   3.227  13.866
16571W        W88996  24.486  10.774  14.776
16572W        W88997   8.220   4.213  13.834
16573W        W88998  14.209  33.948   3.222
16574W        W88999  41.909   3.381  12.838
16575W        W89000  18.566  44.993  13.941
16576W        W89001  37.361   9.663  11.979
16577W        W89002  10.680  22.039   1.720
16578W        W89003  43.335  24.494   3.797
16579W        W89004  27.618   2.330   3.349
16580W        W89005   4.813  44.281  11.979
16581W        W89006  33.886  34.466  13.346
16582W        W89007  43.775  38.387  14.985
16583W        W89008  35.398  28.532   3.732
16584W        W89009  13.768  11.137  11.459
16585W        W89010  11.637  43.781  10.920
16586W        W89011  38.929  39.435  10.917
16587W        W89012  27.962  23.091  14.005
16588W        W89013  31.934  24.137   0.933
16589W        W89014   1.968  42.312  13.511
16590W        W89015  25.700  11.784   0.432
16591W        W89016  12.228   3.418  11.552
16592W        W89017  35.391  12.210   1.903
16593W        W89018  26.635   4.258   4.114
16594W        W89019  20.600  12.315  14.503
16595W        W89020  42.292   8.801   3.780
16596W        W89021  18.617  14.182  10.582
16597W        W89022  15.294   5.727  13.970
16598W        W89023  35.586  28.949   4.246
16599W        W89024  41.448   4.354   1.230
16600W        W89025  35.035  12.691  10.522
16601W        W89026  34.532   1.289   0.853
16602W        W89027  23.622  15.696  10.943
16603W        W89028  33.468  17.208  12.407
16604W        W89029  35.451   7.685  10.993
16605W        W89030  18.190  24.718  11.885
16606W        W89031  22.248  10.802   1.412
16607W        W89032  28.029  36.375  13.521
16608W        W89033  25.487  15.766  13.910
16609W        W89034   7.849  28.153  14.820
16610W        W89035  24.704  24.709   3.781
16611W        W89036  23.118  23.119  11.612
16612W        W89037  24.503   6.820  12.845
16613W        W89038  44.851   6.921  10.915
16614W        W89039  28.984  41.991  11.919
16615W        W89040  19.570  22.064  12.456
16616W        W89041   5.806  34.865  11.857
16617W        W89042  37.458  29.936   1.711
16618W        W89043  20.704  43.837   1.400
16619W        W89044  27.022   6.276   0.391
16620W        W89045  29.426  28.015   4.804
16621W        W89046  28.976  38.987   3.721
16622W        W89047  26.109  23.165   3.305
16623W        W89048  28.084  22.517  11.075
16624W        W89049   3.709  35.493   4.197
16625W        W89050   1.869  24.977   4.261
16626W        W89051  27.104  12.815   4.237
16627W        W89052  38.558  23.041  13.040
16628W        W89053   1.861  26.108   0.729
16629W        W89054  44.370  24.227  11.913
16630W        W89055  14.144  28.134  11.949
16631W        W89056  22.740   0.359  13.035
16632W        W89057  17.791  11.831  12.005
16633W        W89058  19.694  40.811  13.404
16634W        W89059   5.308  12.122   4.281
16635W        W89060  34.089   0.771   3.858
16636W        W89061  28.979  22.697  12.369
16637W        W89062  40.410  24.212  13.329
16638W        W89063  40.380  11.142   3.864
16639W        W89064  11.637  14.104   4.725
16640W        W89065   2.283  18.733   2.729
16641W        W89066  25.475   8.254   1.300
16642W        W89067   8.183   4.255   1.304
16643W        W89068  42.315  20.109  14.927
16644W        W89069  14.158  33.568   4.747
16645W        W89070  35.439  42.460   1.750
16646W        W89071  31.534  16.587  14.994
16647W        W89072  41.817   3.879   2.254
16648W        W89073   6.806  19.579  13.956
16649W        W89074   0.880  32.065   1.704
16650W        W89075  35.941  33.057  14.788
16651W        W89076  26.659  30.935   2.764
16652W        W89077  40.310  30.645   4.261
16653W        W89078  26.137  13.600  13.906
16654W        W89079   6.420  40.458   2.241
16655W        W89080   2.436  12.760   3.241
16656W        W89081  34.913   8.339   3.761
16657W        W89082  44.827  29.515  11.084
16658W        W89083  24.695  37.034   3.830
16659W        W89084  20.704  19.074  11.437
16660W        W89085  43.773  40.863  12.953
16661W        W89086  32.978  37.445  10.467
16662W        W89087  10.869  30.135  14.758
16663W        W89088  36.432  31.476  13.960
16664W        W89089   1.345  36.347  12.496
16665W        W89090  37.081  26.022  10.557
16666W        W89091  32.401   4.728   1.325
16667W        W89092  10.857  37.539   4.724
16668W        W89093   0.431  21.139  11.490
16669W        W89094  18.771  44.455  14.395
16670W        W89095   6.337  21.212   2.353
16671W        W89096   0.465  29.127   1.426
16672W        W89097   4.394   1.837  14.478
16673W        W89098  36.430  16.599  13.358
16674W        W89099  44.910  43.275   4.616
16675W        W89100  32.915   5.825   0.730
16676W        W89101  34.579  18.749   1.416
16677W        W89102  34.583  30.113   0.264
16678W        W89103  41.031  33.921  14.406
16679W        W89104  12.770  23.175   3.343
16680W        W89105  13.232  22.582  14.773
16681W        W89106   7.833  41.420   1.818
16682W        W89107  42.938   7.260   4.350
16683W        W89108  38.034  29.554   1.842
16684W        W89109   2.821  27.989   3.246
16685W        W89110  42.398   3.929  10.543
16686W        W89111  20.090  22.586   3.369
16687W        W89112  26.537  15.167  13.875
16688W        W89113  40.307  29.642   0.791
16689W        W89114  22.181   8.687   1.400
16690W        W89115  34.871  24.501   1.753
16691W        W89116   5.890  22.150  12.563
16692W        W89117  20.194  10.208  10.097
16693W        W89118  41.021   4.257  14.323
16694W        W89119  35.885  16.190  13.538
16695W        W89120   1.843   5.816   3.714
16696W        W89121   3.416  35.052  11.865
16697W        W89122  25.160   5.787  10.066
16698W        W89123  19.539  16.698  11.108
16699W        W89124  29.090   1.338   4.616
16700W        W89125  24.696   5.706  12.978
16701W        W89126  27.954  31.922   2.296
16702W        W89127  38.485  24.089   0.405
16703W        W89128  30.569  28.971   4.298
16704W        W89129  19.760   0.327   2.343
16705W        W89130  14.270  31.941  13.976
16706W        W89131  32.975  44.398  12.516
16707W        W89132   5.317  29.936  11.874
16708W        W89133  20.124  37.959   0.322
16709W        W89134  38.535  21.534   3.280
16710W        W89135  19.272  29.027  14.475
16711W        W89136  37.984  38.965  14.475
16712W        W89137  15.189  38.897  14.807
16713W        W89138  43.337  27.965  10.624
16714W        W89139  27.099  28.024  14.428
16715W        W89140  34.461  32.441   4.174
16716W        W89141  42.784   8.242  13.017
16717W        W89142  25.581  22.562  13.518
16718W        W89143  15.149  20.605  10.412
16719W        W89144  19.228  38.900  13.318
16720W        W89145   5.835  27.466  14.832
16721W        W89146   4.834  37.945   3.362
16722W        W89147  18.743  20.076   0.907
16723W        W89148  27.001  24.677   2.726
16724W        W89149  12.306  19.164   4.263
16725W        W89150  33.576  42.339  14.916
16726W        W89151   7.384  29.066  12.056
16727W        W89152  43.988  13.832  13.974
16728W        W89153  31.539   1.748   3.779
16729W        W89154  36.951  31.539  13.049
16730W        W89155  13.617  27.008   1.778
16731W        W89156  17.214   1.449   3.152
16732W        W89157   3.442  32.936  13.906
16733W        W89158   7.374  11.150   1.227
16734W        W89159  28.637  27.593  12.960
16735W        W89160  36.573  33.951   4.624
16736W        W89161   7.408   9.764  11.915
16737W        W89162  32.120   1.283   1.817
16738W        W89163  18.128  26.671   0.385
16739W        W89164  28.012   3.740   0.275
16740W        W89165   8.748  15.142   4.671
16741W        W89166  21.674  35.021  11.033
16742W        W89167  28.182  44.401  13.022
16743W        W89168  33.124  22.528  12.916
16744W        W89169  24.053  13.662   2.315
16745W        W89170  38.571  39.364   2.896
16746W        W89171  22.569  26.074   3.729
16747W        W89172  26.037   5.775   4.598
16748W        W89173  19.624   8.200   4.672
16749W        W89174  24.013  31.143  11.029
16750W        W89175  27.147   8.852   3.849
16751W        W89176  34.511  10.281  13.391
16752W        W89177  36.953  38.045   2.205
16753W        W89178   3.436  17.274   2.705
16754W        W89179  16.240   1.735   2.185
16755W        W89180  33.475  26.174  12.914
16756W        W89181   9.180  25.037  10.957
16757W        W89182  30.538  39.024   0.458
16758W        W89183  11.863  20.576  14.491
16759W        W89184   8.190  15.317   3.778
16760W        W89185  25.640  44.269  12.430
16761W        W89186  23.637  44.970  14.828
16762W        W89187  37.975   7.292  10.468
16763W        W89188   0.921  30.601   0.942
16764W        W89189  29.142  44.800  11.901
16765W        W89190  23.997  34.951  14.903
16766W        W89191  44.340   6.802  14.920
16767W        W89192   6.839  28.472   4.328
16768W        W89193  14.251  31.461  10.912
16769W        W89194  28.632  20.583   1.697
16770W        W89195  12.139   6.352  11.499
16771W        W89196  21.201   6.794   0.313
16772W        W89197  23.993  41.308   2.762
16773W        W89198   7.815  10.865   0.895
16774W        W89199  44.327   7.675  11.466
16775W        W89200  24.055   2.816   3.739
16776W        W89201  14.659  44.003   1.906
16777W        W89202  33.510  14.771  12.463
16778W        W89203  25.671  31.604   2.813
16779W        W89204  33.421  14.318   0.808
16780W        W89205   3.875  14.220   1.442
16781W        W89206  27.542  43.509  14.393
16782W        W89207   5.212  10.275   2.357
16783W        W89208   8.681   7.681   0.756
16784W        W89209  22.653  22.521  10.411
16785W        W89210  26.194   5.745  12.964
16786W        W89211  22.700  11.673  11.384
16787W        W89212   2.919   7.853   1.786
16788W        W89213  26.472  23.228  12.982
16789W        W89214  13.225  10.724   1.802
16790W        W89215  38.341  34.035   1.254
16791W        W89216   5.859   1.977   0.443
16792W        W89217  24.139  23.493  12.439
16793W        W89218  14.720   1.289  13.000
16794W        W89219  19.203  23.577   4.597
16795W        W89220  11.260  10.776  13.902
16796W        W89221  42.826  34.930   0.742
16797W        W89222   4.349  20.214   3.179
16798W        W89223  20.047  13.198   4.829
16799W        W89224  24.672  16.124  11.103
16800W        W89225  21.234  40.832  10.616
16801W        W89226  21.046   9.824   3.704
16802W        W89227  41.920  23.192  13.408
16803W        W89228  29.629  29.017   4.673
16804W        W89229  32.897  43.510   1.372
16805W        W89230  18.607  28.477   2.709
16806W        W89231  24.058  21.554  13.411
16807W        W89232  17.160  32.992  13.899
16808W        W89233  11.160  34.488   1.924
16809W        W89234  25.490  19.115  11.506
16810W        W89235   4.356   8.769   4.795
16811W        W89236  16.791   5.387   1.808
16812W        W89237   0.315  29.551   2.717
16813W        W89238  20.650   3.247  10.914
16814W        W89239  20.683  24.619   4.712
16815W        W89240  18.054  36.872  13.523
16816W        W89241  39.019  18.663  10.412
16817W        W89242  38.356  14.818  13.012
16818W        W89243  38.369  44.478  10.935
16819W        W89244  24.643  21.185  10.570
16820W        W89245  24.054  32.610   3.384
16821W        W89246   2.351  19.577   3.700
16822W        W89247  17.103  40.475   0.442
16823W        W89248  26.623  43.450   1.263
16824W        W89249  16.762  33.034  14.438
16825W        W89250   0.785  38.827   5.200
16826W        W89251  10.785  39.526  13.002
16827W        W89252   6.330  32.981   0.818
16828W        W89253  31.518  12.751   0.344
16829W        W89254  35.441  26.011   1.363
16830W        W89255  29.170  44.787  12.403
16831W        W89256  35.020  32.550  10.908
16832W        W89257  15.738  32.452   2.391
16833W        W89258   8.786  33.935  13.411
16834W        W89259  32.126   3.429   5.160
16835W        W89260  26.691  20.739  12.560
16836W        W89261  16.166  14.302   0.398
16837W        W89262  40.479  34.411  10.912
16838W        W89263  30.951  44.826  11.901
16839W        W89264  32.543  26.577   3.266
16840W        W89265  14.181  31.942  11.579
16841W        W89266  15.250  34.947  12.523
16842W        W89267  10.684  35.875  14.838
16843W        W89268   5.934  34.932   0.738
16844W        W89269   2.301  34.550   0.297
16845W        W89270   1.348  43.780   0.441
16846W        W89271  14.654  32.921  13.050
16847W        W89272  44.005  13.169  12.412
16848W        W89273  42.981  24.717   0.246
16849W        W89274  26.185   8.767   1.713
16850W        W89275  11.829   1.414  13.912
16851W        W89276   5.260  18.052   4.813
16852W        W89277   5.815  43.303   1.922
16853W        W89278   0.913   0.754  13.000
16854W        W89279   8.393  34.425   5.566
16855W        W89280  20.029  24.028   2.401
16856W        W89281   3.316  16.154  12.027
16857W        W89282  30.650  42.297  13.881
16858W        W89283  16.776  39.968   2.778
16859W        W89284  17.126   0.352   2.256
16860W        W89285  10.259  40.378  12.048
16861W        W89286  35.893   8.162   0.882
16862W        W89287   7.407  23.095  12.897
16863W        W89288   0.834  44.382  11.927
16864W        W89289  27.456  37.081  12.422
16865W        W89290  40.460   2.352  10.605
16866W        W89291  41.307  36.899   2.864
16867W        W89292  38.359  34.955  10.478
16868W        W89293  25.973   9.261   3.800
16869W        W89294  24.153  35.007   1.703
16870W        W89295  43.274  21.095   0.749
16871W        W89296  44.497  18.125   3.865
16872W        W89297  37.524   0.423   0.821
16873W        W89298  17.583   7.205   2.307
16874W        W89299   1.922  34.612  12.935
16875W        W89300  20.255  10.873  14.834
16876W        W89301  20.571  42.487   4.634
16877W        W89302  34.050  17.240   5.111
16878W        W89303  43.415   8.287   4.827
16879W        W89304  24.524  17.639   4.702
16880W        W89305  34.021  20.241  11.925
16881W        W89306  40.892  19.757  12.039
16882W        W89307  29.603  18.574   2.852
16883W        W89308   1.383   5.255   2.200
16884W        W89309  18.713  11.821  14.794
16885W        W89310   8.782  34.422   3.748
16886W        W89311  42.463  44.302   2.793
16887W        W89312  32.020  29.938   2.315
16888W        W89313  13.247  21.244  13.944
16889W        W89314   7.793  11.740   4.354
16890W        W89315  39.953   4.784  14.325
16891W        W89316  16.773  30.961  13.958
16892W        W89317  16.133  34.982   3.304
16893W        W89318  39.989   9.340  11.955
16894W        W89319  25.636  21.540  12.498
16895W        W89320  41.989  22.189   3.840
16896W        W89321  22.614   5.887   4.735
16897W        W89322   5.843  30.008   4.180
16898W        W89323  19.710  30.044   4.263
16899W        W89324   6.705  14.784   3.816
16900W        W89325  10.720  12.627  13.357
16901W        W89326  37.479  36.957  11.515
16902W        W89327  41.495  34.053   2.716
16903W        W89328  34.430  29.599  13.436
16904W        W89329  12.826  34.955  11.123
16905W        W89330  44.994   0.963  12.568
16906W        W89331  26.499  21.622   1.711
16907W        W89332  16.596  32.566   1.743
16908W        W89333  20.137   8.877  14.889
16909W        W89334  18.168  34.395   3.831
16910W        W89335  36.569   2.325  10.593
16911W        W89336  24.703   2.891   0.918
16912W        W89337   8.326  18.285  14.768
16913W        W89338  37.383  30.122   1.331
16914W        W89339   4.767  42.455   3.679
16915W        W89340  25.536  23.024   4.642
16916W        W89341   9.232   8.681   2.342
16917W        W89342  29.588  41.949  11.120
16918W        W89343  41.961  30.452  14.285
16919W        W89344  33.010   7.392   4.656
16920W        W89345  32.445  31.029   0.931
16921W        W89346  15.635  23.703   3.807
16922W        W89347  28.436  21.659   4.291
16923W        W89348  41.826  21.077   2.875
16924W        W89349   8.239   1.429  12.408
16925W        W89350  12.689  14.329  13.951
16926W        W89351   7.794  12.207   3.169
16927W        W89352   3.398  26.688   0.464
16928W        W89353  40.532  11.730   2.203
16929W        W89354  37.394   9.314  13.316
16930W        W89355   7.745  16.188  14.384
16931W        W89356  41.003   5.247  11.551
16932W        W89357  43.019   0.438  12.984
16933W        W89358  21.034   7.856   2.732
16934W        W89359  39.039  39.456   0.816
16935W        W89360  39.989   9.180  14.934
16936W        W89361  33.935  25.976  12.415
16937W        W89362  18.166  10.184  14.806
16938W        W89363   2.855  39.015  14.427
16939W        W89364   0.272   7.280   3.363
16940W        W89365  22.532  39.918  11.093
16941W        W89366   4.320  15.102   1.805
16942W        W89367  37.375   1.856  12.093
16943W        W89368  21.708  16.794   2.835
16944W        W89369  37.889   9.289   4.330
16945W        W89370  38.075  14.665   3.718
16946W        W89371  21.726  27.031   2.225
16947W        W89372  35.021  22.586  12.938
16948W        W89373   6.701  36.908   0.425
16949W        W89374   8.780  28.005   3.258
16950W        W89375  33.130  37.928  12.878
16951W        W89376  37.391  42.449  12.856
16952W        W89377   4.738  16.692  13.528
16953W        W89378  31.628   6.385   0.775
16954W        W89379   6.388  42.859  11.901
16955W        W89380  43.015  16.633   4.179
16956W        W89381  24.057  41.786   0.406
16957W        W89382   2.372  44.824   3.684
16958W        W89383  44.323  19.733   2.699
16959W        W89384  21.708  42.807   4.347
16960W        W89385  37.843  13.788   4.754
16961W        W89386  40.940  26.186  10.937
16962W        W89387  41.942  27.460   0.949
16963W        W89388  31.639  25.567   0.244
16964W        W89389  11.648  35.939   3.260
16965W        W89390  25.082  42.860   3.147
16966W        W89391   2.841  38.529   2.706
16967W        W89392  33.983   5.854   3.766
16968W        W89393  20.749  27.010   2.412
16969W        W89394  15.765   1.875   2.683
16970W        W89395  43.831  26.642  14.839
16971W        W89396  13.746  43.285  13.371
16972W        W89397  34.376   2.289  11.111
16973W        W89398  22.624   6.425  12.486
16974W        W89399  35.875  43.893  10.428
16975W        W89400   8.293  18.094   0.374
16976W        W89401  11.134   6.703   1.407
16977W        W89402   9.786  39.863  13.472
16978W        W89403  36.414  39.347   2.825
16979W        W89404  31.526   8.845  10.576
16980W        W89405  22.015  19.570   1.280
16981W        W89406  14.782   8.890  12.505
16982W        W89407  23.666  44.344  14.443
16983W        W89408  38.555  33.912   0.388
16984W        W89409   5.394  42.388  13.797
16985W        W89410  36.970  19.534   2.746
16986W        W89411  33.936  40.004   4.277
16987W        W89412  42.960   7.842  11.116
16988W        W89413   1.435  21.517  10.941
16989W        W89414  42.371  30.011   2.367
16990W        W89415  33.557  41.973  12.073
16991W        W89416  29.016  20.761  13.510
16992W        W89417  31.495  30.094   2.800
16993W        W89418  27.646  20.532   0.829
16994W        W89419  17.182  39.387   2.406
16995W        W89420   8.393   7.299  14.795
16996W        W89421  19.622  32.539  13.889
16997W        W89422   1.757  34.973  12.928
16998W        W89423   3.872  41.342  10.620
16999W        W89424  37.438  30.059   2.791
17000W        W89425  35.907   3.840   0.393
17001W        W89426  33.132  18.246   2.316
17002W        W89427  37.875  32.903  11.072
17003W        W89428  16.694  31.553   5.233
17004W        W89429  44.504  44.453  11.118
17005W        W89430  15.702  33.051   1.829
17006W        W89431  33.058   8.711   1.371
17007W        W89432   2.463  16.291  14.884
17008W        W89433  15.254  16.682   3.855
17009W        W89434  12.629  24.488   5.609
17010W        W89435   1.944  24.597   2.695
17011W        W89436  11.255   2.767  11.960
17012W        W89437  40.904  41.294   3.856
17013W        W89438  27.087   0.788  14.364
17014W        W89439   4.794  14.118   3.645
17015W        W89440  30.474  27.586   1.414
17016W        W89441  41.387  38.889   2.898
17017W        W89442  28.947  17.237  13.311
17018W        W89443  11.740  24.578  13.356
17019W        W89444  18.561  43.806   1.221
17020W        W89445   8.736   6.878   3.309
17021W        W89446  43.363  40.848  14.453
17022W        W89447  26.963   1.839   1.878
17023W        W89448  33.381  18.144  14.376
17024W        W89449  30.459  13.694   1.773
17025W        W89450   3.398  23.070  10.417
17026W        W89451  11.785  40.009  10.069
17027W        W89452  22.162  10.382   4.124
17028W        W89453  43.457  14.692  11.582
17029W        W89454   3.419  22.703  10.986
17030W        W89455  38.872  34.548   2.873
17031W        W89456  31.573   9.193   4.656
17032W        W89457  31.059  12.269  12.022
17033W        W89458  31.960  20.077   4.215
17034W        W89459  13.227  15.108  10.437
17035W        W89460  42.852  25.582  11.050
17036W        W89461   1.243  12.308  12.873
17037W        W89462  44.835  31.133   3.212
17038W        W89463  35.561  27.057  13.866
17039W        W89464  17.182   7.900  11.491
17040W        W89465   2.897  36.587  10.965
17041W        W89466  12.278  17.280   0.805
17042W        W89467  15.640  30.511   0.339
17043W        W89468  34.476  39.360  14.983
17044W        W89469   3.350  22.664   3.167
17045W        W89470  21.564   2.840   4.302
17046W        W89471  34.941  41.798   3.226
17047W        W89472  43.421  21.170   4.219
17048W        W89473  24.031  18.213   1.707
17049W        W89474  42.795  16.166  12.456
17050W        W89475   3.710  43.297  11.431
17051W        W89476  31.930  13.302  11.385
17052W        W89477  23.089  44.505   2.324
17053W        W89478  33.425   4.348  11.600
17054W        W89479  14.794   6.726   3.213
17055W        W89480  25.074   3.711  11.409
17056W        W89481  11.740  18.589  10.502
17057W        W89482  18.703  32.109  12.019
17058W        W89483  32.915  11.855   4.765
17059W        W89484  22.191  14.703   2.748
17060W        W89485  15.796  33.975   3.292
17061W        W89486  29.532  23.517   1.884
17062W        W89487  10.300  12.782   0.737
17063W        W89488  17.189  27.949  14.984
17064W        W89489  37.503  19.589  13.998
17065W        W89490  32.072  20.272  12.351
17066W        W89491  10.372  34.065   4.185
17067W        W89492  22.085  27.137   4.781
17068W        W89493   0.750  43.414  13.412
17069W        W89494  40.899  28.070   1.422
17070W        W89495  25.108   0.475  14.031
17071W        W89496  38.900  22.538   1.447
17072W        W89497   7.892  40.392   4.317
17073W        W89498   1.884   5.900   4.720
17074W        W89499   0.752  21.058  10.120
17075W        W89500  24.550  23.233  14.491
17076W        W89501  33.472  40.964   3.267
17077W        W89502  30.910  15.130   0.833
17078W        W89503  38.566  34.387   0.895
17079W        W89504  22.083   3.406   0.941
17080W        W89505   3.845   8.829   3.382
17081W        W89506  16.270   1.329  12.007
17082W        W89507  30.120  31.486  13.329
17083W        W89508  21.585  26.631   0.274
17084W        W89509  26.609   3.895   4.131
17085W        W89510  31.001  31.457   2.828
17086W        W89511  30.069  13.334   0.295
17087W        W89512  19.212  18.551  12.847
17088W        W89513  25.547  24.088  11.113
17089W        W89514  42.978  43.942  13.356
17090W        W89515   4.434   9.697  14.764
17091W        W89516   2.912  42.007  12.501
17092W        W89517  21.718   4.419   0.473
17093W        W89518  44.858  41.926  12.986
17094W        W89519  19.567  27.498   3.279
17095W        W89520  23.560  27.539   3.739
17096W        W89521  15.172  10.829  14.359
17097W        W89522  38.954  15.719   4.132
17098W        W89523   5.750  40.958  10.909
17099W        W89524  11.720  16.797  13.315
17100W        W89525   4.420  19.672  13.028
17101W        W89526  31.571   4.336  14.376
17102W        W89527  21.745   0.365  14.972
17103W        W89528  36.855  41.495   0.915
17104W        W89529  43.022   3.776  11.077
17105W        W89530  26.517  17.632   4.314
17106W        W89531  24.070  11.323  11.441
17107W        W89532  28.637  13.146  13.923
17108W        W89533  32.066  44.849   0.410
17109W        W89534   1.334  21.754  12.880
17110W        W89535  35.446  29.492  11.112
17111W        W89536  34.868  22.187   4.128
17112W        W89537  14.133  41.936  10.937
17113W        W89538  19.629   0.872   0.378
17114W        W89539  29.582  39.955  13.509
17115W        W89540  36.469   2.817  12.907
17116W        W89541   9.244  36.050   4.734
17117W        W89542  26.190  13.310  11.943
17118W        W89543  29.948  42.822  11.400
17119W        W89544   3.386  38.943   2.186
17120W        W89545  29.159   1.398   3.774
17121W        W89546  10.862  42.442  13.864
17122W        W89547   0.978  33.084   4.242
17123W        W89548  28.565  26.579  14.001
17124W        W89549  25.175  18.105  10.565
17125W        W89550   5.749  37.916   4.313
17126W        W89551  41.030  25.110   0.749
17127W        W89552  15.644  19.778  10.438
17128W        W89553  16.116   1.283   2.705
17129W        W89554   7.879  44.823  14.309
17130W        W89555  36.022  31.936  14.945
17131W        W89556   0.945  24.576   2.334
17132W        W89557  10.297  19.546   0.755
17133W        W89558  20.656   4.416   2.228
17134W        W89559   9.259  14.129  12.078
17135W        W89560  31.595   6.321   1.924
17136W        W89561  40.368  36.567   3.346
17137W        W89562  34.473  23.166   4.244
17138W        W89563   6.186  28.176  11.587
17139W        W89564  12.765  25.475  14.827
17140W        W89565  29.073   0.473   4.740
17141W        W89566   8.280   6.912  11.048
17142W        W89567  44.944  42.884  14.858
17143W        W89568  14.660  35.053  11.949
17144W        W89569  15.278  40.547  12.406
17145W        W89570  24.977  19.585   1.747
17146W        W89571  19.756  42.329  14.288
17147W        W89572  19.555  15.300   0.803
17148W        W89573  31.544   0.772  14.985
17149W        W89574   4.223  16.225  11.080
17150W        W89575  20.260  44.354  14.378
17151W        W89576   5.312  39.538  11.574
17152W        W89577  35.496  36.423   4.258
17153W        W89578   2.251  11.647  14.803
17154W        W89579  12.851   4.370   4.621
17155W        W89580   4.263   3.302   1.836
17156W        W89581   5.754  10.758   1.225
17157W        W89582  44.956  34.600   3.642
17158W        W89583  11.165  43.283  12.887
17159W        W89584  40.434  18.667   0.251
17160W        W89585  39.829  39.492   0.960
17161W        W89586  24.634   0.388   3.178
17162W        W89587  11.139  39.852   0.246
17163W        W89588   4.934   0.781   0.443
17164W        W89589   9.698  44.856  12.911
17165W        W89590  38.510  21.626  13.945
17166W        W89591  19.207  44.963   0.406
17167W        W89592  41.918  42.904   5.233
17168W        W89593  11.305  29.138   2.189
17169W        W89594  21.706  40.030  14.930
17170W        W89595  28.006  39.442   3.347
17171W        W89596  36.561  22.709  13.392
17172W        W89597  22.128   6.248  10.981
17173W        W89598  20.102   8.798  11.560
17174W        W89599  25.020  22.167   1.851
17175W        W89600  14.760  35.548   1.386
17176W        W89601  10.879  25.999  12.881
17177W        W89602  42.375  39.951   4.801
17178W        W89603  19.643  10.863   0.259
17179W        W89604   6.780  41.001   1.923
17180W        W89605   3.711  22.107   2.217
17181W        W89606  20.234  44.338  11.125
17182W        W89607  39.927   4.446  11.859
17183W        W89608  26.065  39.391  14.987
17184W        W89609  22.564  10.288  10.145
17185W        W89610  32.069  23.539   0.750
17186W        W89611  18.294  42.890   3.345
17187W        W89612  25.117  15.767  14.885
17188W        W89613  15.101  43.477  11.524
17189W        W89614  26.691  30.162   3.766
17190W        W89615   6.197  16.091   4.607
17191W        W89616  44.363  17.246   3.202
17192W        W89617  31.927  24.047  13.038
17193W        W89618  42.440  42.520   4.282
17194W        W89619  19.682  39.381   3.230
17195W        W89620  44.284  23.659  11.383
17196W        W89621  21.743  10.828   5.697
17197W        W89622   5.437  13.208   1.309
17198W        W89623  38.344  38.414  11.034
17199W        W89624  30.644  26.156   3.757
17200W        W89625  31.507  16.135   1.318
17201W        W89626   5.426  40.050  12.060
17202W        W89627  12.794  22.557  12.066
17203W        W89628  13.237  12.816  12.416
17204W        W89629  13.195  17.258  10.484
17205W        W89630  13.722  41.476  14.818
17206W        W89631  19.766  13.639   2.808
17207W        W89632  14.202  17.187  10.431
17208W        W89633  18.573  19.652  13.918
17209W        W89634   5.785  11.723  12.838
17210W        W89635  43.955  24.622   0.324
17211W        W89636  42.987  21.630  13.431
17212W        W89637  30.036  23.164   2.203
17213W        W89638  29.074   9.749   3.188
17214W        W89639  37.956  13.624  14.387
17215W        W89640  24.713   5.287  12.978
17216W        W89641  21.118  16.115   0.270
17217W        W89642   8.191  12.706  13.375
17218W        W89643   9.352   5.821   9.674
17219W        W89644  31.140   4.864  10.008
17220W        W89645  20.141  19.117  10.462
17221W        W89646  40.352  25.137   0.417
17222W        W89647   7.875   4.794   1.313
17223W        W89648   7.241  26.021  14.775
17224W        W89649  37.451  42.782   0.815
17225W        W89650  22.233  28.064  10.987
17226W        W89651  41.818   1.236  12.887
17227W        W89652  42.827  16.799  12.449
17228W        W89653  14.240  10.733  11.598
17229W        W89654  38.025   0.378  12.985
17230W        W89655   8.895  43.937   3.279
17231W        W89656  26.655  43.957   1.723
17232W        W89657  15.600  31.992   0.376
17233W        W89658   1.352  40.982  10.930
17234W        W89659  25.074  25.529  10.558
17235W        W89660   2.744  22.152  14.382
17236W        W89661  14.684  20.731   2.662
17237W        W89662  24.705  26.009   1.839
17238W        W89663  13.709  17.762   0.393
17239W        W89664  22.006   8.856   3.729
17240W        W89665  11.792  17.242  12.568
17241W        W89666  29.136  15.093  12.393
17242W        W89667  37.988  16.306   1.754
17243W        W89668  35.465  24.214  12.063
17244W        W89669  22.520  22.218   3.299
17245W        W89670  28.594  18.751   3.326
17246W        W89671  27.996   2.741  11.430
17247W        W89672   4.438  26.496  12.010
17248W        W89673  20.748  39.930  13.313
17249W        W89674  30.427  10.791  10.947
17250W        W89675  41.850   4.295   0.775
17251W        W89676  34.890   1.298   2.279
17252W        W89677   4.228  27.041  12.340
17253W        W89678  27.956   5.354  12.512
17254W        W89679  24.577  10.857   0.471
17255W        W89680  28.186  41.824   4.187
17256W        W89681  43.901  33.013   1.417
17257W        W89682   3.244  21.203   3.168
17258W        W89683  24.180  30.920  14.469
17259W        W89684  34.597  44.285  12.990
17260W        W89685   4.240  25.693   2.689
17261W        W89686  21.751   7.209   4.262
17262W        W89687  30.481  33.530  13.043
17263W        W89688  33.886  33.479   2.876
17264W        W89689   7.884  24.553   0.930
17265W        W89690  37.527  43.376   1.917
17266W        W89691  22.571  19.276  12.547
17267W        W89692  28.512  12.124   1.374
17268W        W89693  37.052  41.890  13.444
17269W        W89694  14.323   4.256   4.646
17270W        W89695   1.859  26.111   3.218
17271W        W89696   7.267  20.166  13.307
17272W        W89697  43.921  22.647  10.572
17273W        W89698  42.921  33.975  11.488
17274W        W89699  13.792  34.576   1.286
17275W        W89700  42.789   2.464   4.621
17276W        W89701  44.269   9.253  12.091
17277W        W89702  38.480  36.548   4.172
17278W        W89703  44.330   5.894   0.354
17279W        W89704  36.475  20.525  11.109
17280W        W89705  37.083   9.693   2.755
17281W        W89706   8.234  26.481  12.963
17282W        W89707   3.447   6.283   4.220
17283W        W89708  24.167  41.302  14.982
17284W        W89709  42.432  33.550   4.706
17285W        W89710  33.459  13.152   1.798
17286W        W89711  16.632  43.800   2.723
17287W        W89712   3.312  31.920  14.482
17288W        W89713  28.520   8.238   1.883
17289W        W89714  44.389  28.051   4.121
17290W        W89715   9.645   7.716  10.453
17291W        W89716   4.780  33.417  10.634
17292W        W89717  22.220  25.706   3.675
17293W        W89718  24.102  28.071   4.161
17294W        W89719  29.051  15.151   0.400
17295W        W89720   7.867  11.197  11.873
17296W        W89721   2.293  16.109  13.394
17297W        W89722   9.710  10.695  11.097
17298W        W89723  23.727  41.986  14.877
17299W        W89724  38.535  35.952   1.245
17300W        W89725  18.272  37.343   2.788
17301W        W89726  16.274  38.363   1.820
17302W        W89727   4.223  33.126   2.257
17303W        W89728   1.779  26.163  14.974
17304W        W89729  14.814  34.516  13.972
17305W        W89730  40.942   1.317   0.420
17306W        W89731  33.569  38.053   4.319
17307W        W89732  17.750  22.042   0.386
17308W        W89733   9.705   5.379   3.766
17309W        W89734   5.431  44.270   2.326
17310W        W89735  33.395  11.221  13.453
17311W        W89736  17.272  24.559   4.296
17312W        W89737  23.083  15.149  11.017
17313W        W89738  31.975   5.722   2.354
17314W        W89739  36.522   6.770   2.304
17315W        W89740  12.147  42.399   4.194
17316W        W89741  33.032  28.593   0.269
17317W        W89742  29.032  38.077   0.242
17318W        W89743   5.383  43.411  14.279
17319W        W89744  24.188  37.481   2.237
17320W        W89745   2.738  42.970   0.439
17321W        W89746   1.243  13.317  13.438
17322W        W89747  37.848  42.370   1.899
17323W        W89748   6.821  10.732   0.443
17324W        W89749  11.781  36.001   2.404
17325W        W89750  42.789  33.533  10.527
17326W        W89751  21.749  39.376   4.770
17327W        W89752  34.959  25.076   4.192
17328W        W89753   1.744  34.454  11.474
17329W        W89754  41.022  37.841   3.217
17330W        W89755  34.574  19.598  14.815
17331W        W89756  37.542   0.886   3.386
17332W        W89757  16.142  15.749  11.086
17333W        W89758  39.021  34.441  14.442
17334W        W89759  13.782  44.854  13.028
17335W        W89760  25.709  17.784   2.339
17336W        W89761   1.780  42.021  14.955
17337W        W89762  24.488  32.569  11.479
17338W        W89763  35.513   1.869   0.420
17339W        W89764  23.187   3.800   4.173
17340W        W89765  22.594  28.554   0.320
17341W        W89766   5.908  19.694  13.030
17342W        W89767  12.664  36.880  11.473
17343W        W89768  37.024  17.608  11.119
17344W        W89769  26.619   8.300  13.398
17345W        W89770   9.387  10.688   2.376
17346W        W89771   7.395  32.895  11.494
17347W        W89772  40.903   3.440   0.277
17348W        W89773  38.834  20.197  14.433
17349W        W89774  29.038  24.992   1.836
17350W        W89775   3.235   4.345  14.455
17351W        W89776   8.810  14.149   5.166
17352W        W89777  17.155  27.091   3.254
17353W        W89778   7.778  37.891  11.388
17354W        W89779  25.691   8.780   3.801
17355W        W89780  28.135  17.197   2.204
17356W        W89781  31.456  16.226  11.102
17357W        W89782  16.623   6.338  13.943
17358W        W89783  27.684  14.754  13.439
17359W        W89784  42.781  32.135   4.268
17360W        W89785   9.711  38.973   2.411
17361W        W89786  28.472  28.448  10.951
17362W        W89787   7.174   2.760   2.385
17363W        W89788  35.541   6.700   1.917
17364W        W89789  12.210  17.568  12.853
17365W        W89790  23.129  29.541   2.680
17366W        W89791  17.215  37.869  13.454
17367W        W89792  10.653  19.584  10.464
17368W        W89793  12.790  33.446   3.705
17369W        W89794  41.383  24.480  14.998
17370W        W89795  38.479  10.713   1.225
17371W        W89796  23.011   2.441   4.175
17372W        W89797   5.238  40.952   4.272
17373W        W89798  26.639  20.038   2.391
17374W        W89799  25.684  11.634   1.769
17375W        W89800  38.832   4.910  11.482
17376W        W89801  10.233  27.024  10.436
17377W        W89802  38.478   3.870   3.808
17378W        W89803  43.438  32.426  12.496
17379W        W89804  26.118  30.022   3.277
17380W        W89805  34.886  33.914   1.777
17381W        W89806   2.963  39.533   1.823
17382W        W89807  13.681  44.932   1.819
17383W        W89808  21.162   3.308   3.331
17384W        W89809  32.599  35.859   0.945
17385W        W89810  12.249  31.016   4.279
17386W        W89811  19.131  35.980   3.868
17387W        W89812  21.158  44.966  11.958
17388W        W89813  24.612  26.161   0.860
17389W        W89814  37.433  40.375   4.719
17390W        W89815  15.303  34.066   2.358
17391W        W89816  36.496  40.481   1.339
17392W        W89817  27.133   3.392   2.795
17393W        W89818  14.815  37.363   1.213
17394W        W89819  17.795  25.654  11.956
17395W        W89820  11.317   9.194   2.217
17396W        W89821   5.403  33.471   2.780
17397W        W89822  30.435   9.780   4.253
17398W        W89823  29.131  30.925  10.449
17399W        W89824  11.694  12.665  13.961
17400W        W89825  42.919  31.041   4.793
17401W        W89826  34.113  11.791  11.438
17402W        W89827   4.835  18.682  14.796
17403W        W89828   3.430  29.515  13.799
17404W        W89829  20.242  37.500  12.086
17405W        W89830  22.735  31.052   3.237
17406W        W89831  18.737  34.507   2.419
17407W        W89832   9.277  15.243   4.169
17408W        W89833   2.269  12.770  13.903
17409W        W89834  42.289  40.927   0.473
17410W        W89835  20.219  35.016  13.335
17411W        W89836   4.354  20.099   2.888
17412W        W89837  19.125   6.835  10.613
17413W        W89838  12.161  41.507  10.446
17414W        W89839   6.231  31.992   3.335
17415W        W89840   2.770  37.929   0.438
17416W        W89841  31.952  11.733  12.562
17417W        W89842  43.426  23.625   2.317
17418W        W89843  22.107  38.905   2.899
17419W        W89844   0.384  19.143   2.316
17420W        W89845  11.819   0.340  14.326
17421W        W89846   8.656   1.286   4.269
17422W        W89847   9.288   2.471  11.552
17423W        W89848  27.026   5.371  14.907
17424W        W89849  21.653  15.668   2.329
17425W        W89850  14.120  15.197   2.859
17426W        W89851  16.789  13.760  14.030
17427W        W89852   2.418  26.016  10.465
17428W        W89853   5.436  12.614  10.977
17429W        W89854  20.060   4.305  12.575
17430W        W89855  41.501  18.626  11.940
17431W        W89856   8.385   4.353   0.829
17432W        W89857   8.363  36.537   1.842
17433W        W89858  35.028   2.355  12.949
17434W        W89859   9.150  23.078  10.644
17435W        W89860  39.921   0.267   0.960
17436W        W89861  33.437   3.715  12.386
17437W        W89862  26.096  15.145   3.189
17438W        W89863  11.743  41.788  10.644
17439W        W89864  21.260  40.813   4.236
17440W        W89865  40.965  38.416   1.347
17441W        W89866  19.217  11.157   0.883
17442W        W89867  14.589   3.398   0.821
17443W        W89868  19.282  18.187   2.861
17444W        W89869  44.839   9.872   1.289
17445W        W89870  15.747  10.252  13.854
17446W        W89871  32.423  38.501  14.499
17447W        W89872   4.235  17.650  10.494
17448W        W89873   5.293  18.262  14.377
17449W        W89874   6.746  27.684  14.412
17450W        W89875  25.007   0.841   0.886
17451W        W89876  29.433   4.289   1.902
17452W        W89877  40.369  11.339   1.414
17453W        W89878  24.219  31.021  13.024
17454W        W89879  18.243  29.126   0.955
17455W        W89880  44.912  16.126   1.724
17456W        W89881   6.789  32.419  14.436
17457W        W89882  18.676  21.538   3.304
17458W        W89883   1.800  12.208  10.541
17459W        W89884  37.938  37.012  14.013
17460W        W89885  27.499  19.671   4.716
17461W        W89886  28.575  19.070   1.764
17462W        W89887  28.975  29.476  12.064
17463W        W89888  28.439   6.693   3.808
17464W        W89889   6.331  14.207   1.931
17465W        W89890  36.970  43.427  11.537
17466W        W89891  18.768  14.811  10.537
17467W        W89892   6.872  40.430   2.759
17468W        W89893  27.514   9.738  13.044
17469W        W89894  30.142  19.765  11.110
17470W        W89895  13.155  11.757  10.968
17471W        W89896  30.603  43.483   3.660
17472W        W89897  33.606  43.404  13.839
17473W        W89898  19.101  25.615  14.937
17474W        W89899  30.510  26.034   1.773
17475W        W89900  23.087  11.143  12.559
17476W        W89901  31.998  17.623  11.948
17477W        W89902  23.626  15.159  11.014
17478W        W89903  30.128  19.635   3.319
17479W        W89904   0.354   6.897   4.118
17480W        W89905  23.239  27.977   4.673
17481W        W89906  39.028  36.970  14.989
17482W        W89907  29.536  35.028  13.442
17483W        W89908   7.800  29.068  13.449
17484W        W89909  10.749   4.942  12.916
17485W        W89910   4.737   9.269  13.364
17486W        W89911  31.421  23.230   3.304
17487W        W89912   3.715   7.803   0.287
17488W        W89913  37.338   4.927  14.463
17489W        W89914  36.055   6.356   3.704
17490W        W89915   6.812   2.392  10.608
17491W        W89916  33.384  23.014  13.893
17492W        W89917  39.048  19.733  10.529
17493W        W89918  11.133  35.084  12.984
17494W        W89919  39.497   4.889   1.768
17495W        W89920  28.539  20.557  14.788
17496W        W89921  39.870   6.318   4.836
17497W        W89922   3.758  33.009  13.504
17498W        W89923  34.865  12.227   0.356
17499W        W89924  19.185   3.413  10.999
17500W        W89925  17.570  26.527  11.488
17501W        W89926  30.928  29.499   4.720
17502W        W89927  27.613  41.389   0.432
17503W        W89928  14.145  24.037  12.560
17504W        W89929  11.837   4.881   1.247
17505W        W89930   6.850  22.169   4.664
17506W        W89931  23.616  25.628   3.307
17507W        W89932   1.271  43.856  10.535
17508W        W89933   6.249  35.046  12.384
17509W        W89934  43.883  14.133   2.372
17510W        W89935  13.753  23.208  11.084
17511W        W89936  42.421  37.035  14.889
17512W        W89937  24.054  20.204  11.594
17513W        W89938   6.854   2.898  11.109
17514W        W89939  10.243  38.533  13.405
17515W        W89940  35.865  25.140  10.608
17516W        W89941  14.273  39.865  14.029
17517W        W89942  34.511   8.888  13.855
17518W        W89943  44.755  39.464  11.109
17519W        W89944  29.541  38.373   3.636
17520W        W89945   0.327   1.437   1.750
17521W        W89946  43.459  29.013   3.763
17522W        W89947  35.089  43.963  13.057
17523W        W89948  17.632   1.314   1.734
17524W        W89949  39.056   1.285   2.415
17525W        W89950  21.188   1.846  10.634
17526W        W89951  24.055  16.138  11.076
17527W        W89952   8.802  44.940  11.024
17528W        W89953   3.836  37.053   4.264
17529W        W89954   5.387  19.109   3.773
17530W        W89955  13.805  11.861   0.955
17531W        W89956  22.529  14.669  12.025
17532W        W89957   8.824   0.848  12.402
17533W        W89958  12.121  10.686  12.496
17534W        W89959  44.836  31.079   2.888
17535W        W89960  10.179  23.643  12.014
17536W        W89961  31.478  28.468   1.413
17537W        W89962  40.344   3.374  10.967
17538W        W89963  35.418  34.101  12.849
17539W        W89964   1.397  23.600   2.790
17540W        W89965  30.467  24.725  12.932
17541W        W89966  28.551   8.729   3.383
17542W        W89967  19.164  22.150   2.687
17543W        W89968   5.277  14.131  11.525
17544W        W89969  34.978  24.581  10.559
17545W        W89970  13.827   8.335  12.059
17546W        W89971   1.827  14.214   2.275
17547W        W89972  43.942  43.915  12.413
17548W        W89973  19.591  42.823   4.128
17549W        W89974  26.152  34.415   1.374
17550W        W89975  42.343  23.184   3.697
17551W        W89976  25.083  14.247  10.548
17552W        W89977   0.978  44.337   1.317
17553W        W89978   5.366  19.186   2.775
17554W        W89979  39.363  38.875  12.350
17555W        W89980  28.024  38.956  13.979
17556W        W89981  29.963  15.114  13.016
17557W        W89982  25.979  32.020   5.147
17558W        W89983   8.366  31.008  11.858
17559W        W89984  23.677  42.811   3.314
17560W        W89985  21.633  41.299  10.626
17561W        W89986  33.431  30.944   0.336
17562W        W89987  22.075  30.074   4.304
17563W        W89988  37.388   2.257   3.187
17564W        W89989  44.770   7.678   1.267
17565W        W89990  14.326  32.978   0.945
17566W        W89991   6.809  40.985   0.455
17567W        W89992  21.090  19.654   3.337
17568W        W89993  23.518  18.235  14.812
17569W        W89994  20.089   3.266   1.775
17570W        W89995  18.774   4.852  11.463
17571W        W89996  31.113  20.268   1.339
17572W        W89997  37.061   5.397   0.833
17573W        W89998  33.965  37.865   1.696
17574W        W89999   6.826  10.278  11.041
17575W        W90000  36.916  40.928  10.960
17576W        W90001  21.617  31.056  12.427
17577W        W90002  21.056  23.228   1.391
17578W        W90003  27.978  33.007  13.925
17579W        W90004   0.317  44.267  11.490
17580W        W90005  44.815  23.216  12.537
17581W        W90006  19.591  42.028  13.016
17582W        W90007  17.194   1.282  13.833
17583W        W90008  41.906  36.042   1.715
17584W        W90009  19.576  42.906  14.445
17585W        W90010   4.806  41.452   5.195
17586W        W90011  19.103  37.415  12.917
17587W        W90012   7.890  34.896   4.172
17588W        W90013  36.384  11.339   0.468
17589W        W90014  11.776  42.523  14.425
17590W        W90015   5.885  23.236  11.440
17591W        W90016  14.721  39.930  11.030
17592W        W90017   1.240  31.456   2.359
17593W        W90018  34.492  28.083   4.130
17594W        W90019  16.230  14.240  11.987
17595W        W90020  19.762  30.636  14.489
17596W        W90021  34.375  44.443   3.657
17597W        W90022  25.562   9.729   0.818
17598W        W90023  24.230  10.852   2.684
17599W        W90024   3.919  38.975   4.318
17600W        W90025   6.229  25.159  14.427
17601W        W90026  23.713   4.742  10.499
17602W        W90027  29.469  18.214   1.735
17603W        W90028  20.529   6.683  11.052
17604W        W90029  39.891  16.233   4.653
17605W        W90030  34.522  43.510  14.368
17606W        W90031  38.861  21.058   1.293
17607W        W90032  29.597  18.115  10.513
17608W        W90033  20.640  15.615   3.279
17609W        W90034  28.592  22.127  11.391
17610W        W90035  41.507   6.915   0.891
17611W        W90036  11.725  21.101   1.330
17612W        W90037   9.821   5.926   3.643
17613W        W90038   6.889   6.206   4.192
17614W        W90039  15.165  17.181  13.360
17615W        W90040  23.523  28.498   0.942
17616W        W90041   6.282  39.468  14.993
17617W        W90042  32.889  22.176   2.270
17618W        W90043   0.873   0.752  11.000
17619W        W90044  11.328  21.134   2.757
17620W        W90045  34.592  18.584   2.850
17621W        W90046  16.808  24.112  14.371
17622W        W90047   2.414   1.304  10.572
17623W        W90048  29.031  13.292  14.851
17624W        W90049  33.944  32.591  11.084
17625W        W90050   0.492  43.861   3.304
17626W        W90051  42.303  41.488   0.389
17627W        W90052   4.308  14.295   0.360
17628W        W90053  33.599   1.969  10.125
17629W        W90054  25.015   4.912  12.469
17630W        W90055   1.783  25.127  12.092
17631W        W90056  22.632  42.959  14.389
17632W        W90057  35.978  16.146  10.588
17633W        W90058  10.174  44.452  14.005
17634W        W90059  28.511  33.881  11.571
17635W        W90060  12.131  11.249   0.367
17636W        W90061  19.079  21.527  10.548
17637W        W90062  25.977  42.835   2.670
17638W        W90063  38.392   1.382  11.964
17639W        W90064  34.558  39.370  12.938
17640W        W90065  32.073  25.559  10.410
17641W        W90066  26.468  37.565  14.796
17642W        W90067  37.526  36.918   4.800
17643W        W90068  25.709   0.931   4.162
17644W        W90069   0.751  31.617  11.611
17645W        W90070   3.334   5.798   4.151
17646W        W90071  12.150  21.057  13.413
17647W        W90072  18.184   8.299   0.440
17648W        W90073  10.297   8.252  10.903
17649W        W90074  35.475  30.482  12.411
17650W        W90075  21.738  12.771  13.420
17651W        W90076  24.507  34.513   0.926
17652W        W90077  19.594  15.119   2.370
17653W        W90078   6.239  40.848   3.727
17654W        W90079  13.673  38.477  13.351
17655W        W90080  24.723  35.593   0.906
17656W        W90081   7.208   8.846  13.396
17657W        W90082  16.252  38.552  13.884
17658W        W90083  11.195   2.835  12.405
17659W        W90084   3.755  26.555  11.598
17660W        W90085   3.271  19.191   1.749
17661W        W90086  13.119   4.909  11.481
17662W        W90087  13.770   0.354   0.828
17663W        W90088   1.799  12.718  12.424
17664W        W90089  13.286  27.060  13.383
17665W        W90090  37.495  42.360   3.253
17666W        W90091   7.717   4.439   4.338
17667W        W90092   5.818  12.840  11.488
17668W        W90093  31.477  42.495  12.873
17669W        W90094  13.234   1.954  14.280
17670W        W90095   6.912  38.068  13.509
17671W        W90096   7.742   6.189  10.496
17672W        W90097   8.380  33.547  12.389
17673W        W90098  10.165   7.778  13.023
17674W        W90099  13.171  37.988   2.810
17675W        W90100  12.821  39.927   0.967
17676W        W90101  25.635  18.175  11.903
17677W        W90102  43.283  25.481  11.945
17678W        W90103  24.029  29.480   3.751
17679W        W90104  10.249  36.900   0.263
17680W        W90105  12.805  32.907  11.548
17681W        W90106  14.675  25.668  14.785
17682W        W90107   3.286   4.315   4.701
17683W        W90108  33.035  37.080  11.456
17684W        W90109  12.767   1.764   2.766
17685W        W90110  22.020  25.529  14.845
17686W        W90111  18.725  12.314  14.331
17687W        W90112  35.559   0.906  12.383
17688W        W90113  20.243  19.259   0.790
17689W        W90114  12.283  26.525   4.727
17690W        W90115  24.535  23.214   4.130
17691W        W90116   4.225  25.123  13.423
17692W        W90117  22.541  29.012  14.801
17693W        W90118  33.529  18.147   3.689
17694W        W90119   3.764   1.272   1.436
17695W        W90120   3.324  34.042   2.407
17696W        W90121  37.426  36.967   0.472
17697W        W90122   6.731   3.387  11.909
17698W        W90123  34.958  25.200   3.791
17699W        W90124   6.203   8.396  11.428
17700W        W90125   5.814  11.177  10.452
17701W        W90126  33.983  32.087   4.176
17702W        W90127  21.713   6.804  10.449
17703W        W90128  28.075  44.500  11.385
17704W        W90129   3.815  36.544   0.445
17705W        W90130  14.163  20.179   2.878
17706W        W90131  34.068  18.193  13.936
17707W        W90132   7.769  23.521   1.400
17708W        W90133  20.700  11.658  14.466
17709W        W90134  33.407  10.761  13.792
17710W        W90135  13.263  24.997   3.728
17711W        W90136  35.580  13.158  12.087
17712W        W90137   8.162  21.573   1.425
17713W        W90138   2.909  19.679  11.878
17714W        W90139  43.842   8.794  11.596
17715W        W90140   3.754  20.667  14.999
17716W        W90141  17.085  30.436  14.372
17717W        W90142  30.653  23.071   3.236
17718W        W90143   7.812  29.437  12.056
17719W        W90144  44.778  26.490   2.274
17720W        W90145  11.350   3.733   3.386
17721W        W90146  33.526  19.041   1.704
17722W        W90147   9.738  19.222   2.188
17723W        W90148  24.184   7.225  14.455
17724W        W90149  15.608  36.573  11.520
17725W        W90150  12.272   4.368   3.233
17726W        W90151  19.705   4.905  14.277
17727W        W90152  17.602  12.755  13.527
17728W        W90153   4.312  27.646  10.958
17729W        W90154  42.317  17.133  11.589
17730W        W90155  13.694  23.658  13.932
17731W        W90156   6.809  26.652   3.303
17732W        W90157  15.775  44.495   5.322
17733W        W90158  41.412  29.934   1.390
17734W        W90159   7.344  34.888  11.912
17735W        W90160   4.791  29.612   3.377
17736W        W90161  38.887  22.586  10.499
17737W        W90162   4.448  37.458  14.923
17738W        W90163  17.791  29.937  13.321
17739W        W90164  26.110   8.175   0.468
17740W        W90165  24.146   0.390   3.375
17741W        W90166  32.597  30.437   0.416
17742W        W90167  35.047  21.559  12.405
17743W        W90168   9.669  14.606  10.544
17744W        W90169  29.643  19.194   2.776
17745W        W90170  42.899   2.896  13.928
17746W        W90171  34.998  21.139   0.947
17747W        W90172   9.685   9.303  13.916
17748W        W90173  26.514  30.988  12.874
17749W        W90174  38.495  25.632   2.370
17750W        W90175  34.499  10.345   1.767
17751W        W90176  21.736   9.782   5.604
17752W        W90177  13.325  40.034  13.478
17753W        W90178   3.282  21.658   4.607
17754W        W90179  37.038   1.948  11.885
17755W        W90180  30.007  40.438  13.015
17756W        W90181   3.383  30.467   4.652
17757W        W90182  28.013  22.232  14.910
17758W        W90183   2.815  12.146   3.802
17759W        W90184  18.184   9.228  13.377
17760W        W90185  40.539  36.588   2.893
17761W        W90186  18.239   7.821  11.880
17762W        W90187  38.904  37.522   9.988
17763W        W90188   4.284  21.668  11.875
17764W        W90189   8.829   3.344   2.753
17765W        W90190  22.681   3.945  13.889
17766W        W90191  43.919   0.798   2.726
17767W        W90192  35.374  37.412  12.435
17768W        W90193   0.470   0.406   0.788
17769W        W90194  30.121  31.114  12.502
17770W        W90195  21.673   6.834  14.362
17771W        W90196   0.836  23.616   1.889
17772W        W90197  28.614  34.440  12.827
17773W        W90198  34.901  20.522   3.305
17774W        W90199  29.499  31.120   4.291
17775W        W90200  10.714  10.791   1.866
17776W        W90201  15.636  30.522   4.117
17777W        W90202   3.925  35.526   0.348
17778W        W90203  14.759  37.521  12.463
17779W        W90204  38.067  18.746  12.451
17780W        W90205  44.306  29.026  13.363
17781W        W90206  19.181  10.235  13.378
17782W        W90207  11.736   3.747  12.463
17783W        W90208  41.522  18.258  14.351
17784W        W90209  41.850  38.458   0.840
17785W        W90210  13.703  31.971   3.346
17786W        W90211  22.176  36.986  12.933
17787W        W90212  17.163   3.953  12.879
17788W        W90213  22.523  24.648   0.922
17789W        W90214  18.293  30.591  12.529
17790W        W90215   0.887  22.035  11.552
17791W        W90216  34.404  37.021  13.314
17792W        W90217  22.686  21.038  13.385
17793W        W90218  32.459   9.281  11.065
17794W        W90219  18.155  40.836  11.119
17795W        W90220  33.514  14.588   2.866
17796W        W90221   9.784  38.019   2.783
17797W        W90222   0.752  22.726   2.219
17798W        W90223  15.274  26.984   0.441
17799W        W90224   3.221  27.479  12.370
17800W        W90225   8.336  25.045   1.415
17801W        W90226  11.648  36.424  13.978
17802W        W90227  42.417  21.757  11.983
17803W        W90228   2.727  13.269   0.814
17804W        W90229   0.951  10.177   1.365
17805W        W90230   3.735   1.300   0.937
17806W        W90231  38.378  35.873   1.920
17807W        W90232  27.108  22.037   2.898
17808W        W90233  27.986  41.506   3.150
17809W        W90234  23.490  33.493   2.899
17810W        W90235  26.483   3.772  10.497
17811W        W90236  29.082  20.645  10.591
17812W        W90237   9.867  31.950   0.479
17813W        W90238  22.503   0.832   2.394
17814W        W90239  15.217  30.106  13.505
17815W        W90240  39.940  39.911  10.573
17816W        W90241   6.807  15.735   1.699
17817W        W90242   2.962   2.813   2.779
17818W        W90243  11.629  14.679   1.917
17819W        W90244  29.457  34.504   1.804
17820W        W90245  32.566  35.446  14.305
17821W        W90246  38.413  43.829  10.555
17822W        W90247  44.384  11.771   4.630
17823W        W90248  41.853   8.884  12.428
17824W        W90249  30.160  10.383   2.210
17825W        W90250  16.666  10.148   4.208
17826W        W90251   5.731  35.481  11.375
17827W        W90252  25.601  43.767  11.464
17828W        W90253   1.438   9.369  11.910
17829W        W90254  40.371  34.368  12.511
17830W        W90255  29.543  10.687  12.509
17831W        W90256   6.719  43.459  14.844
17832W        W90257  15.697  25.611   2.186
17833W        W90258  31.922  40.455   1.239
17834W        W90259  11.624  32.419  13.925
17835W        W90260   8.378  32.109  13.062
17836W        W90261  35.462  44.808  13.930
17837W        W90262  40.904  35.439   2.893
17838W        W90263   2.831  36.887  10.526
17839W        W90264  26.048  27.949  13.448
17840W        W90265  24.694  13.106   3.326
17841W        W90266  17.190  17.098  13.463
17842W        W90267  12.344   6.914   3.171
17843W        W90268   7.402  32.094  14.961
17844W        W90269  15.312   0.790   2.350
17845W        W90270  37.085   9.331   4.180
17846W        W90271   2.425  32.624  14.483
17847W        W90272  10.849   9.280  10.541
17848W        W90273   9.356  42.460  12.007
17849W        W90274  35.933  31.999   2.831
17850W        W90275  37.439  44.842   3.164
17851W        W90276   8.827  18.714   4.624
17852W        W90277  24.064  42.850   1.212
17853W        W90278  36.863  40.376   0.315
17854W        W90279   7.817  41.363  14.298
17855W        W90280  21.561  16.772  11.959
17856W        W90281  31.513  15.302   4.697
17857W        W90282  41.798  30.527  11.569
17858W        W90283   2.389  43.336  11.472
17859W        W90284  22.119  12.715   3.869
17860W        W90285  22.215  10.290   0.827
17861W        W90286  36.422  28.147   1.709
17862W        W90287   0.286  33.605   3.333
17863W        W90288  17.259  18.185   4.272
17864W        W90289  17.658   2.736   1.756
17865W        W90290  10.286  22.082  13.981
17866W        W90291   6.736  16.251  13.874
17867W        W90292  13.801  40.922   3.820
17868W        W90293  22.738  18.239   0.285
17869W        W90294  23.034  26.535   3.812
17870W        W90295  37.957  44.926  10.941
17871W        W90296  34.879  12.266   4.165
17872W        W90297  42.817  14.176   1.922
17873W        W90298  42.397   1.849   4.665
17874W        W90299  23.171  27.519   4.717
17875W        W90300   4.434  28.939   0.332
17876W        W90301   6.427  35.074  11.060
17877W        W90302   0.930  24.088   0.949
17878W        W90303  35.977  32.575  12.439
17879W        W90304  32.428  42.482  10.607
17880W        W90305   9.888  23.229   1.383
17881W        W90306   1.324  30.120   3.150
17882W        W90307   4.267  32.059  12.560
17883W        W90308   2.920  27.990  14.878
17884W        W90309  28.139  13.219   0.454
17885W        W90310  28.558   0.873   3.157
17886W        W90311  25.031  44.463   2.861
17887W        W90312  18.265  12.220  11.430
17888W        W90313  27.188  32.524  12.829
17889W        W90314  10.204   9.741  13.051
17890W        W90315   8.296  12.200  11.383
17891W        W90316  11.317  35.365  10.435
17892W        W90317  37.983  22.501   5.137
17893W        W90318  23.595  18.134  10.486
17894W        W90319  25.603  17.693  10.432
17895W        W90320  44.835   6.362   0.407
17896W        W90321  33.538  24.109  13.507
17897W        W90322  40.304  35.543   3.718
17898W        W90323  26.081   2.247  13.896
17899W        W90324  39.953  32.982  10.569
17900W        W90325  19.133  41.517  12.438
17901W        W90326  37.960  39.318   0.964
17902W        W90327  42.009  44.857   3.346
17903W        W90328  24.156  11.230  12.884
17904W        W90329  38.367  32.007   4.637
17905W        W90330  30.043  38.999   4.336
17906W        W90331  14.788   6.230   2.898
17907W        W90332  25.162  26.559  11.557
17908W        W90333  26.695  18.700   5.308
17909W        W90334  43.424  11.339   3.269
17910W        W90335  39.491   0.366   4.614
17911W        W90336  41.866   7.804   2.248
17912W        W90337  23.721  32.500   2.725
17913W        W90338  17.561  14.198   4.752
17914W        W90339  25.682  21.597  11.475
17915W        W90340  22.117   7.769  10.599
17916W        W90341  22.644  25.210   1.928
17917W        W90342  30.157  14.777  13.883
17918W        W90343   2.871   1.900  14.466
17919W        W90344  22.539  10.642  14.434
17920W        W90345  17.581   1.958  12.950
17921W        W90346  27.472  30.940  12.837
17922W        W90347  22.218  30.009  13.328
17923W        W90348   1.453  35.448  14.901
17924W        W90349  17.733  42.000  10.970
17925W        W90350   8.267  32.451   1.378
17926W        W90351   2.751  27.009  12.514
17927W        W90352  38.954   4.865   1.293
17928W        W90353   0.882  27.641   0.331
17929W        W90354   7.333  20.750   1.913
17930W        W90355  16.712  27.097  13.829
17931W        W90356  24.706  40.983   2.218
17932W        W90357  15.805  10.216   0.405
17933W        W90358  35.938  14.760   3.767
17934W        W90359  19.145   1.267  11.491
17935W        W90360  13.255  38.993   5.202
17936W        W90361   0.836  38.523  13.378
17937W        W90362  41.938   8.724  14.294
17938W        W90363  39.841  26.518  12.535
17939W        W90364  24.648  42.825  14.889
17940W        W90365   5.715  27.956   4.685
17941W        W90366  38.948  18.598  14.491
17942W        W90367  39.433  23.643  11.557
17943W        W90368   3.405   4.231  11.371
17944W        W90369   0.417   1.746  10.908
17945W        W90370  42.951   3.367  13.037
17946W        W90371  15.661  26.682   0.258
17947W        W90372   4.753  37.872  13.970
17948W        W90373  32.538   1.364  10.981
17949W        W90374  40.514  16.719   4.238
17950W        W90375  26.093  40.917  10.975
17951W        W90376  23.658  14.186   4.123
17952W        W90377  15.113  35.995  11.949
17953W        W90378   4.280  12.812  10.487
17954W        W90379  40.001  25.525   3.744
17955W        W90380   5.893  14.195   4.235
17956W        W90381   5.247  27.054  11.872
17957W        W90382  19.774  23.559   3.752
17958W        W90383  32.925  35.390   2.877
17959W        W90384  25.634  10.343   4.601
17960W        W90385  16.269  43.270  12.857
17961W        W90386   6.214  41.530  12.834
17962W        W90387  21.678   1.349  14.776
17963W        W90388  19.734  25.545  12.959
17964W        W90389  12.614  13.225  14.292
17965W        W90390  25.194  32.599  12.871
17966W        W90391  21.601   8.900   5.286
17967W        W90392  42.905   4.784  13.421
17968W        W90393  20.179  13.705   0.908
17969W        W90394  23.242  35.929   1.708
17970W        W90395  11.664  10.674   2.839
17971W        W90396  27.530  11.668   3.187
17972W        W90397  32.092   5.229   4.677
17973W        W90398   5.911  41.019   4.753
17974W        W90399  19.612  12.136  12.039
17975W        W90400  34.532  22.221  13.319
17976W        W90401  23.635  22.703   3.853
17977W        W90402  44.324   9.199  14.334
17978W        W90403  34.876  21.258  14.443
17979W        W90404  20.154  20.106   4.227
17980W        W90405  21.045  13.229   3.634
17981W        W90406   1.308  30.044   1.402
17982W        W90407  26.173  18.611   2.740
17983W        W90408  40.946  31.996   0.790
17984W        W90409   4.785   5.195  12.355
17985W        W90410  17.203   2.357  10.921
17986W        W90411  34.000  35.895  13.545
17987W        W90412  19.079  16.288   2.666
17988W        W90413  31.917  43.938  11.402
17989W        W90414  21.230  23.035  14.314
17990W        W90415   1.357   3.452  12.357
17991W        W90416  28.985   6.258   1.227
17992W        W90417  10.752  18.599   3.641
17993W        W90418   1.416  11.754  13.379
17994W        W90419  30.065  21.194   3.361
17995W        W90420  32.142   6.287  12.825
17996W        W90421  24.542  37.348   1.276
17997W        W90422  10.314  43.476   3.729
17998W        W90423   6.427  10.261   2.298
17999W        W90424  34.614  12.617   4.120
18000W        W90425  33.398  13.647   2.216
18001W        W90426  25.023  35.465   2.198
18002W        W90427  22.082  28.456   1.779
18003W        W90428  27.614  25.607   2.712
18004W        W90429   0.864  17.753  12.425
18005W        W90430  34.091   7.396  13.886
18006W        W90431  26.021  31.492  12.991
18007W        W90432  21.732  28.997   0.904
18008W        W90433  14.100  22.730   4.338
18009W        W90434  32.913  13.836  13.385
18010W        W90435  43.315  21.144  11.001
18011W        W90436  18.137   9.220  12.017
18012W        W90437   8.733  34.595   2.234
18013W        W90438  27.467  44.971  14.841
18014W        W90439  23.199  21.588   1.327
18015W        W90440  34.904  14.724  11.039
18016W        W90441  31.126   4.419  10.479
18017W        W90442  32.449  10.378  10.483
18018W        W90443  22.137  37.987   2.358
18019W        W90444  19.540  35.967   2.870
18020W        W90445  32.594  32.022  11.075
18021W        W90446   9.385  36.555   3.703
18022W        W90447   5.231  22.041   0.863
18023W        W90448   8.177  24.572   1.879
18024W        W90449  38.920   7.866   2.887
18025W        W90450   2.908  29.577   4.740
18026W        W90451  32.479  23.993  12.554
18027W        W90452   6.344  21.240  12.068
18028W        W90453  39.544   1.854  13.953
18029W        W90454  16.267  39.858   4.314
18030W        W90455  41.954  12.811  14.897
18031W        W90456  33.050  35.993  14.808
18032W        W90457  44.781  31.611   1.405
18033W        W90458   8.782  17.275   4.641
18034W        W90459  33.078  38.013  12.491
18035W        W90460  15.141  26.963  11.121
18036W        W90461  17.593  31.641  10.569
18037W        W90462   3.787   7.172  10.625
18038W        W90463  24.224  33.410  11.378
18039W        W90464  36.418   0.399   0.891
18040W        W90465  37.581  43.805   5.097
18041W        W90466  24.006   5.897   1.337
18042W        W90467  33.007  15.692   4.598
18043W        W90468  18.683   5.413  11.018
18044W        W90469  27.944  24.191   2.823
18045W        W90470  41.020  22.091  11.857
18046W        W90471  40.798  25.579   3.867
18047W        W90472  33.027   4.243   3.774
18048W        W90473  37.872  40.479  13.806
18049W        W90474  37.039  32.132  12.382
18050W        W90475  38.919   2.789   1.267
18051W        W90476  17.783  13.829   0.249
18052W        W90477  22.160  33.964  14.762
18053W        W90478  24.571   2.849   1.420
18054W        W90479  39.464  33.522   2.352
18055W        W90480   9.216   4.239  13.468
18056W        W90481   2.777   3.740   3.313
18057W        W90482  25.152  27.982   1.368
18058W        W90483  11.192  20.592   1.810
18059W        W90484  29.501  20.720   3.839
18060W        W90485  24.614   6.324   0.393
18061W        W90486  34.020   8.249   2.194
18062W        W90487  43.766  31.011  14.424
18063W        W90488   0.764  31.135   0.357
18064W        W90489   8.269  34.905  14.456
18065W        W90490  17.581  20.164   3.760
18066W        W90491   4.938  39.468  11.904
18067W        W90492  23.493  29.647  11.544
18068W        W90493  27.467  26.554  11.599
18069W        W90494   9.254  28.535  12.934
18070W        W90495  10.634  10.247   4.320
18071W        W90496  14.323  34.121  14.463
18072W        W90497   0.762   9.246  11.610
18073W        W90498  18.556  13.764   3.201
18074W        W90499   7.856   7.360   4.198
18075W        W90500  20.226  10.266   5.102
18076W        W90501   3.862  43.773   1.227
18077W        W90502  43.956   4.338  10.925
18078W        W90503  32.472   1.307   2.256
18079W        W90504   5.260  37.997   0.249
18080W        W90505   5.801   8.287   4.129
18081W        W90506   2.266  38.046  14.429
18082W        W90507  44.297  30.426  10.423
18083W        W90508  43.396   9.673  13.836
18084W        W90509   6.319  21.033   2.713
18085W        W90510  12.680  27.125  10.634
18086W        W90511  28.052   8.720  11.496
18087W        W90512  32.907  12.331   2.773
18088W        W90513  12.191   2.855   2.268
18089W        W90514  34.405   2.239   2.372
18090W        W90515   1.309  31.562  14.432
18091W        W90516  23.988  33.436  13.050
18092W        W90517  36.496   4.772   1.354
18093W        W90518   5.432  14.660  10.487
18094W        W90519  35.040  20.159  11.420
18095W        W90520   4.738  44.290   1.373
18096W        W90521   2.346  35.885   3.274
18097W        W90522   5.375  28.631   4.761
18098W        W90523   3.229  34.517  13.425
18099W        W90524   5.405  35.495  13.311
18100W        W90525   2.732  41.302  11.093
18101W        W90526  19.237  14.253   2.767
18102W        W90527  38.974   3.226  10.613
18103W        W90528  34.909  19.677  14.980
18104W        W90529   7.358  24.102   0.879
18105W        W90530   6.307   8.270  11.050
18106W        W90531  13.794  35.971   2.755
18107W        W90532  27.120  37.531  13.028
18108W        W90533  35.885  13.777   4.608
18109W        W90534  30.148  35.411  12.977
18110W        W90535  10.166   8.167   5.757
18111W        W90536  33.944   0.960   4.137
18112W        W90537  29.538   8.808  10.566
18113W        W90538   2.371   4.756  10.965
18114W        W90539   9.155  20.045  14.468
18115W        W90540   8.867  29.503   1.284
18116W        W90541  10.157  37.449  12.090
18117W        W90542  24.511   9.222   5.287
18118W        W90543  33.563  30.606  10.148
18119W        W90544   5.387  21.674   3.763
18120W        W90545   0.485  26.034   0.905
18121W        W90546  35.876  23.668  11.004
18122W        W90547  30.536  25.694  12.039
18123W        W90548   0.339  29.430   0.432
18124W        W90549  37.950   7.329  14.348
18125W        W90550  33.014  33.506   4.172
18126W        W90551  21.632  19.123  13.443
18127W        W90552  22.706  37.908  14.926
18128W        W90553   2.731  29.600   1.778
18129W        W90554  15.220   4.899  12.952
18130W        W90555   7.804  32.541   3.682
18131W        W90556  15.676  34.090  12.389
18132W        W90557  38.403  32.060   2.735
18133W        W90558  21.577  11.781   4.222
18134W        W90559  27.527  25.485   3.821
18135W        W90560   1.343  33.885   1.348
18136W        W90561   7.717  21.639  11.099
18137W        W90562  31.060  22.593   1.315
18138W        W90563  42.952  27.047  11.939
18139W        W90564  39.479  31.976   3.672
18140W        W90565  31.434  31.961   2.233
18141W        W90566   5.225  35.517  10.605
18142W        W90567   3.825  21.098   4.326
18143W        W90568  16.750  35.538  10.406
18144W        W90569  23.162  42.819   0.801
18145W        W90570  37.047  33.007   0.929
18146W        W90571  12.220  26.662  13.940
18147W        W90572  10.326  26.460  13.990
18148W        W90573  36.001  44.496   2.885
18149W        W90574  42.996  34.049   0.367
18150W        W90575  17.260  30.446  14.903
18151W        W90576  32.980  33.917   2.764
18152W        W90577   2.227  34.959  11.010
18153W        W90578  25.591  10.840   0.893
18154W        W90579   5.875  41.865   0.315
18155W        W90580   9.258  20.168  11.470
18156W        W90581  36.459  16.625  10.583
18157W        W90582  26.076  12.737   2.187
18158W        W90583  44.379  29.112   9.972
18159W        W90584  28.645  40.502   2.350
18160W        W90585  36.384   1.747  14.762
18161W        W90586  23.231  20.167  13.031
18162W        W90587  34.960  26.531   4.269
18163W        W90588  19.175  28.439   2.719
18164W        W90589  14.818  13.178  12.556
18165W        W90590   0.267  10.151   4.203
18166W        W90591   4.384  10.740  13.481
18167W        W90592   6.203  33.552   0.306
18168W        W90593  14.674  36.463  14.863
18169W        W90594  29.439  28.679  13.913
18170W        W90595  30.944   9.665  14.437
18171W        W90596  35.487   7.208   3.852
18172W        W90597  41.318  33.381   2.887
18173W        W90598  18.737  35.854   1.235
18174W        W90599  43.987   1.434   1.291
18175W        W90600  14.115  27.598  13.379
18176W        W90601   1.825   8.731  14.461
18177W        W90602  35.532  34.410  10.934
18178W        W90603  29.955  23.582  12.080
18179W        W90604   2.428  28.677   0.765
18180W        W90605   1.767  12.744   2.780
18181W        W90606  22.247   3.800  13.382
18182W        W90607   6.695  22.055   1.226
18183W        W90608  42.364  20.753   2.773
18184W        W90609  31.986  32.043  12.346
18185W        W90610  37.529  33.622  13.320
18186W        W90611  39.485  24.662  12.484
18187W        W90612  39.975   2.732  12.089
18188W        W90613  16.182   0.399  12.516
18189W        W90614  13.239  18.113  10.050
18190W        W90615  12.149  37.450   0.463
18191W        W90616  16.754  36.913  11.612
18192W        W90617  34.111  25.171   5.237
18193W        W90618  40.339   1.919  10.155
18194W        W90619  36.957  18.656   1.715
18195W        W90620  25.635  23.682   2.831
18196W        W90621  24.100  23.211   1.742
18197W        W90622  20.756  25.042   4.686
18198W        W90623   0.424  15.241  11.002
18199W        W90624  34.899  39.971  14.024
18200W        W90625  31.963  19.589  13.427
18201W        W90626   4.217  35.057  12.514
18202W        W90627   3.768  34.030   4.334
18203W        W90628  37.956  26.461  14.945
18204W        W90629  11.237  21.198  11.451
18205W        W90630  25.497  19.624  12.017
18206W        W90631  29.109  14.294   5.236
18207W        W90632  14.213  33.038   2.189
18208W        W90633  30.647  23.725   3.385
18209W        W90634  16.244  17.224   0.821
18210W        W90635  34.575  24.080  12.497
18211W        W90636  31.951  16.173  10.454
18212W        W90637  25.200  42.413  15.000
18213W        W90638   9.712   1.843   2.196
18214W        W90639  41.907  40.002   2.415
18215W        W90640  24.682  14.294   0.413
18216W        W90641   6.740  13.760  12.477
18217W        W90642  34.006  37.961   0.934
18218W        W90643  40.868   9.784   1.764
18219W        W90644  26.491  37.895  13.908
18220W        W90645   5.437  16.277  10.596
18221W        W90646   0.416  17.662   1.345
18222W        W90647  35.045  25.016   2.743
18223W        W90648  24.569  28.017   4.122
18224W        W90649  13.206  21.069   2.185
18225W        W90650   5.414  44.904  13.513
18226W        W90651  33.614   4.830   2.825
18227W        W90652  30.493   0.882  14.908
18228W        W90653  29.963   6.379  12.945
18229W        W90654  32.952   5.395  12.340
18230W        W90655  39.901   7.724  12.936
18231W        W90656  14.773   7.360   5.272
18232W        W90657  32.940  29.141  14.480
18233W        W90658  28.054  32.091  14.327
18234W        W90659  33.460  37.543   3.223
18235W        W90660  10.770   7.803   5.567
18236W        W90661  23.186  26.645   2.240
18237W        W90662  37.531  38.446  11.913
18238W        W90663  32.126  41.403  13.994
18239W        W90664   7.349  25.102   1.286
18240W        W90665   2.452  36.423   3.823
18241W        W90666  44.478  13.761   3.168
18242W        W90667  43.817  40.870  13.968
18243W        W90668  16.725  14.730  10.989
18244W        W90669  31.051  25.579  11.592
18245W        W90670  28.183  24.707  11.396
18246W        W90671  20.702   5.927  13.447
18247W        W90672  41.900  41.897  11.487
18248W        W90673  19.698  40.518   4.323
18249W        W90674  35.506  33.599   3.672
18250W        W90675  18.627  10.271  13.806
18251W        W90676  22.624  36.899   0.418
18252W        W90677  43.394  41.908   2.736
18253W        W90678  35.902   9.868   4.657
18254W        W90679   8.865  17.647  12.954
18255W        W90680   6.206  37.449  10.946
18256W        W90681  24.604  37.573   3.783
18257W        W90682  25.532   1.279  10.947
18258W        W90683  32.459  13.190  13.854
18259W        W90684  10.792  11.843  11.025
18260W        W90685   7.845   5.264  13.823
18261W        W90686   9.850  39.538  13.044
18262W        W90687  11.295  19.598   2.683
18263W        W90688  40.864  16.692  14.502
18264W        W90689  29.124  20.550   0.783
18265W        W90690  39.020  44.306   2.270
18266W        W90691  33.913  43.339   1.248
18267W        W90692   2.936  22.534  11.074
18268W        W90693  36.473   4.918  12.559
18269W        W90694  22.096  43.353  10.891
18270W        W90695   9.203  23.154  13.942
18271W        W90696  41.966  31.909   3.206
18272W        W90697   9.814  37.873   0.475
18273W        W90698  18.065  41.323   2.814
18274W        W90699  14.596   2.461  10.549
18275W        W90700  27.124  40.950   1.429
18276W        W90701   0.464  26.468   3.152
18277W        W90702   7.683  41.977   1.434
18278W        W90703  17.299   0.870  10.973
18279W        W90704  29.171  33.496   0.250
18280W        W90705  40.304  35.905   1.815
18281W        W90706   3.264  35.431   0.352
18282W        W90707  43.327  23.147  14.805
18283W        W90708  14.319  29.004   0.753
18284W        W90709  21.039  13.672  14.417
18285W        W90710  28.172  16.141  10.474
18286W        W90711   7.879  23.647  10.099
18287W        W90712  21.663  36.059  13.027
18288W        W90713  37.546  27.667   3.344
18289W        W90714  13.816  36.492   0.889
18290W        W90715   6.901   9.308  13.857
18291W        W90716  29.460   6.292  13.025
18292W        W90717  23.055  11.640  11.914
18293W        W90718  24.146  10.193  10.153
18294W        W90719  38.496  22.694   0.868
18295W        W90720  39.914  44.966  11.910
18296W        W90721  44.443  12.741  11.980
18297W        W90722   4.890   5.907  10.457
18298W        W90723  16.773   9.312  12.476
18299W        W90724  28.457  14.660   1.344
18300W        W90725  28.145   5.368   2.891
18301W        W90726  31.461  40.024  12.572
18302W        W90727   6.243  29.611   4.354
18303W        W90728  40.543  18.294   3.805
18304W        W90729  41.394  42.972  11.125
18305W        W90730   0.908  41.458   0.772
18306W        W90731   3.911  34.523   3.712
18307W        W90732  11.285  28.526   3.732
18308W        W90733  35.392  31.624  11.920
18309W        W90734  16.257   6.804   1.248
18310W        W90735  13.161  16.143  11.525
18311W        W90736   4.721  31.537   2.795
18312W        W90737  30.015  37.040  12.957
18313W        W90738  44.785  20.082  11.492
18314W        W90739  16.626  33.470   1.230
18315W        W90740  41.998   3.242  12.540
18316W        W90741  44.758  29.119   0.317
18317W        W90742  30.106  23.565  13.494
18318W        W90743   7.857  31.634   2.716
18319W        W90744  33.122  28.642  13.371
18320W        W90745  39.062   3.289   1.781
18321W        W90746  14.210  28.664   1.823
18322W        W90747   3.412   9.689   2.192
18323W        W90748   5.780  36.585   1.320
18324W        W90749  10.699   8.814   0.470
18325W        W90750  39.813  11.813  10.943
18326W        W90751  30.060  44.443   2.714
18327W        W90752  43.364  12.699  11.503
18328W        W90753   0.745  26.185   4.609
18329W        W90754  12.750   8.735  13.347
18330W        W90755  21.654   8.670  11.999
18331W        W90756  31.139  23.098  13.385
18332W        W90757   5.793  18.077   4.172
18333W        W90758   0.866  27.581  13.002
18334W        W90759  21.642  37.539  14.861
18335W        W90760  16.594  10.255   9.956
18336W        W90761  39.334   6.882   4.772
18337W        W90762   8.889   1.457  11.092
18338W        W90763  43.922  33.079   0.463
18339W        W90764  29.554  13.649   1.228
18340W        W90765  41.308  18.229   4.764
18341W        W90766  40.852  24.206   1.304
18342W        W90767  17.156  26.018   1.403
18343W        W90768  28.604  32.490   0.401
18344W        W90769   0.891  12.857   0.367
18345W        W90770   0.953  31.465  13.985
18346W        W90771   9.887  36.900   1.923
18347W        W90772  13.842  39.821   4.317
18348W        W90773  11.734  15.764   0.297
18349W        W90774  25.133   4.877  13.402
18350W        W90775  40.798  44.397  14.342
18351W        W90776  18.560  36.950  11.609
18352W        W90777  30.021  41.354   3.822
18353W        W90778   1.433  33.392   3.782
18354W        W90779  25.572   2.389  14.922
18355W        W90780  32.063   8.262  11.011
18356W        W90781  26.201  38.941   3.307
18357W        W90782  42.469  42.030   2.666
18358W        W90783  42.387   9.756  10.432
18359W        W90784  31.071  29.085  12.948
18360W        W90785  30.432  33.935  14.867
18361W        W90786  32.067  30.413   0.329
18362W        W90787   9.197  19.240   0.827
18363W        W90788  44.754  36.405  12.347
18364W        W90789  36.578  38.562  10.587
18365W        W90790  12.809  41.806   2.694
18366W        W90791  20.053  25.703   1.279
18367W        W90792  16.200   5.317  11.524
18368W        W90793  20.743  13.632  13.942
18369W        W90794  10.679   8.703   3.836
18370W        W90795  17.140  34.944  13.360
18371W        W90796  43.313   0.362  12.417
18372W        W90797  33.532  27.646  14.813
18373W        W90798  27.977  24.196   4.673
18374W        W90799  31.596   8.817   3.798
18375W        W90800  32.610  23.679   3.787
18376W        W90801   7.782  19.277  12.006
18377W        W90802  29.616  25.989  10.957
18378W        W90803  21.585  26.488  13.957
18379W        W90804  44.760  14.632   3.385
18380W        W90805  41.362   9.676  11.098
18381W        W90806  32.582  32.635  14.299
18382W        W90807  30.418   0.307   0.303
18383W        W90808  22.248  40.322  13.405
18384W        W90809  31.063  39.921  12.966
18385W        W90810  19.088  26.097   3.318
18386W        W90811  16.082  22.233   3.282
18387W        W90812  32.440  17.292  12.034
18388W        W90813  22.117  23.622   3.792
18389W        W90814  32.620   4.834  12.002
18390W        W90815   8.760   0.492   1.706
18391W        W90816  12.688  43.355   0.282
18392W        W90817  40.507  15.179   2.269
18393W        W90818   0.856   1.367  10.980
18394W        W90819   6.867  29.597  11.385
18395W        W90820   9.225  39.903  10.966
18396W        W90821  15.789  19.282   0.260
18397W        W90822  15.597   8.244  11.580
18398W        W90823  26.492  35.586   2.784
18399W        W90824  16.136  14.736  13.798
18400W        W90825   1.928  23.239  12.083
18401W        W90826  44.436  33.380  11.556
18402W        W90827  26.123  42.437  11.073
18403W        W90828   2.814  26.975  14.952
18404W        W90829  31.123  30.138  12.415
18405W        W90830  10.338  11.701   0.253
18406W        W90831  14.752   9.285   0.916
18407W        W90832  43.818  14.217  10.415
18408W        W90833  36.555  43.366  11.859
18409W        W90834  20.599  37.379   1.909
18410W        W90835  42.460  43.356  13.514
18411W        W90836  13.746   8.401  10.430
18412W        W90837  18.551   2.868   1.382
18413W        W90838  16.223  29.647  10.595
18414W        W90839   0.853  17.178   9.924
18415W        W90840  14.116  26.043  11.579
18416W        W90841  12.834  25.595  12.514
18417W        W90842  42.422   4.872  11.026
18418W        W90843  43.795  21.143   3.685
18419W        W90844  44.466  41.517  13.369
18420W        W90845  41.905  23.668  11.925
18421W        W90846  16.650  29.634   4.693
18422W        W90847  19.082  32.589  13.343
18423W        W90848   7.266  38.473  14.924
18424W        W90849  25.043  23.656  13.516
18425W        W90850   8.350   3.865  11.547
18426W        W90851  15.755  36.575  13.522
18427W        W90852  20.256  31.990   4.802
18428W        W90853  33.512  43.009   2.315
18429W        W90854  15.304   0.428  13.397
18430W        W90855  31.896  21.042  12.997
18431W        W90856  23.733  38.457  10.551
18432W        W90857  37.942   4.225  10.470
18433W        W90858   3.888   4.824  11.374
18434W        W90859  30.594  36.416   4.631
18435W        W90860  13.614  31.139   1.440
18436W        W90861  33.487  24.217  13.820
18437W        W90862  39.954   1.348  13.485
18438W        W90863  28.481  40.415  12.533
18439W        W90864  38.538  35.025  11.542
18440W        W90865  30.591   7.896  13.928
18441W        W90866  37.986  10.700  13.547
18442W        W90867  16.749  33.608   3.694
18443W        W90868  19.669  32.570   3.738
18444W        W90869  18.234  22.584  14.994
18445W        W90870  10.660  17.760   1.323
18446W        W90871  23.103  36.529   3.815
18447W        W90872  16.263  30.958  11.124
18448W        W90873   9.649  42.525  12.909
18449W        W90874  10.218  31.460   1.803
18450W        W90875   2.303  29.924   4.141
18451W        W90876  18.084  22.684  11.075
18452W        W90877  10.751  30.137   1.332
18453W        W90878  15.325   1.923   4.253
18454W        W90879   1.412  38.405  14.992
18455W        W90880  11.348  11.236   4.833
18456W        W90881  24.102  42.972  11.893
18457W        W90882  26.457  41.958   5.306
18458W        W90883  25.219  16.078  10.592
18459W        W90884  16.202  36.982  12.846
18460W        W90885  44.459  37.440   1.926
18461W        W90886  29.571  26.977   1.223
18462W        W90887   4.361  36.874  14.827
18463W        W90888   6.684  10.800   1.774
18464W        W90889  23.183   2.891   3.373
18465W        W90890   7.254  10.246  11.006
18466W        W90891  26.591  16.074   0.435
18467W        W90892   8.281  29.598   2.412
18468W        W90893  19.535  20.130  11.448
18469W        W90894   8.338   7.804   3.319
18470W        W90895  16.709  40.352  14.374
18471W        W90896  12.639  42.880  12.077
18472W        W90897  38.489  24.171   2.795
18473W        W90898  11.246  37.085   2.295
18474W        W90899  15.784  23.620  14.904
18475W        W90900  42.302  22.125   1.340
18476W        W90901  18.699   4.866  12.016
18477W        W90902  31.598  17.704  10.459
18478W        W90903   4.293  41.801   1.858
18479W        W90904  44.755  43.784   4.353
18480W        W90905  20.646   6.922  12.013
18481W        W90906   2.279  16.711  14.880
18482W        W90907   2.416  26.173   0.384
18483W        W90908  26.108  37.397  10.636
18484W        W90909  14.107  10.143  12.096
18485W        W90910  37.034  35.533  10.938
18486W        W90911  44.483  20.030   2.662
18487W        W90912  42.920  19.692   9.961
18488W        W90913  41.852  39.955  14.348
18489W        W90914   3.448  32.934   1.864
18490W        W90915  36.471  37.450  14.814
18491W        W90916  22.697  14.635  13.055
18492W        W90917  13.736  27.197  13.470
18493W        W90918  10.350  32.617   3.738
18494W        W90919  33.383  13.339  12.094
18495W        W90920  20.228  30.142   5.172
18496W        W90921  15.669   9.754  13.010
18497W        W90922  44.882  38.876  13.431
18498W        W90923   1.264  22.706   0.473
18499W        W90924  33.886  43.903  13.952
18500W        W90925  12.661  32.413   1.398
18501W        W90926  24.137  14.279  14.513
18502W        W90927  28.997  24.499  12.900
18503W        W90928  42.825   1.257   2.360
18504W        W90929  36.514  43.820  13.332
18505W        W90930  20.585  12.354   4.741
18506W        W90931  35.494  22.605  13.452
18507W        W90932  44.399   2.788   0.474
18508W        W90933  29.036  14.226  10.508
18509W        W90934  36.056   7.249  12.407
18510W        W90935  22.163  34.440  12.492
18511W        W90936  28.025  17.564   2.709
18512W        W90937  29.599  29.029  12.964
18513W        W90938   8.306  24.719   0.909
18514W        W90939  39.830   8.385  13.497
18515W        W90940  44.846  44.776  14.790
18516W        W90941  11.359  28.102   0.961
18517W        W90942   3.321  39.993  13.948
18518W        W90943  26.111  17.801  12.045
18519W        W90944  41.039  12.296   1.808
18520W        W90945   6.697  18.783  13.998
18521W        W90946  20.729  31.946   0.266
18522W        W90947   9.691  28.069  14.878
18523W        W90948  36.017  21.530  14.875
18524W        W90949  44.962  31.957   3.686
18525W        W90950  34.399   3.324  11.449
18526W        W90951  17.741  13.615   3.828
18527W        W90952  19.129  35.401   2.670
18528W        W90953   7.786  35.974  13.392
18529W        W90954  28.492  33.566   4.251
18530W        W90955  33.888  24.609   3.148
18531W        W90956  38.918   8.179   3.385
18532W        W90957  13.221  29.070  10.503
18533W        W90958  30.496  36.406  13.963
18534W        W90959   6.266   6.277  10.499
18535W        W90960  43.008  38.493   2.734
18536W        W90961  37.019  15.779  14.952
18537W        W90962  28.987  31.629   2.319
18538W        W90963   3.371  35.049  14.460
18539W        W90964  29.620  38.915   2.364
18540W        W90965  16.720  16.082   3.843
18541W        W90966  21.741  36.050  13.348
18542W        W90967  17.613  22.216  12.021
18543W        W90968  15.776  40.406  14.951
18544W        W90969  30.480   8.339  11.922
18545W        W90970  32.008  36.042   2.332
18546W        W90971  35.108  18.691   2.667
18547W        W90972  21.597  28.075  14.515
18548W        W90973  20.674   9.248  11.405
18549W        W90974   7.246  10.353  11.933
18550W        W90975  28.504  21.254   0.354
18551W        W90976  39.557  20.571   3.822
18552W        W90977  24.207  16.670  10.593
18553W        W90978   3.413   6.284  12.948
18554W        W90979  31.484  14.282   0.284
18555W        W90980  25.039  41.453  13.868
18556W        W90981  22.126  14.221   2.855
18557W        W90982   3.279  24.717  10.507
18558W        W90983  38.030  11.841   0.393
18559W        W90984  33.989   8.825  10.591
18560W        W90985   4.763  22.130   3.269
18561W        W90986  13.243   3.414   3.326
18562W        W90987   9.327  34.014  11.593
18563W        W90988  43.921   7.314  14.768
18564W        W90989   2.787  12.645  11.500
18565W        W90990   5.692   1.320  13.911
18566W        W90991  35.014  43.387   4.830
18567W        W90992  10.313  40.019  14.373
18568W        W90993  32.950   1.460   1.410
18569W        W90994   7.874  15.278   4.682
18570W        W90995   6.396  28.018  13.457
18571W        W90996  10.770  18.055   0.291
18572W        W90997  28.988  37.490   4.799
18573W        W90998  23.084  42.867  13.533
18574W        W90999  18.715  24.141   3.804
18575W        W91000  32.528  35.106   1.374
18576W        W91001  31.505   2.461  11.097
18577W        W91002  18.705  22.608  10.091
18578W        W91003   9.248  11.245   2.270
18579W        W91004   8.394  13.845  12.884
18580W        W91005  20.583  31.942  12.084
18581W        W91006  33.435  29.643   0.919
18582W        W91007   2.353   9.356   1.429
18583W        W91008  35.484  16.125  14.447
18584W        W91009  42.914  43.364   1.422
18585W        W91010   8.658   4.335   4.814
18586W        W91011  38.366  14.129   1.302
18587W        W91012  30.930   4.933  10.527
18588W        W91013  27.503  12.147   3.312
18589W        W91014   4.341  37.437   1.436
18590W        W91015   2.401  22.629   2.211
18591W        W91016  37.341  33.410   2.401
18592W        W91017  23.067  21.190  11.471
18593W        W91018   8.321   9.813   2.202
18594W        W91019   3.290  28.065  14.813
18595W        W91020   8.792  41.840   0.797
18596W        W91021  29.531  41.498   2.840
18597W        W91022  40.959  19.584   0.842
18598W        W91023  33.520   4.864  10.156
18599W        W91024  41.951   1.832   3.207
18600W        W91025  29.970  38.854   4.641
18601W        W91026  15.807  22.175  13.515
18602W        W91027  43.395  15.116  12.390
18603W        W91028  36.982  35.895   3.160
18604W        W91029   3.278   3.392   4.833
18605W        W91030  40.022  40.031   3.771
18606W        W91031  14.334  15.241   0.947
18607W        W91032  12.704  44.869  14.276
18608W        W91033   4.735   4.315   4.814
18609W        W91034  39.549  22.546  14.948
18610W        W91035  44.340  37.940  13.922
18611W        W91036  15.099  34.596  13.040
18612W        W91037  26.149  40.923  12.061
18613W        W91038  27.170  44.807  10.913
18614W        W91039  41.979  40.005  10.138
18615W        W91040  13.653  18.161   2.407
18616W        W91041   0.952   3.890   0.942
18617W        W91042  25.211  43.011  13.948
18618W        W91043  10.183   1.376   3.861
18619W        W91044  23.611   1.777  11.946
18620W        W91045  33.410  31.899   1.429
18621W        W91046   1.416   7.221  12.503
18622W        W91047  31.904  37.006  14.790
18623W        W91048  12.121  38.928  13.938
18624W        W91049  42.412  29.621   4.307
18625W        W91050   8.769   8.258  10.066
18626W        W91051  15.155  34.582  12.078
18627W        W91052  41.007  26.994   0.880
18628W        W91053  31.101   0.315  14.924
18629W        W91054   9.810  34.525   3.305
18630W        W91055  10.696  37.025  11.596
18631W        W91056   8.167  31.563   4.169
18632W        W91057  21.678  32.994  12.392
18633W        W91058  36.481  10.226   2.238
18634W        W91059  21.073  33.414   0.297
18635W        W91060   4.239  40.389   1.793
18636W        W91061   7.676   1.357  13.531
18637W        W91062  23.603  37.547  14.027
18638W        W91063   6.729  29.638  13.377
18639W        W91064  37.029  17.091   2.324
18640W        W91065  41.348   6.899   4.628
18641W        W91066   6.706  41.025  13.361
18642W        W91067  30.434  24.042  12.442
18643W        W91068  25.082  21.065   3.268
18644W        W91069  13.663   2.371   2.345
18645W        W91070   2.935  13.133   1.841
18646W        W91071  17.669   7.184   0.289
18647W        W91072  16.180   6.731  12.378
18648W        W91073  23.678  12.850   0.943
18649W        W91074  38.457  25.697  11.542
18650W        W91075   6.260  10.205   3.355
18651W        W91076  41.859  28.450   1.761
18652W        W91077  11.750   7.867  10.588
18653W        W91078  40.537   8.768  11.410
18654W        W91079  19.697  43.988   0.286
18655W        W91080   3.255  13.637  14.365
18656W        W91081  11.791  21.753  13.397
18657W        W91082  32.902  24.010  13.332
18658W        W91083  43.362   1.890  12.849
18659W        W91084  14.179   5.756  13.929
18660W        W91085   5.875  39.382   4.837
18661W        W91086  38.075  11.147   4.303
18662W        W91087   9.392  17.716   1.301
18663W        W91088  43.906  28.058   2.240
18664W        W91089  29.100  19.660   1.215
18665W        W91090  11.172  12.832   3.239
18666W        W91091  23.037   8.310  13.954
18667W        W91092   7.288  15.139   4.239
18668W        W91093  34.515  22.146   4.174
18669W        W91094  33.012  12.269   3.792
18670W        W91095  23.583  14.339   3.202
18671W        W91096  21.238  37.979   2.200
18672W        W91097  27.180  35.882   1.350
18673W        W91098  23.659  34.924  10.444
18674W        W91099  25.593  20.244  11.925
18675W        W91100  10.653  13.625  12.975
18676W        W91101   3.332  38.853   4.166
18677W        W91102  23.581  29.545  11.015
18678W        W91103   1.464  25.996   2.895
18679W        W91104  12.659  30.139  11.598
18680W        W91105  39.014   1.789  13.370
18681W        W91106  18.137   5.402   0.941
18682W        W91107   7.910  40.364   2.356
18683W        W91108  33.581  21.251  11.074
18684W        W91109  36.047  35.436   1.859
18685W        W91110  32.608  39.958   4.782
18686W        W91111  33.072  40.959   0.826
18687W        W91112  17.195  44.407  13.398
18688W        W91113  20.158  23.232   4.292
18689W        W91114  33.044  30.481   2.819
18690W        W91115  33.877   7.793  13.867
18691W        W91116  10.219   7.310  11.416
18692W        W91117  31.150   0.876   1.921
18693W        W91118   7.334  35.390   4.303
18694W        W91119   3.259  19.656  13.544
18695W        W91120  26.987  33.579  12.505
18696W        W91121  30.125  10.196   0.429
18697W        W91122  11.218  34.941  13.307
18698W        W91123  20.058  22.678   2.334
18699W        W91124   7.323   2.292  10.501
18700W        W91125  35.901  34.948  11.911
18701W        W91126  24.134  13.707   3.724
18702W        W91127  30.503   4.416   4.301
18703W        W91128  16.665  23.079   3.870
18704W        W91129  12.149  20.118   0.836
18705W        W91130  38.022  43.825   5.181
18706W        W91131  18.771   7.788  14.402
18707W        W91132  14.189  31.088  11.497
18708W        W91133  29.545  16.077   3.229
18709W        W91134   5.438  26.643   3.798
18710W        W91135  35.487  31.989  11.012
18711W        W91136   8.687  23.067  14.778
18712W        W91137   6.334  34.504  12.418
18713W        W91138  36.965  10.275  14.513
18714W        W91139   1.357  16.731   1.339
18715W        W91140  28.020   9.230   1.719
18716W        W91141   0.768  16.603  12.052
18717W        W91142  28.178  33.986   5.098
18718W        W91143  10.743   2.960   3.201
18719W        W91144  22.720   4.334   1.432
18720W        W91145  38.547  21.602   1.219
18721W        W91146   7.738   1.800   1.385
18722W        W91147  43.848  20.615  12.090
18723W        W91148  25.702  35.507   0.433
18724W        W91149  38.969   1.972   2.785
18725W        W91150  15.741  29.133  12.026
18726W        W91151   4.269  38.456   0.395
18727W        W91152  22.152  31.902   4.163
18728W        W91153   1.869  36.392   1.696
18729W        W91154  14.688  26.552   3.769
18730W        W91155  40.884  15.090  12.416
18731W        W91156  26.139  27.106   3.781
18732W        W91157  16.625   0.456  11.999
18733W        W91158  34.438  37.432   1.379
18734W        W91159  10.763   9.834   2.669
18735W        W91160   0.442   7.338   1.349
18736W        W91161  44.351  20.696   4.245
18737W        W91162  35.853   0.441  13.379
18738W        W91163  11.288  11.860   4.821
18739W        W91164  25.563  42.399   3.824
18740W        W91165  14.818   5.330   4.666
18741W        W91166   6.831  18.115  10.610
18742W        W91167  39.051  29.165   2.835
18743W        W91168  39.932  16.189   4.205
18744W        W91169   9.209   6.246   1.917
18745W        W91170  33.058   1.391   0.863
18746W        W91171  35.935  12.714   1.386
18747W        W91172  16.187  21.660  11.024
18748W        W91173  21.210  20.614   1.931
18749W        W91174  33.518  10.354   3.722
18750W        W91175   8.274  31.126   2.364
18751W        W91176  11.282  34.924  10.602
18752W        W91177  24.652  18.780  13.027
18753W        W91178  30.613  35.095   0.282
18754W        W91179  10.737  19.284  14.838
18755W        W91180  33.552  38.023   3.341
18756W        W91181   4.770  29.565  10.531
18757W        W91182  35.423  14.796  12.531
18758W        W91183  12.849  10.342   3.289
18759W        W91184   8.195  31.999  11.887
18760W        W91185  18.226  36.490  14.390
18761W        W91186  38.367  27.493   3.817
18762W        W91187   3.443  36.849  11.989
18763W        W91188  10.262  17.569  12.865
18764W        W91189  15.772  17.217  13.909
18765W        W91190  36.379  44.939  14.769
18766W        W91191  26.538   9.169   4.744
18767W        W91192  29.012  34.898  13.866
18768W        W91193  29.925  28.179   2.297
18769W        W91194  22.657   1.279   3.693
18770W        W91195  32.894   4.213   2.759
18771W        W91196  23.669   5.205   1.735
18772W        W91197  30.441  12.311   1.925
18773W        W91198  22.738  22.198  12.092
18774W        W91199   2.437  44.342   0.866
18775W        W91200   0.809  25.541   3.351
18776W        W91201  36.503   5.753   3.693
18777W        W91202   2.411  19.250   3.666
18778W        W91203  13.312  38.478   3.327
18779W        W91204   5.794  22.997   0.730
18780W        W91205  34.374   2.797  14.410
18781W        W91206  37.339   0.869  13.934
18782W        W91207  21.686  43.494   1.820
18783W        W91208  23.151  35.537  11.034
18784W        W91209  13.803  26.490   3.276
18785W        W91210   1.290  40.487   1.439
18786W        W91211  37.971   8.195  14.348
18787W        W91212  11.212   0.949   1.869
18788W        W91213   2.892  10.354   4.803
18789W        W91214  21.177  38.450  11.387
18790W        W91215  33.909  21.665  11.937
18791W        W91216   8.180  28.064   4.164
18792W        W91217   4.939   8.260  10.556
18793W        W91218  34.034  43.416  13.481
18794W        W91219  13.209  34.608   2.695
18795W        W91220   2.956  20.759   0.361
18796W        W91221  29.545  24.725  14.947
18797W        W91222   5.290  20.605  12.539
18798W        W91223   4.878  21.646  13.932
18799W        W91224  25.052  23.036   2.198
18800W        W91225   9.299  31.508   0.950
18801W        W91226  24.492  24.717  14.846
18802W        W91227  36.996  43.914  12.398
18803W        W91228  16.137  40.325  13.447
18804W        W91229   8.366  12.803   1.425
18805W        W91230   9.341  18.097  14.835
18806W        W91231  22.554   6.692   0.957
18807W        W91232  11.271  13.224   4.698
18808W        W91233  24.587   0.386  14.014
18809W        W91234  16.643  40.347   2.771
18810W        W91235  22.180  12.803  11.071
18811W        W91236  25.062  23.092  14.437
18812W        W91237  29.130  25.617  13.902
18813W        W91238  28.939  27.594   4.296
18814W        W91239  16.193   8.181   1.284
18815W        W91240  12.150  20.187   3.693
18816W        W91241  29.022   9.301   1.726
18817W        W91242  29.662   5.755  10.418
18818W        W91243  12.638  17.275   3.330
18819W        W91244  14.210  14.234  10.525
18820W        W91245  18.285  10.281   2.306
18821W        W91246  40.350   9.235   3.169
18822W        W91247  32.543  44.970   2.306
18823W        W91248  14.094  25.685  12.376
18824W        W91249   2.437  43.795  14.896
18825W        W91250  38.840  36.058   1.324
18826W        W91251  20.537   4.295  10.603
18827W        W91252  22.510  28.572  10.631
18828W        W91253  41.443  22.730  14.427
18829W        W91254  24.218   2.771   1.371
18830W        W91255   7.907  40.439  11.948
18831W        W91256  34.928  43.924   3.358
18832W        W91257  41.490   7.711  10.611
18833W        W91258  28.989  27.596  11.410
18834W        W91259  21.190  20.201   3.191
18835W        W91260   6.345  25.043   4.713
18836W        W91261  35.913  32.001  10.519
18837W        W91262  26.176  34.472  12.439
18838W        W91263  26.106  27.059  14.305
18839W        W91264  36.403   8.745  11.952
18840W        W91265  30.471  34.523   1.788
18841W        W91266  17.802  26.615  12.435
18842W        W91267  18.785   9.247   3.252
18843W        W91268   7.869  42.797  10.456
18844W        W91269  35.388   7.670  13.958
18845W        W91270  34.501  31.418  14.862
18846W        W91271  41.881  29.637  12.088
18847W        W91272  27.007  23.599  13.533
18848W        W91273  11.853   6.343  14.350
18849W        W91274  42.974   1.387   2.890
18850W        W91275  25.600  31.561  14.418
18851W        W91276  18.090  10.365  11.390
18852W        W91277   0.933  33.117  11.929
18853W        W91278  27.653  18.743  11.967
18854W        W91279  28.938  17.070   1.267
18855W        W91280  10.271  43.447  10.451
18856W        W91281  36.926   6.335   3.662
18857W        W91282  20.050  17.233  14.360
18858W        W91283  38.898  36.475  13.997
18859W        W91284  43.957  27.987  14.989
18860W        W91285  29.096  32.088  12.885
18861W        W91286  21.056  36.587  12.551
18862W        W91287   0.839  40.885   2.230
18863W        W91288  26.512  20.591   1.313
18864W        W91289  28.178   1.308   3.820
18865W        W91290  18.729  23.085  12.458
18866W        W91291  41.435  28.443   1.292
18867W        W91292  21.022   2.335  12.037
18868W        W91293   7.276  29.104   3.206
18869W        W91294  32.904  13.149   0.466
18870W        W91295  39.940  19.731   0.474
18871W        W91296  17.074   4.434   1.872
18872W        W91297  26.126   6.295   3.747
18873W        W91298  39.364  21.146   1.242
18874W        W91299  36.991  15.633  13.877
18875W        W91300  30.088  11.319   3.253
18876W        W91301  24.229   2.808  11.004
18877W        W91302  38.545  25.065   4.187
18878W        W91303  23.632  35.936   1.709
18879W        W91304  31.527  33.935  12.496
18880W        W91305  24.099  42.414   1.450
18881W        W91306  20.748   2.904   2.881
18882W        W91307  43.816   5.200  13.455
18883W        W91308  11.674   8.760   1.735
18884W        W91309   6.294  21.157  14.793
18885W        W91310   8.827   6.326   2.318
18886W        W91311  35.576  28.662  12.091
18887W        W91312  12.848  17.256  14.324
18888W        W91313  37.446   7.298   2.386
18889W        W91314  36.881  17.785  12.546
18890W        W91315  22.601  13.618  12.569
18891W        W91316  42.314   2.820   4.663
18892W        W91317  39.817  42.451   1.378
18893W        W91318  18.724  27.067   4.717
18894W        W91319  24.070  31.594  12.472
18895W        W91320  11.805   4.278  11.430
18896W        W91321  35.036  35.586  14.503
18897W        W91322   7.332   0.952   1.771
18898W        W91323  32.415   7.680  10.644
18899W        W91324  34.568   1.882   0.411
18900W        W91325  33.539  21.683   4.188
18901W        W91326  34.936  11.660   1.448
18902W        W91327   4.212  13.228  11.440
18903W        W91328  44.939   7.849  14.487
18904W        W91329  36.540  39.871  10.603
18905W        W91330  31.612  34.404  11.897
18906W        W91331  26.600  20.035  14.771
18907W        W91332  24.181  18.607  12.440
18908W        W91333  33.529  33.595  13.980
18909W        W91334  20.078   1.461  12.878
18910W        W91335  12.203  27.106   4.792
18911W        W91336  32.001  15.602  10.536
18912W        W91337  40.833  30.540  14.922
18913W        W91338  28.648   5.736  11.571
18914W        W91339  34.444  14.308   2.207
18915W        W91340  13.819  11.218   3.272
18916W        W91341  43.425   5.215  11.926
18917W        W91342  44.896   4.417  14.958
18918W        W91343  39.539  33.429  10.065
18919W        W91344   6.264  36.986   2.677
18920W        W91345  13.747  37.476   3.221
18921W        W91346  44.774  19.732  13.316
18922W        W91347  12.195  17.204   2.884
18923W        W91348  12.672  33.620  11.560
18924W        W91349  24.617  17.751   1.862
18925W        W91350  18.680  36.535   4.626
18926W        W91351  15.804  11.285   4.662
18927W        W91352   4.734  40.306  11.523
18928W        W91353  41.901  12.621  12.444
18929W        W91354  32.917  16.798  14.367
18930W        W91355  19.736  41.341   3.863
18931W        W91356  21.655   0.878  14.467
18932W        W91357  31.596   8.390  11.971
18933W        W91358  15.606  19.676   4.173
18934W        W91359  35.872  35.051  11.400
18935W        W91360   2.724   4.933  11.002
18936W        W91361  12.755   0.261   3.730
18937W        W91362  12.699  22.171  14.979
18938W        W91363  11.266   6.280   3.782
18939W        W91364  13.776  26.143  11.892
18940W        W91365  29.427  41.929   2.410
18941W        W91366  24.136   7.825  12.902
18942W        W91367   8.352  26.692   2.708
18943W        W91368  22.134  34.455  11.009
18944W        W91369  13.170  34.578   0.246
18945W        W91370  17.789   1.885   2.785
18946W        W91371  19.193  15.287  13.504
18947W        W91372   8.169  26.960  11.569
18948W        W91373  42.008  28.652   4.138
18949W        W91374  29.082  30.039  11.121
18950W        W91375  29.646  12.240   4.608
18951W        W91376  32.042  26.678   1.381
18952W        W91377  42.817   3.405  13.798
18953W        W91378  22.174  12.779   2.254
18954W        W91379  22.234  43.444  12.829
18955W        W91380  22.047  13.262  13.965
18956W        W91381   5.784   5.232  10.914
18957W        W91382  21.520  17.638   0.423
18958W        W91383  44.951   9.150  12.851
18959W        W91384  13.191  31.147  14.882
18960W        W91385   8.799   1.814   3.653
18961W        W91386   9.864  25.102  14.876
18962W        W91387   4.920  24.012  12.881
18963W        W91388  15.682   2.440  12.565
18964W        W91389  41.922  21.519   2.189
18965W        W91390  14.659  21.065  14.959
18966W        W91391  10.745  25.632   3.655
18967W        W91392  17.205  43.410   4.125
18968W        W91393  18.723  22.217  13.442
18969W        W91394   6.216  20.721   4.603
18970W        W91395  41.431   7.861  11.011
18971W        W91396  10.690  23.617   2.301
18972W        W91397  23.687   8.229  11.487
18973W        W91398  16.743   1.330  13.344
18974W        W91399   4.222   3.378   3.829
18975W        W91400  37.062   7.817  11.891
18976W        W91401   9.149  39.401  12.874
18977W        W91402   7.414   3.733   3.679
18978W        W91403   9.771  44.833   2.285
18979W        W91404  44.991  18.696  13.361
18980W        W91405  22.672  17.670   3.781
18981W        W91406  27.952  27.035  14.762
18982W        W91407  39.043   2.855  11.022
18983W        W91408  17.100  43.888   0.479
18984W        W91409  17.576  30.557  11.603
18985W        W91410  36.975  20.627   4.184
18986W        W91411  10.853   7.200   5.206
18987W        W91412  13.829  22.508   4.229
18988W        W91413   1.955  37.541   5.135
18989W        W91414  21.607  37.488   0.861
18990W        W91415  30.578  30.523   0.796
18991W        W91416  35.007  37.046   2.407
18992W        W91417  40.917  30.026   4.613
18993W        W91418  21.140   8.892  12.035
18994W        W91419   5.432   9.339  12.511
18995W        W91420   9.283  32.906  12.568
18996W        W91421  41.787  38.474  11.963
18997W        W91422  13.681  31.593   4.167
18998W        W91423  12.693  18.608  12.056
18999W        W91424  21.708  30.656  11.950
19000W        W91425   2.820  17.559   2.685
19001W        W91426  30.609  17.562  13.515
19002W        W91427  26.527  39.447  10.538
19003W        W91428   0.793  14.191   1.251
19004W        W91429  13.610  24.574   0.249
19005W        W91430  18.648  42.920  12.898
19006W        W91431  33.577   2.951   2.736
19007W        W91432  32.967   4.856   3.252
19008W        W91433  22.188  35.586   2.827
19009W        W91434  18.778  37.925  12.370
19010W        W91435  15.243  30.106   0.407
19011W        W91436  21.728  11.316  14.322
19012W        W91437  33.910  15.124   3.692
19013W        W91438  13.309  15.305   3.717
19014W        W91439  22.745   2.873   3.632
19015W        W91440  31.407  26.499   3.149
19016W        W91441  14.204  38.358   1.359
19017W        W91442  14.176  20.566   0.817
19018W        W91443  17.183  11.165  11.398
19019W        W91444  24.578  28.590   3.238
19020W        W91445  40.364  35.412   4.798
19021W        W91446  44.007  26.110  11.427
19022W        W91447  18.668   8.290   0.744
19023W        W91448   6.311  13.767   1.801
19024W        W91449  43.477  44.371  10.974
19025W        W91450   1.807  19.224  11.009
19026W        W91451  15.597  16.097  11.117
19027W        W91452  40.903  21.225  12.514
19028W        W91453  22.178   3.787  11.026
19029W        W91454  40.948  30.425  10.584
19030W        W91455  33.015  40.912   4.189
19031W        W91456  10.756  11.821   3.862
19032W        W91457  19.094   6.386   1.886
19033W        W91458  15.715  26.054   1.834
19034W        W91459  12.746  11.132  12.387
19035W        W91460  17.742  39.006  10.555
19036W        W91461   7.224   2.795  11.601
19037W        W91462  23.991   1.808  12.861
19038W        W91463   7.845   2.821  14.467
19039W        W91464  41.873  23.001   3.190
19040W        W91465  27.998  42.470  10.945
19041W        W91466  25.214  25.603   4.654
19042W        W91467  26.554   8.876   3.255
19043W        W91468  28.490  35.597  11.580
19044W        W91469  16.202  18.231   0.328
19045W        W91470   7.794  11.662  13.836
19046W        W91471  29.439  30.646   3.307
19047W        W91472  28.469  32.472  14.412
19048W        W91473  43.485  43.868   4.738
19049W        W91474   7.387   9.381   1.268
19050W        W91475  15.692  29.934   2.417
19051W        W91476   9.394   7.185  13.424
19052W        W91477  35.913   0.414   1.839
19053W        W91478  16.749  30.163   0.302
19054W        W91479   5.902  22.698  10.495
19055W        W91480  12.270   1.808   3.351
19056W        W91481  17.585   0.948   2.211
19057W        W91482  19.144  27.561   3.190
19058W        W91483  24.094  26.464   2.698
19059W        W91484  13.694  32.443   2.367
19060W        W91485  26.088  13.341   0.300
19061W        W91486  32.584  21.743   1.757
19062W        W91487  26.503   9.885   0.920
19063W        W91488   5.867  43.865  10.595
19064W        W91489  12.831  14.338   3.165
19065W        W91490  43.504  39.847   3.288
19066W        W91491   5.853   5.308  12.865
19067W        W91492  29.464  26.493   1.336
19068W        W91493  39.554  21.520   4.692
19069W        W91494   0.428  41.521  12.445
19070W        W91495  37.013  17.134   0.933
19071W        W91496  42.378   9.214   1.927
19072W        W91497  44.924  34.037  14.455
19073W        W91498  22.091  31.953  13.996
19074W        W91499  44.851  10.733   1.371
19075W        W91500  44.869   8.808   4.769
19076W        W91501  30.060  29.658   2.754
19077W        W91502  24.203  33.405  11.928
19078W        W91503  43.782  14.335  14.297
19079W        W91504  32.003  30.473  10.059
19080W        W91505   3.260  43.495  14.416
19081W        W91506  10.314   0.886   0.801
19082W        W91507   1.335  30.976  12.566
19083W        W91508   4.746  39.869   2.667
19084W        W91509  25.674  24.001  13.858
19085W        W91510  18.621  26.497   3.827
19086W        W91511  20.255  39.380  12.922
19087W        W91512   9.743  26.039  13.472
19088W        W91513  26.040  38.503   0.912
19089W        W91514  34.369   8.873  12.074
19090W        W91515  11.305  44.396  14.434
19091W        W91516  28.062   2.295  11.075
19092W        W91517   5.399  28.562   3.348
19093W        W91518  21.247   7.372  10.086
19094W        W91519  15.614  41.471  14.318
19095W        W91520  44.962  40.351   1.415
19096W        W91521   8.862   2.416  10.896
19097W        W91522  28.598  29.514   1.763
19098W        W91523   1.305  20.106   1.878
19099W        W91524   5.237  32.496   3.818
19100W        W91525  44.290  28.134  12.389
19101W        W91526  13.115  15.084   0.373
19102W        W91527  12.656  43.802  12.400
19103W        W91528  34.934  26.201   3.643
19104W        W91529   0.335  17.275   0.753
19105W        W91530  16.199   1.262   2.419
19106W        W91531   4.853  32.485  14.894
19107W        W91532   2.823   5.262  14.910
19108W        W91533  41.469  10.193   1.214
19109W        W91534   5.325  36.995   4.189
19110W        W91535  34.596  36.480  12.987
19111W        W91536   6.288  20.181  12.873
19112W        W91537  27.047  44.333   1.733
19113W        W91538  16.126  42.874   0.920
19114W        W91539  19.578  37.882   2.694
19115W        W91540   5.873  16.176   0.338
19116W        W91541  38.419  30.544  11.091
19117W        W91542  12.640  36.058  12.921
19118W        W91543   0.401   7.756  13.453
19119W        W91544   4.784   0.444   0.290
19120W        W91545   9.274  38.002   0.899
19121W        W91546   7.711  14.286   1.728
19122W        W91547  15.605  36.073   2.278
19123W        W91548   0.930  37.849   0.425
19124W        W91549  20.215   4.357  14.846
19125W        W91550  15.737  16.295  12.369
19126W        W91551  32.892   3.768  11.562
19127W        W91552  20.656  35.558  13.360
19128W        W91553   5.805  13.164  14.346
19129W        W91554   7.284  31.095  12.882
19130W        W91555  35.491  25.632   0.330
19131W        W91556   4.283  19.667  13.901
19132W        W91557  35.876  29.945   4.633
19133W        W91558  14.261  25.486   0.832
19134W        W91559   3.952   1.809   4.218
19135W        W91560  22.197  41.465   3.237
19136W        W91561  13.784   9.333   2.678
19137W        W91562  42.931   0.339   2.709
19138W        W91563  34.540  42.906  10.582
19139W        W91564   0.883  28.655  13.931
19140W        W91565  20.574  32.445   1.319
19141W        W91566  13.725  18.581  13.807
19142W        W91567  40.006  43.510   9.976
19143W        W91568  21.577  21.533  13.841
19144W        W91569   5.705  13.169  12.447
19145W        W91570  17.170  38.895  14.380
19146W        W91571   5.237  33.625   1.697
19147W        W91572   4.806  17.260  11.440
19148W        W91573  23.046  23.026  14.909
19149W        W91574  29.943   1.380   3.669
19150W        W91575  19.554   3.427   0.478
19151W        W91576  32.596  32.633  11.873
19152W        W91577  15.237   2.286  13.915
19153W        W91578  14.251  34.546   1.269
19154W        W91579  17.661  30.615  10.459
19155W        W91580  36.575  26.666  14.902
19156W        W91581  22.218  23.170  11.861
19157W        W91582  30.498  18.545   4.720
19158W        W91583  38.566  16.179   0.901
19159W        W91584  20.542  12.618   0.825
19160W        W91585   1.800  13.801  11.035
19161W        W91586  16.157  32.594  10.552
19162W        W91587  40.803  17.287  11.404
19163W        W91588  18.115   5.799  14.442
19164W        W91589  19.282  31.595  13.961
19165W        W91590  19.121  41.913   0.866
19166W        W91591  16.074   8.225  11.118
19167W        W91592  37.978  44.323   1.733
19168W        W91593  20.173  34.120   2.685
19169W        W91594   1.365  10.878  11.594
19170W        W91595   1.745   4.294  13.985
19171W        W91596  21.088   1.786  13.327
19172W        W91597   2.884  36.033   3.151
19173W        W91598  15.654  44.369  14.758
19174W        W91599   8.756  43.881   4.141
19175W        W91600  14.716  15.582   0.263
19176W        W91601   5.269  13.246   3.325
19177W        W91602  44.958  22.563  10.409
19178W        W91603  26.480  33.089  10.414
19179W        W91604  16.150  41.427   0.366
19180W        W91605  41.871  21.621  11.025
19181W        W91606  35.527   8.890  11.954
19182W        W91607  44.766   5.794  12.397
19183W        W91608  35.580  35.017  10.510
19184W        W91609   3.434  27.032  11.467
19185W        W91610  37.924  26.588   4.344
19186W        W91611  23.174  14.596  11.569
19187W        W91612  18.732  19.728  12.390
19188W        W91613  36.445  40.338  14.414
19189W        W91614   1.859   6.391   1.805
19190W        W91615  16.204  23.731   0.352
19191W        W91616  24.012  22.611   9.979
19192W        W91617  38.568  18.082   4.285
19193W        W91618  11.335  13.197  11.022
19194W        W91619   5.323  31.119   2.881
19195W        W91620  10.354  29.958   2.842
19196W        W91621  30.636  11.207   4.353
19197W        W91622  32.009   2.740  14.434
19198W        W91623  36.440  43.421  14.441
19199W        W91624  26.129  27.680  10.484
19200W        W91625  14.243  29.175  10.531
19201W        W91626   1.885  17.685   0.275
19202W        W91627   9.255  27.124   2.403
19203W        W91628  10.816  27.637  11.937
19204W        W91629   4.381  26.159  12.930
19205W        W91630   2.262   7.282  14.333
19206W        W91631  20.648   4.705   2.248
19207W        W91632  13.321  15.598   0.325
19208W        W91633   0.772  19.134  12.422
19209W        W91634  39.473  39.980   2.324
19210W        W91635  35.907  34.540   2.273
19211W        W91636  18.696  43.810  11.857
19212W        W91637  16.312   4.803   0.893
19213W        W91638  29.014  40.340   3.722
19214W        W91639   6.898  41.939   1.758
19215W        W91640   9.794   7.902  12.899
19216W        W91641  11.279   2.910  13.347
19217W        W91642  39.039  31.978  11.890
19218W        W91643  16.269  20.608   1.344
19219W        W91644   3.836  42.856  13.432
19220W        W91645   1.448  28.098   0.319
19221W        W91646  18.250  14.603   2.282
19222W        W91647  39.918   0.429   4.790
19223W        W91648  41.880  36.866   0.367
19224W        W91649   4.325  10.160  12.495
19225W        W91650  10.162  41.379   0.945
19226W        W91651  24.485  39.052   4.831
19227W        W91652  24.610   7.254   0.788
19228W        W91653  12.193   1.766  10.544
19229W        W91654  37.534   3.450   3.181
19230W        W91655   8.246  44.349   4.290
19231W        W91656  28.942  19.538  10.578
19232W        W91657  35.891  37.556   2.669
19233W        W91658  13.200   8.857   4.772
19234W        W91659  31.958  28.490   4.204
19235W        W91660  14.282   4.898   0.351
19236W        W91661  18.247  44.388   2.387
19237W        W91662   7.741  24.643   3.215
19238W        W91663  16.292   1.815  13.487
19239W        W91664  40.339  41.522  14.356
19240W        W91665  17.074  36.043   0.330
19241W        W91666  12.811   3.374  10.911
19242W        W91667  44.341  11.245  10.025
19243W        W91668  39.499   7.767  10.991
19244W        W91669  33.475  14.671   1.794
19245W        W91670  30.002  34.973   0.378
19246W        W91671  23.179  29.628   1.906
19247W        W91672  27.691  11.157  14.869
19248W        W91673  24.602  23.081   2.785
19249W        W91674  13.735  18.162  13.353
19250W        W91675  30.920   9.715   0.826
19251W        W91676  31.409  44.971   1.861
19252W        W91677   4.891  38.985   0.427
19253W        W91678  36.569  30.152  14.834
19254W        W91679  43.879  10.220  10.577
19255W        W91680   0.429   3.263   5.176
19256W        W91681   4.779  19.764   0.422
19257W        W91682  27.669   2.946   3.811
19258W        W91683  36.453  34.941  14.966
19259W        W91684  25.604  29.066  12.416
19260W        W91685  26.680  33.547  10.119
19261W        W91686  20.650  29.494   4.688
19262W        W91687  19.122  15.278   0.335
19263W        W91688  11.260  26.111   4.727
19264W        W91689   5.198  31.592  11.900
19265W        W91690  12.821  25.683   0.955
19266W        W91691  13.741   9.852  10.603
19267W        W91692  37.075  31.548  13.916
19268W        W91693  33.384  25.699   1.740
19269W        W91694   2.324   9.392  12.390
19270W        W91695  43.436  13.809  12.412
19271W        W91696  34.017  26.193   2.325
19272W        W91697   1.938  23.518   2.879
19273W        W91698  33.451  43.466  10.063
19274W        W91699  37.078  30.571   3.262
19275W        W91700  35.521  40.410  14.344
19276W        W91701  44.432  41.369  10.919
19277W        W91702   4.786  25.660   0.823
19278W        W91703  13.207   3.330  14.281
19279W        W91704  26.984  34.590  10.416
19280W        W91705   6.815   8.352  15.000
19281W        W91706  44.974   9.326   2.668
19282W        W91707  27.549  38.343  12.989
19283W        W91708  26.183  32.943   1.727
19284W        W91709  30.118  27.612   4.682
19285W        W91710  25.177  40.373  11.578
19286W        W91711  11.312  41.340   1.438
19287W        W91712   9.650  32.064   2.896
19288W        W91713  28.538  29.039  12.883
19289W        W91714  22.195   8.169  11.531
19290W        W91715  12.634  16.276  12.090
19291W        W91716  29.623  26.102  11.972
19292W        W91717  35.031   2.338   2.800
19293W        W91718  35.942  15.152   2.695
19294W        W91719  30.638  15.185  13.398
19295W        W91720  13.109   6.402  12.922
19296W        W91721  13.228  25.702   2.308
19297W        W91722  25.652  41.329   3.277
19298W        W91723  25.570   8.365   1.789
19299W        W91724  39.039  27.947   9.976
19300W        W91725   0.987   3.351  10.541
19301W        W91726  17.089  42.013  14.934
19302W        W91727   1.854  28.607   3.331
19303W        W91728   3.294   3.286  14.806
19304W        W91729   4.880  38.949  14.832
19305W        W91730  42.019  29.495   3.849
19306W        W91731  34.528   8.792  11.474
19307W        W91732   0.253  19.687   0.795
19308W        W91733  37.986  34.034  11.531
19309W        W91734   4.771  11.147  13.972
19310W        W91735  16.279  19.762   3.712
19311W        W91736   0.355  36.555  11.093
19312W        W91737  23.079  43.772   0.306
19313W        W91738  18.073   6.698   3.242
19314W        W91739   1.352  21.078  13.954
19315W        W91740  11.302  22.059  14.864
19316W        W91741  22.222  40.345   0.350
19317W        W91742  20.666   7.858  11.519
19318W        W91743  22.085   1.374  14.914
19319W        W91744   4.798   2.844  12.465
19320W        W91745  11.294  10.862   2.340
19321W        W91746  37.046  40.006  10.606
19322W        W91747  12.623   8.159  11.538
19323W        W91748   3.243  14.758   2.389
19324W        W91749  27.564  20.215  11.416
19325W        W91750   4.371  32.505   2.868
19326W        W91751  14.791   2.916  14.406
19327W        W91752  14.774  19.736  13.483
19328W        W91753   4.802  23.686   2.254
19329W        W91754  32.403  15.722   0.465
19330W        W91755   7.709  35.964   0.248
19331W        W91756   5.717  34.087   3.275
19332W        W91757  11.639  22.649  13.381
19333W        W91758  15.735  42.961   5.291
19334W        W91759   5.310  26.629  11.410
19335W        W91760  43.011  11.327  10.417
19336W        W91761  33.425  17.690   0.752
19337W        W91762  24.715  33.401  11.445
19338W        W91763  28.473  19.596   3.648
19339W        W91764  11.749  44.275  14.335
19340W        W91765   4.869  10.713   3.791
19341W        W91766  10.290   4.300   0.735
19342W        W91767  41.499  23.532  11.504
19343W        W91768   6.828  22.125  11.571
19344W        W91769  16.110  34.434   0.373
19345W        W91770  14.598  20.601  13.499
19346W        W91771   9.662   8.827   9.965
19347W        W91772  36.904  26.131   3.386
19348W        W91773  12.802  39.503   0.346
19349W        W91774  27.965  29.061  11.026
19350W        W91775  26.515  13.242   3.785
19351W        W91776  20.228   3.429  14.026
19352W        W91777  22.231  24.577  12.056
19353W        W91778  30.601  33.129  13.015
19354W        W91779  37.002  17.249  11.023
19355W        W91780  16.118  32.065   0.334
19356W        W91781  36.850  12.800  14.491
19357W        W91782  21.145  30.103  13.921
19358W        W91783  44.330   6.769  11.032
19359W        W91784  31.552  29.596   1.296
19360W        W91785  37.536  12.828  14.427
19361W        W91786  11.157  16.074   2.240
19362W        W91787   8.212  13.830  11.384
19363W        W91788   0.837  12.317  12.832
19364W        W91789  17.178  19.729   4.145
19365W        W91790  43.980  26.140   3.836
19366W        W91791  30.922  25.117  13.940
19367W        W91792  41.890  39.843   0.815
19368W        W91793  43.966  37.466  14.354
19369W        W91794   6.820  38.919   1.897
19370W        W91795  42.893  17.636  14.794
19371W        W91796  28.496   4.404   3.328
19372W        W91797  10.159  19.085  12.521
19373W        W91798  17.136   3.283  14.423
19374W        W91799  22.663  44.909   2.296
19375W        W91800  29.557   8.172   2.681
19376W        W91801  11.821  37.569  11.524
19377W        W91802  13.194  27.556  11.926
19378W        W91803   5.204   2.295  14.318
19379W        W91804  22.571  29.932  11.611
19380W        W91805   5.411  12.666  13.796
19381W        W91806   9.342  30.491   3.756
19382W        W91807  33.551  36.408  10.468
19383W        W91808  27.523   8.846  14.491
19384W        W91809  38.003  28.947  13.881
19385W        W91810  25.139  30.939   2.845
19386W        W91811  16.145  10.313   3.246
19387W        W91812  20.236  28.187   4.600
19388W        W91813  42.348  15.158  10.936
19389W        W91814  24.531  24.670   1.284
19390W        W91815  36.878   4.908  12.861
19391W        W91816  22.998   4.444  14.510
19392W        W91817  41.370  42.501  10.439
19393W        W91818   2.335  42.016   0.878
19394W        W91819  36.883  26.497   9.973
19395W        W91820  31.975   0.973   2.746
19396W        W91821  17.704  23.074  14.489
19397W        W91822  36.387   8.402  10.441
19398W        W91823   5.200  13.326  11.040
19399W        W91824  42.357  43.016   1.734
19400W        W91825  43.908  16.726   3.824
19401W        W91826  39.318  10.656   4.608
19402W        W91827  37.409  20.571   2.184
19403W        W91828  34.951  29.466   3.349
19404W        W91829   1.942  29.549  11.102
19405W        W91830  34.885   4.785   1.811
19406W        W91831  38.826  10.870   3.384
19407W        W91832  36.953  37.986  13.358
19408W        W91833  12.747   8.767   2.230
19409W        W91834  14.768  27.501   2.783
19410W        W91835  32.080  11.127   1.908
19411W        W91836   8.698  32.608  11.115
19412W        W91837  20.599  41.356   2.858
19413W        W91838  37.432  24.641  11.058
19414W        W91839  15.170   2.355   1.809
19415W        W91840  32.101  20.087   0.387
19416W        W91841  31.013   5.874   1.883
19417W        W91842   9.267   4.825  11.929
19418W        W91843  34.045   9.327   1.283
19419W        W91844  16.630   9.376  13.921
19420W        W91845  44.287  36.017   4.237
19421W        W91846  11.233   1.278   1.434
19422W        W91847   1.314   5.907   1.846
19423W        W91848  44.795  24.640   0.380
19424W        W91849  40.893  14.790  14.880
19425W        W91850  34.573  38.459  12.845
19426W        W91851   0.343  22.094   3.668
19427W        W91852   6.242  44.432  10.504
19428W        W91853  14.797  18.686  14.768
19429W        W91854   6.855  13.267  10.566
19430W        W91855  31.463  14.694   1.418
19431W        W91856  19.643  25.092   2.772
19432W        W91857   6.698  32.479  14.969
19433W        W91858   0.988  37.851   1.856
19434W        W91859  23.236  26.041   3.184
19435W        W91860  11.867  42.918  10.435
19436W        W91861  40.853   1.379  11.086
19437W        W91862  16.673  35.471   4.737
19438W        W91863  37.504  44.289  11.436
19439W        W91864   2.874  30.989   0.925
19440W        W91865  41.478  42.420   2.413
19441W        W91866   4.398  34.970  10.537
19442W        W91867  31.075   5.307   4.220
19443W        W91868  39.511  15.263  12.407
19444W        W91869  33.899  17.662  11.954
19445W        W91870   4.400   1.795   2.677
19446W        W91871  44.754  37.451   4.270
19447W        W91872  35.479   4.935   0.467
19448W        W91873  18.594  32.622  14.835
19449W        W91874  26.459   7.785   4.280
19450W        W91875  42.285  11.277  12.461
19451W        W91876  29.061  10.153   2.808
19452W        W91877  18.052   0.442   4.720
19453W        W91878  27.039  17.153   1.708
19454W        W91879  10.322  26.665  12.550
19455W        W91880  38.324   6.903   0.384
19456W        W91881  16.285  38.515  13.492
19457W        W91882  31.083  18.566   4.335
19458W        W91883  39.854  37.390  13.548
19459W        W91884  38.913   8.721  13.329
19460W        W91885  35.109  19.625   4.314
19461W        W91886   0.813  19.647   4.659
19462W        W91887  18.125  10.658   0.429
19463W        W91888  12.772  32.498  12.368
19464W        W91889  28.110   1.409  11.526
19465W        W91890  40.025  29.491   1.327
19466W        W91891  41.934  26.644  13.533
19467W        W91892  33.944  20.611  14.500
19468W        W91893  16.660  29.049  12.874
19469W        W91894  31.092  40.954  11.557
19470W        W91895  24.564  31.553  14.840
19471W        W91896  14.152  18.256   2.301
19472W        W91897   0.973  28.940   0.319
19473W        W91898  16.781  36.414  11.106
19474W        W91899  17.232  14.666  12.346
19475W        W91900   5.250  14.655   0.349
19476W        W91901  20.741  31.498   1.306
19477W        W91902  42.382  26.145   0.264
19478W        W91903  32.957  31.945  14.895
19479W        W91904  10.652  28.622   2.319
19480W        W91905  37.342  14.815   2.202
19481W        W91906   0.292  33.959  14.284
19482W        W91907  34.556   3.328   2.730
19483W        W91908   7.216  17.067  12.829
19484W        W91909  41.896   3.346  14.284
19485W        W91910  23.725  28.983   0.831
19486W        W91911  14.123  35.854   3.201
19487W        W91912   7.301  10.793  11.934
19488W        W91913   8.740  13.690   4.736
19489W        W91914  12.772  20.186   0.320
19490W        W91915  15.788  23.168   2.405
19491W        W91916  27.602  18.291   0.480
19492W        W91917  30.546   3.882   0.867
19493W        W91918  33.026  14.287  14.848
19494W        W91919  21.585  15.116   3.162
19495W        W91920  39.041  28.564   3.193
19496W        W91921   6.261  38.468   4.634
19497W        W91922  14.324  40.398  11.905
19498W        W91923  32.955  23.566  11.921
19499W        W91924  14.674  24.107   3.666
19500W        W91925  26.187  23.073   4.728
19501W        W91926  33.617  40.384  13.790
19502W        W91927  44.867  27.459  10.892
19503W        W91928  12.257  22.745   3.183
19504W        W91929  16.198  35.393  11.539
19505W        W91930  31.490  44.841   2.706
19506W        W91931  43.840  14.095   0.737
19507W        W91932   5.196  42.286   4.634
19508W        W91933  20.557   1.754  11.026
19509W        W91934  39.986  15.815  14.886
19510W        W91935  15.642  17.297   3.180
19511W        W91936  38.510  33.626  14.969
19512W        W91937  31.506  37.406  13.377
19513W        W91938  32.976  40.517   3.648
19514W        W91939   1.835  11.799   4.758
19515W        W91940   0.422  24.162  13.915
19516W        W91941  15.323  27.179   2.831
19517W        W91942  10.721  21.642   2.208
19518W        W91943  26.169  11.136  10.926
19519W        W91944  30.012  26.010  12.910
19520W        W91945   8.293  38.076  11.552
19521W        W91946  30.124  17.306   0.344
19522W        W91947  39.428  19.209   1.277
19523W        W91948  34.946   0.799   2.286
19524W        W91949  36.011  38.438   1.903
19525W        W91950   8.722  40.345  10.930
19526W        W91951   2.260  35.360   1.314
19527W        W91952  22.199  33.485   2.281
19528W        W91953  18.185  31.562   4.602
19529W        W91954   9.382  21.034  11.463
19530W        W91955  35.585   4.307   4.349
19531W        W91956  20.258  37.375  11.030
19532W        W91957  23.708  25.477  12.495
19533W        W91958   2.813   2.289   3.382
19534W        W91959  18.558   0.847   1.822
19535W        W91960  25.017  39.859  14.978
19536W        W91961  44.470  20.739  12.498
19537W        W91962  21.619  34.473  13.406
19538W        W91963  30.997   2.819   1.242
19539W        W91964  12.789   5.867  11.445
19540W        W91965  39.887  13.755   3.153
19541W        W91966  39.935  30.106  11.545
19542W        W91967  36.858   2.907  13.515
19543W        W91968   7.383  10.843   3.168
19544W        W91969  31.576  12.851   2.851
19545W        W91970   3.457  22.516  10.457
19546W        W91971  11.269  32.591   3.382
19547W        W91972  40.943   2.791   0.436
19548W        W91973   5.768  30.587   3.369
19549W        W91974  28.478  30.039  10.418
19550W        W91975  15.106   0.970   2.758
19551W        W91976  20.530  11.771  12.862
19552W        W91977  28.448  35.587  13.936
19553W        W91978  40.408  11.773   9.938
19554W        W91979   4.706  36.533  11.978
19555W        W91980  11.214   9.820  10.983
19556W        W91981   3.403  17.665  13.851
19557W        W91982   1.443  11.670  13.940
19558W        W91983  25.659   3.306  14.943
19559W        W91984  12.746  42.401   2.802
19560W        W91985  36.068  17.695  12.410
19561W        W91986  33.521   9.776  10.605
19562W        W91987  18.165  28.629   0.460
19563W        W91988  34.407  15.754  11.946
19564W        W91989  43.277  17.134  14.931
19565W        W91990   3.277  37.920   2.782
19566W        W91991  33.398  10.651  12.384
19567W        W91992  13.773  20.056  12.580
19568W        W91993  18.785  25.212   0.757
19569W        W91994   7.267  26.043   2.780
19570W        W91995  39.040  35.034   2.401
19571W        W91996  40.405   5.837  14.455
19572W        W91997  22.168  14.151  13.847
19573W        W91998  26.001  24.093  11.123
19574W        W91999  18.067   1.361   1.726
19575W        W92000  37.856  39.826  14.876
19576W        W92001  29.518   6.821   2.278
19577W        W92002  33.931  11.739  11.127
19578W        W92003  16.116  12.305  14.952
19579W        W92004  35.057  27.071   4.174
19580W        W92005   4.830  22.696   3.685
19581W        W92006   1.969   2.353  12.012
19582W        W92007   7.364  15.230  13.825
19583W        W92008   1.335  44.398  14.400
19584W        W92009   8.335  43.425  13.437
19585W        W92010  26.160  10.206   3.159
19586W        W92011  17.799  12.244  11.477
19587W        W92012  31.922  16.125   5.794
19588W        W92013   4.753   1.833  10.451
19589W        W92014  39.016  36.970   4.835
19590W        W92015  31.961  12.360   3.723
19591W        W92016  38.566  36.058  14.029
19592W        W92017  44.311  37.488   0.877
19593W        W92018  16.312  26.576  14.022
19594W        W92019  10.245  31.556  10.979
19595W        W92020  30.500  12.229  14.431
19596W        W92021   2.788  22.173   3.835
19597W        W92022  33.975  33.496  12.853
19598W        W92023  33.009   0.323  12.020
19599W        W92024  23.641  32.057  10.591
19600W        W92025  11.802   8.364   5.205
19601W        W92026  40.808  34.472   2.736
19602W        W92027  38.919  11.360  10.639
19603W        W92028   6.309  30.959   2.761
19604W        W92029   6.311  25.152   2.267
19605W        W92030   4.403  12.752  14.862
19606W        W92031  31.607  26.137  12.387
19607W        W92032  15.252  38.928  11.465
19608W        W92033  33.614  12.736   3.179
19609W        W92034   4.220  44.963  12.343
19610W        W92035  14.309  44.351   4.145
19611W        W92036  11.308   6.398   0.817
19612W        W92037   9.659  23.522   4.800
19613W        W92038  23.592  17.725  13.022
19614W        W92039   4.768  11.343  12.867
19615W        W92040   1.892  36.452  10.503
19616W        W92041  31.025  20.612   0.926
19617W        W92042  19.047  16.698  14.869
19618W        W92043  18.619   3.302  10.101
19619W        W92044  42.307  44.935   4.140
19620W        W92045  37.466   0.285  12.068
19621W        W92046  31.903  10.191  14.921
19622W        W92047  11.310  21.543  13.502
19623W        W92048  40.874  12.708  10.939
19624W        W92049   0.980   5.918   0.341
19625W        W92050  23.085  27.638   3.355
19626W        W92051  24.653   8.811   4.645
19627W        W92052   2.847  26.023   2.883
19628W        W92053  33.005  25.076   1.242
19629W        W92054  40.926   6.835  13.524
19630W        W92055  24.211  30.612   1.907
19631W        W92056   0.294  32.943  11.509
19632W        W92057   3.761  42.319  11.503
19633W        W92058   8.224  34.565   4.790
19634W        W92059   7.815  41.994  12.571
19635W        W92060   7.378  17.582  14.327
19636W        W92061  43.369   7.183   1.817
19637W        W92062  22.170   8.317  10.448
19638W        W92063   6.399  28.988  11.582
19639W        W92064  15.228  13.682  11.056
19640W        W92065  42.474   7.351  11.414
19641W        W92066  20.643  39.385   2.744
19642W        W92067   4.291  26.636  12.532
19643W        W92068  28.589  33.061  13.389
19644W        W92069  37.924   0.765  11.569
19645W        W92070  32.609  42.965   2.345
19646W        W92071  34.524   7.827  10.477
19647W        W92072  25.204  17.204   5.107
19648W        W92073  38.381  11.636  12.470
19649W        W92074  25.193   5.886  12.982
19650W        W92075  17.692  41.383   1.715
19651W        W92076  23.641  18.643  11.428
19652W        W92077  13.269  19.235  11.932
19653W        W92078  16.610  44.309   0.453
19654W        W92079  12.692  38.542  14.840
19655W        W92080  24.050  35.921  12.840
19656W        W92081  41.464  18.056   4.337
19657W        W92082   5.434  20.053   2.231
19658W        W92083   3.882  37.907   0.289
19659W        W92084  35.476  41.459   2.716
19660W        W92085  24.188   0.810   3.257
19661W        W92086  34.608  22.552   3.679
19662W        W92087   6.873  33.991   2.202
19663W        W92088  26.551  20.215   0.846
19664W        W92089  44.317  30.081   4.305
19665W        W92090  43.996  23.176   0.839
19666W        W92091  34.100  12.774   1.871
19667W        W92092  12.253  32.425   3.631
19668W        W92093   1.320  17.093   2.900
19669W        W92094  40.045  21.750  12.415
19670W        W92095   7.375   5.279  14.463
19671W        W92096  31.597  10.664   2.383
19672W        W92097  30.439  25.571   0.339
19673W        W92098  43.857  31.938  12.555
19674W        W92099  27.955  15.154   3.701
19675W        W92100  23.998  20.727  12.389
19676W        W92101  33.435  43.368  11.086
19677W        W92102  25.625  34.570   4.121
19678W        W92103  23.154  44.884  14.935
19679W        W92104  24.126  42.949  10.524
19680W        W92105   2.867  19.773   1.311
19681W        W92106  39.065  10.792   1.885
19682W        W92107  36.988  11.212  13.802
19683W        W92108  11.795   1.914   0.916
19684W        W92109  14.724  24.975  11.968
19685W        W92110  36.357  39.863  10.011
19686W        W92111  32.467  18.232  13.537
19687W        W92112   9.237  16.104   0.444
19688W        W92113  21.205  16.224  14.308
19689W        W92114  14.766  18.621   0.277
19690W        W92115  44.979  26.686   2.707
19691W        W92116  44.322  34.522   1.354
19692W        W92117  12.634  18.710  12.952
19693W        W92118  13.335  21.516   1.382
19694W        W92119  25.087  31.981   4.802
19695W        W92120  38.386   8.394  14.831
19696W        W92121  23.047   9.301   0.733
19697W        W92122  39.428  35.385  14.459
19698W        W92123  20.178  22.536   1.708
19699W        W92124   2.366  29.065  12.847
19700W        W92125   2.325  30.627  14.302
19701W        W92126  43.908   9.721  14.465
19702W        W92127  12.794   3.292  13.036
19703W        W92128  41.421  43.272  12.074
19704W        W92129   3.253  42.288   2.339
19705W        W92130   2.882   5.816  11.451
19706W        W92131  39.525  25.138   3.221
19707W        W92132   2.409   1.407  11.063
19708W        W92133  30.532  14.149   0.869
19709W        W92134  29.531   9.309  13.012
19710W        W92135  19.256  39.948   0.413
19711W        W92136  32.035   5.857   0.823
19712W        W92137   7.770  14.746  11.925
19713W        W92138  17.188  24.660  13.516
19714W        W92139  13.704  42.918   1.247
19715W        W92140  43.486  25.562   0.329
19716W        W92141  35.397   7.892  13.388
19717W        W92142  25.025  40.822  12.891
19718W        W92143  23.238  38.947   0.801
19719W        W92144  35.059  27.094  12.412
19720W        W92145  34.471  11.830   3.373
19721W        W92146   4.253   4.776   0.835
19722W        W92147  12.789  34.038   0.360
19723W        W92148   0.868  40.469   2.396
19724W        W92149  19.123  26.017   3.672
19725W        W92150  32.495  10.866   2.746
19726W        W92151  40.047  34.590   2.717
19727W        W92152   6.334  24.201   4.243
19728W        W92153  43.009  34.089   2.761
19729W        W92154  32.555  38.444   4.138
19730W        W92155  18.163  42.879  11.961
19731W        W92156  29.491  34.995   2.697
19732W        W92157   7.715  40.813   3.240
19733W        W92158  26.190  15.215   1.402
19734W        W92159  25.053   3.384   4.306
19735W        W92160  18.174  17.130   2.227
19736W        W92161  43.411  11.697  12.344
19737W        W92162  44.395  19.746  13.332
19738W        W92163  19.272  23.696  11.445
19739W        W92164   3.713  40.332   2.312
19740W        W92165  12.705  20.065   4.717
19741W        W92166  19.670  43.402   4.343
19742W        W92167  11.678  15.260  13.803
19743W        W92168  18.601   1.776   3.298
19744W        W92169  13.199  32.925  12.894
19745W        W92170  30.975  38.547  14.833
19746W        W92171  26.693  38.531   1.386
19747W        W92172  13.641  38.524   0.852
19748W        W92173  43.983   5.199   1.883
19749W        W92174  15.781  18.697   3.673
19750W        W92175  44.758   4.236   1.700
19751W        W92176  11.622  32.919  10.529
19752W        W92177  38.858  34.919   3.633
19753W        W92178  39.389  38.840  13.507
19754W        W92179  40.886  13.214   3.150
19755W        W92180  17.176  43.345  14.394
19756W        W92181  44.337  37.444  11.857
19757W        W92182  27.536  41.377   3.247
19758W        W92183   2.459   9.171  11.091
19759W        W92184  18.749  41.500  11.114
19760W        W92185   6.724   9.187  14.846
19761W        W92186  20.683  42.935   4.122
19762W        W92187  20.628  18.237   0.461
19763W        W92188  21.187  38.420  12.556
19764W        W92189  41.332  33.925  14.503
19765W        W92190  14.688  14.770  13.804
19766W        W92191  16.701  32.427  13.922
19767W        W92192  20.206   0.350   4.760
19768W        W92193  18.123   0.425  12.917
19769W        W92194  29.095  16.741  10.411
19770W        W92195  26.155  20.663   3.255
19771W        W92196   6.185  36.349  14.006
19772W        W92197  32.142   7.379   2.383
19773W        W92198   6.193   9.319   2.685
19774W        W92199   4.449  11.762   0.784
19775W        W92200  19.178  20.056  11.561
19776W        W92201  11.245  17.162   0.269
19777W        W92202   1.280  16.098  10.607
19778W        W92203  18.234  41.426   2.261
19779W        W92204  25.188   2.751   1.752
19780W        W92205   1.965  22.703   2.668
19781W        W92206  11.323   5.746   4.139
19782W        W92207  33.567  41.930  12.881
19783W        W92208   6.846  23.048  12.078
19784W        W92209  39.984   5.386   3.701
19785W        W92210  32.547  44.361  11.506
19786W        W92211   0.903  39.817  13.015
19787W        W92212  38.843  40.404  13.002
19788W        W92213  13.685  29.475   0.355
19789W        W92214  41.390  19.581   2.876
19790W        W92215  17.081  37.974  14.974
19791W        W92216  27.974  38.998   4.233
19792W        W92217  44.854  41.803  11.952
19793W        W92218   0.395  34.882  14.437
19794W        W92219  40.440  36.064  12.525
19795W        W92220  17.718   3.372   2.414
19796W        W92221   1.741  38.919  14.280
19797W        W92222  13.782  12.657   3.834
19798W        W92223  25.612  21.101  14.498
19799W        W92224  20.545  32.907  11.863
19800W        W92225  20.728  22.172   0.786
19801W        W92226  42.966  30.043  12.986
19802W        W92227   2.739  31.419   0.783
19803W        W92228  21.568  14.613   4.325
19804W        W92229  34.032   5.736   4.836
19805W        W92230  20.128  26.180  11.908
19806W        W92231  30.983   4.335   3.742
19807W        W92232  23.611  19.626   3.186
19808W        W92233  26.547  29.997   1.355
19809W        W92234   5.718  37.960  12.825
19810W        W92235  26.456  38.894  14.501
19811W        W92236  30.632   4.338   1.359
19812W        W92237   2.841  32.459   0.383
19813W        W92238  44.336  43.393  14.422
19814W        W92239  15.602   0.791  12.510
19815W        W92240  18.748   4.339   1.876
19816W        W92241  42.513  12.348   0.750
19817W        W92242  15.787  27.477   1.731
19818W        W92243  18.051  17.300  13.059
19819W        W92244  10.213   3.276   4.196
19820W        W92245  23.187   6.340   0.841
19821W        W92246  39.814   6.271   1.357
19822W        W92247  28.177  14.716  12.538
19823W        W92248  19.685  14.593   1.437
19824W        W92249   5.906   2.880  12.464
19825W        W92250  22.048   6.811  11.522
19826W        W92251  13.304  12.802   4.746
19827W        W92252   6.283  43.937  12.415
19828W        W92253  17.093  11.868   4.720
19829W        W92254  36.975  32.030   1.802
19830W        W92255  26.134  44.996   1.218
19831W        W92256  41.850  21.680  13.401
19832W        W92257   4.422  36.380  10.955
19833W        W92258  34.475  23.107  12.031
19834W        W92259  25.983  15.820   0.333
19835W        W92260  15.785   4.746  13.946
19836W        W92261  35.929  35.454  11.084
19837W        W92262  12.299  28.045  13.009
19838W        W92263   9.305  27.187  12.528
19839W        W92264  23.064  43.814  10.602
19840W        W92265  20.241  14.683  11.391
19841W        W92266  20.138  21.620  12.422
19842W        W92267   7.848   2.790   1.289
19843W        W92268  10.758   1.781   0.477
19844W        W92269  13.632  36.039   0.319
19845W        W92270   4.276  21.658  11.417
19846W        W92271   0.278  22.067   3.284
19847W        W92272  14.099   5.339  10.917
19848W        W92273  18.653  28.577   1.344
19849W        W92274  35.387  13.183   3.253
19850W        W92275   4.418  21.535   0.941
19851W        W92276  25.081  32.513   1.259
19852W        W92277  12.686  12.207  14.921
19853W        W92278  15.323  15.735   3.654
19854W        W92279  14.634  43.446   1.709
19855W        W92280  30.452  24.542   1.252
19856W        W92281  27.598  34.424   4.343
19857W        W92282  13.205  14.747   2.371
19858W        W92283  41.885   7.237   3.757
19859W        W92284  40.998  32.472  11.430
19860W        W92285  11.679   2.247  13.524
19861W        W92286  20.170   8.841  12.885
19862W        W92287  20.084  17.278  11.063
19863W        W92288  26.699  43.828   2.417
19864W        W92289  25.123   6.852  13.052
19865W        W92290  23.554   0.294   4.791
19866W        W92291  23.006  36.023  12.474
19867W        W92292  38.932  40.459  13.899
19868W        W92293  42.478  33.533  14.950
19869W        W92294  26.071   4.802  12.978
19870W        W92295   7.726  40.866  10.540
19871W        W92296  33.914  16.748   9.966
19872W        W92297   6.319  20.230   3.275
19873W        W92298  15.251  18.207   4.805
19874W        W92299  44.429  38.459   2.189
19875W        W92300  20.035  33.547   4.118
19876W        W92301   0.840   5.438   2.342
19877W        W92302  13.761  28.085  11.948
19878W        W92303  39.498  22.586  14.352
19879W        W92304   9.359  25.651  13.493
19880W        W92305   9.154  14.134   2.299
19881W        W92306  44.999   4.401   4.136
19882W        W92307  25.195  25.180   0.859
19883W        W92308   6.787  34.536  13.431
19884W        W92309   1.931  36.425   4.790
19885W        W92310  10.375  37.066  10.637
19886W        W92311  44.795   1.355   0.407
19887W        W92312  16.751  32.563  10.045
19888W        W92313   4.934  29.095  14.308
19889W        W92314  37.538   5.900  13.511
19890W        W92315  41.379  15.638  13.380
19891W        W92316  11.838  25.645   2.267
19892W        W92317  21.040  15.616   2.189
19893W        W92318  17.780  21.057  12.076
19894W        W92319   6.842  42.293  12.878
19895W        W92320   5.894  34.433   1.215
19896W        W92321  42.454  17.662  12.942
19897W        W92322  29.921  35.460  14.375
19898W        W92323  10.682   0.883  11.021
19899W        W92324  30.995  24.483   2.213
19900W        W92325   0.806  11.179  12.903
19901W        W92326   1.397  25.661  13.469
19902W        W92327  11.688  10.234   4.838
19903W        W92328   1.378  22.621   0.947
19904W        W92329  22.208  10.873   2.248
19905W        W92330  38.455  24.223   5.641
19906W        W92331   5.722  33.383   2.210
19907W        W92332   7.221  24.124   2.334
19908W        W92333  41.808   9.749   2.837
19909W        W92334   6.202  38.413   0.283
19910W        W92335  30.506   7.885   4.835
19911W        W92336  41.390  24.592   3.729
19912W        W92337  27.163  23.131   4.120
19913W        W92338  37.477   6.836   0.338
19914W        W92339  10.877  12.349  14.325
19915W        W92340  21.243  34.478  13.424
19916W        W92341  33.403  12.189  12.416
19917W        W92342  27.141  30.500   4.150
19918W        W92343  21.174  18.256   1.359
19919W        W92344   1.336   9.664  10.560
19920W        W92345  35.000  15.145   2.698
19921W        W92346  42.497  30.098   3.339
19922W        W92347  35.596  40.450  10.509
19923W        W92348  20.178  15.603  13.359
19924W        W92349   2.899  21.514   1.718
19925W        W92350  30.541  43.322   4.657
19926W        W92351   3.929  26.594   1.730
19927W        W92352   6.289  19.086   2.847
19928W        W92353  44.776  29.087  11.881
19929W        W92354   1.960  32.087  11.588
19930W        W92355  37.359   2.332  11.003
19931W        W92356  20.644  28.587   0.739
19932W        W92357  38.066  17.155   2.745
19933W        W92358  40.302  38.501  14.011
19934W        W92359   2.959  11.320   0.432
19935W        W92360  27.512  31.491   0.793
19936W        W92361  27.525  34.112  12.018
19937W        W92362  27.689  25.218  11.511
19938W        W92363  25.219  18.291  14.927
19939W        W92364   2.783  44.415   2.226
19940W        W92365  14.118  21.558   3.737
19941W        W92366  44.758  19.167  12.436
19942W        W92367   6.240  39.505  13.393
19943W        W92368  35.447  13.269  14.907
19944W        W92369  34.505   9.194   2.669
19945W        W92370  44.986   4.699  14.889
19946W        W92371   2.801  31.985  13.905
19947W        W92372  21.212  38.974   0.819
19948W        W92373  40.351   9.246  13.026
19949W        W92374  42.358   1.300  12.447
19950W        W92375  35.980  40.312   4.193
19951W        W92376  27.109   5.759  14.798
19952W        W92377  31.464   3.234  10.892
19953W        W92378  10.658  12.616  14.963
19954W        W92379  24.651   5.304  14.499
19955W        W92380  41.954  38.071  12.925
19956W        W92381  10.178  29.638   5.188
19957W        W92382  38.950  13.688  11.100
19958W        W92383  27.676  22.249  12.375
19959W        W92384  34.405  26.159   3.869
19960W        W92385   9.240  33.075  11.499
19961W        W92386  38.379  20.587  14.009
19962W        W92387  15.652  30.047  13.043
19963W        W92388  37.982   9.663   4.654
19964W        W92389   4.944  32.499  11.482
19965W        W92390   6.328  38.900   2.810
19966W        W92391  11.281  40.541  14.433
19967W        W92392  38.351  42.962  13.543
19968W        W92393  39.821  38.343  11.009
19969W        W92394  29.591   5.323  14.409
19970W        W92395  24.570   8.204   4.304
19971W        W92396  32.459   8.843  13.349
19972W        W92397  14.321  25.213   5.222
19973W        W92398   5.819  35.984   2.754
19974W        W92399  16.702  19.167   0.261
19975W        W92400  42.386  44.949   2.694
19976W        W92401  11.835   1.885   4.343
19977W        W92402  32.922  10.384  14.298
19978W        W92403  25.072  32.015   1.917
19979W        W92404   1.766  36.084   1.792
19980W        W92405  22.591  14.184  10.525
19981W        W92406  44.924  42.806   1.267
19982W        W92407  36.066   5.751  14.762
19983W        W92408  40.381   8.757   1.334
19984W        W92409  33.114  14.229   2.227
19985W        W92410   1.974  24.138  10.579
19986W        W92411  42.500  16.188  12.452
19987W        W92412   5.207  19.184   2.206
19988W        W92413  19.573  43.934   4.599
19989W        W92414  33.478  34.114   3.778
19990W        W92415  27.560   6.832  14.450
19991W        W92416  34.118  24.700  12.011
19992W        W92417   0.277  26.206  14.386
19993W        W92418  16.691  26.558   2.799
19994W        W92419  27.466  23.524  14.335
19995W        W92420  23.007  21.722   3.655
19996W        W92421   7.898  40.357   1.813
19997W        W92422  14.289  37.050   3.372
19998W        W92423  27.628  24.659   0.924
19999W        W92424  17.260   2.322   0.894
20000W        W92425  11.249  44.316   1.912
20001W        W92426  23.119   7.790   0.868
20002W        W92427   6.315  27.484   2.861
20003W        W92428  33.467   0.491   5.099
20004W        W92429   9.274  30.510   5.187
20005W        W92430  28.990  15.694   4.354
20006W        W92431  23.183  22.536   3.835
20007W        W92432  35.377  29.498  13.527
20008W        W92433   5.290  41.011   0.750
20009W        W92434   7.795  26.582  11.041
20010W        W92435   3.951  30.989  10.501
20011W        W92436  11.221  41.808   1.392
20012W        W92437  26.621  27.522  10.579
20013W        W92438  17.195  17.124   5.317
20014W        W92439  20.591  42.489   2.316
20015W        W92440   1.392  11.753   0.274
20016W        W92441  30.587  13.843  12.920
20017W        W92442   3.869  24.170   2.353
20018W        W92443  19.685  14.812  13.506
20019W        W92444  26.519  38.406   4.732
20020W        W92445  14.608   4.430   0.272
20021W        W92446  43.452  16.800  12.440
20022W        W92447  37.013   9.734   3.684
20023W        W92448  15.682  21.165   1.285
20024W        W92449  12.291  23.563   0.468
20025W        W92450  40.313  26.628  13.483
20026W        W92451  33.568  25.032  13.796
20027W        W92452   4.397   0.915   3.276
20028W        W92453   5.723  17.569   4.599
20029W        W92454  33.897  35.589  10.436
20030W        W92455   0.934  16.312   4.773
20031W        W92456   1.733  14.759  11.412
20032W        W92457  36.079  35.861   2.261
20033W        W92458  16.576  10.672  11.076
20034W        W92459  35.483  32.611   0.947
20035W        W92460  32.074  37.486   0.259
20036W        W92461  25.191  22.252  10.929
20037W        W92462  39.462  38.494  10.477
20038W        W92463  37.481  13.810   1.337
20039W        W92464  10.688  23.153  12.458
20040W        W92465  13.608  22.050  14.501
20041W        W92466  27.541  38.067   1.712
20042W        W92467  16.245  37.952  14.766
20043W        W92468  32.973  34.611  12.373
20044W        W92469  37.853   9.889  11.101
20045W        W92470  34.499  23.148   4.669
20046W        W92471  20.158  19.695   4.836
20047W        W92472  14.655  39.932   5.166
20048W        W92473   1.806  17.687   0.792
20049W        W92474  29.565  18.132   1.280
20050W        W92475  30.044  25.507  12.474
20051W        W92476   3.245  14.300  13.843
20052W        W92477  19.757  42.813   3.249
20053W        W92478  12.237   8.367   3.204
20054W        W92479   3.883  44.347   4.293
20055W        W92480  18.752   4.285   2.867
20056W        W92481  10.148  20.606   0.401
20057W        W92482  33.095   2.955   4.338
20058W        W92483   4.848   9.646   2.195
20059W        W92484   1.292   6.799   4.606
20060W        W92485  42.806  41.033  12.877
20061W        W92486   2.934   7.297  14.468
20062W        W92487  16.284   7.715   2.387
20063W        W92488  28.006  22.719   3.256
20064W        W92489  17.760  33.554   3.380
20065W        W92490  42.969  34.873  13.480
20066W        W92491  12.190  38.042   1.446
20067W        W92492  29.138  12.155   0.299
20068W        W92493  35.403  37.417  11.867
20069W        W92494   1.963  34.095  10.963
20070W        W92495  43.423  14.221   4.804
20071W        W92496  21.123   5.864   3.332
20072W        W92497  41.349   2.725   4.268
20073W        W92498  35.866  33.128   1.733
20074W        W92499  17.162  26.986   0.344
20075W        W92500  12.194  10.755   4.804
20076W        W92501  27.467  11.650  14.946
20077W        W92502  36.871   7.880   3.729
20078W        W92503  29.547  24.063   1.750
20079W        W92504   9.196  24.072  13.360
20080W        W92505   7.311  29.614   2.183
20081W        W92506  29.938  26.551   0.416
20082W        W92507  24.612   7.756  14.917
20083W        W92508  42.371  24.564   2.194
20084W        W92509  42.989  16.222  13.402
20085W        W92510  40.388  33.109   2.205
20086W        W92511   0.962  35.408   3.854
20087W        W92512  23.496  32.075  11.944
20088W        W92513   9.715  31.584   2.384
20089W        W92514  40.866   0.247   2.710
20090W        W92515  20.109  35.025   1.882
20091W        W92516  10.784  39.843   3.643
20092W        W92517   9.824  37.954  12.932
20093W        W92518   3.239  19.051   2.765
20094W        W92519  21.165   1.945   3.849
20095W        W92520  10.249  12.292   1.926
20096W        W92521  33.910  32.925  10.906
20097W        W92522  35.995   7.866   0.247
20098W        W92523  39.373  13.840  11.876
20099W        W92524  30.480  41.793   2.669
20100W        W92525  24.532  40.940   3.856
20101W        W92526  15.684   1.339   4.681
20102W        W92527  37.481  41.479   4.268
20103W        W92528  40.321  33.606   2.216
20104W        W92529  33.955  31.406  12.458
20105W        W92530  14.698  44.785   3.856
20106W        W92531  26.538   2.347   1.259
20107W        W92532  38.951  23.530   5.123
20108W        W92533  13.733  36.568  12.971
20109W        W92534  27.518  29.163   2.243
20110W        W92535   3.274  21.214  12.474
20111W        W92536  13.683  31.427   2.412
20112W        W92537  19.667  42.794  11.977
20113W        W92538  41.404   0.287   1.418
20114W        W92539  36.098  30.518  12.435
20115W        W92540  16.670  40.814  14.356
20116W        W92541  32.132  29.122  11.507
20117W        W92542  35.426  22.633  10.621
20118W        W92543  38.369  15.265  10.553
20119W        W92544  21.543  19.635   2.878
20120W        W92545   0.292  30.500   2.748
20121W        W92546  29.098  34.407   0.727
20122W        W92547  28.555  28.938   3.660
20123W        W92548  19.052  36.588  10.408
20124W        W92549  27.195  44.761  13.819
20125W        W92550  21.019  38.018  11.381
20126W        W92551   1.933  11.225   2.682
20127W        W92552  32.095   2.781  11.003
20128W        W92553  31.092  44.798  14.383
20129W        W92554  35.014  25.672   2.762
20130W        W92555  14.186  31.404   0.325
20131W        W92556   6.335  38.955   4.272
20132W        W92557  38.497  19.660  14.391
20133W        W92558   1.895  35.908  13.974
20134W        W92559  10.673  40.347  11.415
20135W        W92560   2.856   1.288  10.437
20136W        W92561  23.689  39.518   4.666
20137W        W92562  24.700  32.957  11.048
20138W        W92563  34.458  43.798   1.405
20139W        W92564   7.861  24.686   0.347
20140W        W92565  42.995  16.609  14.822
20141W        W92566  44.753  34.010  11.945
20142W        W92567  16.566  38.531   4.689
20143W        W92568  24.600  12.166   2.292
20144W        W92569   2.777  41.874   2.334
20145W        W92570  35.583  25.043  14.515
20146W        W92571  39.064   4.827  13.833
20147W        W92572  15.702  42.883   0.924
20148W        W92573  41.979  38.349  12.836
20149W        W92574  43.823  22.613  14.442
20150W        W92575  11.750  30.633  11.544
20151W        W92576  11.683  38.523  10.423
20152W        W92577  32.618  15.262  14.977
20153W        W92578  21.746  21.060   2.689
20154W        W92579  37.484  16.630   1.399
20155W        W92580  16.569   5.802  14.817
20156W        W92581   7.768  33.881   4.115
20157W        W92582   4.322  21.257   1.722
20158W        W92583  32.576   0.318  14.011
20159W        W92584  14.616  32.099  13.438
20160W        W92585  18.175   1.387   4.804
20161W        W92586   5.765  24.556  11.879
20162W        W92587  41.821  17.220  13.518
20163W        W92588  16.209   2.435   4.666
20164W        W92589  33.967  35.040  12.405
20165W        W92590  10.775  43.863  12.361
20166W        W92591  22.154  27.635  11.505
20167W        W92592  16.625  34.410  12.373
20168W        W92593  42.437  42.981   2.798
20169W        W92594  25.674  10.161  11.865
20170W        W92595  21.205  39.478  10.986
20171W        W92596   7.762  44.400  14.856
20172W        W92597  27.106   8.659  14.766
20173W        W92598   9.761  11.327   0.293
20174W        W92599  43.400  17.610  11.540
20175W        W92600  11.635  19.267   0.751
20176W        W92601  10.215  29.640   3.643
20177W        W92602   6.797   6.287   3.314
20178W        W92603  11.841  15.813  14.979
20179W        W92604  22.157  25.148  11.400
20180W        W92605  14.713  26.097   3.189
20181W        W92606  18.602  32.987  10.055
20182W        W92607  21.195   3.924   3.259
20183W        W92608  35.400  27.170   2.762
20184W        W92609   9.888  24.071   1.377
20185W        W92610  32.432  18.548   1.237
20186W        W92611  41.438  26.141  10.424
20187W        W92612  27.623  27.610   1.792
20188W        W92613   8.720  36.871  10.146
20189W        W92614  41.815  28.095   5.084
20190W        W92615  19.745  19.690  14.951
20191W        W92616  31.012   8.747   2.415
20192W        W92617  22.631  25.611   2.724
20193W        W92618   6.780  26.680  13.477
20194W        W92619  20.694  17.206   3.335
20195W        W92620   1.762  16.740   2.798
20196W        W92621  19.047   0.915  10.992
20197W        W92622   0.395  37.881   3.250
20198W        W92623  28.560  24.716   4.160
20199W        W92624  17.709  11.137   2.199
20200W        W92625   9.676  11.730   3.783
20201W        W92626   8.406  30.467  13.456
20202W        W92627  17.108  28.054  10.013
20203W        W92628  23.143  41.411  13.520
20204W        W92629  16.735   7.870   4.617
20205W        W92630  39.460   0.879   4.287
20206W        W92631  41.427  22.590  13.835
20207W        W92632  33.935   4.821  11.472
20208W        W92633  29.991   1.323   1.385
20209W        W92634  14.668  22.647   1.302
20210W        W92635   6.789  21.089  12.990
20211W        W92636  10.369  40.815  12.445
20212W        W92637  39.474  22.648   3.362
20213W        W92638  23.706  23.680  12.070
20214W        W92639   5.921   4.300  12.485
20215W        W92640  23.076  26.138  13.886
20216W        W92641  41.297  32.928   1.258
20217W        W92642  28.011  25.031  13.424
20218W        W92643  25.542  18.732  14.281
20219W        W92644  29.048  20.649  12.399
20220W        W92645  20.736  20.115   0.791
20221W        W92646  29.602  21.624   3.320
20222W        W92647  31.967   9.829  10.506
20223W        W92648  13.793  10.222  14.935
20224W        W92649  38.428  31.606   4.621
20225W        W92650   6.203  23.692  14.989
20226W        W92651  35.521  38.374   0.353
20227W        W92652  25.121  26.478  11.860
20228W        W92653  26.550  32.976   0.274
20229W        W92654  38.976  30.656  13.495
20230W        W92655  43.450  43.987   2.289
20231W        W92656  34.406  18.062   2.253
20232W        W92657  28.497  13.136  14.771
20233W        W92658   6.868  15.302   3.724
20234W        W92659  40.319  40.507   2.353
20235W        W92660  32.527   6.891   3.162
20236W        W92661  14.762  10.291   3.855
20237W        W92662  27.074  12.317   1.246
20238W        W92663  28.078  15.318  12.876
20239W        W92664  10.877  11.166  11.870
20240W        W92665  16.696  11.772  14.773
20241W        W92666  28.608  10.156  12.076
20242W        W92667  14.796   9.371  11.935
20243W        W92668  21.064   3.835   3.656
20244W        W92669  44.411  33.528  13.366
20245W        W92670   4.721   3.383   9.961
20246W        W92671  37.438  27.586   1.782
20247W        W92672  31.579   4.798  11.873
20248W        W92673  17.583   5.403   2.414
20249W        W92674  44.982  32.115  12.569
20250W        W92675  18.738  21.734  10.511
20251W        W92676   0.306  38.376   4.677
20252W        W92677  21.536  13.830  14.960
20253W        W92678  31.078  30.932  13.357
20254W        W92679  10.216   3.357   5.112
20255W        W92680  21.638  31.476   4.602
20256W        W92681  28.139  32.582  10.494
20257W        W92682  15.235  42.494   0.414
20258W        W92683  24.189   6.822   3.208
20259W        W92684  42.384   6.914  11.039
20260W        W92685  39.398  37.522   5.271
20261W        W92686   9.345   1.397   0.935
20262W        W92687  19.599  30.537  13.052
20263W        W92688  40.014  38.908  13.327
20264W        W92689   4.403  23.020   1.818
20265W        W92690  14.645  37.870   4.223
20266W        W92691  10.877  39.042   4.667
20267W        W92692   7.269  25.691  11.070
20268W        W92693   2.751   2.420   2.847
20269W        W92694  32.612   4.406   1.825
20270W        W92695   9.232  41.933  10.407
20271W        W92696  39.844  19.691   2.746
20272W        W92697  42.828  28.013  14.364
20273W        W92698   1.818  29.476   1.398
20274W        W92699   1.750  32.501  14.497
20275W        W92700  23.121  16.755  13.321
20276W        W92701   5.205  37.530   3.346
20277W        W92702  30.586  36.468   0.926
20278W        W92703  29.592  37.541  10.966
20279W        W92704  18.057  41.942   0.262
20280W        W92705  43.965  11.238  14.796
20281W        W92706  14.329  32.966   3.203
20282W        W92707  33.963  17.758  14.337
20283W        W92708  29.942  42.950  13.529
20284W        W92709  37.972  17.119  12.360
20285W        W92710   7.397  14.727  14.499
20286W        W92711  31.422   4.831   0.900
20287W        W92712  30.076   8.661  13.797
20288W        W92713  24.619  32.136   3.840
20289W        W92714   3.716  23.069   3.245
20290W        W92715   3.836  30.416  11.406
20291W        W92716  27.576  17.609  12.932
20292W        W92717  38.978  19.730   4.336
20293W        W92718  28.125  32.050  10.917
20294W        W92719  26.097  32.435   5.783
20295W        W92720  44.321  43.428  11.579
20296W        W92721   7.874  12.186  13.326
20297W        W92722   8.868   1.753  14.364
20298W        W92723  37.040   4.855   0.959
20299W        W92724   0.886   3.882   2.332
20300W        W92725  13.329   6.814   4.638
20301W        W92726   0.442  15.775   1.841
20302W        W92727  38.898  17.174  13.936
20303W        W92728  25.689   8.720   2.181
20304W        W92729  18.152   9.703   2.663
20305W        W92730   6.203  37.510  11.396
20306W        W92731  32.992   9.159  10.973
20307W        W92732  13.609  11.757   1.886
20308W        W92733  31.956  44.846  10.551
20309W        W92734  41.996  42.816   0.383
20310W        W92735  41.369  15.219  11.095
20311W        W92736  24.096  11.238   3.749
20312W        W92737  25.625  43.298   3.770
20313W        W92738  27.951  20.186   2.880
20314W        W92739  33.403  17.074   1.416
20315W        W92740  16.111  25.197  13.834
20316W        W92741  29.511  38.905  11.587
20317W        W92742  38.977  41.409   4.284
20318W        W92743  25.613  18.110  14.444
20319W        W92744  34.508   2.413  13.421
20320W        W92745   5.834   2.746  10.985
20321W        W92746  42.376   0.748  10.552
20322W        W92747  42.344   5.820   1.790
20323W        W92748  31.042  10.737  12.835
20324W        W92749   3.791  29.441  13.475
20325W        W92750  29.669  21.185   2.732
20326W        W92751  32.968   6.417  14.785
20327W        W92752   7.830  11.646  13.003
20328W        W92753   0.750  42.492   1.390
20329W        W92754   4.328  32.579  12.054
20330W        W92755  20.124  31.470   0.744
20331W        W92756  29.426  10.779  12.067
20332W        W92757  44.373  20.745  10.532
20333W        W92758  25.151  12.641   2.751
20334W        W92759  26.676  37.510  11.003
20335W        W92760  30.000  33.413  13.511
20336W        W92761  28.047  13.343  14.284
20337W        W92762  28.148  44.768  11.923
20338W        W92763  24.673  14.173  14.335
20339W        W92764   4.713  15.746  11.115
20340W        W92765  31.137  26.125  10.966
20341W        W92766  18.052  28.929   4.633
20342W        W92767   3.722   8.252   3.720
20343W        W92768  44.474  16.735   0.450
20344W        W92769  37.959   6.811   3.349
20345W        W92770   2.764   2.232   4.684
20346W        W92771   8.754  35.881  10.957
20347W        W92772  11.240  28.536  14.474
20348W        W92773  44.798  25.648   3.665
20349W        W92774   9.686  29.547   3.311
20350W        W92775  26.009  38.962   2.816
20351W        W92776   0.744  25.628  11.401
20352W        W92777  13.718  36.005  10.908
20353W        W92778  21.662  15.737   3.689
20354W        W92779  11.181  20.240  13.501
20355W        W92780  17.710  12.628   0.389
20356W        W92781  35.872  12.639  12.880
20357W        W92782  34.389  39.553   3.644
20358W        W92783  35.087  37.448   0.905
20359W        W92784  36.499   8.194   1.402
20360W        W92785  37.912  14.100   4.328
20361W        W92786   4.839  14.166   9.981
20362W        W92787  18.718   7.719   1.836
20363W        W92788  37.034  31.986  12.837
20364W        W92789  28.592  37.048  12.973
20365W        W92790  26.588  30.424   0.484
20366W        W92791  31.901  30.549   1.907
20367W        W92792  35.574  16.113  10.633
20368W        W92793  34.993  23.724   3.311
20369W        W92794   2.450   8.657  14.778
20370W        W92795   2.762  24.667   0.891
20371W        W92796  20.149   9.774  12.081
20372W        W92797  22.573  13.127  12.467
20373W        W92798  27.975  39.042  14.997
20374W        W92799  13.678  11.326  13.394
20375W        W92800  42.298  11.235  14.375
20376W        W92801   2.731  29.433  13.874
20377W        W92802  17.116  25.514   0.343
20378W        W92803   4.918   2.815   5.250
20379W        W92804  26.563  27.063   1.803
20380W        W92805   8.732  32.449   2.394
20381W        W92806   9.818  24.207   3.166
20382W        W92807   5.747  22.151   3.726
20383W        W92808   0.971  27.131  13.383
20384W        W92809  15.288   4.914  11.506
20385W        W92810   2.389   4.710   0.770
20386W        W92811  15.320  20.264   3.806
20387W        W92812  35.427   2.275  11.550
20388W        W92813  21.192  43.457   2.700
20389W        W92814  44.798  17.678  11.515
20390W        W92815  42.519  12.139  10.913
20391W        W92816  39.550  41.348   2.393
20392W        W92817   3.710  30.423   5.111
20393W        W92818  30.507  25.148   4.817
20394W        W92819  15.752  22.551   5.088
20395W        W92820  24.052  44.440   4.687
20396W        W92821  12.284  30.111   2.238
20397W        W92822  43.861   5.861  13.929
20398W        W92823   0.283  33.598   2.390
20399W        W92824   3.808  15.760   4.768
20400W        W92825   9.362  12.705  11.468
20401W        W92826  14.326  41.529  10.588
20402W        W92827  38.349  16.727   4.621
20403W        W92828  10.239   0.830   1.856
20404W        W92829  29.951  23.088  11.951
20405W        W92830  39.934  41.865  10.951
20406W        W92831   0.426  19.627  13.430
20407W        W92832  20.146  15.671  10.125
20408W        W92833  37.862   3.823   2.323
20409W        W92834  20.700   4.907   3.699
20410W        W92835  15.181  29.953   4.815
20411W        W92836  24.217  38.466  14.445
20412W        W92837   8.164  25.530   0.410
20413W        W92838   1.834  38.971  11.577
20414W        W92839  31.463  28.597  10.498
20415W        W92840  32.610  39.538  11.443
20416W        W92841  44.360   0.384   4.206
20417W        W92842  24.158   9.254  10.513
20418W        W92843  34.011  26.595  11.423
20419W        W92844  12.821  24.527   2.805
20420W        W92845   1.822  11.858   3.714
20421W        W92846   5.725  25.204  13.815
20422W        W92847   1.290  25.130  13.544
20423W        W92848  19.536  35.451  10.928
20424W        W92849  13.141  12.144   1.262
20425W        W92850   9.196  13.144   3.199
20426W        W92851   6.195  37.898   1.401
20427W        W92852  30.479  21.542   1.269
20428W        W92853  21.527  27.613   4.249
20429W        W92854  29.525  29.941   2.213
20430W        W92855  44.501  23.015   1.700
20431W        W92856  23.672  18.637  12.465
20432W        W92857  20.661  34.607  14.817
20433W        W92858  16.125  34.929   2.840
20434W        W92859  36.903  13.252   3.823
20435W        W92860  35.453   2.720   2.786
20436W        W92861  16.238  10.382   0.898
20437W        W92862  30.040  44.302  10.975
20438W        W92863  28.547   4.873  10.457
20439W        W92864  18.754  29.115  13.039
20440W        W92865  25.219  34.383  12.895
20441W        W92866  39.443  37.070  14.769
20442W        W92867  19.205  26.125  14.903
20443W        W92868  27.456   5.239  13.888
20444W        W92869  36.395  14.124   2.297
20445W        W92870   5.781   2.309   1.830
20446W        W92871  18.259   7.750  11.591
20447W        W92872  34.120  38.479   4.638
20448W        W92873   4.724  16.797   3.822
20449W        W92874   4.306  32.504   0.795
20450W        W92875  20.546  27.523   4.661
20451W        W92876  20.539   2.828  14.413
20452W        W92877  27.636  22.698  10.562
20453W        W92878  38.560  44.441  10.137
20454W        W92879  42.776  19.616   1.369
20455W        W92880  38.540  25.619  11.084
20456W        W92881  41.395  11.845   4.772
20457W        W92882  33.452  22.164  12.946
20458W        W92883  28.083  27.977   2.733
20459W        W92884  19.660  29.455  12.363
20460W        W92885   7.699  41.379  11.446
20461W        W92886  33.041  13.224   2.891
20462W        W92887   9.650  35.553   1.379
20463W        W92888   3.283  12.686   4.213
20464W        W92889  25.055  11.668  13.428
20465W        W92890  43.333  21.041  13.867
20466W        W92891   6.266  11.180   0.255
20467W        W92892  12.244  30.506   3.317
20468W        W92893   1.939  28.471   2.854
20469W        W92894  15.127  40.841  10.549
20470W        W92895  38.492  36.586   1.294
20471W        W92896  23.631  43.011   2.334
20472W        W92897  10.252   4.337   1.839
20473W        W92898   3.944  10.380   3.787
20474W        W92899  43.351  17.776  14.890
20475W        W92900  22.075   9.154   0.261
20476W        W92901  44.499  32.535   2.333
20477W        W92902   3.953   2.392  14.817
20478W        W92903   3.405  39.541  14.781
20479W        W92904  42.504  20.631  14.440
20480W        W92905   7.375  22.049   3.305
20481W        W92906  19.718  36.051  11.959
20482W        W92907  34.615  10.184   2.330
20483W        W92908  30.128   5.371  12.850
20484W        W92909  11.826  11.782  10.431
20485W        W92910  39.333  25.549   0.415
20486W        W92911  20.233  35.543  13.385
20487W        W92912  24.675  18.245   4.212
20488W        W92913  33.526  28.165  14.431
20489W        W92914  18.657  28.575  12.999
20490W        W92915  17.068  19.611  14.472
20491W        W92916  13.109  27.545  11.080
20492W        W92917  43.788  43.922  14.863
20493W        W92918  13.302  36.926  14.402
20494W        W92919  30.938  10.296  13.359
20495W        W92920  42.862  10.355   2.366
20496W        W92921  12.716  28.574   4.201
20497W        W92922  18.139  38.876  14.859
20498W        W92923  15.291  26.619   4.217
20499W        W92924  32.929   9.340   0.478
20500W        W92925  21.187   9.821   0.434
20501W        W92926  32.079  38.398  11.510
20502W        W92927   2.849   2.872   4.818
20503W        W92928  43.956  22.180   0.353
20504W        W92929  18.060  24.594  14.327
20505W        W92930  26.040  36.904   4.304
20506W        W92931  36.438  14.155  12.066
20507W        W92932  40.940  15.130   4.729
20508W        W92933   3.453  14.338  14.493
20509W        W92934  41.370  18.624   4.708
20510W        W92935  17.625  31.977  11.395
20511W        W92936  16.078  33.477   0.863
20512W        W92937   2.373  28.117   2.671
20513W        W92938   9.306  11.154  14.877
20514W        W92939  35.602   1.868  14.877
20515W        W92940  25.703  43.308   4.269
20516W        W92941  36.913   4.419   4.726
20517W        W92942  28.944   2.331   4.252
20518W        W92943  26.193  13.116   4.778
20519W        W92944  23.703   3.712  12.534
20520W        W92945  18.717  44.972   0.904
20521W        W92946  16.109  11.718   3.830
20522W        W92947  20.645  28.982  13.523
20523W        W92948  24.652  31.927  11.494
20524W        W92949  28.665  43.852   2.399
20525W        W92950  29.974  14.223  12.428
20526W        W92951  43.997  34.505   4.764
20527W        W92952  19.628  34.970  12.380
20528W        W92953  27.586  29.448   2.393
20529W        W92954  12.195  18.646  13.506
20530W        W92955  38.458   8.295  11.500
20531W        W92956  44.987  30.978   4.297
20532W        W92957  44.316  29.607  11.490
20533W        W92958   0.765  12.273   1.250
20534W        W92959  22.164  30.650  11.038
20535W        W92960  24.128  20.143   1.782
20536W        W92961  19.247  36.962  14.858
20537W        W92962  36.059  35.558  11.983
20538W        W92963  32.530  35.002   3.161
20539W        W92964   1.883   5.246   4.767
20540W        W92965   4.362  22.131  12.432
20541W        W92966   3.858   5.366  11.490
20542W        W92967  31.598  39.890   1.272
20543W        W92968  19.761  11.190  13.854
20544W        W92969   7.209  12.823  10.553
20545W        W92970  26.037  16.279  10.532
20546W        W92971  36.392  31.014   1.884
20547W        W92972  17.114  34.392  11.542
20548W        W92973  38.397   1.762   0.319
20549W        W92974  18.776  21.125   1.736
20550W        W92975   7.348  20.131  13.037
20551W        W92976  30.057  28.528  12.879
20552W        W92977  37.397  30.659  10.540
20553W        W92978  16.135  10.283   4.339
20554W        W92979  30.928   4.747  14.822
20555W        W92980  37.987  44.301  13.855
20556W        W92981  43.275   9.155  12.522
20557W        W92982  33.609  21.690   0.357
20558W        W92983  16.091  17.722  13.427
20559W        W92984  43.431  32.045  10.960
20560W        W92985  40.990   6.907  12.373
20561W        W92986  18.626   9.857   3.759
20562W        W92987   9.833  30.570   0.441
20563W        W92988  41.818  41.481   2.405
20564W        W92989  23.045  12.789  11.004
20565W        W92990  27.950  32.957   2.833
20566W        W92991  43.831  34.047   4.817
20567W        W92992   1.923  22.085   2.733
20568W        W92993  22.732  11.139   2.192
20569W        W92994   9.275   2.770  12.046
20570W        W92995  28.453  26.044   2.351
20571W        W92996  14.152   5.737  11.999
20572W        W92997  19.753   3.443   1.821
20573W        W92998  33.597   8.178   0.797
20574W        W92999  26.052  40.342   0.905
20575W        W93000  39.456  34.950   1.314
20576W        W93001  32.568   7.179   1.910
20577W        W93002  27.684   7.830   0.942
20578W        W93003   4.798  22.139  13.361
20579W        W93004   0.886   9.181   0.931
20580W        W93005  38.979  23.129   3.229
20581W        W93006  35.915   1.315  13.467
20582W        W93007  36.913  32.124   1.405
20583W        W93008  42.437  43.391   4.166
20584W        W93009  16.094  14.268   1.830
20585W        W93010   5.753  13.800   1.377
20586W        W93011  39.531  43.860  12.432
20587W        W93012   4.278  14.633   4.736
20588W        W93013  13.713  42.992   2.772
20589W        W93014  20.048  40.849  11.030
20590W        W93015   3.436  25.499   1.703
20591W        W93016  26.129   0.337   4.832
20592W        W93017  20.551   4.367  13.879
20593W        W93018  42.363  11.300  10.610
20594W        W93019  33.085  15.213   1.372
20595W        W93020  17.597  38.558   0.811
20596W        W93021  38.847  36.381   2.808
20597W        W93022  32.062   7.276  13.027
20598W        W93023  39.834  19.612   1.379
20599W        W93024  27.649  31.431  10.635
20600W        W93025  38.421   2.423  11.982
20601W        W93026  29.569  39.839   4.637
20602W        W93027  24.088  39.461  14.488
20603W        W93028  13.700  43.007   4.739
20604W        W93029  35.887  37.469  13.343
20605W        W93030  31.039  26.536   1.744
20606W        W93031  21.688   8.391   3.211
20607W        W93032  44.925  37.949   3.808
20608W        W93033  13.278  11.214   4.654
20609W        W93034  36.078  10.666   2.898
20610W        W93035  44.369  26.573   0.438
20611W        W93036  29.486  13.704   1.756
20612W        W93037  27.179   0.477  12.446
20613W        W93038  37.486   6.236  11.970
20614W        W93039  17.759  34.887  11.085
20615W        W93040   9.862   4.380   3.672
20616W        W93041  36.392  15.746  11.562
20617W        W93042  14.274  44.439   4.821
20618W        W93043  36.014   8.336  12.543
20619W        W93044  34.445   7.386   1.440
20620W        W93045   0.477  20.591  10.931
20621W        W93046   4.362  14.241   0.756
20622W        W93047   4.927  31.064  10.072
20623W        W93048  28.125  31.953  10.582
20624W        W93049   6.293  31.422  12.027
20625W        W93050  13.131  32.941   4.142
20626W        W93051  18.700   6.883  12.836
20627W        W93052  28.108   0.980   2.826
20628W        W93053   0.826  29.489  13.372
20629W        W93054  12.638  17.146   1.822
20630W        W93055  44.931  14.803   1.912
20631W        W93056  38.461   4.291   2.826
20632W        W93057  42.847  28.075  11.989
20633W        W93058   3.947  20.050   3.185
20634W        W93059  36.868  15.317   1.849
20635W        W93060  29.428  19.263  10.893
20636W        W93061  18.688  38.462  11.968
20637W        W93062   1.247  35.086   1.926
20638W        W93063   7.357   1.919  12.055
20639W        W93064  30.144  15.085  12.361
20640W        W93065  16.285  10.374  10.629
20641W        W93066   2.255  18.235   0.432
20642W        W93067  36.364  38.473  12.904
20643W        W93068  41.008  23.612   1.427
20644W        W93069  10.275   8.729  11.034
20645W        W93070  33.504  24.640   2.310
20646W        W93071   5.397  11.687   3.829
20647W        W93072  33.400  20.170  14.444
20648W        W93073  33.422  22.134   2.853
20649W        W93074  34.050  33.515  10.427
20650W        W93075  27.013   7.283   1.933
20651W        W93076  11.654  41.477  12.028
20652W        W93077  43.834  39.811   4.175
20653W        W93078  25.987  24.124  12.408
20654W        W93079  35.540  42.956  10.613
20655W        W93080  42.019  31.911  14.362
20656W        W93081  31.546   6.407  13.471
20657W        W93082  23.159  39.024   0.282
20658W        W93083  28.179  29.980  14.473
20659W        W93084  14.730  20.635   1.417
20660W        W93085  22.167  40.483   3.748
20661W        W93086   7.367  38.043  10.494
20662W        W93087  43.997  14.111   2.718
20663W        W93088  36.940  41.406  10.570
20664W        W93089  23.716  21.130   0.357
20665W        W93090   6.860  29.123  12.007
20666W        W93091   4.447  42.466   2.417
20667W        W93092  17.766  40.530   0.447
20668W        W93093  27.195  12.322  11.600
20669W        W93094  43.420  31.404   0.297
20670W        W93095  36.016  36.570   2.251
20671W        W93096  24.549  21.611   4.703
20672W        W93097  44.380   1.456   3.273
20673W        W93098  31.919   2.833   3.255
20674W        W93099  32.892  38.850  10.974
20675W        W93100  35.391  15.703   1.892
20676W        W93101  36.860  31.110  11.897
20677W        W93102  21.180  39.903   1.816
20678W        W93103  35.878  19.238   4.337
20679W        W93104   6.771  35.536   0.369
20680W        W93105  27.595   4.831   2.791
20681W        W93106  34.954  26.000  14.425
20682W        W93107  36.860  38.952   3.244
20683W        W93108  22.075  27.130  13.826
20684W        W93109  38.923  15.090  12.932
20685W        W93110  42.314  27.958   0.753
20686W        W93111  24.065  41.788  13.489
20687W        W93112  38.540  17.106  13.888
20688W        W93113  13.805  18.268   2.895
20689W        W93114  40.854  37.073   1.326
20690W        W93115   9.684  36.421  14.497
20691W        W93116   3.447  44.382  14.480
20692W        W93117  42.912   1.315  12.985
20693W        W93118   6.768  22.584   3.744
20694W        W93119  27.535   3.740  13.996
20695W        W93120  42.311   5.781  11.584
20696W        W93121  11.346   0.471   1.281
20697W        W93122  43.355   7.687   4.653
20698W        W93123  36.437  36.967  14.383
20699W        W93124  36.573  10.222  12.967
20700W        W93125  30.934  22.576  13.917
20701W        W93126  31.966   2.961  12.366
20702W        W93127  34.503   8.355  13.936
20703W        W93128  21.249  33.481   4.224
20704W        W93129  40.045  14.678   1.333
20705W        W93130  26.515  20.105   1.279
20706W        W93131   6.734  44.463   4.717
20707W        W93132   5.412  12.193   3.674
20708W        W93133  25.468  30.971   4.170
20709W        W93134  13.607  35.029   0.273
20710W        W93135  30.475  39.520  11.920
20711W        W93136  38.473  23.686  11.033
20712W        W93137  27.983  16.313   1.792
20713W        W93138   9.721  10.682   2.253
20714W        W93139   5.727   6.879  14.791
20715W        W93140  18.625   1.793   5.609
20716W        W93141  15.693   4.237  12.461
20717W        W93142   2.881   0.388   4.201
20718W        W93143  39.950  22.502  14.929
20719W        W93144  14.202   5.193  14.470
20720W        W93145  22.191  17.211  10.632
20721W        W93146  14.592  38.365   1.328
20722W        W93147  41.829  31.051  11.928
20723W        W93148   8.710  14.793  11.550
20724W        W93149  14.826  22.225   1.355
20725W        W93150   8.175   8.289  14.440
20726W        W93151  31.082   4.228   4.157
20727W        W93152   4.937  34.985   4.194
20728W        W93153  28.654  39.459  11.963
20729W        W93154  38.820   3.827   1.927
20730W        W93155  43.397  24.599   4.733
20731W        W93156  27.511  23.583   0.773
20732W        W93157  27.009  14.303  13.496
20733W        W93158  35.600   8.389   0.927
20734W        W93159  39.358  25.133   4.176
20735W        W93160   1.454  39.929  14.017
20736W        W93161  22.565   2.234   3.687
20737W        W93162  23.119   7.790  12.423
20738W        W93163   4.924  10.768  12.058
20739W        W93164  42.460  13.175  10.535
20740W        W93165   0.325  33.964  10.645
20741W        W93166   5.752  35.104   3.173
20742W        W93167   4.897  21.215   4.739
20743W        W93168  36.874  27.514   1.316
20744W        W93169   8.205  17.068  14.364
20745W        W93170  19.192  41.370  14.461
20746W        W93171  28.975   7.783   4.688
20747W        W93172  42.321  24.131  12.881
20748W        W93173  29.451   2.793  13.489
20749W        W93174  15.178  33.429  13.321
20750W        W93175  40.972  29.645   4.194
20751W        W93176   6.751  15.592  13.385
20752W        W93177  23.227  44.764   0.301
20753W        W93178  18.700  21.061   1.348
20754W        W93179  38.062   3.806   2.801
20755W        W93180  13.727  44.469  12.844
20756W        W93181   6.367  13.737   3.356
20757W        W93182  23.238  37.529   1.318
20758W        W93183   5.215  40.388   2.414
20759W        W93184  36.060   4.323   2.294
20760W        W93185  32.603  12.294  12.872
20761W        W93186   3.821  25.024  10.062
20762W        W93187  25.681  27.995   0.899
20763W        W93188  33.086  11.861  14.388
20764W        W93189  37.016  10.300  13.880
20765W        W93190  26.090   2.928   1.234
20766W        W93191  17.683  32.965  13.808
20767W        W93192  43.477  24.229  12.376
20768W        W93193  21.197  25.641   3.227
20769W        W93194  17.793  38.339   3.220
20770W        W93195   8.820  35.050   4.307
20771W        W93196   4.303  33.917   2.812
20772W        W93197   6.413  43.768  13.826
20773W        W93198  15.673  34.482  13.329
20774W        W93199  11.128  19.268  12.004
20775W        W93200  34.596   7.749   1.931
20776W        W93201  36.881   4.398   0.852
20777W        W93202   2.919  14.654   2.738
20778W        W93203  43.393  16.230  13.976
20779W        W93204  23.232  11.323  11.512
20780W        W93205  32.468  27.581  11.513
20781W        W93206  27.117  16.743  14.362
20782W        W93207  28.596   6.277   0.809
20783W        W93208  43.495   6.911   0.910
20784W        W93209  25.072   6.368  12.032
20785W        W93210  25.691   4.864  14.378
20786W        W93211  25.147  16.682  14.473
20787W        W93212  27.080   9.370   0.252
20788W        W93213  16.725   9.802  12.865
20789W        W93214  13.169  23.546   0.926
20790W        W93215   6.833  28.116  14.989
20791W        W93216  15.796   8.254   1.331
20792W        W93217  32.903  42.824   4.621
20793W        W93218  27.524  39.425   1.297
20794W        W93219  23.577   4.727  14.449
20795W        W93220  12.160  34.906  12.988
20796W        W93221   0.787  19.746   3.733
20797W        W93222   5.838  35.591   0.417
20798W        W93223  37.917   2.816  14.357
20799W        W93224  26.107  19.211  10.459
20800W        W93225  41.339  38.984  10.457
20801W        W93226  31.051  29.932   1.787
20802W        W93227  13.626  35.862   0.768
20803W        W93228  32.914  25.699   2.826
20804W        W93229  19.163   5.741  10.564
20805W        W93230   9.317  44.806  13.319
20806W        W93231  24.079   4.363  12.463
20807W        W93232   8.267  29.617  12.965
20808W        W93233  38.047  18.564   3.256
20809W        W93234  36.588   7.870  12.048
20810W        W93235  23.200  37.391  13.501
20811W        W93236  12.691  15.711  14.803
20812W        W93237  27.628  35.882  12.883
20813W        W93238  31.433   6.890  14.861
20814W        W93239  40.446  29.107   0.774
20815W        W93240   9.741  40.869  13.850
20816W        W93241   9.782   2.876   2.735
20817W        W93242  11.854  34.992   3.156
20818W        W93243  31.914  39.937   0.946
20819W        W93244  43.316  42.781  12.476
20820W        W93245  29.438   0.967   4.653
20821W        W93246  31.145   6.882   0.803
20822W        W93247  31.126  23.042  10.921
20823W        W93248   3.876   0.961   1.363
20824W        W93249  41.948  10.788  12.449
20825W        W93250   6.832  29.113  13.427
20826W        W93251  10.375  24.024   1.228
20827W        W93252  40.306  27.136   0.427
20828W        W93253  35.015  37.066   0.354
20829W        W93254   5.830  12.769   3.370
20830W        W93255  44.936  40.968  12.577
20831W        W93256  32.031  23.057  11.111
20832W        W93257   5.713  30.638  11.055
20833W        W93258  26.525  39.958  10.912
20834W        W93259  10.710  38.994   2.295
20835W        W93260  24.104  23.611  11.870
20836W        W93261  27.599  38.928  13.792
20837W        W93262  35.558  16.697   2.760
20838W        W93263  31.960   7.885  11.388
20839W        W93264  20.643   6.224  10.608
20840W        W93265  13.609  43.332   4.133
20841W        W93266  22.073  37.514   2.180
20842W        W93267  32.430  39.390   4.186
20843W        W93268  15.226   0.394  11.412
20844W        W93269  20.769  28.998  14.390
20845W        W93270  17.133  25.201   5.205
20846W        W93271  36.013  40.476   3.751
20847W        W93272   4.915  12.309   1.777
20848W        W93273   7.311   1.479  11.574
20849W        W93274  16.152  10.362   1.698
20850W        W93275  35.454  14.214   2.664
20851W        W93276  28.604  43.916   0.466
20852W        W93277  30.971  39.828   1.768
20853W        W93278  26.124  23.996   4.827
20854W        W93279  18.244   9.664  10.642
20855W        W93280  17.235  30.511  10.133
20856W        W93281  13.670   9.175  13.484
20857W        W93282  29.923  18.561  14.968
20858W        W93283   1.829  18.667   2.827
20859W        W93284   9.186  35.101  14.485
20860W        W93285   3.270   7.172  14.890
20861W        W93286  28.945  30.077   5.605
20862W        W93287  11.764   7.712  10.083
20863W        W93288  21.734  30.436  11.050
20864W        W93289  26.982  26.553   3.177
20865W        W93290   5.403  33.481  11.962
20866W        W93291  39.003  41.966  13.310
20867W        W93292   0.770  37.034  10.628
20868W        W93293  31.918  26.952  10.558
20869W        W93294  43.481  11.840  13.921
20870W        W93295   9.189  11.132  12.892
20871W        W93296   6.857  22.611   1.396
20872W        W93297  22.530   7.387  14.313
20873W        W93298   1.743   3.443   3.644
20874W        W93299  29.031  30.558   4.700
20875W        W93300  11.146  21.238   1.732
20876W        W93301   2.234  35.543  12.042
20877W        W93302  36.885  22.663  12.469
20878W        W93303   7.754  34.875   2.837
20879W        W93304  16.272  24.536  10.463
20880W        W93305  40.841  24.125   2.307
20881W        W93306  33.514  16.183   1.326
20882W        W93307  31.486  37.536  13.928
20883W        W93308   8.705  15.227  12.916
20884W        W93309  11.818   9.841  11.494
20885W        W93310  43.836  28.126  10.935
20886W        W93311   1.480  39.955   0.452
20887W        W93312  38.481  35.361   1.398
20888W        W93313  31.621   0.421  14.022
20889W        W93314  33.106  29.131  11.523
20890W        W93315   0.477   8.668  13.941
20891W        W93316  24.710  25.705   1.259
20892W        W93317  42.893  38.012  13.862
20893W        W93318  31.601  33.532   4.147
20894W        W93319  39.886  35.443   2.715
20895W        W93320  27.577  31.027  10.121
20896W        W93321  24.988  36.432  12.825
20897W        W93322   3.455  37.527   3.150
20898W        W93323  39.373  22.081   1.353
20899W        W93324  39.876  13.639   1.393
20900W        W93325   8.730  17.144  11.526
20901W        W93326  20.181  41.332  13.969
20902W        W93327  20.137  36.537   2.289
20903W        W93328   9.319  18.211   5.266
20904W        W93329  10.366  35.594   1.824
20905W        W93330   3.266  17.756  14.924
20906W        W93331   6.187  30.004   2.781
20907W        W93332  37.559  21.232   1.251
20908W        W93333  10.817  16.119   4.631
20909W        W93334  24.134  27.167  14.293
20910W        W93335  44.392  30.920   0.416
20911W        W93336  16.145  12.259   2.820
20912W        W93337  16.682   4.718   3.361
20913W        W93338  17.111  13.755   2.816
20914W        W93339  22.640  17.609  13.859
20915W        W93340   4.254   8.867  11.932
20916W        W93341  19.182  20.046  13.026
20917W        W93342  30.584  25.709   4.672
20918W        W93343  31.531  39.061   3.789
20919W        W93344  15.769  35.584  11.971
20920W        W93345  17.169  28.029  12.977
20921W        W93346  19.667  16.804   1.233
20922W        W93347  44.303  14.300   0.798
20923W        W93348  23.998  29.920   4.622
20924W        W93349  41.447  42.457  12.398
20925W        W93350   5.361   2.370  14.021
20926W        W93351  22.631   8.744  14.380
20927W        W93352  34.541  34.946  10.474
20928W        W93353   9.203  15.234   4.702
20929W        W93354  34.583  31.975   0.374
20930W        W93355  11.709  20.721   2.397
20931W        W93356  24.493  14.824   4.815
20932W        W93357  43.809  23.660  12.989
20933W        W93358  43.004  10.844  13.345
20934W        W93359  10.156  21.026   2.289
20935W        W93360  15.139   9.339   0.849
20936W        W93361  24.136  16.803  12.522
20937W        W93362  21.053  18.640   4.683
20938W        W93363  36.468  14.227  12.985
20939W        W93364   3.438  38.490   3.329
20940W        W93365  22.718  15.282   0.833
20941W        W93366  39.859   7.750  10.421
20942W        W93367   8.789   3.304  14.303
20943W        W93368  19.567  24.089   1.830
20944W        W93369  41.019   4.736   2.796
20945W        W93370  13.752   1.380  11.870
20946W        W93371  22.643  14.289   2.201
20947W        W93372  24.104  39.005  11.873
20948W        W93373  15.642  29.101   4.258
20949W        W93374  25.089  31.062   4.244
20950W        W93375  23.045  20.568   0.260
20951W        W93376  20.598  20.269   4.667
20952W        W93377  15.784  30.127   3.705
20953W        W93378  25.967  12.178   1.338
20954W        W93379  30.131  13.737  11.036
20955W        W93380  18.063  33.040  11.095
20956W        W93381  41.450   1.883   2.723
20957W        W93382  10.233  19.772   3.273
20958W        W93383  42.515  32.561   3.710
20959W        W93384  15.610  34.999  12.881
20960W        W93385  12.286  43.801  14.278
20961W        W93386  29.974  12.190   2.362
20962W        W93387  29.993  35.912  13.796
20963W        W93388  10.805  21.704   1.876
20964W        W93389  22.726  11.719   2.802
20965W        W93390  40.501  21.705   4.159
20966W        W93391  41.933  25.136   1.357
20967W        W93392  12.797   1.470   3.722
20968W        W93393  41.498  37.959  11.109
20969W        W93394  35.530  23.072   3.281
20970W        W93395  29.935  32.458  14.840
20971W        W93396  33.550  26.035   2.284
20972W        W93397  38.073  10.856  13.879
20973W        W93398   9.369   2.900  12.488
20974W        W93399  19.549  15.616  13.471
20975W        W93400  17.611   6.416   0.961
20976W        W93401   4.844  41.366   4.798
20977W        W93402  20.690  27.123  13.439
20978W        W93403   3.815  34.872  10.421
20979W        W93404  33.979  41.431   3.657
20980W        W93405   6.743  15.674   4.238
20981W        W93406   1.299  44.386   1.228
20982W        W93407   1.320  27.125   2.284
20983W        W93408   9.291  27.174  14.471
20984W        W93409  13.650  25.710   5.084
20985W        W93410   0.837  27.597  14.804
20986W        W93411   4.836  13.120  11.037
20987W        W93412  25.606  38.491  14.869
20988W        W93413  24.646  18.057   0.903
20989W        W93414  35.040   0.916   5.084
20990W        W93415   3.241  16.187   1.382
20991W        W93416  28.061   0.278   3.199
20992W        W93417  12.817  19.601  12.880
20993W        W93418  35.501   3.764  13.363
20994W        W93419  33.509  16.639   4.800
20995W        W93420  44.443  22.170   2.191
20996W        W93421  27.147  19.538  13.941
20997W        W93422  31.540  14.768   2.796
20998W        W93423   7.227  15.291   3.341
20999W        W93424   8.236  37.549   3.816
21000W        W93425  23.503  38.373   0.855
21001W        W93426  16.605  10.270  13.998
21002W        W93427  35.899  16.686  12.578
21003W        W93428  26.972   5.817   2.302
21004W        W93429  34.990   1.256  13.450
21005W        W93430  12.725  27.592  10.462
21006W        W93431  36.982  27.099  12.953
21007W        W93432  32.609   8.251  11.043
21008W        W93433   8.198   8.834   9.598
21009W        W93434  12.237  28.093   2.244
21010W        W93435  33.460  16.632   9.471
21011W        W93436  41.294   1.444   3.268
21012W        W93437  39.381   6.858   2.814
21013W        W93438  31.019  14.292  13.474
21014W        W93439  27.486   4.829  11.390
21015W        W93440  31.410  30.046   1.731
21016W        W93441   8.767  41.955   5.303
21017W        W93442  10.634  28.109   3.196
21018W        W93443  29.999  10.810   4.236
21019W        W93444  12.128   1.287  13.517
21020W        W93445  31.074  31.062  13.986
21021W        W93446  42.388   8.661   2.351
21022W        W93447  15.319  16.260   0.278
21023W        W93448  29.992  38.506  13.984
21024W        W93449  28.468  32.395   1.780
21025W        W93450  27.677  37.844  13.897
21026W        W93451  29.617  19.613   3.750
21027W        W93452  29.488   9.394  14.329
21028W        W93453  11.262  40.499   0.728
21029W        W93454  18.096  26.991  14.844
21030W        W93455  33.620  30.498  10.980
21031W        W93456  27.026  26.611  12.457
21032W        W93457  38.403  24.146   4.292
21033W        W93458   7.179  28.553  14.883
21034W        W93459   7.730  10.199  10.552
21035W        W93460  42.496  22.516   4.119
21036W        W93461  28.603  38.446  13.983
21037W        W93462  39.026  30.429   0.432
21038W        W93463  33.996   2.229  13.029
21039W        W93464   2.877  12.688   1.794
21040W        W93465  15.256  18.586  14.837
21041W        W93466  27.045  22.189   4.213
21042W        W93467  12.329  27.998  11.886
21043W        W93468  14.193  34.979   4.759
21044W        W93469  32.079  31.594   2.180
21045W        W93470  23.572  34.409   2.350
21046W        W93471  20.123  11.319  14.487
21047W        W93472  20.761  17.602  14.373
21048W        W93473  23.613  36.369  12.059
21049W        W93474   0.456   1.246  13.524
21050W        W93475  34.062  20.239  10.518
21051W        W93476  19.621  35.604   1.906
21052W        W93477  15.723  12.179   4.834
21053W        W93478   8.744  36.980   0.283
21054W        W93479   7.338  27.569   4.127
21055W        W93480  33.455  33.875   2.688
21056W        W93481  21.513  30.420  13.370
21057W        W93482  31.128  19.660  13.333
21058W        W93483  32.139   4.299   4.205
21059W        W93484  38.021  27.629  12.967
21060W        W93485  14.163  15.132   3.238
21061W        W93486  43.838  26.472  10.493
21062W        W93487  34.108   1.469   1.249
21063W        W93488  33.978  42.785   5.278
21064W        W93489  38.330  39.939  13.872
21065W        W93490   7.855  32.098   1.714
21066W        W93491  32.421   6.776  10.583
21067W        W93492  22.634  41.916  12.410
21068W        W93493  41.924  40.017   3.293
21069W        W93494  22.068  42.794  11.602
21070W        W93495  31.427  41.506   3.745
21071W        W93496  37.351  41.431  12.418
21072W        W93497  16.715  13.702  12.422
21073W        W93498  24.069   8.827   0.357
21074W        W93499   0.837  33.593   3.773
21075W        W93500  29.552  19.118   4.762
21076W        W93501   0.775  33.951   0.354
21077W        W93502   2.956   3.256  12.959
21078W        W93503   4.897   4.393  10.952
21079W        W93504  34.385  22.074  10.963
21080W        W93505  38.406  12.754   3.357
21081W        W93506  36.591  35.051  12.353
21082W        W93507  14.620   8.185  14.324
21083W        W93508  42.952  19.589   0.360
21084W        W93509   9.860  29.060   0.281
21085W        W93510  26.155  17.111   0.466
21086W        W93511  21.029  17.564  14.855
21087W        W93512  29.071  24.075   2.241
21088W        W93513  43.366  33.575   3.662
21089W        W93514  39.815  11.244  13.945
21090W        W93515  14.275   4.901  11.955
21091W        W93516  33.538  23.171   3.286
21092W        W93517  25.165  41.806  12.927
21093W        W93518   5.358  30.020  14.780
21094W        W93519  19.062  36.546   4.674
21095W        W93520   9.888  44.260  13.541
21096W        W93521  18.067   4.285   2.238
21097W        W93522  36.904  43.314   0.366
21098W        W93523   1.973  21.672   4.195
21099W        W93524  18.129  16.199  10.512
21100W        W93525  14.806  21.233   4.739
21101W        W93526   3.359  31.081   5.134
21102W        W93527  19.217  36.421  12.427
21103W        W93528  20.127  28.016   0.305
21104W        W93529  22.233  14.795   4.346
21105W        W93530  11.841   9.318  10.624
21106W        W93531  29.003  38.563   4.333
21107W        W93532  19.251  23.002  13.494
21108W        W93533  34.387  35.375   1.769
21109W        W93534  13.672   7.291   1.870
21110W        W93535  43.885  42.310  10.943
21111W        W93536  18.281  13.671   1.898
21112W        W93537  19.647   5.760   3.649
21113W        W93538  35.413   9.682  12.076
21114W        W93539  24.139  35.398  13.354
21115W        W93540  10.302  14.735  11.990
21116W        W93541  17.773  30.990   0.921
21117W        W93542  21.531  38.395  11.079
21118W        W93543   8.406  16.649   1.888
21119W        W93544  28.159  15.782   1.707
21120W        W93545  35.096  15.682  12.046
21121W        W93546  36.926  29.956   1.708
21122W        W93547   7.773   3.827  11.994
21123W        W93548  13.609  15.666   2.209
21124W        W93549   1.476  43.811   4.655
21125W        W93550  11.245  19.090   2.355
21126W        W93551  19.188  14.266   2.410
21127W        W93552  11.316  41.292  12.032
21128W        W93553  43.835  29.658   1.906
21129W        W93554  29.515  14.775   1.694
21130W        W93555  28.010   0.445   1.358
21131W        W93556   9.710  12.216  11.434
21132W        W93557   6.356  35.587  14.810
21133W        W93558  17.121   5.424  14.469
21134W        W93559   7.320  27.638  13.335
21135W        W93560   2.857   0.931  14.341
21136W        W93561   9.683  22.555   4.291
21137W        W93562  39.537  33.888   3.176
21138W        W93563   4.722   3.243  12.007
21139W        W93564   6.680   9.871   3.827
21140W        W93565  34.469  40.925  11.086
21141W        W93566  14.200   6.726   2.212
21142W        W93567  44.892  15.727  10.977
21143W        W93568  10.340   6.850   5.198
21144W        W93569  11.142  34.935  11.382
21145W        W93570   4.850   4.875  13.974
21146W        W93571  15.085  12.758  13.912
21147W        W93572   3.232  14.648  14.500
21148W        W93573  17.108  11.214   0.356
21149W        W93574  20.046  17.126   1.766
21150W        W93575   2.837   6.355  12.505
21151W        W93576  17.062  28.123   4.624
21152W        W93577  32.105   6.203   0.841
21153W        W93578  28.027  28.444   4.772
21154W        W93579  24.685  28.500   4.797
21155W        W93580  40.879  20.663  12.937
21156W        W93581  35.984  20.153   1.796
21157W        W93582  41.411  17.093  12.924
21158W        W93583   0.893  31.468  11.858
21159W        W93584   5.236  43.994   1.334
21160W        W93585   4.737  21.544   3.858
21161W        W93586  27.026   7.701  11.561
21162W        W93587  12.180  30.050   1.763
21163W        W93588   4.838  20.139  13.342
21164W        W93589  38.827  10.856   2.699
21165W        W93590  16.633  34.931  13.016
21166W        W93591  18.763  14.282   1.867
21167W        W93592  22.212  42.989   1.803
21168W        W93593   5.262  29.141   2.703
21169W        W93594  40.401  34.057   1.210
21170W        W93595  44.973   5.746  13.924
21171W        W93596  19.703  28.451   0.844
21172W        W93597   9.802   7.911   1.389
21173W        W93598  26.135  30.557   4.294
21174W        W93599  19.539  15.681  14.445
21175W        W93600  29.061  18.603  14.860
21176W        W93601  32.561  37.491   4.277
21177W        W93602  41.999  13.735  11.972
21178W        W93603  24.524  35.603  11.025
21179W        W93604  40.532  39.343   2.732
21180W        W93605  10.722  11.325  10.491
21181W        W93606  29.498  41.806  10.545
21182W        W93607  38.364  42.409  12.955
21183W        W93608  14.809  13.110  14.418
21184W        W93609   1.307  44.339   4.354
21185W        W93610  20.271  22.080   3.324
21186W        W93611  19.592  23.047  13.351
21187W        W93612  19.244  27.185   1.298
21188W        W93613  37.881  21.173   4.351
21189W        W93614  36.456   0.856   0.882
21190W        W93615  39.402  43.957  14.788
21191W        W93616  12.291  28.931   4.207
21192W        W93617  25.113  10.735   3.178
21193W        W93618  27.129  32.404   3.255
21194W        W93619  43.864   9.333  12.891
21195W        W93620   4.215  30.122  10.899
21196W        W93621  18.090   4.425   2.815
21197W        W93622  38.422  28.524  11.514
21198W        W93623  36.015  28.435   1.901
21199W        W93624   0.475  22.077  10.928
21200W        W93625   5.194  19.658   0.935
21201W        W93626  13.133  31.924  12.450
21202W        W93627  21.621  13.140   4.179
21203W        W93628   6.689  14.823   1.336
21204W        W93629  23.624  30.649   1.298
21205W        W93630  38.842  35.907   2.900
21206W        W93631   1.344  14.284  10.406
21207W        W93632   3.379  39.426   2.249
21208W        W93633  38.426  27.459  12.377
21209W        W93634  37.404  25.591   5.768
21210W        W93635  32.471  27.526  11.107
21211W        W93636  38.830  35.972   3.193
21212W        W93637  23.634   3.276  12.842
21213W        W93638  23.064  19.195   3.751
21214W        W93639   5.920  15.742  11.972
21215W        W93640   7.408   4.341   3.838
21216W        W93641  26.594  32.582   9.604
21217W        W93642  44.981  34.021  13.432
21218W        W93643  15.298  12.255   3.354
21219W        W93644  27.639  34.115   2.333
21220W        W93645  18.212   2.755   3.727
21221W        W93646   9.275  35.423   2.685
21222W        W93647   9.874  33.996  14.353
21223W        W93648  18.211  38.478   0.732
21224W        W93649  39.904  18.120  13.824
21225W        W93650  29.064  13.181  12.848
21226W        W93651  40.009  30.040   4.668
21227W        W93652  14.333   3.864  14.373
21228W        W93653  26.033  33.949  13.029
21229W        W93654  32.433  19.068  14.031
21230W        W93655   9.395  20.264   2.804
21231W        W93656  28.101  13.660   9.940
21232W        W93657   5.284  32.061  12.086
21233W        W93658  39.528  42.397  11.898
21234W        W93659  15.658  20.753   4.640
21235W        W93660  36.488   7.307  10.942
21236W        W93661   0.466  20.151   0.288
21237W        W93662  42.936  31.513   4.185
21238W        W93663   1.843   0.358  12.531
21239W        W93664  44.322  28.933  14.957
21240W        W93665  19.227   7.306   0.861
21241W        W93666  21.173   8.812   9.981
21242W        W93667  21.564  28.934   2.258
21243W        W93668  30.646  32.609  14.792
21244W        W93669   1.957  33.079  13.890
21245W        W93670  13.268  18.172   0.368
21246W        W93671  22.176   2.860   0.765
21247W        W93672  34.914  17.577  11.033
21248W        W93673   2.769  28.638   0.822
21249W        W93674  38.560  41.899   3.864
21250W        W93675  11.153  11.302   0.967
21251W        W93676   1.354  18.711  12.040
21252W        W93677  29.954  35.586  10.630
21253W        W93678   4.856  22.151  12.028
21254W        W93679  18.549  35.869   0.757
21255W        W93680  32.980  27.688  11.866
21256W        W93681  34.115  40.960  14.858
21257W        W93682  37.893   0.479  11.873
21258W        W93683  38.016   2.457  12.016
21259W        W93684  38.947  35.985  10.142
21260W        W93685   1.263  31.918  14.782
21261W        W93686  38.414  12.158   0.328
21262W        W93687  34.400  13.237   1.786
21263W        W93688   2.396  43.990   2.767
21264W        W93689  31.993  18.586  11.091
21265W        W93690   6.217  41.835  10.483
21266W        W93691  26.516   4.766   3.689
21267W        W93692   9.724  21.646  11.932
21268W        W93693  19.075   1.301  13.900
21269W        W93694   6.848  34.562   1.407
21270W        W93695   1.826  30.539  13.494
21271W        W93696  29.503  12.286  12.464
21272W        W93697   4.307   1.411   4.204
21273W        W93698  40.443  44.275   2.785
21274W        W93699  34.427   1.975   2.872
21275W        W93700  34.081  22.648  13.809
21276W        W93701  28.624  34.054  12.911
21277W        W93702   4.861  25.159  11.859
21278W        W93703  44.401   0.271   3.208
21279W        W93704  26.674  44.888  11.867
21280W        W93705  19.211  44.907  12.424
21281W        W93706  34.962   2.833  11.935
21282W        W93707   2.417  14.236   0.372
21283W        W93708  44.470  39.454  11.908
21284W        W93709  29.945  36.850   2.727
21285W        W93710  36.887  39.435  10.611
21286W        W93711   7.678  21.129   1.838
21287W        W93712  37.062  39.330   1.255
21288W        W93713  11.260  40.495  13.992
21289W        W93714  33.383  14.652   2.379
21290W        W93715  26.101   2.313  12.400
21291W        W93716  36.350  24.091   4.701
21292W        W93717   7.809   5.890   0.462
21293W        W93718  19.210   1.277   4.352
21294W        W93719  10.634  39.878  14.345
21295W        W93720  36.987  14.731   3.856
21296W        W93721  27.121  38.461  13.376
21297W        W93722  13.155   4.203  14.434
21298W        W93723  15.096  33.597  14.010
21299W        W93724  37.438  32.489   5.306
21300W        W93725  44.941   8.406   4.779
21301W        W93726  23.069  22.669   0.406
21302W        W93727  14.764  23.236   4.296
21303W        W93728   6.739  34.395  11.044
21304W        W93729  22.114  39.525  11.040
21305W        W93730  40.863  19.138   0.804
21306W        W93731   9.335  34.113   3.787
21307W        W93732   6.345  20.534  14.436
21308W        W93733  39.334  22.687   1.349
21309W        W93734  42.481  18.052   4.628
21310W        W93735  13.262  41.403   2.806
21311W        W93736  19.100   4.790   4.757
21312W        W93737  14.680  23.568  14.870
21313W        W93738  38.025  30.569  12.853
21314W        W93739  32.127   7.361  11.507
21315W        W93740  25.163  42.316  11.394
21316W        W93741  25.520  40.050  13.955
21317W        W93742  16.265  40.950  11.895
21318W        W93743  21.738   3.303  11.586
21319W        W93744  13.234  36.902  14.871
21320W        W93745  17.579  19.737   4.155
21321W        W93746  13.290  17.647  14.393
21322W        W93747  34.466  33.518  14.449
21323W        W93748  23.215   5.815  12.056
21324W        W93749  35.878   6.726  12.883
21325W        W93750   6.296  20.223  14.487
21326W        W93751  22.552  15.182   3.834
21327W        W93752  10.654  34.019   4.252
21328W        W93753  23.034  19.136  12.465
21329W        W93754  29.932  24.027   0.882
21330W        W93755  13.300  19.689  10.010
21331W        W93756  40.932  39.463  12.067
21332W        W93757  32.500  39.868  13.483
21333W        W93758  15.744  13.276  13.418
21334W        W93759   0.978  33.054  13.357
21335W        W93760  10.841   1.949   0.902
21336W        W93761  32.440  17.146   4.789
21337W        W93762   9.332  32.936   4.136
21338W        W93763  40.845  10.240  14.900
21339W        W93764  18.621  29.592  13.392
21340W        W93765   4.778  14.778   3.830
21341W        W93766  16.731  25.534   3.244
21342W        W93767  28.124  42.993  13.424
21343W        W93768   3.400  23.592  11.417
21344W        W93769   3.885  15.732   1.362
21345W        W93770   9.766  41.352  12.470
21346W        W93771   0.845  21.732  13.809
21347W        W93772  27.178   7.881   0.311
21348W        W93773  44.491  18.070  13.035
21349W        W93774  17.714  22.688  14.420
21350W        W93775  20.596  29.560  12.012
21351W        W93776  18.168  22.512   4.792
21352W        W93777   4.328  31.115  14.361
21353W        W93778  22.655   9.224  11.599
21354W        W93779  11.278  24.106   4.711
21355W        W93780  31.153  40.004  14.888
21356W        W93781  11.668  29.161  12.578
21357W        W93782  30.114  26.057  14.798
21358W        W93783  21.526   2.869  14.482
21359W        W93784   2.456  18.054  11.513
21360W        W93785  18.118  23.015   1.283
21361W        W93786  19.702  15.208  11.438
21362W        W93787   9.168  17.150  13.887
21363W        W93788  12.804  32.464   3.866
21364W        W93789  30.013   0.846  11.459
21365W        W93790  30.501  28.172  11.516
21366W        W93791   6.766   1.824  10.441
21367W        W93792   4.862  43.873  12.536
21368W        W93793   6.413  37.070  13.442
21369W        W93794   6.817   0.476   0.962
21370W        W93795  39.490  16.638  13.843
21371W        W93796  22.503  25.480   0.275
21372W        W93797  24.588   1.973   4.140
21373W        W93798  32.024  25.101   2.189
21374W        W93799   7.798  10.338  12.059
21375W        W93800  21.237  31.460   2.203
21376W        W93801  26.467  24.526   2.184
21377W        W93802  44.795  16.184  13.956
21378W        W93803  11.303   3.794   4.758
21379W        W93804   6.337  42.984  12.883
21380W        W93805  15.089  10.841  11.099
21381W        W93806  38.472   5.881  13.868
21382W        W93807  39.407  15.144  11.911
21383W        W93808  27.144  32.441  14.342
21384W        W93809  12.647   5.713   4.201
21385W        W93810  19.578  37.480   4.295
21386W        W93811  22.555  13.289   2.396
21387W        W93812   6.739  19.704  12.953
21388W        W93813   7.184  35.573   3.801
21389W        W93814  23.643   1.882   2.852
21390W        W93815   7.377  18.241   4.214
21391W        W93816  38.495  31.139   4.182
21392W        W93817  32.590  43.288  12.371
21393W        W93818  44.472  44.902   3.261
21394W        W93819   6.753  43.272   1.377
21395W        W93820   5.906  14.194   0.921
21396W        W93821   7.808   7.199   2.758
21397W        W93822  23.083  15.327  13.937
21398W        W93823  37.413  14.183  13.976
21399W        W93824  13.152   0.843  12.016
21400W        W93825   9.340  33.932   1.787
21401W        W93826  16.202  33.064   3.640
21402W        W93827  30.419  40.337   1.298
21403W        W93828  15.790  43.461   2.674
21404W        W93829  39.900   5.895  14.935
21405W        W93830  40.540  10.316   1.863
21406W        W93831  13.212  27.470   4.717
21407W        W93832  39.995  13.194  13.849
21408W        W93833  20.112  29.511  11.419
21409W        W93834  41.327  39.856   3.344
21410W        W93835  17.255  22.225  11.949
21411W        W93836   9.208  22.558   2.871
21412W        W93837  32.554  37.460  13.888
21413W        W93838  11.278  37.501   0.359
21414W        W93839   8.188  23.497  12.485
21415W        W93840   0.309  18.143  13.914
21416W        W93841   8.683  43.411   1.440
21417W        W93842  27.668  37.056  10.993
21418W        W93843  39.928  34.110   2.362
21419W        W93844   3.418  37.052  10.119
21420W        W93845  31.994  20.072  12.866
21421W        W93846  23.997  16.662  13.044
21422W        W93847  25.632   1.454  13.015
21423W        W93848   0.380   5.270   2.844
21424W        W93849   3.299  26.594  13.840
21425W        W93850  12.619  25.116   0.366
21426W        W93851   0.433  14.682  14.392
21427W        W93852   1.437  21.614   4.725
21428W        W93853  15.666  10.799   2.222
21429W        W93854  19.153  33.914  11.501
21430W        W93855   0.844  13.344  13.842
21431W        W93856  12.315  28.035  10.637
21432W        W93857  32.575  13.335   2.785
21433W        W93858   2.343   8.369   0.726
21434W        W93859  43.844  15.666   3.655
21435W        W93860  33.589  32.109   2.674
21436W        W93861  28.439  44.417   0.405
21437W        W93862  20.761  24.562   0.853
21438W        W93863  26.517   8.716   0.319
21439W        W93864  14.276  26.519   4.217
21440W        W93865  36.544  25.082   1.903
21441W        W93866  15.272  11.140  13.424
21442W        W93867  21.578   4.762   2.793
21443W        W93868  42.860  43.911  11.036
21444W        W93869  25.600   8.215   4.276
21445W        W93870  10.733  31.564   2.339
21446W        W93871  33.919   5.829   0.354
21447W        W93872  33.893   3.727   3.308
21448W        W93873  25.074   5.356  13.858
21449W        W93874  42.935  25.000  11.904
21450W        W93875  41.802  44.818   5.193
21451W        W93876  30.559   6.202  12.376
21452W        W93877  21.103  33.381  14.437
21453W        W93878  15.305   9.862  14.983
21454W        W93879  44.975  25.215   0.416
21455W        W93880  26.494  17.165  13.972
21456W        W93881  27.586  14.303   3.686
21457W        W93882  41.842   4.337   3.326
21458W        W93883  13.351  28.438   3.689
21459W        W93884  24.230  41.996  14.857
21460W        W93885  26.055  29.497   0.309
21461W        W93886  29.947   4.925   0.758
21462W        W93887  40.438   3.239  12.574
21463W        W93888   0.815  21.184   1.892
21464W        W93889  16.612   6.774   3.704
21465W        W93890   9.701  34.864  13.398
21466W        W93891  36.582  26.533   4.236
21467W        W93892  22.528   0.453   3.730
21468W        W93893  38.819   3.260   1.225
21469W        W93894  16.792  32.586   2.284
21470W        W93895  25.565  26.624  13.415
21471W        W93896   0.486  16.193   4.271
21472W        W93897  22.214  18.121  14.880
21473W        W93898  34.551  36.978  11.455
21474W        W93899  25.618  33.909   0.919
21475W        W93900  26.516  42.017  14.994
21476W        W93901  37.407  29.451   0.962
21477W        W93902  32.121  37.500   4.679
21478W        W93903   8.265   4.762   0.468
21479W        W93904   6.350  36.554  12.947
21480W        W93905  39.456  20.708  10.947
21481W        W93906  13.836  28.141  11.376
21482W        W93907  35.880  38.937   0.782
21483W        W93908  28.542  22.725  12.998
21484W        W93909  12.261  11.349   2.206
21485W        W93910  31.598  43.016  11.018
21486W        W93911  10.777  12.650   2.308
21487W        W93912  17.616  36.366   3.819
21488W        W93913  29.088  18.743  13.939
21489W        W93914  38.940  31.428   2.268
21490W        W93915  22.607  29.581  11.974
21491W        W93916   9.751  29.930  12.950
21492W        W93917  19.640  15.144   0.268
21493W        W93918  14.284  38.325  10.897
21494W        W93919  25.687  36.928  10.887
21495W        W93920  42.921  21.138  12.873
21496W        W93921  16.685  40.453   2.299
21497W        W93922  31.528   6.822   1.721
21498W        W93923  25.213  23.107  12.556
21499W        W93924   1.249  35.892   2.665
21500W        W93925  33.049  29.154   3.171
21501W        W93926  34.453  11.371   4.312
21502W        W93927  35.522  34.941  13.533
21503W        W93928  39.429  28.439   3.776
21504W        W93929  27.962   5.413   2.257
21505W        W93930   6.299  16.575  10.051
21506W        W93931  16.802  23.641   1.863
21507W        W93932  27.181  38.392   0.855
21508W        W93933  14.129  23.697  13.525
21509W        W93934  35.388  36.516  14.859
21510W        W93935   5.419   4.930   3.285
21511W        W93936  31.029  24.574  14.964
21512W        W93937   3.298   0.764  10.607
21513W        W93938  19.691   2.764   1.732
21514W        W93939  16.626  30.604  10.030
21515W        W93940   8.390  25.068  12.531
21516W        W93941  27.143  24.483  10.637
21517W        W93942  10.677  40.441   1.211
21518W        W93943  23.537  27.951   3.746
21519W        W93944  22.720  36.363  11.877
21520W        W93945  29.431  16.277   2.872
21521W        W93946  13.309  33.410   1.441
21522W        W93947  42.342  34.864   1.232
21523W        W93948  13.833  37.376   0.802
21524W        W93949  23.548  44.841   4.694
21525W        W93950   9.680  16.752  12.956
21526W        W93951  19.562   4.911   0.389
21527W        W93952  39.496  40.996  11.442
21528W        W93953  18.630   4.794  10.625
21529W        W93954  23.716  42.474  10.602
21530W        W93955  42.495   2.431  11.918
21531W        W93956  25.478  22.034   3.245
21532W        W93957  38.000  43.507   0.797
21533W        W93958   2.238  12.350  12.069
21534W        W93959  25.180   6.828  12.470
21535W        W93960  43.822  26.547   0.823
21536W        W93961  24.509  42.842   1.874
21537W        W93962  10.247   2.332   0.409
21538W        W93963   2.283  21.126  10.617
21539W        W93964   1.882  29.033   0.383
21540W        W93965   9.166  28.103   1.802
21541W        W93966  30.165  14.601  14.908
21542W        W93967  15.595  22.627  11.008
21543W        W93968  28.944  13.604  11.465
21544W        W93969  26.486   5.820   3.365
21545W        W93970  15.759  19.748   2.323
21546W        W93971  41.381   9.662  12.390
21547W        W93972  23.563  43.994  13.972
21548W        W93973  36.855  19.142   1.437
21549W        W93974  22.674  34.062   1.360
21550W        W93975  10.703   8.284   4.171
21551W        W93976  34.423   4.800   3.641
21552W        W93977  10.153  43.901   3.840
21553W        W93978  27.990  18.139   1.802
21554W        W93979  28.638  44.472  11.411
21555W        W93980  19.060  20.709  13.025
21556W        W93981  15.110  17.232   0.420
21557W        W93982  12.769  38.915   2.785
21558W        W93983  26.616  44.760   3.335
21559W        W93984  33.597  16.637  12.982
21560W        W93985  39.056  10.327  12.433
21561W        W93986  15.795  27.479   4.769
21562W        W93987  37.014  29.568   4.744
21563W        W93988  42.345  14.687   3.269
21564W        W93989   0.406  29.487  12.062
21565W        W93990  24.127  27.140  11.540
21566W        W93991  24.715  18.177  12.457
21567W        W93992  27.623  27.176  13.537
21568W        W93993  24.488  16.262   0.780
21569W        W93994  33.959  32.500   2.750
21570W        W93995  24.606  18.126  14.341
21571W        W93996   0.792  42.778  13.470
21572W        W93997  23.514  35.985  11.036
21573W        W93998   2.449  41.425   2.255
21574W        W93999  40.965  14.606   0.326
21575W        W94000  21.263  30.952   2.710
21576W        W94001  21.227  25.969  14.852
21577W        W94002  23.674  25.702  11.958
21578W        W94003  14.309  27.663  12.424
21579W        W94004  13.183  12.213   2.363
21580W        W94005  27.131  43.471   2.281
21581W        W94006  34.891  31.450  12.360
21582W        W94007  28.630  35.421   0.297
21583W        W94008  30.105  15.301   2.777
21584W        W94009  23.717  14.680   3.340
21585W        W94010   7.312  27.128   2.303
21586W        W94011   4.355  38.849  13.468
21587W        W94012  20.632   9.743  13.840
21588W        W94013  32.990  21.064   1.349
21589W        W94014  26.617  22.583  13.358
21590W        W94015  22.164  33.998   4.739
21591W        W94016   8.290  28.107   1.448
21592W        W94017  37.898  38.892   1.831
21593W        W94018  43.486  22.155   2.669
21594W        W94019   1.357   6.211   0.442
21595W        W94020   2.424   6.721  10.524
21596W        W94021  11.630  44.427   2.365
21597W        W94022  13.759  15.814   2.721
21598W        W94023  43.320   7.905  13.969
21599W        W94024  13.302  41.022   1.221
21600W        W94025  10.666  12.828   1.284
21601W        W94026  23.078  27.605   1.897
21602W        W94027   2.831  15.725   1.703
21603W        W94028   4.855  35.944  11.941
21604W        W94029  26.579  18.786   2.259
21605W        W94030  27.593  25.584   1.337
21606W        W94031   9.706  30.072   3.704
21607W        W94032  33.565  27.136  11.925
21608W        W94033  42.902   6.298  14.011
21609W        W94034  33.459  38.548  13.375
21610W        W94035   4.745   3.225  13.844
21611W        W94036  35.403  41.875   4.643
21612W        W94037  34.103  25.151  11.095
21613W        W94038  43.822  19.658  11.098
21614W        W94039   3.296  42.961  11.373
21615W        W94040  19.645  40.546   1.779
21616W        W94041  13.839  44.835   2.753
21617W        W94042  34.393  17.696   3.153
21618W        W94043  17.736  42.874  11.120
21619W        W94044   8.675   4.339  13.392
21620W        W94045  42.835   4.901  12.068
21621W        W94046   4.393  26.501  13.455
21622W        W94047  11.330  31.529  10.893
21623W        W94048  30.569  33.955   3.691
21624W        W94049  19.069   7.911  11.892
21625W        W94050  41.342  31.613   1.816
21626W        W94051  26.560  38.935   1.368
21627W        W94052  38.436   4.430   0.380
21628W        W94053  24.157  35.447  11.062
21629W        W94054   8.678  12.751   1.210
21630W        W94055  21.693  18.584   0.729
21631W        W94056  13.212  33.486  13.832
21632W        W94057  32.635  12.231  11.083
21633W        W94058  32.067  35.002  13.528
21634W        W94059  21.676  22.197   3.860
21635W        W94060  20.263  28.435  10.612
21636W        W94061  20.112   1.771   2.899
21637W        W94062   8.225   9.276  12.563
21638W        W94063   2.947  19.113   4.793
21639W        W94064  16.144  42.940   3.178
21640W        W94065   8.714  10.763   0.319
21641W        W94066  20.059  12.831  11.879
21642W        W94067  26.691  39.401   4.336
21643W        W94068  15.297  22.209   2.900
21644W        W94069  29.945  23.079   0.777
21645W        W94070  35.900  17.577  13.972
21646W        W94071  30.653  43.003   5.098
21647W        W94072  12.632  41.454   4.768
21648W        W94073   1.972  43.473  14.015
21649W        W94074  22.139  36.054  11.865
21650W        W94075  30.988  33.407   3.300
21651W        W94076  11.171  38.018  10.632
21652W        W94077  27.540  27.019   0.788
21653W        W94078  12.628   4.319  13.451
21654W        W94079  39.560  12.155  10.531
21655W        W94080  17.631   2.247  10.408
21656W        W94081   2.257  38.917   0.385
21657W        W94082  10.876   7.813   1.407
21658W        W94083  43.463   0.421   1.371
21659W        W94084  12.288   8.744  13.528
21660W        W94085  18.105   2.239   9.551
21661W        W94086  26.972  11.236   2.276
21662W        W94087   6.872  38.874  14.318
21663W        W94088  21.532   1.771  12.903
21664W        W94089  10.670   3.365  14.923
21665W        W94090  12.258  11.722  14.875
21666W        W94091  13.819  40.921  10.609
21667W        W94092  24.187  40.853  14.476
21668W        W94093  13.249  15.726  13.865
21669W        W94094   8.310  20.035   0.775
21670W        W94095  29.987  27.593   0.285
21671W        W94096  40.464  23.691   1.224
21672W        W94097   1.364   0.755   1.277
21673W        W94098  18.179  39.889   1.303
21674W        W94099  22.668  24.650   2.890
21675W        W94100   7.722  34.029  11.944
21676W        W94101  36.937  26.667  12.450
21677W        W94102  26.149  38.032   3.364
21678W        W94103  44.898   2.755   2.244
21679W        W94104  33.380   5.267   3.665
21680W        W94105  32.122  27.162   2.872
21681W        W94106  15.328  11.337   3.854
21682W        W94107  23.503   8.869  13.475
21683W        W94108  21.141  18.663  11.990
21684W        W94109  39.952  27.163  13.063
21685W        W94110  44.002  34.112  10.417
21686W        W94111   4.870  42.956   2.667
21687W        W94112   7.791  35.493   1.258
21688W        W94113  44.992   4.436  14.505
21689W        W94114  21.711  24.090   4.150
21690W        W94115   1.383  30.140   1.781
21691W        W94116  43.000   5.432  10.639
21692W        W94117   8.831   2.863  12.020
21693W        W94118  16.211  28.585  13.938
21694W        W94119  43.392  19.125   3.182
21695W        W94120  44.907  20.596  14.786
21696W        W94121  33.395  38.963  10.976
21697W        W94122  38.966  41.356   4.757
21698W        W94123  20.589  41.344  12.380
21699W        W94124  38.884  32.009   5.092
21700W        W94125  36.455   5.408   1.724
21701W        W94126  24.561  22.705   2.270
21702W        W94127  27.521   3.736  10.982
21703W        W94128  34.405   4.337   3.849
21704W        W94129  15.129   3.389   4.230
21705W        W94130   7.183   8.387   3.636
21706W        W94131  36.946  24.111   0.832
21707W        W94132  24.708  41.854  14.323
21708W        W94133   7.414  37.975  11.972
21709W        W94134   6.264  25.032  13.533
21710W        W94135  25.195  43.803   2.335
21711W        W94136  33.393  41.952   9.986
21712W        W94137  36.068  36.870  11.561
21713W        W94138  11.719  37.505  13.987
21714W        W94139  32.976   8.280   0.753
21715W        W94140  42.289  13.682   4.266
21716W        W94141  10.716   5.310   0.467
21717W        W94142  26.609  17.240   1.287
21718W        W94143  41.013  29.942  13.019
21719W        W94144  43.433   5.900  12.876
21720W        W94145  23.603   8.276  14.815
21721W        W94146  31.955  18.081  10.051
21722W        W94147  33.920  19.746  12.903
21723W        W94148  36.504   6.857  14.947
21724W        W94149  30.517  27.611  10.412
21725W        W94150  21.149   7.783  14.339
21726W        W94151  22.238   2.266  12.084
21727W        W94152  13.774   4.895  14.305
21728W        W94153  29.453  28.519  14.903
21729W        W94154  35.564  23.123  12.942
21730W        W94155  33.526  19.673   3.299
21731W        W94156  28.542  41.035  11.386
21732W        W94157  13.609  23.088   4.261
21733W        W94158  30.159  14.192  10.538
21734W        W94159  27.995  42.876  11.053
21735W        W94160  36.023  35.908  14.975
21736W        W94161  29.453  40.866   2.903
21737W        W94162  36.974  19.588  13.392
21738W        W94163  32.968  22.172   4.651
21739W        W94164  27.958  30.567   4.199
21740W        W94165  16.761  16.576   4.629
21741W        W94166  29.625  27.109   2.236
21742W        W94167  19.635   9.374   4.803
21743W        W94168   7.383  32.460   2.684
21744W        W94169  13.134  11.625   2.688
21745W        W94170  24.701   5.793   3.674
21746W        W94171  24.710  20.093  13.330
21747W        W94172  26.091  39.412  10.624
21748W        W94173  39.987  43.412   1.814
21749W        W94174  10.269   9.330  12.404
21750W        W94175  11.282   4.868  11.411
21751W        W94176  35.973  29.556  11.121
21752W        W94177  30.958  40.368  12.943
21753W        W94178  19.559  44.485  12.395
21754W        W94179  35.963   5.410   0.750
21755W        W94180  11.664  25.114  10.015
21756W        W94181   2.404   3.920  13.967
21757W        W94182  37.907   8.845  12.860
21758W        W94183   4.926  19.673   1.817
21759W        W94184  34.450   4.923   2.325
21760W        W94185  24.144  25.219  14.445
21761W        W94186  31.521  26.110  14.760
21762W        W94187  42.351   2.894   3.336
21763W        W94188  33.103  34.989   3.719
21764W        W94189  13.779  30.153  10.973
21765W        W94190  29.957  36.440  11.042
21766W        W94191   2.966  41.869   4.198
21767W        W94192  28.144  19.140   4.152
21768W        W94193   7.813   6.856   2.694
21769W        W94194  42.415  23.028  11.437
21770W        W94195  35.588   7.232   4.174
21771W        W94196  43.488   7.294  10.418
21772W        W94197  33.107   7.306  14.856
21773W        W94198   2.447  40.456  13.374
21774W        W94199  14.306   2.833   0.377
21775W        W94200   1.476  20.268  14.901
21776W        W94201   5.216   7.292  13.408
21777W        W94202  28.957  19.160   1.737
21778W        W94203  38.493  23.023  14.278
21779W        W94204  35.517   6.791   2.753
21780W        W94205  41.386  31.528  11.601
21781W        W94206  26.044  29.128  10.994
21782W        W94207  17.572   3.868   2.404
21783W        W94208  32.572  38.401  13.964
21784W        W94209  30.440  11.206  10.919
21785W        W94210   7.865  44.387  13.333
21786W        W94211  34.034  35.491   4.656
21787W        W94212   5.739   9.676  12.032
21788W        W94213   1.872  42.922  10.447
21789W        W94214  13.710  18.292  10.922
21790W        W94215  28.663   0.891   4.237
21791W        W94216  31.412  15.092  11.968
21792W        W94217   1.266   3.761   0.931
21793W        W94218   3.903  37.912  14.381
21794W        W94219  16.615   7.666   3.809
21795W        W94220   2.429   8.348   0.289
21796W        W94221   2.440   6.712  13.982
21797W        W94222   3.727   8.710   2.724
21798W        W94223  28.515  31.929  10.569
21799W        W94224  40.985  39.431  14.999
21800W        W94225  28.155  43.875  11.903
21801W        W94226  44.991  29.982  11.000
21802W        W94227  20.689  15.179   2.416
21803W        W94228  42.798  15.766  10.555
21804W        W94229  34.553  44.806  12.457
21805W        W94230  10.299  23.986  12.918
21806W        W94231  13.141  42.429  12.417
21807W        W94232  17.075  17.746  13.812
21808W        W94233  13.664  43.917  10.600
21809W        W94234  44.444  12.250  10.516
21810W        W94235  19.743   5.238   2.702
21811W        W94236  28.513  13.127  12.969
21812W        W94237  21.127  13.658  14.851
21813W        W94238  35.443  43.414   4.605
21814W        W94239  13.291  24.511   2.707
21815W        W94240  30.153  39.972   1.838
21816W        W94241  41.985  17.583  14.797
21817W        W94242  12.780  10.877  10.426
21818W        W94243  37.577  34.952   4.139
21819W        W94244  12.618   1.958   1.346
21820W        W94245  26.502   7.822   0.253
21821W        W94246  31.958  39.037  10.110
21822W        W94247   8.711   3.856  13.433
21823W        W94248  44.463  26.573  13.332
21824W        W94249  27.166   5.392  12.575
21825W        W94250  36.061  28.450  10.603
21826W        W94251  25.043  13.119   0.412
21827W        W94252  26.178   7.269   3.275
21828W        W94253   0.906   1.822  13.060
21829W        W94254  25.126  12.321  14.851
21830W        W94255   0.317   3.947  14.806
21831W        W94256  17.681   1.440   3.856
21832W        W94257  18.226  29.603   2.197
21833W        W94258  38.357  42.796   1.709
21834W        W94259  43.466  25.572  11.467
21835W        W94260  38.978  21.570  11.118
21836W        W94261  17.739   8.386   1.883
21837W        W94262  44.950  13.759  13.390
21838W        W94263  14.819  43.368  14.399
21839W        W94264  31.116  30.452   3.229
21840W        W94265  29.555  28.099   4.255
21841W        W94266  29.041   4.794   2.786
21842W        W94267  44.994  41.851   4.727
21843W        W94268  10.818   4.261  11.532
21844W        W94269  11.225  36.508  14.884
21845W        W94270  32.494  12.640  13.316
21846W        W94271  33.015  23.119  12.044
21847W        W94272  24.610  43.487   3.866
21848W        W94273   0.988   1.797   3.166
21849W        W94274  13.794  40.892  14.873
21850W        W94275  26.183   7.172   3.686
21851W        W94276  12.625  30.470  14.997
21852W        W94277  42.318  22.223  12.863
21853W        W94278  22.732  14.142   9.950
21854W        W94279  35.514  11.185   3.639
21855W        W94280  10.364  17.789   4.303
21856W        W94281   7.249  25.666   1.424
21857W        W94282  10.359  22.016  11.607
21858W        W94283  18.195  27.678   0.465
21859W        W94284  15.234  11.722  12.458
21860W        W94285  31.417  39.385   1.756
21861W        W94286  23.531   8.803  14.475
21862W        W94287   4.783   5.716  14.296
21863W        W94288  43.940  16.278  12.894
21864W        W94289  19.576  13.185  13.847
21865W        W94290   8.405  35.988   2.823
21866W        W94291  18.754  20.261  12.416
21867W        W94292  43.952  16.158   4.190
21868W        W94293   8.873  12.638   1.878
21869W        W94294   1.819  14.251  13.819
21870W        W94295  41.921  31.921   2.271
21871W        W94296  33.592  18.715  13.986
21872W        W94297  30.550   2.839  13.940
21873W        W94298  21.630  32.442  14.451
21874W        W94299   4.381  40.830   1.250
21875W        W94300  23.047  23.228  13.386
21876W        W94301  29.059  36.589  11.856
21877W        W94302   4.218  14.622   0.790
21878W        W94303  34.912  13.714  12.063
21879W        W94304  20.686   5.439  11.963
21880W        W94305   5.891  41.495   0.334
21881W        W94306   3.354  26.205   0.951
21882W        W94307   9.333  41.931  11.913
21883W        W94308  31.609  38.497   3.708
21884W        W94309  44.428  29.121   3.779
21885W        W94310  21.619  28.570  10.979
21886W        W94311  38.035  22.720  10.060
21887W        W94312  20.560  44.405  11.611
21888W        W94313   1.316   8.662  10.437
21889W        W94314  28.610   8.806  12.076
21890W        W94315  17.131  12.258   2.370
21891W        W94316  14.626  24.036  12.545
21892W        W94317  14.334  39.877  12.826
21893W        W94318   4.731   5.856  11.420
21894W        W94319   2.422  17.159   4.134
21895W        W94320  41.954  32.019  13.836
21896W        W94321  39.430  35.892   2.301
21897W        W94322  11.863  41.890   3.205
21898W        W94323  30.640  31.047  10.507
21899W        W94324   3.855  26.468   4.637
21900W        W94325  12.135  24.059   9.479
21901W        W94326  23.707  10.832   1.888
21902W        W94327   0.465   1.340   3.343
21903W        W94328  14.255  17.237   4.212
21904W        W94329  31.497  41.948   4.622
21905W        W94330  10.820   4.447  14.288
21906W        W94331  16.237  40.870   3.645
21907W        W94332  15.774  38.484   4.251
21908W        W94333  12.623   5.719   4.720
21909W        W94334  14.779   7.306  10.611
21910W        W94335  13.189  17.232   3.830
21911W        W94336  44.400  38.860   5.232
21912W        W94337  15.734   5.197  13.859
21913W        W94338  29.162  40.544  11.971
21914W        W94339  36.890  35.562  13.026
21915W        W94340  34.430  43.304  11.590
21916W        W94341  21.651  23.533   2.871
21917W        W94342   1.381   9.228   3.742
21918W        W94343  41.990   3.806  12.540
21919W        W94344   0.815   9.368  13.519
21920W        W94345  27.631  34.877   1.330
21921W        W94346  31.593  17.758   5.246
21922W        W94347  10.634  10.829   1.416
21923W        W94348  17.718   3.342   4.660
21924W        W94349  42.951   1.339   3.721
21925W        W94350  20.699  23.687  11.452
21926W        W94351  29.434  15.325  12.989
21927W        W94352   4.204  19.182  12.413
21928W        W94353   3.815  14.221  12.487
21929W        W94354  30.048   1.461  10.454
21930W        W94355  28.116  32.960  12.839
21931W        W94356  39.918  27.028  12.372
21932W        W94357  14.796  39.950  12.962
21933W        W94358   5.379  44.843   0.368
21934W        W94359  28.104  10.245   4.256
21935W        W94360  12.152  20.090   1.293
21936W        W94361  17.234  42.892   3.370
21937W        W94362   1.394  37.524  14.011
21938W        W94363  30.990  39.951   0.764
21939W        W94364  28.559  27.111   4.158
21940W        W94365  21.586  28.514  14.983
21941W        W94366  41.808  24.571  10.579
21942W        W94367  19.650  16.204  14.804
21943W        W94368  18.186  42.408  12.547
21944W        W94369  17.288  22.551   0.260
21945W        W94370   8.842  21.033   0.965
21946W        W94371   9.265   1.318  14.501
21947W        W94372  14.147  21.579  10.572
21948W        W94373   3.948  22.240  10.449
21949W        W94374  14.648  38.873  14.358
21950W        W94375  39.505  17.731   3.761
21951W        W94376   6.689  16.787  10.625
21952W        W94377   7.819  29.596  14.347
21953W        W94378  20.142  44.976  13.844
21954W        W94379  42.393  32.021   2.193
21955W        W94380  30.473  38.359   0.263
21956W        W94381  36.094  14.702   0.250
21957W        W94382  34.474  38.971  12.955
21958W        W94383  22.504  38.942  13.888
21959W        W94384  42.788  23.191  12.507
21960W        W94385  37.573  10.834   2.270
21961W        W94386  31.529  25.143  11.969
21962W        W94387  44.873   6.695   0.286
21963W        W94388  12.270  20.252  13.480
21964W        W94389  38.562  39.409   3.727
21965W        W94390  14.094   3.883   0.474
21966W        W94391   0.814   9.266  12.387
21967W        W94392  16.721   5.921  10.596
21968W        W94393  38.539  43.315   4.173
21969W        W94394  10.308  17.216   5.319
21970W        W94395  34.470  24.210  13.962
21971W        W94396  36.044  22.576   2.699
21972W        W94397  26.045   7.811   4.798
21973W        W94398  30.638  44.312   3.685
21974W        W94399   3.773   0.458   0.397
21975W        W94400  26.686  39.536  13.845
21976W        W94401   3.364   0.488   4.605
21977W        W94402  32.588  16.597   0.380
21978W        W94403   5.283   2.335   2.329
21979W        W94404  38.446  24.552  10.635
21980W        W94405   7.283  34.439   0.305
21981W        W94406  13.113  18.292   0.831
21982W        W94407  24.521   4.335   1.885
21983W        W94408  29.483  36.932  11.102
21984W        W94409  16.615  18.287   0.249
21985W        W94410  40.826  38.516  12.543
21986W        W94411  32.892  28.511  11.976
21987W        W94412   0.263   4.906  14.781
21988W        W94413  16.581  33.410  12.891
21989W        W94414   0.850  25.077  13.998
21990W        W94415   9.250  35.871  14.875
21991W        W94416   8.197  43.932   2.210
21992W        W94417  15.774  31.128   1.290
21993W        W94418  16.648  32.129  11.877
21994W        W94419  16.247   0.333   1.252
21995W        W94420  37.010   5.203   2.740
21996W        W94421   8.709  26.014  11.391
21997W        W94422   5.271  20.553   4.680
21998W        W94423  11.750   3.823   4.813
21999W        W94424  26.551   2.944  13.026
22000W        W94425  34.883   6.880   3.806
22001W        W94426   6.337   3.871   1.808
22002W        W94427  43.945  23.532   4.260
22003W        W94428  32.462   5.402   2.279
22004W        W94429  43.515  24.995   3.187
22005W        W94430  22.113  17.651   4.633
22006W        W94431  30.094  30.003  11.900
22007W        W94432   6.347  20.251  14.781
22008W        W94433  40.038   2.445  13.821
22009W        W94434   9.169   5.885  13.834
22010W        W94435   1.964  11.186   4.776
22011W        W94436   0.875  39.814  14.761
22012W        W94437  31.071  19.599   2.323
22013W        W94438  31.919  37.955  12.572
22014W        W94439  27.473  30.103   4.181
22015W        W94440  27.672   6.780  13.841
22016W        W94441  24.229  33.050   0.793
22017W        W94442  25.140   7.185  13.993
22018W        W94443  37.438   2.423  11.459
22019W        W94444  37.378  40.308   4.168
22020W        W94445  30.152  13.809   2.200
22021W        W94446  19.109   0.783  13.035
22022W        W94447   5.421   2.406   3.290
22023W        W94448   7.845   9.302   1.234
22024W        W94449  30.472   2.315   1.721
22025W        W94450  27.195   3.256  12.919
22026W        W94451  24.075  23.597   4.739
22027W        W94452  32.037   2.427  12.957
22028W        W94453  41.398  28.061  10.617
22029W        W94454   3.442  27.011   1.255
22030W        W94455  27.090  35.104  13.956
22031W        W94456   2.773  12.301   0.415
22032W        W94457  22.590  16.113  11.877
22033W        W94458  39.979  22.548   0.345
22034W        W94459   4.263   1.758   4.600
22035W        W94460  25.036   3.390  12.859
22036W        W94461   5.838  37.865  10.500
22037W        W94462  19.752   5.928  13.038
22038W        W94463  37.849   2.874   0.921
22039W        W94464  23.705   6.261   0.344
22040W        W94465   8.345  32.635   1.853
22041W        W94466  25.196  37.000   4.707
22042W        W94467   9.187  27.126   1.709
22043W        W94468  18.072   5.738   1.877
22044W        W94469  44.399  35.525  11.010
22045W        W94470   7.197  24.550  10.619
22046W        W94471   8.691  38.482   1.387
22047W        W94472  37.400  18.579  14.309
22048W        W94473  23.652  41.476   0.798
22049W        W94474  22.165   2.933   2.746
22050W        W94475  13.281  43.958  14.427
22051W        W94476  22.038   9.195  10.583
22052W        W94477  26.017  39.428  12.848
22053W        W94478  41.032   8.759   2.852
22054W        W94479  43.274   5.920   0.907
22055W        W94480  25.520  22.243   4.179
22056W        W94481  27.174  36.975  14.510
22057W        W94482  34.015  23.998   0.278
22058W        W94483  24.561   3.873   4.202
22059W        W94484  25.630   0.284   0.442
22060W        W94485  29.625  36.545   4.647
22061W        W94486  26.961  43.864  10.474
22062W        W94487  40.973  31.007  13.360
22063W        W94488   0.426  25.486  11.584
22064W        W94489  23.018  24.639   0.941
22065W        W94490  35.452  24.660   3.212
22066W        W94491  13.669  41.865  11.499
22067W        W94492  27.978  15.107  12.378
22068W        W94493   5.741  15.680   4.751
22069W        W94494  15.175  33.022  11.091
22070W        W94495  25.191  38.067   1.444
22071W        W94496   3.319  12.770  10.644
22072W        W94497  20.046   3.327   2.847
22073W        W94498  34.481   8.385   0.467
22074W        W94499  11.634  24.214   0.395
22075W        W94500  12.698  31.921   3.287
22076W        W94501  30.948  16.714   5.207
22077W        W94502  42.385  34.095   2.270
22078W        W94503  12.153  21.041   1.420
22079W        W94504  10.753  29.434   0.744
22080W        W94505   5.317  38.048   4.760
22081W        W94506   0.848  16.174   1.235
22082W        W94507  13.746  34.873  14.944
22083W        W94508  27.078  38.538   0.313
22084W        W94509   7.350   9.183   0.293
22085W        W94510  14.121  35.076  13.004
22086W        W94511   5.370   8.332  12.935
22087W        W94512  12.764   4.827   1.909
22088W        W94513  23.633  38.868  13.390
22089W        W94514  11.149  40.882  12.379
22090W        W94515  31.618  32.918  12.341
22091W        W94516  32.886   0.315  14.431
22092W        W94517  38.975   8.375  13.821
22093W        W94518  12.192  36.548   3.794
22094W        W94519  39.470  24.540  14.763
22095W        W94520  15.255  19.057   3.714
22096W        W94521  39.897   0.416   5.167
22097W        W94522  43.314  28.569   4.251
22098W        W94523  30.532  19.557   0.875
22099W        W94524  22.644  27.539   3.306
22100W        W94525   0.372  37.475   4.801
22101W        W94526  34.449  44.388  12.390
22102W        W94527  31.906  25.970  13.934
22103W        W94528  11.641  39.894  11.947
22104W        W94529  33.537   6.743  12.035
22105W        W94530  17.583  37.057   4.247
22106W        W94531   5.869  34.115   4.775
22107W        W94532   9.249   2.257   4.271
22108W        W94533  23.527   1.809   2.250
22109W        W94534   8.892  29.539  13.985
22110W        W94535  43.932  17.732  13.310
22111W        W94536  28.107   8.878   1.742
22112W        W94537  21.698  44.484   1.238
22113W        W94538  19.061  16.658  12.984
22114W        W94539  17.663  23.499  14.456
22115W        W94540  26.064   0.919  12.960
22116W        W94541  39.426  32.928   0.953
22117W        W94542  39.904  24.617  12.535
22118W        W94543  24.515   6.418   3.700
22119W        W94544  41.907  18.592  12.075
22120W        W94545  26.693  23.506   2.893
22121W        W94546  40.347  39.334  12.004
22122W        W94547  14.626  20.261   2.793
22123W        W94548  22.580  16.731   1.914
22124W        W94549  41.322  16.177  12.025
22125W        W94550  22.522  32.560  13.965
22126W        W94551  23.011  42.936  12.047
22127W        W94552  29.552   2.734   1.322
22128W        W94553  19.167  36.878   4.833
22129W        W94554   7.271  37.846   4.221
22130W        W94555  14.300  26.953  11.124
22131W        W94556   3.777  14.323  13.423
22132W        W94557  20.265   5.298   0.291
22133W        W94558   5.887   9.703  13.997
22134W        W94559   1.935  33.077  14.809
22135W        W94560   9.371  41.410  14.938
22136W        W94561   7.752   9.236   0.749
22137W        W94562  20.601  33.567  12.827
22138W        W94563   1.776   9.393   2.789
22139W        W94564   5.365  14.721  13.869
22140W        W94565  32.990  23.103   0.317
22141W        W94566  29.994  34.935   4.297
22142W        W94567  34.594  17.169   4.752
22143W        W94568   8.875  22.217   2.677
22144W        W94569  16.748  19.741   0.826
22145W        W94570  20.590   4.789  11.562
22146W        W94571  13.231  14.156  11.486
22147W        W94572  43.912   7.704  10.519
22148W        W94573  37.363  39.549  13.967
22149W        W94574  17.128  15.675  12.908
22150W        W94575  40.375  15.696  13.825
22151W        W94576  15.683   5.877  11.991
22152W        W94577  20.202   7.711  14.438
22153W        W94578  21.746  21.189   0.377
22154W        W94579  38.853   0.372  10.516
22155W        W94580  43.273  13.819   0.264
22156W        W94581  13.250   5.786   4.794
22157W        W94582  36.981  36.877  13.980
22158W        W94583   1.440   8.253  13.934
22159W        W94584  43.804  22.613  11.472
22160W        W94585  12.837  21.148  12.579
22161W        W94586  42.362  18.147   0.443
22162W        W94587   6.823  36.006  14.994
22163W        W94588   1.346  26.174   3.646
22164W        W94589  23.580  14.171   0.804
22165W        W94590  22.208   7.863  14.293
22166W        W94591  37.581   0.334   3.632
22167W        W94592   3.237  15.734  10.529
22168W        W94593  33.498   6.782  13.834
22169W        W94594  39.413   0.392  10.938
22170W        W94595  33.568  40.376   2.382
22171W        W94596  17.257  27.549   0.749
22172W        W94597  26.533  30.157  13.906
22173W        W94598  45.000   5.213  14.009
22174W        W94599  35.014   7.903   1.787
22175W        W94600  23.097  35.542  10.621
22176W        W94601  21.050  31.578   1.770
22177W        W94602  38.863  32.066  13.966
22178W        W94603  32.890   9.171   0.801
22179W        W94604  39.883  40.471  12.965
22180W        W94605  11.326  25.963  11.413
22181W        W94606  16.717  18.613  11.067
22182W        W94607  23.126  27.959  13.414
22183W        W94608   4.897  12.260  13.056
22184W        W94609  11.631  19.105  10.971
22185W        W94610  13.609  33.879  13.954
22186W        W94611  29.610   4.844   2.668
22187W        W94612  11.344  15.227  13.495
22188W        W94613  32.915  19.142   5.670
22189W        W94614  22.549  27.593   1.300
22190W        W94615  22.050  31.127  13.892
22191W        W94616  37.076  42.917   0.928
22192W        W94617  20.706  35.439  12.538
22193W        W94618  41.851  30.536  13.011
22194W        W94619  40.807  27.511   4.681
22195W        W94620  10.207  43.343  13.426
22196W        W94621  35.873   1.840   4.142
22197W        W94622  17.259  29.641   0.769
22198W        W94623   4.394  42.975   1.901
22199W        W94624  26.990  25.543  10.896
22200W        W94625  36.954  39.037   2.694
22201W        W94626   0.492   5.422  14.959
22202W        W94627  10.159  22.515   2.677
22203W        W94628  13.115  35.420   1.210
22204W        W94629   3.813   8.894   4.701
22205W        W94630  33.895   9.334   0.244
22206W        W94631   4.399  23.677   0.270
22207W        W94632  44.393  16.596  11.512
22208W        W94633  14.823   8.875  14.871
22209W        W94634  33.020  42.288  12.568
22210W        W94635  22.625  35.458   2.262
22211W        W94636  36.859  43.365  14.011
22212W        W94637  15.660  35.929   2.743
22213W        W94638  35.970  35.980   4.269
22214W        W94639  12.245  13.113   2.680
22215W        W94640  15.671   3.933   3.264
22216W        W94641  11.183  40.897  11.998
22217W        W94642  14.795  26.651  11.972
22218W        W94643  23.633  30.592  12.355
22219W        W94644   9.317  35.861   3.806
22220W        W94645  14.788   7.877   4.292
22221W        W94646   7.255  11.148   0.323
22222W        W94647  36.446   0.969   4.648
22223W        W94648   7.748  30.469   2.294
22224W        W94649  42.967  16.663  12.957
22225W        W94650  21.519  28.990   0.385
22226W        W94651  42.776  15.596  11.432
22227W        W94652  43.417  40.482  10.089
22228W        W94653  24.141  37.883  14.391
22229W        W94654  24.985  12.272  12.453
22230W        W94655  32.958  20.707   3.214
22231W        W94656  35.056   9.286   1.908
22232W        W94657   4.226  33.937  11.598
22233W        W94658  21.203  14.108   2.345
22234W        W94659  14.734  19.699  14.292
22235W        W94660  12.854  30.087   3.855
22236W        W94661  44.320  22.622  14.004
22237W        W94662   7.321  26.102   2.179
22238W        W94663   5.256  32.118   4.181
22239W        W94664   2.323  10.262  14.002
22240W        W94665  19.541  10.831   1.391
22241W        W94666  15.227  43.362  12.455
22242W        W94667  41.919  24.539   2.209
22243W        W94668  10.325   8.226   5.185
22244W        W94669  36.509  29.063   0.870
22245W        W94670  10.877  24.610  13.484
22246W        W94671   8.876  37.882   4.272
22247W        W94672  32.090  39.957  11.521
22248W        W94673  35.599  44.850   2.685
22249W        W94674  22.111   0.306   4.200
22250W        W94675  18.674  23.086   1.843
22251W        W94676  40.539  27.067  13.945
22252W        W94677  33.965  29.105   4.285
22253W        W94678  22.570  24.029   1.907
22254W        W94679  38.933  13.351   3.343
22255W        W94680   3.253  18.093   3.647
22256W        W94681   6.843  39.397  12.016
22257W        W94682  10.154  22.531  13.533
22258W        W94683  28.588  43.816   1.273
22259W        W94684  30.454  38.999  14.930
22260W        W94685  21.073  15.601  14.772
22261W        W94686  18.595  24.625   1.442
22262W        W94687  14.794   3.243  13.467
22263W        W94688  44.805   5.224   3.827
22264W        W94689  35.042   9.222  11.060
22265W        W94690   7.768  20.132  13.392
22266W        W94691   3.361  38.557  10.427
22267W        W94692  19.777   5.406  12.869
22268W        W94693  20.601  17.104   4.700
22269W        W94694   8.847  24.552  14.467
22270W        W94695  28.990  17.092  13.924
22271W        W94696  22.116  32.542   4.759
22272W        W94697  26.081  21.175  12.548
22273W        W94698  44.469  29.130  11.587
22274W        W94699  31.109  41.956  14.328
22275W        W94700  39.012  27.127  11.090
22276W        W94701   0.869  28.084  11.594
22277W        W94702  18.215   1.293   0.917
22278W        W94703  26.622  33.580  13.390
22279W        W94704  40.400   0.251   2.895
22280W        W94705  23.567  26.038  13.412
22281W        W94706  41.817  20.636   1.253
22282W        W94707  20.098  37.538  13.357
22283W        W94708  42.940  19.687  13.374
22284W        W94709  32.994  11.788   3.838
22285W        W94710  43.773   9.751  12.066
22286W        W94711  42.366  27.972  14.321
22287W        W94712  16.721  31.097  14.988
22288W        W94713  43.927  32.020   3.845
22289W        W94714   5.845  22.628   1.716
22290W        W94715  23.094  19.697  12.889
22291W        W94716  42.005   3.418  11.007
22292W        W94717  34.406  39.954  10.894
22293W        W94718  40.308  14.098  12.040
22294W        W94719  27.998   4.302   3.767
22295W        W94720  32.474  12.668  12.012
22296W        W94721  13.622  40.979  11.077
22297W        W94722  33.124  11.642   0.265
22298W        W94723  34.479  17.227   0.822
22299W        W94724   4.733  38.476  12.050
22300W        W94725   7.784   6.698   0.871
22301W        W94726  11.343  34.096   3.769
22302W        W94727   9.284  16.148  13.829
22303W        W94728  15.252   0.314   4.242
22304W        W94729  26.151  20.109   4.329
22305W        W94730  43.850  11.650   2.672
22306W        W94731  16.791  23.010  13.964
22307W        W94732  32.477   9.845  10.496
22308W        W94733  21.082  25.693   1.778
22309W        W94734  44.423  40.942  13.516
22310W        W94735  10.325  38.471   3.360
22311W        W94736  43.444   3.260  10.062
22312W        W94737  22.693  33.121  13.481
22313W        W94738  19.670  32.981  12.525
22314W        W94739  36.570  23.005   0.771
22315W        W94740  41.031  29.967  14.499
22316W        W94741  27.590  11.846  11.983
22317W        W94742  10.265  26.521   1.259
22318W        W94743  11.803   8.787   0.283
22319W        W94744   1.880  33.397   3.666
22320W        W94745  43.330   3.721  13.508
22321W        W94746  21.153  34.459   2.329
22322W        W94747  35.971  11.854  14.979
22323W        W94748   6.288  40.405   3.797
22324W        W94749  36.052  19.542  10.445
22325W        W94750  31.458  12.672   4.328
22326W        W94751  44.413  26.634  14.489
22327W        W94752  28.514  23.092   4.786
22328W        W94753  16.228  21.186   2.315
22329W        W94754   4.430   4.209   2.358
22330W        W94755  36.098  17.647   4.204
22331W        W94756   1.859  39.459  11.857
22332W        W94757  37.418   1.438  11.024
22333W        W94758  15.629  39.813  12.954
22334W        W94759  14.714  21.157  11.574
22335W        W94760   7.305  26.155  12.826
22336W        W94761  40.830  28.077  10.991
22337W        W94762  37.981   1.345   0.810
22338W        W94763  15.600  37.580   2.184
22339W        W94764   6.308  39.332   4.780
22340W        W94765  11.234   6.910   2.851
22341W        W94766  27.061  43.408  10.559
22342W        W94767  30.633   0.985  11.108
22343W        W94768  29.159   5.918   0.400
22344W        W94769   0.386  11.710  12.473
22345W        W94770  24.720  21.258   2.398
22346W        W94771  27.949  21.675  10.499
22347W        W94772  31.086  21.177  13.836
22348W        W94773  25.690  11.710  11.029
22349W        W94774   7.747  13.701   1.402
22350W        W94775  18.601  32.902   4.607
22351W        W94776  27.059  29.150   5.190
22352W        W94777  39.508  36.845  11.895
22353W        W94778  30.156   7.783   3.864
22354W        W94779  44.881  34.465  10.481
22355W        W94780  15.769   1.405   2.783
22356W        W94781  35.011  41.787   0.813
22357W        W94782  42.467   4.291  14.299
22358W        W94783   8.712  29.473  10.513
22359W        W94784  34.906  19.699   2.364
22360W        W94785   9.727   7.410  12.007
22361W        W94786  34.614  38.450   1.724
22362W        W94787   9.249  15.094  12.459
22363W        W94788  17.708   8.895   2.692
22364W        W94789  15.702  15.822  12.874
22365W        W94790  26.646  43.372  14.938
22366W        W94791  20.256  44.007  14.999
22367W        W94792  41.342   9.189   0.859
22368W        W94793  44.904  39.418  13.497
22369W        W94794   7.382   4.841  13.029
22370W        W94795  31.086  10.236  14.025
22371W        W94796   5.864  41.900  12.567
22372W        W94797  32.951  23.003  12.575
22373W        W94798  42.886   5.372  11.888
22374W        W94799  43.500  25.672  11.063
22375W        W94800  37.520  10.773   3.172
22376W        W94801  20.726   1.458  12.421
22377W        W94802  36.465  24.636   0.837
22378W        W94803  15.649  32.604  13.520
22379W        W94804  10.341  11.804   4.754
22380W        W94805  13.172  43.951  12.578
22381W        W94806  23.065   7.768   1.904
22382W        W94807  13.751  14.797  14.351
22383W        W94808  41.492   0.249   3.383
22384W        W94809  36.530   0.890  10.469
22385W        W94810  31.056  14.634  11.413
22386W        W94811  38.538  33.601   1.228
22387W        W94812  29.129  35.382   1.344
22388W        W94813  39.325  41.868   2.891
22389W        W94814  39.880  35.970   0.784
22390W        W94815  38.436   9.759  12.967
22391W        W94816  13.635  42.371  14.015
22392W        W94817  44.276  30.085  13.426
22393W        W94818  11.732   7.773   0.322
22394W        W94819  35.446  44.274  14.769
22395W        W94820  18.553  37.365  13.008
22396W        W94821  40.989  34.967   2.889
22397W        W94822   7.415  32.534   3.197
22398W        W94823   3.812  37.481   1.775
22399W        W94824   9.728  32.908   1.316
22400W        W94825   2.437  27.117  12.501
22401W        W94826  32.424   4.251  12.426
22402W        W94827  32.513  34.547   0.279
22403W        W94828  28.083  23.722  10.519
22404W        W94829  37.520   3.928   2.858
22405W        W94830  11.328  32.473   0.739
22406W        W94831   1.816  16.167   3.336
22407W        W94832  41.806   5.316   3.222
22408W        W94833  19.778  44.438  13.962
22409W        W94834  35.402  36.096   2.720
22410W        W94835   7.322  12.285  11.032
22411W        W94836  16.197  30.541   4.630
22412W        W94837  22.725  34.998   0.937
22413W        W94838  32.141  22.536   2.331
22414W        W94839  33.433   8.787   0.877
22415W        W94840  14.202  11.276  11.418
22416W        W94841  27.059  10.841  10.980
22417W        W94842   5.327  31.970   3.214
22418W        W94843   2.377  11.249   3.711
22419W        W94844  16.653   1.803  12.506
22420W        W94845  43.891   7.349  11.390
22421W        W94846  25.208  44.887   3.639
22422W        W94847   0.347  38.361   2.379
22423W        W94848  42.359  16.160  13.938
22424W        W94849  17.649  22.669   2.237
22425W        W94850  30.528  41.468  14.314
22426W        W94851  23.057  26.654   1.239
22427W        W94852  43.011  27.608  13.528
22428W        W94853  19.729  18.764  11.894
22429W        W94854  13.765  27.457   1.399
22430W        W94855  17.729   7.790   1.319
22431W        W94856  26.561  13.265   0.872
22432W        W94857  30.028  11.161  11.126
22433W        W94858   7.738  17.184  13.387
22434W        W94859  33.619  43.829   2.837
22435W        W94860  33.412  37.410  11.062
22436W        W94861  40.921  29.025  10.966
22437W        W94862  15.155  23.699   0.842
22438W        W94863  33.085   6.818  13.410
22439W        W94864  18.144  35.483  14.906
22440W        W94865  40.033  28.447  13.380
22441W        W94866   0.488   0.414   4.113
22442W        W94867  38.476  20.598   3.766
22443W        W94868  35.079  39.015   2.269
22444W        W94869   8.378  38.504   3.343
22445W        W94870  26.484  14.185  10.562
22446W        W94871  41.037  35.945   2.874
22447W        W94872  27.137  41.448  12.399
22448W        W94873  44.838   7.413   2.691
22449W        W94874  13.295  33.497   4.302
22450W        W94875  22.167  34.934  12.447
22451W        W94876  23.552  10.236   5.111
22452W        W94877  16.633  25.607   4.326
22453W        W94878  35.561   1.320  10.928
22454W        W94879  14.605  35.053   2.382
22455W        W94880  24.072   0.859  14.938
22456W        W94881   2.857  23.594  13.888
22457W        W94882  27.490  25.181  14.464
22458W        W94883  35.375  35.504  13.357
22459W        W94884  42.338  12.347   4.194
22460W        W94885  21.559  21.593  11.120
22461W        W94886   7.324  10.839  13.912
22462W        W94887  10.218   3.844   1.875
22463W        W94888  33.083  31.057   1.884
22464W        W94889  24.513  44.773  12.958
22465W        W94890  42.998  26.956  10.512
22466W        W94891   3.811  13.273  11.034
22467W        W94892  21.666  40.417   2.344
22468W        W94893  37.065  26.668   0.733
22469W        W94894  39.839   0.936  10.605
22470W        W94895  28.030  28.013  11.605
22471W        W94896   9.273  34.499  11.011
22472W        W94897  11.777  22.739   4.251
22473W        W94898  35.961  21.644   3.777
22474W        W94899  11.269  33.501   0.325
22475W        W94900  18.786   1.352  11.995
22476W        W94901  22.745   5.434   1.789
22477W        W94902   8.231  21.017   1.808
22478W        W94903  13.656  41.447   0.879
22479W        W94904  27.137  24.607   2.303
22480W        W94905   7.861   2.783  13.516
22481W        W94906  28.156  39.921  13.057
22482W        W94907  20.714   2.385   1.733
22483W        W94908  42.785  33.022   1.447
22484W        W94909  20.629  37.505   0.477
22485W        W94910  24.037  30.977   2.223
22486W        W94911   2.427  17.209   0.430
22487W        W94912  24.088  23.530   1.428
22488W        W94913   7.256   7.695   0.352
22489W        W94914  33.930  10.258   1.331
22490W        W94915  38.953  16.127   3.818
22491W        W94916  34.426  21.089   2.188
22492W        W94917  23.984  43.773  13.450
22493W        W94918  28.024   1.374  10.899
22494W        W94919  12.673  44.807   4.603
22495W        W94920  40.837  43.351   0.477
22496W        W94921   0.896   0.941   1.399
22497W        W94922   7.693  12.673   4.709
22498W        W94923   4.210  37.507   2.688
22499W        W94924  20.679  25.474   3.294
22500W        W94925   1.960  17.634   1.869
22501W        W94926  41.459   5.370   3.177
22502W        W94927   2.292  26.496   2.371
22503W        W94928  16.682   1.742   0.316
22504W        W94929  43.443  10.140  12.376
22505W        W94930  14.119  17.724  13.542
22506W        W94931  10.837  30.629  12.413
22507W        W94932  34.952  15.086  14.945
22508W        W94933  40.003  41.335  12.871
22509W        W94934  24.599  28.444  13.316
22510W        W94935  11.177  44.876   1.311
22511W        W94936   9.349  18.266  11.383
22512W        W94937  24.502  43.947  10.404
22513W        W94938  14.706   1.252   2.793
22514W        W94939  36.374   4.431  12.085
22515W        W94940  18.243  42.972  12.420
22516W        W94941  14.180  20.129  10.587
22517W        W94942  35.498  39.443   1.229
22518W        W94943  42.026  10.853   1.236
22519W        W94944  24.587  32.129   4.133
22520W        W94945   5.870   2.328   0.854
22521W        W94946   6.844  12.273  14.910
22522W        W94947  31.099  13.131  11.930
22523W        W94948  43.886  41.814   0.786
22524W        W94949  10.350  17.630  12.019
22525W        W94950   1.315  13.671  14.797
22526W        W94951  41.972  27.030  13.925
22527W        W94952  26.009   8.728   4.821
22528W        W94953  15.713  34.955  14.477
22529W        W94954  36.372  14.125  14.856
22530W        W94955   4.224   6.738  14.505
22531W        W94956  12.224  21.737  13.365
22532W        W94957  15.802  42.907  11.962
22533W        W94958  15.211  43.513  14.876
22534W        W94959  25.066  21.527   2.336
22535W        W94960  41.929  20.087  14.015
22536W        W94961   0.254  44.835   1.219
22537W        W94962  13.753  28.032   2.680
22538W        W94963  13.792   2.762  14.026
22539W        W94964  37.069  37.385   2.752
22540W        W94965  11.704  14.787   1.300
22541W        W94966  34.045   3.879  10.561
22542W        W94967  37.494  43.797   1.745
22543W        W94968   5.803   5.807   2.731
22544W        W94969  22.670   9.734   1.214
22545W        W94970  22.102  12.240  12.983
22546W        W94971  31.629   6.350  14.309
22547W        W94972  14.776  42.363   0.250
22548W        W94973  41.022  14.752  11.605
22549W        W94974  31.618  21.595  12.527
22550W        W94975  32.557  14.229   1.768
22551W        W94976  18.623  33.007  14.925
22552W        W94977  36.491  24.702  12.823
22553W        W94978  13.807  42.972   0.415
22554W        W94979  10.662  41.863   4.148
22555W        W94980  15.325  28.618  11.879
22556W        W94981   2.435  36.525  12.570
22557W        W94982   7.796  22.727   1.900
22558W        W94983   8.297  32.919   1.859
22559W        W94984   5.287  32.094   4.822
22560W        W94985   4.316   9.733   2.813
22561W        W94986  17.133  42.954  13.012
22562W        W94987  34.518   5.769  12.053
22563W        W94988  13.708  13.721   3.171
22564W        W94989  16.223   0.416  12.914
22565W        W94990  43.976   8.807   4.230
22566W        W94991  18.633  18.735   1.860
22567W        W94992  24.490   6.752  12.074
22568W        W94993  10.848  30.025  12.912
22569W        W94994  42.810  19.598  10.947
22570W        W94995  22.607  41.887  14.350
22571W        W94996  34.890  36.037  12.442
22572W        W94997   3.870  44.332  14.808
22573W        W94998   6.763  38.909   0.812
22574W        W94999   2.447   8.372  14.300
22575W        W95000  44.773  10.776   4.281
22576W        W95001   3.736  42.941   0.465
22577W        W95002   8.706  38.903   5.099
22578W        W95003  36.471  17.568   0.917
22579W        W95004  15.304  27.669   1.729
22580W        W95005  34.613  34.960  12.558
22581W        W95006  23.675  41.800  12.004
22582W        W95007  29.938  31.536   2.674
22583W        W95008   5.814  29.531   2.716
22584W        W95009  38.433  36.899  13.978
22585W        W95010  40.960  39.932  13.804
22586W        W95011  20.624  40.945   3.663
22587W        W95012  29.452  40.475   2.380
22588W        W95013   8.362   5.823   5.310
22589W        W95014  35.436   6.717   3.823
22590W        W95015  25.107  17.083  11.435
22591W        W95016   9.164  30.019  11.553
22592W        W95017  24.526  31.467   2.324
22593W        W95018  37.996  12.160  14.920
22594W        W95019   3.368  35.403  12.010
22595W        W95020   5.707  28.131  12.049
22596W        W95021  27.519   2.258  12.853
22597W        W95022  39.445   8.891  11.495
22598W        W95023  11.740   7.891   3.235
22599W        W95024   8.677   9.710   9.956
22600W        W95025  29.127  16.270   3.346
22601W        W95026  16.150  33.512  14.445
22602W        W95027  37.073   2.415  14.483
22603W        W95028  23.237   6.290  11.095
22604W        W95029   1.238   7.747  14.833
22605W        W95030   6.325  40.799  10.974
22606W        W95031  19.580   7.813   3.323
22607W        W95032  37.927  22.156   5.785
22608W        W95033  23.508  36.850  14.956
22609W        W95034  23.563  28.053  10.601
22610W        W95035  32.121  29.432  14.922
22611W        W95036   3.386  44.490   0.371
22612W        W95037  19.215   2.802   0.308
22613W        W95038  33.904  15.722  11.608
22614W        W95039  42.934  14.296  10.070
22615W        W95040  16.082  25.484   4.606
22616W        W95041  14.119   0.321  14.424
22617W        W95042  29.509  41.824   0.750
22618W        W95043  31.479  43.849  12.506
22619W        W95044   7.707  32.963  12.856
22620W        W95045   9.775  32.422   4.295
22621W        W95046  24.197   6.380  10.935
22622W        W95047  23.535  18.178   1.264
22623W        W95048  32.526   3.773   2.818
22624W        W95049  19.686  11.348   1.225
22625W        W95050   8.318  44.992   4.819
22626W        W95051  38.538  42.492  10.428
22627W        W95052  39.825  41.835  14.279
22628W        W95053  14.734  32.964   4.351
22629W        W95054  31.503  41.477   1.860
22630W        W95055  12.312   1.953   1.377
22631W        W95056   7.724  29.020   0.354
22632W        W95057  15.131  22.145   1.811
22633W        W95058  41.325   3.377  12.863
22634W        W95059  35.945  30.571  14.001
22635W        W95060   0.873  32.072  14.876
22636W        W95061   5.753  35.948   5.282
22637W        W95062  41.935  35.596  12.093
22638W        W95063  13.690  23.574   3.663
22639W        W95064  26.034  13.746  13.523
22640W        W95065  30.506  21.593  11.036
22641W        W95066  40.305  43.804   4.648
22642W        W95067  31.043  17.765   2.802
22643W        W95068  38.543  44.924   9.587
22644W        W95069   5.766  21.536   0.944
22645W        W95070   3.846  28.518  10.564
22646W        W95071   9.321  33.034  13.969
22647W        W95072  15.729  18.767  10.003
22648W        W95073  25.091  40.455  12.052
22649W        W95074  43.970  10.263   2.848
22650W        W95075  40.491  12.123   4.142
22651W        W95076  22.571  41.942  12.036
22652W        W95077  34.575  11.273  10.460
22653W        W95078   9.695  43.930  10.628
22654W        W95079  41.503  37.441   3.193
22655W        W95080  39.542  35.584   4.731
22656W        W95081  31.594  13.184   0.349
22657W        W95082  41.458  17.565  11.377
22658W        W95083  17.560  32.392   1.288
22659W        W95084  20.104  35.910   1.923
22660W        W95085  32.126  33.394   3.804
22661W        W95086  40.898  12.302  14.919
22662W        W95087  17.719   6.919  12.414
22663W        W95088  43.400   5.812   3.847
22664W        W95089  20.759  22.620  11.433
22665W        W95090  21.175  43.765   3.368
22666W        W95091  28.681  11.359  12.895
22667W        W95092  39.512  17.290   0.785
22668W        W95093  25.468  30.574   1.270
22669W        W95094   8.721  42.940  10.437
22670W        W95095   7.337  37.907   4.748
22671W        W95096  36.478  11.231   4.822
22672W        W95097   7.253  36.027  12.544
22673W        W95098  25.160  22.052  11.540
22674W        W95099  21.676  41.374   3.801
22675W        W95100  20.083  40.017   4.780
22676W        W95101  23.613  31.960   1.384
22677W        W95102  33.623   4.310  13.890
22678W        W95103  35.395  29.525   3.283
22679W        W95104  28.475  10.347   5.305
22680W        W95105  27.497   6.350   4.736
22681W        W95106  14.720  11.656  14.947
22682W        W95107   7.911  41.394   4.292
22683W        W95108   7.317  35.072  12.341
22684W        W95109  23.188  37.866   1.834
22685W        W95110  23.580  28.067   2.398
22686W        W95111  30.546  28.015  10.628
22687W        W95112  30.478  17.206   5.296
22688W        W95113  25.096  22.619  13.318
22689W        W95114  39.487  38.555  13.826
22690W        W95115  35.877  21.612   3.173
22691W        W95116   6.368  22.131   0.476
22692W        W95117  23.669  18.051   0.872
22693W        W95118  29.539  21.690   3.726
22694W        W95119  22.132  19.576  10.995
22695W        W95120  37.508  39.960  11.856
22696W        W95121  42.985  31.127  13.347
22697W        W95122  18.650   8.273  12.437
22698W        W95123  39.049  13.256  13.535
22699W        W95124  17.088  43.967  10.534
22700W        W95125  34.036  35.026  11.459
22701W        W95126  20.696  12.197  14.932
22702W        W95127  12.842  38.537   1.881
22703W        W95128   3.915  43.996   3.222
22704W        W95129  40.014  15.327  10.949
22705W        W95130  28.619  42.296  11.392
22706W        W95131  43.420  10.650   4.677
22707W        W95132  44.997   5.262   4.725
22708W        W95133  26.569  22.186   2.345
22709W        W95134  38.562   6.188   1.770
22710W        W95135  25.025  27.105  10.633
22711W        W95136   9.334  14.791  12.085
22712W        W95137  18.237  22.571  13.439
22713W        W95138  28.614  30.610   4.129
22714W        W95139  38.982   2.819  12.418
22715W        W95140  20.132  29.029   4.736
22716W        W95141  25.498  36.463   1.404
22717W        W95142  32.130   1.401  12.486
22718W        W95143  11.824  22.010  13.049
22719W        W95144  16.301   3.337  13.444
22720W        W95145  14.267  40.522  14.479
22721W        W95146  35.965  41.880  13.450
22722W        W95147  23.659  33.442  12.450
22723W        W95148  34.990  18.628  12.063
22724W        W95149  32.538   5.849  13.483
22725W        W95150  15.140   1.809   1.856
22726W        W95151  40.974  18.612   3.336
22727W        W95152  12.741  43.314  13.043
22728W        W95153  37.443  26.471  14.822
22729W        W95154  22.030  12.782   4.135
22730W        W95155  20.222   1.879   5.301
22731W        W95156  30.531  22.521   5.207
22732W        W95157  30.515  31.533  13.012
22733W        W95158  40.418  44.801  11.980
22734W        W95159  34.034  16.576  12.428
22735W        W95160  13.696  28.455   0.925
22736W        W95161  12.171  10.656   2.834
22737W        W95162  36.980  35.505  13.935
22738W        W95163  44.481  17.251  13.405
22739W        W95164  35.545  13.641  14.488
22740W        W95165   5.762  34.417  12.989
22741W        W95166  13.703   4.445  10.574
22742W        W95167  23.649  18.694  13.982
22743W        W95168  21.537  19.588   5.098
22744W        W95169   3.854  33.503  13.803
22745W        W95170  39.856  17.704   0.739
22746W        W95171  24.696  39.491  12.051
22747W        W95172  33.607  12.798  14.994
22748W        W95173  43.304  16.119   2.808
22749W        W95174  18.265  17.136  14.828
22750W        W95175   0.822  42.854   2.219
22751W        W95176  29.511  17.098  11.475
22752W        W95177  10.837   5.831  12.965
22753W        W95178  28.161  34.089  12.394
22754W        W95179  34.067  40.330  11.008
22755W        W95180  18.764  32.968   3.841
22756W        W95181   5.329  37.959  11.441
22757W        W95182  40.853  31.566   0.422
22758W        W95183   4.270  14.340  13.316
22759W        W95184  18.073   9.721  11.534
22760W        W95185  19.642   3.825  13.991
22761W        W95186  26.629  42.990   1.714
22762W        W95187  16.133  30.619  10.967
22763W        W95188   3.851   2.473   4.339
22764W        W95189  16.713   1.950   5.161
22765W        W95190  16.216   1.874   9.984
22766W        W95191  18.092  35.519  11.925
22767W        W95192  31.915  27.663   2.370
22768W        W95193  36.931  23.117  13.884
22769W        W95194  15.208   8.266  12.367
22770W        W95195  18.553  31.471   2.285
22771W        W95196   9.337   8.807  13.930
22772W        W95197  44.825  43.411   0.739
22773W        W95198  23.022  13.764   0.794
22774W        W95199   4.347  25.132   3.796
22775W        W95200  35.902  14.165  11.603
22776W        W95201  36.531  22.719  14.009
22777W        W95202  20.710  43.448  14.308
22778W        W95203   9.341  27.590  11.380
22779W        W95204  37.840  15.182   1.906
22780W        W95205  33.539  32.566   2.783
22781W        W95206  23.510   8.757  12.561
22782W        W95207  29.980  32.060  12.517
22783W        W95208  40.964  32.909  14.474
22784W        W95209  44.336  12.855   3.811
22785W        W95210  37.048  11.257  12.044
22786W        W95211  21.709  16.656   2.292
22787W        W95212  34.383  36.584   1.290
22788W        W95213   1.280   1.252   4.190
22789W        W95214  33.598  17.280  10.593
22790W        W95215  30.920   0.975   3.631
22791W        W95216   9.646  23.085  13.980
22792W        W95217  15.671  15.227   0.757
22793W        W95218  41.977  20.572  14.889
22794W        W95219  40.941   8.866   3.840
22795W        W95220  14.809  24.675  13.449
22796W        W95221   0.888  13.831  10.930
22797W        W95222  32.058  18.766   2.663
22798W        W95223   2.753  43.982  10.629
22799W        W95224   0.339  43.008   0.256
22800W        W95225  24.695  43.489  11.079
22801W        W95226  16.301  16.096  14.890
22802W        W95227  31.907   3.732  13.988
22803W        W95228  33.960   5.722  13.024
22804W        W95229  28.032  35.943  11.127
22805W        W95230  18.184   0.381   3.281
22806W        W95231  42.904  26.615  12.544
22807W        W95232  35.970  15.600   3.729
22808W        W95233  26.518  10.276   4.332
22809W        W95234  34.602  42.505  10.501
22810W        W95235   1.430  18.190  14.378
22811W        W95236  24.192  10.810  13.041
22812W        W95237  31.509  19.052   2.371
22813W        W95238  36.917  19.679  11.016
22814W        W95239   5.742  12.175  11.393
22815W        W95240  37.863  39.472   1.399
22816W        W95241  33.479   2.452   2.699
22817W        W95242   9.692  14.657  10.973
22818W        W95243  26.099   6.300  14.851
22819W        W95244  14.306   9.269  12.537
22820W        W95245  22.253  28.582   0.279
22821W        W95246  35.419  31.058  14.402
22822W        W95247  29.466  32.141  11.874
22823W        W95248  37.928  28.639   1.272
22824W        W95249  29.131   9.664  14.476
22825W        W95250   8.840  26.657   2.401
22826W        W95251   2.361  40.905  14.990
22827W        W95252  41.445  21.737  10.441
22828W        W95253  12.665  20.613   3.658
22829W        W95254  24.172  19.051   3.313
22830W        W95255  14.329  27.563  13.791
22831W        W95256  38.363  24.562  14.439
22832W        W95257  18.759   4.873   2.841
22833W        W95258  10.311  13.673  11.405
22834W        W95259  29.112  41.899  10.510
22835W        W95260  33.427   6.300  10.980
22836W        W95261  23.217  25.647  13.319
22837W        W95262  18.642  18.673   2.807
22838W        W95263   0.757  34.880   2.217
22839W        W95264  32.973   2.794   3.757
22840W        W95265   4.380  13.736  10.571
22841W        W95266   1.756   3.809  12.343
22842W        W95267  20.099  26.486  10.040
22843W        W95268  41.452   8.839  11.506
22844W        W95269  16.292  29.048   2.304
22845W        W95270   1.482  23.682   2.270
22846W        W95271  32.586   4.260  10.562
22847W        W95272   5.329  41.939   2.332
22848W        W95273   8.706  21.039  10.489
22849W        W95274  30.540  41.517   4.781
22850W        W95275   1.469   6.709   1.444
22851W        W95276  41.967  39.995   4.626
22852W        W95277   1.395  30.115   2.784
22853W        W95278  36.944   2.400   4.217
22854W        W95279   0.758  14.772  12.970
22855W        W95280   1.856  15.761   1.770
22856W        W95281   0.902  17.766   3.870
22857W        W95282  31.411  44.331  12.489
22858W        W95283  38.428   2.744  12.406
22859W        W95284  11.179   9.213   0.321
22860W        W95285  11.680  40.842  12.854
22861W        W95286  27.054  15.616   0.436
22862W        W95287  31.525  13.152  13.539
22863W        W95288  29.558  34.543  14.445
22864W        W95289  14.186   9.804   9.966
22865W        W95290  12.649  26.966  14.430
22866W        W95291  36.967  16.806  12.082
22867W        W95292  13.293   0.880   3.754
22868W        W95293  15.146  27.137   3.291
22869W        W95294   4.230  35.992  13.960
22870W        W95295  42.004  35.883  11.942
22871W        W95296   9.303  12.162  12.994
22872W        W95297   7.835  13.792  14.815
22873W        W95298  33.053   7.800   2.182
22874W        W95299  41.304  11.706   1.861
22875W        W95300   4.409  39.446  14.009
22876W        W95301   3.804  10.733   1.824
22877W        W95302  30.935  13.258  14.773
22878W        W95303   7.736  15.180  11.529
22879W        W95304  20.035  38.442  14.027
22880W        W95305  29.102  18.774   4.612
22881W        W95306  15.730  23.623   2.848
22882W        W95307   1.340  30.637   1.414
22883W        W95308  18.721  40.843  12.979
22884W        W95309  17.303   0.474   1.320
22885W        W95310  35.394   6.319   0.934
22886W        W95311  39.472  17.722  13.547
22887W        W95312   8.831  20.084   4.649
22888W        W95313   5.780   3.908   4.175
22889W        W95314  11.202   1.315   4.634
22890W        W95315  21.531  41.465  12.398
22891W        W95316  37.374  33.095   3.671
22892W        W95317  10.844   0.366  11.916
22893W        W95318   1.856   7.743  10.468
22894W        W95319  28.185  24.491   0.736
22895W        W95320  27.508  18.732   0.368
22896W        W95321  15.823  43.931  13.911
22897W        W95322  26.153  27.614   4.173
22898W        W95323   5.801  34.904  14.776
22899W        W95324  27.126  35.415  13.854
22900W        W95325  32.106  17.633   1.705
22901W        W95326  23.161  23.008  11.938
22902W        W95327  23.181   4.427  13.367
22903W        W95328   7.682  14.233   0.381
22904W        W95329   4.762  42.947  12.552
22905W        W95330  23.990  42.452  12.492
22906W        W95331  12.669  23.671   3.341
22907W        W95332  40.466  24.199  11.102
22908W        W95333  23.045   2.322  14.889
22909W        W95334  12.645   0.460   0.930
22910W        W95335  42.492  11.245  14.956
22911W        W95336  41.944  30.163   3.292
22912W        W95337  28.442  16.111   2.313
22913W        W95338   1.759  19.180   4.654
22914W        W95339  36.493   5.788   3.193
22915W        W95340  13.270   8.700  11.411
22916W        W95341  33.527   9.242  14.839
22917W        W95342   0.484   3.923   0.913
22918W        W95343  30.580  10.762  11.894
22919W        W95344  12.351   8.214   3.747
22920W        W95345  27.093   6.800   4.708
22921W        W95346  38.956  32.576  13.972
22922W        W95347  35.094  16.255   3.270
22923W        W95348  18.681  26.519   0.419
22924W        W95349  35.945  12.649  11.943
22925W        W95350  24.194  14.692  10.585
22926W        W95351  30.438  44.444  14.359
22927W        W95352  40.895  22.636  12.877
22928W        W95353  25.657  32.556  13.834
22929W        W95354   1.859  21.534  12.569
22930W        W95355   1.389  37.989   3.365
22931W        W95356   2.767  37.043   1.437
22932W        W95357  34.370  32.914  11.490
22933W        W95358   4.825   8.193  14.309
22934W        W95359   5.805  24.155   3.819
22935W        W95360   4.755  28.978   1.783
22936W        W95361  15.682   3.302  10.558
22937W        W95362  24.642  44.467  12.849
22938W        W95363  34.095  23.239  11.895
22939W        W95364  39.046  24.620   3.254
22940W        W95365  29.442  27.098   4.198
22941W        W95366   4.228  35.463  10.546
22942W        W95367  19.709  19.047   4.833
22943W        W95368  10.199  30.635   0.266
22944W        W95369  28.952  38.431  11.105
22945W        W95370  42.466  26.984   0.927
22946W        W95371   5.264  39.952   4.739
22947W        W95372  44.459  15.203   1.364
22948W        W95373  10.719  17.216   1.840
22949W        W95374  12.640  13.297  11.525
22950W        W95375   4.330   3.284   1.216
22951W        W95376  44.870  43.941   3.734
22952W        W95377  15.722  17.133   1.885
22953W        W95378  26.591   0.443   1.275
22954W        W95379   4.833  31.511  10.462
22955W        W95380  40.047  34.910   0.835
22956W        W95381  36.927  24.219  13.488
22957W        W95382  29.026  10.759   4.800
22958W        W95383  31.524  32.969  12.895
22959W        W95384  31.987  31.641  11.855
22960W        W95385   9.807  27.058  11.967
22961W        W95386  15.698  40.964   2.191
22962W        W95387   5.824  19.552  12.501
22963W        W95388  31.632   3.748   3.834
22964W        W95389  39.929  24.065   0.862
22965W        W95390  14.280  11.349   0.889
22966W        W95391  17.724  39.903   3.826
22967W        W95392  24.150  33.498   0.391
22968W        W95393  25.547  43.365   2.743
22969W        W95394  21.162  41.918   0.452
22970W        W95395  42.015  41.869  12.381
22971W        W95396  21.187  25.567   2.667
22972W        W95397  41.929  22.106  11.895
22973W        W95398  12.266   1.388   3.827
22974W        W95399  15.278   7.242  13.047
22975W        W95400  25.964   1.918   2.320
22976W        W95401  33.114  38.445   4.352
22977W        W95402  39.450  17.187  13.481
22978W        W95403   6.376  43.923   0.357
22979W        W95404  33.549   4.237   1.418
22980W        W95405  20.029  16.260   4.280
22981W        W95406  38.380  13.254   3.172
22982W        W95407  28.038   2.298  10.049
22983W        W95408  37.533  31.944   2.322
22984W        W95409  22.020  17.720  12.971
22985W        W95410   3.954  33.623   1.860
22986W        W95411  32.607  29.482   1.726
22987W        W95412  13.295   6.415  13.351
22988W        W95413  19.639  12.810  11.992
22989W        W95414  31.129  22.539   0.886
22990W        W95415  25.171  43.934  10.619
22991W        W95416   3.870  42.859   4.834
22992W        W95417  33.383  41.403  10.410
22993W        W95418   2.373  43.333   2.344
22994W        W95419  15.652  16.611  14.299
22995W        W95420  35.878  10.638  11.454
22996W        W95421  34.070  24.195   3.790
22997W        W95422  19.161  42.978   3.204
22998W        W95423  22.220  23.493  14.913
22999W        W95424  38.447  15.306  11.460
23000W        W95425  17.094  17.107   3.727
23001W        W95426   8.724   3.945   3.168
23002W        W95427  26.495  44.394   5.285
23003W        W95428  28.131  23.733   2.214
23004W        W95429  27.084   1.471  11.392
23005W        W95430   6.872   6.889  13.441
23006W        W95431  21.696  14.130   2.812
23007W        W95432  17.612  38.990   3.669
23008W        W95433  22.665   1.855  14.869
23009W        W95434  31.410  13.322  13.947
23010W        W95435  40.942  25.513   0.400
23011W        W95436   2.390   6.867  14.915
23012W        W95437   7.344  38.959   5.298
23013W        W95438  30.065  44.475   0.397
23014W        W95439  37.475  17.262  10.966
23015W        W95440  33.886  37.349  11.550
23016W        W95441  10.755  13.288  11.530
23017W        W95442   0.984  29.923  13.379
23018W        W95443  21.094  19.221   2.883
23019W        W95444  19.255  35.063  11.954
23020W        W95445  23.588  14.820  11.957
23021W        W95446   2.758  33.591  12.844
23022W        W95447  28.158  11.742  12.392
23023W        W95448  27.943  28.638   0.328
23024W        W95449  39.503  10.869  12.455
23025W        W95450  15.719  28.130  12.897
23026W        W95451  34.420  24.725  11.582
23027W        W95452   0.264  30.023  10.499
23028W        W95453  42.961  27.132   0.919
23029W        W95454  22.107  23.173   1.717
23030W        W95455  43.972   8.809   3.267
23031W        W95456   3.722   0.460   3.322
23032W        W95457   1.444   5.784  11.935
23033W        W95458  21.604   6.706   3.777
23034W        W95459  30.515  33.941   2.704
23035W        W95460  36.400   7.824  11.517
23036W        W95461  39.867  43.461  11.046
23037W        W95462   7.696  16.801  11.968
23038W        W95463   0.421  29.658   1.919
23039W        W95464  28.654  28.657   4.836
23040W        W95465  17.559  33.585   4.208
23041W        W95466  24.187  20.622  11.104
23042W        W95467  28.585  39.938  11.514
23043W        W95468  31.107  16.102  12.439
23044W        W95469   7.322   1.779   2.721
23045W        W95470  10.847   8.365  10.069
23046W        W95471  10.297  24.552   2.180
23047W        W95472  39.476  19.220   3.817
23048W        W95473  24.668  29.517  11.506
23049W        W95474  27.096  26.505  13.379
23050W        W95475  44.430  13.175   1.797
23051W        W95476  42.878  34.051  14.883
23052W        W95477   8.829  15.809  11.984
23053W        W95478  19.609  39.972   4.348
23054W        W95479  14.719  16.621  11.894
23055W        W95480  23.690  19.667  14.772
23056W        W95481  15.715  18.747  14.465
23057W        W95482  26.963   9.834   2.753
23058W        W95483  20.100  38.467   4.722
23059W        W95484  14.798   0.887   3.847
23060W        W95485  26.464   5.780   4.699
23061W        W95486  43.369  30.144   1.732
23062W        W95487  40.401  22.550   4.162
23063W        W95488  21.115  12.357  14.962
23064W        W95489  23.711  26.182   1.430
23065W        W95490   2.759  33.097  14.449
23066W        W95491  37.915  23.525  11.881
23067W        W95492   3.427  15.582  13.367
23068W        W95493  33.903  20.173  11.596
23069W        W95494  29.097  15.598  14.014
23070W        W95495  20.195   3.385   5.121
23071W        W95496  31.014  33.622  11.487
23072W        W95497  18.062  31.058  10.145
23073W        W95498   6.262  31.449   3.751
23074W        W95499  27.066  11.643   0.781
23075W        W95500  21.522  34.073   3.724
23076W        W95501   7.307  44.468   2.768
23077W        W95502  39.494  39.048   4.619
23078W        W95503  38.499  11.250  12.977
23079W        W95504  40.524   1.325  12.065
23080W        W95505  17.585  41.463  14.879
23081W        W95506  10.267  32.128   3.355
23082W        W95507  44.798  18.194   1.393
23083W        W95508  11.762  16.651   9.928
23084W        W95509  26.956   0.473   2.220
23085W        W95510  19.089  30.065  11.102
23086W        W95511   3.256  43.334  14.765
23087W        W95512   4.829   7.785  11.550
23088W        W95513  26.201   5.823  10.643
23089W        W95514  24.496  37.366  14.817
23090W        W95515   3.951  10.695   1.292
23091W        W95516  43.500  15.137  14.336
23092W        W95517   8.349  43.509   2.197
23093W        W95518   0.256  28.939  14.478
23094W        W95519   8.696  13.702   2.315
23095W        W95520  12.147   1.263  13.053
23096W        W95521   0.795  31.902  13.932
23097W        W95522  17.792  17.741   2.193
23098W        W95523  22.640  27.007  12.892
23099W        W95524  21.664  32.050  11.501
23100W        W95525   7.186   6.760   3.333
23101W        W95526  23.152  15.598  14.954
23102W        W95527   5.330  19.263   1.231
23103W        W95528   5.908  39.927  14.302
23104W        W95529  19.051  38.889   0.313
23105W        W95530  38.526  26.607  11.897
23106W        W95531  14.720  26.133   4.346
23107W        W95532  19.157  41.838  14.301
23108W        W95533  38.988  37.970  13.859
23109W        W95534  40.865  34.998  14.511
23110W        W95535  35.474   2.297   2.783
23111W        W95536  37.566  32.546  14.803
23112W        W95537  40.038  25.649   4.300
23113W        W95538   3.804  35.921   1.744
23114W        W95539   8.786  18.584   0.752
23115W        W95540  14.824  14.286  11.462
23116W        W95541  20.558  32.909   0.276
23117W        W95542  29.126  24.501  12.028
23118W        W95543  21.567  11.143  12.411
23119W        W95544  42.300  20.095  13.821
23120W        W95545  37.425  24.177  12.537
23121W        W95546  10.851  40.877   1.441
23122W        W95547  17.104   4.405   0.338
23123W        W95548   6.254  34.568   0.410
23124W        W95549  43.883  37.062  14.991
23125W        W95550  16.216  24.662   4.798
23126W        W95551  35.496  20.079   2.212
23127W        W95552  42.967  29.579   5.219
23128W        W95553   3.445  34.562   2.826
23129W        W95554  31.112  28.983   0.875
23130W        W95555   7.822  38.457   9.614
23131W        W95556  29.587  31.065   3.640
23132W        W95557  11.644  24.515   4.351
23133W        W95558  34.936  37.497   5.270
23134W        W95559   5.321  41.971  11.023
23135W        W95560  42.996  11.318  12.989
23136W        W95561  10.824   3.882   2.781
23137W        W95562  42.980  44.297   0.332
23138W        W95563  13.266  19.046  10.949
23139W        W95564  39.430  34.975   2.778
23140W        W95565  41.973  24.084  11.051
23141W        W95566  29.975   8.818   0.377
23142W        W95567  13.729  12.661  10.913
23143W        W95568  40.431  35.562   3.225
23144W        W95569   3.351  36.972   2.900
23145W        W95570  34.614  16.083   2.680
23146W        W95571  41.935  30.501  13.342
23147W        W95572  25.150  25.714   1.439
23148W        W95573   8.176   5.379  12.881
23149W        W95574  30.149  32.591  11.856
23150W        W95575  10.799  23.564  12.543
23151W        W95576  42.912  31.039   0.270
23152W        W95577  43.998  29.500  13.013
23153W        W95578  14.207   3.382   0.321
23154W        W95579   8.253  44.459  10.461
23155W        W95580  21.211  19.628   2.825
23156W        W95581  23.500   8.216  13.430
23157W        W95582  28.537  13.347  10.485
23158W        W95583  21.752  38.046   4.312
23159W        W95584   8.204  17.126   3.314
23160W        W95585  23.526  11.345  14.443
23161W        W95586   0.799  38.825   0.819
23162W        W95587  21.141   4.397  14.296
23163W        W95588  35.854  13.333  11.096
23164W        W95589   7.233  21.176   1.263
23165W        W95590   8.171  33.112   4.627
23166W        W95591  33.913   5.360  11.925
23167W        W95592   7.777  22.160   2.795
23168W        W95593   6.763  16.632   4.713
23169W        W95594   0.885  15.312  11.543
23170W        W95595   4.916  14.623   4.738
23171W        W95596  30.561   7.851  10.596
23172W        W95597  34.568  17.662  11.884
23173W        W95598   2.338  26.193   2.689
23174W        W95599  14.326  22.198   2.800
23175W        W95600  21.232  17.677  13.948
23176W        W95601  25.697   7.910   3.720
23177W        W95602  44.931  34.381  12.979
23178W        W95603  28.521  32.140   3.325
23179W        W95604  28.543  27.978   2.695
23180W        W95605  23.986  12.845   4.672
23181W        W95606  16.096  30.913   3.281
23182W        W95607  13.830   6.308  14.945
23183W        W95608   7.394  38.860  14.417
23184W        W95609   6.427  28.103  14.408
23185W        W95610  20.738   8.720  10.418
23186W        W95611   5.431   8.742   0.401
23187W        W95612  40.347  34.041   4.274
23188W        W95613   0.390  17.724   2.848
23189W        W95614  38.986  25.108  14.806
23190W        W95615  34.961   8.377   2.263
23191W        W95616  43.961  42.983   4.123
23192W        W95617  28.019  41.439   4.213
23193W        W95618  19.136  13.318   4.794
23194W        W95619   6.778  30.585   4.657
23195W        W95620  11.701  36.420   4.217
23196W        W95621  25.664  38.326   4.677
23197W        W95622   3.729  44.295  12.064
23198W        W95623  16.590  24.567  13.385
23199W        W95624  31.594  37.421  10.927
23200W        W95625  30.633  16.235   3.774
23201W        W95626  28.679  17.591  11.472
23202W        W95627   7.882   8.367  10.487
23203W        W95628  19.649  33.954  13.386
23204W        W95629  16.289  44.870   3.647
23205W        W95630  21.597  16.082   3.706
23206W        W95631  30.429  37.066   3.762
23207W        W95632  32.007  35.410   4.125
23208W        W95633  42.881   5.315  11.013
23209W        W95634   9.760   9.727   0.449
23210W        W95635   2.449  22.645   2.664
23211W        W95636  33.908  29.506  12.339
23212W        W95637  12.221  18.099  12.478
23213W        W95638  10.786  11.156   1.710
23214W        W95639  22.615  31.005   4.305
23215W        W95640  27.037  23.066   0.836
23216W        W95641  13.121  25.093   1.823
23217W        W95642  18.228  18.598   4.671
23218W        W95643  13.310  37.941   4.753
23219W        W95644  10.744  13.658  14.763
23220W        W95645  15.248  10.150  13.349
23221W        W95646  44.443   0.308  12.528
23222W        W95647  17.636  14.647   4.324
23223W        W95648   1.432  22.727   2.669
23224W        W95649  31.990  25.211  13.861
23225W        W95650  19.725  25.657  10.418
23226W        W95651  18.064  15.681  11.591
23227W        W95652  19.243  31.428  12.996
23228W        W95653  31.413  30.134  10.516
23229W        W95654  41.409  40.419   1.441
23230W        W95655  12.241  40.997  10.611
23231W        W95656  27.576  24.170   1.311
23232W        W95657   6.245   6.258   1.893
23233W        W95658   6.903  24.548  10.412
23234W        W95659  19.617  19.718   2.729
23235W        W95660  14.737  32.600  14.304
23236W        W95661   0.985  22.175  10.897
23237W        W95662  44.281  14.764   0.923
23238W        W95663  27.173  20.040   2.684
23239W        W95664   6.852  27.473  12.346
23240W        W95665  13.300  11.183   3.256
23241W        W95666   8.713  17.237  10.509
23242W        W95667  15.118  28.592  13.808
23243W        W95668  10.206  41.394  12.045
23244W        W95669   2.392  31.646  11.126
23245W        W95670  13.187  16.586   4.726
23246W        W95671   0.356  12.686  13.426
23247W        W95672  20.567  34.946  13.826
23248W        W95673   1.288  13.679  11.907
23249W        W95674  30.147  25.553  13.059
23250W        W95675  39.948  18.679  13.900
23251W        W95676  11.663  20.092   0.919
23252W        W95677  17.233  19.627  13.843
23253W        W95678  32.598  29.664  13.835
23254W        W95679  28.138  29.438  11.025
23255W        W95680  22.124  37.847  12.458
23256W        W95681  27.593  10.368   0.342
23257W        W95682  24.214   0.398  11.481
23258W        W95683  34.585  27.026   1.751
23259W        W95684  36.389  11.142  11.940
23260W        W95685  44.489  14.208  11.010
23261W        W95686  34.919  11.751   4.184
23262W        W95687  41.902  31.015  13.927
23263W        W95688  13.275  19.058   1.443
23264W        W95689   6.267   6.363   4.623
23265W        W95690  31.537   8.204   4.627
23266W        W95691  17.231   2.407   2.346
23267W        W95692   9.770  42.393   1.893
23268W        W95693   8.289   6.772   0.897
23269W        W95694  32.015  14.784   3.751
23270W        W95695  11.814  21.032  13.320
23271W        W95696  24.530  36.490   2.333
23272W        W95697  28.110  39.466   4.772
23273W        W95698  11.272  36.393   3.705
23274W        W95699  42.820  20.656   0.270
23275W        W95700   9.247  18.780  13.422
23276W        W95701  32.907  43.516   2.372
23277W        W95702  38.536   7.405  13.324
23278W        W95703  27.586  43.879   2.686
23279W        W95704  32.049  44.883   3.857
23280W        W95705  31.902  16.250   4.204
23281W        W95706  11.193  12.853  11.412
23282W        W95707  22.183  22.116   0.851
23283W        W95708  34.434  16.578   2.274
23284W        W95709   7.303   4.899  12.377
23285W        W95710  34.915   1.828   2.732
23286W        W95711  10.372  25.160  12.413
23287W        W95712  21.644  19.165   3.783
23288W        W95713  13.732   6.688  14.857
23289W        W95714  10.709   6.840  11.571
23290W        W95715  28.039  30.095   9.630
23291W        W95716   6.905   4.706   2.277
23292W        W95717  37.860  18.183  13.040
23293W        W95718  44.456  33.400   2.765
23294W        W95719  15.252  23.059  11.048
23295W        W95720  13.634  15.628   1.841
23296W        W95721  14.766   8.656   0.323
23297W        W95722  31.929  19.142  14.468
23298W        W95723  30.029   1.905   2.346
23299W        W95724  12.820  23.000  13.938
23300W        W95725  10.324  39.530   0.298
23301W        W95726  27.627  41.000  13.989
23302W        W95727  22.125  20.657  11.064
23303W        W95728   5.430  26.480   3.239
23304W        W95729  23.702  35.950  10.621
23305W        W95730   8.664   3.376  14.986
23306W        W95731  36.945  42.401   4.236
23307W        W95732  23.141  22.682   1.406
23308W        W95733  33.532  37.441   4.798
23309W        W95734  22.183  32.949   2.876
23310W        W95735  22.225   8.892  10.492
23311W        W95736  13.644  22.746   2.860
23312W        W95737  32.017  15.749  14.001
23313W        W95738   6.913  23.664  12.449
23314W        W95739   1.357  36.404  14.953
23315W        W95740  24.718  27.530  12.361
23316W        W95741  16.593  38.550   2.696
23317W        W95742  20.538   0.286  13.809
23318W        W95743   4.800   9.741  13.059
23319W        W95744  25.101  42.502  10.042
23320W        W95745   4.244  15.249   0.326
23321W        W95746  41.038  23.071   3.680
23322W        W95747   7.800  34.951  12.829
23323W        W95748  23.575  35.076   4.674
23324W        W95749  39.876  36.550   3.789
23325W        W95750  24.620  28.666  11.948
23326W        W95751   2.895  13.697  13.473
23327W        W95752  41.901  12.688  13.347
23328W        W95753  18.733  24.502  11.567
23329W        W95754  39.355  19.728  11.431
23330W        W95755  31.948  26.993  13.018
23331W        W95756   6.295  23.172  12.833
23332W        W95757   4.318   2.914   4.677
23333W        W95758   2.309  26.144  13.492
23334W        W95759  39.816  11.683   2.836
23335W        W95760  42.349  29.594   3.672
23336W        W95761  37.464  25.063   4.702
23337W        W95762  27.451  30.931   3.708
23338W        W95763  21.721  32.907  14.828
23339W        W95764  13.123  18.777   4.237
23340W        W95765   9.353   8.387   1.915
23341W        W95766  30.534  24.182   2.336
23342W        W95767  16.134  21.737   4.653
23343W        W95768  18.136  33.106  14.467
23344W        W95769  44.259  11.796   4.241
23345W        W95770  18.579  24.672  11.859
23346W        W95771  39.473  13.769  11.030
23347W        W95772  18.654  21.067   4.264
23348W        W95773  36.522   3.835   3.655
23349W        W95774  41.039   0.368  14.762
23350W        W95775   3.323  14.168  10.128
23351W        W95776   5.890  30.446  13.868
23352W        W95777  36.877  20.182  13.335
23353W        W95778   2.436  39.500  14.390
23354W        W95779  18.658  10.770  12.436
23355W        W95780  30.635  28.140  11.081
23356W        W95781  31.142  34.512   3.713
23357W        W95782  34.444  44.473   1.818
23358W        W95783  39.858  39.500   2.414
23359W        W95784  27.158  26.983  10.514
23360W        W95785  36.428   0.265  11.895
23361W        W95786  31.595  24.078   2.748
23362W        W95787  15.178  44.418   3.728
23363W        W95788   9.861  12.713  12.911
23364W        W95789  43.353   2.908   3.794
23365W        W95790   7.221  37.561   5.127
23366W        W95791  36.475  19.620   0.254
23367W        W95792   8.709  29.467  14.866
23368W        W95793  29.016  39.948  10.418
23369W        W95794  44.819  41.311   1.443
23370W        W95795  16.244  32.486   2.810
23371W        W95796  16.087  39.930   3.206
23372W        W95797  22.657  18.082   1.222
23373W        W95798  27.955  31.111   0.755
23374W        W95799  36.400  35.429   0.301
23375W        W95800  35.463  33.428   3.250
23376W        W95801   5.223  38.068   1.285
23377W        W95802  11.633  15.600  12.574
23378W        W95803   6.348  26.634   3.635
23379W        W95804  23.696   4.939   0.781
23380W        W95805  31.138  18.754   4.635
23381W        W95806  32.625  20.587   3.852
23382W        W95807  14.653  34.582  12.580
23383W        W95808  28.040   9.248  13.025
23384W        W95809  23.153  14.214   2.258
23385W        W95810  38.940  30.927   1.818
23386W        W95811  38.476  35.061   3.310
23387W        W95812  43.350  40.905   4.667
23388W        W95813  10.244   4.227   3.307
23389W        W95814  13.344  37.874   0.896
23390W        W95815   8.715   6.309   0.327
23391W        W95816  18.211  13.335  10.905
23392W        W95817   9.666   9.293   5.205
23393W        W95818  32.454  26.131   2.325
23394W        W95819   9.716  18.640  12.419
23395W        W95820  16.313   1.886   1.820
23396W        W95821  34.415  43.998   2.869
23397W        W95822  30.593   9.215   3.811
23398W        W95823  39.410  18.777   2.874
23399W        W95824  36.017  13.642  12.954
23400W        W95825  29.595  14.169  14.942
23401W        W95826  17.675   5.865   2.792
23402W        W95827  11.698  14.794   4.153
23403W        W95828  18.625  39.434  11.460
23404W        W95829  42.441   4.936  12.863
23405W        W95830  39.500  15.224  11.007
23406W        W95831  27.049   3.288   2.213
23407W        W95832  12.305  39.871   4.117
23408W        W95833  41.300  28.185  13.803
23409W        W95834  17.266  21.754   2.419
23410W        W95835   3.240  28.646  14.784
23411W        W95836  11.307   9.222  14.965
23412W        W95837  11.659  17.712   1.216
23413W        W95838  36.899  35.070   2.726
23414W        W95839  32.937  32.932  10.486
23415W        W95840   3.882  37.556  11.056
23416W        W95841  24.688  38.891   3.836
23417W        W95842  22.116  20.039  10.471
23418W        W95843   3.858  39.374   1.884
23419W        W95844  38.041  20.095  11.372
23420W        W95845  43.846  19.257   1.237
23421W        W95846  43.328  20.661   1.873
23422W        W95847  40.015   6.896   0.427
23423W        W95848  29.424  20.180  10.617
23424W        W95849  34.544  17.263  11.580
23425W        W95850  42.805  39.857   4.627
23426W        W95851  16.780  34.916  14.810
23427W        W95852  40.450  14.611   0.310
23428W        W95853  10.699   6.734  10.554
23429W        W95854  35.885  14.155  13.414
23430W        W95855  43.875  26.959   4.690
23431W        W95856  23.193  18.161   2.764
23432W        W95857  10.375  44.495   1.333
23433W        W95858  15.178  35.954   4.826
23434W        W95859   1.309  38.866   2.284
23435W        W95860  14.188  31.633  11.579
23436W        W95861  18.552  14.183   2.757
23437W        W95862  24.612   7.353   4.680
23438W        W95863  35.090  19.724  14.015
23439W        W95864  12.766   7.824   1.379
23440W        W95865  20.679  44.405  11.126
23441W        W95866  18.095  26.592  13.435
23442W        W95867  18.612  28.008   3.747
23443W        W95868  40.530   4.757   1.405
23444W        W95869  36.576  22.618   2.382
23445W        W95870  18.644  40.045  13.407
23446W        W95871  34.940  36.355   1.364
23447W        W95872  32.964  44.753  12.047
23448W        W95873  41.827  19.086  10.631
23449W        W95874  24.169  11.785   3.310
23450W        W95875  29.037  44.912   3.771
23451W        W95876  11.128  15.823   5.238
23452W        W95877  34.381  18.271   2.733
23453W        W95878  15.134  25.588  12.835
23454W        W95879  17.619  38.822  13.958
23455W        W95880  24.153  29.663   4.120
23456W        W95881  34.090  24.712  10.616
23457W        W95882   3.818  14.687  14.844
23458W        W95883   3.796   5.917  13.829
23459W        W95884  26.692  10.208   5.125
23460W        W95885  39.543  41.018   3.314
23461W        W95886   3.216  12.826   1.366
23462W        W95887   4.441  29.154  11.094
23463W        W95888  31.494  32.920  13.984
23464W        W95889  27.634  34.581  11.460
23465W        W95890  23.607  24.687   4.776
23466W        W95891  36.059  10.365   0.808
23467W        W95892   1.286  10.172   3.267
23468W        W95893  13.801  37.523  14.909
23469W        W95894  29.987  35.110   2.894
23470W        W95895  39.397   7.334   1.871
23471W        W95896  26.169  26.687   2.768
23472W        W95897  21.022  14.169   3.374
23473W        W95898  13.176  28.133  11.398
23474W        W95899  15.631  30.556  10.428
23475W        W95900  37.372  13.315   4.704
23476W        W95901  16.590  26.952  14.315
23477W        W95902  27.100   6.783   0.294
23478W        W95903  11.331   8.689  14.422
23479W        W95904  15.268  35.917  14.007
23480W        W95905  32.567  29.653   4.197
23481W        W95906  44.487  44.279   1.895
23482W        W95907  15.095  10.679   3.296
23483W        W95908  19.716   1.881   0.759
23484W        W95909  13.238   6.397  11.413
23485W        W95910   0.260  32.508   3.170
23486W        W95911   6.392  23.526   3.237
23487W        W95912  20.755  24.100   2.838
23488W        W95913  20.757  44.350   4.286
23489W        W95914  35.949  28.116  13.931
23490W        W95915  41.823  32.080  12.913
23491W        W95916  11.672   6.813  12.547
23492W        W95917  31.497   8.384   4.228
23493W        W95918  11.160  28.491   2.665
23494W        W95919  20.031  13.678  14.764
23495W        W95920  25.164  30.136   3.194
23496W        W95921  31.645  16.637  12.433
23497W        W95922  39.975  34.519   4.782
23498W        W95923  36.368  27.530  12.828
23499W        W95924  27.944  34.903   0.781
23500W        W95925  11.778  42.399  11.523
23501W        W95926  15.634  11.130  11.014
23502W        W95927  24.004  24.066   0.445
23503W        W95928  29.586  33.454  13.340
23504W        W95929  37.423  20.086   1.272
23505W        W95930  30.603  21.578  14.331
23506W        W95931  35.477  28.638  14.416
23507W        W95932  19.611  27.013  14.842
23508W        W95933  38.054  18.671   3.638
23509W        W95934  39.318  42.021  13.822
23510W        W95935  30.444  36.923   3.183
23511W        W95936  38.446  25.641   3.825
23512W        W95937  36.019   9.353  10.562
23513W        W95938  39.410  23.630  14.325
23514W        W95939   2.451  40.868   0.441
23515W        W95940  14.242  39.432  14.988
23516W        W95941  23.991  38.430   3.316
23517W        W95942  29.563  27.598  12.367
23518W        W95943  34.000   5.901  11.031
23519W        W95944  23.116  27.093   3.231
23520W        W95945  31.647  43.319  12.966
23521W        W95946  43.513   2.281   2.319
23522W        W95947   6.843  42.791  11.120
23523W        W95948  32.452  10.346   1.734
23524W        W95949  29.477  16.248  13.911
23525W        W95950  24.096  17.654  11.004
23526W        W95951  36.938  21.714   3.227
23527W        W95952  17.752  14.749  12.429
23528W        W95953  18.544  30.500   0.931
23529W        W95954   2.310  39.873   3.697
23530W        W95955  17.598   5.717  12.352
23531W        W95956  13.811   3.772  14.394
23532W        W95957   3.954  40.515   0.950
23533W        W95958  27.116  31.147  10.629
23534W        W95959  41.460  32.953  13.871
23535W        W95960   7.735   7.217  12.368
23536W        W95961  37.910  34.034   4.626
23537W        W95962  23.725  18.184  12.474
23538W        W95963  39.870  17.251   3.303
23539W        W95964  10.304   3.744   2.414
23540W        W95965  23.035  43.838   3.658
23541W        W95966   6.833  17.696   4.762
23542W        W95967   8.724   7.269  11.555
23543W        W95968  42.353   2.250  12.421
23544W        W95969  27.644  28.545   3.754
23545W        W95970  24.119   1.268   3.722
23546W        W95971  12.338   3.881  11.507
23547W        W95972   3.363  41.037   0.772
23548W        W95973  38.367   1.774  14.432
23549W        W95974   8.175  19.715   0.863
23550W        W95975  40.935  25.479   1.321
23551W        W95976  39.434  21.551   1.330
23552W        W95977  21.639  39.533  13.372
23553W        W95978  11.296  23.147   2.870
23554W        W95979  10.254   7.250  11.956
23555W        W95980  13.140  23.075   3.317
23556W        W95981  23.002  13.686  14.881
23557W        W95982   7.374  21.253  13.863
23558W        W95983  10.337  42.027  12.358
23559W        W95984  19.603  35.574  13.436
23560W        W95985  27.492  28.635   2.715
23561W        W95986  33.468   4.204   0.422
23562W        W95987  18.643  17.243   5.189
23563W        W95988  23.087  17.165  13.388
23564W        W95989  42.924  40.380   3.706
23565W        W95990  36.977  28.183  11.420
23566W        W95991  10.862  28.528   0.955
23567W        W95992  44.463   3.948   3.146
23568W        W95993  36.493   1.975   0.349
23569W        W95994   2.234   4.737  10.614
23570W        W95995  36.930  41.301   2.749
23571W        W95996   6.922  13.743  11.394
23572W        W95997  39.330   3.815   0.825
23573W        W95998  32.570  17.631  14.962
23574W        W95999  23.503  42.850   1.323
23575W        W96000   6.411  13.795   2.408
23576W        W96001  22.070  30.919   0.433
23577W        W96002  20.102  19.751   3.683
23578W        W96003  24.536  31.642  10.635
23579W        W96004  37.912  21.515   1.231
23580W        W96005  28.056  10.874   2.756
23581W        W96006  26.058  27.123   3.185
23582W        W96007  10.847  43.317  11.924
23583W        W96008   2.421   7.752  13.935
23584W        W96009   6.886  14.120   3.773
23585W        W96010  37.348  12.761   4.130
23586W        W96011  26.034  44.001  11.082
23587W        W96012  10.309  36.481  14.853
23588W        W96013   6.721  20.096  11.491
23589W        W96014  26.993  20.667  14.873
23590W        W96015  44.458  21.638  10.636
23591W        W96016  22.182   5.831   1.257
23592W        W96017  18.789  42.837  10.428
23593W        W96018   7.370  11.357  10.597
23594W        W96019   3.373  12.848   0.963
23595W        W96020  36.903  19.123  14.323
23596W        W96021  13.650   5.730  10.950
23597W        W96022  43.351   8.169   1.316
23598W        W96023  40.830  43.314   1.385
23599W        W96024  43.406  41.447  12.070
23600W        W96025  26.577  16.711   2.209
23601W        W96026   8.857  40.523  13.904
23602W        W96027  29.927  31.114   4.731
23603W        W96028   9.754  43.423  13.544
23604W        W96029  34.501  39.438   4.769
23605W        W96030  11.236   6.725  10.561
23606W        W96031  19.154  29.131   1.929
23607W        W96032  44.314  38.928  10.949
23608W        W96033  10.795  26.064  13.924
23609W        W96034  23.209  35.584   1.260
23610W        W96035   8.842  10.209   1.438
23611W        W96036  42.482   3.817  10.918
23612W        W96037  38.850   6.778   1.732
23613W        W96038  13.232  42.963  10.004
23614W        W96039  25.168  16.202  11.105
23615W        W96040   7.696  18.681   0.910
23616W        W96041   4.902   8.211   3.794
23617W        W96042   5.227  17.282  10.948
23618W        W96043  13.624  44.336  14.932
23619W        W96044   4.883  31.574   0.243
23620W        W96045  17.106  28.931  10.149
23621W        W96046   1.481  34.959  11.880
23622W        W96047  11.623  40.954  11.545
23623W        W96048  44.811  30.986   2.395
23624W        W96049  14.610  38.010   2.358
23625W        W96050  28.974  15.177   3.814
23626W        W96051  30.095   0.391   2.827
23627W        W96052   9.821  29.656   0.442
23628W        W96053   6.284  26.482   5.266
23629W        W96054  43.787   2.238  13.467
23630W        W96055  10.277  11.839  10.892
23631W        W96056  24.121  43.853   1.443
23632W        W96057  39.514  37.582   1.245
23633W        W96058  12.278  10.826   2.223
23634W        W96059  15.684  42.850   9.943
23635W        W96060  20.649  30.988   0.445
23636W        W96061  33.903  28.125  11.465
23637W        W96062  20.765  43.346  11.095
23638W        W96063  10.194  16.226   0.924
23639W        W96064  20.200   4.732   4.242
23640W        W96065  22.138  18.167  10.922
23641W        W96066   5.695  36.079   4.209
23642W        W96067  42.301   0.493   4.160
23643W        W96068   4.292  18.615  12.380
23644W        W96069  14.683  21.713   1.747
23645W        W96070  15.230  22.143  14.819
23646W        W96071  44.912  22.525   2.843
23647W        W96072  36.512  32.405  13.414
23648W        W96073  23.101   9.650  10.100
23649W        W96074   7.326  36.348  11.935
23650W        W96075  33.436  34.089  10.559
23651W        W96076  21.233  24.141  12.431
23652W        W96077  41.344  11.325   4.686
23653W        W96078  15.325  19.080  14.893
23654W        W96079  26.515   8.169   0.924
23655W        W96080  42.307  10.699  11.464
23656W        W96081  31.117  33.907  14.334
23657W        W96082  42.462  14.108  13.444
23658W        W96083   7.740  22.082  13.884
23659W        W96084   9.693  29.525  12.520
23660W        W96085   1.334  24.644   1.428
23661W        W96086  20.136  23.674   0.949
23662W        W96087  19.078  42.324   4.348
23663W        W96088  11.147   3.746   2.722
23664W        W96089  34.452  37.548  12.519
23665W        W96090  35.404   1.472   1.403
23666W        W96091   6.804   9.367  14.368
23667W        W96092  42.024  43.456   3.797
23668W        W96093  17.293  19.186  12.057
23669W        W96094  38.870  13.237  11.975
23670W        W96095  24.709   1.848   2.211
23671W        W96096  32.394  22.511   4.285
23672W        W96097  41.878  32.409  13.982
23673W        W96098  30.142   5.302   2.741
23674W        W96099   8.690  44.957  12.835
23675W        W96100  15.732  32.424  12.485
23676W        W96101  29.446   2.349   1.412
23677W        W96102  29.107  44.976  14.013
23678W        W96103  35.569  32.608  11.947
23679W        W96104  11.168  22.590   3.769
23680W        W96105  28.570   2.722   4.238
23681W        W96106  41.324  44.366   5.166
23682W        W96107   2.903  30.105  11.458
23683W        W96108  32.618   7.358   4.318
23684W        W96109  20.714  13.761   4.654
23685W        W96110  43.840   6.835  11.098
23686W        W96111  32.107  44.927   1.828
23687W        W96112  16.303  11.288   4.248
23688W        W96113  38.478  10.771  13.857
23689W        W96114  28.115  33.945  11.454
23690W        W96115  10.702   4.385  12.013
23691W        W96116  32.494  38.476  10.962
23692W        W96117  31.509  17.790  14.484
23693W        W96118  36.570   9.224   0.317
23694W        W96119  24.524  28.634  11.606
23695W        W96120   0.873  39.326   1.274
23696W        W96121  11.295  26.582   4.223
23697W        W96122  11.220  21.111  12.387
23698W        W96123  24.041  32.067   3.150
23699W        W96124  20.690  40.505  12.414
23700W        W96125  40.870  21.548   4.328
23701W        W96126  42.993  33.446  11.062
23702W        W96127  39.447  42.787  10.043
23703W        W96128  19.731  27.604   1.358
23704W        W96129  30.655  44.860   0.443
23705W        W96130  32.595   5.437  13.010
23706W        W96131  14.146  31.618  12.958
23707W        W96132  43.398  34.931   1.375
23708W        W96133  30.068  34.548  12.092
23709W        W96134  21.064  35.387   3.257
23710W        W96135  42.388   6.811   2.681
23711W        W96136   8.824  15.776   2.348
23712W        W96137  10.195  16.212   1.803
23713W        W96138   4.871  25.664  12.007
23714W        W96139  20.528   3.452   2.847
23715W        W96140  39.991  18.594  11.053
23716W        W96141   6.760  10.650  11.372
23717W        W96142  41.004   3.848   1.262
23718W        W96143   1.364  28.480   1.335
23719W        W96144  23.557  20.613   0.795
23720W        W96145   6.321   1.760   5.317
23721W        W96146  32.120  28.643  11.569
23722W        W96147   4.415  44.494  14.854
23723W        W96148   1.914  25.057  14.387
23724W        W96149  29.128  22.054   2.386
23725W        W96150  39.367  39.940  12.868
23726W        W96151   3.456  37.874  13.343
23727W        W96152   4.417  31.123  11.868
23728W        W96153  22.539  19.050   2.897
23729W        W96154  15.327  19.048  10.948
23730W        W96155  12.146   0.948  10.473
23731W        W96156  27.568  27.674   0.460
23732W        W96157  14.649  42.807  12.965
23733W        W96158  21.529  35.593   3.317
23734W        W96159  32.437  22.721  11.532
23735W        W96160   6.915  30.444  13.323
23736W        W96161   1.248  14.695  14.821
23737W        W96162  12.748  32.935   0.839
23738W        W96163   7.876  26.025   0.251
23739W        W96164  44.839  37.420  12.562
23740W        W96165  18.563  41.422   9.964
23741W        W96166  16.072  41.807   0.360
23742W        W96167  40.367  31.441   2.683
23743W        W96168  17.266  11.128  13.529
23744W        W96169  27.469  10.667   1.215
23745W        W96170  33.468   0.351  13.835
23746W        W96171   7.174  26.472  12.456
23747W        W96172   1.832  44.947  11.556
23748W        W96173  25.164  22.163   2.742
23749W        W96174   9.178  43.273  10.992
23750W        W96175  42.491  18.655   1.294
23751W        W96176  43.954  34.107  14.486
23752W        W96177   3.270  42.014   1.798
23753W        W96178  35.494  11.837   3.836
23754W        W96179  28.006   3.814  10.434
23755W        W96180  12.203  44.486   1.882
23756W        W96181  41.305  31.647   4.208
23757W        W96182  24.202  17.640   0.291
23758W        W96183  43.311   7.393  11.573
23759W        W96184  13.311   3.338   2.696
23760W        W96185  26.502  14.721  13.518
23761W        W96186   7.730  12.807  10.031
23762W        W96187  26.595  21.652   4.118
23763W        W96188   4.252   9.268   3.656
23764W        W96189  16.292  21.676   1.310
23765W        W96190   0.847  17.698   0.730
23766W        W96191   1.732   8.715   0.736
23767W        W96192  25.638   0.482  12.418
23768W        W96193  17.786  16.656  10.460
23769W        W96194   9.778   2.414   1.392
23770W        W96195  33.909  23.160   2.669
23771W        W96196  23.036  26.150   2.249
23772W        W96197  29.013  30.419   1.237
23773W        W96198  18.160  36.863  14.465
23774W        W96199   6.892  25.608  13.935
23775W        W96200   0.347  26.662   0.752
23776W        W96201  17.085  27.598  14.915
23777W        W96202  14.696   2.232  12.936
23778W        W96203   7.206  30.631   0.918
23779W        W96204  39.986   0.779   2.304
23780W        W96205   7.767   1.239   2.204
23781W        W96206  41.473  27.110  14.893
23782W        W96207  41.535   7.705  12.992
23783W        W96208   2.352  28.639   0.263
23784W        W96209  39.860   2.443  10.542
23785W        W96210  18.687  42.522  12.501
23786W        W96211  22.188  44.331  13.370
23787W        W96212  21.037  22.513  10.421
23788W        W96213   8.875  16.291  10.639
23789W        W96214  42.979  18.125  13.794
23790W        W96215  27.599  10.290   2.282
23791W        W96216  14.614   6.230   3.674
23792W        W96217  36.019  11.171  10.596
23793W        W96218  11.685   1.809   3.852
23794W        W96219  37.407  27.584   2.842
23795W        W96220   1.477   4.215   2.239
23796W        W96221   2.311  28.138  13.852
23797W        W96222   8.212  17.613   3.221
23798W        W96223  20.061  36.075   1.379
23799W        W96224  19.669  24.124   4.241
23800W        W96225  10.353  12.360  12.342
23801W        W96226  36.881   7.394   1.355
23802W        W96227  36.955   8.807  13.048
23803W        W96228  20.034  30.925   4.168
23804W        W96229   6.284  40.541  14.501
23805W        W96230  37.512   8.732   0.254
23806W        W96231  41.362  43.878  11.611
23807W        W96232  24.668  24.110   2.295
23808W        W96233  22.119  35.008   4.834
23809W        W96234  10.841  35.872  13.336
23810W        W96235  14.095   7.756  11.923
23811W        W96236   5.314   0.974   1.288
23812W        W96237  13.777  15.112  11.429
23813W        W96238  22.588  14.689   4.683
23814W        W96239  24.504  38.885  12.573
23815W        W96240  42.006   2.956  11.959
23816W        W96241  39.411  32.392  14.412
23817W        W96242  26.085   1.412  14.928
23818W        W96243  26.154   3.904  13.386
23819W        W96244  35.094  29.957   3.147
23820W        W96245  19.168   5.895   1.231
23821W        W96246  34.583  38.542  12.444
23822W        W96247   4.379  26.976   1.875
23823W        W96248   8.202  12.674  12.454
23824W        W96249  44.787   9.311   4.603
23825W        W96250  36.900  31.909   4.800
23826W        W96251  40.926   7.383  13.028
23827W        W96252   6.782  35.523   9.927
23828W        W96253  21.220  10.808  11.575
23829W        W96254  38.538   9.759   2.868
23830W        W96255  40.520  21.109   4.243
23831W        W96256  14.152   3.948   3.779
23832W        W96257   4.763   7.337   1.933
23833W        W96258  34.036   8.805  12.553
23834W        W96259  30.615  27.508   0.362
23835W        W96260  39.445   5.839  13.795
23836W        W96261  15.714  38.389   1.381
23837W        W96262  41.519  14.159  13.494
23838W        W96263   9.344  44.760  12.480
23839W        W96264  29.507  43.833   3.764
23840W        W96265  26.674  31.559  13.437
23841W        W96266   3.313  42.301   4.690
23842W        W96267  26.621  37.867   5.146
23843W        W96268  16.783  19.553  11.863
23844W        W96269   6.276   2.262  14.935
23845W        W96270  28.013  19.258   2.367
23846W        W96271   8.323  28.669  11.610
23847W        W96272  18.599  21.691  14.780
23848W        W96273  39.821  20.265   2.419
23849W        W96274  14.606  21.605  12.463
23850W        W96275  22.701   6.874   3.662
23851W        W96276  12.713  27.092   4.305
23852W        W96277   6.324  27.550   1.886
23853W        W96278  11.855  14.615  11.018
23854W        W96279  10.811   7.409  11.883
23855W        W96280   9.834  33.971   1.931
23856W        W96281   4.826  40.428  13.826
23857W        W96282  26.984  17.699  13.816
23858W        W96283  24.190  34.066  11.465
23859W        W96284  16.203  24.188  11.931
23860W        W96285  14.120   5.365  12.850
23861W        W96286  32.099  35.994   3.776
23862W        W96287   3.329  15.804  11.991
23863W        W96288  32.475  23.031  14.962
23864W        W96289   6.411  41.854  13.815
23865W        W96290  24.495   7.671  12.554
23866W        W96291   3.291  19.228   2.259
23867W        W96292  40.546   7.385  11.410
23868W        W96293  33.397  13.233   2.662
23869W        W96294  31.025  27.022  10.457
23870W        W96295  19.193  19.723   4.791
23871W        W96296  35.059   3.317   1.837
23872W        W96297  22.228  34.601   3.720
23873W        W96298   6.400  39.966  10.930
23874W        W96299   8.201   6.356  12.385
23875W        W96300  33.395  36.347  14.475
23876W        W96301  11.708   5.777   1.363
23877W        W96302  19.229   1.845  12.402
23878W        W96303  43.493   8.781   4.292
23879W        W96304  37.485  38.525   0.482
23880W        W96305   7.215  30.441  10.469
23881W        W96306   7.206  15.250  12.425
23882W        W96307  27.018  16.112   3.354
23883W        W96308  15.265   5.423   2.186
23884W        W96309  39.447   3.326   5.093
23885W        W96310  32.944  32.417  10.460
23886W        W96311  22.099   3.747   2.894
23887W        W96312  31.937  18.755   1.309
23888W        W96313  16.690  42.498  11.020
23889W        W96314  25.694  37.570   5.171
23890W        W96315  15.740   0.974  13.426
23891W        W96316  16.584   7.359  10.490
23892W        W96317  19.706  27.610  11.575
23893W        W96318   8.715  32.452   4.690
23894W        W96319  10.833  13.691  12.552
23895W        W96320  36.886  23.682   2.294
23896W        W96321  43.304   9.308  13.311
23897W        W96322  43.355  19.592   4.312
23898W        W96323  12.178  18.052  12.060
23899W        W96324  38.924  11.184  11.381
23900W        W96325  28.150  42.431   1.386
23901W        W96326  37.033  42.465  14.940
23902W        W96327  11.344  10.843  10.593
23903W        W96328  19.676  34.559  13.964
23904W        W96329  42.776  18.575   2.732
23905W        W96330  39.043  13.724   1.924
23906W        W96331   9.271  25.070   1.926
23907W        W96332  12.808  10.374   2.701
23908W        W96333  40.322  31.082  10.539
23909W        W96334  20.210  12.765  10.954
23910W        W96335   7.290  26.997  10.437
23911W        W96336  12.354  42.395  13.350
23912W        W96337  21.605  44.805   3.377
23913W        W96338  11.228  42.786   3.224
23914W        W96339   6.895  10.727   0.740
23915W        W96340  38.907  43.985  12.076
23916W        W96341  29.162  40.342   1.405
23917W        W96342   8.888  17.764  14.486
23918W        W96343  36.448  12.773  13.849
23919W        W96344   3.751  22.249  12.525
23920W        W96345   6.836  39.489   0.916
23921W        W96346  27.042   3.768  12.361
23922W        W96347  32.540  12.767  10.983
23923W        W96348   4.333  36.519  12.873
23924W        W96349  15.689  16.235   4.695
23925W        W96350  26.035  36.550  10.591
23926W        W96351  31.646   9.344  13.001
23927W        W96352  14.195  24.645  10.960
23928W        W96353   6.185  30.984   1.922
23929W        W96354  38.066  17.142   2.187
23930W        W96355   3.723  20.154   4.640
23931W        W96356  37.532  33.992   3.778
23932W        W96357  42.436  20.655  12.371
23933W        W96358  16.760  32.056  14.984
23934W        W96359  31.904  13.350   3.818
23935W        W96360  29.081  38.020  12.867
23936W        W96361  30.967  39.322   2.205
23937W        W96362  24.094  44.863  13.844
23938W        W96363   1.401  39.973   1.760
23939W        W96364   7.742  34.116  13.808
23940W        W96365   9.278  29.618  10.951
23941W        W96366  32.899  33.013   2.810
23942W        W96367  11.658  23.020   2.750
23943W        W96368  43.931  43.315  11.049
23944W        W96369  11.732  30.563   0.383
23945W        W96370  20.187  30.423   0.288
23946W        W96371  18.225   9.339  13.832
23947W        W96372  22.238  19.736   2.876
23948W        W96373  22.241  28.473  13.034
23949W        W96374  20.743  25.186  11.923
23950W        W96375   5.334  39.530   3.366
23951W        W96376   2.293  12.185   4.234
23952W        W96377   5.379  35.018   4.167
23953W        W96378  37.906  41.320   0.828
23954W        W96379   2.417  20.637   1.761
23955W        W96380  36.392  34.462  10.932
23956W        W96381  31.547  10.848   1.393
23957W        W96382  12.240  11.727  14.389
23958W        W96383   4.746  40.403   3.263
23959W        W96384  17.614  38.027  13.855
23960W        W96385  26.567   9.783   1.391
23961W        W96386  11.153   8.736   3.310
23962W        W96387  35.547   3.750   0.283
23963W        W96388  19.612  42.914   4.702
23964W        W96389  23.128  43.383   1.354
23965W        W96390  30.551  14.179   3.208
23966W        W96391   3.333   2.302  11.008
23967W        W96392  26.598  28.163   1.774
23968W        W96393   8.334   1.237  11.899
23969W        W96394  14.757   3.418   2.217
23970W        W96395  28.002  12.194   4.245
23971W        W96396  17.105  35.931   4.796
23972W        W96397  40.413  39.867  13.541
23973W        W96398   9.319   2.392   1.280
23974W        W96399   9.227   3.783   2.740
23975W        W96400  17.161   5.922   4.718
23976W        W96401  10.198  10.147  12.995
23977W        W96402  28.127  39.363  11.979
23978W        W96403  18.787  30.095   0.832
23979W        W96404  22.668  28.024  14.417
23980W        W96405  44.420  17.290   0.438
23981W        W96406  18.262   2.763   3.268
23982W        W96407  27.173  23.002  13.989
23983W        W96408   9.200  40.021  14.838
23984W        W96409  33.044  22.534  14.863
23985W        W96410  25.541  25.000  13.930
23986W        W96411  30.077  25.195  10.979
23987W        W96412   2.464  24.222  12.879
23988W        W96413  11.671  36.541  14.369
23989W        W96414   8.737   7.709   5.181
23990W        W96415  24.075  14.229   3.790
23991W        W96416  13.181  25.094   0.917
23992W        W96417   2.341   5.241  13.319
23993W        W96418  37.082  35.890   1.422
23994W        W96419  28.489  37.554  10.544
23995W        W96420  40.999   6.360  11.513
23996W        W96421   7.383   7.686  13.396
23997W        W96422  36.577  33.009  14.942
23998W        W96423  26.176   3.803   4.334
23999W        W96424  27.979  41.821  13.056
24000W        W96425  34.927  26.535   4.621
24001W        W96426  16.614  30.436   3.766
24002W        W96427  41.882  13.347  11.377
24003W        W96428   8.843   5.912   3.778
24004W        W96429  16.190  32.587   0.838
24005W        W96430   8.223  22.062   0.475
24006W        W96431  18.587  34.976   2.406
24007W        W96432  23.514  20.117  10.447
24008W        W96433  25.068  30.994  14.310
24009W        W96434  19.198  11.351   0.447
24010W        W96435  16.260   3.771   0.795
24011W        W96436  16.237   9.753   4.677
24012W        W96437  34.560   3.295  12.941
24013W        W96438  16.694  10.381  14.917
24014W        W96439  27.652  42.943   0.829
24015W        W96440  39.464  10.836  13.407
24016W        W96441   1.322  31.597  12.502
24017W        W96442  24.609  30.580   3.311
24018W        W96443  38.060  19.619  11.124
24019W        W96444  23.713  15.731  14.459
24020W        W96445  26.632  14.769   0.820
24021W        W96446   1.925  29.577   1.722
24022W        W96447   8.790   1.932   4.678
24023W        W96448  24.014   1.845  11.530
24024W        W96449  33.921  30.066  14.019
24025W        W96450   1.752  13.829   3.777
24026W        W96451  25.586   7.767   3.216
24027W        W96452  17.731  36.841   2.320
24028W        W96453  10.155   4.246   4.314
24029W        W96454   6.200  21.711  12.424
24030W        W96455  22.575  36.882   2.889
24031W        W96456  43.482  44.359  14.770
24032W        W96457  32.139   1.747   2.254
24033W        W96458  30.008  24.977   1.871
24034W        W96459   0.336  12.727   2.221
24035W        W96460  36.029  43.315  12.351
24036W        W96461  18.669  31.052  14.449
24037W        W96462  25.125  41.991  10.922
24038W        W96463  36.863  12.850  11.608
24039W        W96464  28.491  20.198   2.326
24040W        W96465  40.491  44.916  13.959
24041W        W96466  44.296  34.051   2.205
24042W        W96467  32.582  17.619  13.439
24043W        W96468  17.212  16.110  13.992
24044W        W96469  42.790  14.212  11.566
24045W        W96470  37.999  33.457  11.380
24046W        W96471  35.510  43.507   3.304
24047W        W96472  21.562  16.775  10.551
24048W        W96473  29.437  17.700   3.224
24049W        W96474   2.746   3.247  13.935
24050W        W96475  42.870  33.391   2.287
24051W        W96476  18.055  14.174   0.457
24052W        W96477  22.154  20.606  12.900
24053W        W96478  12.627  35.535  13.924
24054W        W96479   6.211  33.946   3.385
24055W        W96480  42.525  23.714   4.789
24056W        W96481  18.780  17.205   1.334
24057W        W96482  43.292  38.561   4.249
24058W        W96483   6.777  10.239   3.261
24059W        W96484  14.714  27.445  11.896
24060W        W96485  42.517  16.122   0.825
24061W        W96486  12.677   0.450  14.795
24062W        W96487  12.301  16.316   2.755
24063W        W96488  16.254  34.064   0.456
24064W        W96489  27.508  38.500   4.239
24065W        W96490  39.444  16.735   1.770
24066W        W96491  43.826  20.062   1.791
24067W        W96492  23.158   7.674   0.279
24068W        W96493   4.775  37.891   0.468
24069W        W96494  14.612  44.453   1.734
24070W        W96495  12.152  24.664  14.871
24071W        W96496  22.629  33.104   0.349
24072W        W96497   2.808  35.108   3.200
24073W        W96498  29.667  30.038  13.911
24074W        W96499  42.283  35.438  10.571
24075W        W96500  43.338  32.934  11.941
24076W        W96501  35.409  39.542   1.759
24077W        W96502  19.089  28.148  14.788
24078W        W96503  14.098  35.085  10.463
24079W        W96504  20.197  29.506   4.302
24080W        W96505   9.733   4.377   3.183
24081W        W96506  11.256  34.051  12.932
24082W        W96507   8.717   6.805   0.731
24083W        W96508  30.588  41.830  11.476
24084W        W96509   9.368  16.173   1.787
24085W        W96510   5.762  39.966  11.003
24086W        W96511  39.013   3.759  11.427
24087W        W96512   1.236  10.342  12.978
24088W        W96513  37.580  15.752  14.822
24089W        W96514  31.970  35.395  11.495
24090W        W96515  22.216  13.746  12.495
24091W        W96516  15.618  37.454  12.577
24092W        W96517  22.636  30.524   1.697
24093W        W96518  29.626  44.460  14.970
24094W        W96519   6.344  33.536   2.374
24095W        W96520  20.738  30.466   2.216
24096W        W96521  40.947  15.268  11.100
24097W        W96522  32.431  39.043  10.614
24098W        W96523  19.244  40.330   3.656
24099W        W96524  44.867  37.459   3.815
24100W        W96525   4.926   2.905  11.023
24101W        W96526  34.607  22.101  12.075
24102W        W96527  28.538   3.324  11.919
24103W        W96528  18.208  34.443  10.564
24104W        W96529  21.628   7.781  13.422
24105W        W96530   2.878  39.927  14.005
24106W        W96531   1.852  35.463  10.637
24107W        W96532  18.701  15.268  11.444
24108W        W96533   2.842  15.691  10.574
24109W        W96534   7.779  34.443  12.576
24110W        W96535  11.682  29.039   2.186
24111W        W96536  16.636  42.309   3.843
24112W        W96537  41.941  35.054   4.160
24113W        W96538   7.775   7.766   3.316
24114W        W96539  10.359  42.921   0.434
24115W        W96540  35.043   3.833   2.230
24116W        W96541  24.665  38.437   4.197
24117W        W96542   3.912  44.278  12.441
24118W        W96543  13.732  33.081   4.243
24119W        W96544  31.541  18.568  10.477
24120W        W96545  22.684   4.317   0.803
24121W        W96546  31.581   5.287  10.895
24122W        W96547   5.711  37.868   0.284
24123W        W96548  42.393  34.432  12.561
24124W        W96549  21.101  29.117  11.553
24125W        W96550   0.801  12.333   3.341
24126W        W96551  20.049   7.701  13.516
24127W        W96552   8.668  14.750   0.940
24128W        W96553  31.594  21.097  14.399
24129W        W96554  32.058  25.680   4.232
24130W        W96555  42.371   8.354   4.209
24131W        W96556  32.100  12.656  10.081
24132W        W96557  12.191  41.449  11.126
24133W        W96558  41.386  40.047   0.753
24134W        W96559   9.673   8.285   9.974
24135W        W96560   2.816  17.696  13.341
24136W        W96561  38.341   2.793   2.293
24137W        W96562   0.455   3.452   2.316
24138W        W96563  34.461  40.031   1.288
24139W        W96564   8.756  35.892  14.967
24140W        W96565   6.395  28.517   0.801
24141W        W96566  18.231  39.820   4.826
24142W        W96567   7.771   8.842  12.070
24143W        W96568  29.084  15.218  11.863
24144W        W96569  40.945  29.498   3.761
24145W        W96570   6.717   9.818   3.322
24146W        W96571  30.111  11.208  13.992
24147W        W96572  23.535  29.578  11.884
24148W        W96573  13.155  27.595   1.226
24149W        W96574  44.962   0.815   0.381
24150W        W96575  24.615  11.260   4.790
24151W        W96576   3.416  24.522   2.861
24152W        W96577   9.769   9.790  13.373
24153W        W96578  38.942  28.463   3.821
24154W        W96579  12.117  35.522  14.429
24155W        W96580  14.633  22.140  14.955
24156W        W96581  11.242  40.844   2.868
24157W        W96582   9.149  40.000   0.754
24158W        W96583  23.641  37.528   0.378
24159W        W96584  19.642  44.924   2.675
24160W        W96585   7.171  31.899   4.128
24161W        W96586  27.948   1.756   2.691
24162W        W96587  36.479  39.398  10.945
24163W        W96588  16.281   9.373   2.248
24164W        W96589  31.907  40.428   3.648
24165W        W96590   4.863  10.739   9.968
24166W        W96591  10.300  41.374   2.267
24167W        W96592   7.907  40.007   2.370
24168W        W96593   4.274  28.087   0.912
24169W        W96594  44.287   0.835   4.339
24170W        W96595  17.677  30.984  11.953
24171W        W96596  42.007  19.210  11.485
24172W        W96597  28.112  34.549   0.845
24173W        W96598   4.937   9.267  14.954
24174W        W96599  37.554  21.239   2.417
24175W        W96600  20.638  12.341  13.445
24176W        W96601  12.151  42.909   3.305
24177W        W96602   3.886  19.568   0.845
24178W        W96603  38.543   2.923   1.707
24179W        W96604  16.160  40.311  11.864
24180W        W96605  15.294  17.650  11.573
24181W        W96606  38.911  39.945   2.279
24182W        W96607   3.417  14.285  11.439
24183W        W96608  31.013  20.081  14.777
24184W        W96609  14.659  21.163  12.038
24185W        W96610  10.722  31.573   3.836
24186W        W96611  37.917  27.019   0.844
24187W        W96612  22.009  36.420  14.481
24188W        W96613  26.636  24.696  14.342
24189W        W96614  38.391  21.132   1.935
24190W        W96615  41.929  41.918  14.799
24191W        W96616   8.738  41.829  14.846
24192W        W96617  22.587  21.591   1.228
24193W        W96618  19.279  20.604  14.830
24194W        W96619  23.999  20.704   3.305
24195W        W96620  24.561   0.819  12.865
24196W        W96621  33.597  44.385   5.158
24197W        W96622   2.263  30.959  14.867
24198W        W96623  33.077  39.459   2.247
24199W        W96624  43.913  17.225   1.323
24200W        W96625  22.562  11.785  12.565
24201W        W96626  12.192  23.108   5.642
24202W        W96627  22.170  37.577   2.730
24203W        W96628  31.069  14.183   5.265
24204W        W96629  19.589   6.687   2.206
24205W        W96630  41.426  37.450  11.533
24206W        W96631  22.071  28.126   0.300
24207W        W96632  35.391  33.023  13.946
24208W        W96633  34.940  23.148   3.269
24209W        W96634  38.547   8.743   2.189
24210W        W96635  25.075  32.123  10.945
24211W        W96636  43.354   4.906   1.218
24212W        W96637  22.206  17.738  13.867
24213W        W96638   2.237  19.069   4.629
24214W        W96639  21.533  32.616  14.975
24215W        W96640   1.337  17.171   4.603
24216W        W96641  34.937  14.598  12.954
24217W        W96642  31.488  44.764   4.745
24218W        W96643   9.180  36.863  14.458
24219W        W96644  32.594   9.788  13.947
24220W        W96645   0.324  35.448  11.560
24221W        W96646  28.025  41.483  10.970
24222W        W96647   5.292  37.417  12.531
24223W        W96648   6.820  40.496  12.454
24224W        W96649   8.821  22.135  12.940
24225W        W96650  10.182  20.137   0.281
24226W        W96651  34.945  18.628   4.643
24227W        W96652  33.066  32.101   4.628
24228W        W96653  10.172  17.254   4.643
24229W        W96654   7.705  41.876   2.335
24230W        W96655   3.405   6.682   4.601
24231W        W96656  10.744  42.445   4.808
24232W        W96657   3.813   5.362   4.805
24233W        W96658   8.709  42.861  14.488
24234W        W96659  10.744  31.976   0.745
24235W        W96660  38.481  29.596   0.405
24236W        W96661   6.424   8.339   3.653
24237W        W96662  11.791  26.062  13.884
24238W        W96663  13.758   8.350   0.783
24239W        W96664  38.520  25.129  12.997
24240W        W96665  13.136  43.960   1.794
24241W        W96666  13.703  26.130  11.519
24242W        W96667  14.654  32.038   1.224
24243W        W96668  23.701  16.140  11.064
24244W        W96669   8.304   6.184  11.498
24245W        W96670   6.888  34.475  14.877
24246W        W96671  11.218  18.756  11.424
24247W        W96672   9.843  36.089   2.197
24248W        W96673  39.863  41.426  12.414
24249W        W96674  39.836   1.757   2.877
24250W        W96675  17.623   8.831  13.910
24251W        W96676  15.286   8.768  12.969
24252W        W96677   1.454  33.610   4.300
24253W        W96678   3.828  29.166   4.241
24254W        W96679  37.969  10.743  10.510
24255W        W96680  22.664  39.851  13.979
24256W        W96681  11.359  26.971  12.420
24257W        W96682  33.132  31.566   3.851
24258W        W96683  25.638   9.286   1.757
24259W        W96684  27.605   6.809  10.963
24260W        W96685  22.013  26.535   5.299
24261W        W96686  41.900   7.408   2.349
24262W        W96687  10.312  34.882  14.779
24263W        W96688  43.958   5.356  12.935
24264W        W96689  34.547  42.889   3.643
24265W        W96690  31.037   9.260  13.426
24266W        W96691  44.816  43.819  11.065
24267W        W96692  33.898  44.400  13.475
24268W        W96693  28.144  15.760  12.068
24269W        W96694  31.550  37.376  11.466
24270W        W96695  26.694  36.469  11.075
24271W        W96696  15.208   5.843   3.149
24272W        W96697   1.830  38.557   3.328
24273W        W96698  12.269  40.509   0.959
24274W        W96699  27.549   3.715  13.050
24275W        W96700   7.388   8.261  13.488
24276W        W96701  18.080  30.125   0.435
24277W        W96702  17.063  38.859   0.333
24278W        W96703  33.600   1.947   4.806
24279W        W96704  38.037   1.756  13.966
24280W        W96705  31.025  20.760   3.360
24281W        W96706  15.628  24.165   4.651
24282W        W96707  42.967  39.541   2.293
24283W        W96708  28.998  24.492  10.903
24284W        W96709  12.154  43.402  13.514
24285W        W96710   6.804  30.554  11.022
24286W        W96711  13.185  17.150   3.364
24287W        W96712  13.343  15.746  12.929
24288W        W96713   6.293  32.885  12.501
24289W        W96714   6.278  36.943   1.714
24290W        W96715   0.754  22.240  13.915
24291W        W96716  36.935  25.688   5.179
24292W        W96717  13.777   0.847   4.802
24293W        W96718  37.075  10.708   3.295
24294W        W96719  24.594  12.261   1.916
24295W        W96720  22.572   3.756  13.046
24296W        W96721  10.230  37.501  14.280
24297W        W96722  26.175  18.696   0.772
24298W        W96723  10.199  40.464  12.477
24299W        W96724   9.881   1.732   1.723
24300W        W96725  12.693  10.668  12.070
24301W        W96726  40.312   0.287   1.440
24302W        W96727   3.380  26.207  13.921
24303W        W96728   9.241   5.808   1.348
24304W        W96729  34.380  11.746  12.022
24305W        W96730  12.193  34.516  11.942
24306W        W96731  38.370  21.180   1.309
24307W        W96732  13.709  27.174   3.767
24308W        W96733  41.958  16.190   0.451
24309W        W96734  44.480  10.279   3.758
24310W        W96735  33.046  21.175   1.830
24311W        W96736   5.732   5.263   0.259
24312W        W96737  19.725  36.929   2.365
24313W        W96738  22.684  37.364  10.952
24314W        W96739  26.532  30.969  14.980
24315W        W96740  35.452  39.039   0.312
24316W        W96741  37.360  32.956   2.706
24317W        W96742   9.255  18.650  11.586
24318W        W96743  28.033  17.167   4.277
24319W        W96744  17.112  15.194   4.260
24320W        W96745  22.163  20.715  13.995
24321W        W96746  38.884  30.099  12.984
24322W        W96747  12.322  26.022   3.295
24323W        W96748   0.775  36.903   4.618
24324W        W96749  42.334  25.620   3.675
24325W        W96750  35.956  42.875  10.640
24326W        W96751  36.898  20.759  12.855
24327W        W96752  15.184  43.409  10.960
24328W        W96753   8.200  44.934  11.043
24329W        W96754   1.444  21.113   2.201
24330W        W96755   3.242  41.882   0.791
24331W        W96756   7.185  41.961   0.275
24332W        W96757   6.794   7.182  12.055
24333W        W96758   4.750  12.357   0.307
24334W        W96759  29.950   1.841  14.334
24335W        W96760  22.671  21.533   3.729
24336W        W96761   8.859  15.213   0.444
24337W        W96762   2.445  41.431  13.974
24338W        W96763   7.894  41.843  14.504
24339W        W96764   0.851  36.846   4.214
24340W        W96765  18.136  33.493   3.166
24341W        W96766   8.254  37.940   4.606
24342W        W96767  41.388  28.497   3.385
24343W        W96768  17.289   3.351  13.796
24344W        W96769   0.358   2.320  12.580
24345W        W96770  37.028  19.272  14.880
24346W        W96771  23.535  36.964   4.751
24347W        W96772  20.045  33.596   0.862
24348W        W96773  38.381  27.473   4.184
24349W        W96774  11.227   2.461  14.341
24350W        W96775  36.527  38.552   3.825
24351W        W96776  26.052   6.856  11.463
24352W        W96777   8.889   4.810  12.951
24353W        W96778  30.639  33.594  12.552
24354W        W96779  19.070  39.448  10.945
24355W        W96780  32.566   7.776   1.799
24356W        W96781  11.292   4.921  10.983
24357W        W96782  28.936   0.954   4.644
24358W        W96783  35.976  12.754  11.388
24359W        W96784  29.480  15.797   4.321
24360W        W96785  36.957  26.136   2.323
24361W        W96786  39.044  33.414  11.404
24362W        W96787  42.961  11.201   2.846
24363W        W96788  17.273   2.353   1.354
24364W        W96789  15.674  26.095   1.210
24365W        W96790  17.559   3.803   0.775
24366W        W96791  14.812  31.455  12.462
24367W        W96792   0.382  21.210  14.383
24368W        W96793  42.817  12.195  11.909
24369W        W96794  28.117  30.919   3.205
24370W        W96795   5.846  40.987   2.288
24371W        W96796   0.881   8.338  12.853
24372W        W96797  23.728  11.781   1.837
24373W        W96798  18.568  16.698  12.088
24374W        W96799  44.433  16.177   0.284
24375W        W96800  34.446  14.784   1.267
24376W        W96801   7.323   7.782   4.208
24377W        W96802  42.915   2.743   0.733
24378W        W96803   1.377  12.659  13.995
24379W        W96804  10.156  41.992   3.788
24380W        W96805   0.486   8.403  12.882
24381W        W96806  10.867  31.504  11.943
24382W        W96807  22.641  26.960  11.027
24383W        W96808  36.394  44.921   0.916
24384W        W96809   9.791  31.498  13.381
24385W        W96810  38.961  22.638   4.213
24386W        W96811  17.793   8.844   4.837
24387W        W96812  10.270  20.147   4.292
24388W        W96813  19.261  38.535   2.406
24389W        W96814   3.853   4.891   0.911
24390W        W96815  15.756   6.412   4.150
24391W        W96816  21.549   9.725   0.411
24392W        W96817  43.325  10.754  13.844
24393W        W96818  23.080  11.195  13.987
24394W        W96819   8.809  12.804   0.272
24395W        W96820  11.760  13.738  11.610
24396W        W96821  17.104  35.532  14.358
24397W        W96822  24.036  29.152   1.337
24398W        W96823  21.539  13.736   4.733
24399W        W96824  39.408  42.933  13.850
24400W        W96825   3.309   5.426  14.338
24401W        W96826  32.406  43.473  11.033
24402W        W96827  10.675  18.263  14.810
24403W        W96828  24.701  16.707   1.385
24404W        W96829  15.707  26.576   1.933
24405W        W96830  33.469  34.585   5.171
24406W        W96831   2.888  16.633  14.479
24407W        W96832  27.139  30.552   0.777
24408W        W96833  29.668  15.586  11.051
24409W        W96834  38.036  14.747  12.934
24410W        W96835  38.025  42.931  11.581
24411W        W96836  33.519  29.052  12.506
24412W        W96837   1.928  26.632   0.285
24413W        W96838  34.965   8.343  14.924
24414W        W96839  29.537  17.137   2.833
24415W        W96840   7.205  33.052  12.079
24416W        W96841  16.778  17.210  14.281
24417W        W96842  40.931   9.278   2.796
24418W        W96843  21.259  38.539   1.264
24419W        W96844  33.933  28.158   0.303
24420W        W96845  23.654  13.285   2.353
24421W        W96846  13.345   4.301  11.949
24422W        W96847  35.437  36.566  11.094
24423W        W96848  31.940  41.429   2.325
24424W        W96849   9.274  32.448  14.438
24425W        W96850  25.583   4.239   1.291
24426W        W96851  28.598  17.201   1.404
24427W        W96852   7.856  38.994   0.451
24428W        W96853  14.128  43.900  11.543
24429W        W96854  30.061  19.747   1.708
24430W        W96855   0.416  23.526  10.602
24431W        W96856  40.911  32.632   1.233
24432W        W96857  16.629  23.015   3.294
24433W        W96858   2.927  22.090  14.823
24434W        W96859   0.926  31.927  10.457
24435W        W96860  34.443  28.438   3.224
24436W        W96861  29.662  38.531  11.957
24437W        W96862  12.653   3.795   3.852
24438W        W96863   4.712  37.491   9.952
24439W        W96864  12.711  10.372   0.853
24440W        W96865  19.624   4.381   1.250
24441W        W96866  27.634  12.757  14.993
24442W        W96867  25.006  11.149  11.571
24443W        W96868  32.061  37.410   2.326
24444W        W96869  37.440  21.224   0.462
24445W        W96870   1.295  19.697   2.741
24446W        W96871   7.373  25.037  12.039
24447W        W96872   6.409  31.151  11.087
24448W        W96873  16.209  11.846   2.810
24449W        W96874  28.613  37.951   3.157
24450W        W96875  20.220  30.112   4.188
24451W        W96876  27.673  13.178  10.455
24452W        W96877  19.134  44.381   4.801
24453W        W96878  19.186  30.435  14.009
24454W        W96879   3.260  12.696   0.287
24455W        W96880  38.075  25.004   4.833
24456W        W96881   6.815  29.998   1.931
24457W        W96882  14.702  30.066  13.400
24458W        W96883  12.219   3.870  14.028
24459W        W96884  42.523  10.825   0.362
24460W        W96885  21.249  25.201  11.485
24461W        W96886  11.810   9.197   2.359
24462W        W96887  26.618   2.963   1.318
24463W        W96888  19.668   6.299  14.401
24464W        W96889   1.436  14.224   2.823
24465W        W96890  43.782  32.575  10.511
24466W        W96891  26.023  28.964  11.461
24467W        W96892  20.564  39.390  10.589
24468W        W96893  30.141  17.299   2.334
24469W        W96894  28.088  40.457  10.452
24470W        W96895  32.425  24.134   4.269
24471W        W96896  14.103  38.368   0.302
24472W        W96897  40.013  41.422   3.224
24473W        W96898  22.108  31.016  10.515
24474W        W96899  13.208  34.552  13.452
24475W        W96900   6.829  19.158  11.470
24476W        W96901  40.836  42.935   4.304
24477W        W96902  14.803  23.504   4.610
24478W        W96903  37.019  13.237  12.531
24479W        W96904   5.439  44.825   3.795
24480W        W96905  30.991   2.335  14.913
24481W        W96906  13.129  42.364   2.300
24482W        W96907  28.604  29.523  12.915
24483W        W96908   4.274  20.718   0.929
24484W        W96909  37.072  20.131   0.441
24485W        W96910  13.174   5.406  13.994
24486W        W96911  29.067   5.846  10.539
24487W        W96912  30.541  33.925  13.057
24488W        W96913  37.384  40.427  11.372
24489W        W96914  26.164  21.708   2.760
24490W        W96915  39.556  43.483  11.049
24491W        W96916  42.970  39.492   3.631
24492W        W96917  11.324  37.902   0.305
24493W        W96918  35.366  20.209   3.838
24494W        W96919  20.697  10.645   2.866
24495W        W96920  36.507   7.810  14.979
24496W        W96921  39.963  15.137   0.803
24497W        W96922  27.076   0.351  14.410
24498W        W96923   7.691  41.008  14.852
24499W        W96924  28.596  37.367  11.582
24500W        W96925  33.396  33.441   3.639
24501W        W96926  32.057  28.549   2.676
24502W        W96927   4.746  17.757   0.912
24503W        W96928  33.404  38.934   4.837
24504W        W96929  33.510   7.842  13.911
24505W        W96930  18.788  19.044   3.818
24506W        W96931   8.695  25.709   4.314
24507W        W96932  36.060   5.268  11.377
24508W        W96933  39.860  24.000  10.640
24509W        W96934  43.898  21.630   3.838
24510W        W96935  12.795  20.574  11.889
24511W        W96936  11.825   6.723  14.971
24512W        W96937   6.410  28.558  11.036
24513W        W96938   9.299  14.165  12.502
24514W        W96939  36.478  38.901  10.918
24515W        W96940  34.102   9.675  12.079
24516W        W96941  10.353  28.001   4.619
24517W        W96942  11.717  19.254  13.989
24518W        W96943  23.072  35.439  11.461
24519W        W96944   6.264  37.478   4.276
24520W        W96945  33.432   4.925  14.344
24521W        W96946  40.968  44.821   3.837
24522W        W96947  42.403   5.851   0.254
24523W        W96948   4.420   7.808  11.937
24524W        W96949  22.674  27.042  14.763
24525W        W96950  30.960   0.462  12.949
24526W        W96951  12.632  14.793  14.382
24527W        W96952  16.587  22.625   2.300
24528W        W96953  15.688  23.166  10.930
24529W        W96954  15.774   6.299  12.356
24530W        W96955  33.438  18.663   0.294
24531W        W96956  36.999   0.339   2.400
24532W        W96957  12.331  36.901  13.821
24533W        W96958  24.550  41.464  11.528
24534W        W96959  40.900  17.602   3.822
24535W        W96960  32.086   9.226   4.698
24536W        W96961  34.961  35.928   1.920
24537W        W96962   8.869  21.059  14.826
24538W        W96963  20.246  26.953   3.740
24539W        W96964  36.422  42.467   1.429
24540W        W96965   4.828  25.498   1.899
24541W        W96966   8.351  36.464  13.338
24542W        W96967   1.758  20.207  13.496
24543W        W96968  30.955   8.163   2.743
24544W        W96969  16.181  30.962   4.710
24545W        W96970  40.302   1.375   4.773
24546W        W96971   6.367  26.621  12.560
24547W        W96972  20.632  38.830  13.312
24548W        W96973   4.281  17.203  11.579
24549W        W96974   8.298  19.543  13.028
24550W        W96975  15.607  32.610   5.301
24551W        W96976   8.701   7.755  10.496
24552W        W96977   9.191  33.568   4.176
24553W        W96978   9.855  33.621   0.775
24554W        W96979  21.733  28.538  12.835
24555W        W96980  24.555   7.349   1.701
24556W        W96981  43.789  26.189   0.446
24557W        W96982  21.629  35.854  10.901
24558W        W96983   8.259  16.101  13.383
24559W        W96984  20.048   9.823  14.024
24560W        W96985  32.014   9.690   1.381
24561W        W96986  39.929  42.807   1.756
24562W        W96987  27.643  23.572   4.202
24563W        W96988  38.550  41.978   2.666
24564W        W96989   1.258  16.293  12.928
24565W        W96990  40.839  34.491  12.396
24566W        W96991  25.090  39.810   3.355
24567W        W96992  42.397   1.483  11.486
24568W        W96993  41.004  44.972  14.938
24569W        W96994  37.513  42.430  10.444
24570W        W96995  22.118  37.915  10.939
24571W        W96996   3.247  11.755  10.409
24572W        W96997  16.161  44.372   0.440
24573W        W96998  42.479   8.291  11.520
24574W        W96999  40.001  40.052  11.859
24575W        W97000   2.903  16.610  13.911
24576W        W97001  35.562  25.053  10.595
24577W        W97002  21.112  13.300  13.925
24578W        W97003  34.868  35.064   0.857
24579W        W97004  23.572   2.265   3.214
24580W        W97005  44.887   8.660  12.387
24581W        W97006  26.578   4.770   0.270
24582W        W97007  16.649  23.178  12.995
24583W        W97008   0.773  21.605  11.115
24584W        W97009   6.684  23.654  13.014
24585W        W97010   8.659   7.225   2.261
24586W        W97011  33.888   5.223   0.946
24587W        W97012  28.990  11.243   2.719
24588W        W97013   2.819  43.315   0.751
24589W        W97014  31.441  41.514  11.556
24590W        W97015  33.490  20.081  14.985
24591W        W97016  36.900  34.588  12.983
24592W        W97017  10.829  13.772   4.121
24593W        W97018   3.904  31.565  13.383
24594W        W97019   8.356   8.372  14.949
24595W        W97020  40.938  31.065   0.845
24596W        W97021  17.715   3.778   1.349
24597W        W97022  13.744  19.249   3.851
24598W        W97023  39.941   1.747  10.978
24599W        W97024  26.198   5.698   3.733
24600W        W97025  43.806  19.653   2.318
24601W        W97026  14.695  28.156   1.922
24602W        W97027   8.403  24.229   3.270
24603W        W97028  12.724  40.382  11.916
24604W        W97029  15.707  34.066  14.453
24605W        W97030  36.370  11.363  12.376
24606W        W97031  35.557  11.194   1.829
24607W        W97032  12.827  31.987   2.195
24608W        W97033  26.074  11.373  13.883
24609W        W97034  34.008  23.579   1.932
24610W        W97035  32.619  42.872   0.778
24611W        W97036  39.914  25.610  13.000
24612W        W97037   3.358  21.648   2.878
24613W        W97038   9.227  28.068   4.187
24614W        W97039   3.906   4.307   1.253
24615W        W97040  41.951  40.033  10.412
24616W        W97041  34.108  42.978   2.859
24617W        W97042   4.764  25.512   4.352
24618W        W97043  44.824  43.479   2.755
24619W        W97044  17.183  11.206  14.964
24620W        W97045  22.208   5.850  11.561
24621W        W97046  13.140  19.093   4.739
24622W        W97047  32.439  14.294  14.325
24623W        W97048  40.865  21.555   2.339
24624W        W97049   5.862  26.522   0.861
24625W        W97050  43.400  22.727   1.348
24626W        W97051  39.546  14.794  11.996
24627W        W97052  33.585  42.515   4.680
24628W        W97053   4.237  14.671   2.187
24629W        W97054   1.291  34.918   3.835
24630W        W97055  42.492  19.249   1.726
24631W        W97056  20.029   9.875   4.827
24632W        W97057  37.948  32.607  10.959
24633W        W97058  40.428  43.471   3.753
24634W        W97059  36.996  13.665   2.395
24635W        W97060   3.842   6.317   3.345
24636W        W97061  21.103   0.778  11.977
24637W        W97062  35.447  22.739   1.823
24638W        W97063  22.185   8.700   5.270
24639W        W97064  28.132  20.663   0.881
24640W        W97065  36.532   9.848  12.939
24641W        W97066  27.964  44.890   1.379
24642W        W97067  17.698   7.345   4.683
24643W        W97068  21.071  22.589   0.326
24644W        W97069   1.292  42.985  10.075
24645W        W97070  26.516  42.874  10.452
24646W        W97071  25.097  39.026   1.318
24647W        W97072  16.709  43.506   2.731
24648W        W97073  24.592  32.100   2.778
24649W        W97074  25.153   3.793   3.347
24650W        W97075  21.671  37.022  12.092
24651W        W97076  34.984  20.525   2.317
24652W        W97077   8.731  43.931   0.270
24653W        W97078  24.985  27.585  13.895
24654W        W97079   6.229  29.036   4.238
24655W        W97080   6.840  23.195   0.302
24656W        W97081  31.026  35.604  13.390
24657W        W97082  41.352   2.261  12.035
24658W        W97083  21.669  24.625   2.229
24659W        W97084  15.278  28.502  13.002
24660W        W97085  23.639  35.009   1.776
24661W        W97086  31.628   0.808  11.574
24662W        W97087  27.088  37.069   4.287
24663W        W97088  16.813  20.745   4.718
24664W        W97089  33.891  32.475  13.806
24665W        W97090   0.448  10.310   4.634
24666W        W97091  15.785  30.413   1.432
24667W        W97092  30.051  34.937   4.804
24668W        W97093  38.053   3.350  14.364
24669W        W97094  19.191  27.451   4.625
24670W        W97095  17.307   6.823  11.069
24671W        W97096  37.371  11.162   0.282
24672W        W97097  41.809  34.537   0.448
24673W        W97098  32.046  41.854   5.243
24674W        W97099  24.107  26.542   3.329
24675W        W97100  28.656   8.326   0.412
24676W        W97101  19.746  11.178  14.475
24677W        W97102   3.323  37.346   1.393
24678W        W97103  42.850  29.042  11.593
24679W        W97104  42.928  21.055   4.241
24680W        W97105   9.362   1.465   4.787
24681W        W97106  10.692  12.278  14.017
24682W        W97107  21.552   6.409   9.986
24683W        W97108  37.995  24.984   3.301
24684W        W97109  13.219  24.660  10.566
24685W        W97110  33.978   4.305   0.409
24686W        W97111  34.058   4.859   4.634
24687W        W97112  35.968   0.275  14.423
24688W        W97113  15.635  18.146   1.368
24689W        W97114  26.632  44.858   4.814
24690W        W97115  28.497  36.972   2.841
24691W        W97116   2.402  13.344  14.384
24692W        W97117  16.308  27.516  10.976
24693W        W97118  11.194   3.402  14.345
24694W        W97119  19.621  26.075   1.839
24695W        W97120  16.280  37.886   4.755
24696W        W97121  25.572   8.372   0.322
24697W        W97122   2.235  10.316   0.444
24698W        W97123   5.383  14.099  12.952
24699W        W97124  17.175  27.575  12.374
24700W        W97125  12.152  19.649   4.291
24701W        W97126  32.596  31.114  11.375
24702W        W97127   4.326  10.196  13.053
24703W        W97128  22.601  40.390   4.335
24704W        W97129  28.112  25.106  11.124
24705W        W97130  10.377  29.631  14.828
24706W        W97131  29.648  37.874   0.438
24707W        W97132  26.521  14.143  14.327
24708W        W97133   9.266  37.887  12.482
24709W        W97134  37.464  20.078  12.902
24710W        W97135  41.853  34.426   3.176
24711W        W97136  27.475  29.426  11.956
24712W        W97137  36.062  18.624  11.593
24713W        W97138   6.424  28.523  12.072
24714W        W97139   0.980  33.101  14.435
24715W        W97140  23.668  25.706  11.410
24716W        W97141  44.835  31.065  13.486
24717W        W97142  40.448  42.377  12.026
24718W        W97143  31.506  19.708  10.984
24719W        W97144  34.379  21.734   3.315
24720W        W97145  14.326  15.695  13.326
24721W        W97146   8.788   0.367  11.876
24722W        W97147  39.872  24.172   1.300
24723W        W97148  16.148  19.716   2.194
24724W        W97149   7.194  10.204   0.461
24725W        W97150  35.547  18.774   4.791
24726W        W97151  36.915  44.450  11.563
24727W        W97152  23.522   0.290   4.122
24728W        W97153  16.295  34.482   2.402
24729W        W97154   9.860  34.012   2.774
24730W        W97155  39.007  12.723   2.417
24731W        W97156  17.733  40.361   4.804
24732W        W97157   8.730  28.015  10.530
24733W        W97158  33.889  15.121   3.276
24734W        W97159  30.064  20.724   4.124
24735W        W97160  27.522  26.201  13.399
24736W        W97161   4.815  24.660  13.056
24737W        W97162  27.493  39.316  11.516
24738W        W97163  26.188  22.050  12.429
24739W        W97164  21.181  14.307   0.735
24740W        W97165  18.117  30.428  13.982
24741W        W97166  22.103  35.444  13.358
24742W        W97167  15.580  27.456  14.953
24743W        W97168  38.069  29.517   4.788
24744W        W97169  43.881  39.453  13.950
24745W        W97170  44.997  11.202   0.786
24746W        W97171  22.125  14.291   2.359
24747W        W97172   5.339  42.838  10.418
24748W        W97173   7.282   2.345   0.423
24749W        W97174  22.144  29.028  10.593
24750W        W97175   3.953  27.510  10.519
24751W        W97176   5.714   0.248  14.826
24752W        W97177   8.806  39.317   3.739
24753W        W97178  44.946  35.380   0.336
24754W        W97179   0.891  28.564   3.295
24755W        W97180  31.114  11.829   0.908
24756W        W97181   3.279  33.405   0.265
24757W        W97182  23.139   2.807  12.498
24758W        W97183  35.359  43.408  14.961
24759W        W97184  40.348  12.332  11.400
24760W        W97185   7.274   4.713   1.342
24761W        W97186  16.200  15.310   0.402
24762W        W97187  17.613  31.467  11.577
24763W        W97188  26.076  38.453  10.519
24764W        W97189  15.794  12.773   4.748
24765W        W97190  42.889  21.525   1.741
24766W        W97191  20.071   8.871   1.705
24767W        W97192   3.891  19.664   2.810
24768W        W97193  42.316  19.207   4.695
24769W        W97194   1.736  30.585  12.497
24770W        W97195  13.123  13.186  10.593
24771W        W97196  42.519  20.721  14.962
24772W        W97197   6.863  24.710  11.579
24773W        W97198  37.928  41.844   4.651
24774W        W97199  39.906  28.670  12.843
24775W        W97200  17.621  15.192  13.312
24776W        W97201  39.055   6.896   1.357
24777W        W97202  13.225   7.776  13.958
24778W        W97203  32.079   4.350   1.299
24779W        W97204   9.872  18.264  13.843
24780W        W97205  37.506  42.872   9.930
24781W        W97206  32.594  42.998   2.880
24782W        W97207  22.192  22.711   1.244
24783W        W97208  21.245   5.931  10.507
24784W        W97209  17.583  42.783   1.320
24785W        W97210  24.143  28.139  11.606
24786W        W97211  13.798  26.621   2.337
24787W        W97212  27.161  36.560  13.860
24788W        W97213  31.972  13.661  12.385
24789W        W97214   4.388   3.825  11.475
24790W        W97215  12.266   0.277  11.075
24791W        W97216  43.980  35.080  14.337
24792W        W97217  32.409   3.403   1.273
24793W        W97218  26.163  34.901   3.280
24794W        W97219   7.738  42.820  11.121
24795W        W97220  28.010   9.366  12.552
24796W        W97221  37.474  16.212   4.622
24797W        W97222  33.520  24.521  11.961
24798W        W97223  14.315   5.906  13.495
24799W        W97224  21.527   0.432   0.262
24800W        W97225  40.980   0.476   2.412
24801W        W97226  16.266  34.533  10.634
24802W        W97227  24.518  43.314   1.236
24803W        W97228  40.421   3.303   3.256
24804W        W97229  29.953   0.280   2.267
24805W        W97230  17.072  29.663  13.428
24806W        W97231  13.173  37.352  13.519
24807W        W97232  44.336  20.048  12.466
24808W        W97233   7.755  12.814  14.440
24809W        W97234   3.918  15.666   1.809
24810W        W97235  30.928   3.839   0.857
24811W        W97236  34.955  42.411  13.870
24812W        W97237  19.668   6.238  11.963
24813W        W97238  42.905  42.936  14.463
24814W        W97239  31.460   1.469  11.383
24815W        W97240  23.071  27.973  14.441
24816W        W97241  25.610  11.631  11.530
24817W        W97242  42.824  26.971   3.722
24818W        W97243  14.801   7.690   0.876
24819W        W97244  22.049  27.508   3.293
24820W        W97245  18.290  11.294   1.708
24821W        W97246   0.753  10.353   0.880
24822W        W97247  30.489  16.142  10.550
24823W        W97248  28.965  33.894  11.441
24824W        W97249   8.873  15.138   2.317
24825W        W97250  42.825  23.015   0.964
24826W        W97251  24.678   3.889   1.719
24827W        W97252  16.286  33.047   2.683
24828W        W97253  43.466  27.027   4.120
24829W        W97254  15.244  20.160  13.916
24830W        W97255  43.852   2.782  12.511
24831W        W97256  20.133  43.319   1.818
24832W        W97257  24.208   1.842   1.916
24833W        W97258  40.517  26.952  12.340
24834W        W97259   1.468   4.866  14.501
24835W        W97260  27.582  43.408   0.953
24836W        W97261   4.766   7.826   0.919
24837W        W97262  28.624   7.409   4.695
24838W        W97263  28.028   8.710  10.973
24839W        W97264   4.251  32.060   3.307
24840W        W97265  22.009  32.628  11.086
24841W        W97266  11.683  27.586   0.379
24842W        W97267  43.512  14.633  10.449
24843W        W97268  10.706  15.750   0.329
24844W        W97269  42.892  30.076   4.167
24845W        W97270  27.136  26.114  12.381
24846W        W97271  25.084  32.508  14.466
24847W        W97272  30.581  44.860   4.285
24848W        W97273  15.747  26.128  10.920
24849W        W97274  33.611   3.728  10.935
24850W        W97275  42.951  29.500  11.427
24851W        W97276  24.172  38.047   3.286
24852W        W97277  20.754  21.045  14.308
24853W        W97278  14.834  15.656  13.346
24854W        W97279   4.364  27.106   3.823
24855W        W97280  17.108  41.005  12.888
24856W        W97281   1.448  38.525  12.091
24857W        W97282   9.380  22.143   0.438
24858W        W97283  27.644  16.221   0.922
24859W        W97284  36.903  20.140  11.450
24860W        W97285  25.532   0.983   5.089
24861W        W97286  16.753  32.583  13.515
24862W        W97287  26.651  32.424  11.494
24863W        W97288   2.787  13.290   2.191
24864W        W97289  14.179   1.350  12.865
24865W        W97290  19.769  18.273  11.904
24866W        W97291   0.821  37.504   2.274
24867W        W97292  23.644  14.307   0.391
24868W        W97293  38.540  16.206   0.296
24869W        W97294   8.195  14.222   1.751
24870W        W97295  10.155   5.918   5.721
24871W        W97296   3.783  35.570   3.278
24872W        W97297  43.810  36.096   2.773
24873W        W97298  43.827  36.993  13.024
24874W        W97299  31.966  31.524  12.956
24875W        W97300  11.728   7.270  12.019
24876W        W97301  32.078  17.789  11.597
24877W        W97302  38.874   8.677   0.314
24878W        W97303  29.037  41.522   1.372
24879W        W97304  27.595  40.038   0.866
24880W        W97305  10.162  37.345  13.410
24881W        W97306  24.213   4.423   1.401
24882W        W97307  38.375  38.013   1.903
24883W        W97308  43.412  32.562  10.906
24884W        W97309  32.069  18.241   2.258
24885W        W97310  13.309  22.248   0.794
24886W        W97311  16.743  37.989   3.798
24887W        W97312   5.405  41.006   4.649
24888W        W97313  39.888  28.499   1.328
24889W        W97314   4.781  14.687  12.947
24890W        W97315  17.567  40.478   0.932
24891W        W97316  11.734  33.054  12.434
24892W        W97317  29.487  15.261  13.406
24893W        W97318  26.517  18.242  12.370
24894W        W97319   9.374  20.097  13.976
24895W        W97320  28.647  32.043  11.432
24896W        W97321  26.957  26.994   4.144
24897W        W97322  36.868  16.183   1.231
24898W        W97323  26.638  19.604  12.430
24899W        W97324   3.890   8.302   1.248
24900W        W97325  18.073  22.645  11.487
24901W        W97326  24.017  27.114  14.961
24902W        W97327  24.563  33.030   3.377
24903W        W97328  32.021  22.654  12.363
24904W        W97329   9.806  14.598  12.091
24905W        W97330  41.838  25.021   2.197
24906W        W97331   4.744   6.816   3.744
24907W        W97332  34.014  27.668  12.096
24908W        W97333  31.987  17.726   3.827
24909W        W97334  20.212   3.726   3.725
24910W        W97335  35.991  35.941  11.477
24911W        W97336  11.249   0.894   4.712
24912W        W97337  29.645  20.227  12.088
24913W        W97338   0.379  14.713   0.372
24914W        W97339  11.372  42.839  13.904
24915W        W97340   3.415  33.558   4.775
24916W        W97341  36.544  16.615  11.441
24917W        W97342  39.828  40.506   0.481
24918W        W97343  15.228   6.762  13.990
24919W        W97344  19.596  37.422   1.705
24920W        W97345  18.193  23.668   2.901
24921W        W97346  44.277   1.948  12.411
24922W        W97347  27.615  19.135  11.525
24923W        W97348   6.409  27.592  14.834
24924W        W97349  29.155  17.618  10.996
24925W        W97350  40.906  10.850   0.871
24926W        W97351   7.233  18.243   2.245
24927W        W97352  18.275   7.279   4.237
24928W        W97353   7.314   2.800  11.930
24929W        W97354  34.011  32.062   2.347
24930W        W97355  30.540  24.678   4.192
24931W        W97356   3.784   4.945   2.339
24932W        W97357  33.002   0.778   4.786
24933W        W97358  44.413  42.935   4.160
24934W        W97359  17.163  11.836   3.266
24935W        W97360  18.145  32.899   0.845
24936W        W97361  34.571  26.576  11.123
24937W        W97362  16.663  27.942   3.641
24938W        W97363  39.815  25.167  11.992
24939W        W97364  20.697  19.192   1.713
24940W        W97365   1.349  29.057  14.282
24941W        W97366  18.160  20.680   2.332
24942W        W97367  31.403  19.551   1.804
24943W        W97368  18.204  35.036  12.038
24944W        W97369  17.623  15.729   0.303
24945W        W97370  30.009   3.402  12.959
24946W        W97371  41.930  35.898  13.826
24947W        W97372  15.117  44.411   3.182
24948W        W97373  28.071  36.066   2.684
24949W        W97374  35.539   3.450   4.127
24950W        W97375  23.619  13.828  14.944
24951W        W97376  42.362   3.904   1.897
24952W        W97377   7.896   6.873  11.461
24953W        W97378   3.718  22.659   3.683
24954W        W97379  10.203  17.143  12.967
24955W        W97380  30.084  15.209  14.001
24956W        W97381   8.339   4.891  13.428
24957W        W97382  38.981  11.636   0.395
24958W        W97383  25.485  42.525   2.699
24959W        W97384  41.003  24.010   2.764
24960W        W97385  22.064  28.615   2.337
24961W        W97386   2.894  35.567  10.908
24962W        W97387  24.671  21.082  14.820
24963W        W97388  22.031  25.157   2.734
24964W        W97389  12.341  33.397  13.416
24965W        W97390  41.413  38.891  14.320
24966W        W97391  31.002  11.281   3.269
24967W        W97392  10.209  13.263   1.378
24968W        W97393   7.416   3.842  10.909
24969W        W97394   4.262   5.804  13.050
24970W        W97395  44.998  33.565  11.380
24971W        W97396  32.086  22.615  14.871
24972W        W97397  21.641   6.235   3.227
24973W        W97398  28.556  11.655   3.684
24974W        W97399   2.955  34.959  11.931
24975W        W97400  23.689   5.930   1.856
24976W        W97401  30.111   8.359  13.811
24977W        W97402  27.013  23.687  11.490
24978W        W97403  11.751  21.739   1.765
24979W        W97404  13.843  29.528   2.770
24980W        W97405  25.039  40.524  13.833
24981W        W97406  10.800  23.646   0.751
24982W        W97407  28.144  19.234   1.854
24983W        W97408  44.454  16.723  14.464
24984W        W97409  21.066  17.099   0.964
24985W        W97410  35.901  15.274  14.353
24986W        W97411   6.826  32.058   2.842
24987W        W97412  30.601  34.933  12.518
24988W        W97413  27.593  27.529  14.481
24989W        W97414  33.985  41.990   4.245
24990W        W97415  34.605  43.316   2.786
24991W        W97416  17.214  40.033  13.008
24992W        W97417   9.655  21.601   0.456
24993W        W97418  33.058  15.599   1.266
24994W        W97419  24.524  40.926   1.905
24995W        W97420   1.269  13.269   0.332
24996W        W97421  21.669  29.018  10.965
24997W        W97422  40.053  14.133  11.964
24998W        W97423  31.451  34.964   2.693
24999W        W97424  23.534   4.229  13.899
25000W        W97425  34.929  33.463  12.392
25001W        W97426  28.004  30.010  10.971
25002W        W97427  31.644  36.957  12.089
25003W        W97428  32.895  22.125  11.981
25004W        W97429  27.542  39.348   3.804
25005W        W97430  44.341  30.130   0.742
25006W        W97431  30.480  24.633   2.354
25007W        W97432  32.522  34.865  14.970
25008W        W97433  13.715   1.866  12.851
25009W        W97434  31.143  10.791   1.796
25010W        W97435  23.231  15.695   3.727
25011W        W97436  22.200  29.538   0.483
25012W        W97437   5.883  13.256  10.598
25013W        W97438  39.037   1.456  11.937
25014W        W97439  31.918  27.670  13.845
25015W        W97440  14.716  42.849  14.336
25016W        W97441  27.045  21.020  10.480
25017W        W97442  24.998  36.942   1.327
25018W        W97443  30.947  25.498   4.819
25019W        W97444   7.764  21.515  13.535
25020W        W97445  17.635  21.174   4.794
25021W        W97446   6.899   5.290  14.283
25022W        W97447  29.967  33.442  10.994
25023W        W97448  39.434   7.306   4.717
25024W        W97449  18.646  26.638  14.314
25025W        W97450   0.959  40.380   4.782
25026W        W97451   7.706  37.375  12.554
25027W        W97452  42.820  35.867   3.764
25028W        W97453  16.633  37.064   1.220
25029W        W97454  43.958  37.521  10.619
25030W        W97455   0.316  30.518   0.788
25031W        W97456   9.157  25.122  10.553
25032W        W97457  43.768  33.549  13.025
25033W        W97458  31.593  37.509  10.081
25034W        W97459  37.933  38.506  12.344
25035W        W97460   4.759   6.252  11.004
25036W        W97461  16.139  40.407   0.921
25037W        W97462  26.123   6.762  10.514
25038W        W97463  36.462   2.952   0.936
25039W        W97464  33.032  31.937   2.279
25040W        W97465   9.706   1.459   3.754
25041W        W97466  40.957   5.713   1.277
25042W        W97467   1.924  31.571   0.421
25043W        W97468  25.612   4.339   2.300
25044W        W97469  11.137  33.128  10.492
25045W        W97470  31.092  27.142  13.313
25046W        W97471   0.850  16.120  11.405
25047W        W97472  32.559  22.147   0.802
25048W        W97473   2.330  36.968  13.943
25049W        W97474  41.893  11.157   1.899
25050W        W97475  33.929  39.880   0.799
25051W        W97476  30.591  17.173   3.210
25052W        W97477  21.084  15.158  14.974
25053W        W97478  43.853  15.086   4.672
25054W        W97479  27.160  27.038   1.773
25055W        W97480  11.707   2.745   4.629
25056W        W97481  42.482  10.665  14.462
25057W        W97482   1.876  32.619  13.827
25058W        W97483  25.563  31.959  12.499
25059W        W97484  14.810  26.495  14.011
25060W        W97485  12.781  21.127  12.017
25061W        W97486  31.537  19.079   4.768
25062W        W97487  14.661  32.104   2.381
25063W        W97488  37.860  15.758  13.529
25064W        W97489  17.587  22.544   3.223
25065W        W97490  31.028  23.559  12.933
25066W        W97491  43.378   2.450   3.699
25067W        W97492   2.412  30.432   0.968
25068W        W97493  18.149  35.370  13.047
25069W        W97494   2.226   7.229  13.983
25070W        W97495  34.976   2.250  14.296
25071W        W97496  44.935  31.026  12.877
25072W        W97497  37.390  32.064   0.398
25073W        W97498  19.746  16.805   0.465
25074W        W97499  32.104  29.983   0.459
25075W        W97500  14.128   9.177  10.948
25076W        W97501   8.789  13.686  12.090
25077W        W97502   6.390  28.630   1.420
25078W        W97503   4.379  40.473   2.740
25079W        W97504  17.590   4.784   3.197
25080W        W97505   8.279  24.128   0.801
25081W        W97506  20.651  19.085   2.329
25082W        W97507  37.405  13.617  13.960
25083W        W97508   0.951  28.498  12.833
25084W        W97509  24.595  21.112   3.661
25085W        W97510  44.876  24.168  10.956
25086W        W97511  20.061  18.554   4.145
25087W        W97512  38.828  44.409  10.411
25088W        W97513  22.607  24.152  14.937
25089W        W97514  11.351   1.283  13.055
25090W        W97515   8.720   1.430  13.832
25091W        W97516  43.931  31.420  12.893
25092W        W97517  10.806  32.090   1.398
25093W        W97518  21.028   0.840   1.229
25094W        W97519   8.268  29.046  13.801
25095W        W97520  26.701  40.854  11.485
25096W        W97521   5.410  24.129  11.393
25097W        W97522   5.336  33.884   0.886
25098W        W97523   7.179   2.935  14.772
25099W        W97524  11.295  24.172  14.424
25100W        W97525  19.269  37.408  13.904
25101W        W97526  17.596  26.687   1.336
25102W        W97527  38.571  38.453  13.798
25103W        W97528  32.617   2.794   3.302
25104W        W97529  35.425  25.570  10.062
25105W        W97530  15.621  20.070   1.377
25106W        W97531   4.365  29.076  12.573
25107W        W97532  35.477  11.267  13.902
25108W        W97533  24.581  28.074   1.765
25109W        W97534  10.155  35.048   2.293
25110W        W97535  28.941  23.022  11.922
25111W        W97536  41.467  22.152   2.784
25112W        W97537  20.543  31.592  14.452
25113W        W97538   8.679  19.721  11.102
25114W        W97539  20.217   1.434   2.885
25115W        W97540  36.858  20.261   3.750
25116W        W97541  23.710  44.762  12.342
25117W        W97542  18.675  23.651  13.403
25118W        W97543   6.312  16.164  12.463
25119W        W97544   2.359  22.208   1.272
25120W        W97545  14.337  41.827   0.866
25121W        W97546  32.952   6.393   4.283
25122W        W97547  37.429  17.634   3.841
25123W        W97548   9.251  12.793   4.660
25124W        W97549  44.761  26.178   0.854
25125W        W97550   2.466   2.820  12.091
25126W        W97551  10.287  25.515   1.926
25127W        W97552  37.993  29.971  13.864
25128W        W97553  14.745  27.505   3.326
25129W        W97554   1.928  40.985  11.101
25130W        W97555  36.590  27.005  13.016
25131W        W97556  13.689  31.517   3.247
25132W        W97557  30.510  15.663   5.170
25133W        W97558  14.785  21.656   3.663
25134W        W97559  27.637  37.966   2.337
25135W        W97560  34.520  19.630  11.584
25136W        W97561   8.692  17.185  14.986
25137W        W97562  25.683   8.217  12.372
25138W        W97563   5.706  29.657   4.169
25139W        W97564  28.956  17.687   2.836
25140W        W97565  42.392   4.769   2.315
25141W        W97566  27.013  11.329   0.330
25142W        W97567   4.208  21.124  12.932
25143W        W97568   1.888  22.125   4.138
25144W        W97569  34.008   1.297   4.653
25145W        W97570  43.982   4.769  12.440
25146W        W97571   5.874  23.189   2.362
25147W        W97572   9.873   1.891   1.332
25148W        W97573  43.899  13.657  13.402
25149W        W97574  28.976  37.573  13.008
25150W        W97575  12.640  23.204   2.381
25151W        W97576   9.251  12.263  13.505
25152W        W97577  28.112  34.109   4.646
25153W        W97578  31.086  15.755  14.432
25154W        W97579  34.549  27.498  13.365
25155W        W97580  41.885  11.229   0.328
25156W        W97581  39.551  44.877  12.953
25157W        W97582   2.371   6.268   9.926
25158W        W97583  32.546  23.070   0.369
25159W        W97584   5.329  33.091  10.458
25160W        W97585  41.941  21.721  14.478
25161W        W97586  10.160   4.921   0.880
25162W        W97587  10.231  22.544  10.962
25163W        W97588  25.036  32.919   4.838
25164W        W97589  37.384   4.423  10.996
25165W        W97590   1.456   8.722   0.260
25166W        W97591  29.136  33.471   4.657
25167W        W97592  31.508  21.255   9.976
25168W        W97593  44.313   5.893  14.947
25169W        W97594   6.799  37.980   2.283
25170W        W97595  17.133  41.354   3.371
25171W        W97596  37.581   3.919   2.351
25172W        W97597   9.869  35.404  12.868
25173W        W97598  43.934  44.990  12.857
25174W        W97599  14.193   4.913  11.571
25175W        W97600  25.616  35.083  13.450
25176W        W97601  20.247  19.604   3.269
25177W        W97602   3.863  37.407  10.118
25178W        W97603  35.886  25.510   4.648
25179W        W97604  31.428  24.640   4.322
25180W        W97605  35.000   5.208   3.700
25181W        W97606  13.163  31.617   2.338
25182W        W97607  25.584   5.435  12.419
25183W        W97608   7.217  33.515   2.264
25184W        W97609  18.725  19.221   0.420
25185W        W97610  16.750   1.247   0.394
25186W        W97611  22.995  29.130  13.310
25187W        W97612  10.724  11.283  12.990
25188W        W97613  16.170  40.983  11.022
25189W        W97614  30.658  21.258   4.752
25190W        W97615  21.228  15.155  12.947
25191W        W97616   3.283   7.189   4.821
25192W        W97617  17.741  30.004   4.350
25193W        W97618   7.383  11.309  14.488
25194W        W97619  38.445   8.221   4.135
25195W        W97620  39.991  32.043  13.844
25196W        W97621   9.737  24.049  14.768
25197W        W97622  29.517   4.776  13.910
25198W        W97623   5.410  28.447   2.706
25199W        W97624  12.340  34.440   0.821
25200W        W97625  10.240  19.550  12.519
25201W        W97626  29.508  39.532   0.453
25202W        W97627  26.030  44.384  10.931
25203W        W97628  29.986   5.917  10.954
25204W        W97629  22.677  25.969  13.445
25205W        W97630  40.440  26.489   3.314
25206W        W97631  38.878   6.778   4.733
25207W        W97632  13.608  24.100  14.355
25208W        W97633  13.237  13.683  12.555
25209W        W97634  38.072  34.892   1.307
25210W        W97635  43.014  43.455  10.629
25211W        W97636  44.301  44.869  10.968
25212W        W97637  12.127  10.320   4.695
25213W        W97638  14.695  23.613   4.328
25214W        W97639  21.694  32.396   3.364
25215W        W97640  27.552  21.144  14.898
25216W        W97641   8.670  36.379   0.359
25217W        W97642  42.892  39.824   0.441
25218W        W97643  27.039  25.148   0.951
25219W        W97644  38.074  39.935   3.282
25220W        W97645  32.005  30.580  13.499
25221W        W97646  19.686   2.305   4.650
25222W        W97647  38.523  20.584  13.049
25223W        W97648  43.958  26.185  13.817
25224W        W97649  23.612  31.961   2.745
25225W        W97650  41.953  14.276   1.705
25226W        W97651  27.652  25.988  14.809
25227W        W97652  36.882  30.927   2.759
25228W        W97653   0.302   5.693  14.808
25229W        W97654  29.964  32.595   4.212
25230W        W97655  24.117  16.083  10.470
25231W        W97656   8.339  40.935  14.794
25232W        W97657  40.439  28.481   4.636
25233W        W97658  12.266   3.425   1.414
25234W        W97659  41.419  31.124   3.791
25235W        W97660  43.782  12.836  12.989
25236W        W97661  21.060   8.228  10.018
25237W        W97662  19.671  19.760  10.527
25238W        W97663  16.751  10.264  12.395
25239W        W97664   4.833  17.224   4.176
25240W        W97665  19.549  10.298   3.697
25241W        W97666   2.454   9.719  11.533
25242W        W97667  28.948  35.882  13.484
25243W        W97668  10.237  41.807   4.617
25244W        W97669  44.337  41.892   0.370
25245W        W97670   0.820  44.998  14.987
25246W        W97671  35.578  28.012   2.742
25247W        W97672  25.587  19.249   3.309
25248W        W97673   5.811  33.499   3.233
25249W        W97674  21.576   7.398   3.363
25250W        W97675  19.679  37.361  14.825
25251W        W97676  29.004  27.030  10.535
25252W        W97677   7.787  16.266   0.903
25253W        W97678  13.687  11.812   1.355
25254W        W97679  43.831   0.394  12.029
25255W        W97680  16.637  43.947  14.384
25256W        W97681   5.803   3.234  14.871
25257W        W97682  17.233   9.172  12.943
25258W        W97683  39.931   3.303   1.362
25259W        W97684  43.949  25.011  11.871
25260W        W97685  13.675  43.936   0.399
25261W        W97686  18.236  24.595   2.838
25262W        W97687  28.931  24.715   1.221
25263W        W97688  30.552  18.647   2.704
25264W        W97689  30.513  31.055  13.008
25265W        W97690   7.369  33.914  14.891
25266W        W97691  27.007  37.038  12.049
25267W        W97692  28.985  21.041   0.340
25268W        W97693   8.346  25.647   2.311
25269W        W97694  23.683   8.313   3.159
25270W        W97695   9.703  19.162   1.891
25271W        W97696   9.280  44.505   4.138
25272W        W97697  29.138  22.019   1.895
25273W        W97698  38.540  42.374   2.184
25274W        W97699  13.159  37.560   2.668
25275W        W97700  33.874  31.638  11.064
25276W        W97701   8.348   4.820  11.021
25277W        W97702  28.027  18.600  13.813
25278W        W97703   7.380  13.235  14.997
25279W        W97704  21.516  28.054   1.856
25280W        W97705  32.506   5.777   0.732
25281W        W97706  27.018  16.263  10.970
25282W        W97707   6.843  25.217   3.311
25283W        W97708  12.293   4.210   2.709
25284W        W97709  40.863  35.995   2.265
25285W        W97710  36.029  23.697   4.159
25286W        W97711  24.090  37.871   1.310
25287W        W97712   8.888   0.772   2.802
25288W        W97713  41.529  44.972   2.892
25289W        W97714  27.500  35.985  14.856
25290W        W97715  11.193   9.268  12.005
25291W        W97716  26.004  27.101  13.888
25292W        W97717  36.468  41.983  14.008
25293W        W97718   4.264  32.916  13.045
25294W        W97719   6.256  38.827   4.718
25295W        W97720   2.469  12.676  11.551
25296W        W97721   6.803  37.461   2.737
25297W        W97722  20.606  14.604  14.816
25298W        W97723  25.177  23.194  12.947
25299W        W97724  30.004  19.691  11.463
25300W        W97725  28.584   4.702  12.910
25301W        W97726   6.697  18.739   2.820
25302W        W97727  25.084  34.410  13.926
25303W        W97728  40.938  31.123  12.445
25304W        W97729   8.289  34.434   1.283
25305W        W97730  20.591   8.337  10.565
25306W        W97731  24.162   6.379  12.886
25307W        W97732  13.804  29.966  12.500
25308W        W97733  26.977  33.599   3.256
25309W        W97734  35.018  31.152   3.199
25310W        W97735  32.411   6.355   4.762
25311W        W97736  20.635  29.664  10.471
25312W        W97737   3.904  34.934   1.375
25313W        W97738   8.772   9.224  13.348
25314W        W97739  17.108  17.108  10.023
25315W        W97740  32.022  33.606  10.429
25316W        W97741   2.401  18.052  12.839
25317W        W97742   9.200   3.403  12.577
25318W        W97743  21.142   2.786   3.146
25319W        W97744  29.951   4.277  10.423
25320W        W97745  13.843  15.101  12.860
25321W        W97746  13.126   9.363   3.225
25322W        W97747  24.494  21.693   4.252
25323W        W97748  16.631  19.739   4.175
25324W        W97749  40.995  29.578  10.964
25325W        W97750   3.871  36.359  12.563
25326W        W97751  43.324  25.666   3.373
25327W        W97752  11.296  27.942  11.473
25328W        W97753  24.502  27.995  12.833
25329W        W97754  43.296  41.339   1.787
25330W        W97755  13.654  31.402  14.428
25331W        W97756  26.575  13.669   4.129
25332W        W97757   0.765  21.138  14.441
25333W        W97758  39.344  16.095  13.861
25334W        W97759  43.000  33.518   3.320
25335W        W97760  31.118  12.613  11.412
25336W        W97761  13.331   4.431  13.842
25337W        W97762   8.884  35.055  14.953
25338W        W97763  14.252  18.643  13.020
25339W        W97764  19.104  30.988   3.215
25340W        W97765   6.769  34.599  11.514
25341W        W97766  21.027  41.888   3.246
25342W        W97767  30.063  16.730   4.315
25343W        W97768  40.498  16.297  11.413
25344W        W97769  22.689  26.683  13.905
25345W        W97770  43.856  32.030  12.005
25346W        W97771   8.801  27.634   1.698
25347W        W97772   2.245  26.189  10.945
25348W        W97773  34.400  23.666   0.897
25349W        W97774  30.121  26.537  13.509
25350W        W97775  32.991  41.367   1.264
25351W        W97776  22.649  20.075  13.847
25352W        W97777  22.614  38.525  14.300
25353W        W97778   4.299   3.931  10.613
25354W        W97779  26.162  44.904  10.474
25355W        W97780  25.116  33.014   1.360
25356W        W97781  23.104  15.196   3.636
25357W        W97782  25.544  16.768   2.280
25358W        W97783  26.983  28.619  14.339
25359W        W97784  31.476   4.795  11.430
25360W        W97785   9.321  28.596  13.974
25361W        W97786   9.822  21.235   4.668
25362W        W97787  23.633  39.462  12.855
25363W        W97788  27.157  22.136   0.967
25364W        W97789  11.266  29.034   0.430
25365W        W97790  21.647   1.319  14.284
25366W        W97791  37.441  22.215  10.454
25367W        W97792  12.611  21.237   0.433
25368W        W97793  21.211   7.311   0.336
25369W        W97794  14.188  28.545  12.576
25370W        W97795   0.451   0.767   1.347
25371W        W97796  23.998   1.304   4.245
25372W        W97797  41.396  14.788   0.375
25373W        W97798   1.896  31.522   3.331
25374W        W97799   3.316  11.273   4.206
25375W        W97800  12.215  31.022  13.514
25376W        W97801  12.699  13.214  13.408
25377W        W97802  22.687   9.665  13.493
25378W        W97803  31.032  17.779  13.458
25379W        W97804  18.643  17.573  14.303
25380W        W97805  40.820  35.071  14.990
25381W        W97806  18.557  18.247   0.424
25382W        W97807  25.192   9.667  10.940
25383W        W97808   6.684  38.418  11.516
25384W        W97809   0.445   0.450  11.049
25385W        W97810  42.010  30.154   2.854
25386W        W97811  32.568  16.173  10.612
25387W        W97812  11.130  16.075   3.817
25388W        W97813   0.308  43.288   3.859
25389W        W97814   6.397  33.494  14.974
25390W        W97815  39.387  31.642   0.319
25391W        W97816  27.686  32.483  11.999
25392W        W97817  12.218  40.365  14.784
25393W        W97818  22.197  41.024   1.838
25394W        W97819  12.130   4.759  10.108
25395W        W97820  19.169   0.364   4.708
25396W        W97821  11.648  18.722  11.041
25397W        W97822  34.043  38.355  14.999
25398W        W97823  13.211  32.426   0.782
25399W        W97824  22.717   6.786  14.395
25400W        W97825  18.153   5.406  13.422
25401W        W97826  24.085  11.706  13.976
25402W        W97827  40.875  10.226  11.095
25403W        W97828  31.976  19.771   0.900
25404W        W97829  11.335  26.483  13.061
25405W        W97830  43.462  12.777   0.334
25406W        W97831   2.260  38.324   3.359
25407W        W97832  24.615  43.409  14.880
25408W        W97833  30.077   1.736   3.168
25409W        W97834  10.729  36.039   4.706
25410W        W97835  44.335   5.316  11.900
25411W        W97836  29.584  21.121   0.483
25412W        W97837  24.548   3.374   3.690
25413W        W97838  27.029  17.700  12.559
25414W        W97839   2.735  28.651  13.814
25415W        W97840  30.928  26.465  14.865
25416W        W97841  32.488  41.481  11.032
25417W        W97842  12.278  40.490   1.235
25418W        W97843  39.872  29.020   1.707
25419W        W97844  14.795   6.794  11.602
25420W        W97845  32.011   9.649  13.416
25421W        W97846  10.356   8.228   4.685
25422W        W97847  26.526  44.763  14.923
25423W        W97848  20.694  43.387   4.241
25424W        W97849   5.728   7.384  11.536
25425W        W97850  39.415   9.382  13.020
25426W        W97851  15.083  41.513  12.424
25427W        W97852   3.925  38.877   2.830
25428W        W97853  34.039  22.708  11.574
25429W        W97854  10.678  20.653  10.438
25430W        W97855  24.633  36.881   3.301
25431W        W97856  16.081  17.696  10.527
25432W        W97857  39.405  40.799  14.473
25433W        W97858  37.463   2.744  13.854
25434W        W97859  32.947   4.843  11.084
25435W        W97860  20.077  36.971   4.207
25436W        W97861   4.279  34.954   1.840
25437W        W97862  12.854   7.717   0.832
25438W        W97863  39.984  28.010  14.339
25439W        W97864   7.401   3.262  14.504
25440W        W97865  24.649  39.833   3.247
25441W        W97866  31.422  15.787   2.276
25442W        W97867  27.631  42.318   0.433
25443W        W97868  39.540   6.301   4.598
25444W        W97869  25.168  30.573   4.266
25445W        W97870  13.178   9.756   3.369
25446W        W97871  44.853   4.704  12.953
25447W        W97872  23.556  29.427  14.800
25448W        W97873  10.784  13.158  13.449
25449W        W97874  12.753  37.951   4.786
25450W        W97875  36.010  17.616   3.215
25451W        W97876  14.211  18.287   1.767
25452W        W97877  18.260  31.907   1.276
25453W        W97878  16.782  25.121   3.632
25454W        W97879  18.211  11.666  13.048
25455W        W97880  24.144  12.656   2.856
25456W        W97881  43.990  24.679   0.761
25457W        W97882  29.557  12.245   1.318
25458W        W97883  43.382  13.110  11.927
25459W        W97884  24.524  39.906  13.052
25460W        W97885  30.020  35.389  14.861
25461W        W97886   0.761  20.727  11.417
25462W        W97887   7.771   2.461   4.756
25463W        W97888   3.426  31.534   1.396
25464W        W97889  15.300  34.479  13.927
25465W        W97890  40.994  13.194   0.306
25466W        W97891  20.707  30.493  12.057
25467W        W97892   2.461   3.367   3.386
25468W        W97893  38.511  44.956  11.953
25469W        W97894  38.483  21.149   0.891
25470W        W97895  24.629  23.599   0.243
25471W        W97896  13.343  25.488  11.379
25472W        W97897  31.428  43.789  13.499
25473W        W97898  38.993  40.338  13.364
25474W        W97899  21.721  33.934   1.716
25475W        W97900  23.219   1.817   0.735
25476W        W97901   6.229  10.687  14.424
25477W        W97902  11.135  31.520   4.164
25478W        W97903  28.970  36.950   4.728
25479W        W97904  16.197  43.915  11.452
25480W        W97905  11.830  37.418   5.230
25481W        W97906  17.302  14.208   5.168
25482W        W97907  12.200  14.305  12.521
25483W        W97908  29.612  18.256  14.006
25484W        W97909  44.412  37.369   4.780
25485W        W97910  18.683   2.336  13.818
25486W        W97911  38.344  21.641  10.939
25487W        W97912  16.806  17.694  10.481
25488W        W97913   0.849  35.904  13.325
25489W        W97914  29.462  39.543   4.768
25490W        W97915  31.049  11.820  11.435
25491W        W97916   2.226  29.463  11.508
25492W        W97917   8.880  38.055   4.669
25493W        W97918  29.036  14.284  11.867
25494W        W97919  39.475   5.270   2.345
25495W        W97920  27.987  39.442  11.017
25496W        W97921   6.234   2.462  13.545
25497W        W97922   5.752  37.901  14.313
25498W        W97923   9.728  35.039   4.134
25499W        W97924  36.843  27.960   2.244
25500W        W97925   3.348   2.298  12.012
25501W        W97926  21.687  16.745   1.218
25502W        W97927  29.140   8.667   1.757
25503W        W97928  38.477  40.304  13.977
25504W        W97929  14.815  26.608  14.911
25505W        W97930   1.313  24.130  13.823
25506W        W97931  14.242   4.871   4.212
25507W        W97932  42.502  13.766   1.412
25508W        W97933  20.724  28.626   2.256
25509W        W97934   2.746   6.240  12.834
25510W        W97935  33.948  40.459   1.430
25511W        W97936  29.475  30.494   2.706
25512W        W97937  23.128   4.374   0.425
25513W        W97938  41.003   1.939   4.767
25514W        W97939  12.720  24.654  11.415
25515W        W97940  12.629  41.513  12.058
25516W        W97941  24.496   3.931  14.982
25517W        W97942  38.918   3.276  14.354
25518W        W97943  35.100  10.243  14.789
25519W        W97944  33.880  24.214  14.823
25520W        W97945  14.209  28.035  14.935
25521W        W97946  25.658  33.903  11.067
25522W        W97947  10.782   0.855  14.887
25523W        W97948  40.805  21.537   4.765
25524W        W97949  41.036  41.827   3.636
25525W        W97950  41.488   4.751   1.322
25526W        W97951  33.530   0.953   3.652
25527W        W97952  42.854  12.343   4.826
25528W        W97953  30.542   9.348   2.712
25529W        W97954   1.731  43.467   3.717
25530W        W97955  17.210  13.252   2.269
25531W        W97956  16.150  22.632  14.379
25532W        W97957  34.424  21.660   4.192
25533W        W97958   6.701   3.243  14.402
25534W        W97959   9.364  10.875   2.902
25535W        W97960  18.735   4.784  14.797
25536W        W97961  22.080  35.015   2.776
25537W        W97962  13.263  41.858   1.442
25538W        W97963  37.874  38.463  10.428
25539W        W97964  32.591   4.384   4.156
25540W        W97965  28.572  23.661  11.549
25541W        W97966  32.588   9.302  14.822
25542W        W97967  34.117  25.152   2.242
25543W        W97968  17.265  12.235  13.425
25544W        W97969  23.097   6.728  14.759
25545W        W97970   8.302   1.278   1.419
25546W        W97971  25.081   9.299  12.469
25547W        W97972  25.623  11.351  14.789
25548W        W97973  30.937   7.201  13.021
25549W        W97974  28.141  26.564  11.966
25550W        W97975  17.731   2.748  10.416
25551W        W97976  10.273  26.054   5.255
25552W        W97977  11.232  41.953  10.905
25553W        W97978  39.387  20.595  14.381
25554W        W97979  40.973   1.451  12.905
25555W        W97980  44.454  26.691   1.333
25556W        W97981   6.359  26.487   1.290
25557W        W97982  32.941  14.638  12.955
25558W        W97983   7.403  11.195  14.816
25559W        W97984  13.332   9.229   1.358
25560W        W97985  42.019  26.459  10.593
25561W        W97986   3.923  28.052  12.494
25562W        W97987   2.292  24.180   4.727
25563W        W97988  30.618  37.575  10.956
25564W        W97989   1.337  12.707   2.864
25565W        W97990  17.287  17.700   1.857
25566W        W97991  26.545   8.172   4.674
25567W        W97992   0.824  30.974  11.879
25568W        W97993  18.715  33.612   0.252
25569W        W97994  38.400  14.110   3.241
25570W        W97995  44.371   1.360  14.363
25571W        W97996   6.856  24.033  14.391
25572W        W97997  32.957  20.700  13.791
25573W        W97998  26.122  17.222   1.857
25574W        W97999  10.785  19.729  11.603
25575W        W98000  22.707   5.858   3.180
25576W        W98001  24.525   2.417  10.897
25577W        W98002  39.460  30.467  12.865
25578W        W98003   3.888  34.395  12.065
25579W        W98004   4.390  11.814   1.779
25580W        W98005  36.008  37.550  14.333
25581W        W98006  26.120  31.436  12.091
25582W        W98007  41.396  39.958   2.829
25583W        W98008  10.187  32.583  10.893
25584W        W98009   1.370  34.497   0.450
25585W        W98010  44.821  25.675  13.500
25586W        W98011  36.540  30.507  14.893
25587W        W98012  37.458  26.004  10.901
25588W        W98013  41.374  24.021  14.468
25589W        W98014  15.185  28.588  14.415
25590W        W98015  15.188   1.358  13.810
25591W        W98016  31.087  12.763   0.307
25592W        W98017  42.331  11.666   0.330
25593W        W98018  30.579  12.218   3.695
25594W        W98019  38.453  37.490   0.842
25595W        W98020  20.241  19.140   3.701
25596W        W98021   8.283   2.354   3.776
25597W        W98022   9.293  17.208  10.450
25598W        W98023   7.277   9.285  13.822
25599W        W98024  37.935  23.195  10.506
25600W        W98025   2.947  14.165  10.484
25601W        W98026  12.739  24.071   5.302
25602W        W98027  34.091   6.412   3.735
25603W        W98028  25.526  12.783   0.483
25604W        W98029  44.272   7.708   3.707
25605W        W98030  27.678  44.287  12.508
25606W        W98031  18.615  22.156  12.927
25607W        W98032  12.329  21.735   3.373
25608W        W98033  33.486   8.832   3.210
25609W        W98034  11.348  19.711  10.501
25610W        W98035  11.203  27.191   0.423
25611W        W98036  39.999   8.247   1.892
25612W        W98037  31.955  41.355   4.129
25613W        W98038  14.301  12.665  10.044
25614W        W98039  21.575  18.105  12.524
25615W        W98040  34.120  35.892  11.426
25616W        W98041  41.416  10.290  10.439
25617W        W98042  23.239  38.551  11.873
25618W        W98043   0.796  33.063  14.946
25619W        W98044  41.788  34.919  13.400
25620W        W98045   8.272  27.013   2.392
25621W        W98046  40.950   6.830  11.522
25622W        W98047  22.106  15.299  12.938
25623W        W98048  28.093  33.041  14.418
25624W        W98049  42.417  44.450  11.909
25625W        W98050  40.989  19.139  14.838
25626W        W98051  12.829  14.634   4.206
25627W        W98052  19.256  27.114  11.075
25628W        W98053  13.740   5.221   0.940
25629W        W98054  39.937  39.809   2.678
25630W        W98055  29.141   9.230  14.353
25631W        W98056  10.790  35.025  13.432
25632W        W98057  17.570  39.812   3.334
25633W        W98058  43.278  12.671   0.728
25634W        W98059  26.956   7.229  12.938
25635W        W98060  28.650  31.522  10.039
25636W        W98061  32.611  37.059  12.999
25637W        W98062   9.773   2.346  10.494
25638W        W98063  37.502  35.863   0.793
25639W        W98064  19.215  22.550   0.799
25640W        W98065  15.232  39.493  11.104
25641W        W98066  14.795  13.699  10.477
25642W        W98067  25.115   0.403   4.336
25643W        W98068  39.985   5.433  12.845
25644W        W98069  24.168   0.493  11.939
25645W        W98070  20.103   5.417  12.441
25646W        W98071  13.152  37.055  11.865
25647W        W98072  28.657   5.822   4.311
25648W        W98073   3.769  33.572  11.960
25649W        W98074   4.367  15.275  11.933
25650W        W98075  11.175  10.196  14.838
25651W        W98076  34.953  29.619  13.376
25652W        W98077  12.190   6.417  14.433
25653W        W98078  37.907  11.211  13.040
25654W        W98079  36.556  44.304  11.026
25655W        W98080  39.850  18.672  10.441
25656W        W98081  24.540  32.088  11.911
25657W        W98082  13.688   1.350  10.517
25658W        W98083   1.416  33.433  11.392
25659W        W98084  11.822  34.413   3.312
25660W        W98085  19.190  26.151  14.318
25661W        W98086  41.454  21.081  13.034
25662W        W98087  20.735  42.958   3.343
25663W        W98088  17.129   1.905   2.857
25664W        W98089   3.331  21.656   2.196
25665W        W98090  36.030  40.054  11.047
25666W        W98091  24.042  22.997  12.355
25667W        W98092   1.930  28.133  14.793
25668W        W98093  33.896  41.509   4.336
25669W        W98094  41.867  40.024   1.896
25670W        W98095   6.411  38.871  11.493
25671W        W98096  42.026  22.617  14.932
25672W        W98097   0.929   0.401   1.385
25673W        W98098  29.019  22.144   0.445
25674W        W98099  17.269  31.495  11.408
25675W        W98100  39.927  40.315   3.799
25676W        W98101   0.779   1.382   1.311
25677W        W98102  41.407  28.569  14.902
25678W        W98103  15.687  36.893   2.329
25679W        W98104  42.968  40.903   4.259
25680W        W98105   5.439  23.508  14.317
25681W        W98106  16.293  15.284  13.396
25682W        W98107  36.408  39.544   3.835
25683W        W98108  36.404   4.275   1.882
25684W        W98109  23.532  16.146   1.211
25685W        W98110  13.724  14.168   4.295
25686W        W98111  40.343   0.960   5.151
25687W        W98112  37.840  14.146   3.282
25688W        W98113  34.604  14.305   3.184
25689W        W98114  17.150  39.450  11.962
25690W        W98115   4.207  42.478  11.003
25691W        W98116   8.168  12.641   2.188
25692W        W98117  40.539  36.542  13.863
25693W        W98118  28.962  41.878  11.460
25694W        W98119  11.827  41.797  12.454
25695W        W98120  10.146  26.573   3.838
25696W        W98121   7.294   9.745  11.391
25697W        W98122  30.445  13.693   3.303
25698W        W98123   2.385  44.433   4.753
25699W        W98124  17.570  40.925  12.469
25700W        W98125   0.426   3.867   2.237
25701W        W98126   8.720  27.046   0.326
25702W        W98127  20.272  11.854  12.974
25703W        W98128  24.539  21.169  12.534
25704W        W98129  19.167  34.926   2.885
25705W        W98130  20.091  33.997   3.263
25706W        W98131  12.733  24.693  14.955
25707W        W98132  13.255  41.494   0.761
25708W        W98133  12.243  24.051   3.698
25709W        W98134  18.595  21.519  13.842
25710W        W98135  20.050  31.924  11.440
25711W        W98136  25.038  15.275   3.242
25712W        W98137  44.805  21.046   3.678
25713W        W98138   4.345  11.281   1.269
25714W        W98139  43.888  11.706   4.784
25715W        W98140  38.403   5.423   3.317
25716W        W98141  15.635  21.146  12.493
25717W        W98142  10.813  38.570   3.641
25718W        W98143  35.071  38.873   1.869
25719W        W98144  23.608   0.759  12.013
25720W        W98145  43.812  38.942   3.286
25721W        W98146  44.805   2.286  14.772
25722W        W98147  37.434  33.121  14.490
25723W        W98148   5.393  37.962  13.483
25724W        W98149  34.119   9.340  14.945
25725W        W98150  15.702   2.308   0.926
25726W        W98151  13.298  13.762  11.035
25727W        W98152  33.958  12.268   4.272
25728W        W98153  39.437  37.404   4.652
25729W        W98154  29.524  20.676  11.998
25730W        W98155  35.599  13.212  10.422
25731W        W98156   7.269  43.787   1.886
25732W        W98157  40.926  44.368  12.068
25733W        W98158  41.375  39.035   4.801
25734W        W98159   2.796   4.265   0.389
25735W        W98160  19.057   2.340   5.140
25736W        W98161   0.482  19.601  10.537
25737W        W98162  15.578   2.725  10.591
25738W        W98163  29.509  39.409  13.472
25739W        W98164  35.016  43.326   1.405
25740W        W98165   8.347  21.255   5.205
25741W        W98166  17.608  11.719   4.834
25742W        W98167   5.844  22.644   0.408
25743W        W98168  12.245  34.968  14.023
25744W        W98169  15.143   3.827  13.925
25745W        W98170  41.853  20.154  10.904
25746W        W98171  25.503  35.571   0.740
25747W        W98172  23.709  35.493  10.920
25748W        W98173  25.559  42.283   4.781
25749W        W98174  43.951   3.251   3.746
25750W        W98175  23.028  39.377   3.646
25751W        W98176  32.411  11.664   3.361
25752W        W98177  40.027  41.792   0.823
25753W        W98178  22.533   7.274   1.380
25754W        W98179  25.983   9.719   3.264
25755W        W98180   6.843  22.171  13.997
25756W        W98181  25.114  32.546  13.404
25757W        W98182  18.097  35.420   3.297
25758W        W98183   4.823  32.132   0.255
25759W        W98184  26.483  40.525  13.444
25760W        W98185  11.240  35.105   3.191
25761W        W98186  28.005  27.499  10.425
25762W        W98187  40.864   6.289   4.260
25763W        W98188  41.041  23.123   2.300
25764W        W98189  38.513  14.202  11.391
25765W        W98190  39.050  22.591   3.845
25766W        W98191  38.937  41.984   4.719
25767W        W98192  36.414  21.572  14.976
25768W        W98193  13.251   3.758   2.718
25769W        W98194  34.387   5.756   0.363
25770W        W98195  27.140  40.830  11.997
25771W        W98196  28.150  19.674  13.039
25772W        W98197  19.056  24.715  13.958
25773W        W98198  30.112  18.131   0.861
25774W        W98199  10.842  31.468   1.842
25775W        W98200  42.499  29.539  10.450
25776W        W98201  32.578  14.125   2.289
25777W        W98202  32.454  36.850   0.409
25778W        W98203  34.472   3.348  13.885
25779W        W98204  41.417  25.679  14.282
25780W        W98205  30.547  10.685  12.566
25781W        W98206  18.758  41.857   2.835
25782W        W98207  26.101  32.137   4.263
25783W        W98208   1.832  36.541   3.260
25784W        W98209  20.244   6.756   1.240
25785W        W98210  25.498   8.684   9.943
25786W        W98211  34.035  35.399   2.823
25787W        W98212   7.890  41.394  10.033
25788W        W98213  21.233  44.279  10.531
25789W        W98214  12.843  15.659   1.243
25790W        W98215  44.886   2.265  12.377
25791W        W98216  43.788  11.810  10.912
25792W        W98217  26.153  28.543   0.312
25793W        W98218  18.091  32.910  11.993
25794W        W98219   8.669  13.330  11.031
25795W        W98220   4.247   4.830   3.778
25796W        W98221  28.451  19.744   3.179
25797W        W98222  31.964  38.859  14.031
25798W        W98223   6.898  42.844   0.380
25799W        W98224  18.206   7.197   1.316
25800W        W98225  21.673  35.924  14.400
25801W        W98226   9.818  42.872   4.752
25802W        W98227  24.998   4.838   0.869
25803W        W98228  28.671  34.494   1.364
25804W        W98229   1.275  26.681   0.813
25805W        W98230  43.439  37.495  14.404
25806W        W98231  19.561   8.375  11.894
25807W        W98232  21.562  18.285   0.280
25808W        W98233  19.721  40.395  13.036
25809W        W98234  19.224  41.534  11.049
25810W        W98235  15.720   2.343   2.894
25811W        W98236  38.050  15.626   4.817
25812W        W98237  34.007   9.698   1.858
25813W        W98238  14.139  18.628  12.094
25814W        W98239  40.798  18.218   0.309
25815W        W98240  32.059  25.187  14.972
25816W        W98241  17.189  14.102   4.818
25817W        W98242  22.190  44.358   1.702
25818W        W98243  43.487  39.389   4.634
25819W        W98244  19.624  30.488  13.970
25820W        W98245  40.877  22.515   2.901
25821W        W98246  10.322  28.059   5.240
25822W        W98247  16.218  13.843   0.332
25823W        W98248  37.049  34.106  12.507
25824W        W98249  32.527  42.512  11.501
25825W        W98250  18.293  43.275  10.550
25826W        W98251  34.062  28.492  13.449
25827W        W98252  38.419  17.590   4.657
25828W        W98253  32.573  27.452  14.312
25829W        W98254   5.417   1.387  13.990
25830W        W98255  15.327  35.058  12.042
25831W        W98256  10.232  13.157   4.599
25832W        W98257  16.212  39.954   3.858
25833W        W98258   5.211  11.800  13.449
25834W        W98259  33.913   5.821  11.889
25835W        W98260  24.583  24.674   2.802
25836W        W98261  22.116  18.636   3.247
25837W        W98262  43.299  40.369   4.156
25838W        W98263  41.023   6.403  10.982
25839W        W98264  28.049  30.438  14.995
25840W        W98265  40.833  41.008  13.344
25841W        W98266   9.232  15.214   1.827
25842W        W98267  12.233  35.028   3.190
25843W        W98268  33.083  39.323   2.753
25844W        W98269  12.200  14.233  13.346
25845W        W98270  15.772  37.984  11.958
25846W        W98271  10.841  33.478   0.942
25847W        W98272  41.947   8.798   5.166
25848W        W98273  21.046  13.116  12.877
25849W        W98274   0.437   0.830  11.510
25850W        W98275  34.950  37.374   1.360
25851W        W98276  21.201   6.242  10.614
25852W        W98277  32.604  14.679   1.440
25853W        W98278  19.071  11.361   2.181
25854W        W98279  15.617  40.020  11.472
25855W        W98280  40.367  10.241  11.021
25856W        W98281  32.601  41.971   0.331
25857W        W98282  18.270   1.868   5.780
25858W        W98283   7.762  14.200  11.528
25859W        W98284   0.874  26.565   5.109
25860W        W98285   9.241  19.747   3.261
25861W        W98286  13.295   2.344   0.334
25862W        W98287   2.260  29.026  14.029
25863W        W98288  26.470  34.449  11.073
25864W        W98289   1.865   1.447  12.469
25865W        W98290  37.504  27.473   2.203
25866W        W98291  29.176  35.408  12.034
25867W        W98292  22.061   6.818  12.485
25868W        W98293  36.486  40.037   1.796
25869W        W98294   0.490   8.212   1.928
25870W        W98295  33.923  42.864   4.738
25871W        W98296  17.759   4.930  14.353
25872W        W98297  12.345   9.379   2.671
25873W        W98298   4.324   7.191   4.805
25874W        W98299   3.898  21.023   3.295
25875W        W98300  36.546   3.833   2.252
25876W        W98301  40.402  30.497   9.995
25877W        W98302  36.430  27.063  14.833
25878W        W98303  21.185   0.909   3.162
25879W        W98304  18.591  10.749  13.810
25880W        W98305  17.274  13.760  14.325
25881W        W98306  41.802  14.726  12.860
25882W        W98307   5.776  22.176  11.444
25883W        W98308  24.138  21.043   4.260
25884W        W98309  29.575   5.303   4.118
25885W        W98310  17.259  13.287   3.647
25886W        W98311  12.259   4.714   3.769
25887W        W98312   2.412   5.421  12.864
25888W        W98313  13.335   9.325   0.738
25889W        W98314  14.224   9.646   4.647
25890W        W98315  13.221  20.261   3.161
25891W        W98316  11.173   6.235   4.318
25892W        W98317  38.822   7.311   0.401
25893W        W98318  32.062  37.490  11.968
25894W        W98319  20.179  17.069   4.795
25895W        W98320  36.055  34.010  10.579
25896W        W98321  41.880  38.049   0.777
25897W        W98322  18.183  22.672   3.654
25898W        W98323  36.015  37.368   0.843
25899W        W98324  40.827  21.539  14.449
25900W        W98325  22.094  42.852   2.195
25901W        W98326   2.852  20.746  10.505
25902W        W98327  39.057  28.499   1.322
25903W        W98328  21.126   6.812   2.411
25904W        W98329   9.647   3.938  12.980
25905W        W98330  24.686  10.366   9.496
25906W        W98331  42.494  15.155  10.551
25907W        W98332   8.336  14.773  13.486
25908W        W98333  24.999  44.976   3.238
25909W        W98334   8.324  21.604   4.782
25910W        W98335  33.978  26.581   2.832
25911W        W98336  29.167  14.243  13.393
25912W        W98337  28.621  40.548  14.469
25913W        W98338  32.936   7.253  10.922
25914W        W98339   1.751  35.891   2.309
25915W        W98340   1.876  39.891  12.986
25916W        W98341  14.626  14.709   1.356
25917W        W98342  20.600  22.578  13.916
25918W        W98343  22.620  42.335   2.306
25919W        W98344  16.297  27.057  11.453
25920W        W98345  15.148  19.189   4.776
25921W        W98346  29.436  22.650   1.229
25922W        W98347  10.806  44.440   1.781
25923W        W98348   3.877   0.758  11.390
25924W        W98349  44.376  31.607   1.226
25925W        W98350  27.046  29.670   1.216
25926W        W98351   3.412   1.345   0.747
25927W        W98352   1.963  22.195   0.284
25928W        W98353  23.491  28.532  10.570
25929W        W98354  12.727   3.311   1.419
25930W        W98355  20.720  14.670  13.945
25931W        W98356  36.870  36.957   3.695
25932W        W98357  15.236  35.955   2.382
25933W        W98358  14.156  13.169   2.749
25934W        W98359  11.177  38.370  14.362
25935W        W98360   9.695  13.201  13.396
25936W        W98361  30.052  28.118   4.746
25937W        W98362  13.791  27.997   4.789
25938W        W98363  35.409  19.075   0.916
25939W        W98364  32.086  21.115  11.875
25940W        W98365  13.165  43.469   3.169
25941W        W98366  14.694  26.649   2.733
25942W        W98367  22.597   8.362  12.431
25943W        W98368  29.957   7.887  14.900
25944W        W98369  16.099  23.016   2.686
25945W        W98370  38.997  29.558  12.004
25946W        W98371  13.172  14.175  12.413
25947W        W98372  34.409   7.902  13.458
25948W        W98373  41.369  32.888   2.739
25949W        W98374  35.009  12.616  12.915
25950W        W98375   9.789   5.341  12.874
25951W        W98376  41.396  20.205   1.836
25952W        W98377  29.105  33.111   5.298
25953W        W98378  38.011  18.138  14.927
25954W        W98379  39.337   8.723  14.924
25955W        W98380  19.585  30.107   2.725
25956W        W98381   8.243  37.382  14.799
25957W        W98382  29.119  23.217  13.017
25958W        W98383  35.557  13.270   1.752
25959W        W98384  37.520   4.418  11.991
25960W        W98385  17.281   3.232   4.670
25961W        W98386   1.410  19.042   2.373
25962W        W98387  30.622  35.021   1.296
25963W        W98388  22.570   4.267  10.438
25964W        W98389  12.830  27.514  13.000
25965W        W98390  16.615   8.740   2.718
25966W        W98391  19.676   8.870  12.930
25967W        W98392  41.498  33.556   2.371
25968W        W98393  32.602   0.926  13.997
25969W        W98394  14.121  13.191  13.007
25970W        W98395  39.363   3.890  11.033
25971W        W98396  44.258   3.782  12.427
25972W        W98397  24.109  26.535   0.846
25973W        W98398  16.794  18.143   2.304
25974W        W98399   9.658  34.502  14.486
25975W        W98400  25.647   9.392  10.561
25976W        W98401  32.496  32.508  12.865
25977W        W98402  39.415  24.592   4.163
25978W        W98403  13.351  15.606   4.731
25979W        W98404  22.139  18.212   2.758
25980W        W98405  19.710  27.974   5.247
25981W        W98406  26.017  43.805   2.343
25982W        W98407  40.864  11.833  10.457
25983W        W98408   2.920  35.926  14.345
25984W        W98409   5.866   1.237   4.626
25985W        W98410  11.255  13.283  14.393
25986W        W98411  37.557  18.077  11.506
25987W        W98412  22.017  27.552  10.471
25988W        W98413  40.956  29.552  13.491
25989W        W98414   4.398  21.039  10.982
25990W        W98415  41.454   2.723  11.428
25991W        W98416  14.247  34.438   2.890
25992W        W98417  35.450  14.221   0.825
25993W        W98418  42.479  43.399   1.859
25994W        W98419   5.768  12.281   1.871
25995W        W98420   3.752  36.434   3.862
25996W        W98421  15.692  30.577  10.120
25997W        W98422  22.638   8.787   4.763
25998W        W98423  25.195  44.881   2.251
25999W        W98424  38.889  42.887  10.121
26000W        W98425  39.391  44.308  11.006
26001W        W98426  38.373   9.876   3.846
26002W        W98427  20.064  11.217  11.510
26003W        W98428  33.894  30.486  13.954
26004W        W98429  44.939  17.247  13.365
26005W        W98430  44.951  25.964   4.321
26006W        W98431   2.334   8.174  13.518
26007W        W98432  22.579  23.231   2.250
26008W        W98433   8.666   0.476  14.330
26009W        W98434  11.636  24.502   3.147
26010W        W98435  27.969  17.184  12.037
26011W        W98436  25.637  22.008  11.094
26012W        W98437  12.729  23.727  12.580
26013W        W98438  12.852   9.392  14.504
26014W        W98439  17.641  21.619  12.086
26015W        W98440  17.606   5.838  13.852
26016W        W98441  15.087  15.782  14.996
26017W        W98442  40.507   6.311  14.888
26018W        W98443  43.469  29.069  14.285
26019W        W98444  10.235  35.102   3.833
26020W        W98445  13.120  43.474   0.934
26021W        W98446  23.185  26.575   1.710
26022W        W98447  24.566  43.456  12.879
26023W        W98448  11.157   9.716  10.525
26024W        W98449   0.407  37.416  13.418
26025W        W98450   9.837  41.906   0.333
26026W        W98451   1.748  15.154   0.832
26027W        W98452   8.892  44.924   3.385
26028W        W98453   4.839   0.949   1.415
26029W        W98454  16.809  40.870  13.538
26030W        W98455  30.978   2.291  13.394
26031W        W98456  37.839   1.378  10.927
26032W        W98457   1.763  30.026   3.631
26033W        W98458  12.204  20.701   4.278
26034W        W98459  29.631  28.172   0.844
26035W        W98460  37.417  27.085   1.369
26036W        W98461  24.677   7.190  14.928
26037W        W98462   1.322  16.612   4.265
26038W        W98463  39.419  11.270   4.246
26039W        W98464  20.198  14.257   4.813
26040W        W98465  23.989   8.797   0.780
26041W        W98466  36.980   9.352  14.856
26042W        W98467  25.636   3.444  12.494
26043W        W98468  30.495   9.756   4.729
26044W        W98469  31.531  33.593   3.326
26045W        W98470  17.744   4.273  14.327
26046W        W98471  36.001  19.104  14.384
26047W        W98472  30.554  20.643   4.671
26048W        W98473  28.614  19.756   1.240
26049W        W98474  37.030  20.639   1.303
26050W        W98475  44.404  22.253  13.063
26051W        W98476  40.807  35.067   3.294
26052W        W98477  42.027   0.433  11.958
26053W        W98478   7.786  27.622   3.352
26054W        W98479  26.137  22.651  12.005
26055W        W98480  18.198  41.389   1.837
26056W        W98481  42.306   8.229   2.373
26057W        W98482   7.365  11.290  10.991
26058W        W98483  35.051   1.733  10.576
26059W        W98484   7.744  44.779   3.647
26060W        W98485  16.234  20.197  11.890
26061W        W98486  16.695  30.023   4.170
26062W        W98487  16.578  29.976   9.645
26063W        W98488   1.413  11.662  14.820
26064W        W98489   5.822  29.935   3.294
26065W        W98490  42.523  40.048  10.500
26066W        W98491  14.625  43.496  13.544
26067W        W98492  21.211   5.337   3.345
26068W        W98493  19.207  26.985  14.959
26069W        W98494  31.608  38.835   3.257
26070W        W98495  41.964  11.290   0.943
26071W        W98496   3.333  28.173   3.687
26072W        W98497   0.910  38.485  10.629
26073W        W98498  31.938  42.429   1.300
26074W        W98499   1.831   1.399   2.885
26075W        W98500  12.682  33.120  13.039
26076W        W98501  28.610  20.123  14.934
26077W        W98502   9.840  10.253   0.788
26078W        W98503  14.291  19.589   0.832
26079W        W98504  28.059  39.455   4.294
26080W        W98505  26.660   8.290  13.996
26081W        W98506  10.755  33.556  13.539
26082W        W98507  10.640  37.077  13.348
26083W        W98508  29.924   0.844   2.724
26084W        W98509  27.559  22.541   3.349
26085W        W98510  36.062  22.997  11.959
26086W        W98511  18.743  43.987  11.094
26087W        W98512  10.689  41.910  13.841
26088W        W98513  11.866  26.105  10.428
26089W        W98514  37.526  17.627   2.759
26090W        W98515  16.728  23.223   1.786
26091W        W98516  36.585  30.495  11.053
26092W        W98517  25.091  19.663   2.217
26093W        W98518  27.541  30.966   4.199
26094W        W98519   3.845  27.511   2.239
26095W        W98520  34.512  24.188  11.518
26096W        W98521   0.923  35.908   3.256
26097W        W98522  40.896   9.193   0.472
26098W        W98523  44.505  18.771   2.663
26099W        W98524  11.635  42.923  14.817
26100W        W98525   0.316  35.995   0.442
26101W        W98526  30.969  43.403   3.334
26102W        W98527  13.311   4.864  11.891
26103W        W98528  23.016  32.083   2.685
26104W        W98529  37.420   7.282   1.450
26105W        W98530  27.680   5.309  10.439
26106W        W98531  24.604  10.361   0.405
26107W        W98532  40.344   1.338   3.667
26108W        W98533  31.141  37.965   4.728
26109W        W98534   9.805   3.291   4.249
26110W        W98535  21.553  35.908  14.971
26111W        W98536   7.314  34.411   0.820
26112W        W98537  12.661  27.944   4.120
26113W        W98538  31.097  18.568   9.564
26114W        W98539   7.411   4.386  14.013
26115W        W98540  11.145   2.764   4.644
26116W        W98541  20.097  28.037  14.482
26117W        W98542  13.215  22.129   5.104
26118W        W98543  32.077  43.965  11.923
26119W        W98544  30.448   8.273  10.491
26120W        W98545  10.300  24.643   0.472
26121W        W98546  25.980  28.469  14.990
26122W        W98547  32.073   0.336  10.469
26123W        W98548  24.997  25.706  13.501
26124W        W98549  35.081  15.652   2.201
26125W        W98550   6.238   5.904  14.984
26126W        W98551  29.953  15.788  13.528
26127W        W98552   9.786  15.642   3.185
26128W        W98553   1.423  24.115  14.356
26129W        W98554  31.633  17.560   3.274
26130W        W98555  14.795  44.770   1.919
26131W        W98556   5.259  27.092  12.463
26132W        W98557  44.461   1.473   5.251
26133W        W98558  13.144   7.688   1.919
26134W        W98559   1.838   7.899  13.880
26135W        W98560  18.154   2.806  14.962
26136W        W98561   8.883   8.352   2.666
26137W        W98562   2.461  26.043   4.220
26138W        W98563  20.647  26.584   4.211
26139W        W98564  32.996  43.376  11.004
26140W        W98565  22.161  19.752   4.184
26141W        W98566  27.651  25.105  10.633
26142W        W98567  27.984  16.238   4.201
26143W        W98568  28.998  12.333   1.851
26144W        W98569  25.551  36.507   3.230
26145W        W98570  12.235  31.053   3.187
26146W        W98571  32.066   9.800   0.944
26147W        W98572  44.959  29.028  12.547
26148W        W98573  39.523  44.991  14.291
26149W        W98574   0.444   2.299   4.742
26150W        W98575  28.673  17.273  12.938
26151W        W98576  26.189  13.141  12.359
26152W        W98577   6.387  14.149  12.985
26153W        W98578  26.588  24.974  14.026
26154W        W98579  32.960   0.403  12.984
26155W        W98580  13.122  18.754   3.280
26156W        W98581  21.192  31.996   9.997
26157W        W98582  40.387  34.979  13.385
26158W        W98583  39.031  38.961   1.746
26159W        W98584   5.732  28.175   3.722
26160W        W98585  29.635  19.769   0.359
26161W        W98586  16.308   5.292  14.895
26162W        W98587  20.130   9.330  12.361
26163W        W98588   1.806   3.819  11.600
26164W        W98589  17.595  28.651   3.315
26165W        W98590  43.783   5.867   1.834
26166W        W98591  32.588   9.862   4.677
26167W        W98592  35.101  35.043  13.517
26168W        W98593  36.896  44.755   2.403
26169W        W98594   4.437  20.141   2.333
26170W        W98595  31.522  18.706   4.310
26171W        W98596  31.133  29.501   1.870
26172W        W98597   3.408  28.940   4.816
26173W        W98598  21.660  10.765   4.811
26174W        W98599   7.799  42.484  14.897
26175W        W98600  10.847   1.467   1.405
26176W        W98601   2.374  23.681   4.610
26177W        W98602   2.885  35.046  14.758
26178W        W98603  21.521  19.084   1.292
26179W        W98604  36.360   8.384  12.435
26180W        W98605  17.585  21.138   2.681
26181W        W98606  36.369  15.115  12.967
26182W        W98607   7.897  16.195  13.858
26183W        W98608   6.722  26.119   4.271
26184W        W98609  32.112  12.780  13.317
26185W        W98610  24.702  21.020   4.741
26186W        W98611  31.024  39.527  14.020
26187W        W98612  27.099   4.411   1.722
26188W        W98613  26.557   6.827  13.983
26189W        W98614  21.252  12.197   1.744
26190W        W98615  12.271  23.128   2.774
26191W        W98616  16.123  29.497  13.488
26192W        W98617  24.560  14.835   1.738
26193W        W98618  34.047  31.066  12.421
26194W        W98619  19.210  19.729  10.522
26195W        W98620  25.199  22.703   3.312
26196W        W98621  35.021   6.398   1.916
26197W        W98622   6.797  42.989  14.911
26198W        W98623  27.157  17.187   1.429
26199W        W98624  44.292  42.413   0.409
26200W        W98625  24.687   9.862   2.703
26201W        W98626  25.553  31.612   0.432
26202W        W98627   3.243  16.755  11.917
26203W        W98628  44.994   7.412   0.859
26204W        W98629  27.449  14.812  14.346
26205W        W98630  17.572  18.229   4.762
26206W        W98631  25.649  14.299  11.510
26207W        W98632   4.408  37.471  13.024
26208W        W98633  15.709  23.113  14.811
26209W        W98634  25.121  38.927   0.741
26210W        W98635  18.713  17.273  12.479
26211W        W98636  37.918   1.841  12.895
26212W        W98637  14.228  36.408   3.240
26213W        W98638  13.687  33.117  11.002
26214W        W98639   3.298  39.972  14.312
26215W        W98640  10.739  42.992  13.963
26216W        W98641   6.403  22.600   1.861
26217W        W98642   0.869  40.330   3.247
26218W        W98643  40.019  21.682  12.849
26219W        W98644  11.143  39.826  11.487
26220W        W98645  43.836  44.849   4.149
26221W        W98646  37.482  39.946   1.772
26222W        W98647   7.391  16.792   2.682
26223W        W98648  22.139  23.041  12.459
26224W        W98649  37.033  19.115   1.740
26225W        W98650  43.941  35.977  14.912
26226W        W98651  36.586  13.323  11.908
26227W        W98652  37.927  43.888  12.966
26228W        W98653  11.789  28.001   4.115
26229W        W98654  34.976  27.034  11.920
26230W        W98655  15.621  31.017  14.909
26231W        W98656  12.638   7.264  10.543
26232W        W98657  18.746  10.213   3.796
26233W        W98658  25.611  26.653   4.285
26234W        W98659  22.710  34.551   1.718
26235W        W98660   3.444  41.331   0.356
26236W        W98661  40.319  13.298   1.286
26237W        W98662   8.739  14.716   0.481
26238W        W98663  34.414  25.470   3.154
26239W        W98664  41.457  21.561  14.875
26240W        W98665  43.819  42.305  12.509
26241W        W98666   3.418  27.047   1.732
26242W        W98667  21.261  27.993   2.321
26243W        W98668  25.137  15.220  13.403
26244W        W98669  38.487  12.316   4.221
26245W        W98670   9.659  41.987   1.406
26246W        W98671   0.331  14.789   2.898
26247W        W98672  43.901  31.003  10.544
26248W        W98673  12.207  44.333   4.606
26249W        W98674  39.939  42.413  13.500
26250W        W98675   1.853  14.756   3.325
26251W        W98676   9.720  24.609   0.795
26252W        W98677  37.037  30.512   0.799
26253W        W98678  40.950  26.027  12.989
26254W        W98679  15.648  14.652  13.446
26255W        W98680  24.223  15.750   1.284
26256W        W98681  43.495  43.785   4.257
26257W        W98682  18.720  24.628   2.192
26258W        W98683  28.181   7.871   1.335
26259W        W98684  22.596  39.860  14.995
26260W        W98685  22.640   5.786   0.854
26261W        W98686  42.439  21.254   1.932
26262W        W98687  32.960  17.788   1.873
26263W        W98688  15.676  21.151   4.351
26264W        W98689  29.090   3.338  11.602
26265W        W98690  12.677   7.674   3.797
26266W        W98691  33.904  44.432  13.967
26267W        W98692  43.364  37.530   3.793
26268W        W98693  17.223   1.471   3.634
26269W        W98694   3.817  38.940  13.005
26270W        W98695   8.174  35.997  12.392
26271W        W98696  43.820  22.076  12.384
26272W        W98697  11.631  43.426   2.179
26273W        W98698   0.361  29.661  12.877
26274W        W98699  40.379  22.577   0.419
26275W        W98700  24.696   0.767   3.234
26276W        W98701   7.687  14.193   4.646
26277W        W98702  39.445  11.849   0.805
26278W        W98703  10.712  44.811  13.516
26279W        W98704  44.810  29.591   0.745
26280W        W98705   6.389   8.318  14.779
26281W        W98706  38.502   5.823  10.561
26282W        W98707   5.793  36.951  13.508
26283W        W98708  30.093  21.224  13.015
26284W        W98709   0.793   6.196  12.339
26285W        W98710  42.304  42.927   3.328
26286W        W98711   2.827  30.597  13.452
26287W        W98712  31.080  11.681   4.132
26288W        W98713  39.045  10.637  10.020
26289W        W98714  21.538  40.456  14.929
26290W        W98715  15.256   2.756  10.444
26291W        W98716  37.932  31.940   4.774
26292W        W98717  11.649   1.732   1.270
26293W        W98718   7.403  43.861   1.363
26294W        W98719  12.659  21.062  14.952
26295W        W98720  32.000  34.594   3.168
26296W        W98721  28.572  35.423   1.745
26297W        W98722   3.755  11.364  13.034
26298W        W98723   5.230  27.551   4.738
26299W        W98724   4.369  32.906  11.427
26300W        W98725  10.730  34.894   1.721
26301W        W98726  38.927   0.911   0.912
26302W        W98727  36.402  12.327  10.480
26303W        W98728   7.320  24.228   3.822
26304W        W98729   8.233  34.009   4.149
26305W        W98730   7.218  29.089   0.822
26306W        W98731  33.592  33.023  11.067
26307W        W98732   2.352  18.630  12.521
26308W        W98733  32.919  40.445  12.052
26309W        W98734  22.548   4.869   4.837
26310W        W98735  26.683  16.262  14.777
26311W        W98736  28.050  33.410   5.147
26312W        W98737   8.276  20.190  11.026
26313W        W98738  41.313   1.411  13.394
26314W        W98739   0.826  11.233  14.987
26315W        W98740  32.912  25.571   0.867
26316W        W98741   1.752  37.943   3.811
26317W        W98742  16.710  29.086   3.179
26318W        W98743  42.906   7.225  11.604
26319W        W98744  22.649  34.894   3.833
26320W        W98745  43.892  13.738   4.803
26321W        W98746  20.057   9.339  14.968
26322W        W98747  10.822  30.602  10.465
26323W        W98748  39.553  18.176  11.549
26324W        W98749   3.832  44.793  14.923
26325W        W98750  26.157  18.559   1.283
26326W        W98751   5.722  16.293  10.919
26327W        W98752   4.294   9.310   2.858
26328W        W98753   6.349   8.233   3.333
26329W        W98754  18.291  34.094  11.017
26330W        W98755  34.094   7.400  14.804
26331W        W98756  33.120  26.663  13.914
26332W        W98757  41.850  11.213  14.025
26333W        W98758  24.517   5.419   2.744
26334W        W98759  22.021  19.205   0.244
26335W        W98760  24.005  14.733   4.220
26336W        W98761  15.715  28.634   2.202
26337W        W98762  16.710  27.574  11.105
26338W        W98763  44.292  15.578  11.858
26339W        W98764  19.100  18.663  10.968
26340W        W98765   9.287  18.759   0.310
26341W        W98766  25.667   5.198  11.597
26342W        W98767  37.889   1.753  14.891
26343W        W98768  13.126  11.139   2.305
26344W        W98769  30.915  35.368   3.293
26345W        W98770  13.174  23.187  11.078
26346W        W98771  10.728  28.570  11.959
26347W        W98772   9.826   2.374  11.862
26348W        W98773  29.615  43.451   2.871
26349W        W98774  22.212  24.044   3.370
26350W        W98775  17.256  30.052   0.251
26351W        W98776   6.689  25.681   1.372
26352W        W98777  20.070  12.838  13.886
26353W        W98778  25.707  32.535   2.238
26354W        W98779  14.252  37.863  10.518
26355W        W98780   3.451   9.202  13.411
26356W        W98781  18.687  18.056   4.304
26357W        W98782   2.407  19.243  10.439
26358W        W98783  44.834  27.638  12.841
26359W        W98784  43.475  20.738   3.758
26360W        W98785  39.435   6.314  14.276
26361W        W98786  25.208  10.851   4.306
26362W        W98787  33.065  29.600   3.780
26363W        W98788  29.106  26.140   4.715
26364W        W98789  27.659  29.985  14.325
26365W        W98790  39.881  38.854  11.879
26366W        W98791  24.537  22.058  10.485
26367W        W98792  17.289  14.811  14.441
26368W        W98793  30.542  36.401   2.234
26369W        W98794  11.722   1.853  13.936
26370W        W98795  43.957  44.776  11.073
26371W        W98796  13.122  17.080   4.607
26372W        W98797  17.096  40.416  11.554
26373W        W98798  20.731  28.044   1.785
26374W        W98799   6.254  11.214   3.223
26375W        W98800  15.116  33.532  13.034
26376W        W98801  30.106  39.966  13.898
26377W        W98802  38.043   5.408   0.310
26378W        W98803  16.085  40.362  11.520
26379W        W98804  13.343  31.436   1.349
26380W        W98805  32.134  41.306  11.421
26381W        W98806  31.128  17.763   3.195
26382W        W98807   5.212   0.379  11.500
26383W        W98808  31.423  36.438  10.907
26384W        W98809  39.414   0.370  12.457
26385W        W98810  33.608  39.397  10.525
26386W        W98811  23.519  31.114  10.952
26387W        W98812  15.302  19.040  13.476
26388W        W98813  28.975   4.861   0.766
26389W        W98814  10.820  38.450  13.891
26390W        W98815   8.203  28.463  13.918
26391W        W98816  29.137  17.070  11.510
26392W        W98817  17.094   6.706  14.847
26393W        W98818   1.859   7.701   0.953
26394W        W98819  26.458   1.314  10.602
26395W        W98820   3.378  36.369  11.608
26396W        W98821  25.161  27.598  10.913
26397W        W98822  33.559  31.623   0.776
26398W        W98823  26.016  31.467   3.822
26399W        W98824  11.277  28.467  10.499
26400W        W98825  41.344  13.133  11.920
26401W        W98826  44.325   7.745   0.345
26402W        W98827   9.257  29.957   0.331
26403W        W98828  26.479   9.647   2.185
26404W        W98829  12.305  14.233  12.072
26405W        W98830  31.914  38.860  12.092
26406W        W98831  33.916   4.775   1.440
26407W        W98832   5.728  29.502  14.312
26408W        W98833   1.774  31.019  11.536
26409W        W98834  44.769  18.573   4.187
26410W        W98835  22.553   1.958   3.165
26411W        W98836  40.484  37.462   0.320
26412W        W98837   5.793   9.188  13.320
26413W        W98838  13.627  19.230  10.641
26414W        W98839  32.465   1.755   4.813
26415W        W98840   8.359   5.872  11.877
26416W        W98841  19.572  25.972   0.453
26417W        W98842  28.089  22.156  13.949
26418W        W98843  14.312  40.354   2.880
26419W        W98844  19.592   4.215   2.859
26420W        W98845  36.451  40.948  13.330
26421W        W98846   9.716   9.799   1.708
26422W        W98847  25.512  30.137  14.009
26423W        W98848  43.376  39.994  11.954
26424W        W98849  17.209  24.655   2.257
26425W        W98850   4.805   3.741   2.194
26426W        W98851  19.631  31.609   5.615
26427W        W98852  18.667  42.814  10.141
26428W        W98853  24.633  31.975   1.694
26429W        W98854  27.003  21.172   2.711
26430W        W98855  31.027  30.009   2.808
26431W        W98856   7.724  31.025   3.710
26432W        W98857  15.107  16.714   2.186
26433W        W98858  42.437   7.250  14.025
26434W        W98859  12.664  18.210  13.432
26435W        W98860  12.756  23.703  11.039
26436W        W98861  18.669  28.984  11.106
26437W        W98862   1.448  29.121  12.381
26438W        W98863  10.792   5.357  13.903
26439W        W98864   7.304  40.945   1.256
26440W        W98865   1.336  27.105  14.506
26441W        W98866   9.285  32.510   3.250
26442W        W98867  30.939  17.642  11.539
26443W        W98868   0.870  23.236   1.876
26444W        W98869  15.773  31.577  11.452
26445W        W98870  28.108  34.865   2.329
26446W        W98871   7.361   0.393  12.845
26447W        W98872  18.106  40.464   1.833
26448W        W98873  19.112  41.320  12.014
26449W        W98874  22.996  44.389   0.296
26450W        W98875  40.530   5.722   1.903
26451W        W98876  42.425  25.553   3.374
26452W        W98877  41.013  27.057  14.004
26453W        W98878  19.124  44.280   3.799
26454W        W98879  11.268   3.281   4.131
26455W        W98880  27.075  18.736   3.375
26456W        W98881  14.327  24.583   2.232
26457W        W98882   0.755   8.344  14.903
26458W        W98883  10.741  16.147  12.443
26459W        W98884  24.103   5.335   0.346
26460W        W98885  36.471  31.952   0.827
26461W        W98886   3.766  17.741   3.195
26462W        W98887   6.327  21.061   4.216
26463W        W98888  43.938  16.294   0.807
26464W        W98889  32.142  39.528  10.956
26465W        W98890  16.314   3.877  10.514
26466W        W98891   2.747   6.230  11.590
26467W        W98892  16.676   1.376   2.869
26468W        W98893  28.528  38.981  13.957
26469W        W98894  25.171  44.895  10.985
26470W        W98895  44.876  27.480   3.811
26471W        W98896  34.885  23.546   2.401
26472W        W98897  15.279  17.662   3.825
26473W        W98898  40.924  43.508   1.790
26474W        W98899   4.418   5.701  10.586
26475W        W98900  20.543  30.022   0.444
26476W        W98901  19.650  26.552  12.921
26477W        W98902  43.422   9.354  14.832
26478W        W98903  13.646   8.258   4.639
26479W        W98904  29.058  24.134   1.707
26480W        W98905  29.594  17.067  12.478
26481W        W98906   8.173  12.762  11.996
26482W        W98907   7.745  32.564   0.397
26483W        W98908  43.387  44.972   2.237
26484W        W98909   9.363   7.221  14.973
26485W        W98910  24.587  20.244  10.598
26486W        W98911  22.104   6.760   3.377
26487W        W98912  24.197  10.634  12.404
26488W        W98913  38.879  23.198   0.941
26489W        W98914  38.435  31.627  11.957
26490W        W98915  11.359  25.656  13.545
26491W        W98916   2.439   5.766   1.874
26492W        W98917  42.937   5.329  11.376
26493W        W98918  44.946  27.106  13.944
26494W        W98919   3.352  13.613  12.446
26495W        W98920   7.683  21.077   0.924
26496W        W98921  18.577  33.989  14.790
26497W        W98922  28.112   9.850   1.257
26498W        W98923  22.115  21.017   2.817
26499W        W98924  34.453  10.844  10.469
26500W        W98925  25.036  39.455   1.439
26501W        W98926  33.538  24.650  13.822
26502W        W98927  28.995  34.391   1.345
26503W        W98928  14.692  23.543   1.822
26504W        W98929  27.669  32.022   4.333
26505W        W98930  37.002  12.691   3.793
26506W        W98931  38.509  38.486  11.989
26507W        W98932  17.187  23.158  10.500
26508W        W98933  28.982   3.347   3.702
26509W        W98934  15.219  29.486  12.003
26510W        W98935  44.835   4.729  10.425
26511W        W98936  18.084  39.835   3.197
26512W        W98937  22.141  11.629   2.802
26513W        W98938   2.413  14.834  11.444
26514W        W98939   9.347  26.139  12.411
26515W        W98940  25.172  41.525   3.224
26516W        W98941  37.029   8.869   3.268
26517W        W98942  13.822  30.474  13.432
26518W        W98943  44.782  29.953  14.358
26519W        W98944   5.727  41.016   0.949
26520W        W98945  40.907   7.375   4.668
26521W        W98946  23.017  10.642   2.664
26522W        W98947   1.782  18.296  11.008
26523W        W98948  16.602   2.242  13.437
26524W        W98949  27.482   2.920   4.630
26525W        W98950  23.538  28.077  13.460
26526W        W98951  19.275  17.301   0.469
26527W        W98952  25.057  30.599   2.720
26528W        W98953  27.949   6.325   4.182
26529W        W98954  14.787  14.633   3.283
26530W        W98955  41.845  28.135  10.084
26531W        W98956  11.705   7.368   4.345
26532W        W98957  26.053  29.075   2.676
26533W        W98958  23.530   0.448   2.341
26534W        W98959  38.441  13.247  13.390
26535W        W98960  10.864  41.988   4.780
26536W        W98961  27.120  17.129   4.635
26537W        W98962  19.547  35.004  14.911
26538W        W98963  15.219   5.811  13.049
26539W        W98964  27.959  14.687   4.695
26540W        W98965  16.089  30.522  12.464
26541W        W98966  14.650  29.605   4.747
26542W        W98967  18.703   0.343   2.240
26543W        W98968  10.721  24.505   2.858
26544W        W98969  40.312  19.062   3.814
26545W        W98970  39.471   4.875  14.283
26546W        W98971  10.734  35.368   0.750
26547W        W98972  36.038  33.525  13.381
26548W        W98973   0.274  27.616  14.360
26549W        W98974  12.124   1.825  13.952
26550W        W98975  30.537  10.384   2.298
26551W        W98976   0.400  41.796  13.836
26552W        W98977   2.767  12.776  13.470
26553W        W98978  28.084   1.745   1.811
26554W        W98979   3.803  35.377   3.731
26555W        W98980  43.804  42.902   2.227
26556W        W98981  25.491  31.077  14.451
26557W        W98982  35.044  43.345  11.374
26558W        W98983  12.627  22.580  13.040
26559W        W98984  20.104  18.602  10.598
26560W        W98985  26.628  15.315   1.448
26561W        W98986  14.835   3.720  14.489
26562W        W98987  33.972  32.628   3.868
26563W        W98988  20.632  17.557   2.662
26564W        W98989  20.089   9.760   1.856
26565W        W98990  33.380  41.841   3.363
26566W        W98991   3.418   8.798   3.824
26567W        W98992  12.168  34.381  10.450
26568W        W98993   7.285  17.205  13.486
26569W        W98994  14.705   0.775  14.886
26570W        W98995   9.834  16.755   4.783
26571W        W98996  14.742  16.767  13.535
26572W        W98997   2.340   8.723  14.476
26573W        W98998   6.266   0.763  10.999
26574W        W98999  15.596  13.710  13.406
26575W        W99000   7.867  23.694  11.587
26576W        W99001   5.698   8.830   2.819
26577W        W99002  16.742  41.459  11.043
26578W        W99003  14.754  24.605  10.417
26579W        W99004  39.535  18.572  13.371
26580W        W99005  33.944  11.223   4.703
26581W        W99006   9.197  29.558   1.264
26582W        W99007  35.522  15.124   4.136
26583W        W99008   7.795  11.317   0.317
26584W        W99009  40.428  44.341   5.725
26585W        W99010  22.540  23.199  13.421
26586W        W99011  25.130  30.140   4.141
26587W        W99012  10.844   4.796  11.486
26588W        W99013  28.083   0.335   4.137
26589W        W99014  31.451  35.024   4.631
26590W        W99015  40.535  11.152  13.308
26591W        W99016  24.214   6.868  14.936
26592W        W99017  27.607  36.424  10.909
26593W        W99018  32.393  15.296   3.333
26594W        W99019  36.383   9.372  12.391
26595W        W99020   8.318  41.399  10.545
26596W        W99021  14.717  17.631   0.847
26597W        W99022   9.802   6.731   4.317
26598W        W99023   7.305  20.630  11.060
26599W        W99024  15.109  15.260   2.681
26600W        W99025  24.152  36.506   0.827
26601W        W99026   2.957   5.229   1.844
26602W        W99027  27.454  42.518  12.997
26603W        W99028  29.126  11.180  13.406
26604W        W99029  36.577  28.037  10.565
26605W        W99030  34.921   1.862  14.871
26606W        W99031  14.148  16.597   4.207
26607W        W99032  23.021  38.975  13.874
26608W        W99033  28.634  17.158  13.891
26609W        W99034  11.150  10.281   3.186
26610W        W99035  13.710  21.242   2.226
26611W        W99036  27.535  44.330  14.821
26612W        W99037   3.382  35.091   1.848
26613W        W99038  28.451  25.005   5.182
26614W        W99039   5.283  38.467  13.503
26615W        W99040  18.235  23.645  12.563
26616W        W99041   8.350  24.704  14.504
26617W        W99042  29.011  23.675  14.921
26618W        W99043  15.779   0.920  14.952
26619W        W99044  14.163  43.934   3.801
26620W        W99045   0.462   2.403   1.393
26621W        W99046   5.820  37.960   1.763
26622W        W99047  13.731  26.547   0.260
26623W        W99048   0.845  17.743  13.031
26624W        W99049   5.739   0.411  11.485
26625W        W99050  16.102  21.227   4.172
26626W        W99051  43.374  37.012  13.314
26627W        W99052  32.926   1.731  10.543
26628W        W99053  29.051  10.223  13.050
26629W        W99054  41.900  24.988  11.933
26630W        W99055  24.093  35.417  10.490
26631W        W99056  18.076  16.800   4.120
26632W        W99057  10.847   3.219   4.630
26633W        W99058  37.975   3.240  14.989
26634W        W99059  42.457   3.285  12.929
26635W        W99060  21.260  40.540  11.438
26636W        W99061   8.168  33.926   4.687
26637W        W99062  44.382  31.469   3.338
26638W        W99063   0.810  40.508   1.792
26639W        W99064  40.846  41.882   2.359
26640W        W99065  14.597  31.973  14.424
26641W        W99066  12.268  41.033  12.067
26642W        W99067   3.820  13.141  13.046
26643W        W99068  32.953   3.912   3.731
26644W        W99069  14.293  17.251   3.739
26645W        W99070  40.957  19.277  12.088
26646W        W99071   0.822  27.963   2.767
26647W        W99072  29.583  20.584   1.861
26648W        W99073   5.909  14.192   0.458
26649W        W99074  31.434  33.959   3.255
26650W        W99075  31.540  16.735   5.252
26651W        W99076   2.360  28.183   3.351
26652W        W99077  13.227   3.916   0.952
26653W        W99078  31.002  27.532  14.392
26654W        W99079   7.241  39.376   4.827
26655W        W99080  11.165  42.830   2.398
26656W        W99081  24.615  28.467   0.868
26657W        W99082  31.454  19.653   3.699
26658W        W99083  35.576  21.515   2.194
26659W        W99084   8.785  27.507  14.440
26660W        W99085  39.005   0.310  14.392
26661W        W99086   9.189  11.756   1.220
26662W        W99087  13.117  23.694   1.341
26663W        W99088  37.072   1.383   2.806
26664W        W99089  18.276  38.556   2.293
26665W        W99090  12.780  17.188  13.971
26666W        W99091  14.170  39.874   0.932
26667W        W99092  38.378  24.581  11.068
26668W        W99093  30.568  21.256   1.375
26669W        W99094  31.100  40.487  13.493
26670W        W99095  33.585  13.627  12.452
26671W        W99096   7.343  18.781  12.548
26672W        W99097  15.115   1.890   0.283
26673W        W99098  15.182  17.610  11.914
26674W        W99099  14.297  16.255   4.232
26675W        W99100  12.623  20.077  11.866
26676W        W99101  42.313  39.397   2.367
26677W        W99102  41.505  27.076  13.527
26678W        W99103   3.364   5.381  13.467
26679W        W99104  43.833  10.170   3.317
26680W        W99105  33.559  28.178   4.146
26681W        W99106  33.486  35.083  13.322
26682W        W99107  36.352  23.219   4.203
26683W        W99108  31.437  44.329   4.273
26684W        W99109  24.697  32.943  11.884
26685W        W99110  36.482  31.986  13.340
26686W        W99111  32.616  16.172   5.287
26687W        W99112  30.999  25.574   0.455
26688W        W99113  15.633  17.140   4.275
26689W        W99114  18.161   4.340  14.761
26690W        W99115  27.067   5.713   1.393
26691W        W99116  12.145  19.243   2.682
26692W        W99117  10.245  10.851   2.815
26693W        W99118  23.547  42.444   0.757
26694W        W99119  43.449   5.402  13.340
26695W        W99120   5.351  31.593   1.720
26696W        W99121   1.259  24.649  12.428
26697W        W99122  17.575  34.954   4.638
26698W        W99123  26.528  28.115  13.031
26699W        W99124  44.397  21.667  13.345
26700W        W99125  33.454   4.812   2.389
26701W        W99126  22.091  11.165  14.449
26702W        W99127  18.636  15.225  13.436
26703W        W99128  20.230  29.611  12.924
26704W        W99129   1.882  19.058  12.501
26705W        W99130  42.409  16.675  13.416
26706W        W99131  34.448   3.431   2.269
26707W        W99132  27.587   5.410  11.414
26708W        W99133  30.140  26.070  13.933
26709W        W99134  16.743  30.959   1.777
26710W        W99135  37.382  29.551  14.868
26711W        W99136  42.931   9.794   4.706
26712W        W99137  26.675  37.841   0.952
26713W        W99138  36.358  44.325   0.472
26714W        W99139  14.174  12.742   4.160
26715W        W99140  17.797  21.756   4.605
26716W        W99141  38.386  30.574   3.782
26717W        W99142  39.972  16.780  12.972
26718W        W99143  31.572  39.318   3.655
26719W        W99144  42.842  26.504   1.323
26720W        W99145  23.567  18.617  13.346
26721W        W99146  11.181  37.434  13.417
26722W        W99147  17.067  18.128  11.985
26723W        W99148  34.105  27.026   0.427
26724W        W99149  44.772  43.270  13.050
26725W        W99150   0.327   0.776  12.491
26726W        W99151   0.790  42.986   5.257
26727W        W99152   5.336  12.785   2.320
26728W        W99153  35.906  43.938  13.327
26729W        W99154   2.392  21.249   2.220
26730W        W99155  13.317   9.336  10.455
26731W        W99156  38.468  42.318  12.420
26732W        W99157  17.740  43.422  14.764
26733W        W99158  34.584   2.745   0.822
26734W        W99159   5.196  24.064   0.904
26735W        W99160  18.054  32.516   4.744
26736W        W99161  28.165  16.750  13.449
26737W        W99162   9.264  32.904  11.013
26738W        W99163  41.925   6.689  11.391
26739W        W99164  38.987  39.422   2.715
26740W        W99165  36.351  44.804  10.597
26741W        W99166  25.524   9.370   3.249
26742W        W99167  19.258  43.815   2.379
26743W        W99168  20.618  31.405   9.443
26744W        W99169  43.895  39.536  11.857
26745W        W99170  13.346  39.518   1.809
26746W        W99171   7.883  30.529  14.474
26747W        W99172  33.902  37.351  14.865
26748W        W99173   0.896  19.593  10.608
26749W        W99174  41.020  12.329  10.414
26750W        W99175   4.880  19.642  14.333
26751W        W99176  15.201  35.586   2.285
26752W        W99177  41.949  13.164   2.180
26753W        W99178  44.889  23.187   4.800
26754W        W99179   5.777  12.640  10.963
26755W        W99180   4.285  24.671  11.069
26756W        W99181  20.262   5.431   4.754
26757W        W99182  10.278  35.526   4.176
26758W        W99183  12.743  23.088  11.941
26759W        W99184   3.924  14.143   1.806
26760W        W99185  11.776  21.042  12.920
26761W        W99186  14.270  39.903   4.700
26762W        W99187  43.425  12.798   2.816
26763W        W99188   0.768  29.615   4.352
26764W        W99189  27.600  14.734   3.294
26765W        W99190  21.555  35.421  13.432
26766W        W99191   2.374  23.624  13.058
26767W        W99192  24.577  39.437   3.794
26768W        W99193  43.976  19.152   2.716
26769W        W99194  18.685  18.700  13.447
26770W        W99195  19.648   4.891  14.010
26771W        W99196  40.465  11.671   4.277
26772W        W99197  26.052  27.481  10.980
26773W        W99198  25.547  34.976   1.910
26774W        W99199  16.196  13.666  14.314
26775W        W99200  33.431   4.429  10.977
26776W        W99201  12.784  23.687   0.316
26777W        W99202  41.873  30.432   5.132
26778W        W99203   2.861  11.861  10.465
26779W        W99204  22.515  21.515   3.352
26780W        W99205   4.304  26.111   3.729
26781W        W99206  27.963  22.625   5.156
26782W        W99207  44.455  22.727   1.820
26783W        W99208   7.300   8.308   4.311
26784W        W99209  30.127  28.451  14.792
26785W        W99210  44.287  19.067  10.902
26786W        W99211   9.789  14.212   4.216
26787W        W99212   5.764  22.632  14.988
26788W        W99213  33.082   2.833   0.928
26789W        W99214  17.140   3.949  12.049
26790W        W99215  40.900   9.378   4.807
26791W        W99216  20.677   2.362  10.960
26792W        W99217   5.297  17.080  14.970
26793W        W99218  39.937   7.698  11.522
26794W        W99219  20.627  30.532  12.375
26795W        W99220   5.762  33.485   0.740
26796W        W99221  17.153  24.047  13.063
26797W        W99222  22.510  26.045   0.433
26798W        W99223  10.649  36.415  10.991
26799W        W99224  37.471  44.498   2.260
26800W        W99225   2.293  40.987   3.676
26801W        W99226  21.151  39.501   0.246
26802W        W99227  26.208  20.262  14.503
26803W        W99228  35.420  14.754   2.370
26804W        W99229  23.090  19.093   4.148
26805W        W99230  16.614   3.762   0.270
26806W        W99231  36.553   3.949  13.393
26807W        W99232  10.267  23.591  10.998
26808W        W99233   9.761  44.909   3.747
26809W        W99234  13.286  40.372  13.439
26810W        W99235  13.199  13.315   3.771
26811W        W99236   6.345   7.847   3.321
26812W        W99237  24.495  10.702   4.281
26813W        W99238  42.434  35.910   3.215
26814W        W99239  14.610  12.837   2.259
26815W        W99240  28.642   2.884  12.064
26816W        W99241  12.348  44.376  13.394
26817W        W99242  41.873  35.505   2.209
26818W        W99243  24.529  10.808   5.716
26819W        W99244  21.044  16.284   2.832
26820W        W99245  13.330  16.211   0.406
26821W        W99246  30.133  26.703   0.743
26822W        W99247  37.080  30.652  12.046
26823W        W99248  32.124  28.675  14.764
26824W        W99249   5.814  26.079   3.828
26825W        W99250  40.490  31.137  11.104
26826W        W99251  23.102  42.852  11.405
26827W        W99252  44.388   3.246  11.118
26828W        W99253   0.369  29.571   4.678
26829W        W99254   7.306  13.713  10.408
26830W        W99255  28.495  29.118  13.975
26831W        W99256  20.559  29.009   4.226
26832W        W99257   5.354  32.406  13.354
26833W        W99258   3.370  16.606  13.855
26834W        W99259  14.267  22.108  13.427
26835W        W99260  43.456  37.982  12.515
26836W        W99261  41.535   5.220   4.621
26837W        W99262  29.515   8.667   1.906
26838W        W99263  40.350  42.015  11.989
26839W        W99264   3.778   9.343  13.534
26840W        W99265  34.495  32.592   4.713
26841W        W99266  42.434  34.555   3.642
26842W        W99267  19.760   1.758   1.401
26843W        W99268  23.230  40.431   3.846
26844W        W99269  27.049   7.846  13.493
26845W        W99270  32.092   1.759   2.871
26846W        W99271  27.610  43.815  11.437
26847W        W99272  38.345  40.519   4.616
26848W        W99273  24.185   2.387   1.416
26849W        W99274   4.769  13.244  12.341
26850W        W99275  41.037  40.957  14.483
26851W        W99276  22.199  33.936  12.449
26852W        W99277  14.722   7.679  12.476
26853W        W99278  23.604  41.340  14.922
26854W        W99279  19.070  17.722  12.505
26855W        W99280  42.310  27.500  13.942
26856W        W99281  19.580  13.725   4.832
26857W        W99282  28.175  33.112   0.388
26858W        W99283   2.865  32.565  11.436
26859W        W99284   5.900   3.804  11.988
26860W        W99285  36.474  18.116  13.338
26861W        W99286  11.644  23.125   4.673
26862W        W99287   5.737  39.380  12.378
26863W        W99288  16.285  38.857   1.898
26864W        W99289  41.016  40.936  13.032
26865W        W99290  37.998  33.397   0.803
26866W        W99291  37.336   9.315  11.923
26867W        W99292  24.484  23.083   1.359
26868W        W99293  31.022   6.713   4.720
26869W        W99294   7.257   0.765  14.861
26870W        W99295   1.448  11.819   2.806
26871W        W99296   8.666  41.367  14.799
26872W        W99297   3.332  31.954   2.210
26873W        W99298  11.228  30.977  13.013
26874W        W99299   3.282  10.788   1.873
26875W        W99300   6.265   7.864   2.894
26876W        W99301   7.273   7.714  10.138
26877W        W99302  30.466  29.535   2.379
26878W        W99303  39.394  23.033   2.382
26879W        W99304  25.080  32.937   0.484
26880W        W99305  25.647  14.739   2.274
26881W        W99306  22.509   2.902  12.345
26882W        W99307   7.868  42.402  10.532
26883W        W99308  14.229  39.489   4.613
26884W        W99309  42.415  41.427  14.446
26885W        W99310  14.160  16.595   3.717
26886W        W99311   9.152  39.433  14.308
26887W        W99312   8.716  19.557  10.594
26888W        W99313   5.390  40.482   0.451
26889W        W99314  43.902  32.479   3.266
26890W        W99315  42.909  22.068  10.403
26891W        W99316   0.842  29.649  14.296
26892W        W99317  43.972   4.714   2.808
26893W        W99318   4.796   5.377   2.693
26894W        W99319   6.917   0.970  11.943
26895W        W99320  43.966  12.766  10.617
26896W        W99321   0.886   0.291  14.016
26897W        W99322  30.482  29.611   0.254
26898W        W99323  18.129  40.016   0.855
26899W        W99324  12.751  42.516   0.794
26900W        W99325  35.041  43.812   4.598
26901W        W99326  28.563  21.603  11.430
26902W        W99327   8.366  19.652  14.881
26903W        W99328  16.753  31.078   9.672
26904W        W99329  44.777   7.182  14.493
26905W        W99330  24.980  10.681  10.049
26906W        W99331   5.771   4.268   1.839
26907W        W99332  21.665  15.658  11.120
26908W        W99333  27.586  15.746  14.428
26909W        W99334  11.861  17.122  13.911
26910W        W99335  40.364  39.377   1.377
26911W        W99336  34.928  30.095   1.334
26912W        W99337  39.984  20.203  11.127
26913W        W99338   8.214  18.736   0.459
26914W        W99339   6.791  12.841  12.023
26915W        W99340  19.133   1.289   9.614
26916W        W99341  27.630  39.066  12.068
26917W        W99342  14.669  43.482  12.862
26918W        W99343  21.163   8.264   2.180
26919W        W99344  23.503   9.302  12.025
26920W        W99345   8.684  25.100  14.837
26921W        W99346  29.664   2.757   4.695
26922W        W99347   6.817   0.289  11.054
26923W        W99348  41.534   3.927  13.537
26924W        W99349  21.241  34.558  10.030
26925W        W99350  19.694  32.082   3.632
26926W        W99351  19.566   3.343  12.068
26927W        W99352  30.533  29.556  12.964
26928W        W99353  26.046  27.092   4.728
26929W        W99354  31.425  20.196  12.563
26930W        W99355  41.307  37.543   4.152
26931W        W99356   4.896   2.308  13.019
26932W        W99357   4.866  43.981  13.893
26933W        W99358   5.881  41.960  14.889
26934W        W99359  40.023  40.819   2.751
26935W        W99360  16.180  40.880  14.923
26936W        W99361  36.896   8.711   2.379
26937W        W99362  14.339  13.638  11.113
26938W        W99363  13.278  26.492  12.365
26939W        W99364  43.873  25.584   2.768
26940W        W99365   5.203  31.419   2.240
26941W        W99366  28.056  34.884   3.224
26942W        W99367  19.138  14.286  14.279
26943W        W99368  12.169  40.838   0.417
26944W        W99369  12.195  12.721  13.467
26945W        W99370  30.654  11.807   4.319
26946W        W99371  44.870   2.897   0.839
26947W        W99372  32.605   8.357  14.904
26948W        W99373  39.513  16.576   2.710
26949W        W99374  36.871  30.489  11.574
26950W        W99375  44.898  21.257  12.056
26951W        W99376   3.270  31.040  13.359
26952W        W99377   5.759  18.735  14.028
26953W        W99378  44.479  34.450  12.428
26954W        W99379  30.023  32.990  12.823
26955W        W99380  38.839  22.678   3.262
26956W        W99381   4.889   2.443  11.026
26957W        W99382  36.936  27.064  10.928
26958W        W99383   4.914   8.690   3.732
26959W        W99384  41.325  29.498  14.808
26960W        W99385  16.075  20.630  11.001
26961W        W99386  26.993   7.768   0.751
26962W        W99387  27.131  33.438   4.229
26963W        W99388  33.549  24.067   4.828
26964W        W99389  36.433  26.480   2.205
26965W        W99390  11.308   5.436  10.635
26966W        W99391  23.704  44.879   1.754
26967W        W99392  30.002  36.567   4.668
26968W        W99393   4.706  40.853  12.923
26969W        W99394  18.138  25.979   0.407
26970W        W99395   1.261   0.893   1.805
26971W        W99396  41.526   2.472   1.827
26972W        W99397  10.797  33.916   1.902
26973W        W99398  21.703  12.129  14.295
26974W        W99399  35.528  34.079  10.935
26975W        W99400  38.443   3.307  13.885
26976W        W99401  22.567  33.387  10.960
26977W        W99402   6.821  12.747   4.602
26978W        W99403  36.930   7.689   3.356
26979W        W99404   8.264  23.078   1.778
26980W        W99405  36.926  37.450   2.221
26981W        W99406  25.675  40.458   3.291
26982W        W99407   6.705  14.768  10.600
26983W        W99408  13.338  39.509   1.257
26984W        W99409  12.824  20.593   0.414
26985W        W99410  13.817  29.066   2.832
26986W        W99411  15.760  17.066   5.133
26987W        W99412   1.361  17.096  13.951
26988W        W99413  34.578  21.514  11.384
26989W        W99414   7.309  16.309  11.516
26990W        W99415  11.207   8.714  12.489
26991W        W99416   5.877  14.797   0.898
26992W        W99417  25.540  37.581   3.338
26993W        W99418  18.287   4.399   1.258
26994W        W99419  22.545  15.241   4.675
26995W        W99420  19.596   2.264   2.798
26996W        W99421  28.175  21.663  12.073
26997W        W99422  38.442  21.608   3.749
26998W        W99423  44.362  30.657  13.870
26999W        W99424   6.722  14.206  11.401
27000W        W99425  38.988  38.046  10.630
27001W        W99426  18.717  12.210   4.209
27002W        W99427  22.102  16.703  11.878
27003W        W99428  44.505  28.484  12.395
27004W        W99429  16.271  44.919   3.259
27005W        W99430  23.140   9.369  12.904
27006W        W99431  42.322  10.216   0.309
27007W        W99432  14.333  29.165   3.836
27008W        W99433  20.547  13.803   3.666
27009W        W99434  36.475  38.331  14.451
27010W        W99435   0.407  19.061  14.018
27011W        W99436   9.309  25.119   4.147
27012W        W99437  24.140  20.756  13.932
27013W        W99438  17.297  30.430  12.935
27014W        W99439  23.660  28.122  10.989
27015W        W99440  42.451  21.572  12.843
27016W        W99441  34.381  40.431   0.471
27017W        W99442  35.390  23.733   4.629
27018W        W99443  26.063  19.158  14.850
27019W        W99444  27.475   7.862   1.836
27020W        W99445  30.108   2.835  14.966
27021W        W99446   1.353  33.007   4.244
27022W        W99447  40.940  36.978   0.867
27023W        W99448  44.969  39.878  13.414
27024W        W99449  17.077  12.775   1.299
27025W        W99450   7.393  24.097  13.443
27026W        W99451  15.623   9.664   1.245
27027W        W99452   9.150  10.351   2.216
27028W        W99453  37.931  20.260   4.155
27029W        W99454  37.071  19.702  11.984
27030W        W99455  21.715   1.973  13.890
27031W        W99456  18.225  26.178  10.618
27032W        W99457  40.014  39.941  13.418
27033W        W99458  14.813  30.017   1.891
27034W        W99459  29.972  16.765   2.662
27035W        W99460   9.224   5.276   2.209
27036W        W99461  35.957  33.549   3.215
27037W        W99462  22.122   6.271  13.384
27038W        W99463  40.919  17.121  13.970
27039W        W99464  41.900  29.497  14.016
27040W        W99465   5.383  20.732  14.402
27041W        W99466  27.119  40.468   3.263
27042W        W99467  38.859  44.845   3.264
27043W        W99468  24.719  16.686  11.014
27044W        W99469  16.304  39.878  11.067
27045W        W99470  29.480  38.027  10.495
27046W        W99471   9.358  44.503  12.944
27047W        W99472  25.987  12.787  10.890
27048W        W99473  42.343  25.018   2.769
27049W        W99474  29.137  12.624   1.796
27050W        W99475   2.382   6.207   4.190
27051W        W99476   5.359  31.956   0.279
27052W        W99477  11.784  17.569   4.651
27053W        W99478  41.475  29.571  11.112
27054W        W99479  23.537  40.902  13.981
27055W        W99480  17.586   6.284  11.979
27056W        W99481  43.452  25.680  10.404
27057W        W99482  31.608  41.021   1.384
27058W        W99483   2.380  32.433   4.726
27059W        W99484   1.353  28.607   4.166
27060W        W99485  34.380   9.239  12.463
27061W        W99486  25.655  41.401   2.752
27062W        W99487  20.742  24.654  10.897
27063W        W99488   1.794  32.540   0.756
27064W        W99489  12.307   5.387  14.301
27065W        W99490  43.867   8.216  14.408
27066W        W99491  22.688  11.285  14.941
27067W        W99492  37.084   5.202  13.532
27068W        W99493  28.018   4.729   2.333
27069W        W99494  18.280  39.461   3.730
27070W        W99495  24.713  23.594  12.947
27071W        W99496  31.509  20.751   2.736
27072W        W99497  14.793  41.530  12.095
27073W        W99498  12.749   5.870   2.735
27074W        W99499   9.359  21.636   2.838
27075W        W99500  36.031   0.367  14.968
27076W        W99501  29.947  44.876   0.958
27077W        W99502  39.373   0.968   1.793
27078W        W99503  10.633  28.065   0.344
27079W        W99504  32.610  39.486  13.993
27080W        W99505  43.403  36.972  10.491
27081W        W99506  33.466  35.438   9.922
27082W        W99507  31.083  11.177  10.555
27083W        W99508  10.799  30.918  11.575
27084W        W99509   4.914  15.620  12.419
27085W        W99510  25.713  36.901   4.294
27086W        W99511  43.944  13.224  13.035
27087W        W99512  42.310   5.291   3.739
27088W        W99513  35.387   8.827   4.709
27089W        W99514   2.454  26.523  10.909
27090W        W99515  18.590   4.296  10.591
27091W        W99516   2.424  39.915   4.628
27092W        W99517  16.768  41.463   1.704
27093W        W99518  34.466  20.138  14.333
27094W        W99519  37.362   4.205   4.798
27095W        W99520  20.649  18.694  12.037
27096W        W99521  20.135  20.038  13.970
27097W        W99522   1.839  28.185   1.314
27098W        W99523  41.414  17.225   2.705
27099W        W99524   5.400  13.801   3.768
27100W        W99525  32.627   8.701   3.351
27101W        W99526  41.499  26.062   1.829
27102W        W99527  44.351  32.592   9.988
27103W        W99528   5.390  13.303   4.615
27104W        W99529  13.843  17.796  11.080
27105W        W99530  37.933   3.452   1.292
27106W        W99531  21.624  43.440  10.584
27107W        W99532  16.167  18.678  11.398
27108W        W99533  42.447  13.782  14.835
27109W        W99534  27.564  23.643  11.590
27110W        W99535  37.034  15.236   2.228
27111W        W99536   2.460  29.569  12.576
27112W        W99537  19.642  16.697   4.212
27113W        W99538  13.281  41.335  13.952
27114W        W99539  33.036  26.572  12.987
27115W        W99540   7.678   7.697   2.696
27116W        W99541  17.567   0.430  13.538
27117W        W99542  21.614  41.873   3.770
27118W        W99543  15.819   8.286   2.246
27119W        W99544  27.587  19.082  12.943
27120W        W99545  23.236  22.551  12.905
27121W        W99546  15.820  21.142  11.998
27122W        W99547  33.886   9.872   2.667
27123W        W99548  36.501  35.386   3.743
27124W        W99549  32.561  32.105   2.385
27125W        W99550  26.172  38.387   3.698
27126W        W99551  39.988  40.392   1.864
27127W        W99552   7.869  43.974   0.730
27128W        W99553   2.769  39.384   3.331
27129W        W99554   5.739   2.357  10.892
27130W        W99555   1.400  24.586  14.482
27131W        W99556  40.955  14.246  11.022
27132W        W99557  20.729  15.159   3.210
27133W        W99558  25.090  13.736  12.976
27134W        W99559  10.850  12.735  13.810
27135W        W99560  12.661   0.889  10.494
27136W        W99561  11.866   4.388   4.182
27137W        W99562  22.740  25.473  11.522
27138W        W99563  33.414   8.834  11.965
27139W        W99564   0.292   9.324   3.319
27140W        W99565  16.243  21.058   3.198
27141W        W99566  41.040  25.644  10.458
27142W        W99567  44.471  37.053   1.879
27143W        W99568  31.431   5.399  14.312
27144W        W99569  36.448   3.397  10.415
27145W        W99570   9.828  36.555   3.730
27146W        W99571  42.362   1.290  12.997
27147W        W99572  38.429   5.374  11.886
27148W        W99573   6.356  30.980  10.598
27149W        W99574   1.778   0.398   0.368
27150W        W99575  34.411  17.710   0.742
27151W        W99576   0.885  43.809   2.884
27152W        W99577  44.382  30.443   4.295
27153W        W99578  25.560  41.358  12.956
27154W        W99579  31.039  21.227   5.196
27155W        W99580  44.411   3.944   1.237
27156W        W99581  13.227   1.779   1.863
27157W        W99582  39.985   0.371  11.380
27158W        W99583   0.805  14.179   2.744
27159W        W99584  25.112  36.476   3.748
27160W        W99585  31.489   1.356  10.494
27161W        W99586  44.809  33.080   3.829
27162W        W99587   4.770  10.305  12.013
27163W        W99588   0.862  16.248   0.478
27164W        W99589  42.422  32.984   3.786
27165W        W99590  25.048  11.299  13.518
27166W        W99591  23.118  31.106  10.505
27167W        W99592   8.381  38.528  13.313
27168W        W99593  39.880  35.973  11.108
27169W        W99594  15.788  13.712   1.440
27170W        W99595  34.502  25.002   4.815
27171W        W99596  36.893  15.252  11.549
27172W        W99597  10.652  35.480  12.968
27173W        W99598   7.219  24.115   1.301
27174W        W99599  11.715  38.416   4.635
27175W        W99600  34.370   8.764   2.332
27176W        W99601  22.198  31.997   0.877
27177W        W99602  20.725   5.818   3.698
27178W        W99603  35.588  30.453  14.852
27179W        W99604   1.750   1.351   1.227
27180W        W99605   1.366  16.105   2.194
27181W        W99606  35.588  34.476   0.916
27182W        W99607  10.380  23.641   4.279
27183W        W99608  13.224  21.583  12.056
27184W        W99609  20.223  10.154  13.941
27185W        W99610  20.674  30.969   3.324
27186W        W99611  21.017  16.651  14.916
27187W        W99612  29.167  32.982  12.837
27188W        W99613  32.035  31.586  13.463
27189W        W99614   7.178  34.977   5.626
27190W        W99615  40.431  10.197  13.919
27191W        W99616  12.324  10.716   0.265
27192W        W99617  41.947  25.561  13.055
27193W        W99618  19.279  43.283  11.051
27194W        W99619  43.974  17.789  14.335
27195W        W99620  44.781  11.324  11.446
27196W        W99621  28.525  18.647  14.763
27197W        W99622  10.269  33.886   3.700
27198W        W99623  25.692  31.020  10.443
27199W        W99624   4.435  23.000  14.392
27200W        W99625  40.028  25.973  13.989
27201W        W99626  36.079  34.558  11.038
27202W        W99627  15.285  24.117  12.559
27203W        W99628  18.787  37.058   2.878
27204W        W99629  42.829  26.059   3.300
27205W        W99630  26.057   4.701  14.290
27206W        W99631  20.613  40.340   2.349
27207W        W99632  41.339  29.060  14.443
27208W        W99633  11.150  15.274  13.914
27209W        W99634  28.648  24.064   3.795
27210W        W99635  36.961  40.963   4.616
27211W        W99636  35.904  24.600   2.363
27212W        W99637  14.155  30.508   1.387
27213W        W99638  41.863  37.364   9.966
27214W        W99639   5.318  27.114   0.399
27215W        W99640  33.539  25.149   0.428
27216W        W99641  12.642  12.253  11.572
27217W        W99642  36.976  18.105   4.712
27218W        W99643  17.090  34.975   5.172
27219W        W99644  36.888  21.568  12.071
27220W        W99645  15.700  30.436  12.039
27221W        W99646   1.885  44.999  13.367
27222W        W99647  19.221  37.983   3.763
27223W        W99648   8.323   7.220  10.102
27224W        W99649  36.959  44.505   0.804
27225W        W99650  43.313   3.927  12.887
27226W        W99651  27.015  11.319  13.046
27227W        W99652  39.465  11.865   2.313
27228W        W99653  29.070   6.318  14.834
27229W        W99654   3.926  27.486   3.718
27230W        W99655  37.952  29.066   1.779
27231W        W99656  27.670  42.784  12.051
27232W        W99657   2.884  14.747   1.254
27233W        W99658  14.161  40.000  11.017
27234W        W99659  11.833   0.969  14.433
27235W        W99660  16.630  15.798  14.772
27236W        W99661  35.086  21.642   0.784
27237W        W99662  28.082  36.433   2.342
27238W        W99663  17.589   4.714   2.725
27239W        W99664   1.760  10.875   4.738
27240W        W99665  19.711   3.808  11.537
27241W        W99666  42.843  31.626  12.561
27242W        W99667   3.770  16.127  10.984
27243W        W99668   8.843   0.315   1.240
27244W        W99669   0.410  40.353   4.780
27245W        W99670  33.523  19.060   3.702
27246W        W99671  28.015  36.440   3.232
27247W        W99672  30.027  37.878   3.791
27248W        W99673  42.386   4.355   0.815
27249W        W99674  34.424  27.969  10.421
27250W        W99675   7.733  24.528  11.960
27251W        W99676  42.523  35.882   4.692
27252W        W99677  23.121  36.588  10.505
27253W        W99678  40.481   2.235   2.828
27254W        W99679  16.735  13.254  11.478
27255W        W99680  20.066   8.788   5.204
27256W        W99681  44.408   5.312   3.158
27257W        W99682  31.478  12.839  12.993
27258W        W99683  27.523  13.770  10.483
27259W        W99684  12.189  24.667  13.534
27260W        W99685   9.833  30.491  10.540
27261W        W99686  39.378   0.759   0.442
27262W        W99687  29.617  29.059  13.868
27263W        W99688  27.149  11.266   4.599
27264W        W99689   1.940  30.519  11.939
27265W        W99690  39.458   7.268  14.490
27266W        W99691  17.662  12.615   1.696
27267W        W99692  31.989  21.645   4.341
27268W        W99693  39.968   8.355  12.057
27269W        W99694  41.035  12.726   3.251
27270W        W99695  11.788  23.022   9.660
27271W        W99696  21.532   9.868  10.887
27272W        W99697   0.277  17.692  13.010
27273W        W99698  42.523  36.550  11.582
27274W        W99699   5.347  40.924   1.295
27275W        W99700  37.356  37.842  10.551
27276W        W99701  44.913  33.421  12.528
27277W        W99702  29.614   8.232  13.977
27278W        W99703  28.158  43.335   2.803
27279W        W99704  31.969   6.245   0.472
27280W        W99705  17.193  14.805   3.298
27281W        W99706  28.627  43.799  13.325
27282W        W99707   1.922  41.988   4.181
27283W        W99708  17.801   3.248  10.428
27284W        W99709   9.776  15.176  12.042
27285W        W99710  38.432  42.320  10.978
27286W        W99711  41.483  38.843   2.178
27287W        W99712  34.893  26.557  11.023
27288W        W99713  19.729  42.923  12.433
27289W        W99714  30.548  31.635  14.510
27290W        W99715   3.844  10.340  14.357
27291W        W99716  32.022   4.447   3.173
27292W        W99717  43.888  29.571   4.694
27293W        W99718  16.612  25.119  12.360
27294W        W99719  44.797   8.702   2.318
27295W        W99720  33.571  41.365   2.688
27296W        W99721  16.641  38.025  10.414
27297W        W99722  34.878  21.612   2.724
27298W        W99723  41.998  16.686  11.527
27299W        W99724  34.093  10.267   3.667
27300W        W99725  39.503   4.895   2.751
27301W        W99726  39.318  15.608   3.370
27302W        W99727   3.280  17.187  10.934
27303W        W99728   9.199  36.349  10.996
27304W        W99729  11.161  33.893   2.870
27305W        W99730  28.144  39.979   0.244
27306W        W99731  28.572   5.305   3.311
27307W        W99732  27.643   1.256   3.253
27308W        W99733  41.814  19.118   3.342
27309W        W99734   5.250  38.407   4.836
27310W        W99735  43.967  41.005   4.264
27311W        W99736  24.551  43.344   0.305
27312W        W99737  16.627  21.600  12.533
27313W        W99738  26.062  24.069   1.244
27314W        W99739  26.484  34.962   3.326
27315W        W99740  14.627  34.057   3.745
27316W        W99741  17.109  36.433   1.408
27317W        W99742  24.571  34.972  14.423
27318W        W99743  16.275  18.698   4.744
27319W        W99744   2.789  20.066   4.772
27320W        W99745  17.795  22.122  14.364
27321W        W99746  28.452  11.841   0.266
27322W        W99747  42.288  10.285   2.259
27323W        W99748  20.202  44.461   1.825
27324W        W99749   4.764   6.763  10.593
27325W        W99750   6.403   5.866   2.307
27326W        W99751  41.480  29.584   1.447
27327W        W99752  19.066   0.864  12.002
27328W        W99753  27.658  40.884   2.247
27329W        W99754  20.524   3.288  12.439
27330W        W99755  14.336  24.585  10.547
27331W        W99756  37.020  17.706  13.514
27332W        W99757   0.348   4.249   1.696
27333W        W99758   6.182  44.878   2.403
27334W        W99759  31.483  27.612   3.696
27335W        W99760   3.381  44.866  11.532
27336W        W99761  24.502   0.483  14.474
27337W        W99762  44.499  22.211  14.406
27338W        W99763  36.041   3.251   4.218
27339W        W99764  13.811  21.524   0.329
27340W        W99765   7.705  16.220  14.882
27341W        W99766   1.911  38.340  14.825
27342W        W99767   5.246  14.754  11.027
27343W        W99768   3.351   9.754   4.641
27344W        W99769  31.541  19.690   4.145
27345W        W99770   2.403   4.232  13.831
27346W        W99771  38.363   3.417   2.364
27347W        W99772  17.071  34.492   4.301
27348W        W99773   6.399  31.494  13.501
27349W        W99774  21.249  44.374  10.934
27350W        W99775  36.877  16.316   3.781
27351W        W99776  16.221  27.962   2.799
27352W        W99777  24.001  40.997   4.686
27353W        W99778  22.098   7.416   0.312
27354W        W99779  21.027  12.634  10.452
27355W        W99780  44.841  17.207  13.961
27356W        W99781  38.514   9.672  14.936
27357W        W99782  29.120  16.766   1.251
27358W        W99783  20.227  34.045   1.277
27359W        W99784  21.522  30.016   2.878
27360W        W99785  39.823   9.230  12.382
27361W        W99786  35.403  18.734   0.910
27362W        W99787  43.466  38.000   4.250
27363W        W99788  32.125  23.678   4.184
27364W        W99789   4.926  29.589   4.162
27365W        W99790   9.838  31.100  11.583
27366W        W99791   3.870  18.746  11.458
27367W        W99792  32.892   9.765   2.827
27368W        W99793  18.191  43.811   1.709
27369W        W99794   7.302  34.116  12.343
27370W        W99795  36.055   8.162   0.379
27371W        W99796  18.687  25.038   3.183
27372W        W99797  16.310  11.664   0.739
27373W        W99798   9.809   9.321   9.671
27374W        W99799   5.888  37.998   3.157
27375W        W99800  19.636  27.688   4.292
27376W        W99801   8.817  39.953  14.293
27377W        W99802  24.173  16.150  11.519
27378W        W99803  28.505   7.372   3.211
27379W        W99804  43.820   6.386  10.947
27380W        W99805  35.500  18.681   4.347
27381W        W99806  33.584  43.345   2.375
27382W        W99807   0.401  12.637  14.354
27383W        W99808  19.588   4.900  12.409
27384W        W99809   7.394  32.437   2.331
27385W        W99810  19.216  26.132   4.230
27386W        W99811  17.071  28.603   2.806
27387W        W99812   2.762  44.894  13.032
27388W        W99813  20.175   4.783   0.399
27389W        W99814  25.097  17.096  12.075
27390W        W99815  11.850  40.884  14.896
27391W        W99816  29.968  44.374   1.442
27392W        W99817  38.558   7.409  13.991
27393W        W99818  13.758   1.302  14.956
27394W        W99819   5.795  20.166  13.951
27395W        W99820  28.940  37.555   1.445
27396W        W99821  33.441  11.642  14.325
27397W        W99822  28.031   4.418  13.848
27398W        W99823   2.943   4.897  14.351
27399W        W99824  28.168  18.572   0.766
27400W        W99825   4.291   3.753   4.776
27401W        W99826  39.983  27.100   1.296
27402W        W99827  38.361  44.372  11.500
27403W        W99828  27.579  19.702   4.327
27404W        W99829   5.334  33.107   1.300
27405W        W99830  19.719  30.533  12.380
27406W        W99831  37.500   3.386  12.919
27407W        W99832   9.294   5.726   0.242
27408W        W99833  38.991  15.705  11.976
27409W        W99834  32.413  24.214   0.366
27410W        W99835   9.768  20.172  13.873
27411W        W99836  43.878  30.915  11.951
27412W        W99837   8.668   2.823   1.227
27413W        W99838  40.472   6.206   4.139
27414W        W99839  43.329   0.408   4.706
27415W        W99840  40.856  18.210  12.845
27416W        W99841  15.309  13.785   1.349
27417W        W99842  11.249  29.143   0.737
27418W        W99843  19.140  26.058  13.025
27419W        W99844  44.358   4.295  14.292
27420W        W99845  43.426   0.251  14.928
27421W        W99846  44.949  43.380  10.996
27422W        W99847  28.516   4.264   3.848
27423W        W99848  14.753  14.726   2.819
27424W        W99849  39.468  30.007  14.889
27425W        W99850   0.481  19.567  13.916
27426W        W99851  40.815   3.251   2.247
27427W        W99852  24.640  36.058   1.741
27428W        W99853  27.679  13.173   1.451
27429W        W99854  38.417   7.692   2.298
27430W        W99855  21.621  14.706  11.467
27431W        W99856  17.628  23.987  13.387
27432W        W99857  40.965  40.960   0.730
27433W        W99858  43.333  30.155  13.045
27434W        W99859   9.331  34.446  10.541
27435W        W99860  38.902  19.648  12.068
27436W        W99861  35.886  24.559   5.096
27437W        W99862  19.598   8.745   2.873
27438W        W99863  12.640  19.222  11.080
27439W        W99864   1.951  30.140  10.427
27440W        W99865  33.027  21.697  12.854
27441W        W99866  17.290  24.503   0.456
27442W        W99867  40.908  41.399  10.643
27443W        W99868  10.712  30.144   3.161
27444W        W99869   4.883  21.117  14.786
27445W        W99870  21.720  17.105  11.427
27446W        W99871  11.253  26.201   2.249
27447W        W99872  39.828  14.777  13.054
27448W        W99873  10.274  27.069  13.914
27449W        W99874  42.437  21.605  13.431
27450W        W99875  44.274  42.944   9.936
27451W        W99876  20.670  24.631  11.480
27452W        W99877  20.568  20.653   3.216
27453W        W99878  43.853  11.642   0.416
27454W        W99879  31.594  26.628  11.436
27455W        W99880  15.315  13.161  10.628
27456W        W99881   4.235  18.067  13.987
27457W        W99882   3.267  43.314   4.749
27458W        W99883  40.325  23.994  10.616
27459W        W99884  35.570  33.988  12.394
27460W        W99885  22.654   6.267   1.740
27461W        W99886   0.473   9.731   2.387
27462W        W99887  18.636  39.002   4.124
27463W        W99888  13.658  27.597   2.178
27464W        W99889   3.298  10.190   0.410
27465W        W99890  43.955  35.015  13.360
27466W        W99891  24.080   8.345   3.194
27467W        W99892   0.862   6.799  14.962
27468W        W99893   6.284   4.221  12.529
27469W        W99894  10.256  30.011  10.460
27470W        W99895  13.148  31.098   0.372
27471W        W99896  23.717  28.536  11.468
27472W        W99897  19.718  31.511   4.760
27473W        W99898  23.059   8.719  14.906
27474W        W99899  14.271  22.665   2.233
27475W        W99900  43.861  17.299  14.489
27476W        W99901  28.101   0.403  14.471
27477W        W99902  28.001  30.954   3.672
27478W        W99903   2.430   3.727  11.396
27479W        W99904  37.527  43.855   0.784
27480W        W99905   3.851   3.344   0.332
27481W        W99906  44.455  30.038  14.330
27482W        W99907  23.156  10.716   4.718
27483W        W99908  24.066  17.581   1.898
27484W        W99909  44.947   5.360   0.957
27485W        W99910  30.559   6.729  12.929
27486W        W99911  26.964  34.937   1.840
27487W        W99912  20.052  14.769  14.793
27488W        W99913  27.537  19.567  10.987
27489W        W99914  29.961  14.286   0.429
27490W        W99915  21.049  37.504   4.261
27491W        W99916  35.411   4.712  12.358
27492W        W99917  37.051  33.977   1.372
27493W        W99918   8.214  15.089  10.631
27494W        W99919  14.596  35.429   0.893
27495W        W99920  16.635  34.597   3.701
27496W        W99921  23.682  25.641   3.703
27497W        W99922  42.992  40.406   4.730
27498W        W99923  35.603  27.001   0.841
27499W        W99924  17.629   4.799  10.004
27500W        W99925  20.045  11.255   2.238
27501W        W99926  20.098  22.574  11.512
27502W        W99927  41.982   5.298   4.284
27503W        W99928  11.372  12.774  12.574
27504W        W99929  19.157  39.355  13.498
27505W        W99930  42.894   5.367   4.761
27506W        W99931  34.992  42.372   1.912
27507W        W99932  16.201  31.092  11.912
27508W        W99933   9.744  32.626   0.828
27509W        W99934  17.702   5.899   1.254
27510W        W99935  26.161  16.226  11.453
27511W        W99936  23.092  43.501  13.025
27512W        W99937  25.679  19.160  13.363
27513W        W99938  43.386  16.217   0.818
27514W        W99939  29.462  24.539   0.738
27515W        W99940  11.189  41.294   1.863
27516W        W99941  43.976  22.067  11.889
27517W        W99942  41.292  21.207   3.300
27518W        W99943  29.030  22.670  14.405
27519W        W99944  28.077  40.036   2.244
27520W        W99945  43.280   4.929   2.734
27521W        W99946   1.293   4.777   2.771
27522W        W99947  43.798  25.213  13.976
27523W        W99948  10.240  23.122  10.541
27524W        W99949  29.554   8.669  12.382
27525W        W99950  34.984  38.378   2.399
27526W        W99951   3.397   4.342   1.262
27527W        W99952  34.461   6.864   0.766
27528W        W99953   6.357  37.085  11.452
27529W        W99954   7.875  28.020   0.274
27530W        W99955  18.258  25.017   0.462
27531W        W99956   8.344  32.017  11.099
27532W        W99957  35.517  27.542  14.027
27533W        W99958  30.532  40.025   4.800
27534W        W99959  34.870  17.786  13.955
27535W        W99960  39.896  40.451   2.798
27536W        W99961  44.872   0.338   3.666
27537W        W99962  40.359  29.106   4.829
27538W        W99963   7.318  37.077   2.696
27539W        W99964   9.381  35.446   3.714
27540W        W99965   5.383  31.012   4.351
27541W        W99966  33.412   3.937   2.709
27542W        W99967  41.507  31.470  13.999
27543W        W99968  16.275  25.982  12.093
27544W        W99969  26.129  44.851   4.794
27545W        W99970  28.562  24.550  10.599
27546W        W99971  28.470  15.650   3.208
27547W        W99972   4.734  29.145   2.380
27548W        W99973  24.005  19.221  11.525
27549W        W99974  29.948   4.300   2.855
27550W        W99975  10.168  29.660  11.406
27551W        W99976  28.154  16.763  12.907
27552W        W99977  44.310  36.543  12.091
27553W        W99978   0.850  40.435   0.281
27554W        W99979  34.001   4.894  10.488
27555W        W99980  25.029  36.854  13.007
27556W        W99981  32.535  25.634   3.154
27557W        W99982   3.866  41.960  13.966
27558W        W99983  43.273  32.924   2.304
27559W        W99984  36.079   0.262  12.510
27560W        W99985  43.951  31.638  11.525
27561W        W99986   0.910  25.700   2.797
27562W        W99987  11.184  14.326   3.344
27563W        W99988  43.440  26.018   3.691
27564W        W99989  34.502  42.933  13.031
27565W        W99990  25.550   9.273   3.780
27566W        W99991  30.035  26.030   4.263
27567W        W99992  39.023  29.443  12.394
27568W        W99993  22.189  34.442  11.440
27569W        W99994  21.019  18.132   0.791
27570W        W99995  23.560   9.189   0.401
27571W        W99996   8.891   9.843   1.918
27572W        W99997  23.586  44.994  12.989
27573W        W99998  17.165   1.970  13.426
27574W        W99999   1.321  17.697   3.803
27575W        W    0   4.774  31.140  13.049
27576W        W    1  13.788   8.743   4.600
27577W        W    2  21.655  31.607  12.460
27578W        W    3   1.812  36.481  14.358
27579W        W    4  31.443  23.229   2.375
27580W        W    5  29.981   6.332  11.573
27581W        W    6  24.142  13.327   4.728
27582W        W    7  27.129  39.016   4.240
27583W        W    8  21.236  16.724   1.252
27584W        W    9  20.064  37.461  12.885
27585W        W   10  10.707  32.579   0.846
27586W        W   11   4.404   3.407  11.041
27587W        W   12   7.824   3.394   2.746
27588W        W   13  41.299  10.661   4.204
27589W        W   14  22.657  32.025  13.932
27590W        W   15   8.744   7.869  13.308
27591W        W   16  38.943  12.156  12.446
27592W        W   17  19.285   5.730   3.867
27593W        W   18  31.538  36.009  14.465
27594W        W   19   9.881  38.898   3.636
27595W        W   20  35.933  28.551   4.329
27596W        W   21  20.063  26.663   3.235
27597W        W   22  18.675  20.636  11.522
27598W        W   23  20.126  18.184  12.870
27599W        W   24  39.905  34.385  11.867
27600W        W   25  14.758  43.292   1.409
27601W        W   26  18.704  41.345   4.831
27602W        W   27   9.771  10.344   4.140
27603W        W   28  28.523   0.301  13.008
27604W        W   29  38.374   9.318   0.963
27605W        W   30  19.161  18.558   2.329
27606W        W   31  40.343  11.195  10.969
27607W        W   32   5.393   7.381   2.345
27608W        W   33  16.703  13.318   2.378
27609W        W   34   3.448  12.722  14.338
27610W        W   35   4.362  17.126  10.476
27611W        W   36   6.877  40.877   1.426
27612W        W   37  35.917   7.280   0.469
27613W        W   38  20.663  16.721   4.295
27614W        W   39  15.692  16.771  10.463
27615W        W   40  13.319  11.254   0.281
27616W        W   41  33.948  26.634   1.355
27617W        W   42  15.716  43.911   0.800
27618W        W   43  26.500  13.718   4.751
27619W        W   44   4.439  31.512   3.251
27620W        W   45  22.126   7.761   1.323
27621W        W   46  12.145   6.808  11.126
27622W        W   47   7.906  29.537   3.812
27623W        W   48   9.730   6.700   0.484
27624W        W   49   0.856  17.630   4.768
27625W        W   50  44.268   2.914   2.356
27626W        W   51  43.301  23.032   0.305
27627W        W   52  39.030   6.234  11.108
27628W        W   53  36.367  31.913   3.369
27629W        W   54   1.411  35.899  14.763
27630W        W   55  18.202  36.066  14.393
27631W        W   56  44.891  11.203   2.306
27632W        W   57  13.332  28.627  13.822
27633W        W   58  13.809  21.185  11.607
27634W        W   59  26.600  29.951   3.266
27635W        W   60  16.768   0.414  14.856
27636W        W   61  37.041  21.192   0.732
27637W        W   62  29.102  25.063   0.300
27638W        W   63  36.550  25.987  12.950
27639W        W   64  27.450  43.275   1.874
27640W        W   65  41.486  31.602   2.815
27641W        W   66  28.434  31.446   0.910
27642W        W   67  16.658  29.997   3.785
27643W        W   68   6.681  12.172   0.870
27644W        W   69  40.527   1.256   1.427
27645W        W   70  35.446  35.412   2.832
27646W        W   71  41.432  36.582   4.778
27647W        W   72  21.700  25.509   2.252
27648W        W   73  36.010   3.822  10.509
27649W        W   74   4.738  37.951   4.699
27650W        W   75   2.941   3.736  10.455
27651W        W   76  26.524  25.155   2.388
27652W        W   77  30.499   3.862   3.151
27653W        W   78  12.657  19.707  12.418
27654W        W   79  36.513  35.461   3.203
27655W        W   80  25.553   8.402   4.680
27656W        W   81  33.981  20.619   3.328
27657W        W   82  11.627  11.217  13.872
27658W        W   83   1.373  15.199   2.865
27659W        W   84  20.755   3.343   2.252
27660W        W   85  12.738   7.710   0.419
27661W        W   86  29.117  33.995  14.434
27662W        W   87  11.281  14.129  13.494
27663W        W   88   6.732  24.087  13.842
27664W        W   89  43.880  20.741  10.439
27665W        W   90  12.665  26.168   0.255
27666W        W   91  15.774  30.419   0.862
27667W        W   92  26.701  27.154  10.922
27668W        W   93   7.903  20.615   2.254
27669W        W   94  33.403  15.325   1.275
27670W        W   95  16.713  32.392   1.339
27671W        W   96  20.239  16.203   0.314
27672W        W   97  29.976  23.580   2.704
27673W        W   98  34.014   4.881   2.883
27674W        W   99  17.231  16.095  13.529
27675W        W  100   2.939  40.309  13.025
27676W        W  101  33.089  31.445  14.450
27677W        W  102  43.494  20.239  11.952
27678W        W  103  44.844  37.972  14.346
27679W        W  104   9.885   5.814  11.442
27680W        W  105  15.587  35.025  12.578
27681W        W  106  29.510  42.509  11.108
27682W        W  107  25.967  19.212  13.487
27683W        W  108  38.344  21.236  11.892
27684W        W  109  21.515  41.007  11.895
27685W        W  110  36.007  34.893   1.322
27686W        W  111  25.486   7.874  12.852
27687W        W  112  19.764  39.447  12.844
27688W        W  113  36.445  14.830   0.247
27689W        W  114  23.589  25.694  10.943
27690W        W  115  18.647   8.714   0.262
27691W        W  116  18.292  35.504  10.507
27692W        W  117  14.718  20.256   1.761
27693W        W  118  35.958  41.975  11.612
27694W        W  119   5.200  12.291   0.457
27695W        W  120  31.082  35.498   3.843
27696W        W  121  20.725   3.318   0.870
27697W        W  122  35.370  35.461   3.674
27698W        W  123  23.096  32.487   0.921
27699W        W  124  17.744  10.172   3.293
27700W        W  125   8.782  28.070   5.143
27701W        W  126  37.845  18.636   4.249
27702W        W  127  14.166   1.731  12.415
27703W        W  128  33.100  21.229   4.673
27704W        W  129   8.736  41.856  11.582
27705W        W  130  23.048  33.108   2.761
27706W        W  131   2.366  20.597  13.030
27707W        W  132  15.671   1.737   0.310
27708W        W  133  43.773  31.470   3.209
27709W        W  134  13.807  19.594   0.372
27710W        W  135  35.041  37.987   2.806
27711W        W  136  42.286  31.017  14.014
27712W        W  137  32.056  31.590  11.549
27713W        W  138  31.644  33.523  14.770
27714W        W  139  42.848  24.503   2.778
27715W        W  140  34.863   4.834  10.889
27716W        W  141  11.696   4.924  12.041
27717W        W  142  13.308  42.489  11.431
27718W        W  143   9.662  38.919  13.402
27719W        W  144  14.214  29.478   3.761
27720W        W  145  44.464  16.622  14.928
27721W        W  146  38.985  39.326  13.919
27722W        W  147  35.374  37.991  10.986
27723W        W  148  40.951  44.358   5.133
27724W        W  149  14.179  43.398   4.667
27725W        W  150  24.986   6.720  10.530
27726W        W  151   9.365  20.245  12.410
27727W        W  152  19.185  29.151   4.275
27728W        W  153   7.821   4.819  11.550
27729W        W  154  36.931  16.082   0.253
27730W        W  155  28.135  38.857   0.410
27731W        W  156  38.935  36.868  11.513
27732W        W  157  44.876  39.373   2.897
27733W        W  158  36.490  13.263  13.866
27734W        W  159   5.279  11.373   0.764
27735W        W  160  15.292  18.705  10.621
27736W        W  161  29.445  19.750  13.886
27737W        W  162  17.190  24.156   4.608
27738W        W  163   9.666  21.236   2.179
27739W        W  164  23.008  35.017  10.570
27740W        W  165  32.070  12.848   3.313
27741W        W  166   5.934   1.957  14.818
27742W        W  167  22.644  23.502  14.894
27743W        W  168  31.603  24.207   4.643
27744W        W  169  30.472  34.914  10.451
27745W        W  170  40.945  32.124  11.472
27746W        W  171  34.590  41.367   3.668
27747W        W  172  25.615  40.043   1.273
27748W        W  173  18.575  41.526   2.225
27749W        W  174  16.242  28.036   4.167
27750W        W  175  25.081  25.170  11.400
27751W        W  176  43.851  16.169   0.438
27752W        W  177  41.302   3.932   3.183
27753W        W  178  15.584  18.662  10.452
27754W        W  179  37.422  23.018   5.729
27755W        W  180   2.447   3.727  10.464
27756W        W  181  37.365   5.779   4.268
27757W        W  182   9.225  14.186   5.320
27758W        W  183   5.754  29.922  14.392
27759W        W  184  43.419  33.461  12.577
27760W        W  185  33.129   0.969   3.774
27761W        W  186  26.628   0.893  14.897
27762W        W  187   2.963  10.701  13.973
27763W        W  188  31.519  22.615   2.708
27764W        W  189  27.087  11.797   3.257
27765W        W  190  40.464  39.904  11.980
27766W        W  191  26.605  10.262  13.043
27767W        W  192  27.027  37.410   2.194
27768W        W  193  16.282  31.919  12.473
27769W        W  194  38.494  39.914  14.858
27770W        W  195  36.582  25.011  10.977
27771W        W  196  10.775  28.474   1.348
27772W        W  197  33.493  42.807   4.599
27773W        W  198   8.233  39.047   0.323
27774W        W  199  21.099  12.167   4.735
27775W        W  200   7.768  18.143  11.000
27776W        W  201   4.340  11.672   0.316
27777W        W  202  31.441  38.414  10.972
27778W        W  203  24.712   2.843   2.418
27779W        W  204  16.782  44.002   1.407
27780W        W  205  18.204  32.439   5.630
27781W        W  206   0.871  26.183  14.938
27782W        W  207  19.765  28.942  11.912
27783W        W  208  40.356  44.321   3.342
27784W        W  209  26.618   7.907  13.875
27785W        W  210  28.092  44.850   4.821
27786W        W  211  21.248   8.396   1.232
27787W        W  212  30.474  13.726  12.030
27788W        W  213  15.130   3.796   4.822
27789W        W  214  25.606   5.204   2.722
27790W        W  215  16.203  18.172  11.516
27791W        W  216  22.667  12.770   9.980
27792W        W  217  39.524   8.791  12.893
27793W        W  218  41.447  11.734  12.423
27794W        W  219  23.560  23.075   3.784
27795W        W  220  44.974  23.514  12.572
27796W        W  221  39.851  15.789   3.797
27797W        W  222   2.792  23.723   4.821
27798W        W  223  25.560  24.636  13.513
27799W        W  224  21.116  39.896   3.154
27800W        W  225   5.243  25.501   2.274
27801W        W  226  25.104   8.871  11.988
27802W        W  227  29.996   6.292   4.152
27803W        W  228  10.713  26.584   1.897
27804W        W  229  43.817  17.718  10.632
27805W        W  230  25.660  30.494   3.697
27806W        W  231  26.632  15.214   3.168
27807W        W  232  11.153  23.987   0.270
27808W        W  233   4.404  28.092   3.806
27809W        W  234  24.520  36.076   0.372
27810W        W  235   2.269   3.724   0.432
27811W        W  236  17.069  25.082  13.311
27812W        W  237  25.640  26.683   0.857
27813W        W  238  13.201  40.015  10.123
27814W        W  239  30.416  18.271   4.623
27815W        W  240  40.028  40.865  14.355
27816W        W  241  35.879  23.024   4.803
27817W        W  242  28.456  41.452   1.351
27818W        W  243  18.621   0.930   4.647
27819W        W  244   1.744  13.823   3.176
27820W        W  245  39.875  30.608  13.547
27821W        W  246   8.804  33.484   2.201
27822W        W  247   2.286  30.650  12.541
27823W        W  248  31.512  29.997   3.841
27824W        W  249  39.538  18.292  14.912
27825W        W  250  43.956  36.844  12.500
27826W        W  251   4.407   4.808   2.384
27827W        W  252  32.580   1.393  11.479
27828W        W  253  18.063  39.519   1.764
27829W        W  254   8.866  32.494  14.764
27830W        W  255  10.693  17.075  10.987
27831W        W  256  30.050  27.578  12.048
27832W        W  257  26.028  32.116   4.618
27833W        W  258   6.231   2.309   3.211
27834W        W  259  42.913  33.592   0.394
27835W        W  260  11.219   8.164  10.153
27836W        W  261  17.303   1.876  11.900
27837W        W  262  40.005  36.853   3.711
27838W        W  263  30.639  10.384   1.843
27839W        W  264   5.248  12.614   1.302
27840W        W  265  39.531  22.089   4.609
27841W        W  266  31.922   8.739  14.441
27842W        W  267   9.343   9.154   1.744
27843W        W  268   1.835  23.202  12.860
27844W        W  269  18.175   6.337   4.301
27845W        W  270  15.658   3.280   2.239
27846W        W  271   4.846  39.442  11.576
27847W        W  272  10.138  10.299  10.558
27848W        W  273  38.858  24.711  14.861
27849W        W  274   1.822  13.268  11.998
27850W        W  275  13.335   9.694  11.862
27851W        W  276   6.741   3.933  13.505
27852W        W  277  31.440   7.250   3.787
27853W        W  278  40.815  28.030  14.874
27854W        W  279  20.744  17.198   3.733
27855W        W  280   6.885  30.517   1.914
27856W        W  281  30.627  13.284   4.130
27857W        W  282  23.645  27.002  14.818
27858W        W  283  24.019  33.445  13.359
27859W        W  284  41.937  30.453   4.201
27860W        W  285  10.252  21.174   0.468
27861W        W  286  44.870  21.186   4.687
27862W        W  287   9.729   5.703   0.738
27863W        W  288  16.205  12.759  13.898
27864W        W  289  10.189  16.262  12.370
27865W        W  290  26.168  21.671  12.405
27866W        W  291  42.313  35.035  10.990
27867W        W  292  36.843  33.076   1.299
27868W        W  293  13.612  30.632   2.879
27869W        W  294  21.754   4.366   4.766
27870W        W  295   0.823  23.674  10.899
27871W        W  296  23.204  35.887   4.247
27872W        W  297  43.916   2.266  13.931
27873W        W  298  42.875  37.857  11.454
27874W        W  299  20.065  31.588   2.880
27875W        W  300  41.515  19.087  11.460
27876W        W  301  27.173   6.404   0.831
27877W        W  302   4.394  32.478   1.229
27878W        W  303  35.985  23.115  14.973
27879W        W  304  26.628  25.134  10.974
27880W        W  305  31.462  44.756  12.929
27881W        W  306   4.920  28.140   0.905
27882W        W  307   3.866  10.747   4.210
27883W        W  308  20.117  42.016  13.806
27884W        W  309  32.550  37.502   1.248
27885W        W  310  18.674  20.654  12.073
27886W        W  311  18.716  42.441  12.902
27887W        W  312  10.668  40.883   2.845
27888W        W  313  42.912  15.311  14.869
27889W        W  314   8.824  11.802  11.572
27890W        W  315   5.758   0.983  13.967
27891W        W  316   3.729  30.543   4.190
27892W        W  317   5.719  10.177  14.009
27893W        W  318   5.715  39.416  14.505
27894W        W  319  42.508  39.047  11.599
27895W        W  320   0.413   8.739   0.775
27896W        W  321   0.838  31.977  10.957
27897W        W  322  29.078  25.132   4.820
27898W        W  323  39.560  29.962   2.892
27899W        W  324  43.919  35.405  14.927
27900W        W  325  19.127   9.686  11.549
27901W        W  326  34.609  24.580  13.486
27902W        W  327  23.521   0.390   3.290
27903W        W  328   7.735   1.246  12.989
27904W        W  329   0.971  28.104  12.848
27905W        W  330  40.990   5.219   1.393
27906W        W  331   7.822  26.006   1.911
27907W        W  332   3.309   7.722  12.449
27908W        W  333  20.730  18.257  13.826
27909W        W  334  39.030   6.813  10.452
27910W        W  335  41.927  18.209   4.684
27911W        W  336  11.204  12.827  13.517
27912W        W  337   6.335  29.120  10.440
27913W        W  338  17.589   9.381   0.281
27914W        W  339  31.572  31.113  10.457
27915W        W  340  44.307  40.518   3.195
27916W        W  341  10.269  11.810   0.738
27917W        W  342  33.584  18.195  10.595
27918W        W  343  42.800  22.035  11.043
27919W        W  344   5.871  31.135  11.419
27920W        W  345   7.718   3.900   4.326
27921W        W  346  15.233  12.711  14.315
27922W        W  347  11.868  36.381   1.232
27923W        W  348  31.073  18.104   2.743
27924W        W  349  34.037   7.721  14.923
27925W        W  350  22.596  21.098  13.803
27926W        W  351  27.020  43.989   4.270
27927W        W  352   8.230   4.872   0.838
27928W        W  353  41.029   9.880  12.574
27929W        W  354  23.673  42.356   3.342
27930W        W  355  25.096  43.846   4.611
27931W        W  356   9.835   8.183  10.984
27932W        W  357  12.623  21.675   3.631
27933W        W  358  39.362   8.250  12.364
27934W        W  359  29.427  28.495  13.335
27935W        W  360  43.444  10.222   1.309
27936W        W  361   6.915  35.885   4.245
27937W        W  362  12.202   0.273   2.833
27938W        W  363   0.312   9.248  14.867
27939W        W  364  25.044  34.047  11.587
27940W        W  365  28.681  42.786  14.941
27941W        W  366  42.377   4.823   2.782
27942W        W  367  41.039  37.421   4.343
27943W        W  368  22.641   4.712  11.861
27944W        W  369  18.238   2.259   5.298
27945W        W  370  28.622  38.347  14.478
27946W        W  371  24.643  40.004   3.798
27947W        W  372  29.582  40.469  14.793
27948W        W  373  29.065  14.794  11.592
27949W        W  374   2.839  29.522  12.549
27950W        W  375  41.955  14.257  11.421
27951W        W  376   7.847  43.003  10.075
27952W        W  377  33.516  16.726  11.420
27953W        W  378   0.365  11.654  14.903
27954W        W  379   1.890  20.546  11.862
27955W        W  380  22.212  19.197  11.375
27956W        W  381  25.474  17.177   3.228
27957W        W  382   3.913  30.988  10.964
27958W        W  383  22.120  31.008   4.652
27959W        W  384  19.112   7.821  14.022
27960W        W  385  17.791  20.174  13.988
27961W        W  386  11.693  21.535  14.795
27962W        W  387  17.784   9.275   4.208
27963W        W  388  37.920  12.246   0.413
27964W        W  389  39.541  25.135  14.017
27965W        W  390  29.128  27.941  10.619
27966W        W  391  26.999  44.486  11.027
27967W        W  392  28.453  23.725   4.335
27968W        W  393  22.091  42.915   2.868
27969W        W  394  39.548  30.063   0.335
27970W        W  395  21.643   4.754  12.025
27971W        W  396   7.225  40.524   0.405
27972W        W  397  31.517   7.387  11.373
27973W        W  398  28.614  36.853  10.408
27974W        W  399   8.329   0.365  13.911
27975W        W  400  25.153  16.175   3.238
27976W        W  401  38.020  13.687   1.864
27977W        W  402  27.957  14.113  12.902
27978W        W  403  25.202  37.345  11.072
27979W        W  404  28.580  42.835  13.903
27980W        W  405  15.804  43.965   5.212
27981W        W  406   9.232  28.943  13.531
27982W        W  407   4.338  12.747  12.377
27983W        W  408  28.500  33.026   0.308
27984W        W  409   5.784  20.562  14.434
27985W        W  410  18.182  19.557  12.946
27986W        W  411  27.983  24.207  11.405
27987W        W  412  41.810  11.317   3.289
27988W        W  413  30.511  35.954  14.330
27989W        W  414  23.609   6.360   1.392
27990W        W  415  29.517   6.871   0.826
27991W        W  416  33.049   1.902  11.117
27992W        W  417  26.599  23.727   9.923
27993W        W  418  12.855  10.848   0.258
27994W        W  419   4.779  34.880  13.856
27995W        W  420   7.321  44.312  11.046
27996W        W  421  18.612  44.459  13.031
27997W        W  422   8.880  35.015   1.396
27998W        W  423   2.292  28.167  10.482
27999W        W  424  22.081  37.521   0.267
28000W        W  425   0.771  12.689  14.278
28001W        W  426  41.306  17.255  11.528
28002W        W  427   9.390  38.344   3.207
28003W        W  428  40.810  25.699  14.878
28004W        W  429  35.928  41.511  10.518
28005W        W  430   6.274   1.773  14.454
28006W        W  431  37.001   9.204   1.347
28007W        W  432  25.125  32.608   3.659
28008W        W  433  35.049  38.007  14.819
28009W        W  434  39.560  10.793   0.406
28010W        W  435  21.740  39.043  11.015
28011W        W  436   6.679  40.336  12.031
28012W        W  437   5.405  42.362   0.304
28013W        W  438  43.973  37.579  12.535
28014W        W  439   1.734  10.318   0.271
28015W        W  440  23.502   3.272  10.492
28016W        W  441   8.360   1.741   2.417
28017W        W  442  40.322   4.372  14.915
28018W        W  443  23.552   1.255   4.259
28019W        W  444  36.473  27.192   3.733
28020W        W  445  34.933  41.484   5.208
28021W        W  446  20.041  23.615   0.398
28022W        W  447  39.442  44.982   3.211
28023W        W  448  36.364  41.883   2.758
28024W        W  449  39.883  40.329  10.428
28025W        W  450  22.624   6.736   1.425
28026W        W  451  20.598  28.668   4.159
28027W        W  452  10.729   0.870  12.562
28028W        W  453   9.257  34.565   4.763
28029W        W  454  19.673  27.618   3.718
28030W        W  455   2.236   5.312   1.773
28031W        W  456  30.079   8.358  13.026
28032W        W  457  14.296  18.680  14.832
28033W        W  458  32.599   6.325  12.398
28034W        W  459  44.411  21.106   3.660
28035W        W  460  18.560  39.555  10.408
28036W        W  461   5.249  30.537  14.892
28037W        W  462  20.559  17.296   2.261
28038W        W  463  16.188  36.061  11.981
28039W        W  464  43.375  42.400  12.977
28040W        W  465   1.921  24.669  13.040
28041W        W  466  44.319  18.088  14.790
28042W        W  467   5.362  35.904   2.859
28043W        W  468  11.750  35.999   4.765
28044W        W  469  16.723   4.236  11.979
28045W        W  470  38.874  12.796   0.780
28046W        W  471   7.767  44.340   3.641
28047W        W  472   1.971  18.174   1.296
28048W        W  473  32.902  20.201   0.343
28049W        W  474  37.877  30.151  12.561
28050W        W  475  25.706  15.117   1.840
28051W        W  476  11.725  33.874  14.392
28052W        W  477   9.798  40.035   4.609
28053W        W  478  40.888  18.599   0.833
28054W        W  479   5.290  26.995   2.860
28055W        W  480  16.690  24.673   2.358
28056W        W  481  14.611   7.813  14.323
28057W        W  482  25.213   8.782   0.277
28058W        W  483  40.524  10.359  12.943
28059W        W  484  24.518  37.580   2.699
28060W        W  485   1.870   7.855   3.771
28061W        W  486  36.970   6.189   3.359
28062W        W  487  17.746  41.826   0.887
28063W        W  488  32.011  40.978  12.923
28064W        W  489  40.305  29.973  13.023
28065W        W  490  35.075  17.140   2.182
28066W        W  491  32.897   9.688  14.865
28067W        W  492   6.360  24.003   4.619
28068W        W  493  28.061  35.412  13.432
28069W        W  494   8.888  35.444   4.627
28070W        W  495   3.407  30.028   0.823
28071W        W  496   7.824  30.524   1.762
28072W        W  497   3.741  11.295   3.217
28073W        W  498  39.981   2.744   3.831
28074W        W  499  34.565  44.970   3.298
28075W        W  500  16.114  16.163  13.405
28076W        W  501  32.509  34.434   3.659
28077W        W  502  36.004   7.213   4.117
28078W        W  503   8.847   1.763   0.355
28079W        W  504  12.744  25.044   4.798
28080W        W  505   1.350  20.636  11.374
28081W        W  506   4.930  19.280  14.506
28082W        W  507  31.107  25.552   1.226
28083W        W  508   1.961   6.265  10.644
28084W        W  509  35.003  28.996   4.160
28085W        W  510  25.962  13.222   1.884
28086W        W  511  44.776  39.353   1.362
28087W        W  512  44.853  14.160   1.711
28088W        W  513  23.106  42.793   2.850
28089W        W  514   8.185  21.021  14.498
28090W        W  515  10.292  12.612  11.968
28091W        W  516  34.082  20.679  12.961
28092W        W  517   1.945  13.350  11.591
28093W        W  518  23.612   7.846   4.671
28094W        W  519   9.691  43.430   3.160
28095W        W  520  44.802  39.928   1.424
28096W        W  521  12.819  29.636   4.617
28097W        W  522  12.614   3.735  13.446
28098W        W  523  41.472  10.799  14.964
28099W        W  524   0.776  17.591  10.410
28100W        W  525  22.526  42.296   4.802
28101W        W  526   3.788  22.150   4.298
28102W        W  527  44.876  15.224   2.885
28103W        W  528  41.447  17.188  14.315
28104W        W  529   9.348   7.284  12.043
28105W        W  530  30.527   8.784  14.362
28106W        W  531  16.268   5.918  13.319
28107W        W  532   8.860  12.742   3.247
28108W        W  533  25.583  26.136  10.514
28109W        W  534  32.910  10.847   2.259
28110W        W  535  27.966  38.521   1.434
28111W        W  536  32.083  23.555   9.988
28112W        W  537  32.914  32.983  13.914
28113W        W  538  16.168  12.654  11.938
28114W        W  539  19.633  13.184  13.505
28115W        W  540  30.592   6.217   0.394
28116W        W  541  30.134  16.745   2.412
28117W        W  542   2.812   3.818  10.895
28118W        W  543  10.203  24.181  11.006
28119W        W  544  25.139  17.108   3.358
28120W        W  545  13.247   9.798  10.621
28121W        W  546  30.542   0.353   0.891
28122W        W  547  40.464  22.661  12.979
28123W        W  548  40.856  19.710   4.127
28124W        W  549  42.989   8.248   3.319
28125W        W  550  42.005   5.236  11.489
28126W        W  551  37.035  25.485   4.723
28127W        W  552  36.023  42.874   1.326
28128W        W  553  44.835  42.487   4.310
28129W        W  554  33.973  15.267  13.489
28130W        W  555  30.097  20.749  12.965
28131W        W  556   6.700  44.861   4.672
28132W        W  557   9.859   7.800  14.987
28133W        W  558  11.351  34.605  11.975
28134W        W  559  40.043  11.660   4.260
28135W        W  560  20.104  12.845   3.865
28136W        W  561  44.337  31.443   1.764
28137W        W  562   2.820  42.521  13.837
28138W        W  563   5.925  18.600  14.993
28139W        W  564   8.266  34.409   1.869
28140W        W  565   4.713  26.610   0.271
28141W        W  566  27.557  26.687   2.837
28142W        W  567  20.661  26.634  14.828
28143W        W  568  44.955  33.976   3.331
28144W        W  569  12.844  33.596   0.369
28145W        W  570   9.712   8.820   4.340
28146W        W  571   2.251   9.821  11.107
28147W        W  572  36.982  40.396  14.994
28148W        W  573  20.268  13.283   4.195
28149W        W  574   1.357  27.549   0.896
28150W        W  575  42.858  31.600  10.612
28151W        W  576  34.115  36.574  12.096
28152W        W  577  30.432  26.966  10.565
28153W        W  578  41.922  25.597  14.406
28154W        W  579  40.021   1.372   0.369
28155W        W  580  31.543  12.678  10.991
28156W        W  581  35.406  15.328   0.286
28157W        W  582  34.040  11.690  10.528
28158W        W  583  43.793   8.761  11.859
28159W        W  584  36.884  16.197  12.976
28160W        W  585  39.433  13.750  12.472
28161W        W  586  15.748  36.071  13.036
28162W        W  587  22.503  16.186  14.768
28163W        W  588   5.202  43.772   3.820
28164W        W  589   2.466  12.290  12.490
28165W        W  590  18.052   6.762  11.458
28166W        W  591  44.787  36.879  14.952
28167W        W  592   5.338  24.646   0.316
28168W        W  593   1.880  38.961   4.187
28169W        W  594  15.594   4.699  11.981
28170W        W  595  33.466   0.326  14.823
28171W        W  596  34.398  19.617  12.891
28172W        W  597  25.473   8.181   2.268
28173W        W  598  14.198  15.203   1.916
28174W        W  599   0.908  44.404  11.455
28175W        W  600  33.010  12.272   1.797
28176W        W  601  13.774  40.001  12.010
28177W        W  602  39.938  15.667  11.393
28178W        W  603  28.026  23.073   0.452
28179W        W  604  24.570  31.504  14.021
28180W        W  605  30.629  30.998  13.442
28181W        W  606  43.930  18.559  11.085
28182W        W  607  17.661  29.919  10.421
28183W        W  608   3.460  39.897  14.857
28184W        W  609  43.838  15.742  12.887
28185W        W  610  25.703  23.069  14.395
28186W        W  611  26.021  11.258   2.666
28187W        W  612   0.345   5.688  12.431
28188W        W  613  35.028  24.536   4.739
28189W        W  614  15.328  32.609  10.451
28190W        W  615  32.452  15.808  13.330
28191W        W  616  16.744   5.336   1.344
28192W        W  617  35.027  21.722   2.186
28193W        W  618   3.858  17.246  11.913
28194W        W  619  41.423   3.869   2.791
28195W        W  620  43.455  31.010   4.169
28196W        W  621   1.308  17.228   1.402
28197W        W  622  28.460   0.457  14.498
28198W        W  623  10.154   8.207  13.051
28199W        W  624   6.189  28.125   1.250
28200W        W  625  35.091  15.205   3.379
28201W        W  626  25.543  25.710   3.661
28202W        W  627  37.027   1.785  13.429
28203W        W  628   3.251  25.977   1.902
28204W        W  629  24.644   7.381  11.559
28205W        W  630  39.344  17.610  12.926
28206W        W  631  18.709  15.595  14.377
28207W        W  632  42.380  17.284   1.254
28208W        W  633  23.119  42.502   0.739
28209W        W  634   8.823   4.239   2.789
28210W        W  635  14.713  30.628  14.347
28211W        W  636  31.045   3.787   2.891
28212W        W  637  22.140  11.188  14.809
28213W        W  638   5.726   9.322   2.243
28214W        W  639  41.865  42.524  14.349
28215W        W  640  27.601  40.344  11.572
28216W        W  641  20.563   0.773   4.163
28217W        W  642   5.910   4.222  10.545
28218W        W  643  13.316   4.270   1.830
28219W        W  644  32.447  36.927  13.368
28220W        W  645  38.001  22.016   4.673
28221W        W  646  16.196  43.514  14.025
28222W        W  647  24.131   6.386   3.867
28223W        W  648  29.627  27.147  14.872
28224W        W  649  42.465  37.955   3.278
28225W        W  650  22.250   2.724   3.302
28226W        W  651  28.581  30.085  13.936
28227W        W  652  43.795  29.166   4.799
28228W        W  653  34.046  40.423  13.987
28229W        W  654   0.836  43.874   2.310
28230W        W  655  14.241   0.314   4.118
28231W        W  656   8.874  43.505  11.128
28232W        W  657  21.130  33.891  10.503
28233W        W  658  31.969  38.016   3.296
28234W        W  659   4.276   8.220   1.229
28235W        W  660  18.559  16.186   1.426
28236W        W  661  17.232  14.219   2.854
28237W        W  662  14.690   4.400   3.668
28238W        W  663  41.022  43.416  13.352
28239W        W  664  32.585  29.120  13.368
28240W        W  665  19.202   2.389   4.724
28241W        W  666  17.268  24.204   3.309
28242W        W  667  14.645  34.499  12.953
28243W        W  668  44.424  35.498   3.866
28244W        W  669  20.128  22.099  10.919
28245W        W  670   0.429  21.233  14.877
28246W        W  671  23.218  15.174  14.400
28247W        W  672  27.582  31.557  14.800
28248W        W  673  20.234  42.418   2.857
28249W        W  674   3.743  34.907   4.124
28250W        W  675  30.157  30.044   0.785
28251W        W  676  17.216  21.034   9.928
28252W        W  677  42.775  35.500  10.523
28253W        W  678  16.772  34.096  12.344
28254W        W  679  12.228  43.389   3.270
28255W        W  680  19.643  32.888   0.873
28256W        W  681  39.374  32.963  13.864
28257W        W  682  42.902  35.491  12.984
28258W        W  683  36.067  27.627   0.961
28259W        W  684  21.159  41.933   0.848
28260W        W  685   4.315  40.867  11.550
28261W        W  686  24.156  16.141   1.421
28262W        W  687  40.994  31.953   1.851
28263W        W  688  11.678  35.929   0.953
28264W        W  689   9.705  12.204  11.879
28265W        W  690  19.690  13.211  12.022
28266W        W  691  32.097   5.211  11.573
28267W        W  692   3.442  32.560   3.375
28268W        W  693  13.304  14.182  13.984
28269W        W  694   5.839  10.325   3.297
28270W        W  695  10.875   0.384  13.533
28271W        W  696   0.475  19.722   0.319
28272W        W  697   3.416  13.339   0.361
28273W        W  698   9.215  35.854   5.298
28274W        W  699  44.414   1.395   2.793
28275W        W  700  28.963  43.370   2.344
28276W        W  701   1.766  44.294   1.921
28277W        W  702  38.038  40.022  11.888
28278W        W  703  33.094  43.307  11.577
28279W        W  704  21.076  35.453  13.494
28280W        W  705  26.544  42.843   4.164
28281W        W  706  37.573  44.834  11.928
28282W        W  707  24.544  32.615   3.165
28283W        W  708  38.977  18.707   3.202
28284W        W  709   2.305   6.277  11.975
28285W        W  710  26.038  13.831   0.900
28286W        W  711  40.507  32.486   4.688
28287W        W  712   6.354  29.623  13.894
28288W        W  713  15.686  12.846   1.258
28289W        W  714  17.100  26.471   4.713
28290W        W  715  40.346  12.116  11.046
28291W        W  716  15.746  27.045  12.023
28292W        W  717   4.810  17.721   2.270
28293W        W  718   5.259  31.589  13.922
28294W        W  719  21.690  13.771  13.960
28295W        W  720   0.345  14.658   3.345
28296W        W  721  22.587  44.805  11.535
28297W        W  722   1.871   6.810   1.308
28298W        W  723  16.745   3.412   3.331
28299W        W  724  24.210  16.723  12.067
28300W        W  725  44.965   5.795   2.353
28301W        W  726  21.200   0.905  10.991
28302W        W  727  24.611  23.615   4.679
28303W        W  728   5.866  14.161  10.512
28304W        W  729  21.260   3.863  12.509
28305W        W  730  43.957  25.114  10.411
28306W        W  731  10.153  19.272   2.283
28307W        W  732  16.566  35.077   0.759
28308W        W  733  12.154   0.275  12.489
28309W        W  734  24.575  17.217   3.194
28310W        W  735  12.312   7.287  14.476
28311W        W  736  35.364   9.698   1.861
28312W        W  737  17.117  13.229   5.120
28313W        W  738  21.160  40.547  10.450
28314W        W  739  37.044  35.555   2.267
28315W        W  740  33.588  30.536   4.322
28316W        W  741  32.030  17.588  11.024
28317W        W  742  41.847   6.755   1.830
28318W        W  743  37.044  22.146   5.647
28319W        W  744   5.313   0.908   4.666
28320W        W  745   2.323  37.917  11.895
28321W        W  746  25.153  37.383  14.392
28322W        W  747  35.968  24.029  12.434
28323W        W  748  32.401  36.091  12.413
28324W        W  749   8.730  38.458  13.882
28325W        W  750  37.449  15.166  10.620
28326W        W  751  35.890  38.060   1.768
28327W        W  752   5.256   2.349   1.790
28328W        W  753   2.448  32.009  14.919
28329W        W  754   8.293  27.648   0.273
28330W        W  755  28.592  16.722  14.892
28331W        W  756   7.336  14.148  11.045
28332W        W  757  24.503   3.443   0.805
28333W        W  758  15.162  14.818   2.690
28334W        W  759  27.057  21.725  14.506
28335W        W  760  43.999  40.900   2.897
28336W        W  761   5.793  38.897  12.982
28337W        W  762   6.418  16.799  11.503
28338W        W  763   2.872   4.878   0.479
28339W        W  764   0.868  36.852  13.958
28340W        W  765  35.359  31.977   0.946
28341W        W  766   1.254   9.843  12.866
28342W        W  767   8.740  36.945   4.267
28343W        W  768  44.904  18.586  14.415
28344W        W  769  30.938   6.823  12.052
28345W        W  770  17.679  17.570   1.751
28346W        W  771   2.940  28.040  10.560
28347W        W  772   2.303  42.975   2.733
28348W        W  773  17.153  33.385   3.348
28349W        W  774  29.596  20.270  13.542
28350W        W  775  41.319   4.257   2.208
28351W        W  776   2.274  25.984   4.736
28352W        W  777  36.402  22.201  14.374
28353W        W  778  44.968   0.747   3.702
28354W        W  779   9.664  29.549  13.804
28355W        W  780   8.744   2.779   2.190
28356W        W  781  23.498  10.319  14.765
28357W        W  782  19.042   3.944  14.905
28358W        W  783   4.335   1.239  10.516
28359W        W  784  40.407   6.332   3.723
28360W        W  785  11.628  18.290   3.356
28361W        W  786   8.871   2.965  12.921
28362W        W  787  28.552  24.129   0.431
28363W        W  788  31.591   1.447   0.407
28364W        W  789   3.303  15.630  14.444
28365W        W  790  40.386   3.413   2.279
28366W        W  791  24.581   3.435  12.827
28367W        W  792  38.337  26.499   1.258
28368W        W  793  28.167  22.070  10.626
28369W        W  794  15.698  27.516   3.665
28370W        W  795  15.641  18.258  12.444
28371W        W  796  18.643  42.338   2.688
28372W        W  797   2.865  10.181  11.525
28373W        W  798  35.491  37.070   3.845
28374W        W  799  23.179  39.812  14.483
28375W        W  800   6.715  35.548  12.952
28376W        W  801  44.487  32.037  13.020
28377W        W  802  21.167  20.201   4.614
28378W        W  803   7.338   1.907   0.370
28379W        W  804  34.528   6.232   4.730
28380W        W  805  25.150  17.676  13.932
28381W        W  806  27.536   2.357   4.113
28382W        W  807   7.816  38.439  11.961
28383W        W  808  39.516  43.269   1.906
28384W        W  809  27.601  29.942  10.955
28385W        W  810  31.461  41.361   1.381
28386W        W  811  42.375  19.651  12.416
28387W        W  812   5.710  23.624  13.963
28388W        W  813   7.329  14.616  13.342
28389W        W  814   1.790   8.258   4.219
28390W        W  815  11.197  37.562   2.290
28391W        W  816  40.975  41.813   4.153
28392W        W  817  36.882   8.774   1.343
28393W        W  818  42.922   8.355  12.031
28394W        W  819   0.754  11.686   2.315
28395W        W  820  29.024  24.010   0.246
28396W        W  821   2.300  34.868  11.509
28397W        W  822  38.546  31.409   0.877
28398W        W  823  36.556  32.452   3.194
28399W        W  824  44.806  28.600   1.388
28400W        W  825  16.666  37.570   4.600
28401W        W  826  29.087   7.909   4.142
28402W        W  827  13.121  15.744   1.747
28403W        W  828  24.655  41.958   0.961
28404W        W  829  25.966   4.704  12.553
28405W        W  830   6.303   6.787   4.767
28406W        W  831  31.101  16.809  10.468
28407W        W  832  23.201  44.784  10.403
28408W        W  833   8.299   5.741   0.782
28409W        W  834   8.874  34.503  11.862
28410W        W  835  17.155  37.066   1.697
28411W        W  836   7.283  11.652  11.555
28412W        W  837  39.916  19.129  14.773
28413W        W  838  16.263   8.839  14.302
28414W        W  839   8.750  23.534   3.795
28415W        W  840  22.199  15.732   1.222
28416W        W  841  18.694  32.600   2.663
28417W        W  842  12.805  19.693   2.182
28418W        W  843  22.072  21.101  13.027
28419W        W  844  28.153  43.006  11.586
28420W        W  845  40.842  25.485   4.193
28421W        W  846  21.176  13.223   2.344
28422W        W  847  26.166  30.045  10.908
28423W        W  848  42.324  21.537   2.702
28424W        W  849  43.909  38.063  11.594
28425W        W  850  20.214  12.132   0.802
28426W        W  851  29.539  25.648  11.568
28427W        W  852  35.979  24.072  11.476
28428W        W  853  40.968  22.023  14.882
28429W        W  854  27.033  42.505  12.457
28430W        W  855  21.629  15.655  13.524
28431W        W  856  28.935  17.306   0.381
28432W        W  857  11.837  16.582  14.313
28433W        W  858  14.761  18.638   1.704
28434W        W  859  25.026   9.842   2.205
28435W        W  860   6.889   0.457   4.286
28436W        W  861   2.236  30.511  11.397
28437W        W  862   4.862  42.370  13.932
28438W        W  863  26.010  23.059   1.807
28439W        W  864   9.377  21.688   0.318
28440W        W  865  29.590  28.527  11.547
28441W        W  866  22.165  34.976   4.255
28442W        W  867  12.852  29.063   4.263
28443W        W  868  17.074   1.822  12.868
28444W        W  869  26.057  26.972  11.980
28445W        W  870  39.023  21.240  13.891
28446W        W  871   5.896  36.077   1.793
28447W        W  872  25.145  29.597   0.779
28448W        W  873  32.944   2.909  10.942
28449W        W  874   6.259  14.818   3.857
28450W        W  875  33.481  36.418  12.464
28451W        W  876   8.720  25.714   1.376
28452W        W  877  32.138  26.567  12.368
28453W        W  878  33.502  26.560   5.231
28454W        W  879  11.299  29.034  11.491
28455W        W  880  13.782  18.122  10.602
28456W        W  881  12.838  27.046  14.984
28457W        W  882   6.399  43.969   3.366
28458W        W  883  21.252  34.530   0.458
28459W        W  884  38.000  15.619  11.053
28460W        W  885  24.574  31.130   1.408
28461W        W  886  16.655  33.419  10.486
28462W        W  887  29.463   3.757   3.773
28463W        W  888   4.306   8.303   0.869
28464W        W  889  10.791   1.391  12.849
28465W        W  890  21.157  16.584  14.424
28466W        W  891  28.941  22.096   4.669
28467W        W  892  26.059  41.406   0.852
28468W        W  893  22.593  13.283   4.137
28469W        W  894  26.655  37.381   0.425
28470W        W  895   8.792  10.170  13.405
28471W        W  896  17.650  39.465   2.740
28472W        W  897  29.027  43.847   4.651
28473W        W  898  16.160  44.902   1.380
28474W        W  899  33.441  19.178   4.327
28475W        W  900  12.737  11.304   3.350
28476W        W  901  27.449  31.577   4.797
28477W        W  902   8.373  14.802  12.896
28478W        W  903  20.240  15.304   0.728
28479W        W  904  11.837  41.343   2.808
28480W        W  905   0.956  13.655  13.314
28481W        W  906   3.818   1.424  14.363
28482W        W  907   4.446  34.479  10.948
28483W        W  908  10.383  20.707  13.339
28484W        W  909  35.037   3.811   3.829
28485W        W  910   2.853   8.889  11.410
28486W        W  911   7.394  32.995   4.789
28487W        W  912  12.142  13.843  13.895
28488W        W  913  31.460   2.902  14.348
28489W        W  914  39.420  37.034   0.295
28490W        W  915   9.832  29.044  10.562
28491W        W  916  15.286  13.202   4.780
28492W        W  917  31.094  31.648   4.736
28493W        W  918  21.629  31.415   3.176
28494W        W  919  13.835  35.430   1.363
28495W        W  920  18.197  21.218   4.751
28496W        W  921  22.620  23.020  14.797
28497W        W  922   6.883  40.403  14.480
28498W        W  923  25.613  27.590  13.485
28499W        W  924  10.757  39.813  10.979
28500W        W  925  28.130  26.458   5.199
28501W        W  926  36.944   0.744   4.252
28502W        W  927   6.899  30.078  11.000
28503W        W  928  25.621  29.050  11.060
28504W        W  929   3.376   9.759  13.850
28505W        W  930  32.890  18.679   0.897
28506W        W  931  19.057   1.278  12.014
28507W        W  932  31.930  26.564   2.819
28508W        W  933   3.300  15.317   0.321
28509W        W  934  41.980  13.802  14.428
28510W        W  935  22.583  32.971   4.331
28511W        W  936   9.783   4.432  12.420
28512W        W  937  17.120  34.940  12.359
28513W        W  938  23.533  40.369  13.831
28514W        W  939  18.729  16.254  11.392
28515W        W  940  22.571  10.651   0.356
28516W        W  941  23.003  18.781  12.429
28517W        W  942  37.402   9.718  13.498
28518W        W  943  36.527   4.764  12.982
28519W        W  944  34.914  26.509  11.539
28520W        W  945  38.453  25.623   1.284
28521W        W  946  24.521  17.159   4.206
28522W        W  947   9.648  23.723   2.683
28523W        W  948   5.245  41.953  12.046
28524W        W  949  38.389  43.905   3.224
28525W        W  950  28.460  28.153  13.378
28526W        W  951  22.680   9.388  14.436
28527W        W  952  37.353  29.460   4.600
28528W        W  953  18.590  24.040  14.956
28529W        W  954  12.750   8.835  12.368
28530W        W  955   4.424   7.364  11.398
28531W        W  956  11.300  29.628   2.804
28532W        W  957   5.397  12.346   4.617
28533W        W  958  10.711   6.750   5.289
28534W        W  959  19.535   1.374  11.477
28535W        W  960   4.837  12.160  10.446
28536W        W  961  32.630  21.222   3.194
28537W        W  962   5.858  34.466   2.767
28538W        W  963  30.930  33.029   2.225
28539W        W  964  31.933  25.629  14.854
28540W        W  965   9.286  37.497   3.327
28541W        W  966   7.366   1.733   1.868
28542W        W  967  17.250  11.241   1.876
28543W        W  968  11.749   3.312   1.726
28544W        W  969   4.746   5.371   4.244
28545W        W  970  38.839   9.843   2.779
28546W        W  971  39.359  10.324  10.914
28547W        W  972  19.706  40.435   2.797
28548W        W  973  13.689  12.657   0.375
28549W        W  974  19.180  35.899  14.902
28550W        W  975  18.596  36.004  11.027
28551W        W  976  20.197   9.761   3.334
28552W        W  977  16.722  28.120   0.931
28553W        W  978  21.029  42.416   5.167
28554W        W  979  34.093  35.604  13.991
28555W        W  980  16.722   2.426   1.263
28556W        W  981  19.563  15.215  12.878
28557W        W  982  38.881   8.770   5.167
28558W        W  983   0.865  11.853   5.086
28559W        W  984  23.520  26.592  11.082
28560W        W  985  21.521  22.708   4.353
28561W        W  986  34.589   7.334  13.359
28562W        W  987   1.945   5.772  11.422
28563W        W  988  18.603  31.063   1.724
28564W        W  989  43.431  11.177   4.315
28565W        W  990  11.746  41.040  13.365
28566W        W  991   2.233  15.181  14.857
28567W        W  992   4.869   4.347  11.414
28568W        W  993  21.128  43.809  11.527
28569W        W  994  43.457  36.542   0.362
28570W        W  995  28.532  18.161   1.888
28571W        W  996  28.492  36.366  11.585
28572W        W  997  23.569  27.009   2.199
28573W        W  998  43.355   2.418   0.883
28574W        W  999   0.421  22.035  12.934
28575W        W 1000  14.199   9.289  11.869
28576W        W 1001  20.196  36.891   3.183
28577W        W 1002  19.570  28.523  13.351
28578W        W 1003  13.340   8.852   2.353
28579W        W 1004   0.453  43.794   2.354
28580W        W 1005  22.695  33.986   3.639
28581W        W 1006  21.257  40.470   3.859
28582W        W 1007  34.894  18.251  14.322
28583W        W 1008  25.673  15.775  13.421
28584W        W 1009  26.161  25.493   2.275
28585W        W 1010  22.517  24.203  10.408
28586W        W 1011  32.927  27.006   4.749
28587W        W 1012   8.681  17.696   0.403
28588W        W 1013  29.461  38.038   4.620
28589W        W 1014  10.381  37.893   0.432
28590W        W 1015  44.419   3.376  11.446
28591W        W 1016  31.423  37.909  11.397
28592W        W 1017  20.246  43.875  12.868
28593W        W 1018  31.074   2.399   4.632
28594W        W 1019  13.141  37.472  11.612
28595W        W 1020   1.869  20.142   2.182
28596W        W 1021  22.529  15.722  10.953
28597W        W 1022  25.536  42.327  12.363
28598W        W 1023   4.897   4.826   1.909
28599W        W 1024   6.312   8.817  13.978
28600W        W 1025  33.976  24.038  10.956
28601W        W 1026  21.519  11.348   2.798
28602W        W 1027  41.344  18.702   2.289
28603W        W 1028  33.068   1.858   2.720
28604W        W 1029  32.110   5.213   0.471
28605W        W 1030   5.774   7.845   0.349
28606W        W 1031  14.775  21.094   3.348
28607W        W 1032  12.357   7.364  11.945
28608W        W 1033   4.800  44.997  10.979
28609W        W 1034  31.648  17.173  12.048
28610W        W 1035   9.875  23.701   3.789
28611W        W 1036  31.099  18.183  10.142
28612W        W 1037  24.668  38.986   1.831
28613W        W 1038  10.280  18.228   2.377
28614W        W 1039  21.563  17.229   1.832
28615W        W 1040   2.322   6.215  13.903
28616W        W 1041  44.784  44.828   0.448
28617W        W 1042  21.560  40.524   2.790
28618W        W 1043  11.790  15.619  13.823
28619W        W 1044  24.551   9.372  11.047
28620W        W 1045  19.186  20.669  10.601
28621W        W 1046  19.280   6.763   1.899
28622W        W 1047  23.096   8.873  13.055
28623W        W 1048  18.124  39.827   3.802
28624W        W 1049   2.352  33.525  13.863
28625W        W 1050  14.832   2.433  13.944
28626W        W 1051  19.064  41.822   4.179
28627W        W 1052  31.008  35.411  12.435
28628W        W 1053  17.704  29.028   2.668
28629W        W 1054  17.748  36.006   3.854
28630W        W 1055  41.489  24.571  13.417
28631W        W 1056   0.846  27.120   4.154
28632W        W 1057  44.332  12.292  12.001
28633W        W 1058   3.881   1.324  13.498
28634W        W 1059   6.328  19.277  12.845
28635W        W 1060  23.649  32.037  12.443
28636W        W 1061   4.408   9.824  11.546
28637W        W 1062  38.328  42.799   4.164
28638W        W 1063  19.619  25.016   0.821
28639W        W 1064  21.595   8.277  12.041
28640W        W 1065  43.796  11.157  10.948
28641W        W 1066  13.349  35.951  10.902
28642W        W 1067  30.130   5.788   2.856
28643W        W 1068  16.712  18.568   2.205
28644W        W 1069  39.404  37.913   1.261
28645W        W 1070  21.524   2.767  11.551
28646W        W 1071  34.986   8.750   3.275
28647W        W 1072  14.784  31.551  13.507
28648W        W 1073   8.660   2.239  10.448
28649W        W 1074  44.778  15.164   3.817
28650W        W 1075  43.471  31.444  11.530
28651W        W 1076  17.306  39.510   1.789
28652W        W 1077  43.001  27.608  12.916
28653W        W 1078   4.737   4.764   0.956
28654W        W 1079   5.375  20.231  13.950
28655W        W 1080  44.933   9.391   0.245
28656W        W 1081  42.346  16.672   2.179
28657W        W 1082  20.700  33.889   2.814
28658W        W 1083  12.611  40.465  14.992
28659W        W 1084   1.932  32.605  12.083
28660W        W 1085  27.495  19.191   0.735
28661W        W 1086   6.880  30.075  10.603
28662W        W 1087  31.646   7.686  10.437
28663W        W 1088  15.266  31.639  10.538
28664W        W 1089  21.247   1.440   0.356
28665W        W 1090   0.973  23.119  14.952
28666W        W 1091  20.691  29.459   2.830
28667W        W 1092  17.700  27.091  11.982
28668W        W 1093  23.692  41.434   2.662
28669W        W 1094  43.451   1.285  14.839
28670W        W 1095  32.983   5.203   3.280
28671W        W 1096   0.454  35.018   0.809
28672W        W 1097  11.365  41.407  12.376
28673W        W 1098  33.549  16.660   5.157
28674W        W 1099  25.651  44.909  13.313
28675W        W 1100  33.001  24.010  12.097
28676W        W 1101  36.889  17.201   0.338
28677W        W 1102   2.947  15.319   1.338
28678W        W 1103  26.457  32.062   4.757
28679W        W 1104  40.416   4.821  13.866
28680W        W 1105  44.338  27.971  10.617
28681W        W 1106  18.758  22.694   1.902
28682W        W 1107  29.929  18.599  12.570
28683W        W 1108  44.400  19.774  14.023
28684W        W 1109  12.815  36.988  14.342
28685W        W 1110  15.167   2.745  11.527
28686W        W 1111  42.483  16.664   4.794
28687W        W 1112  24.083   1.905   5.112
28688W        W 1113  29.512  31.409   0.306
28689W        W 1114  31.523  37.917  11.992
28690W        W 1115   7.903  17.159   3.287
28691W        W 1116  43.416  10.668  11.873
28692W        W 1117  36.589  31.035  11.574
28693W        W 1118  17.231  31.075  12.460
28694W        W 1119  24.009  35.924  10.064
28695W        W 1120  33.590  42.989   0.803
28696W        W 1121  11.172   7.325   0.474
28697W        W 1122  22.596  34.884   5.180
28698W        W 1123  17.202  32.094   5.747
28699W        W 1124  35.379   1.880  12.862
28700W        W 1125  28.508  12.849  12.913
28701W        W 1126   9.845  34.371  14.967
28702W        W 1127  38.341  10.375   4.708
28703W        W 1128   5.417  25.557  14.312
28704W        W 1129  24.174  20.546  10.443
28705W        W 1130  24.034   4.767  12.569
28706W        W 1131   7.762  23.687   2.801
28707W        W 1132  28.589   1.924   1.383
28708W        W 1133  21.649   5.917  13.798
28709W        W 1134  14.293  27.063   0.899
28710W        W 1135  36.418   6.875  12.407
28711W        W 1136  20.178  38.366  13.369
28712W        W 1137  12.632  23.126  12.467
28713W        W 1138  18.741  11.622   2.806
28714W        W 1139   6.754  31.057   3.743
28715W        W 1140  17.763  28.629  10.416
28716W        W 1141  29.995  25.130  13.367
28717W        W 1142  26.563  23.718   4.742
28718W        W 1143  13.807   3.340   2.269
28719W        W 1144   6.319  16.655   4.160
28720W        W 1145   8.321  15.712  13.528
28721W        W 1146  34.373  21.163  12.554
28722W        W 1147  38.040  21.231   0.263
28723W        W 1148  39.509  13.269   2.230
28724W        W 1149  19.282  40.422  11.946
28725W        W 1150  40.480   8.225   2.402
28726W        W 1151   3.761  10.666  14.392
28727W        W 1152  13.230  30.152  12.533
28728W        W 1153  28.107   8.862  10.065
28729W        W 1154  22.554  42.989   3.740
28730W        W 1155  42.987  16.161   1.278
28731W        W 1156   8.804  17.656  11.466
28732W        W 1157   2.821   0.365   1.890
28733W        W 1158  13.166  13.711  13.341
28734W        W 1159  23.207  12.272   3.640
28735W        W 1160  11.645  13.135  11.077
28736W        W 1161  32.558  23.544   2.268
28737W        W 1162  43.830  31.015   1.223
28738W        W 1163  17.209  12.357  11.056
28739W        W 1164  18.127   4.256   0.386
28740W        W 1165  31.091  43.508  11.953
28741W        W 1166  23.090  27.021  14.778
28742W        W 1167  16.156  35.450   4.237
28743W        W 1168   7.755  25.592  11.607
28744W        W 1169  35.045  23.205  14.316
28745W        W 1170  23.068  13.310  13.365
28746W        W 1171  44.993  44.476  11.566
28747W        W 1172  42.474  32.134  10.933
28748W        W 1173  39.952   4.885  11.980
28749W        W 1174  11.708  22.156  12.063
28750W        W 1175  29.617   5.252   2.882
28751W        W 1176  35.536  16.594   3.308
28752W        W 1177  33.031  15.707  11.446
28753W        W 1178  33.421  12.772   9.998
28754W        W 1179  15.682  11.834  10.892
28755W        W 1180  34.896  20.705   1.223
28756W        W 1181  36.586  11.266  11.559
28757W        W 1182   4.277  30.478   3.753
28758W        W 1183   5.202  12.815   3.207
28759W        W 1184  12.805  25.109  13.061
28760W        W 1185  31.477  30.009  11.071
28761W        W 1186  25.602  43.383  14.464
28762W        W 1187  10.659  21.558   4.770
28763W        W 1188  35.554  41.842   3.178
28764W        W 1189   3.888  36.892  13.810
28765W        W 1190  28.981  42.021  13.426
28766W        W 1191  15.701  42.289  11.013
28767W        W 1192  15.609  29.161  14.768
28768W        W 1193  10.719   7.883  14.014
28769W        W 1194  13.105  27.687  10.557
28770W        W 1195  15.706   2.727   3.355
28771W        W 1196   8.378  38.518   0.780
28772W        W 1197  32.593  16.195   4.782
28773W        W 1198  41.368  43.295   1.773
28774W        W 1199  42.328  39.353   4.761
28775W        W 1200  23.161  33.453  11.046
28776W        W 1201  23.606  21.158   4.286
28777W        W 1202  41.793  18.750   0.270
28778W        W 1203  19.131  30.429   2.734
28779W        W 1204  42.850  11.645   3.191
28780W        W 1205  29.964  37.338   4.658
28781W        W 1206   4.415  39.889  13.892
28782W        W 1207   4.253  24.094  13.378
28783W        W 1208   5.746   7.710   2.254
28784W        W 1209  37.380  20.556   1.378
28785W        W 1210   2.409   4.935   5.167
28786W        W 1211  39.048  10.221   3.673
28787W        W 1212   0.856  34.925  14.876
28788W        W 1213  13.798  11.302   1.421
28789W        W 1214  22.582  17.715  12.967
28790W        W 1215   5.289  39.362   1.838
28791W        W 1216  31.923  28.943  13.417
28792W        W 1217  28.094  35.933   4.753
28793W        W 1218  27.145  15.710  12.477
28794W        W 1219   3.259  35.862   2.693
28795W        W 1220   0.380   0.843  13.947
28796W        W 1221   9.225  18.195  12.022
28797W        W 1222   3.754   5.853   4.600
28798W        W 1223   2.386  12.265   3.151
28799W        W 1224  33.473   1.372   2.371
28800W        W 1225  26.154  44.278   2.663
28801W        W 1226  15.648  29.931  14.397
28802W        W 1227   9.182  28.168   3.643
28803W        W 1228  39.426  15.182   0.298
28804W        W 1229   6.866   7.760   4.205
28805W        W 1230  37.963  21.713   4.600
28806W        W 1231  15.223   7.741  10.408
28807W        W 1232  11.252  40.002  13.969
28808W        W 1233   3.765  42.386   3.239
28809W        W 1234   7.212   5.290   4.294
28810W        W 1235   7.821   8.291   3.738
28811W        W 1236  20.191  18.686  13.393
28812W        W 1237  39.033   8.676   3.782
28813W        W 1238   1.239  15.591  12.482
28814W        W 1239  17.176   9.770  13.808
28815W        W 1240  24.101  34.535  12.980
28816W        W 1241   0.330  35.073  13.470
28817W        W 1242  38.506  19.261  11.396
28818W        W 1243  12.853  43.020  14.808
28819W        W 1244   7.349  31.904   0.421
28820W        W 1245  34.865  34.590   2.202
28821W        W 1246  19.758  17.766   0.930
28822W        W 1247  15.797   1.476  11.956
28823W        W 1248  23.107  14.791   0.321
28824W        W 1249  17.089  13.283  11.119
28825W        W 1250  33.439   6.748  13.400
28826W        W 1251  26.982  36.402   4.148
28827W        W 1252  44.315   6.238  12.872
28828W        W 1253   1.915   9.808  13.809
28829W        W 1254  12.257   7.249  10.535
28830W        W 1255  44.348  25.181  11.538
28831W        W 1256  33.986  14.721  14.313
28832W        W 1257  40.873  13.220   1.729
28833W        W 1258  21.749  39.979  13.375
28834W        W 1259  20.247  17.155  13.350
28835W        W 1260  20.683  43.844  13.404
28836W        W 1261  14.275   8.679   0.819
28837W        W 1262  39.951   6.894  14.276
28838W        W 1263   6.835   3.919  12.879
28839W        W 1264  27.599  32.402  13.804
28840W        W 1265   0.291  30.654  13.400
28841W        W 1266  24.524  26.625  11.378
28842W        W 1267  31.493  11.147  12.554
28843W        W 1268  19.262  44.504  13.343
28844W        W 1269  37.966  30.525  14.405
28845W        W 1270  10.716   3.828  10.489
28846W        W 1271  11.300  18.701   4.349
28847W        W 1272  27.026  26.185  11.992
28848W        W 1273  19.221  30.449  14.497
28849W        W 1274  30.428  15.182   2.211
28850W        W 1275  17.295  23.678  11.556
28851W        W 1276  21.757  11.644  14.827
28852W        W 1277  20.656   3.758  11.587
28853W        W 1278  38.924  29.041  11.083
28854W        W 1279  34.423  27.458   3.744
28855W        W 1280  24.608  13.786   0.730
28856W        W 1281  24.156  12.704  12.887
28857W        W 1282  20.057  27.078  10.989
28858W        W 1283  36.984  31.471   3.225
28859W        W 1284  36.901   8.804   4.605
28860W        W 1285  33.590  44.852  11.566
28861W        W 1286   3.728  14.327  11.897
28862W        W 1287  14.695  40.937  13.381
28863W        W 1288  22.555  14.336   3.664
28864W        W 1289  30.016  22.159  10.596
28865W        W 1290  33.132  34.396  14.331
28866W        W 1291  29.661  37.569  12.535
28867W        W 1292  27.618   7.800   4.672
28868W        W 1293  21.649  23.711   3.839
28869W        W 1294  30.442  36.870  13.849
28870W        W 1295  31.594   3.417   3.183
28871W        W 1296  23.633  41.317  10.417
28872W        W 1297  36.885   4.218   3.860
28873W        W 1298  22.024   0.481   1.713
28874W        W 1299  17.197  44.776  11.994
28875W        W 1300  28.533  15.083  11.020
28876W        W 1301  44.391  40.434   0.281
28877W        W 1302   0.275   2.874  13.878
28878W        W 1303   4.331   3.397  10.080
28879W        W 1304  21.536  15.599  14.403
28880W        W 1305  17.118  29.994   1.219
28881W        W 1306  37.893  21.230  11.092
28882W        W 1307  27.596  13.824   0.400
28883W        W 1308  11.250  16.622  12.924
28884W        W 1309  16.759  13.297   1.339
28885W        W 1310  42.963   5.400   3.641
28886W        W 1311  43.913  29.436  10.564
28887W        W 1312   5.421  41.480  12.947
28888W        W 1313  20.174   2.879  12.987
28889W        W 1314   9.874  33.536  12.884
28890W        W 1315  33.562  37.033   3.805
28891W        W 1316  32.560   5.288  11.930
28892W        W 1317  30.513  30.658   4.329
28893W        W 1318  29.587  30.029  12.567
28894W        W 1319  16.308  43.477   4.158
28895W        W 1320  38.943  13.631  11.880
28896W        W 1321  36.043   4.732   1.293
28897W        W 1322  16.148  10.841   3.348
28898W        W 1323  26.613  39.899  11.486
28899W        W 1324  41.814  41.493   5.132
28900W        W 1325  25.115   7.354   3.778
28901W        W 1326  33.548  38.898  14.349
28902W        W 1327  37.048  35.389  14.796
28903W        W 1328  40.403  14.103   3.836
28904W        W 1329  18.259  39.349   1.236
28905W        W 1330  35.994  23.037  13.812
28906W        W 1331   7.784  23.704  12.853
28907W        W 1332  28.458  39.883  11.104
28908W        W 1333  22.527  31.992  12.468
28909W        W 1334  24.181  28.669   4.199
28910W        W 1335  11.793   3.859   3.231
28911W        W 1336  32.889  38.842  11.957
28912W        W 1337  26.995  20.029   0.458
28913W        W 1338  18.266  25.046   1.862
28914W        W 1339   5.423  22.143  10.937
28915W        W 1340  40.339  31.438   3.771
28916W        W 1341  18.762  15.101   3.700
28917W        W 1342  14.120   3.262   1.335
28918W        W 1343  28.668  12.827   2.229
28919W        W 1344  32.578  12.140  11.558
28920W        W 1345   9.161  38.002   5.593
28921W        W 1346   5.771  31.089  14.846
28922W        W 1347   0.389  25.525   4.704
28923W        W 1348  42.787  10.189   4.627
28924W        W 1349  41.886  33.568  10.451
28925W        W 1350  34.941  44.465  10.415
28926W        W 1351  23.623  13.298   3.186
28927W        W 1352   3.710  42.953   1.795
28928W        W 1353  37.488  31.965  13.053
28929W        W 1354  41.373  23.194   1.832
28930W        W 1355  15.789   9.766   0.436
28931W        W 1356  21.233  33.409   1.791
28932W        W 1357  42.450  11.824  10.560
28933W        W 1358  13.263  43.366  11.608
28934W        W 1359  28.074  17.655   3.187
28935W        W 1360  36.051  10.163  11.388
28936W        W 1361  42.010   7.359  11.451
28937W        W 1362   0.827  14.726  10.907
28938W        W 1363  24.982  37.042   0.861
28939W        W 1364   6.273  15.305  11.456
28940W        W 1365  35.920  22.653  10.502
28941W        W 1366  14.814   5.395   0.247
28942W        W 1367  20.699   2.916   4.278
28943W        W 1368  40.917  37.355  11.995
28944W        W 1369  10.194  11.683  12.081
28945W        W 1370  38.382  43.971   1.875
28946W        W 1371   1.753  18.245   3.807
28947W        W 1372   4.760  19.236  12.010
28948W        W 1373   3.800  14.675  11.965
28949W        W 1374  28.978   6.341  12.068
28950W        W 1375   4.731   8.340   2.363
28951W        W 1376  41.362  18.280   0.869
28952W        W 1377   1.251  12.738  13.406
28953W        W 1378   6.211  11.151   0.948
28954W        W 1379  25.083  21.611  11.865
28955W        W 1380  41.037  34.978  11.478
28956W        W 1381  35.416  24.564   1.837
28957W        W 1382   9.333  22.092  11.571
28958W        W 1383  25.968  17.651   1.797
28959W        W 1384   0.436  17.188  13.411
28960W        W 1385  28.571  44.501  13.388
28961W        W 1386  35.532   1.274  11.987
28962W        W 1387  16.229  44.918  12.560
28963W        W 1388   1.271  18.679   3.741
28964W        W 1389   8.385  21.076   3.649
28965W        W 1390  21.743  27.449   3.719
28966W        W 1391   3.304   4.880   1.886
28967W        W 1392  21.656  36.585   4.236
28968W        W 1393  18.621  34.457   1.257
28969W        W 1394  33.527   0.906  14.884
28970W        W 1395   8.224  28.997   1.697
28971W        W 1396  16.297  35.571   1.872
28972W        W 1397  19.757  29.968   2.266
28973W        W 1398  40.385  43.437   2.308
28974W        W 1399   1.813  24.611  10.981
28975W        W 1400  26.568  20.612   0.797
28976W        W 1401  12.793  24.688  13.886
28977W        W 1402  33.466  14.098  14.342
28978W        W 1403  10.723  34.483   4.278
28979W        W 1404  29.061  30.957  14.445
28980W        W 1405  38.463  40.912  14.378
28981W        W 1406  32.399  24.558  11.602
28982W        W 1407   6.687  39.512   2.834
28983W        W 1408  12.696  25.180  12.417
28984W        W 1409  29.514   0.346   2.262
28985W        W 1410   6.417  11.271  13.973
28986W        W 1411  35.006  29.920  12.083
28987W        W 1412  20.606  13.603   3.149
28988W        W 1413  29.142  24.093  14.380
28989W        W 1414  29.129  26.571   3.718
28990W        W 1415  34.956  34.969  11.898
28991W        W 1416   3.916  25.548  11.033
28992W        W 1417  43.015  31.940  14.399
28993W        W 1418  24.206  21.253  12.396
28994W        W 1419  16.768  44.784   4.173
28995W        W 1420  21.179  20.266  12.418
28996W        W 1421  20.192  19.606   2.750
28997W        W 1422  15.604  20.758  12.426
28998W        W 1423  39.843  40.997   1.813
28999W        W 1424   3.723   1.781   0.731
29000W        W 1425   9.792  35.556  11.896
29001W        W 1426  31.606  12.191   0.255
29002W        W 1427  15.194  30.476  14.804
29003W        W 1428  29.668  14.330  11.006
29004W        W 1429  22.691  26.058   2.183
29005W        W 1430  42.519   4.264   0.380
29006W        W 1431  18.247  42.282  13.518
29007W        W 1432  40.374   3.237   1.780
29008W        W 1433  38.531  19.545   0.748
29009W        W 1434  21.122  25.576  12.898
29010W        W 1435  14.244  17.089  14.858
29011W        W 1436  39.343  43.405   2.773
29012W        W 1437   8.307  21.666  11.921
29013W        W 1438  37.051   5.302  11.403
29014W        W 1439  25.965  43.494   4.263
29015W        W 1440   1.852  43.808   4.314
29016W        W 1441  27.026  32.077   3.199
29017W        W 1442  41.323  34.888   0.929
29018W        W 1443  13.610  28.186   0.408
29019W        W 1444  40.463  29.433   3.344
29020W        W 1445   3.951  23.163   3.795
29021W        W 1446  38.374  38.560  13.524
29022W        W 1447   5.736   1.247   2.752
29023W        W 1448  38.875  24.118   2.264
29024W        W 1449  35.947  17.288  12.047
29025W        W 1450  20.089  11.702  13.535
29026W        W 1451  37.466  13.312  14.390
29027W        W 1452  15.108  19.581  13.950
29028W        W 1453   6.273   3.902   0.791
29029W        W 1454  44.984   7.892  14.899
29030W        W 1455  22.092  22.121  11.405
29031W        W 1456  11.643  34.465   3.786
29032W        W 1457   7.291  29.622   2.866
29033W        W 1458  32.939  42.489  13.491
29034W        W 1459  26.207  36.920   0.371
29035W        W 1460   7.699  10.352   1.734
29036W        W 1461  37.906  20.643   2.258
29037W        W 1462   9.243  21.168  10.414
29038W        W 1463  42.919   7.785   4.160
29039W        W 1464  44.795  10.729   0.289
29040W        W 1465  34.066  26.556   0.946
29041W        W 1466  11.196  28.953  12.493
29042W        W 1467  18.558   2.372   3.641
29043W        W 1468  15.297  21.682   2.879
29044W        W 1469  44.358  16.788   1.809
29045W        W 1470  36.048   5.348   1.400
29046W        W 1471  39.992  31.055  10.999
29047W        W 1472  15.256  17.086   2.284
29048W        W 1473  15.174  10.222   0.252
29049W        W 1474  44.259  36.845   2.417
29050W        W 1475  37.042  24.975   3.686
29051W        W 1476   6.421  15.292  13.011
29052W        W 1477  43.422   9.646  10.637
29053W        W 1478  29.061   2.895   3.825
29054W        W 1479  10.774  44.306  14.339
29055W        W 1480  32.000  18.223   4.832
29056W        W 1481  37.030  31.035   3.813
29057W        W 1482   5.821  19.236   0.335
29058W        W 1483  12.166   4.221  14.285
29059W        W 1484  18.195  42.994  13.025
29060W        W 1485   3.796  24.146   3.385
29061W        W 1486  16.720  32.051  13.017
29062W        W 1487  29.008  10.738   3.215
29063W        W 1488  37.890   1.973   4.278
29064W        W 1489  35.859   0.945   4.257
29065W        W 1490  26.199  44.826  12.988
29066W        W 1491   8.395   9.280  11.537
29067W        W 1492  34.490  25.513  13.523
29068W        W 1493  33.406  18.684  14.337
29069W        W 1494  15.771  17.271  10.479
29070W        W 1495  28.123  42.427   2.858
29071W        W 1496   5.694   1.333  10.415
29072W        W 1497  34.003  35.520  14.276
29073W        W 1498  41.356  41.982  11.886
29074W        W 1499  37.485  20.212  14.354
29075W        W 1500  18.110  14.168   4.833
29076W        W 1501   0.831  33.522  13.022
29077W        W 1502  20.621  25.525  12.889
29078W        W 1503  33.533  34.078   1.220
29079W        W 1504  42.883  25.586   0.447
29080W        W 1505  23.030  29.473  14.761
29081W        W 1506  20.051  17.281  11.883
29082W        W 1507  38.354  37.955   2.681
29083W        W 1508   9.663  32.517   1.341
29084W        W 1509   0.962  11.631  11.086
29085W        W 1510  24.096  16.163   0.749
29086W        W 1511  22.217   0.256  13.516
29087W        W 1512  11.143  21.543   3.272
29088W        W 1513  12.204  26.052   0.451
29089W        W 1514  14.820  35.948   2.818
29090W        W 1515  13.212   8.899   3.170
29091W        W 1516  39.982   9.202   3.745
29092W        W 1517  41.957  42.419   2.851
29093W        W 1518  32.036  19.220   0.887
29094W        W 1519  14.697  31.094  14.284
29095W        W 1520  43.381  12.795  11.918
29096W        W 1521  39.399  30.984  14.459
29097W        W 1522  29.488   4.847   0.841
29098W        W 1523  40.343  41.009   1.447
29099W        W 1524   3.303  16.679   0.851
29100W        W 1525   2.226   2.904  13.534
29101W        W 1526  16.774  44.342  14.441
29102W        W 1527  14.300  22.642  12.518
29103W        W 1528  42.911  20.197   1.792
29104W        W 1529  18.206  14.604   1.735
29105W        W 1530  29.073  39.941  14.897
29106W        W 1531  39.945  32.571  11.607
29107W        W 1532   5.341  39.967   1.813
29108W        W 1533  10.663  18.770   2.847
29109W        W 1534  40.984  41.809   1.788
29110W        W 1535   6.713   3.398  14.010
29111W        W 1536  10.715  40.869  13.369
29112W        W 1537  21.718  42.435  14.309
29113W        W 1538  24.592  13.320  12.444
29114W        W 1539  10.853   5.707  14.331
29115W        W 1540  25.495   2.353   3.264
29116W        W 1541  36.987  39.979   2.263
29117W        W 1542  17.298  18.674  10.954
29118W        W 1543  39.046  19.538  13.454
29119W        W 1544  15.754  22.056   0.400
29120W        W 1545  12.758   2.358  11.858
29121W        W 1546   9.783  25.649  10.550
29122W        W 1547  27.130  44.299   3.386
29123W        W 1548   5.432  28.575   3.668
29124W        W 1549  41.948  33.391   4.648
29125W        W 1550  22.133  28.604   4.835
29126W        W 1551  30.518  20.246   4.731
29127W        W 1552   5.927  27.127  13.021
29128W        W 1553   7.813   0.976  14.279
29129W        W 1554  24.987  10.272  11.505
29130W        W 1555  38.954  27.129  13.953
29131W        W 1556   0.342  25.080   3.169
29132W        W 1557  14.642   9.203   4.244
29133W        W 1558  18.247   4.792   0.967
29134W        W 1559   4.354  17.095  14.312
29135W        W 1560  12.818  30.643  10.913
29136W        W 1561  25.199  36.850  10.986
29137W        W 1562  13.275  23.122   2.775
29138W        W 1563  27.535  11.794   2.324
29139W        W 1564  44.496  19.142  13.023
29140W        W 1565  30.009  16.723  11.003
29141W        W 1566  13.140  44.920  12.022
29142W        W 1567   6.312  35.461  12.372
29143W        W 1568  15.711  13.755   2.199
29144W        W 1569  10.853  13.329   1.252
29145W        W 1570   9.785  13.199   3.291
29146W        W 1571  21.186   1.891   0.740
29147W        W 1572  23.010  24.200  12.510
29148W        W 1573   1.399  42.351   2.719
29149W        W 1574   5.253  37.929   3.857
29150W        W 1575  25.674  31.959   4.206
29151W        W 1576   5.350   0.941  13.442
29152W        W 1577  43.285  30.459  11.595
29153W        W 1578  10.832  38.976  12.521
29154W        W 1579   9.199  41.878   3.214
29155W        W 1580   5.840  17.720   0.756
29156W        W 1581  34.464  38.902  14.324
29157W        W 1582   2.249   0.885   5.308
29158W        W 1583   1.749  18.215  13.999
29159W        W 1584   9.789  32.940  13.351
29160W        W 1585  44.939  28.563  14.788
29161W        W 1586  14.777   3.831   1.355
29162W        W 1587  40.978   1.832  13.920
29163W        W 1588  26.040  21.184   4.640
29164W        W 1589   6.185   6.828  10.950
29165W        W 1590  25.178  22.636  11.593
29166W        W 1591  14.620  25.175  13.853
29167W        W 1592  35.550   2.747   4.813
29168W        W 1593  31.939  32.605   2.854
29169W        W 1594  43.372  14.757   2.232
29170W        W 1595  33.603  37.365  13.833
29171W        W 1596  16.751  37.890   4.283
29172W        W 1597   5.882  25.627  13.870
29173W        W 1598  24.500  39.350  12.387
29174W        W 1599  36.096  26.026  10.935
29175W        W 1600  12.220  21.168   0.298
29176W        W 1601  42.984   5.692   0.798
29177W        W 1602  39.383  42.996  11.920
29178W        W 1603   0.305   8.212  12.508
29179W        W 1604  16.247  32.025  13.496
29180W        W 1605  44.857  14.242   3.719
29181W        W 1606  28.626  43.486  12.514
29182W        W 1607  36.506  32.965  12.823
29183W        W 1608  35.477  30.587   0.317
29184W        W 1609  32.958   6.751  13.942
29185W        W 1610  27.968  39.918   3.760
29186W        W 1611   0.394  11.191  12.549
29187W        W 1612  17.710   5.416   0.874
29188W        W 1613   6.744  10.838  12.493
29189W        W 1614  13.113  35.941   2.275
29190W        W 1615   2.806  11.147   1.870
29191W        W 1616   7.211  35.985  10.040
29192W        W 1617   0.790  32.571  14.904
29193W        W 1618   5.843  36.028  11.521
29194W        W 1619  21.163   9.824   0.877
29195W        W 1620   8.861  35.541   2.886
29196W        W 1621  29.090  17.678  14.321
29197W        W 1622  24.604  39.538  14.296
29198W        W 1623  24.603  42.286  12.967
29199W        W 1624   2.909  15.251  12.415
29200W        W 1625   9.755  17.672   4.718
29201W        W 1626  41.382  13.782   4.185
29202W        W 1627  30.949   2.418  11.401
29203W        W 1628  32.112  33.622  12.352
29204W        W 1629   7.284  20.167   4.281
29205W        W 1630  35.993  18.129  12.029
29206W        W 1631   0.338  17.194   1.451
29207W        W 1632  32.128  11.729   4.608
29208W        W 1633   6.756  41.940  13.056
29209W        W 1634   9.314  33.555   2.264
29210W        W 1635   7.865  31.944  14.376
29211W        W 1636   0.898   7.352  14.788
29212W        W 1637  36.467  21.654  12.376
29213W        W 1638  22.569  32.069   3.769
29214W        W 1639   7.887   5.691   2.230
29215W        W 1640   3.924  33.992  10.953
29216W        W 1641  20.688   9.238   4.642
29217W        W 1642  32.552  20.273  13.344
29218W        W 1643   9.765  32.136  11.028
29219W        W 1644  11.836  15.802  10.906
29220W        W 1645   0.305  24.030   1.324
29221W        W 1646  26.069   2.774  10.982
29222W        W 1647   3.955  10.254   4.619
29223W        W 1648   0.880  36.368   1.730
29224W        W 1649  36.527   6.292   4.240
29225W        W 1650  19.670  35.985   2.379
29226W        W 1651  44.950  11.833   0.262
29227W        W 1652   6.721  37.382  10.451
29228W        W 1653  15.275   1.292   1.273
29229W        W 1654  16.804   7.267   3.375
29230W        W 1655  24.010  28.663  11.510
29231W        W 1656  27.453  14.251   0.805
29232W        W 1657  26.683   3.925  13.940
29233W        W 1658  36.969   2.348  14.813
29234W        W 1659  39.002   3.761   3.245
29235W        W 1660  33.514  17.122  13.802
29236W        W 1661  15.182  37.420   0.850
29237W        W 1662  40.536   4.784   4.746
29238W        W 1663  11.147  14.726  12.538
29239W        W 1664  22.663  31.460   4.143
29240W        W 1665   2.419  32.412  13.417
29241W        W 1666  18.216  17.138  13.879
29242W        W 1667  32.008  34.865   2.785
29243W        W 1668  30.114  11.328   2.353
29244W        W 1669  37.954  22.745  14.800
29245W        W 1670  14.157  36.513   0.301
29246W        W 1671  22.550  21.608   0.906
29247W        W 1672  37.879  28.488  14.927
29248W        W 1673  34.101   1.925   1.771
29249W        W 1674  10.226  25.660   0.743
29250W        W 1675   4.375   7.257   3.749
29251W        W 1676  24.654  12.827   4.264
29252W        W 1677  17.282   5.383   4.165
29253W        W 1678   7.701  32.023  13.450
29254W        W 1679  29.554  43.299  11.922
29255W        W 1680  13.755  34.950   2.182
29256W        W 1681  31.972  27.967  13.454
29257W        W 1682  21.550  32.098   2.666
29258W        W 1683  34.601   5.924  12.859
29259W        W 1684  22.247  28.178   1.861
29260W        W 1685  29.458  13.284  11.417
29261W        W 1686   5.690  33.534   2.681
29262W        W 1687  20.227  12.164   3.327
29263W        W 1688  13.317  38.413  13.901
29264W        W 1689  41.036  20.212  12.445
29265W        W 1690   6.757  14.743  14.016
29266W        W 1691  12.361  32.495  14.933
29267W        W 1692  18.091  18.133  11.018
29268W        W 1693  12.636  34.926  12.971
29269W        W 1694  20.763  20.058  11.943
29270W        W 1695   9.715  32.463  12.823
29271W        W 1696  26.960  28.176   9.989
29272W        W 1697   7.329  16.316  10.636
29273W        W 1698  12.352  19.112   0.362
29274W        W 1699  42.349   8.759  14.863
29275W        W 1700  30.598   9.768   1.878
29276W        W 1701  40.960   7.746  11.874
29277W        W 1702  31.495  25.473  14.428
29278W        W 1703  25.130   6.857   3.805
29279W        W 1704  15.121   3.318  11.488
29280W        W 1705  25.705   7.865   2.783
29281W        W 1706  38.907  28.044  10.467
29282W        W 1707   9.369  19.282  10.561
29283W        W 1708  43.326   8.656  11.582
29284W        W 1709   6.410  30.541   1.735
29285W        W 1710   7.825  24.568  11.469
29286W        W 1711   0.457  17.078   0.341
29287W        W 1712  44.002  24.666  10.578
29288W        W 1713  29.589   7.806   0.285
29289W        W 1714  14.311   2.275  12.497
29290W        W 1715  34.540  20.232   2.809
29291W        W 1716   2.925  25.616   2.782
29292W        W 1717  26.056   6.291  10.932
29293W        W 1718  38.857   2.816   4.802
29294W        W 1719  19.108   8.198  14.458
29295W        W 1720  40.460  22.186  12.006
29296W        W 1721  33.384  30.073  10.962
29297W        W 1722  37.042  14.120   0.477
29298W        W 1723  12.771  34.383  14.297
29299W        W 1724   9.225  28.094  12.473
29300W        W 1725  19.250   0.401   3.856
29301W        W 1726   2.840  32.535   3.799
29302W        W 1727  10.769  20.245   2.781
29303W        W 1728  11.813  36.097  12.860
29304W        W 1729  40.458  20.156   3.262
29305W        W 1730  17.704  35.016  13.946
29306W        W 1731   1.741   9.392   0.337
29307W        W 1732  19.067  15.124   2.238
29308W        W 1733  36.400   3.881   1.855
29309W        W 1734  21.076  43.859  10.558
29310W        W 1735   3.894  16.268  13.379
29311W        W 1736  43.329  44.868  12.399
29312W        W 1737   5.899   3.374   3.651
29313W        W 1738  41.009  36.853   4.145
29314W        W 1739  27.619  10.784  11.568
29315W        W 1740  18.672  14.173  10.924
29316W        W 1741  40.968  40.044  13.411
29317W        W 1742  19.739   0.478   3.232
29318W        W 1743  14.263  37.458  13.518
29319W        W 1744   7.831  35.995   4.616
29320W        W 1745  32.426  15.174  12.966
29321W        W 1746  21.172   6.823   3.704
29322W        W 1747   4.727  33.060  10.431
29323W        W 1748  42.940  38.899   0.775
29324W        W 1749  40.382  36.377  12.994
29325W        W 1750   0.431  40.466  11.026
29326W        W 1751  30.002  30.950   1.358
29327W        W 1752  42.526  34.446   3.164
29328W        W 1753  33.061  31.535  11.952
29329W        W 1754  21.202  42.280  10.977
29330W        W 1755  30.053  15.184   0.947
29331W        W 1756  11.367  41.499   0.740
29332W        W 1757   2.791  29.648  10.601
29333W        W 1758   6.718  22.038   4.320
29334W        W 1759  42.868  10.698   2.755
29335W        W 1760  20.151  26.159  11.121
29336W        W 1761  43.492  20.183  13.389
29337W        W 1762   3.309  28.985  13.816
29338W        W 1763   9.818  31.572   4.182
29339W        W 1764  29.546  22.127  11.441
29340W        W 1765   7.795  24.105  14.376
29341W        W 1766  17.628  38.556   1.296
29342W        W 1767   1.917  33.953   3.338
29343W        W 1768   6.191  40.498   4.764
29344W        W 1769  15.207   7.887  14.359
29345W        W 1770  34.597   3.329  14.873
29346W        W 1771  11.665  42.869   4.302
29347W        W 1772  10.161   6.219  13.356
29348W        W 1773  23.623   3.799   4.141
29349W        W 1774   1.291   8.811  11.574
29350W        W 1775   5.861  27.586  10.453
29351W        W 1776  24.162  30.465   0.832
29352W        W 1777  27.077  24.717   0.242
29353W        W 1778   7.818   5.343  11.428
29354W        W 1779  30.540  14.780   2.391
29355W        W 1780  16.112  24.202   5.092
29356W        W 1781   5.796  27.628  12.910
29357W        W 1782   2.261   1.244  14.772
29358W        W 1783  15.713  38.824   5.308
29359W        W 1784  23.687  13.711   3.370
29360W        W 1785   7.240  27.566  11.452
29361W        W 1786   1.319   7.801   2.412
29362W        W 1787  41.325  39.931  14.342
29363W        W 1788   3.913  18.210  13.025
29364W        W 1789  21.102  40.438   1.272
29365W        W 1790  36.862   0.270  11.413
29366W        W 1791  26.131  36.094  10.919
29367W        W 1792  33.953  19.580  11.077
29368W        W 1793  10.711  15.319  10.965
29369W        W 1794  20.750  40.521  12.952
29370W        W 1795  31.618  15.581   3.762
29371W        W 1796  15.715  21.655   1.928
29372W        W 1797  35.886  10.759  10.622
29373W        W 1798  24.143  18.127  13.809
29374W        W 1799  19.601   9.156   5.318
29375W        W 1800   9.653   9.714   4.648
29376W        W 1801  19.685  23.107   2.821
29377W        W 1802   5.863  26.063  12.426
29378W        W 1803  38.917  37.463  11.990
29379W        W 1804  17.174  25.486   0.959
29380W        W 1805  32.984  25.124  13.816
29381W        W 1806  10.147   6.881  12.506
29382W        W 1807  18.295  18.093   2.235
29383W        W 1808  11.783   4.283  12.010
29384W        W 1809  18.715  31.986  14.441
29385W        W 1810  11.138  13.317   4.113
29386W        W 1811  22.161  43.849   4.232
29387W        W 1812  26.170   8.172  14.495
29388W        W 1813  36.513  26.015  11.496
29389W        W 1814  22.626  27.011   1.312
29390W        W 1815   7.248  19.614  14.409
29391W        W 1816   6.731   8.845   4.735
29392W        W 1817  15.737  35.866  13.959
29393W        W 1818  44.308  37.830   3.667
29394W        W 1819  10.350  41.405   0.264
29395W        W 1820  14.592  18.598   0.948
29396W        W 1821   5.738  26.961   0.408
29397W        W 1822   8.198  35.935   4.692
29398W        W 1823  39.412   0.926  10.543
29399W        W 1824  32.992  17.620   1.420
29400W        W 1825  37.367  25.627  13.003
29401W        W 1826  38.475  25.024  11.882
29402W        W 1827  25.110  32.413   3.245
29403W        W 1828   1.909  11.833   2.845
29404W        W 1829  19.607   1.305  13.406
29405W        W 1830   0.320  26.164   4.720
29406W        W 1831  25.976  43.280  12.565
29407W        W 1832  19.636   1.426   1.241
29408W        W 1833  27.058  36.881  14.870
29409W        W 1834  22.728  25.547   1.238
29410W        W 1835   6.331  33.948  10.551
29411W        W 1836  24.042  35.093   3.794
29412W        W 1837  31.436  19.773   0.364
29413W        W 1838   1.338   0.321   1.802
29414W        W 1839  10.340  33.548   3.381
29415W        W 1840  29.146  42.385   2.881
29416W        W 1841  22.058   8.761   3.323
29417W        W 1842   6.227   3.401   2.892
29418W        W 1843  39.550   1.847  14.900
29419W        W 1844  35.397   1.321   0.733
29420W        W 1845  19.106  36.346  11.438
29421W        W 1846  39.321  21.138  14.472
29422W        W 1847  27.670  30.440   9.656
29423W        W 1848   1.383   0.313   4.677
29424W        W 1849   0.473  38.982  10.498
29425W        W 1850  24.629  25.082   4.325
29426W        W 1851  28.463  27.122  14.971
29427W        W 1852  11.254   6.292  10.967
29428W        W 1853  29.056   1.908  11.908
29429W        W 1854  22.106   1.841  13.010
29430W        W 1855   1.372  23.151   1.848
29431W        W 1856   6.239   7.761   3.642
29432W        W 1857  35.108  30.649   1.744
29433W        W 1858  15.284  28.567  11.052
29434W        W 1859  23.154   8.792   3.228
29435W        W 1860  18.061  35.381   2.898
29436W        W 1861   1.839  30.968   0.871
29437W        W 1862  28.466  10.785  14.501
29438W        W 1863  26.024  34.922   1.359
29439W        W 1864  23.697  42.001   0.779
29440W        W 1865  19.231   7.263  11.081
29441W        W 1866   8.791  33.912   0.764
29442W        W 1867  12.687   3.313   3.807
29443W        W 1868  39.316   7.696  14.872
29444W        W 1869  22.723  22.225  11.084
29445W        W 1870  14.168  16.703  12.863
29446W        W 1871  20.053  26.514  13.531
29447W        W 1872  21.103  21.651  12.467
29448W        W 1873  20.034  19.639  13.827
29449W        W 1874  41.337  24.716  14.495
29450W        W 1875   4.738  39.355  14.009
29451W        W 1876  24.629   5.759  11.110
29452W        W 1877  23.690  27.107   0.846
29453W        W 1878   6.260  27.116   4.663
29454W        W 1879  21.226  28.446   1.696
29455W        W 1880  40.845  39.455   0.751
29456W        W 1881  10.341  43.011   1.847
29457W        W 1882   8.375  43.841   4.126
29458W        W 1883   2.315  11.857  11.567
29459W        W 1884  13.793  11.238  14.427
29460W        W 1885  18.546   5.822   1.398
29461W        W 1886  13.782  40.391   3.813
29462W        W 1887  34.012  25.095  11.991
29463W        W 1888  42.283   6.847  13.329
29464W        W 1889  27.593  39.845  11.977
29465W        W 1890  42.963  27.453   4.767
29466W        W 1891   0.748  42.294   1.836
29467W        W 1892  15.224  14.699  10.643
29468W        W 1893  28.979   6.784  12.013
29469W        W 1894   7.252   7.201  11.031
29470W        W 1895  36.584  19.539   0.748
29471W        W 1896  42.365  33.911  12.881
29472W        W 1897  11.130   4.325  14.305
29473W        W 1898  36.408  20.192  11.535
29474W        W 1899  26.637  22.640   4.721
29475W        W 1900   3.746  41.975   0.385
29476W        W 1901  10.194   5.753  14.388
29477W        W 1902  18.609  39.864  12.868
29478W        W 1903  12.802   4.328  14.768
29479W        W 1904   7.667   8.361   4.340
29480W        W 1905  19.164  35.856   2.409
29481W        W 1906  37.986   8.269   3.719
29482W        W 1907   9.767  24.148   3.723
29483W        W 1908  32.130  42.821  11.123
29484W        W 1909  30.991   7.393   2.773
29485W        W 1910  11.297  12.758   3.745
29486W        W 1911  38.847  16.742  10.918
29487W        W 1912  34.591  15.268   3.673
29488W        W 1913  34.526  34.961  14.444
29489W        W 1914   8.804   9.772   1.436
29490W        W 1915   7.401   6.226  11.456
29491W        W 1916   2.794  25.973   0.898
29492W        W 1917  40.007  33.462  12.985
29493W        W 1918  34.869  38.336   2.865
29494W        W 1919  41.475  33.464  11.393
29495W        W 1920  18.689  37.932   3.280
29496W        W 1921   3.235  38.491  13.311
29497W        W 1922  19.198  23.693  10.466
29498W        W 1923  22.551  31.995  14.816
29499W        W 1924  41.452  17.252  12.381
29500W        W 1925  22.188  42.929  13.932
29501W        W 1926  14.610  15.642   1.210
29502W        W 1927  30.115  23.634  12.531
29503W        W 1928   8.314  11.726  13.943
29504W        W 1929  32.130  40.423  11.955
29505W        W 1930  21.703  37.504   3.157
29506W        W 1931  44.935   6.298   2.218
29507W        W 1932  34.984  13.714   1.371
29508W        W 1933  40.006  30.482   2.404
29509W        W 1934  29.426  15.234   1.291
29510W        W 1935  33.926  39.342  14.859
29511W        W 1936  24.127   1.924   2.756
29512W        W 1937  42.487  40.931  14.900
29513W        W 1938  21.078  14.310  12.542
29514W        W 1939  25.069  22.701  10.558
29515W        W 1940  31.104  26.617   2.877
29516W        W 1941   7.234  31.959  13.915
29517W        W 1942   5.921  30.155  14.959
29518W        W 1943   5.922  13.725   0.807
29519W        W 1944  40.519  44.878   1.315
29520W        W 1945  35.054  24.121   3.821
29521W        W 1946  16.282  25.542  10.894
29522W        W 1947  23.537   0.838   2.716
29523W        W 1948  24.545  16.736  13.040
29524W        W 1949  43.881   3.386  12.490
29525W        W 1950  21.088  21.561   2.179
29526W        W 1951  34.043   7.708   3.299
29527W        W 1952  25.491  22.193  12.076
29528W        W 1953  13.756  19.204   0.289
29529W        W 1954  11.299  40.408  13.524
29530W        W 1955  27.682  14.732  11.412
29531W        W 1956  35.088   0.902  14.410
29532W        W 1957   2.806   0.836   4.765
29533W        W 1958  15.204  16.091  11.585
29534W        W 1959  32.621  30.485  11.980
29535W        W 1960   8.689  33.069  11.867
29536W        W 1961  13.823  24.025  14.830
29537W        W 1962  15.774  44.968  10.950
29538W        W 1963  36.371  17.685  12.027
29539W        W 1964  36.589   4.710  11.945
29540W        W 1965  14.689  24.053  10.420
29541W        W 1966   5.342   7.349  13.013
29542W        W 1967  12.645  35.017   0.375
29543W        W 1968  42.461  33.023   4.324
29544W        W 1969   2.259   0.972   3.641
29545W        W 1970  14.649  25.179   5.227
29546W        W 1971  31.599  44.298  11.913
29547W        W 1972  15.182  39.516  13.834
29548W        W 1973  14.821  44.399  11.591
29549W        W 1974  14.310  35.087   1.386
29550W        W 1975  19.753  43.881   2.719
29551W        W 1976  10.749  13.160   3.239
29552W        W 1977   0.864  17.256   1.718
29553W        W 1978  37.976  43.319  13.548
29554W        W 1979  16.125  10.684  12.561
29555W        W 1980  19.240   7.174   1.284
29556W        W 1981  37.957   6.396   4.729
29557W        W 1982  43.463  23.607  13.792
29558W        W 1983  37.875  11.320   2.413
29559W        W 1984  38.981   6.828   3.858
29560W        W 1985  30.052   8.162  13.363
29561W        W 1986   9.315  43.786  11.053
29562W        W 1987  13.672  35.463   4.691
29563W        W 1988  36.552   7.908  13.927
29564W        W 1989   4.300   5.392  14.947
29565W        W 1990  42.846  17.793   2.844
29566W        W 1991  11.282  26.104   3.633
29567W        W 1992   0.841  37.843  12.924
29568W        W 1993  24.497  22.209   4.833
29569W        W 1994  43.336  31.040  10.465
29570W        W 1995  33.965   7.243  13.045
29571W        W 1996  44.941   2.807  13.940
29572W        W 1997  18.216  27.564  13.377
29573W        W 1998  34.456  28.605  12.058
29574W        W 1999   3.225  27.652   2.712
29575W        W 2000   9.245  38.443  11.010
29576W        W 2001  23.163  43.825   2.240
29577W        W 2002  22.190   6.903  13.412
29578W        W 2003  28.109  24.133  13.371
29579W        W 2004  32.530  14.131   4.754
29580W        W 2005  18.656   1.442   9.605
29581W        W 2006  18.200   4.882   2.258
29582W        W 2007  19.648  29.043  10.125
29583W        W 2008  35.577  15.260  13.050
29584W        W 2009  38.873  35.448  14.292
29585W        W 2010   3.252  38.492   2.870
29586W        W 2011  18.113   8.348   2.782
29587W        W 2012   2.265   7.210  10.548
29588W        W 2013  14.722  20.072  12.023
29589W        W 2014   1.833  11.172   1.257
29590W        W 2015  16.749  42.855  10.988
29591W        W 2016  24.015  35.378   0.324
29592W        W 2017  32.923  35.520  11.043
29593W        W 2018  11.160   1.917  11.943
29594W        W 2019  20.751  17.757   4.756
29595W        W 2020  35.588  16.078   2.711
29596W        W 2021   6.216  43.998   4.275
29597W        W 2022   2.783  25.005  14.480
29598W        W 2023  36.485  29.112  10.138
29599W        W 2024  14.145   2.268   3.674
29600W        W 2025  17.704  35.994  12.033
29601W        W 2026  18.057  38.975  11.876
29602W        W 2027   9.676  43.335   3.671
29603W        W 2028  17.556   2.472  12.896
29604W        W 2029  20.133   8.779   4.264
29605W        W 2030   8.164  14.704  11.869
29606W        W 2031   9.683  12.124  13.417
29607W        W 2032  44.436  22.239  12.369
29608W        W 2033  13.175  34.559  12.556
29609W        W 2034  39.841   0.250  11.867
29610W        W 2035  18.154  35.939  13.349
29611W        W 2036   7.679  42.978   1.342
29612W        W 2037  37.436   3.302   2.316
29613W        W 2038   2.772  29.596  10.911
29614W        W 2039  37.457  39.535   4.199
29615W        W 2040  15.729   5.231  13.052
29616W        W 2041  14.279   2.822  11.929
29617W        W 2042  30.539  34.586   0.786
29618W        W 2043  16.214  31.546  11.415
29619W        W 2044  27.551  23.552   1.329
29620W        W 2045   0.316   7.878   2.760
29621W        W 2046  34.059  36.544   2.255
29622W        W 2047  36.930  36.545  11.999
29623W        W 2048  34.946   9.237  12.521
29624W        W 2049  16.243  11.177   3.291
29625W        W 2050  42.878   1.322   1.340
29626W        W 2051  19.188  41.516   1.286
29627W        W 2052  36.502   8.792   1.284
29628W        W 2053  36.092  14.696  13.872
29629W        W 2054  35.399  44.766   3.666
29630W        W 2055  37.578   4.939  11.381
29631W        W 2056  38.383  27.462   4.621
29632W        W 2057  23.210  25.582   4.306
29633W        W 2058   0.930  29.530   1.396
29634W        W 2059   7.307  10.831  13.025
29635W        W 2060  18.588   6.908   3.373
29636W        W 2061  28.004   1.763  10.050
29637W        W 2062  37.382  10.737   2.677
29638W        W 2063  37.952   6.827  12.996
29639W        W 2064   5.783   7.839  10.978
29640W        W 2065  44.422   9.688  11.483
29641W        W 2066  22.027  33.545   2.869
29642W        W 2067  26.539  28.130   5.105
29643W        W 2068  11.342  29.067  13.443
29644W        W 2069  29.082  34.567  11.390
29645W        W 2070  18.238  30.107  14.877
29646W        W 2071   6.750  13.827  11.866
29647W        W 2072  40.516  14.237  14.944
29648W        W 2073  43.013  14.767   4.774
29649W        W 2074   3.863   2.232   0.404
29650W        W 2075  18.563  34.531  14.915
29651W        W 2076  40.849  22.531   4.188
29652W        W 2077  44.769  25.626  14.358
29653W        W 2078  19.579   6.203  10.579
29654W        W 2079  20.044  42.412   1.363
29655W        W 2080   6.202  44.446   0.436
29656W        W 2081  10.664   3.412  13.505
29657W        W 2082   5.296  35.381  10.936
29658W        W 2083  10.245  30.504   5.136
29659W        W 2084   6.394  37.881  14.788
29660W        W 2085   0.783   4.325  11.522
29661W        W 2086  11.822  39.447   0.335
29662W        W 2087   0.355  18.553   4.623
29663W        W 2088  36.557  25.680   3.742
29664W        W 2089   4.760   1.932   0.845
29665W        W 2090   2.248  44.999   1.774
29666W        W 2091   9.667  26.032   3.320
29667W        W 2092  20.058  37.057  13.851
29668W        W 2093  33.485   6.426   1.404
29669W        W 2094  17.121  19.651   0.327
29670W        W 2095  35.550   6.288  10.928
29671W        W 2096  40.922  21.040  14.898
29672W        W 2097  35.479  17.267   4.707
29673W        W 2098  18.776   7.321  11.444
29674W        W 2099  12.328  20.036  13.833
29675W        W 2100   6.359  31.502  12.847
29676W        W 2101  38.338  21.048   4.131
29677W        W 2102  14.797  11.649  13.999
29678W        W 2103   7.262   7.710  11.027
29679W        W 2104   3.305  26.087  12.857
29680W        W 2105  21.616  18.620  10.483
29681W        W 2106  22.689  12.261   4.203
29682W        W 2107   5.332  37.377  10.056
29683W        W 2108  22.633  41.293   1.400
29684W        W 2109  27.103  20.032  14.333
29685W        W 2110   5.194  39.864  13.820
29686W        W 2111  21.667   5.910  13.490
29687W        W 2112   6.835  11.362   2.226
29688W        W 2113   2.921  37.923  12.074
29689W        W 2114  13.667  21.073  10.986
29690W        W 2115  27.512  28.010   3.786
29691W        W 2116  15.207  23.113  11.398
29692W        W 2117  34.612  23.549   5.315
29693W        W 2118  14.225  20.723  14.356
29694W        W 2119   3.392  16.591   1.899
29695W        W 2120  28.106  43.351   4.127
29696W        W 2121   9.735  16.637  12.482
29697W        W 2122  36.481  20.152  11.995
29698W        W 2123  40.979   5.327   4.275
29699W        W 2124  13.300  20.266  13.537
29700W        W 2125  13.171   1.803  11.528
29701W        W 2126  20.137   9.281  14.450
29702W        W 2127  26.057  14.695  11.544
29703W        W 2128   7.894  23.225  13.033
29704W        W 2129   4.712   3.269  10.450
29705W        W 2130  26.059  43.361   1.909
29706W        W 2131  29.644   9.859   0.828
29707W        W 2132  23.084  38.026   2.404
29708W        W 2133  25.184  38.038  13.350
29709W        W 2134  40.516   9.872  11.492
29710W        W 2135  17.595  43.486  10.577
29711W        W 2136  16.737  17.225   2.314
29712W        W 2137   4.400  16.294  13.469
29713W        W 2138  39.514  34.407   3.274
29714W        W 2139  33.577  16.243   1.907
29715W        W 2140  21.523  43.766   3.764
29716W        W 2141   8.249   5.880   9.552
29717W        W 2142  15.172  40.984   1.319
29718W        W 2143  10.308  34.552   4.633
29719W        W 2144   6.254  13.633   2.734
29720W        W 2145  13.785  14.248  12.830
29721W        W 2146  23.539  39.542  13.895
29722W        W 2147  19.043   5.424   4.722
29723W        W 2148  31.415  24.683   4.727
29724W        W 2149  43.000  22.518  13.516
29725W        W 2150   5.816  23.667  14.979
29726W        W 2151  34.510   0.884   4.602
29727W        W 2152  19.143   4.933  11.990
29728W        W 2153  39.945  38.891   2.889
29729W        W 2154  18.598  20.068  13.417
29730W        W 2155  32.523  25.476  12.027
29731W        W 2156   5.748  43.982   1.878
29732W        W 2157   5.880  34.038  14.007
29733W        W 2158  32.466   7.774   3.798
29734W        W 2159  13.317  41.408  10.494
29735W        W 2160  16.243  43.765  12.340
29736W        W 2161  38.830   9.684   3.204
29737W        W 2162   5.866  17.705  11.919
29738W        W 2163  24.626  30.106   2.405
29739W        W 2164  33.400   5.194  12.926
29740W        W 2165  39.542  35.371   1.799
29741W        W 2166  26.058  20.122  11.886
29742W        W 2167  17.710  24.027   4.655
29743W        W 2168  27.147   1.742   0.734
29744W        W 2169  19.626  22.178  14.956
29745W        W 2170  33.071  23.998  11.473
29746W        W 2171  42.296  32.463  12.460
29747W        W 2172  20.251  33.536   2.210
29748W        W 2173  39.837  41.460  10.054
29749W        W 2174  18.256  19.565   3.722
29750W        W 2175   8.183   3.449   3.196
29751W        W 2176  29.618   0.322   3.223
29752W        W 2177  26.651  34.446   3.253
29753W        W 2178  11.175  29.590  11.403
29754W        W 2179  23.088  12.789   3.172
29755W        W 2180  37.529  10.682  12.535
29756W        W 2181  41.875   8.178  12.833
29757W        W 2182  30.939  36.073   1.243
29758W        W 2183  32.636  22.545   2.725
29759W        W 2184   6.248   6.904  13.015
29760W        W 2185  37.872  37.550   5.102
29761W        W 2186  29.464  22.118  12.974
29762W        W 2187   3.391  34.985   3.798
29763W        W 2188   8.352  20.634  11.509
29764W        W 2189  43.864  28.976   2.371
29765W        W 2190  27.142  17.139  11.980
29766W        W 2191   5.845   0.949   3.761
29767W        W 2192  18.695  23.499  14.374
29768W        W 2193  38.385  22.188   1.729
29769W        W 2194  34.612   6.728   4.612
29770W        W 2195   4.384  30.016   0.753
29771W        W 2196   6.263   9.654  11.096
29772W        W 2197   5.914  13.158   0.875
29773W        W 2198  33.422   5.919   2.199
29774W        W 2199  34.375   0.862  14.928
29775W        W 2200  42.422  32.987  13.357
29776W        W 2201  39.928  30.032   0.966
29777W        W 2202  37.942  12.855   2.859
29778W        W 2203  12.203  14.821   1.344
29779W        W 2204  28.942  42.030   3.760
29780W        W 2205  25.125  28.482   2.685
29781W        W 2206  10.863   8.283  12.372
29782W        W 2207  12.703  31.611   2.244
29783W        W 2208  24.085  19.200   0.965
29784W        W 2209  10.854  28.631  13.381
29785W        W 2210  43.498  17.134  11.935
29786W        W 2211   4.830  38.416   1.860
29787W        W 2212  18.248  43.492  11.989
29788W        W 2213  30.481  17.630   5.308
29789W        W 2214  44.970  33.080   2.267
29790W        W 2215  35.064  42.006  14.425
29791W        W 2216   5.214  29.061  14.764
29792W        W 2217   2.419  44.976  14.905
29793W        W 2218  25.206  36.522  10.626
29794W        W 2219   1.346  42.956   0.779
29795W        W 2220  11.706  23.671   5.278
29796W        W 2221  27.147  31.088   9.502
29797W        W 2222  25.625  32.055  12.943
29798W        W 2223  15.303  29.931   0.836
29799W        W 2224  24.573  44.318  14.498
29800W        W 2225  15.253  20.190   4.314
29801W        W 2226  11.348  10.872   3.818
29802W        W 2227  20.174  42.470   0.739
29803W        W 2228  29.121  24.157  10.440
29804W        W 2229   1.736   8.857  10.991
29805W        W 2230  14.833   7.235   3.305
29806W        W 2231  16.272  43.349   2.203
29807W        W 2232  38.061  22.676  12.415
29808W        W 2233  12.176  24.699  10.458
29809W        W 2234   7.318  33.580  13.449
29810W        W 2235   8.838  12.768  11.901
29811W        W 2236  20.203  39.892  10.630
29812W        W 2237  35.437   2.871   1.735
29813W        W 2238  15.308  39.062   4.151
29814W        W 2239  20.221  33.451   3.819
29815W        W 2240  11.234  10.812  12.876
29816W        W 2241  24.047  25.124   4.170
29817W        W 2242   2.347  20.198   0.372
29818W        W 2243  15.173  16.733  13.474
29819W        W 2244  44.819  10.267   1.809
29820W        W 2245  35.482  22.134  10.485
29821W        W 2246  14.119  33.017  13.414
29822W        W 2247  20.530  36.349   1.385
29823W        W 2248  38.461   0.862   1.727
29824W        W 2249   8.868  34.502  13.872
29825W        W 2250  38.385  39.316   4.223
29826W        W 2251  29.983  41.511   1.391
29827W        W 2252  36.019  35.584   2.852
29828W        W 2253   7.890   1.829  13.391
29829W        W 2254  43.835   2.817  10.923
29830W        W 2255  40.519  30.958  12.483
29831W        W 2256  35.541  12.694  14.316
29832W        W 2257  25.202  13.348  11.881
29833W        W 2258  34.869  10.713   1.814
29834W        W 2259  38.060  37.869   3.681
29835W        W 2260   1.883  29.562   4.329
29836W        W 2261  26.000   7.290  14.305
29837W        W 2262  39.996  30.922  14.320
29838W        W 2263  36.926   5.228  11.861
29839W        W 2264  22.621  32.139  12.079
29840W        W 2265   0.771  23.519  12.091
29841W        W 2266  23.606  43.443   0.946
29842W        W 2267   6.791   8.732  14.422
29843W        W 2268  20.261  14.096  10.143
29844W        W 2269  29.148   2.739   1.398
29845W        W 2270  12.138   4.880   4.799
29846W        W 2271   8.289  37.015   4.185
29847W        W 2272   1.254  43.306   3.657
29848W        W 2273   4.250  10.705  10.479
29849W        W 2274  12.228  37.030  14.454
29850W        W 2275   0.285  37.997   3.650
29851W        W 2276   4.750  41.484  14.323
29852W        W 2277   7.332   0.384  14.810
29853W        W 2278  37.537   0.480   4.679
29854W        W 2279   0.879  29.004   3.738
29855W        W 2280  18.163  44.930   2.852
29856W        W 2281   9.762  31.965  13.054
29857W        W 2282  42.797  39.467  14.997
29858W        W 2283  12.697   8.854  14.295
29859W        W 2284  23.037  11.621   0.313
29860W        W 2285  36.474  24.567   5.217
29861W        W 2286  24.209  38.978   2.403
29862W        W 2287  26.140  15.713   3.778
29863W        W 2288  41.437  22.503  11.943
29864W        W 2289  23.535  19.252  12.530
29865W        W 2290  25.563  42.309   4.140
29866W        W 2291  24.711   8.768   2.784
29867W        W 2292  37.942  30.621  13.461
29868W        W 2293  12.834  44.496  11.503
29869W        W 2294  43.807   9.840   3.757
29870W        W 2295   6.696   6.310   2.766
29871W        W 2296  41.928  22.157   4.339
29872W        W 2297  21.682   6.878   4.731
29873W        W 2298  34.042  28.987  14.439
29874W        W 2299   0.320  24.611   0.395
29875W        W 2300  32.484  24.230  11.056
29876W        W 2301  27.547  25.104   0.942
29877W        W 2302  10.633  30.618   1.289
29878W        W 2303  34.021  24.065  13.340
29879W        W 2304  17.285  40.432   4.249
29880W        W 2305  38.834  14.334  11.036
29881W        W 2306  41.929  40.964   0.396
29882W        W 2307  36.968  30.527   2.345
29883W        W 2308  13.705  40.413  14.428
29884W        W 2309  15.795  36.366  13.827
29885W        W 2310  16.082  12.657   2.240
29886W        W 2311  12.258  33.974  12.961
29887W        W 2312  22.575  38.361   2.240
29888W        W 2313   6.376  32.970  13.377
29889W        W 2314  16.175   7.187   0.402
29890W        W 2315  10.809  36.587   1.215
29891W        W 2316  36.091  21.195   0.802
29892W        W 2317   7.671  31.991  11.111
29893W        W 2318  34.587  41.327   1.329
29894W        W 2319  24.156   7.887   4.212
29895W        W 2320   4.385   0.433  11.387
29896W        W 2321  32.083  20.687  13.973
29897W        W 2322  41.343   1.903   4.172
29898W        W 2323  40.330   6.815   3.310
29899W        W 2324   6.290  27.570   1.335
29900W        W 2325  21.517  29.964  14.352
29901W        W 2326  43.997   4.839  14.284
29902W        W 2327  37.888  10.320  11.427
29903W        W 2328  28.084  29.137  10.582
29904W        W 2329   5.345  29.567   4.669
29905W        W 2330  18.656  39.860  10.969
29906W        W 2331   0.891  39.349  12.974
29907W        W 2332  11.669  10.216  11.461
29908W        W 2333  28.609  30.416  12.030
29909W        W 2334  12.774  19.091  14.326
29910W        W 2335  36.961  34.449  14.284
29911W        W 2336   2.395   0.780  13.893
29912W        W 2337  13.804  35.892   4.158
29913W        W 2338  25.594  10.310   1.311
29914W        W 2339   2.861  17.597  10.957
29915W        W 2340   5.917  20.068   3.341
29916W        W 2341  42.957  40.872   3.724
29917W        W 2342  18.664  34.444  13.820
29918W        W 2343  28.505  29.524  13.438
29919W        W 2344  22.530  10.821  13.354
29920W        W 2345   5.864  15.730  12.903
29921W        W 2346  20.743  13.739  10.571
29922W        W 2347  17.258  35.010   1.321
29923W        W 2348  28.593  41.811  13.885
29924W        W 2349  17.639  29.091  10.562
29925W        W 2350   7.787  40.391  12.473
29926W        W 2351  20.594   5.219  14.316
29927W        W 2352   8.178  33.379   3.146
29928W        W 2353  41.294  39.918   1.362
29929W        W 2354  13.626  32.416  13.318
29930W        W 2355   5.325  18.226  11.036
29931W        W 2356  24.080  10.231  11.520
29932W        W 2357  16.628  41.885   1.290
29933W        W 2358   4.767  28.675   4.307
29934W        W 2359   8.262  38.067  14.399
29935W        W 2360  20.746  18.739   2.284
29936W        W 2361  19.071  38.427  13.452
29937W        W 2362  39.313  34.583   3.760
29938W        W 2363   9.644  11.344   3.361
29939W        W 2364  38.049  15.257  10.971
29940W        W 2365  23.228  20.028   4.706
29941W        W 2366  23.620   8.834  11.957
29942W        W 2367  43.493  40.033   2.278
29943W        W 2368  38.470  41.369   1.292
29944W        W 2369  13.338  25.592   1.392
29945W        W 2370  22.568   7.292   3.205
29946W        W 2371   9.187  32.503  10.621
29947W        W 2372  16.266  23.601  10.978
29948W        W 2373  28.003  22.566   0.393
29949W        W 2374  38.058  26.583   3.795
29950W        W 2375  21.548  41.859  11.467
29951W        W 2376  42.510   6.380  13.880
29952W        W 2377  33.475  12.762   1.878
29953W        W 2378  14.762   4.348   3.295
29954W        W 2379   7.198  31.948   0.884
29955W        W 2380   9.158  36.019   2.258
29956W        W 2381   8.171  14.651   4.646
29957W        W 2382   5.815  20.565  10.623
29958W        W 2383  25.160  26.629   0.940
29959W        W 2384  33.111  44.971  12.451
29960W        W 2385  30.486  40.848  12.992
29961W        W 2386  38.916  28.051   4.718
29962W        W 2387  18.268  36.507   1.872
29963W        W 2388  19.620  10.253   4.238
29964W        W 2389  28.568  38.004  11.010
29965W        W 2390   7.787  36.006   4.245
29966W        W 2391  41.529  35.482  12.443
29967W        W 2392  42.397  19.762  10.584
29968W        W 2393  12.844  17.558   1.286
29969W        W 2394  37.953   6.300   0.881
29970W        W 2395  29.640   3.907   2.305
29971W        W 2396   9.889  38.819  14.339
29972W        W 2397  25.666  11.868  11.984
29973W        W 2398   4.328  42.463   1.386
29974W        W 2399  28.592  12.356   1.905
29975W        W 2400  23.612  41.891  14.425
29976W        W 2401   8.656   9.813  13.927
29977W        W 2402   6.387  25.009  12.975
29978W        W 2403  44.282  39.849   2.696
29979W        W 2404   9.222  19.534   1.763
29980W        W 2405  10.194  15.602  12.933
29981W        W 2406  13.243   0.904  14.301
29982W        W 2407  23.644  17.269  13.446
29983W        W 2408  35.991   1.867  11.459
29984W        W 2409  10.660  42.959   2.334
29985W        W 2410  25.713   9.801  14.770
29986W        W 2411  17.636   1.367   2.237
29987W        W 2412  12.654   7.820   2.771
29988W        W 2413  13.149  32.931  13.795
29989W        W 2414  20.081  31.056   3.290
29990W        W 2415   1.375  23.085  10.991
29991W        W 2416   3.811  27.956   2.697
29992W        W 2417  36.060  44.471  11.431
29993W        W 2418  41.487  32.046   0.853
29994W        W 2419   7.741  27.579  13.798
29995W        W 2420   8.203  17.153  14.855
29996W        W 2421  24.072  33.965  11.052
29997W        W 2422   7.665  17.679   4.719
29998W        W 2423  23.548  13.261  14.430
29999W        W 2424  37.353  26.530  13.017
30000W        W 2425  41.912  10.819   2.268
30001W        W 2426   4.318  29.998   3.774
30002W        W 2427  35.886  23.536   2.303
30003W        W 2428  33.963   5.402  11.605
30004W        W 2429  26.601  18.115  14.376
30005W        W 2430   8.393   2.445  11.119
30006W        W 2431  22.210   3.938   4.317
30007W        W 2432   6.307   7.265  13.921
30008W        W 2433  28.595  42.406   1.710
30009W        W 2434  20.120  16.149   1.401
30010W        W 2435  38.060  23.704   5.147
30011W        W 2436   3.868  11.675   1.931
30012W        W 2437  17.786   9.777   1.412
30013W        W 2438  37.917  32.505  11.507
30014W        W 2439  30.970  13.600  12.470
30015W        W 2440  16.264  37.336   3.322
30016W        W 2441   2.940  21.210   1.211
30017W        W 2442   5.918  23.131  14.868
30018W        W 2443   8.326  29.610   4.227
30019W        W 2444   4.226  43.499  10.559
30020W        W 2445  10.313   6.419   4.127
30021W        W 2446  28.606  16.118  13.313
30022W        W 2447  12.290  26.644  11.938
30023W        W 2448  17.656  25.627   2.257
30024W        W 2449   6.910  44.345  12.366
30025W        W 2450  39.552  39.539   0.292
30026W        W 2451  40.419  21.084   0.293
30027W        W 2452  16.095  19.229  11.029
30028W        W 2453  28.539   1.861  14.423
30029W        W 2454   9.345  30.614  12.456
30030W        W 2455  20.262  10.293  11.398
30031W        W 2456  13.697   7.216   3.738
30032W        W 2457  43.293  42.443  10.978
30033W        W 2458  22.011   4.935   3.188
30034W        W 2459  26.013   0.920   0.945
30035W        W 2460  32.031   4.862   3.683
30036W        W 2461  16.273  10.704   1.851
30037W        W 2462  37.536  26.459   5.263
30038W        W 2463  18.625  11.213  11.982
30039W        W 2464   6.843  40.343  10.418
30040W        W 2465  35.412  25.535   0.836
30041W        W 2466  35.506  31.956  14.899
30042W        W 2467   9.301   4.771  14.979
30043W        W 2468  17.271  13.836   1.264
30044W        W 2469   8.774  19.576   1.816
30045W        W 2470  44.869  11.176   1.445
30046W        W 2471  14.215  29.469   0.744
30047W        W 2472  17.179  21.585   3.747
30048W        W 2473  30.423  30.065   2.749
30049W        W 2474   0.339  43.910  14.811
30050W        W 2475  44.424  14.776  11.095
30051W        W 2476  14.686   7.278  12.872
30052W        W 2477  16.625  13.281  13.441
30053W        W 2478  20.227  41.429   2.802
30054W        W 2479  18.195  25.594   4.176
30055W        W 2480   9.226  25.636  10.432
30056W        W 2481  27.552  44.776  11.900
30057W        W 2482   8.852  31.437   2.845
30058W        W 2483  14.143  40.375  12.455
30059W        W 2484   3.423  17.165  11.895
30060W        W 2485  23.683  20.626  10.893
30061W        W 2486  26.154   7.884  11.607
30062W        W 2487  20.062  32.071   5.236
30063W        W 2488  39.983   2.401   0.344
30064W        W 2489  37.955  25.020   3.740
30065W        W 2490   4.269  12.230  13.865
30066W        W 2491  13.303  30.970  12.043
30067W        W 2492   8.899  44.355  14.352
30068W        W 2493  21.755   3.450   1.864
30069W        W 2494  15.725  12.761   3.758
30070W        W 2495  42.938  34.500  10.626
30071W        W 2496  18.573   0.290  10.513
30072W        W 2497  22.517   1.475  13.963
30073W        W 2498  42.787  36.399   3.770
30074W        W 2499  15.201  35.564  14.880
30075W        W 2500  18.601  23.040   4.335
30076W        W 2501  19.653  25.625  13.899
30077W        W 2502   3.322  32.469   4.599
30078W        W 2503  23.155   3.396   1.841
30079W        W 2504   5.274  20.739   0.943
30080W        W 2505  39.516  28.480  13.478
30081W        W 2506   8.235  23.609   0.356
30082W        W 2507   5.300  35.571   3.660
30083W        W 2508  30.081   3.896   2.261
30084W        W 2509  18.278  19.088   4.729
30085W        W 2510  28.555  20.721  13.026
30086W        W 2511  23.040  21.228   0.769
30087W        W 2512  20.751  44.876   4.181
30088W        W 2513  36.419  40.462   3.161
30089W        W 2514  41.393   0.943  13.324
30090W        W 2515  14.750  13.734  11.587
30091W        W 2516  19.116   7.788   1.274
30092W        W 2517   6.737  33.471   4.613
30093W        W 2518  11.300  36.556  11.520
30094W        W 2519   8.754   5.743   9.949
30095W        W 2520  29.988  27.528   4.152
30096W        W 2521  36.978  18.647  14.765
30097W        W 2522  36.540  17.727  11.036
30098W        W 2523  20.152   0.413   4.244
30099W        W 2524  14.271  15.740   1.896
30100W        W 2525  36.356  43.904   0.839
30101W        W 2526  22.125  19.137   0.788
30102W        W 2527   2.405   0.908  13.403
30103W        W 2528  14.192  23.050   3.672
30104W        W 2529  11.842  26.968   1.846
30105W        W 2530  42.299  40.937  11.480
30106W        W 2531   5.773  12.328   4.725
30107W        W 2532  44.886   9.179   1.777
30108W        W 2533   4.442  18.573   4.814
30109W        W 2534  11.848  14.330  13.051
30110W        W 2535  42.831  42.916   0.933
30111W        W 2536  39.918  17.626   4.680
30112W        W 2537  27.991   5.870  10.108
30113W        W 2538  32.931  27.527  11.086
30114W        W 2539  25.579  39.822  12.023
30115W        W 2540  41.800   4.764   1.915
30116W        W 2541  17.646  42.346  10.558
30117W        W 2542  40.975  23.035   0.341
30118W        W 2543  23.155  18.280  11.055
30119W        W 2544  32.516  30.987  13.852
30120W        W 2545  38.018  43.315   2.834
30121W        W 2546  43.448  30.607   1.442
30122W        W 2547   8.889  41.416  11.485
30123W        W 2548  32.028  13.223  12.829
30124W        W 2549  32.031  24.118  10.457
30125W        W 2550  27.135   9.793  14.871
30126W        W 2551   0.928  17.306  14.890
30127W        W 2552  27.512  12.188   2.834
30128W        W 2553  40.959   2.298   2.730
30129W        W 2554  39.457  23.514   1.826
30130W        W 2555  29.122  29.105   4.730
30131W        W 2556   1.319  38.884   1.734
30132W        W 2557  27.122   8.291  13.035
30133W        W 2558   2.892  18.603   4.193
30134W        W 2559  40.534  38.379  14.488
30135W        W 2560  11.213  36.495   1.446
30136W        W 2561  21.103  10.793  12.840
30137W        W 2562  21.193  11.307  14.790
30138W        W 2563  39.944  13.222   0.876
30139W        W 2564  43.391  12.298   0.444
30140W        W 2565  18.564  14.625  13.027
30141W        W 2566   5.855  31.601  11.117
30142W        W 2567   9.185  35.536   5.749
30143W        W 2568  39.967   2.277  11.124
30144W        W 2569  25.148  27.599   1.894
30145W        W 2570  26.585  16.259   4.184
30146W        W 2571  10.153  32.998   9.971
30147W        W 2572  25.695  29.138  11.395
30148W        W 2573  38.964  28.571  11.049
30149W        W 2574  11.792  14.117  10.029
30150W        W 2575   7.904  18.572   0.466
30151W        W 2576   1.922  23.552  12.018
30152W        W 2577  21.138  27.155  12.085
30153W        W 2578   4.444  31.615  13.803
30154W        W 2579  37.438   3.416  14.869
30155W        W 2580  16.152  24.669  12.980
30156W        W 2581  35.405  41.369  14.345
30157W        W 2582  19.587  23.540   2.792
30158W        W 2583  36.379  19.091   0.400
30159W        W 2584   6.721  26.512  11.572
30160W        W 2585  10.233   2.391   2.780
30161W        W 2586   7.908  11.289  14.452
30162W        W 2587   0.925  12.777  14.838
30163W        W 2588   5.824  34.891  14.401
30164W        W 2589  33.452  40.866   0.744
30165W        W 2590  13.768  20.170   1.790
30166W        W 2591  42.903  41.007  11.938
30167W        W 2592  16.588   2.866   4.709
30168W        W 2593  27.172   0.467  13.854
30169W        W 2594  12.665  32.894   1.804
30170W        W 2595  12.805  24.575  13.537
30171W        W 2596  23.999  33.505   3.662
30172W        W 2597  27.486   6.269   1.386
30173W        W 2598  21.747  16.100   4.243
30174W        W 2599  34.929   0.292   0.907
30175W        W 2600   7.691  27.166  14.461
30176W        W 2601  42.288  16.271   2.191
30177W        W 2602  35.970  13.773   1.834
30178W        W 2603  16.073   6.699   2.838
30179W        W 2604  17.717   9.150  12.029
30180W        W 2605  36.973   3.406  12.005
30181W        W 2606   1.950  27.675  12.090
30182W        W 2607   0.365  22.522  12.940
30183W        W 2608   1.335  44.939  12.006
30184W        W 2609   9.270  29.073  14.440
30185W        W 2610  20.581  25.170   3.663
30186W        W 2611  39.538  11.698  10.442
30187W        W 2612   1.389  25.645   4.184
30188W        W 2613  41.474  41.409  10.567
30189W        W 2614  32.072   6.414   3.825
30190W        W 2615  41.424   0.803  14.021
30191W        W 2616  12.209  12.656   0.791
30192W        W 2617  42.007   7.827  14.319
30193W        W 2618  20.622  24.160  12.401
30194W        W 2619  27.088   6.677  11.023
30195W        W 2620  29.523   4.230   4.240
30196W        W 2621  31.147   9.714   2.291
30197W        W 2622   9.233  36.012   1.884
30198W        W 2623   5.804  21.639   3.690
30199W        W 2624  18.174  17.183   0.879
30200W        W 2625   6.310  21.722  12.918
30201W        W 2626  15.685  44.363   4.278
30202W        W 2627  29.661  40.432   0.816
30203W        W 2628  36.411  32.003   2.840
30204W        W 2629  37.458  18.226   0.826
30205W        W 2630   9.756  39.336  14.456
30206W        W 2631  42.428  32.942  10.505
30207W        W 2632  26.023  38.954  14.019
30208W        W 2633  13.262  41.868  14.320
30209W        W 2634  30.435  11.820  11.392
30210W        W 2635  37.000  13.272  12.937
30211W        W 2636  37.005  23.204   9.486
30212W        W 2637  22.744  37.412   9.985
30213W        W 2638  36.857  30.932  11.570
30214W        W 2639  10.165   4.747   3.315
30215W        W 2640  25.512  18.627   3.357
30216W        W 2641  26.017  18.790  14.811
30217W        W 2642  26.698  24.015   4.214
30218W        W 2643  17.082  44.477  10.965
30219W        W 2644  12.657  22.673   3.698
30220W        W 2645  33.989   6.278   0.853
30221W        W 2646  31.628   5.906  13.526
30222W        W 2647  34.588  28.029   4.691
30223W        W 2648  34.905   2.792   2.394
30224W        W 2649  26.101  43.926  11.495
30225W        W 2650  44.482   6.711  13.845
30226W        W 2651  16.585  31.145   4.647
30227W        W 2652  26.081  40.407  11.020
30228W        W 2653  29.135  23.100   0.436
30229W        W 2654  30.948  43.968  13.909
30230W        W 2655  18.638   5.245   2.379
30231W        W 2656  35.439  13.648  14.906
30232W        W 2657  44.278  19.563  10.115
30233W        W 2658  31.500  29.584   3.380
30234W        W 2659  22.510  21.535  11.590
30235W        W 2660  24.024  27.511  12.936
30236W        W 2661  30.079  43.354   4.327
30237W        W 2662  36.901  19.135  13.988
30238W        W 2663  33.524   8.168   2.270
30239W        W 2664  19.179  13.704  11.107
30240W        W 2665   4.929  27.127  12.066
30241W        W 2666  27.986  30.000  12.063
30242W        W 2667  37.040  22.104  12.067
30243W        W 2668  26.012   3.231  14.817
30244W        W 2669  15.235  17.267   0.792
30245W        W 2670  24.164  10.352   0.746
30246W        W 2671  17.641  19.045   3.811
30247W        W 2672   3.335  20.746  13.045
30248W        W 2673  30.030  22.717  14.977
30249W        W 2674   7.407  39.989   1.258
30250W        W 2675  17.067  30.164   4.291
30251W        W 2676  22.517  40.324  11.948
30252W        W 2677  28.977  16.136   4.328
30253W        W 2678  32.055   8.261  13.335
30254W        W 2679  16.768  17.555  12.525
30255W        W 2680   9.783  10.877   4.162
30256W        W 2681  38.071  14.653   4.114
30257W        W 2682  14.201   6.280   0.322
30258W        W 2683  32.036  22.232  10.057
30259W        W 2684   5.208   1.298  14.835
30260W        W 2685  43.858  32.046  11.411
30261W        W 2686  32.505   7.340  11.990
30262W        W 2687   4.834  40.932   0.341
30263W        W 2688  16.261  35.011   1.323
30264W        W 2689  31.456  10.324   1.424
30265W        W 2690  11.284   0.780  13.490
30266W        W 2691  22.083  17.642  14.438
30267W        W 2692   5.863  43.908   1.296
30268W        W 2693   9.260  20.671  11.029
30269W        W 2694  34.495  30.129  14.437
30270W        W 2695   8.874  28.544  13.444
30271W        W 2696  23.125  34.590  13.799
30272W        W 2697  39.043  38.470  14.444
30273W        W 2698  26.048  27.054  11.017
30274W        W 2699  23.556  15.660  11.395
30275W        W 2700  18.226   0.340  11.493
30276W        W 2701  30.651  14.737   2.890
30277W        W 2702  36.517  11.657   4.778
30278W        W 2703  26.557  38.998   0.338
30279W        W 2704  22.100  16.598   1.388
30280W        W 2705  20.720  28.448  13.389
30281W        W 2706  31.097  18.657  10.545
30282W        W 2707  29.085  36.047  13.854
30283W        W 2708   8.720  37.048   1.810
30284W        W 2709   9.228  40.966   1.811
30285W        W 2710  25.027   8.364   1.349
30286W        W 2711  11.152   8.365  11.476
30287W        W 2712  34.056  18.228   1.836
30288W        W 2713   3.780  13.618   3.269
30289W        W 2714  29.651  26.602  12.921
30290W        W 2715  11.193   1.260  11.512
30291W        W 2716  25.065  27.486  10.476
30292W        W 2717  23.527  39.981   2.273
30293W        W 2718  34.020  42.814  13.537
30294W        W 2719  39.884  11.661  14.283
30295W        W 2720  42.509   3.377   1.374
30296W        W 2721  40.372  30.968   4.778
30297W        W 2722  37.013  23.513  12.958
30298W        W 2723  33.072  10.707   4.159
30299W        W 2724   9.686   5.861  11.931
30300W        W 2725   9.325  39.450   2.204
30301W        W 2726  16.260  39.988  13.961
30302W        W 2727  20.640  17.698   3.867
30303W        W 2728  25.493  28.671   4.325
30304W        W 2729  12.744  25.102  11.450
30305W        W 2730  25.661  35.366   3.373
30306W        W 2731   1.800  22.155  11.581
30307W        W 2732  17.235  27.963  10.897
30308W        W 2733  17.621  25.199   0.321
30309W        W 2734  17.129   7.786  13.508
30310W        W 2735  19.071  30.444   3.217
30311W        W 2736  11.633  38.468   0.958
30312W        W 2737  19.089  36.871  14.015
30313W        W 2738  13.182   2.839   3.694
30314W        W 2739  38.497   2.819   1.333
30315W        W 2740   3.719  16.301   4.266
30316W        W 2741  24.536  25.696   0.454
30317W        W 2742   1.943  17.173  10.531
30318W        W 2743   8.808  30.482   0.255
30319W        W 2744  13.262  11.134  13.373
30320W        W 2745  34.979  22.745   0.919
30321W        W 2746  21.601  22.599   1.381
30322W        W 2747   8.391  30.024  14.429
30323W        W 2748  25.965  38.831   4.618
30324W        W 2749  35.951  40.509  12.952
30325W        W 2750  18.286  21.641   4.696
30326W        W 2751  24.560  30.543   4.757
30327W        W 2752  34.891  37.838   4.291
30328W        W 2753  40.871   7.739  14.844
30329W        W 2754  32.073  34.999   4.819
30330W        W 2755   5.918   1.746  13.864
30331W        W 2756  11.294  18.734   4.821
30332W        W 2757  31.458  42.406  12.383
30333W        W 2758   7.235   9.387   3.163
30334W        W 2759  10.237  21.222  13.443
30335W        W 2760  29.523  24.071  13.530
30336W        W 2761  27.027  25.103  14.367
30337W        W 2762  44.788  41.850   0.857
30338W        W 2763   9.842  44.273   0.842
30339W        W 2764  21.678  21.127   4.246
30340W        W 2765   3.883  27.184  12.970
30341W        W 2766  11.692  33.950  11.535
30342W        W 2767  11.288   0.796  10.424
30343W        W 2768   8.759  43.804   2.234
30344W        W 2769   2.868  12.308  11.955
30345W        W 2770  21.638   6.922  14.796
30346W        W 2771  21.750   7.223   2.858
30347W        W 2772  22.236  42.970  12.835
30348W        W 2773  19.202  34.105  11.102
30349W        W 2774   7.780  44.950   3.257
30350W        W 2775   5.832  30.993   2.239
30351W        W 2776   3.842  17.275  13.385
30352W        W 2777  10.282  29.985  13.414
30353W        W 2778   6.208   8.338   0.398
30354W        W 2779  15.140   9.807  11.466
30355W        W 2780   8.225   5.889   4.277
30356W        W 2781   0.466  35.522  10.515
30357W        W 2782  22.030   0.260   0.308
30358W        W 2783  39.984  30.545   3.654
30359W        W 2784  26.135   0.981  11.496
30360W        W 2785  34.092   8.370  12.844
30361W        W 2786  16.178  27.508  12.428
30362W        W 2787  29.574  33.573   5.287
30363W        W 2788  22.084   8.834  10.017
30364W        W 2789  39.809   6.247  11.017
30365W        W 2790  38.910  29.157   0.243
30366W        W 2791  10.654  43.015  11.434
30367W        W 2792  37.502  42.933  10.919
30368W        W 2793   6.338  26.108  10.612
30369W        W 2794  10.673  39.894  14.848
30370W        W 2795  44.259  39.853   0.366
30371W        W 2796  33.943  36.451   0.374
30372W        W 2797  44.288  13.232   3.712
30373W        W 2798   8.654  11.250   2.850
30374W        W 2799   8.710  32.913  11.447
30375W        W 2800   5.929  22.667   1.230
30376W        W 2801  15.590  44.795   0.789
30377W        W 2802   4.423  44.490   0.458
30378W        W 2803   5.858  11.282  13.833
30379W        W 2804   2.338  17.601  13.387
30380W        W 2805   7.810  21.550   1.223
30381W        W 2806   0.373   8.739   4.280
30382W        W 2807  28.444  42.974  10.588
30383W        W 2808   5.723  29.464   3.818
30384W        W 2809  25.669  41.877  10.592
30385W        W 2810  38.412  30.548   3.306
30386W        W 2811   7.736  30.618  10.111
30387W        W 2812  39.337  29.494   1.726
30388W        W 2813   1.843  42.899  12.049
30389W        W 2814  10.701  44.485   1.296
30390W        W 2815  32.543  14.641   2.709
30391W        W 2816  24.043  31.451   4.148
30392W        W 2817  40.464  10.309   1.355
30393W        W 2818  29.508   5.233   3.854
30394W        W 2819  28.047   5.805   1.323
30395W        W 2820  10.848  18.150  10.957
30396W        W 2821  43.392  44.858  11.371
30397W        W 2822  37.481  33.038   0.375
30398W        W 2823  28.181  30.501  10.067
30399W        W 2824  40.319  30.950   3.293
30400W        W 2825  33.989  30.461  11.112
30401W        W 2826  37.935  24.979  12.061
30402W        W 2827  44.956  22.028   4.256
30403W        W 2828   4.253  13.822  14.350
30404W        W 2829  43.020  34.928   4.353
30405W        W 2830   0.748  42.351  11.477
30406W        W 2831   2.956  20.624   4.645
30407W        W 2832  28.617  37.907   2.869
30408W        W 2833  41.875  33.463   2.355
30409W        W 2834  36.548  17.735   0.306
30410W        W 2835  40.050   8.897  12.847
30411W        W 2836  26.501  31.602   5.699
30412W        W 2837  27.088  30.573  11.007
30413W        W 2838   6.879  40.054  14.871
30414W        W 2839  20.113  41.898  13.321
30415W        W 2840  32.505  18.124   1.428
30416W        W 2841  18.663   5.911  12.907
30417W        W 2842  25.713  39.003   2.346
30418W        W 2843   1.332   5.861   0.782
30419W        W 2844  39.896  24.069   4.185
30420W        W 2845   5.347  13.285  13.054
30421W        W 2846  35.595  21.096  10.970
30422W        W 2847  33.950  36.436   4.704
30423W        W 2848  12.627  33.070  13.429
30424W        W 2849   2.829   1.784  12.033
30425W        W 2850  24.580  12.745   2.813
30426W        W 2851   7.720  41.807  14.809
30427W        W 2852  24.118  33.419   2.829
30428W        W 2853  23.035  16.208  10.953
30429W        W 2854   5.215  12.137   1.784
30430W        W 2855  19.105   8.275   3.312
30431W        W 2856  42.304  22.579   0.314
30432W        W 2857  30.432  31.963   2.716
30433W        W 2858  16.625  23.583   1.319
30434W        W 2859  21.036  28.560   3.217
30435W        W 2860  22.063   2.438  13.997
30436W        W 2861  30.934   7.375  14.362
30437W        W 2862  18.616  41.490   1.384
30438W        W 2863  27.028   2.307   2.759
30439W        W 2864  27.552  27.534   2.766
30440W        W 2865  18.139  35.524   4.210
30441W        W 2866  11.680   2.873  11.554
30442W        W 2867   1.881  32.399  11.509
30443W        W 2868  33.051  16.678  12.861
30444W        W 2869  42.464   1.247  14.789
30445W        W 2870  15.681  11.228   0.813
30446W        W 2871  44.970  18.241   0.442
30447W        W 2872   1.794  40.358   1.387
30448W        W 2873  22.655  16.667   2.336
30449W        W 2874   2.835   2.794   4.272
30450W        W 2875  34.023  22.197   2.757
30451W        W 2876  44.844   4.438  12.553
30452W        W 2877  40.529   5.688  11.453
30453W        W 2878  44.927  19.652   0.299
30454W        W 2879  10.730  40.892  14.944
30455W        W 2880   0.478  13.257  14.438
30456W        W 2881  28.618  38.540   2.388
30457W        W 2882  33.037  44.385   2.344
30458W        W 2883  32.012  18.196   4.305
30459W        W 2884  14.250   0.356  10.510
30460W        W 2885   6.229  25.506   1.426
30461W        W 2886  31.947  22.633   3.829
30462W        W 2887  39.459   1.307   3.631
30463W        W 2888  43.278  33.575   0.957
30464W        W 2889  41.003  10.637  13.030
30465W        W 2890  18.789  10.304   1.254
30466W        W 2891  13.145  41.518   4.770
30467W        W 2892  11.701  37.940  14.772
30468W        W 2893  34.020  34.086  10.516
30469W        W 2894  26.007  14.146  12.004
30470W        W 2895  42.852   3.712   3.267
30471W        W 2896   8.348   3.248  13.389
30472W        W 2897  41.798  36.928   3.702
30473W        W 2898  31.152  31.927  12.911
30474W        W 2899  40.883  29.491   3.154
30475W        W 2900  37.858  19.757   5.310
30476W        W 2901  34.476  13.306  10.990
30477W        W 2902  42.506  11.670  10.931
30478W        W 2903  28.563  43.019  10.954
30479W        W 2904  36.951   7.384   4.748
30480W        W 2905  30.651  40.319   4.303
30481W        W 2906  12.659  36.591  10.980
30482W        W 2907  16.252  29.439  14.465
30483W        W 2908  34.983  28.065   4.150
30484W        W 2909  35.505  35.946  13.453
30485W        W 2910  35.604  28.435  11.104
30486W        W 2911  18.136   4.384  11.556
30487W        W 2912   9.294  10.814   4.212
30488W        W 2913  20.221  25.647  12.418
30489W        W 2914   3.907  42.968  10.455
30490W        W 2915  40.025  20.149   1.330
30491W        W 2916  10.152  13.322  11.377
30492W        W 2917  18.139  31.986  11.512
30493W        W 2918  17.071  16.714  11.114
30494W        W 2919  28.525  35.936   2.830
30495W        W 2920  34.909  24.541   0.452
30496W        W 2921  14.632   2.311   3.846
30497W        W 2922   1.297  43.420  14.022
30498W        W 2923  35.972  36.444   1.249
30499W        W 2924  14.814  33.958  12.538
30500W        W 2925   0.254  44.384  14.373
30501W        W 2926  15.712  15.591   0.793
30502W        W 2927   8.277   7.705  10.005
30503W        W 2928  12.341  23.537  13.924
30504W        W 2929  22.568  27.672   0.392
30505W        W 2930  19.094   1.396   0.917
30506W        W 2931  23.166  12.840   1.723
30507W        W 2932   7.864  19.281  12.883
30508W        W 2933   4.775  26.553   0.873
30509W        W 2934   9.808  34.608   0.410
30510W        W 2935  27.963  17.100   5.277
30511W        W 2936  30.982  24.636  13.519
30512W        W 2937  41.956  26.155   4.218
30513W        W 2938  12.223  13.742  11.392
30514W        W 2939  15.249  13.251  14.453
30515W        W 2940  23.194  13.302  14.016
30516W        W 2941  10.711  11.252   2.862
30517W        W 2942   9.760  19.700  11.871
30518W        W 2943  37.905  43.834  14.829
30519W        W 2944  40.818  34.864  13.329
30520W        W 2945   3.224  21.586  12.578
30521W        W 2946  29.090  26.687  14.508
30522W        W 2947  32.003  36.032   4.760
30523W        W 2948  10.176  42.485  14.889
30524W        W 2949  36.398   7.256   2.707
30525W        W 2950  42.939  37.522  12.035
30526W        W 2951  44.485  25.493  13.021
30527W        W 2952  34.931  35.959   0.440
30528W        W 2953   6.819   7.744   0.457
30529W        W 2954  37.532   8.196  10.914
30530W        W 2955  26.488  20.526  13.016
30531W        W 2956  14.332   0.807  14.340
30532W        W 2957  32.464  27.963   0.872
30533W        W 2958  23.669   5.425  13.333
30534W        W 2959  31.067  22.109  14.914
30535W        W 2960   5.354   0.746  10.582
30536W        W 2961   9.818  41.853  14.329
30537W        W 2962  24.090   2.229  13.003
30538W        W 2963  38.460  23.984  13.847
30539W        W 2964   3.762  29.060  13.458
30540W        W 2965   1.468  11.827   4.304
30541W        W 2966   4.358  24.162   1.349
30542W        W 2967  40.489  28.665   4.320
30543W        W 2968  34.570  42.442  10.910
30544W        W 2969   3.902  16.302  10.470
30545W        W 2970  12.687  35.415   4.297
30546W        W 2971  36.432  32.137   3.727
30547W        W 2972  38.822  34.932   9.972
30548W        W 2973  36.544   6.203  10.468
30549W        W 2974  22.147  18.206   3.250
30550W        W 2975  20.174  30.098   3.216
30551W        W 2976  16.604  22.118   0.854
30552W        W 2977  26.084  10.349  10.459
30553W        W 2978  21.060  19.535  13.975
30554W        W 2979   5.366  25.578  10.620
30555W        W 2980  29.998  39.963   0.318
30556W        W 2981   0.917  19.691   5.277
30557W        W 2982  35.444  31.591  14.382
30558W        W 2983   1.403  16.180  14.452
30559W        W 2984   7.713   5.845  14.305
30560W        W 2985  27.622  22.114  13.923
30561W        W 2986  19.183   5.910   2.359
30562W        W 2987  28.489  15.639   1.815
30563W        W 2988  27.127  32.055   3.759
30564W        W 2989  32.906  30.450  14.475
30565W        W 2990  18.669  32.098  11.529
30566W        W 2991  36.412  25.962  14.769
30567W        W 2992  44.325  29.580   3.790
30568W        W 2993  43.890  39.982  11.402
30569W        W 2994   0.466  25.504   2.412
30570W        W 2995  15.608   3.912   3.776
30571W        W 2996   2.918  32.020  13.324
30572W        W 2997  36.062   2.761  13.406
30573W        W 2998  15.767  15.635   4.753
30574W        W 2999  24.496  13.798  10.525
30575W        W 3000  19.046  42.991   1.866
30576W        W 3001  18.636  35.023  13.521
30577W        W 3002  22.169  29.449   4.320
30578W        W 3003  20.551   0.451   3.149
30579W        W 3004   1.843  36.034   4.597
30580W        W 3005   7.908  16.122  11.404
30581W        W 3006  41.867  11.254  10.483
30582W        W 3007  33.464  31.097  13.336
30583W        W 3008  22.720  18.684   4.207
30584W        W 3009  20.030  36.503  14.488
30585W        W 3010  16.581  18.103   2.886
30586W        W 3011  30.566  11.258  12.970
30587W        W 3012  35.432   6.913  12.972
30588W        W 3013  24.542  10.658   2.851
30589W        W 3014  25.647  31.544  11.898
30590W        W 3015  37.496   7.366  14.962
30591W        W 3016  10.318  15.276   9.947
30592W        W 3017  41.340  31.583  10.485
30593W        W 3018  29.087  43.814  14.784
30594W        W 3019   0.405   8.834  12.905
30595W        W 3020  34.561   0.928  11.424
30596W        W 3021  28.673  42.953   4.699
30597W        W 3022  33.510  23.989  14.901
30598W        W 3023  19.757  30.484  11.483
30599W        W 3024  19.705  29.962  14.006
30600W        W 3025  40.834   6.791  13.888
30601W        W 3026  17.686  26.985  12.890
30602W        W 3027  17.239   8.363   1.806
30603W        W 3028  26.078  18.274  12.052
30604W        W 3029  18.601  31.047  11.901
30605W        W 3030  44.918   1.850   1.324
30606W        W 3031  38.008  12.856   4.829
30607W        W 3032  11.293   9.277  12.573
30608W        W 3033  17.294  11.792  11.612
30609W        W 3034   8.307  11.839  13.473
30610W        W 3035  28.145  21.654  10.980
30611W        W 3036  28.561  14.721  12.543
30612W        W 3037  23.539   5.400   2.743
30613W        W 3038  14.708  40.389  14.775
30614W        W 3039   8.346  11.341   2.338
30615W        W 3040   2.960   1.930  12.936
30616W        W 3041  40.838  20.168  12.973
30617W        W 3042   1.400  16.683  13.823
30618W        W 3043  23.691  11.239  10.070
30619W        W 3044  43.830  27.964   0.787
30620W        W 3045  44.424  38.882  14.823
30621W        W 3046  22.691  15.243  14.979
30622W        W 3047  22.578  35.040  14.999
30623W        W 3048   7.177  11.335  12.979
30624W        W 3049   5.323  22.065   2.277
30625W        W 3050  40.991  29.024   3.784
30626W        W 3051  32.911  11.651   4.244
30627W        W 3052   0.394   0.833   4.745
30628W        W 3053  30.941  26.993  12.968
30629W        W 3054  38.566   4.383  11.403
30630W        W 3055  15.684  13.814   0.424
30631W        W 3056  41.987   1.763  13.335
30632W        W 3057  14.332  42.895  11.392
30633W        W 3058  37.917  37.055   3.791
30634W        W 3059   5.807  26.558  11.593
30635W        W 3060   3.330  11.152  10.944
30636W        W 3061   0.366  37.921   4.684
30637W        W 3062  36.028   2.406  14.786
30638W        W 3063  18.633  11.321   1.448
30639W        W 3064  15.326   9.715  13.441
30640W        W 3065   5.226  15.673   4.142
30641W        W 3066  12.123  37.539   2.860
30642W        W 3067  12.147   9.251   3.362
30643W        W 3068  11.264  37.904   1.383
30644W        W 3069   3.228  40.448   0.906
30645W        W 3070  38.965  39.538  11.926
30646W        W 3071  26.460   7.907  11.511
30647W        W 3072   7.393  38.048  14.419
30648W        W 3073  21.683  43.431   4.737
30649W        W 3074  19.710  16.271   3.683
30650W        W 3075   0.788   0.839   5.148
30651W        W 3076  25.109  44.937  14.516
30652W        W 3077  21.210  20.626  12.499
30653W        W 3078   4.433  35.047   4.289
30654W        W 3079  16.618  34.044  13.411
30655W        W 3080   0.354  43.512   3.296
30656W        W 3081   8.255  18.689  10.418
30657W        W 3082  42.835  19.635   3.788
30658W        W 3083  36.358  44.809  11.920
30659W        W 3084   2.318  37.888   4.634
30660W        W 3085   7.350  39.556  11.012
30661W        W 3086   3.301  25.215  14.413
30662W        W 3087  25.706  32.999   2.218
30663W        W 3088   9.769   7.315   0.324
30664W        W 3089  17.257   1.373  11.551
30665W        W 3090  21.703  44.928  14.329
30666W        W 3091  11.647   6.416  12.957
30667W        W 3092  32.998  19.172   3.822
30668W        W 3093  26.108  31.958   0.850
30669W        W 3094  42.999  18.108  11.541
30670W        W 3095  20.656  32.540   2.793
30671W        W 3096   9.154   1.733  14.299
30672W        W 3097   0.977  35.099  12.573
30673W        W 3098  11.309  32.042  10.441
30674W        W 3099   0.916  29.962  11.980
30675W        W 3100  32.543  29.969   2.256
30676W        W 3101   6.719  24.077  12.495
30677W        W 3102   7.849   7.741  14.473
30678W        W 3103   1.270   1.403  11.529
30679W        W 3104  24.640  42.465  11.379
30680W        W 3105  31.613   1.462  12.852
30681W        W 3106  19.670  32.105   1.889
30682W        W 3107  23.509  13.771   4.258
30683W        W 3108   5.282  12.261  11.893
30684W        W 3109   3.720  18.791   0.888
30685W        W 3110  32.074  27.993   3.217
30686W        W 3111  26.011  16.176  14.886
30687W        W 3112  21.166  35.598   4.158
30688W        W 3113  41.807   9.347   2.306
30689W        W 3114  33.430  27.100   2.325
30690W        W 3115  37.830  20.628  14.005
30691W        W 3116   9.253  25.024   0.279
30692W        W 3117  44.261  43.924  14.416
30693W        W 3118  41.310   9.334  13.411
30694W        W 3119  41.369  20.242   4.238
30695W        W 3120   6.914  21.068   1.352
30696W        W 3121  16.598   6.268  14.914
30697W        W 3122  17.231   2.257   0.465
30698W        W 3123  29.527   7.390  10.609
30699W        W 3124  15.112  21.598  14.296
30700W        W 3125  38.457  12.331  10.576
30701W        W 3126  18.147  35.061  13.512
30702W        W 3127  23.045  36.961   2.232
30703W        W 3128  25.525   0.961  11.372
30704W        W 3129  17.115   4.849  12.373
30705W        W 3130   0.784  34.492   1.851
30706W        W 3131   7.264   9.779  12.997
30707W        W 3132  21.150   0.743  10.540
30708W        W 3133  42.492  17.559   4.343
30709W        W 3134  30.646   2.790   3.827
30710W        W 3135  17.115  29.047  11.066
30711W        W 3136  25.571   6.263   3.855
30712W        W 3137  29.001  16.596   3.247
30713W        W 3138   9.643   0.458   1.270
30714W        W 3139  24.553  13.682  13.814
30715W        W 3140  31.131  21.558  13.539
30716W        W 3141  24.587  39.509  10.590
30717W        W 3142  28.965  42.032   1.227
30718W        W 3143  24.693  41.522  12.951
30719W        W 3144  39.030  21.676   4.659
30720W        W 3145  26.631  44.476   1.825
30721W        W 3146  31.939   6.917  10.957
30722W        W 3147  43.946  28.503  10.458
30723W        W 3148  19.185  42.001  14.015
30724W        W 3149  15.585   4.207   4.733
30725W        W 3150  14.294   2.346   2.360
30726W        W 3151  26.564  32.080   5.614
30727W        W 3152  44.399   0.880  13.064
30728W        W 3153  20.768   9.365  12.905
30729W        W 3154  19.201  17.727  11.468
30730W        W 3155  17.791   8.667   1.294
30731W        W 3156  22.697  21.209   0.481
30732W        W 3157  38.567  33.091   4.136
30733W        W 3158  19.273  29.959   0.819
30734W        W 3159  39.453  41.903  14.449
30735W        W 3160  43.923  16.120   3.226
30736W        W 3161   6.904  37.465  14.783
30737W        W 3162  10.871  22.509   1.251
30738W        W 3163  15.202  36.920  13.528
30739W        W 3164  41.972   0.968   3.673
30740W        W 3165  16.298  34.471  14.914
30741W        W 3166  39.868  43.792   1.709
30742W        W 3167   1.921  37.474  10.990
30743W        W 3168  16.637   0.415  13.456
30744W        W 3169  35.917   3.818  12.853
30745W        W 3170   4.299   2.799  11.604
30746W        W 3171  41.500  44.360   4.712
30747W        W 3172   2.421  24.665   0.931
30748W        W 3173  18.736   4.430  12.875
30749W        W 3174  28.170  22.567  14.377
30750W        W 3175   8.201  21.702  14.291
30751W        W 3176  18.660  39.988   0.919
30752W        W 3177  17.253  18.585  13.793
30753W        W 3178  25.117  11.245   1.811
30754W        W 3179  28.109  28.096   5.172
30755W        W 3180   6.812  38.017  10.026
30756W        W 3181   4.256   9.262  14.022
30757W        W 3182  33.489   5.263  10.586
30758W        W 3183  16.790  15.276   2.213
30759W        W 3184   0.769   8.389   2.287
30760W        W 3185  21.728  18.229  11.054
30761W        W 3186  44.927   2.862  13.369
30762W        W 3187   8.891  30.580   0.945
30763W        W 3188  18.066  11.702   1.765
30764W        W 3189  14.736  37.037  11.911
30765W        W 3190  23.238  11.216  11.862
30766W        W 3191   3.877   3.897   0.851
30767W        W 3192  38.964   8.679   0.875
30768W        W 3193  12.273  31.914  11.374
30769W        W 3194  41.844  36.067   9.931
30770W        W 3195   9.170  31.605   1.435
30771W        W 3196  15.303  33.413  12.509
30772W        W 3197  42.003  23.586   0.436
30773W        W 3198   1.361  26.700   2.319
30774W        W 3199  41.962  30.154  11.529
30775W        W 3200  42.961  15.751  13.948
30776W        W 3201  38.974  27.980  13.837
30777W        W 3202  21.251  25.176   4.171
30778W        W 3203  25.479   0.430   0.915
30779W        W 3204  16.575  29.550  14.024
30780W        W 3205  32.444  14.811  13.849
30781W        W 3206  38.450   9.811   4.709
30782W        W 3207  33.468  18.244  11.921
30783W        W 3208   7.713   3.344   5.285
30784W        W 3209  35.469  41.018  12.384
30785W        W 3210  11.684  34.578   4.248
30786W        W 3211   3.229  40.537  11.982
30787W        W 3212   1.247  28.522  12.982
30788W        W 3213  18.760  31.577   5.175
30789W        W 3214  37.863  42.945  12.987
30790W        W 3215  15.287  19.207  13.046
30791W        W 3216  42.950   5.741   0.423
30792W        W 3217  16.692   5.403  13.858
30793W        W 3218  22.074   0.341  12.939
30794W        W 3219  28.942  42.448   2.189
30795W        W 3220  43.379  39.451  12.931
30796W        W 3221  29.660  21.023   0.797
30797W        W 3222  40.506  28.086  11.509
30798W        W 3223  42.524  24.644  12.462
30799W        W 3224  12.196  23.495  11.374
30800W        W 3225   8.730  15.637  10.972
30801W        W 3226  44.986   8.671  11.985
30802W        W 3227   7.193  12.855  13.547
30803W        W 3228  39.333  19.092  11.457
30804W        W 3229  31.435  13.119  12.851
30805W        W 3230  27.088  15.788   4.207
30806W        W 3231  41.934  21.626  13.056
30807W        W 3232   6.225  28.135  13.020
30808W        W 3233  19.703  16.223   1.716
30809W        W 3234  36.958   8.191  10.534
30810W        W 3235  42.811   4.333  14.904
30811W        W 3236  31.912   0.324   0.932
30812W        W 3237  43.356  18.199   1.804
30813W        W 3238  24.023  11.739   4.604
30814W        W 3239   7.792  32.133   4.636
30815W        W 3240  36.587   8.659   2.680
30816W        W 3241  33.037  41.438   4.628
30817W        W 3242   5.828  23.666   3.306
30818W        W 3243   7.252  33.588  10.474
30819W        W 3244  21.709   1.395  13.940
30820W        W 3245  14.677  31.060   1.271
30821W        W 3246  14.257  42.495  14.814
30822W        W 3247   8.861  41.955  12.548
30823W        W 3248  38.378  39.978  13.379
30824W        W 3249   6.228  29.161   0.446
30825W        W 3250  31.044  19.754  12.891
30826W        W 3251  37.021  30.163  11.887
30827W        W 3252  26.035   3.836  12.905
30828W        W 3253   0.350  26.013   2.732
30829W        W 3254   5.744  40.413   0.297
30830W        W 3255   3.774  21.061  10.423
30831W        W 3256  40.308  28.044   0.860
30832W        W 3257  14.631  28.129   3.304
30833W        W 3258  20.647  41.969   0.253
30834W        W 3259  14.670  26.021   1.731
30835W        W 3260   9.767  37.497  11.080
30836W        W 3261  21.067  37.872   1.842
30837W        W 3262  29.020  31.070   4.130
30838W        W 3263  37.906  15.144  10.603
30839W        W 3264  26.696  22.153   3.252
30840W        W 3265  29.480  13.215   3.289
30841W        W 3266  23.509  11.198  11.121
30842W        W 3267  26.589  25.087   4.837
30843W        W 3268  23.659  44.391   4.745
30844W        W 3269  27.088  22.551  14.308
30845W        W 3270  25.536  26.609   0.251
30846W        W 3271  32.014  37.952   4.664
30847W        W 3272  18.560  30.506   2.665
30848W        W 3273  34.433  32.550  12.952
30849W        W 3274   1.307  20.717  14.380
30850W        W 3275  39.410   4.930  12.062
30851W        W 3276  27.073  25.167   1.871
30852W        W 3277  43.450  26.583   0.928
30853W        W 3278   2.911  19.544   1.853
30854W        W 3279   4.435  36.496   0.885
30855W        W 3280  25.535  23.120  14.838
30856W        W 3281   3.952  25.071   1.449
30857W        W 3282  35.358   1.882  12.091
30858W        W 3283   9.879   2.861   3.667
30859W        W 3284   9.244  16.159   3.806
30860W        W 3285  23.523   2.823   3.707
30861W        W 3286  34.585  13.737   4.738
30862W        W 3287  40.822  20.536  11.568
30863W        W 3288  22.152  33.042   3.179
30864W        W 3289  26.009  24.117  13.856
30865W        W 3290  25.083   9.263   3.257
30866W        W 3291  35.446  42.809  12.901
30867W        W 3292   2.385  23.040   0.743
30868W        W 3293   7.845  20.237   0.812
30869W        W 3294  43.959  43.512  13.845
30870W        W 3295   1.734  21.240   3.146
30871W        W 3296   9.682   5.205   5.689
30872W        W 3297   5.856  36.406   2.255
30873W        W 3298  11.801  28.003   0.455
30874W        W 3299  23.583  18.618  11.066
30875W        W 3300  35.578   8.843   2.749
30876W        W 3301  17.306   0.914   0.739
30877W        W 3302  30.086  38.820   3.222
30878W        W 3303  19.737  27.064  11.575
30879W        W 3304  24.125  29.972  12.449
30880W        W 3305  19.644   3.764  14.988
30881W        W 3306  37.382   5.847  14.023
30882W        W 3307  27.594  35.572  14.361
30883W        W 3308  36.093  27.518  12.996
30884W        W 3309   2.470   1.475   4.206
30885W        W 3310  21.126  13.622  13.846
30886W        W 3311  38.981  19.266  13.988
30887W        W 3312  11.632  30.146   4.744
30888W        W 3313  26.168  24.520   4.714
30889W        W 3314  14.154   8.889   3.752
30890W        W 3315   9.838   5.429  13.951
30891W        W 3316  42.512  40.457  12.481
30892W        W 3317  15.774  36.933   0.877
30893W        W 3318   9.316   1.381   0.343
30894W        W 3319  20.117   1.326   3.779
30895W        W 3320  34.984   9.727  14.948
30896W        W 3321  40.412  10.246  11.993
30897W        W 3322  34.056  42.513  10.923
30898W        W 3323  26.050   8.196   1.285
30899W        W 3324  13.297  35.991  12.890
30900W        W 3325  39.944  32.440   3.253
30901W        W 3326  34.906  39.039   4.725
30902W        W 3327  34.109  10.849  13.329
30903W        W 3328  13.809   3.939  10.455
30904W        W 3329   3.230  10.305   4.804
30905W        W 3330   7.676  18.670   2.785
30906W        W 3331  22.717  39.926   2.323
30907W        W 3332  21.721  13.638  13.526
30908W        W 3333  42.992  34.576   2.666
30909W        W 3334  10.315   3.437  12.495
30910W        W 3335   6.287  40.973  12.432
30911W        W 3336  19.754  14.164   1.225
30912W        W 3337  21.091  42.440  12.045
30913W        W 3338  11.215   2.286   4.657
30914W        W 3339  38.429  20.607  10.972
30915W        W 3340   3.246   4.776   0.823
30916W        W 3341  38.039  40.525   2.888
30917W        W 3342  30.643  32.567  10.992
30918W        W 3343   7.876  35.555   2.709
30919W        W 3344  37.020  35.983  10.442
30920W        W 3345  23.036  39.455  14.771
30921W        W 3346  31.985  22.158  12.936
30922W        W 3347   3.924  23.053  13.996
30923W        W 3348   5.931  29.497  13.882
30924W        W 3349  34.464  27.480   3.277
30925W        W 3350  26.607  34.090  14.827
30926W        W 3351  28.524  14.224  11.401
30927W        W 3352  12.138   9.719   3.836
30928W        W 3353  38.842  29.560   2.267
30929W        W 3354   1.868  26.047   0.292
30930W        W 3355  18.208  20.043   0.938
30931W        W 3356  22.078   2.801  11.024
30932W        W 3357  38.438  23.663  12.025
30933W        W 3358  35.487  40.336   0.255
30934W        W 3359   2.753  42.317  14.387
30935W        W 3360  11.209  12.821   1.313
30936W        W 3361  22.209  13.699  13.837
30937W        W 3362   8.719  14.149  11.541
30938W        W 3363  30.918   1.902  13.308
30939W        W 3364  40.950  16.711   2.365
30940W        W 3365  14.789  35.071   4.684
30941W        W 3366   2.291  34.892  13.466
30942W        W 3367  31.588  26.647   2.677
30943W        W 3368   6.216   7.668  10.506
30944W        W 3369  40.399  39.042   5.211
30945W        W 3370  11.140  44.785  10.411
30946W        W 3371   4.282  32.611   4.796
30947W        W 3372   7.175  41.431   3.856
30948W        W 3373  34.063  28.955  12.469
30949W        W 3374  36.425   0.249   9.925
30950W        W 3375  28.621  30.435   3.647
30951W        W 3376  30.907  20.717  14.290
30952W        W 3377   6.206  24.628   2.277
30953W        W 3378  32.974  12.698   4.673
30954W        W 3379  22.208  20.654   4.166
30955W        W 3380  43.456  23.548   1.406
30956W        W 3381  22.668  42.401  14.809
30957W        W 3382   9.351  32.422   4.759
30958W        W 3383  37.376  31.470   1.825
30959W        W 3384   7.274  28.679   0.792
30960W        W 3385  13.782   7.702  11.573
30961W        W 3386  38.013  20.172   1.228
30962W        W 3387   8.858   8.237   5.114
30963W        W 3388   7.768  26.995  11.103
30964W        W 3389  37.577  26.683  13.853
30965W        W 3390  44.918  30.067   4.184
30966W        W 3391  12.300  18.067   3.323
30967W        W 3392  26.118  34.880  13.376
30968W        W 3393  14.822  22.745   4.815
30969W        W 3394  35.999  32.926   2.832
30970W        W 3395  22.515  31.047  13.795
30971W        W 3396  26.558  40.915  13.492
30972W        W 3397  42.915  21.179   1.247
30973W        W 3398  29.971  18.775  11.927
30974W        W 3399  25.623   4.850  12.485
30975W        W 3400  16.670  20.127  13.805
30976W        W 3401  13.280  11.684   3.867
30977W        W 3402  13.331   4.424  12.871
30978W        W 3403  19.748  18.634   1.409
30979W        W 3404  42.483  44.309   4.210
30980W        W 3405  21.045  28.972   3.230
30981W        W 3406  31.537  37.844   3.363
30982W        W 3407   4.317  28.591   2.385
30983W        W 3408  31.645  26.124   3.750
30984W        W 3409  36.944  21.728  13.055
30985W        W 3410  25.192  42.860  10.458
30986W        W 3411  29.001  10.174  10.989
30987W        W 3412   0.385  20.161  13.011
30988W        W 3413  38.533  14.738   4.216
30989W        W 3414  40.916  32.537   3.684
30990W        W 3415  23.602   0.946   3.683
30991W        W 3416  29.502  33.128  14.951
30992W        W 3417  14.795  10.270   4.733
30993W        W 3418  12.298  26.537  11.613
30994W        W 3419   9.754  21.563   1.816
30995W        W 3420  26.476  32.947   3.224
30996W        W 3421  14.248  23.524   3.311
30997W        W 3422  38.433  38.069  13.493
30998W        W 3423  10.257  25.134  10.519
30999W        W 3424  29.645  30.956   5.164
31000W        W 3425  22.171  40.951  14.933
31001W        W 3426  30.070  16.609   3.711
31002W        W 3427  39.810  32.076   1.428
31003W        W 3428  41.930  12.205   1.853
31004W        W 3429  43.878   1.470  10.536
31005W        W 3430   5.201  44.316   4.782
31006W        W 3431  18.110   6.422  13.060
31007W        W 3432   1.960  13.722  14.886
31008W        W 3433  34.001  41.010   1.350
31009W        W 3434   7.906  22.620  12.555
31010W        W 3435  22.141   8.399   9.526
31011W        W 3436  16.618   4.313  12.885
31012W        W 3437  35.912  31.426   1.212
31013W        W 3438  34.477  25.565  11.557
31014W        W 3439   8.193  31.067  14.939
31015W        W 3440  27.539  20.090   0.440
31016W        W 3441  16.734  15.698  13.009
31017W        W 3442  19.722  15.721  13.035
31018W        W 3443  24.015  23.564   2.294
31019W        W 3444  17.081  12.759  12.947
31020W        W 3445  30.539   1.774  13.361
31021W        W 3446   4.294  38.015  14.320
31022W        W 3447  14.233  12.186   4.597
31023W        W 3448  37.502  25.506   2.182
31024W        W 3449  42.826  36.439   4.789
31025W        W 3450  28.463  27.145   0.959
31026W        W 3451  30.102  44.430   2.352
31027W        W 3452  24.055  36.857   3.853
31028W        W 3453  34.381  16.254   0.483
31029W        W 3454  15.158   9.773   0.284
31030W        W 3455   2.849   6.188   2.834
31031W        W 3456  28.175  31.076   9.998
31032W        W 3457   5.728  15.132  12.047
31033W        W 3458   4.711  19.705  10.552
31034W        W 3459  28.041  42.311  12.476
31035W        W 3460  35.010  35.501   2.378
31036W        W 3461  35.069  35.861  10.641
31037W        W 3462  20.705   6.870   2.412
31038W        W 3463  37.561  18.788   2.240
31039W        W 3464   5.375  27.972  14.477
31040W        W 3465  15.791   6.878   2.207
31041W        W 3466  12.701   6.780   0.473
31042W        W 3467  31.138  40.373  11.497
31043W        W 3468  19.084   2.849  13.934
31044W        W 3469  24.172  40.368   4.334
31045W        W 3470   4.771   1.899  10.035
31046W        W 3471  33.074  41.922  12.471
31047W        W 3472  17.179   2.812  11.472
31048W        W 3473  26.549   2.414   0.884
31049W        W 3474  36.990  42.878  10.406
31050W        W 3475  38.464   8.333  13.832
31051W        W 3476  40.028  32.120   3.322
31052W        W 3477  44.763  13.197  14.455
31053W        W 3478  12.247  39.383  11.868
31054W        W 3479  30.617  29.951   0.325
31055W        W 3480  29.094   4.443  13.828
31056W        W 3481  40.428  43.966   1.327
31057W        W 3482   7.878   7.288  13.520
31058W        W 3483  26.602  12.254   0.373
31059W        W 3484   4.877  11.774  14.468
31060W        W 3485  38.344   4.309   0.815
31061W        W 3486  38.519  37.010  12.415
31062W        W 3487  12.793  23.158   5.192
31063W        W 3488  24.033  10.819   0.436
31064W        W 3489  40.053  37.885   4.302
31065W        W 3490  29.096   9.813   0.916
31066W        W 3491  19.088  20.758  13.352
31067W        W 3492   0.781   0.960   4.129
31068W        W 3493  38.916  28.575   4.627
31069W        W 3494  28.612  24.598   3.840
31070W        W 3495  13.204   8.404  14.954
31071W        W 3496  24.632  35.899   4.322
31072W        W 3497  15.307  23.098   1.247
31073W        W 3498  14.286  26.514  14.879
31074W        W 3499  40.890  14.225   0.281
31075W        W 3500  17.261   9.775  12.923
31076W        W 3501  44.371   0.811  14.939
31077W        W 3502  31.133  44.376   3.337
31078W        W 3503  17.676  30.093  10.154
31079W        W 3504  35.364   6.215  14.852
31080W        W 3505  13.717  24.111   5.674
31081W        W 3506  28.512  10.817  14.788
31082W        W 3507   6.367  38.342  13.799
31083W        W 3508  33.408  14.218   4.724
31084W        W 3509   1.333   2.440  12.026
31085W        W 3510   2.426  31.996  14.380
31086W        W 3511  34.447  22.111   4.755
31087W        W 3512  33.008  25.684   2.285
31088W        W 3513  39.367  31.630  13.500
31089W        W 3514  43.961   5.782   3.363
31090W        W 3515  24.620  27.609   2.363
31091W        W 3516  19.201   6.352  11.066
31092W        W 3517   0.849   1.950  12.463
31093W        W 3518  37.478   5.722   2.727
31094W        W 3519  41.534  11.180  12.968
31095W        W 3520  44.762  20.762  11.034
31096W        W 3521  22.175   9.298   4.179
31097W        W 3522  12.336  33.427   4.735
31098W        W 3523  36.503  33.978  14.477
31099W        W 3524  15.179   3.725   2.870
31100W        W 3525  32.500   6.270   4.129
31101W        W 3526   0.480  23.082   1.236
31102W        W 3527  15.759  43.988   4.295
31103W        W 3528  18.254  43.903   3.750
31104W        W 3529  31.091  39.044  11.971
31105W        W 3530  23.222  36.532  14.924
31106W        W 3531   8.671  43.765  14.383
31107W        W 3532   9.163  36.087   4.271
31108W        W 3533  14.769  22.186   5.775
31109W        W 3534  27.137  30.985   1.808
31110W        W 3535  26.186  22.052  11.563
31111W        W 3536  30.094   9.226  13.847
31112W        W 3537  44.403  13.789  11.529
31113W        W 3538  34.472  22.560   4.826
31114W        W 3539  31.557  15.093  10.126
31115W        W 3540  27.977  22.129  11.099
31116W        W 3541   9.340  36.351  14.418
31117W        W 3542  19.624  18.233   0.368
31118W        W 3543  16.624  20.534   1.895
31119W        W 3544  24.056   2.918   2.341
31120W        W 3545  19.654  22.016   0.340
31121W        W 3546   6.756  38.026  13.835
31122W        W 3547  30.461  22.566  14.965
31123W        W 3548  32.990   6.419  10.982
31124W        W 3549  10.352  43.455   0.402
31125W        W 3550  28.949  34.431   2.243
31126W        W 3551  43.872  12.319  12.416
31127W        W 3552  38.527   1.282  12.519
31128W        W 3553   8.817  43.829  13.513
31129W        W 3554  33.529   0.464   2.887
31130W        W 3555  23.659  34.392   0.271
31131W        W 3556   3.813  19.129  10.905
31132W        W 3557  34.943   6.301   2.375
31133W        W 3558  37.519  35.369   2.816
31134W        W 3559   7.909  29.475   2.324
31135W        W 3560  32.562   4.913  10.553
31136W        W 3561  17.635  44.801  12.825
31137W        W 3562  21.029  24.182   4.741
31138W        W 3563  32.067  25.178   2.865
31139W        W 3564  15.671   2.364  11.447
31140W        W 3565  44.945   9.762   0.812
31141W        W 3566  38.524  12.629   1.890
31142W        W 3567  14.651   2.350  14.894
31143W        W 3568   9.216   7.740   4.156
31144W        W 3569  24.505  23.714  13.981
31145W        W 3570  30.029   9.342  12.929
31146W        W 3571  33.539  16.256   3.807
31147W        W 3572  10.213  42.466  13.052
31148W        W 3573  36.407  11.844  13.058
31149W        W 3574   3.929  15.221   3.367
31150W        W 3575  21.202  20.055   1.422
31151W        W 3576  32.996   6.401  13.790
31152W        W 3577   9.742  41.840  12.092
31153W        W 3578   6.253  43.491   3.703
31154W        W 3579  13.670  41.404   4.717
31155W        W 3580  37.946  17.744  13.475
31156W        W 3581  15.161   5.302  10.614
31157W        W 3582  20.758   8.739  14.831
31158W        W 3583  43.284  27.195   2.346
31159W        W 3584  40.885  31.522  13.473
31160W        W 3585  33.990  33.934   3.833
31161W        W 3586   4.871  15.104   2.698
31162W        W 3587   3.877  18.181   0.383
31163W        W 3588   6.377   1.258   2.793
31164W        W 3589   5.805  35.366  13.962
31165W        W 3590  25.506  41.038   0.337
31166W        W 3591   9.848  12.631  13.963
31167W        W 3592  27.480  40.426  12.045
31168W        W 3593  10.739  14.153   1.282
31169W        W 3594  23.629  13.710  12.010
31170W        W 3595  23.535  29.456   2.814
31171W        W 3596  17.082   4.747  11.978
31172W        W 3597   3.375  36.988   1.437
31173W        W 3598  33.914   0.887   2.235
31174W        W 3599  33.986   4.920  13.946
31175W        W 3600  34.460  28.646  10.459
31176W        W 3601   8.216  44.849   1.223
31177W        W 3602  32.081  18.648  12.866
31178W        W 3603  13.610   9.195   4.647
31179W        W 3604  35.446  24.074   5.124
31180W        W 3605  23.213  27.998  13.891
31181W        W 3606   8.848   1.931  10.134
31182W        W 3607  26.131   4.758  13.453
31183W        W 3608  30.147   9.164   2.791
31184W        W 3609  14.109  31.080   4.831
31185W        W 3610  29.995  33.099  12.421
31186W        W 3611   7.854  20.108  11.101
31187W        W 3612  40.966  15.631  12.843
31188W        W 3613  21.248  42.322  14.330
31189W        W 3614  14.626   5.268  10.637
31190W        W 3615  26.536  19.665  13.918
31191W        W 3616   3.386  29.647   2.860
31192W        W 3617   5.295   2.258  12.927
31193W        W 3618   9.289  20.071   0.960
31194W        W 3619  44.964  14.744   0.297
31195W        W 3620  35.964   0.335   3.382
31196W        W 3621  32.461  39.969  14.938
31197W        W 3622   9.664  36.881   3.225
31198W        W 3623  18.763  31.997  10.431
31199W        W 3624   4.387   2.865  14.005
31200W        W 3625   2.435  38.530   2.863
31201W        W 3626  19.722   1.358   3.218
31202W        W 3627  34.894  33.433  11.029
31203W        W 3628  42.478  37.464  14.941
31204W        W 3629   0.308  10.825  11.513
31205W        W 3630  10.781  27.052   0.738
31206W        W 3631  43.964  39.822  12.977
31207W        W 3632  23.613  40.885  14.911
31208W        W 3633   9.278  13.762   4.190
31209W        W 3634  23.201  20.668  13.503
31210W        W 3635  26.527  37.384  10.116
31211W        W 3636  22.163  29.626  11.122
31212W        W 3637  11.703  43.842  12.996
31213W        W 3638   1.927  36.411   3.777
31214W        W 3639  36.455   7.224  13.310
31215W        W 3640  38.422  31.637   0.296
31216W        W 3641  27.180  23.186   1.347
31217W        W 3642  41.828  36.042   5.179
31218W        W 3643  34.032  38.869  14.303
31219W        W 3644  33.074  31.971  10.459
31220W        W 3645  23.666   7.281   4.199
31221W        W 3646   8.698  33.979  10.912
31222W        W 3647  24.178  42.281  10.421
31223W        W 3648  39.365  12.666   1.920
31224W        W 3649   8.899  26.473   3.633
31225W        W 3650   9.162  37.041   9.664
31226W        W 3651  39.923   7.740   1.715
31227W        W 3652  37.912  23.054   4.234
31228W        W 3653  34.093  32.497  14.961
31229W        W 3654  33.113  41.432   1.923
31230W        W 3655  25.601  43.352   2.383
31231W        W 3656  27.965  44.959   3.653
31232W        W 3657  19.689  23.988   2.406
31233W        W 3658  11.212  17.065   1.444
31234W        W 3659  24.702  37.370   5.173
31235W        W 3660  21.203  13.229   5.305
31236W        W 3661  21.541  35.519   0.304
31237W        W 3662  39.437  31.019  12.968
31238W        W 3663  32.552   1.296   2.736
31239W        W 3664  19.765  21.706   0.746
31240W        W 3665  21.516  40.842  10.575
31241W        W 3666  14.213  29.928   4.762
31242W        W 3667  37.570  39.486   1.927
31243W        W 3668  44.267  29.613  12.074
31244W        W 3669  19.263  41.016  13.794
31245W        W 3670  36.534   2.806  13.419
31246W        W 3671  23.054  34.444  12.871
31247W        W 3672  20.551  38.343  14.838
31248W        W 3673  43.828  37.067   2.756
31249W        W 3674  11.263  27.963  14.865
31250W        W 3675  43.501  23.520  10.592
31251W        W 3676  23.219  34.091   1.702
31252W        W 3677  16.208  10.726  13.009
31253W        W 3678   9.859  29.617  14.307
31254W        W 3679  18.057  44.478  12.044
31255W        W 3680  36.387  10.336  10.645
31256W        W 3681   8.801  23.142  10.999
31257W        W 3682  32.903   2.384   4.237
31258W        W 3683   6.839  14.156   4.231
31259W        W 3684  43.405  26.031  13.508
31260W        W 3685   9.222  31.952   2.201
31261W        W 3686  16.114  38.509  12.878
31262W        W 3687  25.131  21.682   4.625
31263W        W 3688  31.104   6.793  11.117
31264W        W 3689  38.549  18.209   3.702
31265W        W 3690  19.770  11.861   0.794
31266W        W 3691  19.774  43.300   3.334
31267W        W 3692   1.958  26.485   1.782
31268W        W 3693   6.851  19.572  11.034
31269W        W 3694   7.382  44.427   0.815
31270W        W 3695  10.860  27.642   2.728
31271W        W 3696   5.290   5.868  11.890
31272W        W 3697   3.326  38.357  11.499
31273W        W 3698   2.310  37.428   3.177
31274W        W 3699  16.303  13.820   1.931
31275W        W 3700  24.110  40.827   1.383
31276W        W 3701   4.214  34.965  11.569
31277W        W 3702  18.204  28.030  10.569
31278W        W 3703   4.350  11.630  14.908
31279W        W 3704   2.873  10.359  12.946
31280W        W 3705   6.217  20.568  12.995
31281W        W 3706  36.346  28.007  11.609
31282W        W 3707   4.699  34.103  13.978
31283W        W 3708   6.882   4.362  13.897
31284W        W 3709  31.985  38.921   3.722
31285W        W 3710  21.684   8.756  13.461
31286W        W 3711  36.359  40.840  11.530
31287W        W 3712  23.103  34.914  11.049
31288W        W 3713   1.910  12.844   1.852
31289W        W 3714   0.823  43.822  11.528
31290W        W 3715  14.239   1.866   0.406
31291W        W 3716   4.771  38.074   4.251
31292W        W 3717  37.506   3.387  13.969
31293W        W 3718   4.215  27.038   2.230
31294W        W 3719  24.607  23.612   3.238
31295W        W 3720  16.774   1.975   1.406
31296W        W 3721  32.581  12.851   5.317
31297W        W 3722   4.386  30.981  12.965
31298W        W 3723  26.637  22.089  10.453
31299W        W 3724   6.387  28.126  12.346
31300W        W 3725   2.765  16.228  10.581
31301W        W 3726  27.482   5.254  11.013
31302W        W 3727  38.504  14.184   1.930
31303W        W 3728  32.612  44.329  10.612
31304W        W 3729   1.902  21.136   3.631
31305W        W 3730   8.168  34.902   2.737
31306W        W 3731  34.561   3.805   0.326
31307W        W 3732  11.332   4.853   0.940
31308W        W 3733   6.255  30.461  11.958
31309W        W 3734  31.897  31.029  11.993
31310W        W 3735  43.789  34.372  14.962
31311W        W 3736  25.610  43.899  13.028
31312W        W 3737  23.046  44.927   2.901
31313W        W 3738  30.148  23.683   4.178
31314W        W 3739  34.534   6.385   3.689
31315W        W 3740  28.948   3.824   1.834
31316W        W 3741  39.552  25.086   2.314
31317W        W 3742  10.201  21.150  14.471
31318W        W 3743  42.881  42.307   2.863
31319W        W 3744  21.687  34.488   0.922
31320W        W 3745  12.854  20.630  11.445
31321W        W 3746   2.723  31.582   0.390
31322W        W 3747  35.532  18.581   2.211
31323W        W 3748  41.417   1.828   3.348
31324W        W 3749  19.667  11.789   4.227
31325W        W 3750  34.107  26.956  10.404
31326W        W 3751  42.783  16.305   4.818
31327W        W 3752  26.997  42.431   0.277
31328W        W 3753  35.003  33.072   4.833
31329W        W 3754  37.068  31.146  13.511
31330W        W 3755  39.410  41.402  10.631
31331W        W 3756  39.998  12.318  13.005
31332W        W 3757  14.244  22.232  12.554
31333W        W 3758  40.388   3.276  10.527
31334W        W 3759  17.082   7.331   2.339
31335W        W 3760   3.388  17.169   0.404
31336W        W 3761  13.211  25.117   3.162
31337W        W 3762  14.277  13.721  13.906
31338W        W 3763  16.107  38.986   2.236
31339W        W 3764  10.707  19.239  14.488
31340W        W 3765  21.246  27.519   2.810
31341W        W 3766  29.062  23.622  13.886
31342W        W 3767  35.409  37.581   0.428
31343W        W 3768   1.763  24.661  11.565
31344W        W 3769   7.666  26.476  12.497
31345W        W 3770  21.512  31.100  13.489
31346W        W 3771  35.495  28.975   4.693
31347W        W 3772  40.304  25.575  11.019
31348W        W 3773   8.818  18.189   0.400
31349W        W 3774  19.168  24.598   2.309
31350W        W 3775   4.411   0.482  14.902
31351W        W 3776  31.495  41.487  13.420
31352W        W 3777  28.106   7.417  11.930
31353W        W 3778  41.799  15.605   3.706
31354W        W 3779   2.931   8.198   2.852
31355W        W 3780  38.975  37.403  12.882
31356W        W 3781  25.708   9.343  13.018
31357W        W 3782  37.875  41.809   3.320
31358W        W 3783  31.998  38.075   1.303
31359W        W 3784   0.350  40.455  12.515
31360W        W 3785  39.346   1.858  12.994
31361W        W 3786  28.577  28.016   1.373
31362W        W 3787  34.941  11.224  11.434
31363W        W 3788   0.956   6.251   2.786
31364W        W 3789   9.806  29.026  14.797
31365W        W 3790  32.088  15.612  14.951
31366W        W 3791  33.612  31.598  13.542
31367W        W 3792  44.957  32.569  11.432
31368W        W 3793   4.311  20.097  13.451
31369W        W 3794   6.904   7.224   1.271
31370W        W 3795   6.224   2.965   4.142
31371W        W 3796  43.506  43.504   0.893
31372W        W 3797  20.050   0.404  10.427
31373W        W 3798  21.555  15.657  11.379
31374W        W 3799  41.847  24.223  12.357
31375W        W 3800   1.261  30.560  11.428
31376W        W 3801  30.963  17.572   4.774
31377W        W 3802  15.809  36.434  14.356
31378W        W 3803   1.927  10.356  12.024
31379W        W 3804  42.373  11.839   3.285
31380W        W 3805  40.890   6.223   3.348
31381W        W 3806  38.960  44.855   2.854
31382W        W 3807  42.483   9.842  11.123
31383W        W 3808  19.744   1.450  13.996
31384W        W 3809   2.786  27.662  13.314
31385W        W 3810  12.185  29.021  11.912
31386W        W 3811   6.835  33.030   0.908
31387W        W 3812  43.002  44.922  10.931
31388W        W 3813  16.165  11.312  13.467
31389W        W 3814   6.295  29.664   0.823
31390W        W 3815  37.030  21.017   2.318
31391W        W 3816   1.327  25.997   0.745
31392W        W 3817  31.978  40.847  13.548
31393W        W 3818   7.414  20.065  14.391
31394W        W 3819  44.350  42.347  14.822
31395W        W 3820   9.713   1.471  11.886
31396W        W 3821  18.082   4.225  14.381
31397W        W 3822  29.620  34.416   2.357
31398W        W 3823  39.345  26.476  14.983
31399W        W 3824  24.601  20.749   2.396
31400W        W 3825   5.426  27.639  11.984
31401W        W 3826  30.090  41.942  11.424
31402W        W 3827  29.968  31.495  10.486
31403W        W 3828  10.855  15.243   1.263
31404W        W 3829  19.600  25.200   3.802
31405W        W 3830  32.068  19.092   1.321
31406W        W 3831   4.406  23.208   1.254
31407W        W 3832  20.118  27.963   3.247
31408W        W 3833  38.382  38.844  13.000
31409W        W 3834  12.704  28.175   4.681
31410W        W 3835  35.581  29.457   1.295
31411W        W 3836  10.675  19.250   4.700
31412W        W 3837  11.349  32.942   1.221
31413W        W 3838  44.487   7.825  12.374
31414W        W 3839  23.046  39.025  12.353
31415W        W 3840   1.394  32.103   2.721
31416W        W 3841  23.535  36.899   3.148
31417W        W 3842  14.704  42.009  14.476
31418W        W 3843  35.008  21.228   0.400
31419W        W 3844  11.127   8.197   5.082
31420W        W 3845  12.777   4.944  12.086
31421W        W 3846  33.543  43.880   3.347
31422W        W 3847   9.678  16.239   2.225
31423W        W 3848   5.360   3.806  13.994
31424W        W 3849   5.426  25.061   1.865
31425W        W 3850  14.618   8.769  14.461
31426W        W 3851  31.458  34.921   3.289
31427W        W 3852  27.969  41.952   3.728
31428W        W 3853  39.913  19.138   0.440
31429W        W 3854   9.252  12.209  14.275
31430W        W 3855  42.789   2.728   0.256
31431W        W 3856  15.288  11.311   0.792
31432W        W 3857   6.417  37.832   2.811
31433W        W 3858   1.362  17.225  10.962
31434W        W 3859  18.572   6.304   3.277
31435W        W 3860  10.184   7.912  13.503
31436W        W 3861  15.212  33.035   1.449
31437W        W 3862  18.791  10.346   1.897
31438W        W 3863  38.977  20.058   1.813
31439W        W 3864  16.166  36.542   4.744
31440W        W 3865   9.849   5.891  13.013
31441W        W 3866  23.581  17.112  10.569
31442W        W 3867   3.827   3.772  10.993
31443W        W 3868  21.139  30.974  14.423
31444W        W 3869  12.140   3.779   1.310
31445W        W 3870   4.734  30.478  10.523
31446W        W 3871  36.552  28.172   3.808
31447W        W 3872  30.585  22.010  11.963
31448W        W 3873  43.432  18.053   0.945
31449W        W 3874  10.871  22.606  11.425
31450W        W 3875  30.991  34.504   4.342
31451W        W 3876  33.494   7.252  12.395
31452W        W 3877  16.581  40.372   4.659
31453W        W 3878  36.986  16.569  12.402
31454W        W 3879   4.400  39.432  12.934
31455W        W 3880  18.063  26.511   2.734
31456W        W 3881  12.652   7.730   1.913
31457W        W 3882  34.453  21.232  11.988
31458W        W 3883  15.802  28.139  13.873
31459W        W 3884   8.203  39.974   4.330
31460W        W 3885  22.134  10.844  14.813
31461W        W 3886  11.180  18.149  13.368
31462W        W 3887  18.191  41.471   0.738
31463W        W 3888  42.501  33.075   4.636
31464W        W 3889  35.042  23.106   0.307
31465W        W 3890  42.336  22.641  12.027
31466W        W 3891  24.183  21.621  11.890
31467W        W 3892  24.140  15.137  11.892
31468W        W 3893  26.459  12.806   0.822
31469W        W 3894  27.082  26.986  14.803
31470W        W 3895  13.350  18.227  10.487
31471W        W 3896  17.293  13.253   4.672
31472W        W 3897  41.887  30.946   3.359
31473W        W 3898  27.684   5.713   3.305
31474W        W 3899   1.295  16.131  11.046
31475W        W 3900  19.699  35.873   1.406
31476W        W 3901  39.523  38.073  12.046
31477W        W 3902  34.470  34.444   3.730
31478W        W 3903   0.906  22.542  14.821
31479W        W 3904  20.266  12.284  14.301
31480W        W 3905   4.730  42.888  11.940
31481W        W 3906  42.855  28.551  10.606
31482W        W 3907  23.224   9.810   0.354
31483W        W 3908  30.056  35.041  13.321
31484W        W 3909  33.431   0.305  11.042
31485W        W 3910  21.548  11.312  14.931
31486W        W 3911  30.990  31.442   0.303
31487W        W 3912  44.357  24.129   3.170
31488W        W 3913  42.962  28.521   4.755
31489W        W 3914   6.714  39.866  11.539
31490W        W 3915   4.329  21.251  11.532
31491W        W 3916  41.963  22.557   4.634
31492W        W 3917  40.903  17.588   2.811
31493W        W 3918  27.131  30.946  10.105
31494W        W 3919  20.066   6.843   2.207
31495W        W 3920  21.623  32.542   4.696
31496W        W 3921   2.369  28.486  11.496
31497W        W 3922   8.784  26.649  12.873
31498W        W 3923  31.057  19.097   2.760
31499W        W 3924  42.901  14.753   2.705
31500W        W 3925  41.826  41.867  14.487
31501W        W 3926  28.539  36.530   3.695
31502W        W 3927  30.630   9.776   3.639
31503W        W 3928   4.929  17.203  10.547
31504W        W 3929  44.365   8.169   4.612
31505W        W 3930   0.923   9.151  13.040
31506W        W 3931  37.576  34.071   2.417
31507W        W 3932  27.467  10.355  13.526
31508W        W 3933  17.171   7.415   0.799
31509W        W 3934  43.770   0.357  13.012
31510W        W 3935  18.730   3.782   2.310
31511W        W 3936  25.999  19.206  14.003
31512W        W 3937  14.228  10.832   4.835
31513W        W 3938  32.596   9.217   4.694
31514W        W 3939  26.482  12.670  10.442
31515W        W 3940  13.674  10.791   3.245
31516W        W 3941  25.171  25.018   2.364
31517W        W 3942   1.969  38.347   0.437
31518W        W 3943   6.328   0.941  13.933
31519W        W 3944  21.547  27.060   2.862
31520W        W 3945  24.650  41.524   3.782
31521W        W 3946   1.321  10.698  14.877
31522W        W 3947  20.141   7.299  12.452
31523W        W 3948   5.241   4.785  14.946
31524W        W 3949  21.163  12.779   2.688
31525W        W 3950  13.281  38.377   4.157
31526W        W 3951  15.114  37.914  11.390
31527W        W 3952  28.954  41.966   3.346
31528W        W 3953  44.462  35.974   2.893
31529W        W 3954  40.486  25.493   4.175
31530W        W 3955  43.488  12.623   4.305
31531W        W 3956  43.971  40.451   3.826
31532W        W 3957  25.579   8.274  13.477
31533W        W 3958  29.635   9.169   2.267
31534W        W 3959   4.417  19.180   0.249
31535W        W 3960  19.645  27.120   4.245
31536W        W 3961  32.094  29.583  12.917
31537W        W 3962  24.663  37.872   2.292
31538W        W 3963  11.668   2.227   0.458
31539W        W 3964  18.155   7.670   0.772
31540W        W 3965  22.556   3.336  13.343
31541W        W 3966  19.714  19.544  13.829
31542W        W 3967  14.758  28.570  13.507
31543W        W 3968  35.392  33.907   1.926
31544W        W 3969  39.343  29.064   1.253
31545W        W 3970  29.162  25.538   0.958
31546W        W 3971   2.956  11.758   2.853
31547W        W 3972  35.941  13.253   0.379
31548W        W 3973   3.325   9.812   0.750
31549W        W 3974   0.270  39.017  10.918
31550W        W 3975  43.831  33.508  12.575
31551W        W 3976  23.208  16.582  10.410
31552W        W 3977   4.434  25.186   2.830
31553W        W 3978  37.520  25.510  11.858
31554W        W 3979  12.672  36.995  12.062
31555W        W 3980  33.507  20.635  11.920
31556W        W 3981  20.115  33.116   0.805
31557W        W 3982  26.055  10.273   1.883
31558W        W 3983  44.441  37.341  13.475
31559W        W 3984  35.405  16.111   1.732
31560W        W 3985  42.369  39.912   4.187
31561W        W 3986  10.277  27.059   3.799
31562W        W 3987   6.415  25.489  14.498
31563W        W 3988  22.192  34.120   3.268
31564W        W 3989  36.919  12.617  14.982
31565W        W 3990  24.520   2.248   2.237
31566W        W 3991  31.065  15.276  12.922
31567W        W 3992  36.484   4.271   1.299
31568W        W 3993  30.634   7.908  11.577
31569W        W 3994  14.119  30.575  10.998
31570W        W 3995  33.998  21.608   0.731
31571W        W 3996  44.766  37.523   0.930
31572W        W 3997  20.659   8.407  14.379
31573W        W 3998   3.729   4.412  11.416
31574W        W 3999  14.202  41.014   1.214
31575W        W 4000   2.806   8.179   0.962
31576W        W 4001   6.231   2.328   2.391
31577W        W 4002   1.443  14.697   2.300
31578W        W 4003  24.500  42.776   9.943
31579W        W 4004  38.406   3.848   4.141
31580W        W 4005  23.169  37.383   4.117
31581W        W 4006  25.975   9.699  14.824
31582W        W 4007  26.981  22.606  13.374
31583W        W 4008  25.559  32.606   0.464
31584W        W 4009  10.643  43.311  13.890
31585W        W 4010  36.024   0.860   2.408
31586W        W 4011  20.610  21.724  10.463
31587W        W 4012  26.584  36.520   2.419
31588W        W 4013  25.561  14.229   5.118
31589W        W 4014  31.008  24.059  10.994
31590W        W 4015  15.223  33.499   0.243
31591W        W 4016  43.796  43.505   4.329
31592W        W 4017  40.033  23.492  10.533
31593W        W 4018  40.831  25.649   4.776
31594W        W 4019  22.119  14.738  10.911
31595W        W 4020  29.175  24.662   2.196
31596W        W 4021   4.448  16.160  14.282
31597W        W 4022  16.246   1.431  13.880
31598W        W 4023  20.183  37.524  14.810
31599W        W 4024  27.558  42.282   2.183
31600W        W 4025  16.166  24.676  12.378
31601W        W 4026  44.984  25.713   0.784
31602W        W 4027  34.116  34.505  10.941
31603W        W 4028  11.632  36.532  10.494
31604W        W 4029  18.578  15.699  11.552
31605W        W 4030  29.606  29.508  12.891
31606W        W 4031   7.854  38.951  13.804
31607W        W 4032  14.804  37.513  10.560
31608W        W 4033  35.456  20.144  13.402
31609W        W 4034  21.107  26.955   4.252
31610W        W 4035  26.679  30.531  13.374
31611W        W 4036  18.284  23.512  12.910
31612W        W 4037  16.730   2.239  12.931
31613W        W 4038  42.464  33.622  10.483
31614W        W 4039  36.088   8.273  11.091
31615W        W 4040  27.660   3.712   0.347
31616W        W 4041  40.993  43.015   0.876
31617W        W 4042   8.718   6.183  11.465
31618W        W 4043  17.560  32.403  10.491
31619W        W 4044  10.811  22.523   0.479
31620W        W 4045  42.844   7.404  10.933
31621W        W 4046  21.243  25.122   3.156
31622W        W 4047  43.508  36.917  11.499
31623W        W 4048   8.738  32.001   1.334
31624W        W 4049   4.255   5.429   2.769
31625W        W 4050  21.103  42.787   2.749
31626W        W 4051  34.885   6.312   0.812
31627W        W 4052  11.170  11.328   1.889
31628W        W 4053   8.237  26.020  10.428
31629W        W 4054  44.360   9.255   3.797
31630W        W 4055  25.186   1.836   0.280
31631W        W 4056   5.361  16.266   3.315
31632W        W 4057   5.784  40.859   1.767
31633W        W 4058  41.819  40.306   0.466
31634W        W 4059  12.765  27.499  12.487
31635W        W 4060  42.966  18.143  14.402
31636W        W 4061  21.630  31.956   3.177
31637W        W 4062  27.977  31.616   3.248
31638W        W 4063  21.678  21.674  11.880
31639W        W 4064  10.255   2.413  11.865
31640W        W 4065  22.106  37.468   4.344
31641W        W 4066   0.257  20.167   0.811
31642W        W 4067  18.054  22.219  13.325
31643W        W 4068  21.634  10.818   9.634
31644W        W 4069  38.843  23.726  13.870
31645W        W 4070  40.851  41.830   0.303
31646W        W 4071  42.941  40.026  13.546
31647W        W 4072  29.967  28.630   1.876
31648W        W 4073   0.394  39.432   0.820
31649W        W 4074  43.857  37.039  13.937
31650W        W 4075  29.552  42.891  10.912
31651W        W 4076  40.837   1.294  13.973
31652W        W 4077  19.048   2.844   3.293
31653W        W 4078  17.781  23.538   1.917
31654W        W 4079   8.269  18.065  11.930
31655W        W 4080  33.021  42.512  12.894
31656W        W 4081   1.471   6.281  14.794
31657W        W 4082  37.929  18.613   1.415
31658W        W 4083   6.296   7.768  11.506
31659W        W 4084  24.518   3.434   2.828
31660W        W 4085   7.350  27.081   3.680
31661W        W 4086  42.852  18.186   2.221
31662W        W 4087   8.288  18.742  12.503
31663W        W 4088  41.007  39.473   1.363
31664W        W 4089  38.939  42.781   1.867
31665W        W 4090  19.615  43.017   2.863
31666W        W 4091  42.335  11.652   3.864
31667W        W 4092  39.523  44.410   4.336
31668W        W 4093  39.890  28.480   2.877
31669W        W 4094  36.996  12.624  12.952
31670W        W 4095  12.777  33.433   1.303
31671W        W 4096  23.189  22.237  14.491
31672W        W 4097  37.063  30.490  10.917
31673W        W 4098   3.423  34.383  12.434
31674W        W 4099  15.104  29.015   2.355
31675W        W 4100  12.789  15.214  10.578
31676W        W 4101  28.136  32.124   4.622
31677W        W 4102  22.024   8.397   1.820
31678W        W 4103  42.810  34.543  12.384
31679W        W 4104  33.953   4.238   4.169
31680W        W 4105  16.215  36.525   0.343
31681W        W 4106  19.680  14.177   0.422
31682W        W 4107  27.953  26.051  10.907
31683W        W 4108  13.694   2.915  14.372
31684W        W 4109  14.755  38.943  12.372
31685W        W 4110  37.076  37.557  11.059
31686W        W 4111  34.408   2.250  13.881
31687W        W 4112  16.185  26.196   3.648
31688W        W 4113   6.304  24.216   0.880
31689W        W 4114  39.396  36.885   3.229
31690W        W 4115  40.055  29.479  14.013
31691W        W 4116  18.271  31.411   3.290
31692W        W 4117  21.066  38.960   3.823
31693W        W 4118  38.924  29.646   2.727
31694W        W 4119  29.542  18.194   4.297
31695W        W 4120  42.017   1.354  14.492
31696W        W 4121  42.018   1.362   3.209
31697W        W 4122   0.960  44.370   1.898
31698W        W 4123  41.496   0.295  12.484
31699W        W 4124   5.362  43.980   0.451
31700W        W 4125   1.310  17.101  14.901
31701W        W 4126  12.804  30.925  10.944
31702W        W 4127   5.248   5.290  13.012
31703W        W 4128  24.089  44.352  11.605
31704W        W 4129  22.643  23.078   0.858
31705W        W 4130  39.060  21.260  10.542
31706W        W 4131  12.803  41.025  13.484
31707W        W 4132  27.161  29.016  14.364
31708W        W 4133  41.379  13.150   1.719
31709W        W 4134  22.042  16.673   1.729
31710W        W 4135  17.192  32.087   3.307
31711W        W 4136  18.678   6.263   5.129
31712W        W 4137  43.492   5.899  13.534
31713W        W 4138  20.165  40.919   3.186
31714W        W 4139  37.004   3.345   1.344
31715W        W 4140  13.134  20.658   3.681
31716W        W 4141  32.635  26.462  14.840
31717W        W 4142   4.374  23.730  13.469
31718W        W 4143   1.439  34.942  12.866
31719W        W 4144  14.327  18.101  10.447
31720W        W 4145  39.460  18.649  11.091
31721W        W 4146  30.986  35.454  11.558
31722W        W 4147  44.935  13.714  11.009
31723W        W 4148  19.634  39.421   4.138
31724W        W 4149  15.779  18.727  13.349
31725W        W 4150  25.589  10.741  13.804
31726W        W 4151  23.155  29.968  11.920
31727W        W 4152  36.505  25.160  13.470
31728W        W 4153  37.918  36.853   4.664
31729W        W 4154  11.703  33.516  10.977
31730W        W 4155  36.001  20.549  13.042
31731W        W 4156  16.163   4.256  10.574
31732W        W 4157  32.612  14.244  11.031
31733W        W 4158  33.122   0.388  10.413
31734W        W 4159  36.467  29.079   1.773
31735W        W 4160  42.004  32.973  13.819
31736W        W 4161  19.699  25.034   1.716
31737W        W 4162  11.162  31.530  10.620
31738W        W 4163  14.214  37.425  11.942
31739W        W 4164  40.867  23.493   2.325
31740W        W 4165  38.943  19.566   1.837
31741W        W 4166  34.081  22.688   2.291
31742W        W 4167  12.252  41.310  14.986
31743W        W 4168   0.792  15.176   2.387
31744W        W 4169  10.148  18.604   3.179
31745W        W 4170  26.634   5.733  12.995
31746W        W 4171  44.808  31.634  11.013
31747W        W 4172   6.415  30.572  11.454
31748W        W 4173  29.956  20.131  11.535
31749W        W 4174  42.441  41.508   1.377
31750W        W 4175   2.950  28.560  11.910
31751W        W 4176  42.928  22.688   0.759
31752W        W 4177  10.206  15.724   0.726
31753W        W 4178   8.672  38.546   3.682
31754W        W 4179  39.961  35.367   3.736
31755W        W 4180   3.233  15.706   3.852
31756W        W 4181  39.993  22.207  10.501
31757W        W 4182   2.456  24.138   2.275
31758W        W 4183  33.469  25.640   0.462
31759W        W 4184  36.520  44.365  11.607
31760W        W 4185  30.111   7.903  14.346
31761W        W 4186  31.918  42.522  12.473
31762W        W 4187   6.741  31.911   1.414
31763W        W 4188   0.281  42.482  10.449
31764W        W 4189  11.639  10.251  12.403
31765W        W 4190   8.900  27.606  11.085
31766W        W 4191  19.598  38.418  14.877
31767W        W 4192  34.114  28.931   0.753
31768W        W 4193  35.056   7.336  13.961
31769W        W 4194  32.496  31.068  12.086
31770W        W 4195  30.590  19.225  13.808
31771W        W 4196  38.044  43.837   0.396
31772W        W 4197  27.129   7.307  13.342
31773W        W 4198  30.529   1.977   4.142
31774W        W 4199  33.623  43.482   2.681
31775W        W 4200  31.520  37.907  10.511
31776W        W 4201   2.400   0.321   4.708
31777W        W 4202  34.080  24.537  14.513
31778W        W 4203   8.377  34.889   5.322
31779W        W 4204  27.488  18.058   4.206
31780W        W 4205   3.895  37.528  14.900
31781W        W 4206  10.338  43.834   1.447
31782W        W 4207  11.729  35.879  12.043
31783W        W 4208  11.307   5.841   1.243
31784W        W 4209  11.764  26.059   1.729
31785W        W 4210  21.557  18.639   2.204
31786W        W 4211  38.879  19.285  14.923
31787W        W 4212  24.182  22.525   0.745
31788W        W 4213  26.045  27.160   1.261
31789W        W 4214  36.375  38.904  13.052
31790W        W 4215   4.309  41.995  13.990
31791W        W 4216  34.495  23.523   5.659
31792W        W 4217  32.446  25.512  12.894
31793W        W 4218  25.160   1.794  14.279
31794W        W 4219   3.924   0.490   2.723
31795W        W 4220  32.015  30.642  13.932
31796W        W 4221  24.229  32.080   4.807
31797W        W 4222  39.054  10.723   2.219
31798W        W 4223  43.514  44.789   3.160
31799W        W 4224  33.560  30.037  13.959
31800W        W 4225  26.151  40.012  14.813
31801W        W 4226  22.618  38.347  11.596
31802W        W 4227  42.866  24.199   3.157
31803W        W 4228   8.716   3.741  12.999
31804W        W 4229  21.647  34.869   2.271
31805W        W 4230  44.305   5.337  12.387
31806W        W 4231  31.554  39.034  12.942
31807W        W 4232  14.124  19.139  11.949
31808W        W 4233   9.810  37.873  13.540
31809W        W 4234   0.412   1.423   4.787
31810W        W 4235  27.062  12.758  13.970
31811W        W 4236  40.401  26.997  12.075
31812W        W 4237   0.827  24.123  14.304
31813W        W 4238   0.961  40.312  14.864
31814W        W 4239   9.765  36.968   4.690
31815W        W 4240   4.332   8.793   0.403
31816W        W 4241  37.431   5.213  13.059
31817W        W 4242  36.088  30.142  12.357
31818W        W 4243  18.737   3.232  14.427
31819W        W 4244  36.996  22.580   3.165
31820W        W 4245  16.631  31.144  13.015
31821W        W 4246  15.088  20.631   3.735
31822W        W 4247  30.541  29.626  14.925
31823W        W 4248  30.997  39.499  10.420
31824W        W 4249  20.629  14.113   2.238
31825W        W 4250  30.925  31.589  12.007
31826W        W 4251  32.940  23.499   0.940
31827W        W 4252   6.737   5.866   0.305
31828W        W 4253  44.402  18.604  10.500
31829W        W 4254  36.365  36.561  14.940
31830W        W 4255   9.785  38.332   0.950
31831W        W 4256  16.702  38.848  11.407
31832W        W 4257   2.913  30.986  14.821
31833W        W 4258  44.781   6.207  13.064
31834W        W 4259  44.293  20.719  11.046
31835W        W 4260  42.889  41.418  13.449
31836W        W 4261  14.298  41.929  12.830
31837W        W 4262   5.872  35.064   2.294
31838W        W 4263  21.065  22.713  12.435
31839W        W 4264  29.583   2.340  11.474
31840W        W 4265  18.266  20.693   4.291
31841W        W 4266  11.208  25.590  10.644
31842W        W 4267  21.707  43.957   0.358
31843W        W 4268  39.019  22.505  14.837
31844W        W 4269  33.568  21.039  12.907
31845W        W 4270  32.433   6.796   4.838
31846W        W 4271  44.499  11.247   4.184
31847W        W 4272  30.559  33.390  10.997
31848W        W 4273  17.618  32.059  11.019
31849W        W 4274  21.168  11.698  10.054
31850W        W 4275  28.946   3.945  12.048
31851W        W 4276   4.849   9.240  12.000
31852W        W 4277  42.431  39.871  13.037
31853W        W 4278  41.867   6.860  14.507
31854W        W 4279   9.333  43.468  14.398
31855W        W 4280   3.743   1.877   4.628
31856W        W 4281  10.274  15.136   1.422
31857W        W 4282  12.142  16.611  11.046
31858W        W 4283  24.655  15.243  12.569
31859W        W 4284  14.214   8.290  11.055
31860W        W 4285  34.954  39.511  13.841
31861W        W 4286   9.720  40.404   0.483
31862W        W 4287  25.141   5.861   3.654
31863W        W 4288  29.061   6.790  14.356
31864W        W 4289  43.961  37.399   0.257
31865W        W 4290  32.103  32.501  11.593
31866W        W 4291   7.864  10.152   4.604
31867W        W 4292   0.270   5.855   3.313
31868W        W 4293   3.769  13.254   0.901
31869W        W 4294  34.983  12.685  14.969
31870W        W 4295  19.664   8.656  11.449
31871W        W 4296  35.969  21.627  13.870
31872W        W 4297   5.803  29.028   4.271
31873W        W 4298  23.510  38.859  11.392
31874W        W 4299  20.233  10.713  11.080
31875W        W 4300   2.771   4.388   3.723
31876W        W 4301  32.936  15.127   4.167
31877W        W 4302  29.168  33.091  13.533
31878W        W 4303   0.325  23.114   2.744
31879W        W 4304  25.575  17.065  12.352
31880W        W 4305  19.738  14.210  13.387
31881W        W 4306   7.765  18.123   3.779
31882W        W 4307  11.284  13.613  11.064
31883W        W 4308  36.009  32.537  11.911
31884W        W 4309  43.391  10.249   4.292
31885W        W 4310  10.294   1.814  13.324
31886W        W 4311  33.020  27.685  12.912
31887W        W 4312  35.964  25.016   2.194
31888W        W 4313  28.518  37.879   3.858
31889W        W 4314  32.489  27.639  12.380
31890W        W 4315  15.652  13.769  11.983
31891W        W 4316  23.568   4.212  10.906
31892W        W 4317  11.781  27.465   3.152
31893W        W 4318   5.217  27.581   3.215
31894W        W 4319  35.505  12.333  14.459
31895W        W 4320   6.716   1.868   3.309
31896W        W 4321  10.839  21.579  12.573
31897W        W 4322  27.067  13.162   1.210
31898W        W 4323  44.870  32.513   3.327
31899W        W 4324   4.931  23.715   1.916
31900W        W 4325  20.198   8.379   4.663
31901W        W 4326  29.968   7.231  13.462
31902W        W 4327   9.835  29.108  12.532
31903W        W 4328  36.449   8.190   4.707
31904W        W 4329  35.470  15.131   3.744
31905W        W 4330  22.087  34.449  14.331
31906W        W 4331  30.122  34.513   0.336
31907W        W 4332  29.956  28.516   0.829
31908W        W 4333  15.193  28.576  11.554
31909W        W 4334   4.215  28.587  10.604
31910W        W 4335  30.605  34.437   0.443
31911W        W 4336   7.666  30.560  13.864
31912W        W 4337  18.175   1.271   3.365
31913W        W 4338   7.803  15.766   1.389
31914W        W 4339  26.528  41.887  13.357
31915W        W 4340  22.115  22.209   2.743
31916W        W 4341  40.514  38.887  12.060
31917W        W 4342  42.827  43.932   1.811
31918W        W 4343  32.908  36.366   2.899
31919W        W 4344  35.010   1.955  11.908
31920W        W 4345  14.235  27.690   0.281
31921W        W 4346  36.346  24.578   2.799
31922W        W 4347  39.860  27.611   3.699
31923W        W 4348   6.819   1.262   0.467
31924W        W 4349  26.006  44.813   0.336
31925W        W 4350   4.756  32.113   1.435
31926W        W 4351   0.802  12.663  11.396
31927W        W 4352  41.955  10.338  12.877
31928W        W 4353  17.246  38.380  12.484
31929W        W 4354   4.342   9.801  14.508
31930W        W 4355  39.036  11.642  14.779
31931W        W 4356  34.400  42.365   0.262
31932W        W 4357  23.084  15.102  11.462
31933W        W 4358   8.726   9.338   9.677
31934W        W 4359  38.058  14.731   1.779
31935W        W 4360  36.073  43.798   3.351
31936W        W 4361  12.362   7.743  14.973
31937W        W 4362  23.029  22.582  14.444
31938W        W 4363  14.141   2.439   0.793
31939W        W 4364  40.389  30.076  14.864
31940W        W 4365  28.985  36.424   0.282
31941W        W 4366  33.120  25.691  10.499
31942W        W 4367  43.959  44.792  10.601
31943W        W 4368  39.845  21.117   0.749
31944W        W 4369  37.850  41.529   3.730
31945W        W 4370  32.108   2.233  11.393
31946W        W 4371  37.844  16.644  14.489
31947W        W 4372  12.198  32.509  11.598
31948W        W 4373  33.108  44.869   3.637
31949W        W 4374  15.325  19.177   4.228
31950W        W 4375  23.138  19.127  14.336
31951W        W 4376  17.226  40.388   1.902
31952W        W 4377  31.546  18.152   0.802
31953W        W 4378  13.334  35.965   0.367
31954W        W 4379   1.761  34.889  10.476
31955W        W 4380  37.863  29.427   4.316
31956W        W 4381  29.007   7.297   2.698
31957W        W 4382   7.698  15.783  11.005
31958W        W 4383  20.589  26.080  10.939
31959W        W 4384  24.196   1.843  11.111
31960W        W 4385  10.850  39.320  11.897
31961W        W 4386  25.144  11.759   3.758
31962W        W 4387  20.687   6.366   1.366
31963W        W 4388  20.165   3.899  12.038
31964W        W 4389  31.448   7.689   2.859
31965W        W 4390  37.432  36.464  12.528
31966W        W 4391  16.124  15.094   1.780
31967W        W 4392  22.589  37.523  13.504
31968W        W 4393  34.604   0.843  11.126
31969W        W 4394  32.082  18.789   0.437
31970W        W 4395  22.008  31.617   4.114
31971W        W 4396  14.152  24.993  11.967
31972W        W 4397  33.929  31.956  14.362
31973W        W 4398  37.956  37.964   0.948
31974W        W 4399  40.437  22.671  11.892
31975W        W 4400   0.839  26.989   0.824
31976W        W 4401  35.890  40.319   3.349
31977W        W 4402  29.945  12.633  10.635
31978W        W 4403  34.493  18.256   3.688
31979W        W 4404  29.630  25.074  14.385
31980W        W 4405  22.150  29.143   2.867
31981W        W 4406  10.651   9.801  14.904
31982W        W 4407  32.126  22.038  12.498
31983W        W 4408   1.867   6.797  13.850
31984W        W 4409  21.251  38.018  10.913
31985W        W 4410   6.321  23.672  12.853
31986W        W 4411  15.246  14.288  11.518
31987W        W 4412  22.049  21.733   2.860
31988W        W 4413   3.354  18.568  14.814
31989W        W 4414  44.502  40.403  13.492
31990W        W 4415  26.546   0.320  10.563
31991W        W 4416  26.655  13.130  10.493
31992W        W 4417  37.376  26.094   3.278
31993W        W 4418   8.679  16.697   1.253
31994W        W 4419  41.329  41.019   3.185
31995W        W 4420  14.812   5.311  13.458
31996W        W 4421  32.439   8.209  11.905
31997W        W 4422  19.653   3.450   9.932
31998W        W 4423  15.325  25.156  13.026
31999W        W 4424   4.756  43.768   3.734
32000W        W 4425  26.149  37.848  12.963
32001W        W 4426  34.866  16.609  14.418
32002W        W 4427  39.958  20.678   0.451
32003W        W 4428  44.909  30.462  11.875
32004W        W 4429  11.863  34.981   4.699
32005W        W 4430   1.755  22.707   4.287
32006W        W 4431   6.263  40.843  14.898
32007W        W 4432  40.353  12.222   3.690
32008W        W 4433  14.188   4.732  12.930
32009W        W 4434   2.755  39.316  13.839
32010W        W 4435  38.045  38.853  10.519
32011W        W 4436  18.189  16.629   0.926
32012W        W 4437   3.946  10.874   2.292
32013W        W 4438  26.181  28.482  13.435
32014W        W 4439  29.154  17.610   1.763
32015W        W 4440  33.626  11.240   4.175
32016W        W 4441  28.184  43.816   4.738
32017W        W 4442  26.125   8.664  11.991
32018W        W 4443   0.257  34.870   2.687
32019W        W 4444  10.830  44.315  11.401
32020W        W 4445  37.356   9.230   2.770
32021W        W 4446  29.005  12.772   2.720
32022W        W 4447   0.986   9.301   3.337
32023W        W 4448  21.131  32.498  10.921
32024W        W 4449  14.224  27.676  11.975
32025W        W 4450  43.322  12.357   4.654
32026W        W 4451  26.972  20.040   1.236
32027W        W 4452  38.376  14.588  14.031
32028W        W 4453  35.104   9.846  11.079
32029W        W 4454  22.743   8.375   1.364
32030W        W 4455  30.060   2.821   3.702
32031W        W 4456  32.598  13.640  10.605
32032W        W 4457  36.909   7.396  10.573
32033W        W 4458  24.596  40.018  13.403
32034W        W 4459  35.575  40.503  12.501
32035W        W 4460   7.785  44.009  11.058
32036W        W 4461  30.923   2.783   2.727
32037W        W 4462  33.486  31.484   0.312
32038W        W 4463  23.608  21.531  12.998
32039W        W 4464  35.871  30.604  14.500
32040W        W 4465  26.540  25.517   1.410
32041W        W 4466  42.475  13.320   1.303
32042W        W 4467   5.863   8.193   2.721
32043W        W 4468  30.626  31.994   1.214
32044W        W 4469  37.980  35.040   2.686
32045W        W 4470  40.825  11.197   0.917
32046W        W 4471  16.699   0.941   3.743
32047W        W 4472  22.719   9.860  11.412
32048W        W 4473  29.017  33.597  12.050
32049W        W 4474  14.249  35.420  14.452
32050W        W 4475  26.623  40.861   3.170
32051W        W 4476  22.239   5.884   0.332
32052W        W 4477  44.274  34.095  14.322
32053W        W 4478  44.883  11.788   2.364
32054W        W 4479  27.649  16.662   1.239
32055W        W 4480  21.757  17.600   2.835
32056W        W 4481  19.071  37.007  11.067
32057W        W 4482  27.622  42.996  14.421
32058W        W 4483   5.341  27.196   2.274
32059W        W 4484  44.480  41.462   4.637
32060W        W 4485  10.180  22.026  12.555
32061W        W 4486  23.012   8.162   5.265
32062W        W 4487  28.651  31.548  10.412
32063W        W 4488   5.917  40.008  12.472
32064W        W 4489  33.561   6.756   3.635
32065W        W 4490   8.180  33.881   1.373
32066W        W 4491  18.173   9.665   0.809
32067W        W 4492  41.995   7.892  10.458
32068W        W 4493   5.827  21.636  12.497
32069W        W 4494   6.788   3.815  10.532
32070W        W 4495  34.540  19.264  12.492
32071W        W 4496  15.692  29.140  13.353
32072W        W 4497   3.382  36.555  14.509
32073W        W 4498  18.164  24.157  10.527
32074W        W 4499  42.830   3.850  14.905
32075W        W 4500  19.678  31.136   0.344
32076W        W 4501  43.796  11.827   3.836
32077W        W 4502  14.112   8.255  10.556
32078W        W 4503  19.695   2.333   0.962
32079W        W 4504  21.165  15.182   2.710
32080W        W 4505  32.066   0.910  13.061
32081W        W 4506  35.920   3.837   4.654
32082W        W 4507  25.061  37.430  13.466
32083W        W 4508  30.461   6.286   4.132
32084W        W 4509  12.138  30.925  12.456
32085W        W 4510  16.121  23.736  14.362
32086W        W 4511  39.944  28.078   4.226
32087W        W 4512   0.445  40.838   2.275
32088W        W 4513   3.321   1.350  12.348
32089W        W 4514  40.344  19.117   4.158
32090W        W 4515  27.137  41.921   3.150
32091W        W 4516  43.380  36.017  14.802
32092W        W 4517  37.027  34.999  14.944
32093W        W 4518  24.977  43.504   1.721
32094W        W 4519  15.646  39.059  14.350
32095W        W 4520  34.576  17.689   3.809
32096W        W 4521  40.019   5.696  11.895
32097W        W 4522  35.014   7.231   0.284
32098W        W 4523   8.672  34.878   3.671
32099W        W 4524  10.671  33.045   4.332
32100W        W 4525  14.207   8.684  14.848
32101W        W 4526   7.407  37.903   0.860
32102W        W 4527  44.356  39.524  13.429
32103W        W 4528  19.092   5.857  11.378
32104W        W 4529  33.916  20.077  12.986
32105W        W 4530   7.760  40.334   3.821
32106W        W 4531  13.188   5.739   3.843
32107W        W 4532  16.082  38.552   1.436
32108W        W 4533  33.466  29.544   0.306
32109W        W 4534   2.736  23.718  10.887
32110W        W 4535  24.594  10.236   0.909
32111W        W 4536  15.665   7.849  11.431
32112W        W 4537  35.063  12.245   1.422
32113W        W 4538   8.186  12.118   0.300
32114W        W 4539  19.177  39.514   2.347
32115W        W 4540  23.528  16.267   4.830
32116W        W 4541  39.462   0.367  12.841
32117W        W 4542   6.824  31.144   3.174
32118W        W 4543   8.319  40.801   0.932
32119W        W 4544  15.107  24.032   2.701
32120W        W 4545  26.591  31.075   5.714
32121W        W 4546   7.859  42.943   0.471
32122W        W 4547  41.520  37.346   2.884
32123W        W 4548  18.157  38.926   1.383
32124W        W 4549  17.160  30.065   0.803
32125W        W 4550  39.966  39.977   4.666
32126W        W 4551  41.354  43.972   4.721
32127W        W 4552   7.706  33.915  14.835
32128W        W 4553  33.412  37.506   0.828
32129W        W 4554   9.245  41.956  14.376
32130W        W 4555  10.687  22.115   3.837
32131W        W 4556  23.708   6.354  10.585
32132W        W 4557  38.914  32.097  10.603
32133W        W 4558  28.610  10.753   0.266
32134W        W 4559  31.024  39.380   1.245
32135W        W 4560   5.391  38.347  12.846
32136W        W 4561  36.863   6.782   4.239
32137W        W 4562  33.907  15.749   4.132
32138W        W 4563  38.862  15.677   2.802
32139W        W 4564  13.334   7.868   0.339
32140W        W 4565  12.649  31.967   2.735
32141W        W 4566  32.073  18.608   1.773
32142W        W 4567  43.349   3.768   2.794
32143W        W 4568  20.123  36.374  13.388
32144W        W 4569  43.813   7.250  14.438
32145W        W 4570  32.907  36.511  11.456
32146W        W 4571  30.081  32.391  14.420
32147W        W 4572  20.028  41.807   3.183
32148W        W 4573  42.366   0.945  12.988
32149W        W 4574  26.200  13.276  13.868
32150W        W 4575   6.844  21.569  13.810
32151W        W 4576   9.222  36.048  12.970
32152W        W 4577  20.210  34.006  12.005
32153W        W 4578  26.989  14.723  12.486
32154W        W 4579  43.986  18.150   1.386
32155W        W 4580  29.059   9.302  13.496
32156W        W 4581   0.289  44.945   2.315
32157W        W 4582  21.534  32.524   3.797
32158W        W 4583  39.931  11.684   2.278
32159W        W 4584   5.688  18.094  12.482
32160W        W 4585  25.220  34.510   4.775
32161W        W 4586  23.986  30.020   4.181
32162W        W 4587  20.129  39.938  13.004
32163W        W 4588  25.712   3.329   5.137
32164W        W 4589  36.409   9.754  14.988
32165W        W 4590   6.828  37.860  14.354
32166W        W 4591   4.707  44.897  13.327
32167W        W 4592  24.100  33.038  11.455
32168W        W 4593   4.355  16.651  14.885
32169W        W 4594   5.431  35.876   0.433
32170W        W 4595  29.549  21.247  11.453
32171W        W 4596  23.703   1.850  10.524
32172W        W 4597  34.427  22.501  11.006
32173W        W 4598  41.535  32.397   0.287
32174W        W 4599  19.061   0.321   2.831
32175W        W 4600   7.287  24.502   1.384
32176W        W 4601  26.532  28.519  11.867
32177W        W 4602   8.731   6.278   1.858
32178W        W 4603  37.046  33.126   0.260
32179W        W 4604  28.943  40.487   4.837
32180W        W 4605  11.143  29.969  12.904
32181W        W 4606  32.452  35.405   2.757
32182W        W 4607  14.229  44.281  11.865
32183W        W 4608  25.161  10.795  13.915
32184W        W 4609  31.486  11.173   0.848
32185W        W 4610  25.586  19.127   0.922
32186W        W 4611  13.767  15.117  14.939
32187W        W 4612  11.218  38.897  14.944
32188W        W 4613  42.356  19.653  12.086
32189W        W 4614  18.136  31.965   9.928
32190W        W 4615  15.662  28.563  12.077
32191W        W 4616  39.352  42.011  12.523
32192W        W 4617  40.840  27.066   2.261
32193W        W 4618  15.577  28.467   4.825
32194W        W 4619   3.223  39.863   1.327
32195W        W 4620  44.973  37.861   0.391
32196W        W 4621  36.500  20.206   3.218
32197W        W 4622  27.082  40.453  13.948
32198W        W 4623  43.377  28.151  12.033
32199W        W 4624  42.992  12.749  14.338
32200W        W 4625  30.582  12.356  14.006
32201W        W 4626  19.761  43.872   0.862
32202W        W 4627  23.542  30.123   2.296
32203W        W 4628  38.482  27.626  13.872
32204W        W 4629   5.860  25.201   0.832
32205W        W 4630  29.953  36.588   4.315
32206W        W 4631  15.799   9.162  11.520
32207W        W 4632  12.327   7.697  14.419
32208W        W 4633   0.461  19.272   1.308
32209W        W 4634  20.553  26.479   5.185
32210W        W 4635  36.002  29.005   0.809
32211W        W 4636  13.219  30.545  14.808
32212W        W 4637  44.370  26.655   4.322
32213W        W 4638  29.994  29.085  14.861
32214W        W 4639  30.945  36.898   3.718
32215W        W 4640  17.556  38.929  13.363
32216W        W 4641  40.036   6.207  14.918
32217W        W 4642  20.212  41.881   0.945
32218W        W 4643  42.515  27.496   3.690
32219W        W 4644  26.613   6.711  11.505
32220W        W 4645  11.837  13.158  12.427
32221W        W 4646  24.719  11.248   5.664
32222W        W 4647  29.435  28.497   1.812
32223W        W 4648  12.788  25.637   4.709
32224W        W 4649  11.239   1.942   1.934
32225W        W 4650  22.687   9.211   0.292
32226W        W 4651  26.564   4.404  12.575
32227W        W 4652  24.988  16.232  11.506
32228W        W 4653   7.334  24.703  12.933
32229W        W 4654  24.645  40.347   2.225
32230W        W 4655  36.882   3.419   3.709
32231W        W 4656  15.654  12.775  10.953
32232W        W 4657  24.538  25.084   3.801
32233W        W 4658  15.605  12.757   2.798
32234W        W 4659  24.479  22.160   2.213
32235W        W 4660   1.242  15.129   1.354
32236W        W 4661  10.370  42.481   3.697
32237W        W 4662  27.992   6.248  12.928
32238W        W 4663  22.530  14.330  12.047
32239W        W 4664  43.328  41.953   2.262
32240W        W 4665  12.254  24.505   2.739
32241W        W 4666   0.850   1.362   3.661
32242W        W 4667  34.120   5.913   4.279
32243W        W 4668   3.724  20.532   0.794
32244W        W 4669  20.066  27.006   1.375
32245W        W 4670  14.243  11.784   2.892
32246W        W 4671  19.152   0.868   5.600
32247W        W 4672  42.375  34.611  13.979
32248W        W 4673   1.327  30.052   2.304
32249W        W 4674  19.712  43.852  12.010
32250W        W 4675  44.775  19.603  14.925
32251W        W 4676  12.739   6.336   1.323
32252W        W 4677   2.949  30.550  14.495
32253W        W 4678  27.011  40.905   0.445
32254W        W 4679  35.408  23.072   5.642
32255W        W 4680  26.581  39.052   2.792
32256W        W 4681   4.347  25.530  11.052
32257W        W 4682  21.706  34.503   4.766
32258W        W 4683  34.931  29.615  12.522
32259W        W 4684   9.230  13.234   0.433
32260W        W 4685  42.377  38.974   4.260
32261W        W 4686  21.517  41.475   0.754
32262W        W 4687  27.474  26.205  11.962
32263W        W 4688  36.385  41.439   3.374
32264W        W 4689  11.760  35.074   1.415
32265W        W 4690   2.945  24.038   0.246
32266W        W 4691  43.467  19.709   5.145
32267W        W 4692   6.709  29.448  14.358
32268W        W 4693  19.273  29.983   1.795
32269W        W 4694  14.269  35.545   4.672
32270W        W 4695  31.092  20.555  12.350
32271W        W 4696  14.788   3.285  14.901
32272W        W 4697  27.075  17.189   3.301
32273W        W 4698   9.265  19.601  12.379
32274W        W 4699  23.234  30.031  11.042
32275W        W 4700  38.859  42.487  11.483
32276W        W 4701   4.358   2.323  11.126
32277W        W 4702  26.514  18.668   2.849
32278W        W 4703  19.637  19.538   4.712
32279W        W 4704  31.085  27.048   4.298
32280W        W 4705  38.935   4.874   4.738
32281W        W 4706  44.474  33.427  11.048
32282W        W 4707  16.229   8.232  10.534
32283W        W 4708  28.614  31.020   1.861
32284W        W 4709  30.129  30.590  14.932
32285W        W 4710  26.174  20.722   2.838
32286W        W 4711   5.367  17.136  12.480
32287W        W 4712   3.349  35.461  13.027
32288W        W 4713  35.012  36.077   3.651
32289W        W 4714  18.233  11.188   3.638
32290W        W 4715  38.374  23.671  14.408
32291W        W 4716  25.159  29.156  11.468
32292W        W 4717  13.768  21.217   0.408
32293W        W 4718  25.535  38.373  13.311
32294W        W 4719   3.786  37.946  12.358
32295W        W 4720  22.631   0.831  13.993
32296W        W 4721  29.615  23.140   1.844
32297W        W 4722  10.683   2.343  11.493
32298W        W 4723   3.374   6.811   2.295
32299W        W 4724  39.919  42.958   1.282
32300W        W 4725   6.351   5.244   0.959
32301W        W 4726   0.360  30.649   4.725
32302W        W 4727   3.936  27.941   4.600
32303W        W 4728  33.076  15.288  11.482
32304W        W 4729   3.741  15.766  14.514
32305W        W 4730  39.005   8.774   1.851
32306W        W 4731   9.740   8.200  11.529
32307W        W 4732  37.484  14.790  10.957
32308W        W 4733   4.789  19.672  13.833
32309W        W 4734  26.062  12.855  11.390
32310W        W 4735  25.978  29.640  14.797
32311W        W 4736  36.930  31.078  14.795
32312W        W 4737  40.976  44.885  11.458
32313W        W 4738  29.137  34.381  12.881
32314W        W 4739  33.074  43.287  14.304
32315W        W 4740  40.943  23.524   3.862
32316W        W 4741  44.908  15.304  10.511
32317W        W 4742  30.608  19.119  13.013
32318W        W 4743   4.281  20.203  12.863
32319W        W 4744  22.111   8.863  13.038
32320W        W 4745  33.955  24.580   0.896
32321W        W 4746  26.600  29.104  13.897
32322W        W 4747  23.239  12.177   2.298
32323W        W 4748   7.397   8.887  14.840
32324W        W 4749   5.393   1.346   2.762
32325W        W 4750  33.566  24.105   4.115
32326W        W 4751  24.190   5.745   4.262
32327W        W 4752  32.893  24.633   1.749
32328W        W 4753  39.490  32.100   2.824
32329W        W 4754   8.246  13.167   4.809
32330W        W 4755   4.746  32.943  13.816
32331W        W 4756  33.934  42.302  12.474
32332W        W 4757  20.598  44.367   1.428
32333W        W 4758  32.094   4.363   0.279
32334W        W 4759  28.977   0.402   0.819
32335W        W 4760   9.703  30.522  12.962
32336W        W 4761  36.360  33.017   4.684
32337W        W 4762  34.405  32.557  10.441
32338W        W 4763  16.770  28.004  10.506
32339W        W 4764  34.498   6.273   0.294
32340W        W 4765  25.178  14.229  12.340
32341W        W 4766   7.854  38.966  14.404
32342W        W 4767   0.438  18.715  12.093
32343W        W 4768  41.297  21.622   1.818
32344W        W 4769   2.955  31.452  14.952
32345W        W 4770  29.535  37.872   2.415
32346W        W 4771  11.250  24.576   2.307
32347W        W 4772  15.174  42.985   4.809
32348W        W 4773  38.991  14.318   0.880
32349W        W 4774  21.671  26.679  13.471
32350W        W 4775  20.606  37.557   9.937
32351W        W 4776  30.923  18.558   3.787
32352W        W 4777  33.934  29.079  12.955
32353W        W 4778  31.610  20.627   1.296
32354W        W 4779  10.750  24.137  13.794
32355W        W 4780   1.389  28.075  14.881
32356W        W 4781  43.483  26.954   2.835
32357W        W 4782  42.884   9.352   1.784
32358W        W 4783   0.877  32.398  13.840
32359W        W 4784  20.151   3.752  13.453
32360W        W 4785  27.059  34.442   0.448
32361W        W 4786  27.608  40.847   1.369
32362W        W 4787   0.403   2.321   2.358
32363W        W 4788   2.303  14.757   3.766
32364W        W 4789   7.706  13.647  11.077
32365W        W 4790  21.601   7.701  11.891
32366W        W 4791  34.444  30.142   1.294
32367W        W 4792  43.860  30.433  10.626
32368W        W 4793  39.542  28.498   0.746
32369W        W 4794  17.283  32.562   9.528
32370W        W 4795   7.721   9.359   2.282
32371W        W 4796  13.754  40.860   3.243
32372W        W 4797  31.044  42.348  11.103
32373W        W 4798  13.304  20.269  11.466
32374W        W 4799   2.754  32.990   1.438
32375W        W 4800  24.189  29.149   3.696
32376W        W 4801  42.284  13.321   4.653
32377W        W 4802  32.070  43.428  10.561
32378W        W 4803  19.098  16.216  10.455
32379W        W 4804  15.233  15.213  13.795
32380W        W 4805  44.754  12.350  13.808
32381W        W 4806   2.468  32.897  10.622
32382W        W 4807  25.983  22.092  14.403
32383W        W 4808  15.177  17.159  12.914
32384W        W 4809  20.762  44.799  13.319
32385W        W 4810  13.796  41.972   4.263
32386W        W 4811  37.476  37.915   0.330
32387W        W 4812  19.078  11.171  14.344
32388W        W 4813  14.731  26.586   0.318
32389W        W 4814  32.997   6.793   3.707
32390W        W 4815  40.330  18.585   3.383
32391W        W 4816  17.710   0.988   3.712
32392W        W 4817  25.003  19.195  13.899
32393W        W 4818  17.737  23.512  13.800
32394W        W 4819  28.593  32.922   2.244
32395W        W 4820  19.221  23.036   1.910
32396W        W 4821  40.937  32.031  11.936
32397W        W 4822  22.161  23.661   1.853
32398W        W 4823  10.178  32.595  14.829
32399W        W 4824  37.503  39.822   4.353
32400W        W 4825  44.471  13.814   2.186
32401W        W 4826  34.409   4.726  12.465
32402W        W 4827   3.393  43.847   2.827
32403W        W 4828  39.941  34.888  13.317
32404W        W 4829  44.442  14.733  10.501
32405W        W 4830   1.383  16.703  11.517
32406W        W 4831  38.041  18.788  11.608
32407W        W 4832  30.613  28.588   2.181
32408W        W 4833  37.341  27.001   3.155
32409W        W 4834   5.779   2.750   3.771
32410W        W 4835  13.133  40.035  10.954
32411W        W 4836   2.909   1.252   2.355
32412W        W 4837  31.027  40.953  13.057
32413W        W 4838   0.486  30.975  13.802
32414W        W 4839   1.263  13.340   3.777
32415W        W 4840  24.620  39.055  14.328
32416W        W 4841  17.666   8.166   4.733
32417W        W 4842  35.910  26.457  14.321
32418W        W 4843  34.040  38.916  12.449
32419W        W 4844  41.961  21.237  12.445
32420W        W 4845  34.442  23.993   0.442
32421W        W 4846  28.606  24.166  13.029
32422W        W 4847   5.338  15.267  11.533
32423W        W 4848  41.316  12.657  10.961
32424W        W 4849  37.012  20.564   4.707
32425W        W 4850  35.954  25.147   9.564
32426W        W 4851   5.386   9.323   2.871
32427W        W 4852  28.933  27.191  11.077
32428W        W 4853   5.781   4.770   3.176
32429W        W 4854  43.821   5.245   4.182
32430W        W 4855  38.970  38.925  11.062
32431W        W 4856   3.288  21.579  12.049
32432W        W 4857  24.186  12.185   3.804
32433W        W 4858  36.010  16.752  14.386
32434W        W 4859  20.055   2.391   3.671
32435W        W 4860  30.421  27.196  13.951
32436W        W 4861  15.133  37.011  10.969
32437W        W 4862  23.169   1.827  14.990
32438W        W 4863  17.192  38.476  11.926
32439W        W 4864  11.826  43.449  12.835
32440W        W 4865  17.737   7.416   0.782
32441W        W 4866  32.578  17.725   1.763
32442W        W 4867  19.559  18.094  11.585
32443W        W 4868  13.602   0.894   0.459
32444W        W 4869  23.617  29.061  11.935
32445W        W 4870  30.924  33.418  14.761
32446W        W 4871  28.671  11.149  12.567
32447W        W 4872  27.546  34.089  10.450
32448W        W 4873  18.787   6.726   0.424
32449W        W 4874  35.395   3.795   3.823
32450W        W 4875  42.361   0.343  11.095
32451W        W 4876  27.082   8.386  12.578
32452W        W 4877   2.463   2.754   3.174
32453W        W 4878   2.747  44.995   3.150
32454W        W 4879  30.048  17.727  14.961
32455W        W 4880  37.438  16.191   1.442
32456W        W 4881  40.380  18.675   4.346
32457W        W 4882  40.421  17.607   0.248
32458W        W 4883   7.189   5.384  12.577
32459W        W 4884   0.979  14.827   4.294
32460W        W 4885  25.146  39.472   2.419
32461W        W 4886  24.036  12.694  14.372
32462W        W 4887  13.197  40.312  14.487
32463W        W 4888  37.014  25.705   3.214
32464W        W 4889   7.727   0.842  14.962
32465W        W 4890  23.997  43.458   1.716
32466W        W 4891  19.644   9.709  11.415
32467W        W 4892  19.543  10.228   4.657
32468W        W 4893   6.256  30.033  14.433
32469W        W 4894  38.025  39.426   2.762
32470W        W 4895  37.493  41.805   0.347
32471W        W 4896  37.397  26.178  13.997
32472W        W 4897  32.444  14.599  13.417
32473W        W 4898   4.782  14.125  12.054
32474W        W 4899  32.975  35.450  10.493
32475W        W 4900  32.140   2.274  11.944
32476W        W 4901  39.047   1.925  12.843
32477W        W 4902  31.017  17.254   0.276
32478W        W 4903  28.657  34.037  13.963
32479W        W 4904  38.434  35.538   2.380
32480W        W 4905  22.234  17.159   1.790
32481W        W 4906  44.775  34.887  10.574
32482W        W 4907  43.322  17.081  14.448
32483W        W 4908  23.112  29.668   3.866
32484W        W 4909  36.023  15.750   0.874
32485W        W 4910  17.132  19.164  10.604
32486W        W 4911  41.463  22.055  11.039
32487W        W 4912  20.672  16.180  13.451
32488W        W 4913  29.008  33.913  14.912
32489W        W 4914  26.684   3.776   3.649
32490W        W 4915   2.891  42.910  12.062
32491W        W 4916  41.890  25.496   2.819
32492W        W 4917  15.227   7.775   3.303
32493W        W 4918   0.288   6.918   1.420
32494W        W 4919   0.786  37.432  11.516
32495W        W 4920   9.666  15.722  12.844
32496W        W 4921   6.257  27.121  13.964
32497W        W 4922  13.181  18.691  11.001
32498W        W 4923  30.655   0.466   2.857
32499W        W 4924  29.632  36.422   3.828
32500W        W 4925  18.237  25.542   3.654
32501W        W 4926   9.320  35.106  13.343
32502W        W 4927  33.079   6.363   1.425
32503W        W 4928   3.726  35.557  11.964
32504W        W 4929  19.706  18.122   1.854
32505W        W 4930  37.912  10.705   3.720
32506W        W 4931  40.307  32.598   1.379
32507W        W 4932  25.576  35.072   1.220
32508W        W 4933   8.282  42.371   0.782
32509W        W 4934  25.006  10.670   0.253
32510W        W 4935  15.124  27.630   4.310
32511W        W 4936  33.090  28.676  10.988
32512W        W 4937  22.201  39.399  13.450
32513W        W 4938  10.736  11.788   2.846
32514W        W 4939  18.774   2.839   2.180
32515W        W 4940  18.741  16.597  13.500
32516W        W 4941  18.071  38.416  11.933
32517W        W 4942   3.424  31.147  12.076
32518W        W 4943   1.932  18.612  13.406
32519W        W 4944  23.013   7.744  14.482
32520W        W 4945  21.644  22.215   3.247
32521W        W 4946   5.393  26.513   2.706
32522W        W 4947  14.835  16.139   2.867
32523W        W 4948  32.553  10.370   0.885
32524W        W 4949   1.309  30.584   4.744
32525W        W 4950  12.243  18.108  14.392
32526W        W 4951  28.678  17.625  10.518
32527W        W 4952  28.546  11.338  11.000
32528W        W 4953  11.228  17.277  13.843
32529W        W 4954  27.105  18.596   3.798
32530W        W 4955   3.398  44.006  12.487
32531W        W 4956  42.952  26.075  13.870
32532W        W 4957  32.135  35.921  14.805
32533W        W 4958  28.023  33.404  11.597
32534W        W 4959  32.970  43.949  13.008
32535W        W 4960   8.352   4.321  13.047
32536W        W 4961  15.138  24.529  13.990
32537W        W 4962   1.336  21.092  11.568
32538W        W 4963  13.720  35.062   3.722
32539W        W 4964  23.220  39.542  12.978
32540W        W 4965  13.138   2.308  11.931
32541W        W 4966  24.662  34.101   4.753
32542W        W 4967  22.156  41.324  12.568
32543W        W 4968  31.585   0.787   1.376
32544W        W 4969  43.885  18.743   4.613
32545W        W 4970  39.361  20.151   3.799
32546W        W 4971   7.381  26.001   4.639
32547W        W 4972   1.960  44.873   1.319
32548W        W 4973   9.372  25.692  14.402
32549W        W 4974  37.840   1.394  13.792
32550W        W 4975   3.854  20.530   4.674
32551W        W 4976  14.246  41.341  11.408
32552W        W 4977   4.229   7.755   0.770
32553W        W 4978  15.121  39.025   0.250
32554W        W 4979  41.903  27.478  13.341
32555W        W 4980  23.525  15.260   0.835
32556W        W 4981  19.167  43.959   3.276
32557W        W 4982  33.028  14.331   3.799
32558W        W 4983  35.555  34.394  14.818
32559W        W 4984  33.912  17.206  14.461
32560W        W 4985  19.674  30.065   9.936
32561W        W 4986  34.466   5.198  13.481
32562W        W 4987   2.798   5.728  13.795
32563W        W 4988  27.474   4.348   3.316
32564W        W 4989  33.884  17.185  11.950
32565W        W 4990   5.820  34.491   4.317
32566W        W 4991   7.716  34.464   2.719
32567W        W 4992  21.673  38.326   0.411
32568W        W 4993  14.310   6.705   0.748
32569W        W 4994  40.054  27.544   4.610
32570W        W 4995  31.051   5.386   2.362
32571W        W 4996   7.880  25.625   1.924
32572W        W 4997  26.634  15.230  14.759
32573W        W 4998   1.795  23.080  14.980
32574W        W 4999  40.959  38.341  14.866
32575W        W 5000  22.125  41.973   4.600
32576W        W 5001   2.778  17.565   1.874
32577W        W 5002   6.901  20.170  14.914
32578W        W 5003  15.120  22.067  13.020
32579W        W 5004   2.830  14.599  12.893
32580W        W 5005  31.016   6.292   3.823
32581W        W 5006  38.015  16.614   3.734
32582W        W 5007  39.334  12.173   4.280
32583W        W 5008  26.692  29.000   3.857
32584W        W 5009  14.247  28.959  12.983
32585W        W 5010  31.574  36.884  12.377
32586W        W 5011  21.679  12.342   1.253
32587W        W 5012  31.608  44.376   1.802
32588W        W 5013  11.815  25.705   3.299
32589W        W 5014  29.131  41.844  14.337
32590W        W 5015   2.852  32.452   2.826
32591W        W 5016  39.520  29.958  11.114
32592W        W 5017  37.959   4.411   4.125
32593W        W 5018  13.781  29.568   4.336
32594W        W 5019  39.485   7.844   1.382
32595W        W 5020  23.104   4.249   2.328
32596W        W 5021  14.630  37.082  13.449
32597W        W 5022   1.806  13.763  10.448
32598W        W 5023  34.492  28.495  13.032
32599W        W 5024  44.807   8.870   3.631
32600W        W 5025  34.512  36.532   0.394
32601W        W 5026  25.126  27.683   4.274
32602W        W 5027  16.078  29.998  11.004
32603W        W 5028   5.351  16.810   2.683
32604W        W 5029  27.047   9.844   0.748
32605W        W 5030   1.871   0.289  10.898
32606W        W 5031  22.633  11.656  13.415
32607W        W 5032  21.599  37.068  12.458
32608W        W 5033  33.530  37.573   0.378
32609W        W 5034  31.121  44.854   3.317
32610W        W 5035  40.889   7.232   4.336
32611W        W 5036   6.886  20.768   1.703
32612W        W 5037  44.438  21.174   2.824
32613W        W 5038  20.714   0.334  11.889
32614W        W 5039  43.440  31.424  12.022
32615W        W 5040  18.202  29.523   1.881
32616W        W 5041  32.442  18.149   5.711
32617W        W 5042  44.944  37.519  11.061
32618W        W 5043  17.244  22.062   2.328
32619W        W 5044   5.741  22.610  13.418
32620W        W 5045  10.138  19.248  14.948
32621W        W 5046  31.064  20.090  12.481
32622W        W 5047  32.098   5.795  12.436
32623W        W 5048  35.586  44.836   0.346
32624W        W 5049  27.618  19.779  12.351
32625W        W 5050  25.662   8.830   4.694
32626W        W 5051  12.189  36.882   3.272
32627W        W 5052  19.644  13.268   1.913
32628W        W 5053  24.496  33.960   2.746
32629W        W 5054  16.631  30.034  10.925
32630W        W 5055  20.597  29.060  13.867
32631W        W 5056   5.265  37.854  13.055
32632W        W 5057   4.369  23.164   2.684
32633W        W 5058  39.484   9.667  14.807
32634W        W 5059   8.304  36.913   4.721
32635W        W 5060  31.979   6.387   2.867
32636W        W 5061   1.958  16.638   3.209
32637W        W 5062  18.138  30.638   1.804
32638W        W 5063   3.284   8.168   0.916
32639W        W 5064  41.359   9.649   4.158
32640W        W 5065  15.167   6.817   2.887
32641W        W 5066   4.387  22.041   1.349
32642W        W 5067  40.458  26.109  10.610
32643W        W 5068  16.771  43.997   4.159
32644W        W 5069  39.918  31.485   1.301
32645W        W 5070  25.981  22.616  12.841
32646W        W 5071  23.594  36.930   3.769
32647W        W 5072  35.559   4.389   3.275
32648W        W 5073  29.043  14.285  14.419
32649W        W 5074  34.932  20.117   0.396
32650W        W 5075   7.229  13.766  13.508
32651W        W 5076   9.665  12.824   4.650
32652W        W 5077  43.363  39.045   3.210
32653W        W 5078  40.051   7.741  13.347
32654W        W 5079   7.191  17.607  13.328
32655W        W 5080  30.162  29.935   3.804
32656W        W 5081  35.525  26.545   3.227
32657W        W 5082  33.000  25.522   4.772
32658W        W 5083   0.309  21.518  13.424
32659W        W 5084  42.351  38.491   2.898
32660W        W 5085  22.525  13.771  14.441
32661W        W 5086  31.010  32.395  11.608
32662W        W 5087  31.072  25.690  14.495
32663W        W 5088  29.993   0.952   4.186
32664W        W 5089  23.179  24.713  11.380
32665W        W 5090   9.212  20.547   4.171
32666W        W 5091  36.899  33.456   1.874
32667W        W 5092  42.937  13.738   4.148
32668W        W 5093   5.220  31.969   3.763
32669W        W 5094  41.032  35.529   2.314
32670W        W 5095  15.266   2.816   1.342
32671W        W 5096  32.588  42.482  14.405
32672W        W 5097  15.085  13.798  11.998
32673W        W 5098  36.081   8.234  14.450
32674W        W 5099  10.849   7.765   4.288
32675W        W 5100  19.229  23.498   4.182
32676W        W 5101   8.680   0.924  13.522
32677W        W 5102   6.676  29.084   4.209
32678W        W 5103   1.291  17.563   2.685
32679W        W 5104   8.789  16.759  13.015
32680W        W 5105  11.736   0.828   1.254
32681W        W 5106  17.114   7.848  10.936
32682W        W 5107  33.055   8.880   0.834
32683W        W 5108  32.492   2.384   3.777
32684W        W 5109  41.321  42.344  11.011
32685W        W 5110   9.300  31.547  10.581
32686W        W 5111  20.723  27.941   2.899
32687W        W 5112  43.886   8.403  13.061
32688W        W 5113  38.836  25.219  13.449
32689W        W 5114  31.485   9.202  12.544
32690W        W 5115  15.649   2.309  13.843
32691W        W 5116  26.107  31.622   4.759
32692W        W 5117  41.029  41.918  13.029
32693W        W 5118  10.868  22.628  13.326
32694W        W 5119  21.643   8.691   1.294
32695W        W 5120  32.077  41.802   0.849
32696W        W 5121   4.269   3.427  13.027
32697W        W 5122  18.781  31.008  11.575
32698W        W 5123   9.363   3.783   3.360
32699W        W 5124  30.658  35.053   5.216
32700W        W 5125   7.868  12.810   0.254
32701W        W 5126  23.495   0.802  12.954
32702W        W 5127  41.787   6.324   3.327
32703W        W 5128  34.385   1.842   2.222
32704W        W 5129   0.486  23.551  13.947
32705W        W 5130   5.712  12.773  14.936
32706W        W 5131  25.216  23.135   3.647
32707W        W 5132  12.306  34.086   4.127
32708W        W 5133  34.964  35.935   0.903
32709W        W 5134  12.734  27.642   4.809
32710W        W 5135  18.261  30.501   2.840
32711W        W 5136  40.325  26.956  14.967
32712W        W 5137   4.749  32.467   4.774
32713W        W 5138  31.112   8.862  14.910
32714W        W 5139  18.104  39.407  14.340
32715W        W 5140  33.533   5.251   3.355
32716W        W 5141  18.281  33.086  12.540
32717W        W 5142  28.535  44.495   2.205
32718W        W 5143  44.902  36.900  13.890
32719W        W 5144  16.076  11.657   3.172
32720W        W 5145  22.148  41.342   3.795
32721W        W 5146  16.167   2.309   4.281
32722W        W 5147  29.087  43.421   0.739
32723W        W 5148   5.342  12.747   1.926
32724W        W 5149  41.387  19.651   0.729
32725W        W 5150  29.085  36.582   1.296
32726W        W 5151   3.809   1.849  12.913
32727W        W 5152  18.080  16.780  12.858
32728W        W 5153  20.575  25.678   4.352
32729W        W 5154  39.422  33.620   1.379
32730W        W 5155  29.560  28.110  13.793
32731W        W 5156  41.935  14.662  10.551
32732W        W 5157   3.914   6.849   4.714
32733W        W 5158   7.807  36.941   4.818
32734W        W 5159  35.452  19.124  12.890
32735W        W 5160  21.114  29.600  12.960
32736W        W 5161   8.900   6.764  11.501
32737W        W 5162  19.087  14.640  14.497
32738W        W 5163  27.539  17.120  13.936
32739W        W 5164   3.371  11.806   4.224
32740W        W 5165  12.673  27.497   2.829
32741W        W 5166   2.806   8.307  12.450
32742W        W 5167  11.693  43.896  10.101
32743W        W 5168  21.026  17.232  10.533
32744W        W 5169   1.820   7.717  12.346
32745W        W 5170  38.521  28.498  11.090
32746W        W 5171  33.058  30.426   3.370
32747W        W 5172   4.741  18.214  12.397
32748W        W 5173  20.558   2.411   0.964
32749W        W 5174  19.253  42.973  12.534
32750W        W 5175   4.266  14.118   3.375
32751W        W 5176  10.143  28.647   4.336
32752W        W 5177  28.051  42.413   0.364
32753W        W 5178  23.579  29.988   1.407
32754W        W 5179  14.235  42.334   4.275
32755W        W 5180  35.035  14.722  10.631
32756W        W 5181  15.252  42.285   2.757
32757W        W 5182  41.528  41.987   3.185
32758W        W 5183  42.467  44.467  13.317
32759W        W 5184  17.784  37.562   2.294
32760W        W 5185  24.133  12.134  13.392
32761W        W 5186  16.185  24.101  13.381
32762W        W 5187  39.387   5.320   0.259
32763W        W 5188  30.049  18.151   5.278
32764W        W 5189  29.175  25.518   3.226
32765W        W 5190   4.434  16.748  11.467
32766W        W 5191  26.190  27.454   3.300
32767W        W 5192  35.602  13.748   2.770
32768W        W 5193   9.383   3.295   0.459
32769W        W 5194  29.434  29.972   5.163
32770W        W 5195   2.437  19.258   3.335
32771W        W 5196  42.900  10.769  14.886
32772W        W 5197  20.723  11.309  12.053
32773W        W 5198  17.614  30.060  10.971
32774W        W 5199  40.883  21.186   0.330
32775W        W 5200  42.388   4.396  12.936
32776W        W 5201  20.573  29.967   2.855
32777W        W 5202  41.792  22.619   1.291
32778W        W 5203  25.556  22.082   1.773
32779W        W 5204  41.876  37.414  11.554
32780W        W 5205  10.236  44.977  14.284
32781W        W 5206  23.610  36.573  13.972
32782W        W 5207  42.870  25.674  14.510
32783W        W 5208  32.586  15.747   2.199
32784W        W 5209  43.284  26.478   1.369
32785W        W 5210  44.920  10.753  14.000
32786W        W 5211  26.563  30.918   1.349
32787W        W 5212  37.534  40.413  12.051
32788W        W 5213  29.670  40.547   0.341
32789W        W 5214  37.910  15.251  13.542
32790W        W 5215  23.521  20.606  11.959
32791W        W 5216  37.997  36.846   2.370
32792W        W 5217  41.402  13.763   4.814
32793W        W 5218  33.443   5.241  12.501
32794W        W 5219  28.507  38.940  14.932
32795W        W 5220  28.505  23.523  10.528
32796W        W 5221   5.855  22.177  14.027
32797W        W 5222  12.686  41.304  13.481
32798W        W 5223  27.149  25.975   1.844
32799W        W 5224   8.358  44.448   3.234
32800W        W 5225  10.679   6.834   2.268
32801W        W 5226  37.573  14.302  13.485
32802W        W 5227   1.457  16.116   0.884
32803W        W 5228  25.997   3.929   2.282
32804W        W 5229  20.111  12.183  13.795
32805W        W 5230  13.167   5.715  11.481
32806W        W 5231   4.402  14.260  13.971
32807W        W 5232  16.238   5.199  13.969
32808W        W 5233   6.309  32.057   3.842
32809W        W 5234  43.442  11.811  13.512
32810W        W 5235  11.647  15.322  12.413
32811W        W 5236   4.928  21.227   1.424
32812W        W 5237  27.516   8.726  11.029
32813W        W 5238  40.856  44.789  13.898
32814W        W 5239  41.031   8.404  14.892
32815W        W 5240  11.370  35.938  14.466
32816W        W 5241  38.830  19.264   2.270
32817W        W 5242  37.081  16.568   3.370
32818W        W 5243   3.719  13.667   0.852
32819W        W 5244  28.080   2.305   3.747
32820W        W 5245  36.094   0.841   0.317
32821W        W 5246   9.190  41.882   4.291
32822W        W 5247  34.011  17.788   3.711
32823W        W 5248  17.179  41.907  11.121
32824W        W 5249  12.212  20.570   1.294
32825W        W 5250  40.049   0.481   2.276
32826W        W 5251  19.063  27.494   3.789
32827W        W 5252   9.826  35.053  14.469
32828W        W 5253  30.500  26.686  10.561
32829W        W 5254  33.990   3.744   4.306
32830W        W 5255   4.819   2.855  14.489
32831W        W 5256  14.299  23.202  11.960
32832W        W 5257  39.038  33.483   1.883
32833W        W 5258   7.413   3.437  13.064
32834W        W 5259   4.309  20.559   4.228
32835W        W 5260  32.909  12.137  12.541
32836W        W 5261  28.526  29.013  14.488
32837W        W 5262  20.628  43.802   3.185
32838W        W 5263  42.960  32.391   1.717
32839W        W 5264   2.911  20.184  11.383
32840W        W 5265   3.344  35.058  13.322
32841W        W 5266  42.444   3.956   1.394
32842W        W 5267  40.948  24.122  12.403
32843W        W 5268  27.543  37.007  10.537
32844W        W 5269  36.993  27.947  12.527
32845W        W 5270  19.693  29.965  12.859
32846W        W 5271  41.903  27.538  11.865
32847W        W 5272   9.316  25.613   0.840
32848W        W 5273  12.254   3.946  14.325
32849W        W 5274  36.965   1.915  14.305
32850W        W 5275  23.211   1.468   0.330
32851W        W 5276  31.944  26.062  11.382
32852W        W 5277  36.442  17.128  11.605
32853W        W 5278  35.018  44.306   0.956
32854W        W 5279  21.726  11.860  12.565
32855W        W 5280  11.792  42.021  13.319
32856W        W 5281  27.178   3.426   3.720
32857W        W 5282  12.643  13.842   2.225
32858W        W 5283  36.400   2.956  10.971
32859W        W 5284  36.035  35.448  14.889
32860W        W 5285  14.274  37.983  11.594
32861W        W 5286  11.655  21.148  11.092
32862W        W 5287   7.244  19.104   0.257
32863W        W 5288  40.999  18.082  10.636
32864W        W 5289  35.973  11.343  14.791
32865W        W 5290   1.260  33.956   2.236
32866W        W 5291  29.925   4.211   1.787
32867W        W 5292   2.443  41.324  11.013
32868W        W 5293  40.366  11.292  11.546
32869W        W 5294  17.566  20.173   1.903
32870W        W 5295  37.536  10.312  13.349
32871W        W 5296  26.192  23.211  12.087
32872W        W 5297  13.200   0.493  12.367
32873W        W 5298  41.039  34.041  12.921
32874W        W 5299  34.410  16.784  14.996
32875W        W 5300  32.557   6.761  13.411
32876W        W 5301  19.221   8.190  12.530
32877W        W 5302  22.645  24.997  11.895
32878W        W 5303  26.065  43.934  12.477
32879W        W 5304  19.774  31.102  12.508
32880W        W 5305  12.748  44.936   0.337
32881W        W 5306   8.329  29.614  12.508
32882W        W 5307  20.167   7.390   0.898
32883W        W 5308  34.484  16.282   2.401
32884W        W 5309  10.358  41.959  13.944
32885W        W 5310   3.318   8.729   0.763
32886W        W 5311  23.150  23.569  13.878
32887W        W 5312  41.929  39.537  13.044
32888W        W 5313  15.765  42.413   2.325
32889W        W 5314  14.646  34.562  11.590
32890W        W 5315   9.841  21.745   1.266
32891W        W 5316  13.792  10.145   1.422
32892W        W 5317  38.541  27.528   1.256
32893W        W 5318  44.881  35.995   3.341
32894W        W 5319   5.759   6.196   0.847
32895W        W 5320  31.456   7.194   1.741
32896W        W 5321  23.060  12.857  10.557
32897W        W 5322  30.617  38.893  11.920
32898W        W 5323   9.179   1.908  10.424
32899W        W 5324  25.030  12.224   3.316
32900W        W 5325  34.058  15.250   2.240
32901W        W 5326  40.997  34.490  13.317
32902W        W 5327  35.104  12.143   2.819
32903W        W 5328  11.733   7.819  14.505
32904W        W 5329  22.521  35.370   0.261
32905W        W 5330   2.338  16.144  10.902
32906W        W 5331  27.064  12.748  12.910
32907W        W 5332  29.985  36.906  12.435
32908W        W 5333  38.904  43.513  10.554
32909W        W 5334   7.331  24.552  12.536
32910W        W 5335  30.911  10.195   2.394
32911W        W 5336   8.280  27.551  11.935
32912W        W 5337  27.675  35.463   1.865
32913W        W 5338  20.252  12.657  13.478
32914W        W 5339   4.311  20.624  13.932
32915W        W 5340  36.962   4.835   4.636
32916W        W 5341  10.785  40.028   1.850
32917W        W 5342  33.930   3.347  10.892
32918W        W 5343  29.558  21.039  13.515
32919W        W 5344  43.485  22.723  14.330
32920W        W 5345  40.356  17.801  12.966
32921W        W 5346  19.265  36.855   0.295
32922W        W 5347   2.864  20.093   1.784
32923W        W 5348  37.534  35.441  11.042
32924W        W 5349  36.512  20.135   0.443
32925W        W 5350   3.718  31.610   0.939
32926W        W 5351  15.291  15.785  11.467
32927W        W 5352  44.267  44.356  14.901
32928W        W 5353  17.142  22.056  11.047
32929W        W 5354  27.642  35.527  13.062
32930W        W 5355  17.094  38.409   0.950
32931W        W 5356   7.400  12.826   2.273
32932W        W 5357  13.734  33.981  10.544
32933W        W 5358  18.111  37.033  12.835
32934W        W 5359  36.419  33.502   0.336
32935W        W 5360  30.574  11.623  14.841
32936W        W 5361   2.854   6.865  10.930
32937W        W 5362   1.866   3.341  11.602
32938W        W 5363   9.310  24.170   0.294
32939W        W 5364  27.591  15.625   3.815
32940W        W 5365  29.562   4.764  13.493
32941W        W 5366  25.656  44.290   3.226
32942W        W 5367  37.023  22.130  12.367
32943W        W 5368  23.034  25.531  12.979
32944W        W 5369  30.137  10.857   3.738
32945W        W 5370  28.469  41.353  14.011
32946W        W 5371  22.120  21.163   0.960
32947W        W 5372  15.714   5.336  11.041
32948W        W 5373  16.791  28.492  13.414
32949W        W 5374  43.776   3.401  14.360
32950W        W 5375  26.601  36.906  11.528
32951W        W 5376  23.003  31.933   4.627
32952W        W 5377  28.653  19.649  10.501
32953W        W 5378  38.445   1.764  10.895
32954W        W 5379  21.252   0.319   1.712
32955W        W 5380  44.814   6.866  12.444
32956W        W 5381   6.406  35.360  11.078
32957W        W 5382  34.935  10.727  13.454
32958W        W 5383  26.165  22.140   1.362
32959W        W 5384  14.095  38.965   3.684
32960W        W 5385  35.853   5.792  11.413
32961W        W 5386   2.306  41.459   2.668
32962W        W 5387  28.158  36.850   3.273
32963W        W 5388   6.218  35.894  13.468
32964W        W 5389  40.909  15.780  13.518
32965W        W 5390  41.917   3.736   3.846
32966W        W 5391  21.223  44.766   3.335
32967W        W 5392  38.874  31.986   4.682
32968W        W 5393   5.780  13.675  13.812
32969W        W 5394  39.434  22.017   1.718
32970W        W 5395   0.919  41.042   3.866
32971W        W 5396  18.172  12.287  13.026
32972W        W 5397  11.667  41.314  10.068
32973W        W 5398  40.356   6.385   2.192
32974W        W 5399  11.749  18.787   2.786
32975W        W 5400  35.093   6.419  13.912
32976W        W 5401  34.028  24.649  14.950
32977W        W 5402   5.199  17.134  12.883
32978W        W 5403  29.602  32.120  11.605
32979W        W 5404  15.227   5.218  14.385
32980W        W 5405  16.792   9.372   3.169
32981W        W 5406  16.625  24.708  11.006
32982W        W 5407   1.947  42.325  14.326
32983W        W 5408  28.106  11.187   4.683
32984W        W 5409  10.292   4.305  11.045
32985W        W 5410  37.392  23.494  12.935
32986W        W 5411  17.262  16.216  11.075
32987W        W 5412  38.820  17.110   1.231
32988W        W 5413   5.835   2.460  12.528
32989W        W 5414  35.929   4.811  14.969
32990W        W 5415  35.396   4.782   2.351
32991W        W 5416   7.207  42.855   2.300
32992W        W 5417  35.990  22.622   1.747
32993W        W 5418  43.453  38.365   0.346
32994W        W 5419   3.317  13.281  12.899
32995W        W 5420  19.565  37.493   0.895
32996W        W 5421  30.954  24.650  13.795
32997W        W 5422   6.333  17.261  10.965
32998W        W 5423   0.466  30.144   1.842
32999W        W 5424  38.882  16.270   4.136
33000W        W 5425  29.931  30.592  14.408
33001W        W 5426  23.990  32.029  10.139
33002W        W 5427  13.125  34.519   3.850
33003W        W 5428  14.726  25.220  10.947
33004W        W 5429  12.617  32.611  11.608
33005W        W 5430  22.126  17.708  11.058
33006W        W 5431  15.779  34.881   2.788
33007W        W 5432   8.293   0.986   3.803
33008W        W 5433  24.187   7.761   1.709
33009W        W 5434  29.629  36.059   5.302
33010W        W 5435  24.584  15.819  10.576
33011W        W 5436  26.993  30.575  14.841
33012W        W 5437  12.328  14.203  13.902
33013W        W 5438  41.458  43.419   1.380
33014W        W 5439  14.705  43.784  12.365
33015W        W 5440   3.866   6.737  10.515
33016W        W 5441  39.475  22.573   4.815
33017W        W 5442  13.115  20.630  13.384
33018W        W 5443   4.244  32.513   4.334
33019W        W 5444  26.686   8.337  11.078
33020W        W 5445  27.520  20.532  12.426
33021W        W 5446   6.900   4.350   3.823
33022W        W 5447  26.593  41.536  13.401
33023W        W 5448  26.543   0.896  11.993
33024W        W 5449  17.175  15.715   4.169
33025W        W 5450  14.102  40.367   3.252
33026W        W 5451  13.696  19.608   3.372
33027W        W 5452  12.177  11.765   1.367
33028W        W 5453  14.757  25.007   4.201
33029W        W 5454  10.325  15.303   0.446
33030W        W 5455  36.873  24.622   3.244
33031W        W 5456   7.808  26.691  11.448
33032W        W 5457  13.346  20.271   0.300
33033W        W 5458  29.948  32.623   0.263
33034W        W 5459  21.045  43.480  12.874
33035W        W 5460  20.705  34.605  10.520
33036W        W 5461  38.019  20.028   4.606
33037W        W 5462  29.982  31.109   3.777
33038W        W 5463  22.191  27.646   4.165
33039W        W 5464  23.066  32.900   2.359
33040W        W 5465  28.979  14.123   4.271
33041W        W 5466  11.706  15.213  14.996
33042W        W 5467   2.391  34.072   2.702
33043W        W 5468  32.511  38.998  12.464
33044W        W 5469  12.244  26.662   0.385
33045W        W 5470   1.248  15.697   3.788
33046W        W 5471  20.271   0.262   0.861
33047W        W 5472  13.829  36.593   3.767
33048W        W 5473   5.360  43.947   0.797
33049W        W 5474  38.036  41.463   9.930
33050W        W 5475   8.223  29.659  14.346
33051W        W 5476  37.404  18.727   1.746
33052W        W 5477   2.736  31.586   4.767
33053W        W 5478   6.209  38.052  12.353
33054W        W 5479   1.759   2.375  12.951
33055W        W 5480  13.648  16.119  11.376
33056W        W 5481   8.813  26.194  12.531
33057W        W 5482  39.063  31.540  12.920
33058W        W 5483  34.473  11.228  13.538
33059W        W 5484   1.905   9.330  11.495
33060W        W 5485  16.300  17.739   1.917
33061W        W 5486  21.255   7.388  10.450
33062W        W 5487  10.774  38.919  11.018
33063W        W 5488  19.044  22.631   4.736
33064W        W 5489  10.833  34.067   0.805
33065W        W 5490  40.816  39.364  13.494
33066W        W 5491   5.906  13.721   3.237
33067W        W 5492  19.065  38.963   2.204
33068W        W 5493  16.302  32.487   1.869
33069W        W 5494   0.750  20.150   1.702
33070W        W 5495  14.659  23.177   2.796
33071W        W 5496  25.000  40.425  12.575
33072W        W 5497  27.967   7.734   4.801
33073W        W 5498   6.769  37.856  12.430
33074W        W 5499   8.345  31.637  10.495
33075W        W 5500  27.454   2.320   3.778
33076W        W 5501  28.143  24.139  14.392
33077W        W 5502  14.759  40.456   1.238
33078W        W 5503  38.023  31.450   3.814
33079W        W 5504  13.818  35.938   4.775
33080W        W 5505  39.505  17.792  12.036
33081W        W 5506  15.102  18.258   1.327
33082W        W 5507  11.700  10.658  13.985
33083W        W 5508  31.648  41.405  14.304
33084W        W 5509  31.524   1.753   4.788
33085W        W 5510   9.778  18.062   0.361
33086W        W 5511   9.301  39.460   3.382
33087W        W 5512  35.604  33.590   4.207
33088W        W 5513  27.526   1.298   0.321
33089W        W 5514  39.421   6.755  14.469
33090W        W 5515  11.251   6.694   3.834
33091W        W 5516  23.059  30.981   4.131
33092W        W 5517  10.861  15.137   1.802
33093W        W 5518  33.925   3.218   3.782
33094W        W 5519  32.427  41.798   1.820
33095W        W 5520  16.175   5.254  14.426
33096W        W 5521  27.511  27.961  12.415
33097W        W 5522  26.588  37.941   3.238
33098W        W 5523   4.857  33.617   1.800
33099W        W 5524  18.771  12.646  13.513
33100W        W 5525   0.869  44.783  12.390
33101W        W 5526   7.736  42.941  14.282
33102W        W 5527   2.335  28.667   3.338
33103W        W 5528   9.766   9.278   1.820
33104W        W 5529   9.813  18.597  14.494
33105W        W 5530   6.762  20.116  12.026
33106W        W 5531   2.942   7.291   0.309
33107W        W 5532  29.008  15.217  13.808
33108W        W 5533   3.330  15.233   3.767
33109W        W 5534   6.872  41.337  12.353
33110W        W 5535  22.225   7.812   4.695
33111W        W 5536  24.021  12.152  11.007
33112W        W 5537  33.600  39.331   2.734
33113W        W 5538  34.411  33.939   4.764
33114W        W 5539  13.208  19.537   0.766
33115W        W 5540  12.740  26.674   4.316
33116W        W 5541  27.604  32.445   1.374
33117W        W 5542  15.317  10.188   4.277
33118W        W 5543  35.852  35.015  14.363
33119W        W 5544  23.633  41.999   2.849
33120W        W 5545  22.187  17.099  13.371
33121W        W 5546  43.798  25.008   2.684
33122W        W 5547   7.215  16.690  11.973
33123W        W 5548  20.247   6.679  14.499
33124W        W 5549   2.372  26.647   1.910
33125W        W 5550   8.402  22.082   3.669
33126W        W 5551   3.297  35.004  12.978
33127W        W 5552  24.106  15.095  11.583
33128W        W 5553  35.027  38.424   1.896
33129W        W 5554   7.273  42.972  12.067
33130W        W 5555   9.374   8.164  14.316
33131W        W 5556  18.621  27.582   2.359
33132W        W 5557  34.038  37.052  14.979
33133W        W 5558  12.306  30.570  14.994
33134W        W 5559  22.674  29.113  12.089
33135W        W 5560  10.855  18.169  10.489
33136W        W 5561  12.268  12.301   1.413
33137W        W 5562  20.139  40.479  14.813
33138W        W 5563  30.011  30.554   1.412
33139W        W 5564  31.026  39.394   0.372
33140W        W 5565  20.238   9.886   2.369
33141W        W 5566  18.228   0.382   0.400
33142W        W 5567  40.535  44.807   1.811
33143W        W 5568  30.955  32.112   5.117
33144W        W 5569   9.757   2.256   0.316
33145W        W 5570   8.183  10.156   3.260
33146W        W 5571  16.727  36.066  13.958
33147W        W 5572  20.528   3.295   4.129
33148W        W 5573  43.420  43.418  13.047
33149W        W 5574   0.827  21.201  12.564
33150W        W 5575  17.634   6.742   2.781
33151W        W 5576  12.333  37.975  11.004
33152W        W 5577  39.350  18.199  11.124
33153W        W 5578   3.433  12.301  11.593
33154W        W 5579  35.417  36.543   0.252
33155W        W 5580  41.005  26.527   3.814
33156W        W 5581   4.297  39.029  14.512
33157W        W 5582   3.919   1.778   3.364
33158W        W 5583  39.483   2.774   2.383
33159W        W 5584  13.678  39.547  10.449
33160W        W 5585  12.840  20.766  14.319
33161W        W 5586   5.263  35.099   0.954
33162W        W 5587  25.050  11.337   1.261
33163W        W 5588  44.829  26.956   1.410
33164W        W 5589  42.312   0.757   3.239
33165W        W 5590  41.415  19.665  13.413
33166W        W 5591  18.584  17.634   3.646
33167W        W 5592  25.711  37.386  14.441
33168W        W 5593  37.041  24.508   1.311
33169W        W 5594  39.823  14.280  13.430
33170W        W 5595  32.612  19.102   1.795
33171W        W 5596  31.638   6.319  10.568
33172W        W 5597  15.767   8.232   3.671
33173W        W 5598  17.589  42.009   1.357
33174W        W 5599   3.312  29.643   1.412
33175W        W 5600  30.540  28.569  12.866
33176W        W 5601  11.763   5.725   2.742
33177W        W 5602  38.395  40.447   2.282
33178W        W 5603  21.041  35.944   3.645
33179W        W 5604  30.646  38.569  10.906
33180W        W 5605   5.354  20.546   2.665
33181W        W 5606  37.970  44.341  13.021
33182W        W 5607   2.371   7.176  11.582
33183W        W 5608  17.304  40.424  13.505
33184W        W 5609  37.476   7.414  13.892
33185W        W 5610   9.717  31.063  13.430
33186W        W 5611  17.735  18.553  13.052
33187W        W 5612  31.993  14.330  11.060
33188W        W 5613   6.380  12.234   0.866
33189W        W 5614  43.934   1.881  14.506
33190W        W 5615  22.076  37.458   1.743
33191W        W 5616   9.381  39.382   2.812
33192W        W 5617  38.566  43.991  14.340
33193W        W 5618  29.957   8.210   3.768
33194W        W 5619  33.402   8.267  10.476
33195W        W 5620  24.507  11.830   1.422
33196W        W 5621   6.360   4.879  12.434
33197W        W 5622  16.585   3.868   0.946
33198W        W 5623  41.385  40.524  11.587
33199W        W 5624  42.378  30.154  14.916
33200W        W 5625  38.014  26.556  10.573
33201W        W 5626   6.747   3.263   2.786
33202W        W 5627   0.745  27.077   0.357
33203W        W 5628  34.872  35.377  10.574
33204W        W 5629  34.574  13.705   1.856
33205W        W 5630   9.691  27.120  13.901
33206W        W 5631  11.293  24.166   1.695
33207W        W 5632  11.189  44.475   2.668
33208W        W 5633  20.043  27.168   2.296
33209W        W 5634  40.430  18.249   2.409
33210W        W 5635  15.257  28.104  10.606
33211W        W 5636  17.213  30.931  10.039
33212W        W 5637  26.519  38.992   1.827
33213W        W 5638  40.851   0.444  10.627
33214W        W 5639  32.096  41.829   4.770
33215W        W 5640  11.311   5.413  11.963
33216W        W 5641  23.037   3.454   0.740
33217W        W 5642  41.865  21.224   1.784
33218W        W 5643  24.022  22.068  14.440
33219W        W 5644  21.536  32.065   4.341
33220W        W 5645   6.722  21.745   4.194
33221W        W 5646  42.813  41.826   2.903
33222W        W 5647   4.892  20.119   4.248
33223W        W 5648   8.663  24.040  11.869
33224W        W 5649  36.546   2.432  13.056
33225W        W 5650   5.855   7.303   3.836
33226W        W 5651   0.383  15.199  14.377
33227W        W 5652   1.424  34.010   0.940
33228W        W 5653  23.995  40.317  12.886
33229W        W 5654  43.824  15.256   1.776
33230W        W 5655  19.141  22.606   2.358
33231W        W 5656  35.487  14.216  10.628
33232W        W 5657  27.549  43.799  13.801
33233W        W 5658  24.020  44.495   1.413
33234W        W 5659  37.464  33.930   1.888
33235W        W 5660  21.743   4.420   1.338
33236W        W 5661  43.269  14.114  10.905
33237W        W 5662  44.298  29.060   2.301
33238W        W 5663  19.780   5.379  11.984
33239W        W 5664  37.424  23.525   2.862
33240W        W 5665  26.670   6.854   0.479
33241W        W 5666   5.348  34.882  13.528
33242W        W 5667   1.828  31.098   1.780
33243W        W 5668   9.717  30.083  11.964
33244W        W 5669  27.675  42.848  11.535
33245W        W 5670  36.499   6.273   2.834
33246W        W 5671   9.184   4.863   1.227
33247W        W 5672  19.188  31.504   4.256
33248W        W 5673  22.051  43.311   3.754
33249W        W 5674  44.373  31.422   0.248
33250W        W 5675  39.895   8.250   2.357
33251W        W 5676  21.214  36.062   3.273
33252W        W 5677  15.241  21.747   4.604
33253W        W 5678   7.775  23.118  13.894
33254W        W 5679   2.753  32.075   0.448
33255W        W 5680  26.206   9.327  12.920
33256W        W 5681  41.358  42.987   0.810
33257W        W 5682  17.305  23.228   4.121
33258W        W 5683   3.354  26.507   1.817
33259W        W 5684  12.217  28.456   0.732
33260W        W 5685   3.861  12.843  13.827
33261W        W 5686  36.019  14.723   2.361
33262W        W 5687  22.064  14.648  12.838
33263W        W 5688  44.894  21.027   4.262
33264W        W 5689  12.845  29.988  14.477
33265W        W 5690  31.976  29.021   4.342
33266W        W 5691  29.527  14.094   9.962
33267W        W 5692  17.210   3.419  10.049
33268W        W 5693   2.459  19.536  10.925
33269W        W 5694  32.610  34.561   1.335
33270W        W 5695  35.954  17.221  14.952
33271W        W 5696  14.765   6.788   1.284
33272W        W 5697   5.311   1.828   1.896
33273W        W 5698  31.517  39.862   4.158
33274W        W 5699  10.254  35.898  11.453
33275W        W 5700  13.720  13.697   1.361
33276W        W 5701   6.315  41.325  11.392
33277W        W 5702  39.992  28.132   3.253
33278W        W 5703  18.159  44.938   0.746
33279W        W 5704  40.818  36.374  12.563
33280W        W 5705  11.199  35.585  11.038
33281W        W 5706  42.410  21.189  11.387
33282W        W 5707  39.032  28.031  11.516
33283W        W 5708  22.073  21.162  14.801
33284W        W 5709   1.480  35.018   2.758
33285W        W 5710  10.320  34.061   2.320
33286W        W 5711  22.669   6.406   4.694
33287W        W 5712  18.265   6.401   3.331
33288W        W 5713  43.935  23.537  10.462
33289W        W 5714   5.410   8.321  11.862
33290W        W 5715  18.073   0.862   3.857
33291W        W 5716  39.874  38.061   3.734
33292W        W 5717  24.526  35.852   2.682
33293W        W 5718   5.403   3.758  13.468
33294W        W 5719  29.974  29.069  14.451
33295W        W 5720   1.392   3.364   0.852
33296W        W 5721   2.264  44.990   2.291
33297W        W 5722  15.595   0.342   2.254
33298W        W 5723  37.582  26.177  14.392
33299W        W 5724  35.909  31.126   4.334
33300W        W 5725  25.968  36.499   1.898
33301W        W 5726  10.680  28.068   1.916
33302W        W 5727   7.684  40.804   4.715
33303W        W 5728   0.362  16.730  13.368
33304W        W 5729  11.174  21.157   1.258
33305W        W 5730  40.816  44.451  13.912
33306W        W 5731  44.308  25.711   3.286
33307W        W 5732  11.265  22.996   0.385
33308W        W 5733   7.198  41.904  13.898
33309W        W 5734  20.257  19.142   4.222
33310W        W 5735  40.042   4.396  14.386
33311W        W 5736  21.165  27.541   3.299
33312W        W 5737  31.602  26.595  14.763
33313W        W 5738  29.668  42.005   3.815
33314W        W 5739  38.435  24.083   1.752
33315W        W 5740  41.990  17.071   1.301
33316W        W 5741  37.380  28.566   2.379
33317W        W 5742  40.978  33.427   3.262
33318W        W 5743  19.116  44.883  11.607
33319W        W 5744  32.097  29.664   3.757
33320W        W 5745   1.461  22.090  12.833
33321W        W 5746   3.256  29.005   1.280
33322W        W 5747  41.383  34.504  14.369
33323W        W 5748   5.365   7.702  13.333
33324W        W 5749  41.409  22.011  13.455
33325W        W 5750  33.083  16.774  10.611
33326W        W 5751  25.521  10.147  11.005
33327W        W 5752  25.187  16.604  14.989
33328W        W 5753  11.271  10.188   1.297
33329W        W 5754  20.052  19.570  10.577
33330W        W 5755   9.330  25.544   1.373
33331W        W 5756  34.436  15.144  10.535
33332W        W 5757  43.491  12.266  14.974
33333W        W 5758   3.283  17.794   3.825
33334W        W 5759  35.882  29.082  14.470
33335W        W 5760  11.256  33.451  13.368
33336W        W 5761  11.637  11.266   2.390
33337W        W 5762  18.280  33.936   4.281
33338W        W 5763  27.626  43.002  12.459
33339W        W 5764   3.362   1.263  10.554
33340W        W 5765  11.218  27.675   3.227
33341W        W 5766  28.977  33.904  13.023
33342W        W 5767  41.816  21.650   4.836
33343W        W 5768   1.246  18.737  14.503
33344W        W 5769  40.395  35.026  12.908
33345W        W 5770   7.724  31.940  13.979
33346W        W 5771  41.868   5.406  14.825
33347W        W 5772  16.807   2.861   5.114
33348W        W 5773  36.500  24.044   1.900
33349W        W 5774  26.010  24.114  11.500
33350W        W 5775  41.876   4.327   4.646
33351W        W 5776   4.431  43.787   2.250
33352W        W 5777  44.279  39.033   1.418
33353W        W 5778  44.280  34.516   0.323
33354W        W 5779  18.146  14.300  13.961
33355W        W 5780  41.305   9.803   4.634
33356W        W 5781  35.001  28.603  12.385
33357W        W 5782   8.349  36.868  13.947
33358W        W 5783  17.119  25.204   2.665
33359W        W 5784  26.125   2.281  14.886
33360W        W 5785  38.824  23.991   0.884
33361W        W 5786  17.068   4.731  13.801
33362W        W 5787   8.355  18.205  11.483
33363W        W 5788  15.227   9.886  12.082
33364W        W 5789  17.190  14.296   4.199
33365W        W 5790   7.266  43.884   2.307
33366W        W 5791  40.047  28.119  11.114
33367W        W 5792  38.903  36.917  11.946
33368W        W 5793  16.154  12.232   0.381
33369W        W 5794  27.996  30.515   0.797
33370W        W 5795  34.490  35.372  10.441
33371W        W 5796  37.417  35.096  10.991
33372W        W 5797  15.733  14.238  14.023
33373W        W 5798   0.299  21.226   0.807
33374W        W 5799  43.369  12.272   2.746
33375W        W 5800  15.311  26.650   1.372
33376W        W 5801  26.673  28.510  14.850
33377W        W 5802   3.311  21.187   4.293
33378W        W 5803   2.836  44.416  13.512
33379W        W 5804  14.623   7.380   3.775
33380W        W 5805  16.098  40.308   2.669
33381W        W 5806  19.575  35.937  13.525
33382W        W 5807  27.486  34.480   3.273
33383W        W 5808  21.123  40.905   2.224
33384W        W 5809  33.056  39.961   4.645
33385W        W 5810   3.835  21.624   4.327
33386W        W 5811  31.557  16.168   2.875
33387W        W 5812  22.567  16.213  13.922
33388W        W 5813   6.748  14.223   4.626
33389W        W 5814  30.651  24.549  10.966
33390W        W 5815  28.024  20.533  12.516
33391W        W 5816  41.518   0.486  12.867
33392W        W 5817   1.466  42.825   1.382
33393W        W 5818  12.670   5.356  14.896
33394W        W 5819   1.742  39.419  11.009
33395W        W 5820  40.962  19.085   3.740
33396W        W 5821  33.394   4.416  13.503
33397W        W 5822   4.706  28.606  10.568
33398W        W 5823  29.526   2.450  11.056
33399W        W 5824  10.260  40.973  11.511
33400W        W 5825  37.983  42.392   4.623
33401W        W 5826   9.865  24.499  11.531
33402W        W 5827  15.653  21.627  11.445
33403W        W 5828  19.177  13.775   0.245
33404W        W 5829  27.114  37.375   2.882
33405W        W 5830   5.253  11.622   1.759
33406W        W 5831   9.260  25.604  13.035
33407W        W 5832  44.382  35.100   0.273
33408W        W 5833  20.170  42.839  10.628
33409W        W 5834  35.477  25.577   4.752
33410W        W 5835  36.468  38.860   2.737
33411W        W 5836  37.475  17.298   4.729
33412W        W 5837  32.942  41.823  14.813
33413W        W 5838  20.762   6.826  13.933
33414W        W 5839  39.375  30.458  14.506
33415W        W 5840  32.632   1.742   0.358
33416W        W 5841   6.285  22.205   0.763
33417W        W 5842   3.368  41.527   3.167
33418W        W 5843   8.243   0.442   2.238
33419W        W 5844  10.358  17.291   1.385
33420W        W 5845  39.052  42.409   4.194
33421W        W 5846  41.303  26.992   0.446
33422W        W 5847  38.336  20.231  10.621
33423W        W 5848  41.507   1.351   0.838
33424W        W 5849  37.557  30.621  11.960
33425W        W 5850  44.336  16.291   4.131
33426W        W 5851  38.395  26.494   2.834
33427W        W 5852  19.771  21.517  10.454
33428W        W 5853  12.144   0.424  12.983
33429W        W 5854  30.452  18.629  10.983
33430W        W 5855   0.455  22.592  14.513
33431W        W 5856  29.104   7.382   1.832
33432W        W 5857  22.107  13.660   1.933
33433W        W 5858  42.837   3.361  13.347
33434W        W 5859  29.068  38.395  13.476
33435W        W 5860  15.703  38.986   3.840
33436W        W 5861  35.000  27.033   0.804
33437W        W 5862  16.674  40.390  12.859
33438W        W 5863   5.833  37.049   3.817
33439W        W 5864  25.662   1.372   0.732
33440W        W 5865  20.711  19.617   1.879
33441W        W 5866   6.714   1.350  14.419
33442W        W 5867   3.824  15.759  10.124
33443W        W 5868   7.797  13.837   2.398
33444W        W 5869  37.473  22.514  10.465
33445W        W 5870  25.535  32.510  10.992
33446W        W 5871  40.008   8.218  12.546
33447W        W 5872  41.519  24.073  11.517
33448W        W 5873  14.304  43.403   4.301
33449W        W 5874  11.654   5.770   4.235
33450W        W 5875  31.961  30.080  14.413
33451W        W 5876  22.709  26.463  14.460
33452W        W 5877   6.236  31.018  12.966
33453W        W 5878  39.447  20.213   1.391
33454W        W 5879  36.939   7.207  14.024
33455W        W 5880  44.452   6.734  14.502
33456W        W 5881  20.213  11.696   2.335
33457W        W 5882  38.076   9.292  13.011
33458W        W 5883  11.854  44.374  11.407
33459W        W 5884   9.245  12.710  11.103
33460W        W 5885   3.746   5.801   3.206
33461W        W 5886  11.305   9.815  11.921
33462W        W 5887  10.719  43.860   1.821
33463W        W 5888  18.570  12.200  11.486
33464W        W 5889  32.094  33.077  12.519
33465W        W 5890   3.769  13.278   3.686
33466W        W 5891  23.104  24.984   2.885
33467W        W 5892  44.287  17.120  12.828
33468W        W 5893   8.863   7.416   1.697
33469W        W 5894  33.076  19.715  12.575
33470W        W 5895  44.349  13.622   1.843
33471W        W 5896  44.405  34.385   9.966
33472W        W 5897  36.998  37.843   1.316
33473W        W 5898  13.296   0.874  13.822
33474W        W 5899  17.625  12.613  11.395
33475W        W 5900  27.682  22.595  14.774
33476W        W 5901  35.021  27.483   4.169
33477W        W 5902  34.450  17.621   1.792
33478W        W 5903   5.291  19.728   4.201
33479W        W 5904  39.856  26.469   2.410
33480W        W 5905  12.702  44.378   4.754
33481W        W 5906  30.972   9.664   3.821
33482W        W 5907  34.520  38.067  13.496
33483W        W 5908  11.284   5.326   4.306
33484W        W 5909  29.169   8.805   1.405
33485W        W 5910  31.598  24.109   0.431
33486W        W 5911   6.859  17.166  14.348
33487W        W 5912  32.540  24.004  13.397
33488W        W 5913  33.952  42.952   3.330
33489W        W 5914  30.910   2.767  10.444
33490W        W 5915   4.710  24.581   2.247
33491W        W 5916   3.817  14.200  14.492
33492W        W 5917   7.730  16.607   3.713
33493W        W 5918   5.363   8.213   4.341
33494W        W 5919  31.981  37.933  14.288
33495W        W 5920  34.424  24.213  10.104
33496W        W 5921  40.455  20.614  13.868
33497W        W 5922  24.201  44.291   0.828
33498W        W 5923  25.577  15.211   1.296
33499W        W 5924  30.009   4.915  13.450
33500W        W 5925  41.787  12.310   2.181
33501W        W 5926   0.802  10.743  10.904
33502W        W 5927   8.385  15.814   0.419
33503W        W 5928  29.552   0.383   1.894
33504W        W 5929  38.914  24.597  11.562
33505W        W 5930  24.031  12.654   1.448
33506W        W 5931   4.391  10.775   2.193
33507W        W 5932  23.620  32.943   2.759
33508W        W 5933  40.944  12.743   2.746
33509W        W 5934  35.585   5.383   0.377
33510W        W 5935  27.197  11.785  14.414
33511W        W 5936  17.667  32.446   2.311
33512W        W 5937  28.169  28.043   1.792
33513W        W 5938  17.300  42.302   0.445
33514W        W 5939  27.598  31.015   4.668
33515W        W 5940  10.286  28.620  10.953
33516W        W 5941  37.071   1.243  12.930
33517W        W 5942  33.414  41.903  12.560
33518W        W 5943  39.904  38.439   2.380
33519W        W 5944  14.791  41.963  12.555
33520W        W 5945   9.272  41.913  13.834
33521W        W 5946  41.923  43.475  10.585
33522W        W 5947   8.722  16.310  14.001
33523W        W 5948  27.594   8.819  13.341
33524W        W 5949  42.518  33.430  13.464
33525W        W 5950  27.998  11.290   1.432
33526W        W 5951  33.879  12.818  12.901
33527W        W 5952   6.687  35.384  11.861
33528W        W 5953  42.443   8.782   3.307
33529W        W 5954  28.507  19.621  12.563
33530W        W 5955  39.844  27.058  11.477
33531W        W 5956  42.433   3.834  12.076
33532W        W 5957   2.245   9.376  11.425
33533W        W 5958  42.973   9.278   1.375
33534W        W 5959  35.004  36.863   3.774
33535W        W 5960  25.034  16.666  12.543
33536W        W 5961  23.664   7.218   2.734
33537W        W 5962  37.932  12.765   1.370
33538W        W 5963  41.439  39.468  11.978
33539W        W 5964  17.105  39.035  11.925
33540W        W 5965  15.739  15.762  14.915
33541W        W 5966  11.670  36.980   4.269
33542W        W 5967  22.743  25.518  13.886
33543W        W 5968  25.704  10.761   5.089
33544W        W 5969  28.979  31.558   3.365
33545W        W 5970  12.119  14.189   0.829
33546W        W 5971  37.418  32.994  10.053
33547W        W 5972  21.141  29.000   0.311
33548W        W 5973  26.601  20.187   0.284
33549W        W 5974   1.970   4.330   4.276
33550W        W 5975  33.617  20.075   2.316
33551W        W 5976   8.869  36.410  13.013
33552W        W 5977  40.002   8.309   3.741
33553W        W 5978   7.708   2.234  14.331
33554W        W 5979  14.329  24.678  10.103
33555W        W 5980  30.122  16.223   1.279
33556W        W 5981  29.449  17.769  14.976
33557W        W 5982   2.225  34.546   3.294
33558W        W 5983   9.286  40.496   2.786
33559W        W 5984  24.665  28.443   4.181
33560W        W 5985  36.980  39.008  11.923
33561W        W 5986  34.072  17.793  13.479
33562W        W 5987  43.355  23.056   3.826
33563W        W 5988  36.556  14.669   2.794
33564W        W 5989  12.625  35.084   3.387
33565W        W 5990   4.368   1.342   4.804
33566W        W 5991  19.665  44.476   2.693
33567W        W 5992  29.024  36.021  14.925
33568W        W 5993  33.546  42.775  12.351
33569W        W 5994   5.260  24.658   4.191
33570W        W 5995  41.864   6.722  13.820
33571W        W 5996   6.376   8.871  10.934
33572W        W 5997  20.208   0.890  13.878
33573W        W 5998  40.480  44.754  10.026
33574W        W 5999  43.335  19.163   4.149
33575W        W 6000  28.955  26.506   2.207
33576W        W 6001  42.356  32.034   4.747
33577W        W 6002  30.910   2.351   3.224
33578W        W 6003  32.448  22.087  11.857
33579W        W 6004  44.773  29.077   3.677
33580W        W 6005  28.085  17.098   1.437
33581W        W 6006  36.505   9.685  10.996
33582W        W 6007  42.384  21.661   3.383
33583W        W 6008  38.863  14.256  11.584
33584W        W 6009   0.476  11.835   3.153
33585W        W 6010  18.579  15.107   4.275
33586W        W 6011   5.289  19.091   3.281
33587W        W 6012  34.944  37.028  12.496
33588W        W 6013   1.822  44.298  12.983
33589W        W 6014  38.916  23.688   4.635
33590W        W 6015  13.625   2.366  12.875
33591W        W 6016  21.120  36.848  14.858
33592W        W 6017   9.310   1.295  10.994
33593W        W 6018  10.751  25.061  14.966
33594W        W 6019  24.224  22.542   0.397
33595W        W 6020   9.220  41.503  11.602
33596W        W 6021   7.222  39.029   1.888
33597W        W 6022  15.680  42.341  12.966
33598W        W 6023   3.727  19.083   4.647
33599W        W 6024  21.651  14.294   3.333
33600W        W 6025  18.230  10.367  12.832
33601W        W 6026  37.060  16.623   0.357
33602W        W 6027  33.541  23.618  13.383
33603W        W 6028  17.274  39.992   4.730
33604W        W 6029  31.955  28.462   1.922
33605W        W 6030  34.570  41.793   2.788
33606W        W 6031  31.047   1.970   1.294
33607W        W 6032  35.962   2.911   0.354
33608W        W 6033  22.644   5.847   1.712
33609W        W 6034  30.479   1.272  14.341
33610W        W 6035   5.867  31.980   5.160
33611W        W 6036  27.994  44.763  13.452
33612W        W 6037   5.858   9.335   0.469
33613W        W 6038  32.463  14.326   1.248
33614W        W 6039  11.804  26.644   5.282
33615W        W 6040  27.578   9.182   1.313
33616W        W 6041  15.806  38.479   3.165
33617W        W 6042  10.383  38.385  10.556
33618W        W 6043  10.649   6.421  11.411
33619W        W 6044  19.634  35.936  13.882
33620W        W 6045  42.292  22.092  11.404
33621W        W 6046  13.625  36.530   1.837
33622W        W 6047   4.733  29.966   0.909
33623W        W 6048  42.290  33.079  13.850
33624W        W 6049   1.447   1.304   1.777
33625W        W 6050   9.169   6.272   4.199
33626W        W 6051  20.113  16.249  11.440
33627W        W 6052  10.796  44.898  12.080
33628W        W 6053  44.848  41.431  11.125
33629W        W 6054   4.375  24.693   2.754
33630W        W 6055   8.336  31.598  13.505
33631W        W 6056   4.434  31.560  12.414
33632W        W 6057   4.802  13.241   1.732
33633W        W 6058  36.465  33.480  10.905
33634W        W 6059   5.867  38.389   4.246
33635W        W 6060  25.565  16.601   1.931
33636W        W 6061  21.218  20.568  11.548
33637W        W 6062  38.945  31.539   1.726
33638W        W 6063  40.885  25.974  11.453
33639W        W 6064  38.978  34.011   4.277
33640W        W 6065  14.778  16.620   1.258
33641W        W 6066   8.801  17.679   1.283
33642W        W 6067  36.586   7.207   2.284
33643W        W 6068  24.181  13.234  11.533
33644W        W 6069  11.150  40.460  14.933
33645W        W 6070  37.471   7.228   1.741
33646W        W 6071  23.691   9.311   1.839
33647W        W 6072  18.756  34.583   4.678
33648W        W 6073  14.190  40.900   2.866
33649W        W 6074  39.872   5.844  13.853
33650W        W 6075   2.900  39.513   3.639
33651W        W 6076   3.450  16.647  11.581
33652W        W 6077  20.751  10.689   2.307
33653W        W 6078  34.540  13.151  12.421
33654W        W 6079  24.584  16.291  10.420
33655W        W 6080   7.389  44.318  13.405
33656W        W 6081  39.947  35.891  13.863
33657W        W 6082  32.592   4.841   3.220
33658W        W 6083  15.176   0.468   2.273
33659W        W 6084  12.261  43.807  11.508
33660W        W 6085  16.631  21.719  12.069
33661W        W 6086  38.825  41.971  12.862
33662W        W 6087   1.830  43.981   0.845
33663W        W 6088  37.335  40.974   3.239
33664W        W 6089  40.027  43.785  12.339
33665W        W 6090   4.412  21.513  12.472
33666W        W 6091   9.216  30.506  10.078
33667W        W 6092  27.532  44.894  12.948
33668W        W 6093  39.352  22.621  13.538
33669W        W 6094  37.051  39.394  14.279
33670W        W 6095   6.754  17.163   3.869
33671W        W 6096  21.549  28.075  10.478
33672W        W 6097  25.026  26.610  12.445
33673W        W 6098  31.629   4.869  12.341
33674W        W 6099  32.115   4.898   5.118
33675W        W 6100  38.885   9.333   3.170
33676W        W 6101  10.379  26.624  12.921
33677W        W 6102  39.927   7.670  14.938
33678W        W 6103  34.377  18.268  13.508
33679W        W 6104   4.335  11.866   4.807
33680W        W 6105  25.662  15.671   2.275
33681W        W 6106  37.041  12.771  12.532
33682W        W 6107  23.184  22.619  11.495
33683W        W 6108  30.467  27.494   3.796
33684W        W 6109  31.128   4.707  14.376
33685W        W 6110  30.985  37.949  11.895
33686W        W 6111  23.063   0.253   1.745
33687W        W 6112  10.634  12.801  11.947
33688W        W 6113  28.021  38.569   2.711
33689W        W 6114  13.802  38.444  14.453
33690W        W 6115  11.752  25.047  12.889
33691W        W 6116  44.916  44.991   0.884
33692W        W 6117  17.629  25.701   3.805
33693W        W 6118   2.450  31.578   4.136
33694W        W 6119   9.815  10.832   1.407
33695W        W 6120  18.633  28.098   4.718
33696W        W 6121  43.320   0.430   2.672
33697W        W 6122  10.271  22.155  10.095
33698W        W 6123  40.533   6.874  14.008
33699W        W 6124  16.168  14.287  12.992
33700W        W 6125  11.150  19.614  12.068
33701W        W 6126  16.215  23.647   0.782
33702W        W 6127   2.889  29.939  10.905
33703W        W 6128  13.726  30.444   1.284
33704W        W 6129  33.096  32.483   4.823
33705W        W 6130  39.341  28.666   0.446
33706W        W 6131   7.764  43.430   0.961
33707W        W 6132  40.540  25.547  11.557
33708W        W 6133  38.886   5.808  12.862
33709W        W 6134  41.882  40.994   1.276
33710W        W 6135  44.972  40.856   1.768
33711W        W 6136  37.486  24.065  11.118
33712W        W 6137  24.524  30.505  12.529
33713W        W 6138  29.983   2.853   0.469
33714W        W 6139  36.377  35.896   2.891
33715W        W 6140  36.870  15.169  13.926
33716W        W 6141  34.380  18.274  12.483
33717W        W 6142  35.470  26.524   4.679
33718W        W 6143   3.719  13.725   2.671
33719W        W 6144   0.345   0.449   0.355
33720W        W 6145  28.493  24.570   2.369
33721W        W 6146  19.706  12.657  14.287
33722W        W 6147  36.527  13.739   0.439
33723W        W 6148  36.917  35.108  11.883
33724W        W 6149  11.166   1.862  11.052
33725W        W 6150  21.518  26.604   3.822
33726W        W 6151  34.519  39.059   1.715
33727W        W 6152  35.075  28.563  13.400
33728W        W 6153  21.693  11.319   3.829
33729W        W 6154  11.813  20.255   1.887
33730W        W 6155   0.366  31.073   4.273
33731W        W 6156   5.751  39.929   0.919
33732W        W 6157  25.646  29.072   2.782
33733W        W 6158  23.224  15.765   4.818
33734W        W 6159  28.018   9.189   1.409
33735W        W 6160  38.872   1.358  14.854
33736W        W 6161  33.624  27.167   1.402
33737W        W 6162  40.322  40.338  12.932
33738W        W 6163  15.711  24.152  14.502
33739W        W 6164   0.363  34.936  10.465
33740W        W 6165  23.067  20.585   1.383
33741W        W 6166   1.771  27.002  14.308
33742W        W 6167  12.172  37.515  12.047
33743W        W 6168   3.432  35.569   3.815
33744W        W 6169   5.834  20.525  11.548
33745W        W 6170   4.410   6.326  13.471
33746W        W 6171   4.903  38.871  14.506
33747W        W 6172  11.337  26.530   2.371
33748W        W 6173  40.512   2.945  13.531
33749W        W 6174  21.105  26.575  10.607
33750W        W 6175  13.214   1.971   0.853
33751W        W 6176   2.262   2.241  13.448
33752W        W 6177   2.446   8.831   3.674
33753W        W 6178  33.941  12.277   0.458
33754W        W 6179  25.702  10.250   3.277
33755W        W 6180  25.164  44.010  12.972
33756W        W 6181  13.843  11.181   0.912
33757W        W 6182  25.166  11.853   3.369
33758W        W 6183  27.480  32.895  10.122
33759W        W 6184  25.129  39.049  13.898
33760W        W 6185  33.391  30.548  11.430
33761W        W 6186  14.309  39.341  12.346
33762W        W 6187  39.910  19.246   1.715
33763W        W 6188  42.497  10.255  12.916
33764W        W 6189  36.487  23.994  12.848
33765W        W 6190  34.576   0.251   0.467
33766W        W 6191   7.848  14.601  13.382
33767W        W 6192  27.690  44.758  11.382
33768W        W 6193   0.428  40.516   4.201
33769W        W 6194  13.172  18.761  14.944
33770W        W 6195  23.087  43.375   3.241
33771W        W 6196  37.517   0.326   1.914
33772W        W 6197   2.471  42.837   4.174
33773W        W 6198   7.405  10.721   0.805
33774W        W 6199  30.909  40.493   4.232
33775W        W 6200  17.631  15.148   1.932
33776W        W 6201  32.971  23.710   3.235
33777W        W 6202  13.844  35.477  12.341
33778W        W 6203  10.370   6.922   3.274
33779W        W 6204   0.949  10.328  10.139
33780W        W 6205  40.520  16.631   2.778
33781W        W 6206  11.701   4.771   4.685
33782W        W 6207  31.450  20.550  11.514
33783W        W 6208  19.698  23.141  13.888
33784W        W 6209  11.242  10.213  12.063
33785W        W 6210   8.819  27.455   0.729
33786W        W 6211  15.583  20.071  10.987
33787W        W 6212  27.650  44.330  14.031
33788W        W 6213  19.062  40.314   4.652
33789W        W 6214   2.264  30.656   4.182
33790W        W 6215  31.500  29.107  10.941
33791W        W 6216  35.013  26.177   4.621
33792W        W 6217  20.549   0.927   3.759
33793W        W 6218  32.997  26.083  12.432
33794W        W 6219  41.803   6.885   0.786
33795W        W 6220  28.527   9.674   2.351
33796W        W 6221   8.276  43.879   3.304
33797W        W 6222  36.551  12.354  11.394
33798W        W 6223  40.850  21.573   2.869
33799W        W 6224  11.291  31.051  12.567
33800W        W 6225   5.762  15.802  13.936
33801W        W 6226  35.969  33.075  13.953
33802W        W 6227  33.548  30.081   2.898
33803W        W 6228  38.946  28.474  13.810
33804W        W 6229  16.191  42.410   0.905
33805W        W 6230  12.358   1.323   2.300
33806W        W 6231  29.992   4.337   3.376
33807W        W 6232  33.383   0.918  13.352
33808W        W 6233   2.357  40.968  10.506
33809W        W 6234   0.906   5.815  10.015
33810W        W 6235  28.594   3.857   0.462
33811W        W 6236  26.014   0.354  14.896
33812W        W 6237  29.162   5.702   2.745
33813W        W 6238  23.680   9.707  12.892
33814W        W 6239  33.108  23.074   4.277
33815W        W 6240   0.856  37.410   4.806
33816W        W 6241  28.507  32.416   5.712
33817W        W 6242  19.073  17.221  13.524
33818W        W 6243  33.604  23.230  12.874
33819W        W 6244  20.041  12.795  14.964
33820W        W 6245  10.150  11.836  12.426
33821W        W 6246  35.372  23.223  14.416
33822W        W 6247  42.967   7.383  14.784
33823W        W 6248  29.658  30.635   3.781
33824W        W 6249  24.206   1.969  13.340
33825W        W 6250  33.945  22.652   4.636
33826W        W 6251   4.240  32.478   3.699
33827W        W 6252   1.395   8.226   0.833
33828W        W 6253  34.451  34.573  12.012
33829W        W 6254   1.379  11.355   2.188
33830W        W 6255  29.633  44.772  12.094
33831W        W 6256  20.123   0.377  12.892
33832W        W 6257  44.350  10.851  14.447
33833W        W 6258  44.377  17.561  14.452
33834W        W 6259   9.251  38.058   9.545
33835W        W 6260  35.593  20.031  12.922
33836W        W 6261  41.969  26.192  12.544
33837W        W 6262  18.141  21.043  11.380
33838W        W 6263  38.971  39.931   1.699
33839W        W 6264  38.416  25.677   1.763
33840W        W 6265  13.627  31.085   0.754
33841W        W 6266   0.747  42.811  14.007
33842W        W 6267  26.078  12.319  10.637
33843W        W 6268  13.833  13.115  14.305
33844W        W 6269   3.226  42.919   3.287
33845W        W 6270   6.894  43.413   3.345
33846W        W 6271  16.163   1.343   5.149
33847W        W 6272  21.631  14.205   3.721
33848W        W 6273  39.817  14.744  10.629
33849W        W 6274  22.068  22.115   4.773
33850W        W 6275  30.160  21.131   1.822
33851W        W 6276  19.285  28.103  12.056
33852W        W 6277  36.482  26.684   3.757
33853W        W 6278   1.295  22.106  13.488
33854W        W 6279  37.437  16.811  11.590
33855W        W 6280   2.460  17.561   0.250
33856W        W 6281  44.359  37.905   2.198
33857W        W 6282  38.881   6.219  14.361
33858W        W 6283  24.704  17.227  11.420
33859W        W 6284  37.963   4.231  12.960
33860W        W 6285   4.236  31.013   1.229
33861W        W 6286  22.593  34.499  10.012
33862W        W 6287   5.781   2.279  13.389
33863W        W 6288  43.889  32.983   4.775
33864W        W 6289  18.223  40.527  14.463
33865W        W 6290  40.819  17.728   1.897
33866W        W 6291  26.588   8.828  10.060
33867W        W 6292  42.015  20.522   0.865
33868W        W 6293  36.475   3.214  12.572
33869W        W 6294  38.947  43.364   1.379
33870W        W 6295   1.785  10.368   2.701
33871W        W 6296  30.484  34.934  10.897
33872W        W 6297  30.081  33.947  13.905
33873W        W 6298  40.821  10.193  13.398
33874W        W 6299  40.533  23.145   1.372
33875W        W 6300   8.295   5.899  12.986
33876W        W 6301  33.399  16.243  14.315
33877W        W 6302  24.048  18.733  11.543
33878W        W 6303  14.708  17.254   1.389
33879W        W 6304  30.148  17.794   2.684
33880W        W 6305  27.142  39.521  13.001
33881W        W 6306  44.010  27.009  10.557
33882W        W 6307  16.569   4.732  13.886
33883W        W 6308  12.210   9.294   1.393
33884W        W 6309   4.348  42.836   1.326
33885W        W 6310  42.289  39.331   3.793
33886W        W 6311  20.217   6.295   1.784
33887W        W 6312  12.676   9.718  11.039
33888W        W 6313   4.805  42.307   0.856
33889W        W 6314  15.696  14.823   3.868
33890W        W 6315   6.197  15.098  13.352
33891W        W 6316  11.656  43.273   0.824
33892W        W 6317  42.865   4.918  11.485
33893W        W 6318  34.909   5.868  10.138
33894W        W 6319  13.839   2.337   4.176
33895W        W 6320  37.362  30.982   3.781
33896W        W 6321  28.115  19.604   2.849
33897W        W 6322   0.376  19.713   3.256
33898W        W 6323  15.177  23.176  10.037
33899W        W 6324  20.057  23.012   3.150
33900W        W 6325  13.276  22.167   9.951
33901W        W 6326  20.246   2.772  13.985
33902W        W 6327   2.910  16.292   4.628
33903W        W 6328  13.146  20.240  12.842
33904W        W 6329  43.839   5.404   2.716
33905W        W 6330  31.054  35.417   4.293
33906W        W 6331  15.172  30.052  11.065
33907W        W 6332   5.693  26.022  13.040
33908W        W 6333  44.389  21.116  13.931
33909W        W 6334   2.800  44.944   2.900
33910W        W 6335  43.338  43.430   3.671
33911W        W 6336  19.236  26.603   3.665
33912W        W 6337  17.621  22.232   1.841
33913W        W 6338  41.012  28.554   4.810
33914W        W 6339  37.419  44.391   3.759
33915W        W 6340  15.277  43.849   0.870
33916W        W 6341  15.247  21.586   0.790
33917W        W 6342  42.366  14.742   0.479
33918W        W 6343  28.087  18.742   2.865
33919W        W 6344  39.346  42.321   5.734
33920W        W 6345  32.467  14.632  10.564
33921W        W 6346  27.022  11.298  14.506
33922W        W 6347  15.789  20.083  14.927
33923W        W 6348  42.374  42.342   2.886
33924W        W 6349  28.679   8.889   5.318
33925W        W 6350   5.248   2.750   1.813
33926W        W 6351   8.869  36.563   5.173
33927W        W 6352  24.507  30.127  11.438
33928W        W 6353   3.239  10.802   1.406
33929W        W 6354  17.076  29.638   2.760
33930W        W 6355  25.684  22.654   5.131
33931W        W 6356  18.597  28.075  11.532
33932W        W 6357  14.794  40.407  10.561
33933W        W 6358  20.272   3.229   4.761
33934W        W 6359  15.210  31.904  13.015
33935W        W 6360  39.455  16.660  12.391
33936W        W 6361   4.796  10.809  10.910
33937W        W 6362  17.101  31.955   4.668
33938W        W 6363  27.553   0.283   4.652
33939W        W 6364  23.161  37.999  13.879
33940W        W 6365  18.654   2.367   9.983
33941W        W 6366  43.448  18.692  13.030
33942W        W 6367  30.936  38.396   4.749
33943W        W 6368   6.249  11.829  14.418
33944W        W 6369  40.304   6.921  12.409
33945W        W 6370  12.212  40.866   0.866
33946W        W 6371  42.012  29.439  12.574
33947W        W 6372  27.966  26.175   3.773
33948W        W 6373  14.758  29.630  10.994
33949W        W 6374  23.530  24.107  10.935
33950W        W 6375  11.727  35.583  12.460
33951W        W 6376  12.350   7.909  13.808
33952W        W 6377  14.322  21.178  14.771
33953W        W 6378   3.457  26.610   4.266
33954W        W 6379   3.380  28.577   0.262
33955W        W 6380  40.529  35.081  11.450
33956W        W 6381  22.629  40.872   1.699
33957W        W 6382  28.463   9.869  12.985
33958W        W 6383  31.597   2.879   4.154
33959W        W 6384  19.739  14.132  11.966
33960W        W 6385  12.188  25.038  14.433
33961W        W 6386   1.741   3.234  14.977
33962W        W 6387  37.452  44.486  10.516
33963W        W 6388  34.956  16.098   3.733
33964W        W 6389  41.896  27.083   0.419
33965W        W 6390   4.940  34.384   4.749
33966W        W 6391  26.574  22.152  12.946
33967W        W 6392  16.628  22.170  13.826
33968W        W 6393  40.540  42.316  10.136
33969W        W 6394  41.797  26.056   2.333
33970W        W 6395  38.878  43.836   1.286
33971W        W 6396   5.390  41.298   1.720
33972W        W 6397  38.414  27.481   2.683
33973W        W 6398  14.286  15.644   3.758
33974W        W 6399   6.833  22.046  10.915
33975W        W 6400  25.210  40.315   2.263
33976W        W 6401  25.543   2.862   4.790
33977W        W 6402   0.842   6.228   1.760
33978W        W 6403  41.036  10.188  10.638
33979W        W 6404  34.912  44.774   3.690
33980W        W 6405  12.231  43.422   4.119
33981W        W 6406  39.902  18.570  12.833
33982W        W 6407  37.996  12.641   3.220
33983W        W 6408  12.711  32.046  11.072
33984W        W 6409  35.441   8.311  11.513
33985W        W 6410  35.394  25.712   4.208
33986W        W 6411  43.454  24.558   1.934
33987W        W 6412  15.325  37.077   0.727
33988W        W 6413  31.483  15.715  11.101
33989W        W 6414  31.484  11.719  12.402
33990W        W 6415  41.010  23.182  14.016
33991W        W 6416  37.355  10.339  14.405
33992W        W 6417  30.437  34.898  11.419
33993W        W 6418  20.101   4.354   4.736
33994W        W 6419  21.552  21.569  13.314
33995W        W 6420  20.142   0.260   2.285
33996W        W 6421  37.870  29.129  12.948
33997W        W 6422  42.287  10.145  14.408
33998W        W 6423  27.574  36.043  12.494
33999W        W 6424  42.019  19.168  13.309
34000W        W 6425  25.531  41.472  13.912
34001W        W 6426  26.563  26.493   1.389
34002W        W 6427  40.979  31.643  13.004
34003W        W 6428  11.260  23.544   4.162
34004W        W 6429  27.979  23.611   0.832
34005W        W 6430   1.937  26.619   0.801
34006W        W 6431  11.241  15.590   0.334
34007W        W 6432  36.353  39.908  10.993
34008W        W 6433  39.026  21.214   1.900
34009W        W 6434  37.357  41.977  10.451
34010W        W 6435   4.736  30.436   1.443
34011W        W 6436  24.581  35.598   1.284
34012W        W 6437  16.687  23.206  14.886
34013W        W 6438   3.834   5.283   4.336
34014W        W 6439  25.563  44.292   4.698
34015W        W 6440  28.937   3.310  13.034
34016W        W 6441  24.633   2.843   3.634
34017W        W 6442  38.437  12.733   0.878
34018W        W 6443  16.676  43.374  12.835
34019W        W 6444  11.268   7.882  14.313
34020W        W 6445  18.718   6.331   0.242
34021W        W 6446   6.812  11.720  11.930
34022W        W 6447  41.914  40.396   5.104
34023W        W 6448  11.738  17.178   2.746
34024W        W 6449  38.997  21.747   0.318
34025W        W 6450  35.857  41.336  13.435
34026W        W 6451  34.866  17.195   4.288
34027W        W 6452  14.311  12.692  10.917
34028W        W 6453  29.489   8.715   4.743
34029W        W 6454  28.017  11.716  13.533
34030W        W 6455  38.055  28.122   4.706
34031W        W 6456  30.066  18.264  10.056
34032W        W 6457   4.828  32.121   2.299
34033W        W 6458  14.616  38.862  13.036
34034W        W 6459  39.991  31.614  13.455
34035W        W 6460  32.600  37.523  12.456
34036W        W 6461  42.811  26.537   1.818
34037W        W 6462  28.565  17.256   2.334
34038W        W 6463  40.024   6.875   3.640
34039W        W 6464  35.539   1.807  13.456
34040W        W 6465  11.752  13.655   4.329
34041W        W 6466  24.599  31.099  14.916
34042W        W 6467  27.618  44.304   1.826
34043W        W 6468  33.925   3.767  12.507
34044W        W 6469  42.848   8.710   3.809
34045W        W 6470  22.028  43.797   2.693
34046W        W 6471  32.411  32.457  10.616
34047W        W 6472  10.772  20.233   1.925
34048W        W 6473   4.892  16.203  11.124
34049W        W 6474   1.735  39.394  14.959
34050W        W 6475  31.126   8.296   0.303
34051W        W 6476  24.548  19.062  11.557
34052W        W 6477  12.302   4.700   2.325
34053W        W 6478  44.341  40.520  13.954
34054W        W 6479   7.342  22.626   3.865
34055W        W 6480  25.033  28.010  11.069
34056W        W 6481  26.491  27.946   2.222
34057W        W 6482  25.534   0.774   1.251
34058W        W 6483  10.760  15.280  12.424
34059W        W 6484  19.195  27.085  12.940
34060W        W 6485  43.889  22.008  13.908
34061W        W 6486  44.298   9.313   0.909
34062W        W 6487  36.377   6.415  11.528
34063W        W 6488   8.331  16.162   1.762
34064W        W 6489  26.021  25.970   0.964
34065W        W 6490  27.451  16.616  14.450
34066W        W 6491  43.490  34.383  10.436
34067W        W 6492  38.049  42.842   0.770
34068W        W 6493  13.301  23.011   4.756
34069W        W 6494  43.835  24.505  14.430
34070W        W 6495  30.007  28.622  13.967
34071W        W 6496  19.666  39.352  12.387
34072W        W 6497  15.646  44.384   4.618
34073W        W 6498  42.355   1.976  12.439
34074W        W 6499  27.027   7.268   2.866
34075W        W 6500  19.046  10.172   4.810
34076W        W 6501  18.296  16.792  14.780
34077W        W 6502  30.469  42.973   1.819
34078W        W 6503   6.849  22.089   3.185
34079W        W 6504  27.099  24.713  14.849
34080W        W 6505  40.399   1.761   1.844
34081W        W 6506  25.644  27.665   2.353
34082W        W 6507   2.460  35.864   4.315
34083W        W 6508  12.350  10.644  12.988
34084W        W 6509   4.385   6.393  11.480
34085W        W 6510  25.127  13.709   1.796
34086W        W 6511   8.388   2.361  13.838
34087W        W 6512  44.318  28.514  13.852
34088W        W 6513  43.397  31.451   1.850
34089W        W 6514   8.168   2.308   2.306
34090W        W 6515  13.811  10.666   2.848
34091W        W 6516  10.220  14.256  11.987
34092W        W 6517   8.689  21.561   1.226
34093W        W 6518  23.696   1.392   1.303
34094W        W 6519  35.935  29.112  12.995
34095W        W 6520  35.375  23.736  12.360
34096W        W 6521  38.850  21.109   0.836
34097W        W 6522  29.447  36.362  11.419
34098W        W 6523  18.282   7.225  10.403
34099W        W 6524  39.513   2.869  11.099
34100W        W 6525  43.443  27.109   0.731
34101W        W 6526  20.123  14.748   0.385
34102W        W 6527  12.348   1.437   0.865
34103W        W 6528  39.899  12.247   0.943
34104W        W 6529  36.463  26.037  13.445
34105W        W 6530  12.676  29.531   4.129
34106W        W 6531  41.902   2.880  11.434
34107W        W 6532  30.650  15.122   1.404
34108W        W 6533  19.128  42.925  14.952
34109W        W 6534  29.998  10.861  14.842
34110W        W 6535  38.459   1.290   4.186
34111W        W 6536  20.567  15.775  12.043
34112W        W 6537  21.624  25.178   4.241
34113W        W 6538  21.569  14.664  13.892
34114W        W 6539   8.899  43.397  11.511
34115W        W 6540  30.555  29.920   1.392
34116W        W 6541   3.796  19.253  10.608
34117W        W 6542  36.402  44.764   1.262
34118W        W 6543  24.179  10.369   0.411
34119W        W 6544  42.444   9.706  11.900
34120W        W 6545  37.860   3.422   0.419
34121W        W 6546  44.477  39.530   4.664
34122W        W 6547  42.027  22.728  11.442
34123W        W 6548  16.582  17.727   4.297
34124W        W 6549  14.640  30.915   3.737
34125W        W 6550  16.805   7.224  13.341
34126W        W 6551  40.519  12.164   2.664
34127W        W 6552  14.823   4.228  10.590
34128W        W 6553  11.841  36.502   0.767
34129W        W 6554  43.504  24.636  10.469
34130W        W 6555  44.488  12.833  11.576
34131W        W 6556  11.130  41.949   2.868
34132W        W 6557  34.410  15.725  13.497
34133W        W 6558  17.250  25.000   1.408
34134W        W 6559  25.654  27.075   1.375
34135W        W 6560  13.725  22.080  12.451
34136W        W 6561  16.590  18.283  10.615
34137W        W 6562  18.256   0.288  10.458
34138W        W 6563  26.489  31.565  11.067
34139W        W 6564  37.939  34.470   1.891
34140W        W 6565  15.167  32.597   3.319
34141W        W 6566  41.846  34.116  14.793
34142W        W 6567  20.583  23.240  11.055
34143W        W 6568  38.533  31.009  11.872
34144W        W 6569  20.557  39.384   3.181
34145W        W 6570  17.619  39.859  13.366
34146W        W 6571  39.008  32.046  10.088
34147W        W 6572  18.633  29.604  14.510
34148W        W 6573  30.943  12.823   2.825
34149W        W 6574  29.937  27.023  10.488
34150W        W 6575  16.665   1.750   2.396
34151W        W 6576   0.305  22.033  14.453
34152W        W 6577   8.316   0.477  12.864
34153W        W 6578   7.263  36.873  11.561
34154W        W 6579   8.314  18.161  13.827
34155W        W 6580  43.010  32.440   0.766
34156W        W 6581  18.565  36.431   2.794
34157W        W 6582  40.494  19.203   1.836
34158W        W 6583  30.156   1.330  14.790
34159W        W 6584  42.347  28.498  12.572
34160W        W 6585  35.544  25.015  12.494
34161W        W 6586  14.631   9.752  12.986
34162W        W 6587  31.623   9.341   2.264
34163W        W 6588  35.582   4.422   4.825
34164W        W 6589  36.973  41.002   3.324
34165W        W 6590  19.254  38.906  14.512
34166W        W 6591  20.123  30.621   1.789
34167W        W 6592   5.725  31.639  12.510
34168W        W 6593  12.223  42.010  14.858
34169W        W 6594  17.290   1.377  14.415
34170W        W 6595  12.343  24.216  14.358
34171W        W 6596  32.018  23.599  14.803
34172W        W 6597  28.081  29.140   1.772
34173W        W 6598  13.107  27.051  11.444
34174W        W 6599  24.498  15.161  10.922
34175W        W 6600   9.787  10.281   2.669
34176W        W 6601  27.526  22.048   3.768
34177W        W 6602  44.419  30.491   4.599
34178W        W 6603  11.777  33.011   2.261
34179W        W 6604  32.424   8.737   4.603
34180W        W 6605  15.709  25.636   1.876
34181W        W 6606  42.305  23.208   0.414
34182W        W 6607   0.775  16.712   3.192
34183W        W 6608  34.543  42.944   1.789
34184W        W 6609  10.802  17.161  13.446
34185W        W 6610  43.823  29.158   1.760
34186W        W 6611   7.390  12.723  14.964
34187W        W 6612  20.701   4.425  13.457
34188W        W 6613   6.363  15.668   3.354
34189W        W 6614  41.495  25.621  12.468
34190W        W 6615   5.801  39.327  10.411
34191W        W 6616   3.955  44.802  13.394
34192W        W 6617  12.699  44.287   1.737
34193W        W 6618   1.877  25.691   2.302
34194W        W 6619  12.220  43.991   3.814
34195W        W 6620  37.490   1.737  10.977
34196W        W 6621   2.271  14.724  10.416
34197W        W 6622   4.297  34.613   1.759
34198W        W 6623  15.270  40.451   0.424
34199W        W 6624  36.995  10.148   3.670
34200W        W 6625  25.553  20.749  12.860
34201W        W 6626  31.604   8.792  10.056
34202W        W 6627  17.653  33.607   2.845
34203W        W 6628  29.504  10.363  11.558
34204W        W 6629  13.815  25.689   1.706
34205W        W 6630  44.886   6.228   0.738
34206W        W 6631  36.041  36.579  10.617
34207W        W 6632  14.094  13.288   1.911
34208W        W 6633  24.618  16.157   1.922
34209W        W 6634   9.211  39.008   4.715
34210W        W 6635  30.470  26.567  10.975
34211W        W 6636  22.210  20.753  14.489
34212W        W 6637  24.973  40.052   4.222
34213W        W 6638  21.604  35.104  11.913
34214W        W 6639  19.259  24.176   2.752
34215W        W 6640   2.449   6.230  14.897
34216W        W 6641   7.710  39.413   1.360
34217W        W 6642   6.803   6.857  11.551
34218W        W 6643  19.198  17.063   2.237
34219W        W 6644  41.811  38.430  10.486
34220W        W 6645  41.934  44.414   4.830
34221W        W 6646  30.613  20.645  12.442
34222W        W 6647  31.455  28.171  10.949
34223W        W 6648  21.152  37.549   3.332
34224W        W 6649   6.787  16.798  12.556
34225W        W 6650  24.552  37.086   2.379
34226W        W 6651  14.716  37.404   1.870
34227W        W 6652  17.707  29.990   5.207
34228W        W 6653  44.807  20.731  13.884
34229W        W 6654  32.394  42.968  11.058
34230W        W 6655  37.063  14.302  11.508
34231W        W 6656  20.583  32.590  11.912
34232W        W 6657  43.985  43.841  13.002
34233W        W 6658  21.529  23.186  14.348
34234W        W 6659  12.840  42.508  14.490
34235W        W 6660   6.733   1.412   3.286
34236W        W 6661  44.901  41.937  14.297
34237W        W 6662  30.597  31.494   4.689
34238W        W 6663  41.437  27.175  14.497
34239W        W 6664  42.984   2.902   4.330
34240W        W 6665  32.537  36.980  11.014
34241W        W 6666   2.318   0.785  10.908
34242W        W 6667  35.592  20.641  11.514
34243W        W 6668  30.992  25.051  11.904
34244W        W 6669  42.964  26.017  14.490
34245W        W 6670  19.117  19.076  11.037
34246W        W 6671  15.649  27.647  13.964
34247W        W 6672  18.114  39.870  13.884
34248W        W 6673  44.963  25.172   3.866
34249W        W 6674  24.008   6.184   9.920
34250W        W 6675  25.583  21.080  11.531
34251W        W 6676   9.837  27.669   1.797
34252W        W 6677  33.608  40.526   2.804
34253W        W 6678  26.114  32.514   0.306
34254W        W 6679  22.513   9.677  13.813
34255W        W 6680  34.444  25.704   0.874
34256W        W 6681  32.420   9.309   1.935
34257W        W 6682  29.463  23.036   2.364
34258W        W 6683   6.810  33.963   1.756
34259W        W 6684   1.257  40.473  11.494
34260W        W 6685  36.480  21.680  10.605
34261W        W 6686  37.891  13.831   1.387
34262W        W 6687  39.997   3.405  12.878
34263W        W 6688  13.317   5.219   1.372
34264W        W 6689  18.112  21.576   1.917
34265W        W 6690  14.648  14.681   0.875
34266W        W 6691   6.296  26.188  13.506
34267W        W 6692  37.505  12.139  11.959
34268W        W 6693  30.123   9.200   3.713
34269W        W 6694  17.677   0.905  14.283
34270W        W 6695  10.337  11.723  14.927
34271W        W 6696  17.167  19.250  14.904
34272W        W 6697  13.750  27.119   4.640
34273W        W 6698   3.907  17.777  11.986
34274W        W 6699  19.189  32.116  13.443
34275W        W 6700   1.461  31.996  12.096
34276W        W 6701  23.133   4.868   2.864
34277W        W 6702  23.542  18.290   1.703
34278W        W 6703  43.473   4.282  11.581
34279W        W 6704  15.133  36.397   4.808
34280W        W 6705   1.472  26.117  12.064
34281W        W 6706  17.154  17.158  11.945
34282W        W 6707  24.621  11.274  12.077
34283W        W 6708  42.993   5.194  12.516
34284W        W 6709  32.089  43.924   0.385
34285W        W 6710  16.227  17.239  12.095
34286W        W 6711   9.857   3.775  11.474
34287W        W 6712   6.280  23.490  12.358
34288W        W 6713   0.482  41.536  11.414
34289W        W 6714   6.344  44.373   1.802
34290W        W 6715  11.246  11.292  13.373
34291W        W 6716  26.956   6.362  14.972
34292W        W 6717  40.491  26.122  11.412
34293W        W 6718  41.293  26.638   5.125
34294W        W 6719  23.496  23.016   3.159
34295W        W 6720  31.042  21.025  10.601
34296W        W 6721  16.200  18.665   1.256
34297W        W 6722   5.700   9.783   1.706
34298W        W 6723  32.506  43.785   1.402
34299W        W 6724  39.408   1.403   0.816
34300W        W 6725  25.111  36.903  11.549
34301W        W 6726   9.259  40.935  14.466
34302W        W 6727  33.043   3.270  11.092
34303W        W 6728  26.106  10.311  14.934
34304W        W 6729  22.227   2.954  12.512
34305W        W 6730  44.966   4.735  14.287
34306W        W 6731   9.670  25.549   2.245
34307W        W 6732  34.571  36.897   2.769
34308W        W 6733   3.876   9.855   3.745
34309W        W 6734   6.367  30.009   4.619
34310W        W 6735  43.300  27.603  14.421
34311W        W 6736   3.821   8.864   3.762
34312W        W 6737  32.951  13.237  10.915
34313W        W 6738  18.720  24.063   5.154
34314W        W 6739  12.731  30.484   1.445
34315W        W 6740  34.893  26.470   3.149
34316W        W 6741  38.857   7.252  11.504
34317W        W 6742  23.557   3.773  13.886
34318W        W 6743  32.887  38.552  11.604
34319W        W 6744  23.095  24.641  14.393
34320W        W 6745  40.962   0.364   3.214
34321W        W 6746  14.721  22.573   3.645
34322W        W 6747  30.011  37.839   2.755
34323W        W 6748  40.830  15.085  13.902
34324W        W 6749  24.654  21.191   1.908
34325W        W 6750   1.734   6.777  10.444
34326W        W 6751  33.889  43.908  10.600
34327W        W 6752  28.588  11.713   2.704
34328W        W 6753  30.539  14.734   0.384
34329W        W 6754   8.218  13.185   0.472
34330W        W 6755   9.865  15.171   1.372
34331W        W 6756  21.143   9.303  10.124
34332W        W 6757  20.566  11.264   2.182
34333W        W 6758  17.622  10.331  14.762
34334W        W 6759   6.217  14.762  11.875
34335W        W 6760  43.318   1.857  13.496
34336W        W 6761  31.422  10.196   4.128
34337W        W 6762  31.494  12.805  12.563
34338W        W 6763  40.953  23.998   0.942
34339W        W 6764  42.012  41.303  12.941
34340W        W 6765   2.428   3.856   4.617
34341W        W 6766  28.991  24.187   3.851
34342W        W 6767   5.784  41.895  13.967
34343W        W 6768   9.812  44.997   1.425
34344W        W 6769  21.088   3.279   4.686
34345W        W 6770  20.250  40.830   4.624
34346W        W 6771   7.872  27.028  10.559
34347W        W 6772  14.136  24.193  10.952
34348W        W 6773  12.762  14.206  12.019
34349W        W 6774  16.287   9.837   3.241
34350W        W 6775   7.333  41.436  14.822
34351W        W 6776  10.197   3.840   0.462
34352W        W 6777  28.172  12.248   0.758
34353W        W 6778   5.241  32.016  10.623
34354W        W 6779  38.869   3.358  11.884
34355W        W 6780  26.022  10.272   0.835
34356W        W 6781   2.315  21.517   2.208
34357W        W 6782  35.044  37.344   0.430
34358W        W 6783  30.498  18.260  14.918
34359W        W 6784  19.736   5.881   4.279
34360W        W 6785  11.669  29.120   0.962
34361W        W 6786  28.939  22.073  13.058
34362W        W 6787   4.300  38.357   3.735
34363W        W 6788  21.162  21.632   0.913
34364W        W 6789   8.857  11.835   2.244
34365W        W 6790  18.781  31.903  12.825
34366W        W 6791  32.951  36.533   0.353
34367W        W 6792   8.837  31.992   3.330
34368W        W 6793  35.458  19.676  11.916
34369W        W 6794  36.875  35.067   4.818
34370W        W 6795   3.840   0.895   3.650
34371W        W 6796  27.477  14.260  10.597
34372W        W 6797  43.841  20.647   3.797
34373W        W 6798  13.105  18.640  13.044
34374W        W 6799   3.729  34.482   3.345
34375W        W 6800  14.679   3.830  12.965
34376W        W 6801  27.485   9.331   4.165
34377W        W 6802  16.571  35.032  11.429
34378W        W 6803  37.449  29.442   1.862
34379W        W 6804  29.477  26.116  14.331
34380W        W 6805  10.190   7.247   1.734
34381W        W 6806  23.666  27.166  12.387
34382W        W 6807  31.923  28.162  13.002
34383W        W 6808  13.161  37.350  10.628
34384W        W 6809  42.858   9.328  10.962
34385W        W 6810  28.057  40.323   3.180
34386W        W 6811  29.971   6.423  12.037
34387W        W 6812   4.237  25.077  14.958
34388W        W 6813  26.122  17.587  13.838
34389W        W 6814  23.210   8.701   2.187
34390W        W 6815  31.068  41.986   4.664
34391W        W 6816   4.283  32.999  10.444
34392W        W 6817   2.937   5.693   4.641
34393W        W 6818  42.779   1.248  14.464
34394W        W 6819  32.443  32.088  13.012
34395W        W 6820  40.905  34.879  11.986
34396W        W 6821  26.606  20.133  12.983
34397W        W 6822  23.229   4.437  13.961
34398W        W 6823  32.993  21.523  13.361
34399W        W 6824  21.256  37.397  13.842
34400W        W 6825  27.499  26.006   3.799
34401W        W 6826  22.242  31.024  11.869
34402W        W 6827  22.663  23.510  12.544
34403W        W 6828  37.489  16.119  14.275
34404W        W 6829  25.527  42.380  11.511
34405W        W 6830  29.575  10.672  14.396
34406W        W 6831  10.716   2.880   2.743
34407W        W 6832   6.301   3.936  14.860
34408W        W 6833  18.177  20.559   3.317
34409W        W 6834   6.298  10.161  11.575
34410W        W 6835  38.537  37.436   2.300
34411W        W 6836   8.292  11.855   3.365
34412W        W 6837   9.766   3.240   0.963
34413W        W 6838  35.404  32.493   0.467
34414W        W 6839  30.496  10.311   4.653
34415W        W 6840   0.943  38.992  11.053
34416W        W 6841  21.119   8.749   0.918
34417W        W 6842   1.340   5.867   4.643
34418W        W 6843  40.356  37.063   4.251
34419W        W 6844  43.932  14.698   0.755
34420W        W 6845  39.359   4.839   2.225
34421W        W 6846   4.750  40.924   9.971
34422W        W 6847   7.871   0.840  11.968
34423W        W 6848   1.911  31.924   4.712
34424W        W 6849  26.503  38.072  14.407
34425W        W 6850  28.932  40.931  13.887
34426W        W 6851   6.802  30.654   3.708
34427W        W 6852   2.771  21.134  10.099
34428W        W 6853  35.014  43.792  14.915
34429W        W 6854  31.980  24.091   3.726
34430W        W 6855  28.175  25.141   5.187
34431W        W 6856   9.330  19.698  13.900
34432W        W 6857   9.391   3.406  13.041
34433W        W 6858  29.464  18.134  14.463
34434W        W 6859  14.644  38.974  14.811
34435W        W 6860  32.472  33.399  10.504
34436W        W 6861  44.423   2.887  14.325
34437W        W 6862  27.658  18.662  14.279
34438W        W 6863  24.121   8.679  12.418
34439W        W 6864  42.908   6.802   2.776
34440W        W 6865  34.530   3.264  12.551
34441W        W 6866  32.001   7.822  10.428
34442W        W 6867  39.911  12.152   4.816
34443W        W 6868   1.352  28.000   3.152
34444W        W 6869   3.893  31.907  12.427
34445W        W 6870  26.487   0.417   0.337
34446W        W 6871   8.311  17.697   2.729
34447W        W 6872   7.247  11.622  10.566
34448W        W 6873  42.469  42.985   4.764
34449W        W 6874  21.729  29.597  14.814
34450W        W 6875  27.516  30.158   1.934
34451W        W 6876  35.065  16.115   4.818
34452W        W 6877  21.573   6.371   4.665
34453W        W 6878  22.247  21.146  10.604
34454W        W 6879  35.600  38.848   0.847
34455W        W 6880   6.916  19.598  14.770
34456W        W 6881  32.557  11.755   2.230
34457W        W 6882  35.446  36.421   4.612
34458W        W 6883  28.505  16.239   1.252
34459W        W 6884   6.736  21.714   1.825
34460W        W 6885  13.721  27.135  14.460
34461W        W 6886  26.996  35.494  13.045
34462W        W 6887  25.474  39.424  14.932
34463W        W 6888  16.119  29.579   4.730
34464W        W 6889  28.167  24.683   0.432
34465W        W 6890  33.410  37.352   5.210
34466W        W 6891  38.433  40.800   2.874
34467W        W 6892  22.660  42.486  10.970
34468W        W 6893  38.478  24.977  11.075
34469W        W 6894  21.148   8.711   3.689
34470W        W 6895   3.932  29.971  12.848
34471W        W 6896   5.331  38.997   2.233
34472W        W 6897   9.729   4.889  12.483
34473W        W 6898  16.082   2.749   3.334
34474W        W 6899  30.093  22.544  10.529
34475W        W 6900   4.759   4.208   0.326
34476W        W 6901   8.268  38.370  11.524
34477W        W 6902  30.465  18.749  10.520
34478W        W 6903   2.312  14.221   1.867
34479W        W 6904  19.267  13.824   2.821
34480W        W 6905  32.133  33.920  12.900
34481W        W 6906  25.033  41.856  13.387
34482W        W 6907   1.737  15.613   4.838
34483W        W 6908  33.112  15.291   2.839
34484W        W 6909  37.023   1.833   0.359
34485W        W 6910  13.722  40.895   2.225
34486W        W 6911  28.670  26.182   0.307
34487W        W 6912  24.554  24.108  12.906
34488W        W 6913   9.155  22.203   4.710
34489W        W 6914   4.227  36.073  11.062
34490W        W 6915   7.220  23.611   1.298
34491W        W 6916  13.749  13.312   0.325
34492W        W 6917  39.033   4.331  13.055
34493W        W 6918  44.913   5.281   1.372
34494W        W 6919  24.595  27.485  12.980
34495W        W 6920  40.472  16.126  10.592
34496W        W 6921  15.191  31.535  12.848
34497W        W 6922  43.383  37.337  14.933
34498W        W 6923  11.650  12.201   0.360
34499W        W 6924   3.373  14.806   3.751
34500W        W 6925  30.627  29.933   1.795
34501W        W 6926  19.118  20.155   1.896
34502W        W 6927  36.544  33.912   1.722
34503W        W 6928  32.083  27.013  14.962
34504W        W 6929  21.588  13.166  14.316
34505W        W 6930  40.867   8.725  13.984
34506W        W 6931  11.709  25.673  12.506
34507W        W 6932   7.299  15.250  12.927
34508W        W 6933  27.537  10.291   1.934
34509W        W 6934  31.589  30.479   1.827
34510W        W 6935   4.886  19.702   4.235
34511W        W 6936  27.003   5.912   0.829
34512W        W 6937   5.800  21.124   9.966
34513W        W 6938  14.326  35.552  12.923
34514W        W 6939  23.221  33.589   4.698
34515W        W 6940   0.399   6.326   4.160
34516W        W 6941  10.358   8.826   1.356
34517W        W 6942  32.004  30.021  14.836
34518W        W 6943  15.281  37.553   1.710
34519W        W 6944  22.058  14.668   3.345
34520W        W 6945   9.810  38.434  11.465
34521W        W 6946  32.026  31.500   4.799
34522W        W 6947  13.167  36.380  14.363
34523W        W 6948   1.339  41.890  12.858
34524W        W 6949  18.289   7.216  11.556
34525W        W 6950   3.739  11.863  12.984
34526W        W 6951  20.701  15.193  11.414
34527W        W 6952  27.472  10.645  13.328
34528W        W 6953  29.603  13.190  13.319
34529W        W 6954  20.081  35.484  10.612
34530W        W 6955  38.013  11.286  13.415
34531W        W 6956  40.505  17.298  13.400
34532W        W 6957  44.784  29.539  13.529
34533W        W 6958   8.405  43.936  12.866
34534W        W 6959   2.290  22.995   2.791
34535W        W 6960  31.922  43.386  11.092
34536W        W 6961   5.788  28.959   1.894
34537W        W 6962   6.340  39.913   1.812
34538W        W 6963  42.865   3.794  10.425
34539W        W 6964  38.519   5.380   2.249
34540W        W 6965  23.578   4.355   2.234
34541W        W 6966  40.036  44.361   3.796
34542W        W 6967  40.422  18.652  12.866
34543W        W 6968   7.764   4.220  14.479
34544W        W 6969  19.122   0.766  12.522
34545W        W 6970  42.873   2.394  10.445
34546W        W 6971   9.282  12.793   4.335
34547W        W 6972  28.625  29.029  13.458
34548W        W 6973  29.515  37.381  10.036
34549W        W 6974   6.758  40.487   0.479
34550W        W 6975  43.851  17.143  10.940
34551W        W 6976  20.156  18.202   1.873
34552W        W 6977  24.164  11.645  14.881
34553W        W 6978   6.898  40.966  13.041
34554W        W 6979  37.000  25.201  11.904
34555W        W 6980   5.418   8.765   4.149
34556W        W 6981  23.511  33.395   0.324
34557W        W 6982  13.673  33.986  14.984
34558W        W 6983  10.676  41.457  12.885
34559W        W 6984  25.605  40.881  11.458
34560W        W 6985  13.685   7.411  11.489
34561W        W 6986  25.141   7.683  10.630
34562W        W 6987  44.782  22.628  10.983
34563W        W 6988  26.982  44.923   1.410
34564W        W 6989   0.832  29.534  11.017
34565W        W 6990  34.884  37.487   3.232
34566W        W 6991  44.338   3.251   2.350
34567W        W 6992  32.630  43.906   3.830
34568W        W 6993   3.431  34.019  11.053
34569W        W 6994  14.701  39.017   0.256
34570W        W 6995  29.598  31.036   4.683
34571W        W 6996   9.303  38.854  14.861
34572W        W 6997   5.421  32.900   4.820
34573W        W 6998  24.665   8.161  13.507
34574W        W 6999  27.055  29.050  13.882
34575W        W 7000  15.817  29.929   4.342
34576W        W 7001  35.434  44.895   3.178
34577W        W 7002  13.307   0.863  13.308
34578W        W 7003  11.283   7.396  13.353
34579W        W 7004   9.798  27.533  13.811
34580W        W 7005  29.017  32.076   2.768
34581W        W 7006   4.904  11.330   3.352
34582W        W 7007  42.328  26.464   4.285
34583W        W 7008  14.776   9.749   1.705
34584W        W 7009  27.641  33.885  11.102
34585W        W 7010  30.619  32.015  10.589
34586W        W 7011  21.226  42.521  12.493
34587W        W 7012  31.451   0.785  13.457
34588W        W 7013  42.975  39.440  13.042
34589W        W 7014  31.045  22.698  10.588
34590W        W 7015  40.382  33.615  12.902
34591W        W 7016  31.574  27.115  10.456
34592W        W 7017  32.437  34.956   1.800
34593W        W 7018  17.252  25.001  12.486
34594W        W 7019   4.214  31.989   2.395
34595W        W 7020  19.598  14.723  14.768
34596W        W 7021  31.028  41.319   1.246
34597W        W 7022  14.111  26.037  12.884
34598W        W 7023  29.099  15.683   4.818
34599W        W 7024  39.877  42.333  14.814
34600W        W 7025   1.388   6.323  11.513
34601W        W 7026  30.031  41.848   0.895
34602W        W 7027  13.207  11.652  11.509
34603W        W 7028  44.492  31.902  10.542
34604W        W 7029  18.227  29.045  11.879
34605W        W 7030   1.893   1.886  11.118
34606W        W 7031   5.437   8.274   3.789
34607W        W 7032   5.715  11.193   2.828
34608W        W 7033  32.005  15.143   0.452
34609W        W 7034  10.873  43.395   0.431
34610W        W 7035  13.115  35.484   2.362
34611W        W 7036  19.571  17.783  14.810
34612W        W 7037  18.601  29.619   2.700
34613W        W 7038   3.868   7.224   4.620
34614W        W 7039  13.718  40.054  13.973
34615W        W 7040   7.261   7.869   1.773
34616W        W 7041  31.062  41.392  13.056
34617W        W 7042  33.487  31.907  12.921
34618W        W 7043  39.859  18.074   0.913
34619W        W 7044   8.184   0.443  11.420
34620W        W 7045  16.644   2.279   2.713
34621W        W 7046  40.321   9.358  12.413
34622W        W 7047  21.147  38.057   2.752
34623W        W 7048  20.054  12.247  12.074
34624W        W 7049  39.857  14.592   2.267
34625W        W 7050  15.626  11.181   1.878
34626W        W 7051  27.145   7.213   3.864
34627W        W 7052  12.707   1.435  13.398
34628W        W 7053  27.542  29.436  13.448
34629W        W 7054   5.724  15.126  14.305
34630W        W 7055  27.481   1.838   1.868
34631W        W 7056  31.935  35.383  12.418
34632W        W 7057   4.408  12.768   1.429
34633W        W 7058  16.598   0.302  12.434
34634W        W 7059  44.813  42.792   2.275
34635W        W 7060  29.615  29.053   1.282
34636W        W 7061  43.861  20.118  11.935
34637W        W 7062  23.055  10.665   0.290
34638W        W 7063   3.316  19.684   0.827
34639W        W 7064  16.122  10.729   4.839
34640W        W 7065  30.984  11.661  13.964
34641W        W 7066  30.046  12.717   2.401
34642W        W 7067  34.972  23.155  12.426
34643W        W 7068   3.320  26.522   2.862
34644W        W 7069  35.528   1.813   3.679
34645W        W 7070  30.118  22.220  13.364
34646W        W 7071  15.607  18.625  12.413
34647W        W 7072   1.353  24.059  11.520
34648W        W 7073  33.007  19.109  14.954
34649W        W 7074   8.843  19.227  11.056
34650W        W 7075  20.672  26.657   1.902
34651W        W 7076  21.709  38.911   1.775
34652W        W 7077  25.570  23.501  14.020
34653W        W 7078   8.803  18.639  14.837
34654W        W 7079  38.899  40.990  12.842
34655W        W 7080   5.773  37.439   2.874
34656W        W 7081  26.536  26.659  13.867
34657W        W 7082  30.985  18.255   5.226
34658W        W 7083   0.311  14.589   4.802
34659W        W 7084  44.423  12.310   1.839
34660W        W 7085  44.837  29.018  10.484
34661W        W 7086  36.985   3.891   3.274
34662W        W 7087  30.413  44.942  11.565
34663W        W 7088  36.945   3.812   2.252
34664W        W 7089  23.638  21.060  13.843
34665W        W 7090  33.079  11.233  14.417
34666W        W 7091  29.155  20.649   2.719
34667W        W 7092  16.312   7.682   3.352
34668W        W 7093  14.651  31.896   0.771
34669W        W 7094  41.802  28.948   2.712
34670W        W 7095  18.193  23.046  12.382
34671W        W 7096  15.775  36.033  11.377
34672W        W 7097  35.923  22.733   4.647
34673W        W 7098  33.575  28.105   1.362
34674W        W 7099   6.810  11.187   1.757
34675W        W 7100  23.076  35.954   4.625
34676W        W 7101   0.957   3.929   0.463
34677W        W 7102   3.862  42.881  12.963
34678W        W 7103  28.475  34.902  13.037
34679W        W 7104  43.473  18.615  13.850
34680W        W 7105   5.728  35.561   1.789
34681W        W 7106  38.876  13.266   4.193
34682W        W 7107  38.968  29.492  10.976
34683W        W 7108  22.697   4.233  14.332
34684W        W 7109   0.448  28.558  14.806
34685W        W 7110   9.374  23.234  13.442
34686W        W 7111  26.042   2.385  12.932
34687W        W 7112  19.258  21.114   1.777
34688W        W 7113   3.832   9.660  10.589
34689W        W 7114  37.950  13.246   0.924
34690W        W 7115  26.076   7.187   4.113
34691W        W 7116  19.078  23.536  13.916
34692W        W 7117  27.147  15.185  14.795
34693W        W 7118  21.101  37.448  13.341
34694W        W 7119   5.710   6.886  11.938
34695W        W 7120  41.977  21.174   3.274
34696W        W 7121  39.330  19.116   2.671
34697W        W 7122   5.338  39.356   2.710
34698W        W 7123   5.888  20.540   2.262
34699W        W 7124  18.695  40.867   1.861
34700W        W 7125  43.308  19.776  10.453
34701W        W 7126   9.667  32.579   2.792
34702W        W 7127  34.993  27.035   1.701
34703W        W 7128  35.560  22.593   3.176
34704W        W 7129  17.079  29.020  13.935
34705W        W 7130  19.562  25.970  12.023
34706W        W 7131  23.690  24.689  12.442
34707W        W 7132   7.744   1.832   0.907
34708W        W 7133  17.171  17.220  12.390
34709W        W 7134  18.738  41.933  14.419
34710W        W 7135  26.558  17.216  14.296
34711W        W 7136   9.794   5.213   0.475
34712W        W 7137  15.163   8.380   4.725
34713W        W 7138  36.075  27.466   4.155
34714W        W 7139  19.720   6.919  13.334
34715W        W 7140  17.647   9.272   4.784
34716W        W 7141   1.952   5.830   0.425
34717W        W 7142   8.207  28.444  14.335
34718W        W 7143  42.511  24.526   0.386
34719W        W 7144   2.308  37.012   2.229
34720W        W 7145  28.136   2.294  10.603
34721W        W 7146  41.344  22.649   0.771
34722W        W 7147  32.920  41.002  13.446
34723W        W 7148   1.735  34.520   2.857
34724W        W 7149  33.402  12.219  13.922
34725W        W 7150  10.233  20.241   1.237
34726W        W 7151   0.327  22.725   1.733
34727W        W 7152   2.805  18.647  11.107
34728W        W 7153  36.476  29.111   3.714
34729W        W 7154  15.579  25.216   2.898
34730W        W 7155  42.348  28.962   3.179
34731W        W 7156  23.060  17.625  10.980
34732W        W 7157  32.006  39.832  10.437
34733W        W 7158  22.710   7.788  11.019
34734W        W 7159   9.741  34.056  14.840
34735W        W 7160  17.078  26.691   3.273
34736W        W 7161  18.615  23.106   2.292
34737W        W 7162  42.498   3.245   2.845
34738W        W 7163  27.663  21.166  13.997
34739W        W 7164  41.325  37.980   2.790
34740W        W 7165  36.480  44.324  14.981
34741W        W 7166  16.224  12.800   2.738
34742W        W 7167  30.444  24.537  10.487
34743W        W 7168  35.970  23.166  10.431
34744W        W 7169  36.030  33.079  14.364
34745W        W 7170   7.790  31.115   4.313
34746W        W 7171  27.092  20.564   3.741
34747W        W 7172  27.021  38.415   4.213
34748W        W 7173  22.094  36.910   1.347
34749W        W 7174  37.910  31.125  10.442
34750W        W 7175   2.340   3.432  14.781
34751W        W 7176  34.549  40.391  14.778
34752W        W 7177   0.856  28.605   4.145
34753W        W 7178  15.185  20.258  11.905
34754W        W 7179  22.229  28.517  11.971
34755W        W 7180  41.414  18.736  14.381
34756W        W 7181  13.347   1.480   0.919
34757W        W 7182  40.391  35.472  10.904
34758W        W 7183  24.698  16.252   3.774
34759W        W 7184  32.413  22.033   2.672
34760W        W 7185   0.894  26.036   1.320
34761W        W 7186  34.554  23.490  12.495
34762W        W 7187   6.341   0.829  10.538
34763W        W 7188  37.560  19.584   4.705
34764W        W 7189  31.585  42.389   3.846
34765W        W 7190   4.429  24.157   2.859
34766W        W 7191  19.280   9.315   3.826
34767W        W 7192   6.227  35.106   2.329
34768W        W 7193   4.207  39.371  14.514
34769W        W 7194  42.827  42.846   2.813
34770W        W 7195   3.290  36.852  14.283
34771W        W 7196  21.190   6.744  12.962
34772W        W 7197  36.533  10.683  11.524
34773W        W 7198  41.945  23.547   0.745
34774W        W 7199  12.804  39.062  10.895
34775W        W 7200  15.257  29.169  10.610
34776W        W 7201  23.232  31.521  10.957
34777W        W 7202   8.832  42.015   4.698
34778W        W 7203  25.212  42.304   3.813
34779W        W 7204  33.447  21.735   1.713
34780W        W 7205  27.177   1.409   3.702
34781W        W 7206  19.618  35.470  12.396
34782W        W 7207   5.274  26.541  10.999
34783W        W 7208  25.064  39.489  10.556
34784W        W 7209  35.428  36.418  13.051
34785W        W 7210  43.295   6.807   2.688
34786W        W 7211  17.611   8.182  11.099
34787W        W 7212  15.118  25.179  10.949
34788W        W 7213  27.089  39.930  13.821
34789W        W 7214  22.184  23.184   3.736
34790W        W 7215   7.800  39.498   4.222
34791W        W 7216  12.156   3.287  10.510
34792W        W 7217  37.489   4.756   3.225
34793W        W 7218  42.836  17.088   4.602
34794W        W 7219  23.993  24.039   1.806
34795W        W 7220   0.969  24.648  14.001
34796W        W 7221   3.779  22.073  14.866
34797W        W 7222  17.605   4.758   4.657
34798W        W 7223  18.639  11.245   1.852
34799W        W 7224   9.216  32.076  14.379
34800W        W 7225  12.265   5.409  11.889
34801W        W 7226  17.306  43.844   2.853
34802W        W 7227  27.496   9.238  14.349
34803W        W 7228  44.775  37.013  11.877
34804W        W 7229   2.436  10.343   4.643
34805W        W 7230  42.376  21.180   1.414
34806W        W 7231  16.738  31.035   1.364
34807W        W 7232  26.077  32.929  14.820
34808W        W 7233  30.629  25.469  14.941
34809W        W 7234  22.087  18.667   3.844
34810W        W 7235   4.776  40.864   1.403
34811W        W 7236   8.862  28.595   2.346
34812W        W 7237  42.314  43.919  13.891
34813W        W 7238  26.009  42.815  11.978
34814W        W 7239  40.388   1.868   4.651
34815W        W 7240  29.454   4.233   2.896
34816W        W 7241  23.072  41.473  14.818
34817W        W 7242  36.898  20.677   0.406
34818W        W 7243   5.834  40.009  12.007
34819W        W 7244  13.733  35.590   1.878
34820W        W 7245  34.865  11.725   5.119
34821W        W 7246  43.924  12.312  11.947
34822W        W 7247   6.266  39.316   1.229
34823W        W 7248  13.809  38.966   1.740
34824W        W 7249   3.833  26.081  10.518
34825W        W 7250  17.580  21.581   0.279
34826W        W 7251  22.533  40.854  12.365
34827W        W 7252  32.442  38.000  14.417
34828W        W 7253  21.666  23.036  12.395
34829W        W 7254   0.376  23.122  13.814
34830W        W 7255  20.086  44.439   0.475
34831W        W 7256  13.811  11.757   0.440
34832W        W 7257  12.811  36.940   1.716
34833W        W 7258  22.202   6.861   2.236
34834W        W 7259  10.373  42.017   0.763
34835W        W 7260  31.418  32.402  11.611
34836W        W 7261  14.636  32.923   3.384
34837W        W 7262  19.555   1.277   3.852
34838W        W 7263  10.810  36.903  10.937
34839W        W 7264  28.152  26.635   0.309
34840W        W 7265  20.575  10.276  12.542
34841W        W 7266  30.603   7.823  10.976
34842W        W 7267   0.474  36.866   0.887
34843W        W 7268  40.807  22.170   0.478
34844W        W 7269  11.683  33.501   0.740
34845W        W 7270  10.308  21.579   0.732
34846W        W 7271  24.226   0.418  10.995
34847W        W 7272   8.747   3.848   0.408
34848W        W 7273   5.914  21.069  12.842
34849W        W 7274  24.631  40.919  14.029
34850W        W 7275  29.139   5.826  11.478
34851W        W 7276   1.267   7.371  13.389
34852W        W 7277   7.361  12.318  14.428
34853W        W 7278   5.193  19.582   3.181
34854W        W 7279  23.604  42.959  13.951
34855W        W 7280  20.113  19.257   0.472
34856W        W 7281  20.175  13.256   3.169
34857W        W 7282  37.572  20.591  10.528
34858W        W 7283  33.383   1.923  10.631
34859W        W 7284  41.959  16.759  13.792
34860W        W 7285  18.153  40.844   1.769
34861W        W 7286  22.556   0.452  11.565
34862W        W 7287  25.574  32.120  10.493
34863W        W 7288   7.787  39.026   2.298
34864W        W 7289  20.040  40.029   2.190
34865W        W 7290  22.196  37.087   0.811
34866W        W 7291  14.282  22.227  14.852
34867W        W 7292  17.240  12.815   4.227
34868W        W 7293  13.841  40.391   1.389
34869W        W 7294  41.820   2.771  14.336
34870W        W 7295   7.742  40.534  15.000
34871W        W 7296  33.466  23.226   0.774
34872W        W 7297  38.992  41.979   3.783
34873W        W 7298  44.834  24.720   3.647
34874W        W 7299  10.723  41.512  14.453
34875W        W 7300  39.859   0.429  10.030
34876W        W 7301  19.175  41.361   1.924
34877W        W 7302  14.315   3.354  12.568
34878W        W 7303  26.193   1.780  12.044
34879W        W 7304  13.277  11.269  14.908
34880W        W 7305  35.579  19.700  11.403
34881W        W 7306  15.623  23.724  13.792
34882W        W 7307  38.525  38.954   1.900
34883W        W 7308  43.940  17.609   3.354
34884W        W 7309  15.157  26.004  14.868
34885W        W 7310  27.948  10.846  12.877
34886W        W 7311  42.520  27.166  10.916
34887W        W 7312  25.115   3.418   3.318
34888W        W 7313  31.401  31.463   2.719
34889W        W 7314  27.489  26.992   2.378
34890W        W 7315  20.565  33.488   4.708
34891W        W 7316  20.704  43.444   0.845
34892W        W 7317  21.111  42.931  11.979
34893W        W 7318  34.438  20.075   4.782
34894W        W 7319  16.202  16.276   2.693
34895W        W 7320  12.773  41.866   4.630
34896W        W 7321  18.772  18.121   5.086
34897W        W 7322  43.300   8.260  13.343
34898W        W 7323  36.359   6.197  10.127
34899W        W 7324  13.233  26.963  13.827
34900W        W 7325   0.405  11.317   3.737
34901W        W 7326   2.241  39.985  14.495
34902W        W 7327   8.235   4.261   1.734
34903W        W 7328  23.146  35.473  14.886
34904W        W 7329   8.285   8.846  12.091
34905W        W 7330   5.380   1.906   0.305
34906W        W 7331  44.275  10.714   2.222
34907W        W 7332  25.634  33.011   1.261
34908W        W 7333  15.154  30.568   4.195
34909W        W 7334  35.033  41.883  13.509
34910W        W 7335  13.177  14.197  12.042
34911W        W 7336  36.015   2.725   3.322
34912W        W 7337  44.327  32.409  11.102
34913W        W 7338  13.817  36.034  11.959
34914W        W 7339  28.629  26.208   0.892
34915W        W 7340  17.279  37.051   2.363
34916W        W 7341   1.392  29.543  10.432
34917W        W 7342  25.054  40.851  12.557
34918W        W 7343  38.966  15.713   1.435
34919W        W 7344  23.713  33.430  14.884
34920W        W 7345   5.862   8.784  10.999
34921W        W 7346  24.698  22.544   1.242
34922W        W 7347  40.510  40.010   0.775
34923W        W 7348  39.018  31.075  12.990
34924W        W 7349   8.775  10.689  12.481
34925W        W 7350  19.660  32.053   5.787
34926W        W 7351  38.384  11.225  13.341
34927W        W 7352  20.616  32.534  11.570
34928W        W 7353  13.618   6.376   4.631
34929W        W 7354  39.418  26.073   2.262
34930W        W 7355   6.880   6.856   1.790
34931W        W 7356  20.533  23.007   4.325
34932W        W 7357  19.703  20.040   2.828
34933W        W 7358  24.671   9.756  13.532
34934W        W 7359  17.295  39.851   2.705
34935W        W 7360   1.463  23.002   4.288
34936W        W 7361  37.402  20.626   1.859
34937W        W 7362   5.309   7.412   1.287
34938W        W 7363   9.721  11.837  10.645
34939W        W 7364  11.650  12.289   4.219
34940W        W 7365   4.709  19.220   2.350
34941W        W 7366  27.968  21.641   4.679
34942W        W 7367   2.359  17.171   0.829
34943W        W 7368  27.078  18.116   4.774
34944W        W 7369   8.795  20.211  11.077
34945W        W 7370  25.150  33.506  10.936
34946W        W 7371   1.468  40.547   2.396
34947W        W 7372  29.957  34.532  11.403
34948W        W 7373  34.505  16.571  12.455
34949W        W 7374  44.432  34.394   4.724
34950W        W 7375  36.462  31.563  13.335
34951W        W 7376  12.673   1.345   2.689
34952W        W 7377  39.029  14.686   1.785
34953W        W 7378  25.032  34.919  11.539
34954W        W 7379   7.738   9.346   4.753
34955W        W 7380   3.340  28.991  11.075
34956W        W 7381  41.408  41.821   2.284
34957W        W 7382  24.701   9.366   5.794
34958W        W 7383  44.758  23.681   4.653
34959W        W 7384   1.332  19.278  11.872
34960W        W 7385  10.846  17.787   2.407
34961W        W 7386  23.161  17.561   1.740
34962W        W 7387  16.599  19.046   2.260
34963W        W 7388  14.111  23.533   0.758
34964W        W 7389  44.308   9.182   2.860
34965W        W 7390  18.570  25.210   2.861
34966W        W 7391  23.176  34.540   3.741
34967W        W 7392  15.231  13.766   3.357
34968W        W 7393   0.374  22.099   0.464
34969W        W 7394  30.930   4.861   3.679
34970W        W 7395  23.647  31.139  14.809
34971W        W 7396  40.999  34.547   0.251
34972W        W 7397  10.843  40.871   4.727
34973W        W 7398  33.609  25.212  12.360
34974W        W 7399  33.874  40.039  12.090
34975W        W 7400  25.154  40.434   4.297
34976W        W 7401   8.337  24.517  11.441
34977W        W 7402  15.230  21.196  10.452
34978W        W 7403   6.327  42.785  10.414
34979W        W 7404   9.884  39.439   2.704
34980W        W 7405  25.149  34.113  14.956
34981W        W 7406  22.606  13.258   1.727
34982W        W 7407  36.074  15.606   1.930
34983W        W 7408  21.616  22.103  13.990
34984W        W 7409  16.717   7.290  12.924
34985W        W 7410  42.439  42.422   1.275
34986W        W 7411  11.200   7.910  12.920
34987W        W 7412  16.200  37.398  11.860
34988W        W 7413  40.497  35.404   1.263
34989W        W 7414  19.270   4.440   3.641
34990W        W 7415  27.946  12.352  10.962
34991W        W 7416  34.415  43.476   3.715
34992W        W 7417  43.371   8.798   4.668
34993W        W 7418  40.381  44.471  11.045
34994W        W 7419   9.706  16.730  11.118
34995W        W 7420  38.409  25.554   0.758
34996W        W 7421   4.727   0.459   1.406
34997W        W 7422  38.927   2.472   0.481
34998W        W 7423   3.377  11.305   1.246
34999W        W 7424  14.740   1.277   4.296
35000W        W 7425  11.793   2.901  13.522
35001W        W 7426  31.409  13.117   0.807
35002W        W 7427  30.056  22.113   4.328
35003W        W 7428   9.370  12.666   2.798
35004W        W 7429  29.514  21.216  10.629
35005W        W 7430  40.808  43.904  12.363
35006W        W 7431  17.586  38.334  11.096
35007W        W 7432  16.676  26.629  10.611
35008W        W 7433  36.356  23.602  11.052
35009W        W 7434  31.593  40.890  11.918
35010W        W 7435  24.052  14.825   2.816
35011W        W 7436   2.889  42.379  11.431
35012W        W 7437   6.361  41.436   4.787
35013W        W 7438  34.425  43.871  12.477
35014W        W 7439  42.360  38.415  11.405
35015W        W 7440  14.233  19.732  13.444
35016W        W 7441  37.414  24.554   4.312
35017W        W 7442  30.115   5.811  13.816
35018W        W 7443  20.671   9.743   4.213
35019W        W 7444  32.601  43.901   1.721
35020W        W 7445   3.222  41.342  12.045
35021W        W 7446  12.128  38.550  12.074
35022W        W 7447   9.270  38.397  13.547
35023W        W 7448  31.925  24.487  10.469
35024W        W 7449   5.907  16.649   1.284
35025W        W 7450  29.072  31.454  10.422
35026W        W 7451  29.127  40.868   1.427
35027W        W 7452   1.788   3.734   4.229
35028W        W 7453  30.997  19.668  14.317
35029W        W 7454  12.341  26.642  14.833
35030W        W 7455  35.388  12.619  13.892
35031W        W 7456  43.305  26.964  13.879
35032W        W 7457  29.623  27.635   1.383
35033W        W 7458  19.706   6.795   0.905
35034W        W 7459  28.106  26.627   2.752
35035W        W 7460  33.540  18.196   9.438
35036W        W 7461   2.400  30.941   3.151
35037W        W 7462  30.646   4.748   0.821
35038W        W 7463  35.379   0.277  12.922
35039W        W 7464   8.292  27.466  14.510
35040W        W 7465  31.591  24.123  12.361
35041W        W 7466  33.493  39.445   4.171
35042W        W 7467  13.655   3.330  14.351
35043W        W 7468  14.724  27.499  11.604
35044W        W 7469  26.490  36.043  12.405
35045W        W 7470  15.272  22.644   9.458
35046W        W 7471   8.889  37.857   5.131
35047W        W 7472  11.773   5.699   4.747
35048W        W 7473   7.232  12.780   3.769
35049W        W 7474  11.300  15.739   2.373
35050W        W 7475   2.304  37.027   1.301
35051W        W 7476  27.472  11.186  10.895
35052W        W 7477  26.042   6.892   3.261
35053W        W 7478   9.159   9.288  10.971
35054W        W 7479  43.842  23.519  14.926
35055W        W 7480   2.457  13.293  11.600
35056W        W 7481  31.098  28.567   1.233
35057W        W 7482   9.320  26.496   5.125
35058W        W 7483  42.949  23.634  14.425
35059W        W 7484   5.799  42.458  11.426
35060W        W 7485  12.690  11.297   4.295
35061W        W 7486  15.151   9.648  14.363
35062W        W 7487  42.297  27.017   1.430
35063W        W 7488  35.411  12.841  12.437
35064W        W 7489   9.155  36.447   4.677
35065W        W 7490  15.142  39.887   1.870
35066W        W 7491   8.731  27.463  13.316
35067W        W 7492  34.406  15.293   0.289
35068W        W 7493  40.031  13.838   2.245
35069W        W 7494  30.089  25.175  10.456
35070W        W 7495  21.130  43.894   2.203
35071W        W 7496  30.543  33.945  11.529
35072W        W 7497  23.726   7.252   4.700
35073W        W 7498  28.666  41.842  14.470
35074W        W 7499   4.370  38.970  10.959
35075W        W 7500   6.796   5.205   2.195
35076W        W 7501  11.828  36.587  11.123
35077W        W 7502   0.388  13.316   4.758
35078W        W 7503  26.968  44.438  12.524
35079W        W 7504   8.686  31.151  11.066
35080W        W 7505   1.813  43.404  12.932
35081W        W 7506  11.829  37.885   0.885
35082W        W 7507   4.891  41.344  10.501
35083W        W 7508  19.120   1.238   0.242
35084W        W 7509  21.713  31.602   0.261
35085W        W 7510  36.491  38.859  10.508
35086W        W 7511   9.746   6.701   2.792
35087W        W 7512  35.065  13.273  13.379
35088W        W 7513  41.029  43.375   4.818
35089W        W 7514  30.042   2.441  10.439
35090W        W 7515  13.611   2.789   2.786
35091W        W 7516   3.232   8.740  13.041
35092W        W 7517  29.018  14.816  14.456
35093W        W 7518   2.938  22.142   4.759
35094W        W 7519   2.740  11.253  10.495
35095W        W 7520  42.321  21.150  14.351
35096W        W 7521  18.286   6.270   2.709
35097W        W 7522  16.204  34.543   4.614
35098W        W 7523  42.814  25.692   1.732
35099W        W 7524  40.890  17.653   3.344
35100W        W 7525  13.211  41.895   0.858
35101W        W 7526  10.300   2.465   4.832
35102W        W 7527   8.229  17.663  11.455
35103W        W 7528  26.536  18.665   3.839
35104W        W 7529   9.324  42.877  14.353
35105W        W 7530  41.801  12.217   0.925
35106W        W 7531   3.832  31.084   2.350
35107W        W 7532   0.283  28.627   0.852
35108W        W 7533  19.140   4.397   2.380
35109W        W 7534  35.554  10.255  10.984
35110W        W 7535  42.402  44.470  10.899
35111W        W 7536  11.231   8.296   0.386
35112W        W 7537  29.100  37.033  13.965
35113W        W 7538  35.464  36.543  13.436
35114W        W 7539  35.476  25.979   3.742
35115W        W 7540  34.118  29.571  13.959
35116W        W 7541  17.237  26.147  13.340
35117W        W 7542  16.768  19.533   4.628
35118W        W 7543  21.706   7.899   0.421
35119W        W 7544   6.312  19.725   0.929
35120W        W 7545  40.012   6.786   1.450
35121W        W 7546  28.153  28.140   0.890
35122W        W 7547  19.249  34.514  13.313
35123W        W 7548   1.348   1.397  11.873
35124W        W 7549  12.754   1.845  14.863
35125W        W 7550  11.184  11.667  13.462
35126W        W 7551  11.645  31.906  11.389
35127W        W 7552   4.239  39.853   0.928
35128W        W 7553  33.993  17.213  13.024
35129W        W 7554  10.310  43.495  11.013
35130W        W 7555   3.765  10.680  14.982
35131W        W 7556  37.032  29.628  11.035
35132W        W 7557  20.662  18.696  11.599
35133W        W 7558  34.980  10.712  14.382
35134W        W 7559  39.922  35.406   1.751
35135W        W 7560   8.220   9.856   4.202
35136W        W 7561  40.502  42.409   0.820
35137W        W 7562  25.218  15.225   2.245
35138W        W 7563  17.280   6.248  13.847
35139W        W 7564  16.185  23.165   0.846
35140W        W 7565  33.511  37.033   2.841
35141W        W 7566  44.836  25.170  11.968
35142W        W 7567  43.451  15.763   1.381
35143W        W 7568  17.563  14.719   3.268
35144W        W 7569  10.733  29.647   4.686
35145W        W 7570  34.063  19.670   5.179
35146W        W 7571  13.163  41.945  10.434
35147W        W 7572   4.752  11.133   3.826
35148W        W 7573  33.548  10.248  10.623
35149W        W 7574  26.646  36.883   2.263
35150W        W 7575  36.923   4.422  14.448
35151W        W 7576  14.318   9.769  11.552
35152W        W 7577  42.494  22.549   0.781
35153W        W 7578  17.787  11.168  14.494
35154W        W 7579   9.254  24.224   3.358
35155W        W 7580   1.904  36.586   2.705
35156W        W 7581  37.373  33.464  12.091
35157W        W 7582  20.089  11.328  14.016
35158W        W 7583  41.356   5.812   1.409
35159W        W 7584   2.876  37.983   2.821
35160W        W 7585  34.405  17.663   4.281
35161W        W 7586  24.986  35.603   0.382
35162W        W 7587  19.161   5.408  10.480
35163W        W 7588  38.006   6.705  11.542
35164W        W 7589  14.242  40.526  11.543
35165W        W 7590  19.755  38.326  12.861
35166W        W 7591  44.866  21.203   0.945
35167W        W 7592  35.382  18.558  14.770
35168W        W 7593   8.744  14.255  11.928
35169W        W 7594  32.141  36.923  14.295
35170W        W 7595  10.813   0.943   0.432
35171W        W 7596  40.377  19.103  13.354
35172W        W 7597  33.944  25.164  14.482
35173W        W 7598  31.506  42.419  13.821
35174W        W 7599   2.433   6.207  12.953
35175W        W 7600   5.388  36.418   0.915
35176W        W 7601  32.974  20.241  12.551
35177W        W 7602   5.890   3.949  11.030
35178W        W 7603   4.833  29.962   3.671
35179W        W 7604   0.793   1.249   4.791
35180W        W 7605  26.202  27.045   1.751
35181W        W 7606  20.174  29.653   0.749
35182W        W 7607   7.866   5.351   1.916
35183W        W 7608  18.550  28.003  14.850
35184W        W 7609  31.934  13.702   0.268
35185W        W 7610  23.125  32.401  10.928
35186W        W 7611  13.642  28.987   1.390
35187W        W 7612  24.163  24.673  11.123
35188W        W 7613   3.351   5.292   1.710
35189W        W 7614  12.623  24.674   3.191
35190W        W 7615  20.762   2.787   3.283
35191W        W 7616  16.610   5.859   4.820
35192W        W 7617  30.031  41.371   2.701
35193W        W 7618  20.139  29.934   9.595
35194W        W 7619  30.035  26.029   0.340
35195W        W 7620  23.661  36.066  14.430
35196W        W 7621  36.043  11.185  11.598
35197W        W 7622  40.509   2.361  11.086
35198W        W 7623  25.654  30.600  12.942
35199W        W 7624  39.914   1.371   2.312
35200W        W 7625  28.551  25.643  11.059
35201W        W 7626   2.930   9.303  13.044
35202W        W 7627   9.709  39.892   2.798
35203W        W 7628  23.585  17.253  11.405
35204W        W 7629  42.947  26.603   9.988
35205W        W 7630   6.339  15.711   5.266
35206W        W 7631  25.188  13.626  12.067
35207W        W 7632  37.870  28.585  13.966
35208W        W 7633  36.849  37.077  12.400
35209W        W 7634  31.512   8.874  11.077
35210W        W 7635  18.639  19.157  14.809
35211W        W 7636  41.871  22.216  12.933
35212W        W 7637  36.352  21.104  11.997
35213W        W 7638  18.150  32.109   9.458
35214W        W 7639   0.277  18.697  10.893
35215W        W 7640  12.198  38.859  14.285
35216W        W 7641  15.730  13.678   4.710
35217W        W 7642  35.483  15.799   2.753
35218W        W 7643  27.175  40.850   0.780
35219W        W 7644  36.521   0.853   3.816
35220W        W 7645  40.303  33.528  13.545
35221W        W 7646  23.614   5.368  14.473
35222W        W 7647  18.671   3.348  13.525
35223W        W 7648  25.036  32.894  12.517
35224W        W 7649   5.726  44.351   0.295
35225W        W 7650  24.144  36.875  10.482
35226W        W 7651  32.117   6.209  12.390
35227W        W 7652   1.435  36.939  10.971
35228W        W 7653  43.336  44.960   0.244
35229W        W 7654   5.373  23.688   4.169
35230W        W 7655  36.361  14.119   3.362
35231W        W 7656  27.469   8.898   4.119
35232W        W 7657  20.270  34.046  11.464
35233W        W 7658  11.799   8.722   4.225
35234W        W 7659  23.689  26.692  11.417
35235W        W 7660   3.905  43.986  14.883
35236W        W 7661  13.220  13.233   2.747
35237W        W 7662  16.716  25.536   3.671
35238W        W 7663   1.764  41.453  11.907
35239W        W 7664  44.420   6.799  13.503
35240W        W 7665  21.190  43.376   3.224
35241W        W 7666   1.393  28.958   0.746
35242W        W 7667  13.342  39.531  14.432
35243W        W 7668  23.674  39.927  11.469
35244W        W 7669  14.705  24.217   0.408
35245W        W 7670  35.471   9.795   2.729
35246W        W 7671  14.164   6.828   0.427
35247W        W 7672   6.293   0.877   3.153
35248W        W 7673   9.757  34.392  12.883
35249W        W 7674  24.697  33.418   2.404
35250W        W 7675  12.135  34.613  13.445
35251W        W 7676  25.212  40.958  14.775
35252W        W 7677  44.350  43.444   3.807
35253W        W 7678  26.138  35.364   0.783
35254W        W 7679  31.408  24.044   1.212
35255W        W 7680   8.351  37.899  14.025
35256W        W 7681  32.073  41.987  13.337
35257W        W 7682  39.970  35.494  12.945
35258W        W 7683  16.162   5.728   2.398
35259W        W 7684   3.948  11.129  14.373
35260W        W 7685  12.122  41.993   4.660
35261W        W 7686   2.891  35.527   2.731
35262W        W 7687   0.896  32.067   4.341
35263W        W 7688  18.202  39.990   2.233
35264W        W 7689  23.999  16.671   1.711
35265W        W 7690  23.621  22.565  14.921
35266W        W 7691   7.808  24.646  13.385
35267W        W 7692  11.716  18.270  10.474
35268W        W 7693  40.357  34.518  12.895
35269W        W 7694  15.263  14.245  11.924
35270W        W 7695  41.041  34.058  12.448
35271W        W 7696   9.391  44.316  11.081
35272W        W 7697   0.862  35.948   1.362
35273W        W 7698  12.778  37.343  13.059
35274W        W 7699  29.107   9.834  12.510
35275W        W 7700  38.365   9.368  11.109
35276W        W 7701   1.256  38.473   4.614
35277W        W 7702  11.810   9.265   1.920
35278W        W 7703   4.876   5.407  11.997
35279W        W 7704  27.552  25.499   3.337
35280W        W 7705  21.700  41.877   0.963
35281W        W 7706  11.196  17.684  14.362
35282W        W 7707  34.889  24.660   1.361
35283W        W 7708  19.282  24.504   4.745
35284W        W 7709  18.603  28.579   0.391
35285W        W 7710  24.064  29.551   3.364
35286W        W 7711  37.438  12.118  11.486
35287W        W 7712  13.149  11.321  11.531
35288W        W 7713  23.180  22.116  10.627
35289W        W 7714   5.225  32.929  14.492
35290W        W 7715  16.788  22.075  11.881
35291W        W 7716  27.998  10.265  11.063
35292W        W 7717  38.974   9.686  14.492
35293W        W 7718  20.074  25.620   3.753
35294W        W 7719   6.744  28.521   3.670
35295W        W 7720  18.141  22.239  13.873
35296W        W 7721  32.556  26.993   4.198
35297W        W 7722   8.202   2.927   2.675
35298W        W 7723  11.664  27.525  12.384
35299W        W 7724   9.304  23.146  14.469
35300W        W 7725  24.570  11.353   3.802
35301W        W 7726  19.167  30.074  14.020
35302W        W 7727  41.874  12.830  10.463
35303W        W 7728   3.244  39.530   2.786
35304W        W 7729  20.128   8.805   0.833
35305W        W 7730   7.340  33.565   3.743
35306W        W 7731  20.172  36.355   1.908
35307W        W 7732  42.347  19.249  14.418
35308W        W 7733  35.954   4.404   1.438
35309W        W 7734  16.716   7.769  10.935
35310W        W 7735  20.750  33.072   3.808
35311W        W 7736  32.116  22.182  14.953
35312W        W 7737   4.859  40.329   4.126
35313W        W 7738  38.483  22.691  12.094
35314W        W 7739  31.618   5.283  12.944
35315W        W 7740  29.979   1.972   4.236
35316W        W 7741  44.957  13.692  12.897
35317W        W 7742  17.216  40.354   1.394
35318W        W 7743   7.411  32.444  11.934
35319W        W 7744  21.135   6.305   0.895
35320W        W 7745  36.509  32.443   4.839
35321W        W 7746  12.161  17.654  14.028
35322W        W 7747   3.806  41.829   4.721
35323W        W 7748  41.936  39.007   5.100
35324W        W 7749  16.135  22.641   1.345
35325W        W 7750  19.179  10.692  12.568
35326W        W 7751   2.782  36.391   2.316
35327W        W 7752  24.045   3.425  12.869
35328W        W 7753   5.835  13.335  12.876
35329W        W 7754  26.013  10.741  10.635
35330W        W 7755  13.250   0.346  13.877
35331W        W 7756  34.449   6.310  14.915
35332W        W 7757  25.127  36.507   5.201
35333W        W 7758  27.460  14.630   1.239
35334W        W 7759  42.507  40.407  11.398
35335W        W 7760  43.923  13.245   3.230
35336W        W 7761  19.272  39.910   4.648
35337W        W 7762   5.805  42.876   3.840
35338W        W 7763  13.774  22.684   0.846
35339W        W 7764  26.569  19.154  14.768
35340W        W 7765   3.853   1.744   0.356
35341W        W 7766   6.679   2.872  11.436
35342W        W 7767   2.890  23.630   2.184
35343W        W 7768   9.337  10.238   3.303
35344W        W 7769  20.195  31.473   5.104
35345W        W 7770  22.627  42.013  14.942
35346W        W 7771  12.123  25.671  11.889
35347W        W 7772  11.782   9.291   4.655
35348W        W 7773  39.436  20.252   4.796
35349W        W 7774   1.976  35.421  14.313
35350W        W 7775  17.305  29.141   0.458
35351W        W 7776  26.065  35.862   3.639
35352W        W 7777  40.863  34.908   0.759
35353W        W 7778  26.642  39.984  12.064
35354W        W 7779  33.944  32.048  14.868
35355W        W 7780  29.651  24.567  12.016
35356W        W 7781   1.246  10.715   1.908
35357W        W 7782   5.805   1.332  12.932
35358W        W 7783  13.144   9.795  14.955
35359W        W 7784  34.880  33.964   0.435
35360W        W 7785  16.251  29.599   1.307
35361W        W 7786   0.974  42.922  12.863
35362W        W 7787  17.184   7.379  12.473
35363W        W 7788  34.581  10.764  12.074
35364W        W 7789   9.694  30.133   2.723
35365W        W 7790  27.683  28.509   1.896
35366W        W 7791  30.114  20.567   1.225
35367W        W 7792  34.458   2.327   0.888
35368W        W 7793  29.579   3.316  12.043
35369W        W 7794  28.173  11.814  11.912
35370W        W 7795  36.843   9.826  13.395
35371W        W 7796  21.039   6.761  12.072
35372W        W 7797  14.792  31.934   0.427
35373W        W 7798   9.379  14.281   4.201
35374W        W 7799  18.655   3.438  12.082
35375W        W 7800  14.678  23.733   0.375
35376W        W 7801  22.528  34.059   2.715
35377W        W 7802  41.503  19.614  14.810
35378W        W 7803  28.474  44.900   0.802
35379W        W 7804   2.329  32.438   1.822
35380W        W 7805  10.341  16.631   1.884
35381W        W 7806  25.087  12.822  13.452
35382W        W 7807   1.793  31.903   3.780
35383W        W 7808  18.751  40.045   4.203
35384W        W 7809  15.129  40.990   0.451
35385W        W 7810  36.965  24.202   4.179
35386W        W 7811   5.806  43.421   0.480
35387W        W 7812  32.486   5.315   1.796
35388W        W 7813  24.162   2.882   4.745
35389W        W 7814  41.996   5.898   2.361
35390W        W 7815  38.066  36.096  13.521
35391W        W 7816  41.477  41.477  14.858
35392W        W 7817   6.321   5.297  13.360
35393W        W 7818   1.262   1.754  13.830
35394W        W 7819  15.747  42.343   0.293
35395W        W 7820  44.982  34.536   1.718
35396W        W 7821   7.720   8.236   3.157
35397W        W 7822  22.711  15.256  12.055
35398W        W 7823  13.133   1.858  11.957
35399W        W 7824   2.751  11.772  13.324
35400W        W 7825  20.535   6.812   0.920
35401W        W 7826  20.134  21.572  14.820
35402W        W 7827   7.322  33.908   0.440
35403W        W 7828  12.616  34.006   4.694
35404W        W 7829  23.574  39.403   0.940
35405W        W 7830   9.311  25.128  14.006
35406W        W 7831  20.695  21.734  13.800
35407W        W 7832  20.528  23.598  14.286
35408W        W 7833  32.478  25.212   2.712
35409W        W 7834   8.840   8.742  13.438
35410W        W 7835  18.615   2.865  13.986
35411W        W 7836   5.314   5.829   2.258
35412W        W 7837   6.345  44.274   4.248
35413W        W 7838  14.182   3.763   2.801
35414W        W 7839  14.308  34.011   3.673
35415W        W 7840  27.971   9.202  11.108
35416W        W 7841  32.478  13.606   0.417
35417W        W 7842  28.093  39.985   5.139
35418W        W 7843  31.147  26.052   2.755
35419W        W 7844  44.489  19.236  13.847
35420W        W 7845  34.562   8.788  13.446
35421W        W 7846   0.458  43.978  13.405
35422W        W 7847  10.833  10.856  13.867
35423W        W 7848  41.380  32.450  12.359
35424W        W 7849  38.866  42.305   5.153
35425W        W 7850  43.356   8.695   1.724
35426W        W 7851  13.278  44.973   2.191
35427W        W 7852  21.585  25.023   4.711
35428W        W 7853  19.118  16.258   3.269
35429W        W 7854  24.505  34.952  13.470
35430W        W 7855  27.165  32.962  10.132
35431W        W 7856  27.953   1.973  12.399
35432W        W 7857  22.574  10.149   0.871
35433W        W 7858   0.876  36.094  14.771
35434W        W 7859  26.609  17.155   0.471
35435W        W 7860  18.579  35.485  11.513
35436W        W 7861  31.076  29.587   4.300
35437W        W 7862   2.312  13.831  10.529
35438W        W 7863  35.503   8.165   3.808
35439W        W 7864  42.795  44.280  14.917
35440W        W 7865  30.999  14.623  12.057
35441W        W 7866  30.143  32.042   1.235
35442W        W 7867   7.836   7.898  14.858
35443W        W 7868   1.875  27.127  11.475
35444W        W 7869  23.068   0.835   2.717
35445W        W 7870  37.441   8.774  14.439
35446W        W 7871  13.118  18.230  12.852
35447W        W 7872   5.816  19.649   2.257
35448W        W 7873  16.792  25.671  14.377
35449W        W 7874  34.926  37.007  14.940
35450W        W 7875  25.589  22.661  14.020
35451W        W 7876  41.415  31.997   2.853
35452W        W 7877  44.469  15.262  10.918
35453W        W 7878  12.824  42.018  13.873
35454W        W 7879  12.231   4.330   0.925
35455W        W 7880  29.547  38.562  14.402
35456W        W 7881  35.854  38.863  14.471
35457W        W 7882  25.011  40.017  13.912
35458W        W 7883  29.948  36.062   0.773
35459W        W 7884  20.720  31.629  13.833
35460W        W 7885  21.753  23.179  13.024
35461W        W 7886  11.278  28.940   3.180
35462W        W 7887  32.517  25.478  14.282
35463W        W 7888  14.302  24.131   3.360
35464W        W 7889  42.850  44.296   2.333
35465W        W 7890  18.573   5.329   4.246
35466W        W 7891  38.443   1.266  10.966
35467W        W 7892  26.194   9.714   1.888
35468W        W 7893  19.170  14.628  12.555
35469W        W 7894  33.950  31.061   3.830
35470W        W 7895  22.059  24.715   1.867
35471W        W 7896  16.707   5.731   2.874
35472W        W 7897  17.081  27.959   1.712
35473W        W 7898  14.248  14.248   3.817
35474W        W 7899  34.415  39.950  12.079
35475W        W 7900  36.053  30.060   1.750
35476W        W 7901  19.128  36.056   0.467
35477W        W 7902  32.018  14.278   4.810
35478W        W 7903  22.722   1.868  10.120
35479W        W 7904  18.112  15.191  11.460
35480W        W 7905  17.701  18.097  13.796
35481W        W 7906  23.189  28.578   0.898
35482W        W 7907  13.745   1.958   1.406
35483W        W 7908  40.952   8.356   4.707
35484W        W 7909  44.931  35.557  14.440
35485W        W 7910   3.302   3.238   1.918
35486W        W 7911  35.889  26.148   3.689
35487W        W 7912  38.391  33.103  13.058
35488W        W 7913  17.172  10.180   4.717
35489W        W 7914  17.663   6.721  14.416
35490W        W 7915   5.293  41.292  11.514
35491W        W 7916  30.935  35.362   0.281
35492W        W 7917  44.792  19.163  11.586
35493W        W 7918  40.353   0.949   3.679
35494W        W 7919  39.490   7.907  14.352
35495W        W 7920   2.422  39.349   2.200
35496W        W 7921   3.862  36.392  13.041
35497W        W 7922  36.085  17.115   3.705
35498W        W 7923   8.858  36.026  12.361
35499W        W 7924  44.833  15.689   0.831
35500W        W 7925  25.086  42.304   1.309
35501W        W 7926  42.827  18.120   3.258
35502W        W 7927  35.570   8.314   1.218
35503W        W 7928   1.411  13.757   2.397
35504W        W 7929  40.462  37.577   2.867
35505W        W 7930  18.716  21.023  12.576
35506W        W 7931  29.504  44.776   4.209
35507W        W 7932  32.452   8.364   3.313
35508W        W 7933  32.941  40.346   4.151
35509W        W 7934   6.252  22.132   2.755
35510W        W 7935  44.945  27.940  11.549
35511W        W 7936  15.633  33.096  14.301
35512W        W 7937  41.829  14.126   0.895
35513W        W 7938  41.884   5.345   0.287
35514W        W 7939   7.826  43.775   4.312
35515W        W 7940   1.412   4.299  13.509
35516W        W 7941  21.536   8.211   4.699
35517W        W 7942  28.647  15.190   4.793
35518W        W 7943  24.594  10.754  13.951
35519W        W 7944   2.846  12.721  14.505
35520W        W 7945  11.783   6.904   0.932
35521W        W 7946   3.794  26.043  12.516
35522W        W 7947  19.081  10.237  10.030
35523W        W 7948  20.228  25.568  14.955
35524W        W 7949  18.288   6.880  14.393
35525W        W 7950  16.125   9.225   4.817
35526W        W 7951  34.435   7.244  11.414
35527W        W 7952  24.066  29.448   2.687
35528W        W 7953  17.798   7.690   2.792
35529W        W 7954  31.501  38.542  10.645
35530W        W 7955  34.934  30.587  10.140
35531W        W 7956  12.218  34.081  10.497
35532W        W 7957  23.500  16.190  14.881
35533W        W 7958  10.203  23.145   2.861
35534W        W 7959  41.406  39.894   2.231
35535W        W 7960   3.894  40.824   1.313
35536W        W 7961  16.691  32.405   9.476
35537W        W 7962  24.016  18.759  13.948
35538W        W 7963   2.726  13.682  13.912
35539W        W 7964  41.449   8.168  14.426
35540W        W 7965  18.670  41.879  11.874
35541W        W 7966  22.578  31.011   0.476
35542W        W 7967   4.907  25.629  14.325
35543W        W 7968   2.230  44.896  11.404
35544W        W 7969  21.192  17.282   4.750
35545W        W 7970  41.842  17.198  11.506
35546W        W 7971  37.395   5.930  13.046
35547W        W 7972  27.031  16.657  12.542
35548W        W 7973  44.972   3.742  12.855
35549W        W 7974  34.035  26.044  14.943
35550W        W 7975  23.114   9.178  14.292
35551W        W 7976  21.110   2.399  14.362
35552W        W 7977  41.857   1.914  10.529
35553W        W 7978   5.369   9.339  10.562
35554W        W 7979   5.907   7.792  13.038
35555W        W 7980  32.055   6.839  13.925
35556W        W 7981  33.938  42.919  13.999
35557W        W 7982  44.949  19.211   2.889
35558W        W 7983   2.742  11.210   3.309
35559W        W 7984  17.763   2.788   4.678
35560W        W 7985  16.265  10.141  14.397
35561W        W 7986   5.882  23.514   2.342
35562W        W 7987  37.863  10.728   1.321
35563W        W 7988   0.347   3.734   2.779
35564W        W 7989  15.202  32.016  10.958
35565W        W 7990  12.697  43.811   0.476
35566W        W 7991  17.137   8.837  11.942
35567W        W 7992  15.637  12.163  13.064
35568W        W 7993  24.591  16.279   3.258
35569W        W 7994   9.295  36.872   4.679
35570W        W 7995  24.720  14.179   0.937
35571W        W 7996  37.400  36.435   4.352
35572W        W 7997   0.260   8.827   4.835
35573W        W 7998  42.442  21.083  14.864
35574W        W 7999  17.074  14.699   1.246
35575W        W 8000  32.627  30.010   3.327
35576W        W 8001  37.077  37.835  11.116
35577W        W 8002   5.351  13.266   2.343
35578W        W 8003  44.285  19.262  11.406
35579W        W 8004   2.434  13.658   4.675
35580W        W 8005  10.743  32.634   0.263
35581W        W 8006  24.657  15.726  11.074
35582W        W 8007  13.804   8.396   3.762
35583W        W 8008  27.141  32.599  11.547
35584W        W 8009   5.296  19.556  13.546
35585W        W 8010  38.347  38.480   2.193
35586W        W 8011  27.542  32.922  13.977
35587W        W 8012  13.623  33.100   4.645
35588W        W 8013  44.361  37.008  14.781
35589W        W 8014  13.151  11.827  12.393
35590W        W 8015  11.759   7.374  10.024
35591W        W 8016  43.846  27.519  12.382
35592W        W 8017  31.939  40.816   4.175
35593W        W 8018  36.585  24.160   4.141
35594W        W 8019  43.280  17.068   2.389
35595W        W 8020  23.993  37.077  12.009
35596W        W 8021  37.367  12.359   3.742
35597W        W 8022   0.369  33.543  10.470
35598W        W 8023  16.254   1.454  10.910
35599W        W 8024  23.634  36.951   0.479
35600W        W 8025   1.787   3.279  12.413
35601W        W 8026  31.420  27.546  14.774
35602W        W 8027  43.298  27.168  14.807
35603W        W 8028  14.835  11.286  14.981
35604W        W 8029  29.952   8.178  11.055
35605W        W 8030  10.217  28.666   0.943
35606W        W 8031  16.618  25.996   3.215
35607W        W 8032  21.216  21.171  10.132
35608W        W 8033  37.059  27.479   2.309
35609W        W 8034  28.466   9.670   1.921
35610W        W 8035  34.917   0.368  12.435
35611W        W 8036  43.490  41.465  11.528
35612W        W 8037   3.717  12.205   2.873
35613W        W 8038  18.711  21.061  13.979
35614W        W 8039  32.133  20.096  11.510
35615W        W 8040  40.440  22.219   0.286
35616W        W 8041   8.331  27.447  11.072
35617W        W 8042  38.556  23.631  14.807
35618W        W 8043  13.602  30.584   4.627
35619W        W 8044  23.666  41.910   4.599
35620W        W 8045   4.857  30.110   4.721
35621W        W 8046  39.378   4.305   1.899
35622W        W 8047  43.279  43.005   0.247
35623W        W 8048  11.738  33.610  11.576
35624W        W 8049  26.673   3.375   3.709
35625W        W 8050  31.100  17.766   0.330
35626W        W 8051  27.969  44.376  10.918
35627W        W 8052  41.353  22.011   4.691
35628W        W 8053   8.796  21.575   0.361
35629W        W 8054  16.104  28.130   2.385
35630W        W 8055   9.861  17.698   0.340
35631W        W 8056  20.643  25.182  14.489
35632W        W 8057  20.586  17.651   3.165
35633W        W 8058  13.247  29.594   4.704
35634W        W 8059   7.302   1.243   1.276
35635W        W 8060   5.860  34.925  10.530
35636W        W 8061  42.466  10.210  12.383
35637W        W 8062  41.493  27.951   2.883
35638W        W 8063   9.201  19.663  14.963
35639W        W 8064  27.476  41.516  13.004
35640W        W 8065  41.994  15.330   4.261
35641W        W 8066  27.052  23.071  14.452
35642W        W 8067  34.042   4.740  12.569
35643W        W 8068  39.435  34.956   3.687
35644W        W 8069   7.737   0.882   0.446
35645W        W 8070   3.740  15.173  12.417
35646W        W 8071  18.766   4.755   0.790
35647W        W 8072   1.751  20.540  14.421
35648W        W 8073   1.411  42.969   0.460
35649W        W 8074   1.255   5.240  13.435
35650W        W 8075  36.900  40.361  13.995
35651W        W 8076  20.250  24.145   1.344
35652W        W 8077  12.124  20.248  14.387
35653W        W 8078  27.573  35.516   2.669
35654W        W 8079   1.811   3.945   3.148
35655W        W 8080  18.737  20.206   2.832
35656W        W 8081  17.185   7.679   1.240
35657W        W 8082  23.590  39.513  12.554
35658W        W 8083   9.648  12.135   0.892
35659W        W 8084  22.084  31.116  14.431
35660W        W 8085  40.885  40.366  12.451
35661W        W 8086   8.323  24.181   3.767
35662W        W 8087  39.909  36.498   4.150
35663W        W 8088  37.516  39.849  12.963
35664W        W 8089  14.187  27.520   3.826
35665W        W 8090  12.202  20.673   3.310
35666W        W 8091  30.593   4.927  14.983
35667W        W 8092  17.181  29.026  10.494
35668W        W 8093  20.089   7.798   1.377
35669W        W 8094  24.717  27.588  13.338
35670W        W 8095  35.552   2.252   0.423
35671W        W 8096  44.470   0.280   2.212
35672W        W 8097  19.212  40.883   2.846
35673W        W 8098  11.162  23.641   1.829
35674W        W 8099  17.623  24.517   4.651
35675W        W 8100  18.183  32.509   9.933
35676W        W 8101  29.655  17.742   0.289
35677W        W 8102   9.215  12.731   0.800
35678W        W 8103  34.105  41.336   2.307
35679W        W 8104  35.909  23.729   2.687
35680W        W 8105  34.079  14.214   0.815
35681W        W 8106   2.402  34.583   1.912
35682W        W 8107  44.817  14.797  10.958
35683W        W 8108   0.878   3.443   3.265
35684W        W 8109  15.593  39.326  10.974
35685W        W 8110  17.231  10.652  14.980
35686W        W 8111   1.481   4.361  12.841
35687W        W 8112  26.487  36.016   2.196
35688W        W 8113  37.834  32.061  14.335
35689W        W 8114   2.757  29.469   2.286
35690W        W 8115   6.329  43.299   3.257
35691W        W 8116  38.988  34.085   2.687
35692W        W 8117   0.871  26.599  14.958
35693W        W 8118  28.080  38.486  11.117
35694W        W 8119   2.776  11.774   3.333
35695W        W 8120   4.759   2.373   5.137
35696W        W 8121  43.894  10.172   0.820
35697W        W 8122  25.043  24.095  10.422
35698W        W 8123   4.383  13.110   3.755
35699W        W 8124   2.269  18.245  14.944
35700W        W 8125   0.748   5.436   4.641
35701W        W 8126   7.391  15.624   1.435
35702W        W 8127   0.794   8.845   9.934
35703W        W 8128  21.055  23.214  13.889
35704W        W 8129  33.107   0.383   0.876
35705W        W 8130  10.353   6.828   2.382
35706W        W 8131   6.404   3.262   4.734
35707W        W 8132  40.910   8.344   1.385
35708W        W 8133   1.250  37.053  14.793
35709W        W 8134  29.018  31.417   4.188
35710W        W 8135  11.661  32.914  11.460
35711W        W 8136   2.740  33.994  14.029
35712W        W 8137  20.737  20.074   3.262
35713W        W 8138   1.812   5.702  13.807
35714W        W 8139  28.004  13.724  10.604
35715W        W 8140   6.203  17.071   2.738
35716W        W 8141   0.753  27.670  13.821
35717W        W 8142   9.818  16.248   3.789
35718W        W 8143  20.554  17.296  13.340
35719W        W 8144  43.315  10.337  13.448
35720W        W 8145  40.365  13.220  13.395
35721W        W 8146  24.171   8.316  10.156
35722W        W 8147  33.906  40.489   0.356
35723W        W 8148   9.359  38.043  10.405
35724W        W 8149  41.296   8.285   0.736
35725W        W 8150  26.045  44.496  12.447
35726W        W 8151   6.412  18.621  12.888
35727W        W 8152  32.574   2.301  12.358
35728W        W 8153   0.781  26.546   3.689
35729W        W 8154   7.409  17.802  11.596
35730W        W 8155  18.254  13.624   3.708
35731W        W 8156   0.492  30.922   3.663
35732W        W 8157  32.629  39.336   1.911
35733W        W 8158  32.052   5.232   2.740
35734W        W 8159  23.125  16.801   3.797
35735W        W 8160  12.750  32.124   1.396
35736W        W 8161  39.321  43.487   4.196
35737W        W 8162  29.579  13.734  12.093
35738W        W 8163   7.877   4.802  12.853
35739W        W 8164   6.857  24.675   0.743
35740W        W 8165   0.402   0.963  11.959
35741W        W 8166  29.131   4.808   2.214
35742W        W 8167  27.546  10.244   1.451
35743W        W 8168  20.708   6.709   3.185
35744W        W 8169  28.604  38.488  13.027
35745W        W 8170  31.026  29.547   0.822
35746W        W 8171  26.536  10.773  12.551
35747W        W 8172  40.990  29.953   0.929
35748W        W 8173  23.189  25.217   4.267
35749W        W 8174  42.940  36.423  10.499
35750W        W 8175  18.710  36.965   1.736
35751W        W 8176   5.233   0.292   4.637
35752W        W 8177  18.644  24.120  12.516
35753W        W 8178  27.529  37.919  10.530
35754W        W 8179  11.721  35.604   3.233
35755W        W 8180  28.122  33.448   5.780
35756W        W 8181   0.294  28.054   3.246
35757W        W 8182  24.637  42.979   4.834
35758W        W 8183  25.609  17.258   2.679
35759W        W 8184  25.097   1.927   4.722
35760W        W 8185  38.447  22.028   0.399
35761W        W 8186  27.972  12.281   1.875
35762W        W 8187  12.839  37.976   4.327
35763W        W 8188   8.815  31.994   1.935
35764W        W 8189  33.396  26.062  13.926
35765W        W 8190  35.532  42.416  10.571
35766W        W 8191  35.471  41.391  10.634
35767W        W 8192  17.769  23.601  13.455
35768W        W 8193  30.980  24.109  10.010
35769W        W 8194  11.372  31.492   3.223
35770W        W 8195  36.347  43.476   4.809
35771W        W 8196  35.969  43.359  13.415
35772W        W 8197  22.673  19.620  11.120
35773W        W 8198  33.589  22.027  12.343
35774W        W 8199   9.306  24.544   3.347
35775W        W 8200  23.648  39.831  12.504
35776W        W 8201  31.503  40.520   4.812
35777W        W 8202   6.380   6.909  14.909
35778W        W 8203  31.447  14.623   4.718
35779W        W 8204   3.916  32.419   4.641
35780W        W 8205  28.561  29.141   2.682
35781W        W 8206  35.096  32.625  11.528
35782W        W 8207   5.400  34.113   4.333
35783W        W 8208  42.426   7.413  14.493
35784W        W 8209  35.989  37.509  10.588
35785W        W 8210   3.349  12.211  14.479
35786W        W 8211  10.667  13.622  14.325
35787W        W 8212   6.223  18.779  11.529
35788W        W 8213   9.690  44.825  14.897
35789W        W 8214  30.583  31.440   2.680
35790W        W 8215  26.673  42.303   1.798
35791W        W 8216  40.526  21.160  12.833
35792W        W 8217  28.589  40.486   3.258
35793W        W 8218  31.495  33.885   4.148
35794W        W 8219  21.556  26.078  12.975
35795W        W 8220   5.225  29.524  12.018
35796W        W 8221  32.123  21.080   9.966
35797W        W 8222  13.612  12.190   4.664
35798W        W 8223  37.074   0.440   0.464
35799W        W 8224  13.151  14.152   1.797
35800W        W 8225   8.817   2.831  13.316
35801W        W 8226  31.573  16.787   2.898
35802W        W 8227   5.274  35.993  10.563
35803W        W 8228  37.992  22.020   2.251
35804W        W 8229   3.304  31.498  10.561
35805W        W 8230  44.791  30.137   4.603
35806W        W 8231  44.427  37.434   1.384
35807W        W 8232  10.746  41.879   3.703
35808W        W 8233  30.460  39.993   1.791
35809W        W 8234  32.962  41.933   2.719
35810W        W 8235  17.640  15.255  11.886
35811W        W 8236  40.999   7.191  12.522
35812W        W 8237  11.779  21.212   4.830
35813W        W 8238  30.433   3.305  14.445
35814W        W 8239  25.973  16.099  12.342
35815W        W 8240   6.402  44.486  10.117
35816W        W 8241   3.263  41.809  13.042
35817W        W 8242  22.535  41.530   3.169
35818W        W 8243  43.863  38.365   0.890
35819W        W 8244  36.841  27.992   4.744
35820W        W 8245  25.203  40.041  10.613
35821W        W 8246  19.582  15.258   4.832
35822W        W 8247   9.854  39.486   1.810
35823W        W 8248  19.725  33.001   4.615
35824W        W 8249  16.652  25.115   3.330
35825W        W 8250  38.526  26.049   0.279
35826W        W 8251  15.328  32.111  14.904
35827W        W 8252  40.546  24.085   1.341
35828W        W 8253  35.420  13.325   4.262
35829W        W 8254  25.008  14.272   2.226
35830W        W 8255  24.174  16.575   2.259
35831W        W 8256  15.240  27.609   0.328
35832W        W 8257  40.439  10.810   3.310
35833W        W 8258  35.097  35.988  14.305
35834W        W 8259  44.008  13.658   3.726
35835W        W 8260   1.816  25.145  13.310
35836W        W 8261  41.908   8.215   0.372
35837W        W 8262  41.454  20.690  13.372
35838W        W 8263  12.761   7.296  14.774
35839W        W 8264  27.062  39.004   1.826
35840W        W 8265  10.755  27.946  14.386
35841W        W 8266  25.140  21.227  12.010
35842W        W 8267   4.406  43.812  14.874
35843W        W 8268  18.611   1.470  11.564
35844W        W 8269   1.439  39.840  14.464
35845W        W 8270  29.497  29.466   2.196
35846W        W 8271  16.761  12.785  11.873
35847W        W 8272  35.438  22.063   2.324
35848W        W 8273  43.809  40.852   4.785
35849W        W 8274  38.948  42.372  11.931
35850W        W 8275  32.527  43.374   0.384
35851W        W 8276  12.302  23.558   5.712
35852W        W 8277  17.640  43.420   2.692
35853W        W 8278  27.664  19.537   3.652
35854W        W 8279   4.724  13.826  12.847
35855W        W 8280  36.409  10.221  12.526
35856W        W 8281   0.944  18.147   4.171
35857W        W 8282   6.780  39.485  14.806
35858W        W 8283  34.966  11.683   2.249
35859W        W 8284  22.646  26.592  13.419
35860W        W 8285  26.687  20.650   3.664
35861W        W 8286  28.090  43.313  13.901
35862W        W 8287   7.812  26.966   3.648
35863W        W 8288  44.305  35.012  12.409
35864W        W 8289  36.934   9.297   4.619
35865W        W 8290  10.362   2.754  14.813
35866W        W 8291  20.164  10.672  10.535
35867W        W 8292  10.774  36.086   3.672
35868W        W 8293   6.192  14.815   4.295
35869W        W 8294  42.864   4.782   1.934
35870W        W 8295   4.430  38.569  10.965
35871W        W 8296  15.313   8.379   4.319
35872W        W 8297   1.910   3.720  10.575
35873W        W 8298  32.590  43.811  14.463
35874W        W 8299   3.740   4.385   3.172
35875W        W 8300  22.542  13.665  10.982
35876W        W 8301  10.326  16.765   2.803
35877W        W 8302   8.764   2.792   3.154
35878W        W 8303  42.838  12.829  10.423
35879W        W 8304   8.720  24.039  13.897
35880W        W 8305   5.772   5.382  13.881
35881W        W 8306   8.790  16.700   2.287
35882W        W 8307  18.720  28.991   0.299
35883W        W 8308  38.358  40.946  11.068
35884W        W 8309  24.170  33.882   4.173
35885W        W 8310  38.966   7.835   2.299
35886W        W 8311  14.649  36.519  12.460
35887W        W 8312  34.467   1.294   3.822
35888W        W 8313   7.229  30.643   1.804
35889W        W 8314   6.902  31.620   3.828
35890W        W 8315  30.001  22.691   4.731
35891W        W 8316  31.957  40.049   1.743
35892W        W 8317  44.882  21.682   0.359
35893W        W 8318   4.823  28.602  14.359
35894W        W 8319  33.559  22.651  10.939
35895W        W 8320  10.719   4.266  13.318
35896W        W 8321  44.776   2.778  12.520
35897W        W 8322  14.688  19.211  12.506
35898W        W 8323  26.602  42.281  13.804
35899W        W 8324  28.452  26.542  12.830
35900W        W 8325  39.468  13.787  13.312
35901W        W 8326  34.544   5.262  12.888
35902W        W 8327  10.204  22.019   3.330
35903W        W 8328  25.644   0.868  10.551
35904W        W 8329   6.838   3.440  12.448
35905W        W 8330  18.259  14.282   3.713
35906W        W 8331  44.989  30.624  12.949
35907W        W 8332  29.036  21.065  13.831
35908W        W 8333  41.927  32.905  13.378
35909W        W 8334  42.886  29.146   1.780
35910W        W 8335   3.933  18.173  10.038
35911W        W 8336  26.692  39.871   0.757
35912W        W 8337  41.519  30.156  10.518
35913W        W 8338  30.135  41.347  11.396
35914W        W 8339  21.261  31.147   0.855
35915W        W 8340   1.447  25.158   1.323
35916W        W 8341  16.674  29.031   0.907
35917W        W 8342  13.132  33.040   2.389
35918W        W 8343  23.021   4.804  13.927
35919W        W 8344  13.614  39.455  14.913
35920W        W 8345  21.121  15.326   4.255
35921W        W 8346  21.607  41.423   2.705
35922W        W 8347  34.953  33.620   3.225
35923W        W 8348   7.881  17.622  13.513
35924W        W 8349  30.604  26.048   0.360
35925W        W 8350  26.619  25.998   4.651
35926W        W 8351   0.472  17.570  11.055
35927W        W 8352  11.804  25.505   1.280
35928W        W 8353  43.898  37.051   4.258
35929W        W 8354  33.974  40.800   0.382
35930W        W 8355  37.342  15.146  14.956
35931W        W 8356  22.158  26.485  10.971
35932W        W 8357  14.100  11.174   4.777
35933W        W 8358  37.054  23.669   4.752
35934W        W 8359  36.929  14.125   4.602
35935W        W 8360  30.008  30.441   3.386
35936W        W 8361  31.620  22.087  12.899
35937W        W 8362  38.334  34.903  11.958
35938W        W 8363  25.010  10.272  14.479
35939W        W 8364  35.442  24.660   4.640
35940W        W 8365   6.321  34.505   1.740
35941W        W 8366  28.574  26.663   4.204
35942W        W 8367   4.205  31.919  12.046
35943W        W 8368  27.636  25.533   1.905
35944W        W 8369  35.447  44.852  12.457
35945W        W 8370  31.026  16.710   3.692
35946W        W 8371  32.461   7.240  10.459
35947W        W 8372  37.050  37.833   1.901
35948W        W 8373  30.090  37.023   4.248
35949W        W 8374   1.873  29.936  14.873
35950W        W 8375  13.118  36.967   2.307
35951W        W 8376  16.247  40.892   2.183
35952W        W 8377   5.915  29.439   0.956
35953W        W 8378  41.915  37.860  12.471
35954W        W 8379   4.898   6.355  10.498
35955W        W 8380  26.011  40.547  13.019
35956W        W 8381   1.810  11.299   0.885
35957W        W 8382  40.041  29.145  13.984
35958W        W 8383  24.140   1.360  14.379
35959W        W 8384  39.399  30.659   3.162
35960W        W 8385  18.693  14.141   0.912
35961W        W 8386  16.629  36.511   1.300
35962W        W 8387   3.292  14.158   2.886
35963W        W 8388   8.838  28.012  13.419
35964W        W 8389  13.177  37.446   4.282
35965W        W 8390  43.791  24.149   4.333
35966W        W 8391  12.119  24.075   1.258
35967W        W 8392  27.665  43.371  10.960
35968W        W 8393  40.916  40.809   3.240
35969W        W 8394  26.054  12.733  14.314
35970W        W 8395   6.862  23.626   4.657
35971W        W 8396   3.374  31.531  14.426
35972W        W 8397  27.972   7.771   0.891
35973W        W 8398  17.599   2.783   2.680
35974W        W 8399  40.047  42.479  11.391
35975W        W 8400  29.510  14.602  12.960
35976W        W 8401  17.620   3.263  12.381
35977W        W 8402   2.804  27.172   3.689
35978W        W 8403  22.096  31.513   1.295
35979W        W 8404   8.244  42.363   3.672
35980W        W 8405  27.982  25.476  12.520
35981W        W 8406  18.591  38.963  11.065
35982W        W 8407  25.211   3.954   0.421
35983W        W 8408  18.547   5.263   1.234
35984W        W 8409  24.094  14.770  14.878
35985W        W 8410  15.187  34.963   4.177
35986W        W 8411   6.727  18.083   0.439
35987W        W 8412  24.721   6.350  10.436
35988W        W 8413  33.510  32.930   3.659
35989W        W 8414   3.369   3.353  13.828
35990W        W 8415   5.292  19.759   3.866
35991W        W 8416  20.089  37.514   4.296
35992W        W 8417  44.894  27.591   4.303
35993W        W 8418  20.038  32.946   0.385
35994W        W 8419  43.968  21.134   1.860
35995W        W 8420  12.165   8.405   1.420
35996W        W 8421   7.877  14.608   3.746
35997W        W 8422  33.056  44.944  14.947
35998W        W 8423  38.883  30.427  11.863
35999W        W 8424  34.483  19.563  14.303
36000W        W 8425   2.470  40.424  10.924
36001W        W 8426  34.424   4.773   1.348
36002W        W 8427   2.899  35.512   1.265
36003W        W 8428  22.162  42.307   2.380
36004W        W 8429  30.048  24.197   2.756
36005W        W 8430  18.240  41.933   4.820
36006W        W 8431  39.937  16.303  14.972
36007W        W 8432  35.098  20.079  13.818
36008W        W 8433  40.048   4.703  11.539
36009W        W 8434  36.050  28.586   4.777
36010W        W 8435  33.085  16.774   5.765
36011W        W 8436  14.676  42.803  11.083
36012W        W 8437  35.052  32.606  14.911
36013W        W 8438  11.740  25.481  13.372
36014W        W 8439  30.969  38.422  13.341
36015W        W 8440  26.630  32.427  14.813
36016W        W 8441  24.651  17.086   1.732
36017W        W 8442  30.984  18.756   0.938
36018W        W 8443  27.668  14.112   2.226
36019W        W 8444  15.808   2.906   2.739
36020W        W 8445  25.161  27.143   4.173
36021W        W 8446  23.689  14.622   2.753
36022W        W 8447  43.834  13.335   1.229
36023W        W 8448  28.587  28.077   2.281
36024W        W 8449  42.862   6.787   1.424
36025W        W 8450  43.465   9.836  11.046
36026W        W 8451  43.504   7.389  12.548
36027W        W 8452  29.625   0.989   5.246
36028W        W 8453  44.450  20.607   0.451
36029W        W 8454   0.889  29.102   2.356
36030W        W 8455  21.650  43.464   4.246
36031W        W 8456  37.079   1.384  14.919
36032W        W 8457  40.971  33.963  10.458
36033W        W 8458  24.706  38.421  12.026
36034W        W 8459  37.938  36.545   3.194
36035W        W 8460  30.088  17.743  13.008
36036W        W 8461  18.204  27.079  13.002
36037W        W 8462   2.422  39.461   3.756
36038W        W 8463  42.809  42.970  12.971
36039W        W 8464  22.249  43.324  12.351
36040W        W 8465  38.825  26.648   3.315
36041W        W 8466  40.982   1.816  11.856
36042W        W 8467  11.339  44.972  14.486
36043W        W 8468  43.488   6.413  13.373
36044W        W 8469  18.746  12.141  14.010
36045W        W 8470  35.050  43.957   4.281
36046W        W 8471   4.219  39.410  10.556
36047W        W 8472  19.109  34.601  11.092
36048W        W 8473  10.190  22.690  13.923
36049W        W 8474  12.642  25.630  14.455
36050W        W 8475  41.020   8.725  10.610
36051W        W 8476  16.743  35.945  14.908
36052W        W 8477  44.003   2.455  12.468
36053W        W 8478   4.309  42.015   0.805
36054W        W 8479  15.210  18.179  12.522
36055W        W 8480   7.811  23.088  11.930
36056W        W 8481   5.879  41.361   2.254
36057W        W 8482  13.621  19.264  12.563
36058W        W 8483  24.073  27.184   3.658
36059W        W 8484  39.998  14.221   0.893
36060W        W 8485  31.513  20.096   0.784
36061W        W 8486  27.006  42.968   3.847
36062W        W 8487  10.224   1.846  14.907
36063W        W 8488  22.577   8.833   5.286
36064W        W 8489   3.427  20.620  12.010
36065W        W 8490  21.656   2.341  12.860
36066W        W 8491  17.743   6.299  10.570
36067W        W 8492  17.714  40.492  11.956
36068W        W 8493   7.239  21.169   3.152
36069W        W 8494  31.570  14.295  12.511
36070W        W 8495  24.679   7.186   1.445
36071W        W 8496  23.716  35.097   1.389
36072W        W 8497  16.636  33.051  12.853
36073W        W 8498  21.207  24.219  14.397
36074W        W 8499  43.386  17.575   1.315
36075W        W 8500  18.132  37.429  13.437
36076W        W 8501  42.033  35.948   2.318
36077W        W 8502  27.139  43.473   4.233
36078W        W 8503  40.049  20.659  13.329
36079W        W 8504  36.408   0.330   1.391
36080W        W 8505  35.916  24.209   0.423
36081W        W 8506   1.811  41.500  14.780
36082W        W 8507   8.771  39.415  10.404
36083W        W 8508   2.873  39.901  11.549
36084W        W 8509  36.490  30.536  12.020
36085W        W 8510   9.866  19.744   1.435
36086W        W 8511   4.346  15.217   4.764
36087W        W 8512   0.310  21.650   1.413
36088W        W 8513  24.980  23.215   1.331
36089W        W 8514   4.421  40.905   0.261
36090W        W 8515   3.848  34.896  14.435
36091W        W 8516   7.739  33.894  12.886
36092W        W 8517  31.441  13.726  12.957
36093W        W 8518  34.073  23.563  12.002
36094W        W 8519   6.803  34.884   4.623
36095W        W 8520  23.630  31.520  13.391
36096W        W 8521   3.344   1.731   2.833
36097W        W 8522  26.549   3.827  11.044
36098W        W 8523  21.026  10.317   1.790
36099W        W 8524  23.199  35.385  12.955
36100W        W 8525  44.401  23.636   3.308
36101W        W 8526  30.544   3.454   2.839
36102W        W 8527  22.101   7.319  14.411
36103W        W 8528   1.941   1.792  11.945
36104W        W 8529  30.629  15.649  13.502
36105W        W 8530   3.856  23.644  14.025
36106W        W 8531  12.837   6.334  13.910
36107W        W 8532  29.615   3.325  11.002
36108W        W 8533   5.369  18.747   2.823
36109W        W 8534   9.694   6.697   4.683
36110W        W 8535  43.783  21.089   1.295
36111W        W 8536  41.870  21.159  10.114
36112W        W 8537  16.645   7.902  10.539
36113W        W 8538  44.485   9.790   0.452
36114W        W 8539  26.611   7.176   4.754
36115W        W 8540  29.151  20.621  11.485
36116W        W 8541  10.248  39.321  13.926
36117W        W 8542   6.409   1.764  11.044
36118W        W 8543   2.727   6.200   3.229
36119W        W 8544   2.958   7.889  13.025
36120W        W 8545  33.081  42.012  11.030
36121W        W 8546  16.745  24.089   3.662
36122W        W 8547  16.113  27.474   1.817
36123W        W 8548   5.366  20.147  10.936
36124W        W 8549  21.045  41.870   2.679
36125W        W 8550   0.302  27.621  11.991
36126W        W 8551  13.786   0.830   3.787
36127W        W 8552  26.645  10.852  13.050
36128W        W 8553  23.596   9.283  10.515
36129W        W 8554   3.742  29.615  10.517
36130W        W 8555   5.252   3.795   3.711
36131W        W 8556   5.417  23.224  13.513
36132W        W 8557  11.844  11.747  14.414
36133W        W 8558  40.934  43.399  10.474
36134W        W 8559   6.759  44.467   3.751
36135W        W 8560  37.833  43.908  13.487
36136W        W 8561  19.552  33.976   4.308
36137W        W 8562   3.238  21.517  12.885
36138W        W 8563  32.937   1.298   4.301
36139W        W 8564   5.242  43.809   2.345
36140W        W 8565  30.532  33.029  14.436
36141W        W 8566  44.475  24.164  13.795
36142W        W 8567  21.570  39.407  11.897
36143W        W 8568  13.184   7.203   0.305
36144W        W 8569  21.654  20.096  10.988
36145W        W 8570  14.114  41.420   2.810
36146W        W 8571   1.245  37.353  12.877
36147W        W 8572  11.809  23.597   4.723
36148W        W 8573  26.602  29.977  14.903
36149W        W 8574  44.459  28.940  11.928
36150W        W 8575  26.203   4.802   4.769
36151W        W 8576  40.310  25.071   2.266
36152W        W 8577  34.505  25.682   0.382
36153W        W 8578  42.993  17.772   1.364
36154W        W 8579  42.306  37.526   0.406
36155W        W 8580   0.431  37.896  11.453
36156W        W 8581  10.247  35.510  13.895
36157W        W 8582  32.518  29.057  14.506
36158W        W 8583  28.043  33.595  12.970
36159W        W 8584  31.026  31.927  11.069
36160W        W 8585  17.093  11.653   0.467
36161W        W 8586   1.797  26.677   3.820
36162W        W 8587  14.653  36.420  12.053
36163W        W 8588   9.700  28.086   4.746
36164W        W 8589  26.688  39.012  10.502
36165W        W 8590   2.362  10.366  11.388
36166W        W 8591   7.803  43.949   0.334
36167W        W 8592   4.349  17.768   1.853
36168W        W 8593  25.640  32.121  14.335
36169W        W 8594  28.937  24.574   4.265
36170W        W 8595  31.426  39.826  12.948
36171W        W 8596  35.856  43.422   3.161
36172W        W 8597  40.990  31.522  10.626
36173W        W 8598  21.201  19.774   0.268
36174W        W 8599  31.992   5.707  12.012
36175W        W 8600  28.661  24.000  14.770
36176W        W 8601  16.135  29.598   0.787
36177W        W 8602  29.543  14.800  11.947
36178W        W 8603  29.560  31.021   0.243
36179W        W 8604  12.160  27.677  10.547
36180W        W 8605   5.303  22.617   0.849
36181W        W 8606   7.884  28.578  14.864
36182W        W 8607  36.865  29.045   1.294
36183W        W 8608  40.816  11.338   0.413
36184W        W 8609  25.573   5.697  11.875
36185W        W 8610  31.472  34.076   4.615
36186W        W 8611  10.735  13.705   0.467
36187W        W 8612  23.139  21.090  11.091
36188W        W 8613   7.306  36.559   2.752
36189W        W 8614  28.100  19.059  14.850
36190W        W 8615   9.240  44.361  12.406
36191W        W 8616  25.506  35.543  11.522
36192W        W 8617  40.927  12.181  14.031
36193W        W 8618  13.719  16.575   2.252
36194W        W 8619  21.102  16.796   2.813
36195W        W 8620  25.018  26.141   3.684
36196W        W 8621  33.428  31.042   2.697
36197W        W 8622  31.952  13.106  13.441
36198W        W 8623   3.455  28.102  11.087
36199W        W 8624   9.177  23.021   3.220
36200W        W 8625  31.434  43.515  12.479
36201W        W 8626  38.043  31.468   2.286
36202W        W 8627  21.042  19.263  12.388
36203W        W 8628  20.181  10.833   4.800
36204W        W 8629  20.743  34.581  14.414
36205W        W 8630  28.504  42.902   1.755
36206W        W 8631  27.659  38.028   4.621
36207W        W 8632  28.582  41.874   2.308
36208W        W 8633  28.643  40.372   3.630
36209W        W 8634  10.322  25.646   3.280
36210W        W 8635  24.485  18.754  10.901
36211W        W 8636  16.634  23.177   2.753
36212W        W 8637  26.612  24.516   0.324
36213W        W 8638  21.218  25.089   2.289
36214W        W 8639  22.589   5.225  11.027
36215W        W 8640  26.075   2.237   3.180
36216W        W 8641  11.233   8.743   0.295
36217W        W 8642  27.597  24.504  13.841
36218W        W 8643   7.329  38.896   2.749
36219W        W 8644  24.639  24.702   4.783
36220W        W 8645  38.512   9.747   1.366
36221W        W 8646  43.791   8.807   2.196
36222W        W 8647   0.477  13.226   0.334
36223W        W 8648  35.592  30.574   2.315
36224W        W 8649  44.309  41.357   0.279
36225W        W 8650  27.496  19.138   4.803
36226W        W 8651  20.573  21.125  12.403
36227W        W 8652  22.026  20.232   3.840
36228W        W 8653  20.137   3.273  14.420
36229W        W 8654  34.868  22.583  11.075
36230W        W 8655  32.023  28.122   1.389
36231W        W 8656  33.928  12.185   3.787
36232W        W 8657   6.307  30.485   4.624
36233W        W 8658  39.448  14.759  10.565
36234W        W 8659  14.797  11.708   2.719
36235W        W 8660   1.307  35.389   2.302
36236W        W 8661  44.983  20.199   2.251
36237W        W 8662  14.290  16.295   1.900
36238W        W 8663  41.787  23.002  10.556
36239W        W 8664  13.646  26.966  13.993
36240W        W 8665  32.554   2.324   2.388
36241W        W 8666  13.298  37.506  11.077
36242W        W 8667   8.265  25.216  13.347
36243W        W 8668  39.535  22.513   2.889
36244W        W 8669  15.767   9.770  14.415
36245W        W 8670  22.093  44.873   0.348
36246W        W 8671  25.655  23.059   3.703
36247W        W 8672  37.409  10.192   2.343
36248W        W 8673  26.196  18.073  13.443
36249W        W 8674  30.656   6.747  10.426
36250W        W 8675  24.661  40.412   3.255
36251W        W 8676   7.763   0.329  13.386
36252W        W 8677  12.671   8.874  11.941
36253W        W 8678  31.135   7.731  11.581
36254W        W 8679  35.918   8.704  14.919
36255W        W 8680  30.025  26.169  11.900
36256W        W 8681  18.280  30.133  10.965
36257W        W 8682   6.268  12.653  10.961
36258W        W 8683  15.123  39.842   4.187
36259W        W 8684   9.792  22.724   3.295
36260W        W 8685  26.145   3.876  14.946
36261W        W 8686  21.600  15.228  10.470
36262W        W 8687  21.042  35.951  14.837
36263W        W 8688  44.884  44.433  10.991
36264W        W 8689   0.894  41.007   0.322
36265W        W 8690  35.046  18.138   4.292
36266W        W 8691  17.724   5.235   4.812
36267W        W 8692  27.029  13.301  12.860
36268W        W 8693  17.781  26.006   0.342
36269W        W 8694  39.558   5.769   2.296
36270W        W 8695   1.971  43.957  13.515
36271W        W 8696  33.615  38.985  10.616
36272W        W 8697  18.161  42.821   2.286
36273W        W 8698  39.443  26.636  13.875
36274W        W 8699   5.409  13.631  14.776
36275W        W 8700  37.862   5.201  11.581
36276W        W 8701  18.627  27.606  14.473
36277W        W 8702  22.665  23.225   4.608
36278W        W 8703  15.100   9.736   4.152
36279W        W 8704  31.014  28.133   0.340
36280W        W 8705  16.581   1.334  13.957
36281W        W 8706  10.644  41.796  10.949
36282W        W 8707  42.351  33.877  13.497
36283W        W 8708   1.734  31.931   2.237
36284W        W 8709  40.886  43.361  12.965
36285W        W 8710  30.503   8.402  14.014
36286W        W 8711  15.124   1.844   4.834
36287W        W 8712   7.707   4.754  12.575
36288W        W 8713   1.915  36.988  12.537
36289W        W 8714  28.120  40.847  11.486
36290W        W 8715  16.637  24.147   1.767
36291W        W 8716   5.208  36.943   0.325
36292W        W 8717  32.140   3.804   2.852
36293W        W 8718  36.540  44.865  11.119
36294W        W 8719   2.261   9.385   3.207
36295W        W 8720  34.009  23.060  11.011
36296W        W 8721   3.822  39.388   3.242
36297W        W 8722  22.711   8.255  10.457
36298W        W 8723  14.766  13.747  12.878
36299W        W 8724  16.232  40.972   0.865
36300W        W 8725  17.701  10.769  12.947
36301W        W 8726  25.147  41.400  11.036
36302W        W 8727  11.818  44.907  13.411
36303W        W 8728  16.203   1.444   3.280
36304W        W 8729  32.523  17.258   1.927
36305W        W 8730  11.237   7.321   3.366
36306W        W 8731  11.624  20.689   1.713
36307W        W 8732  43.298  37.340   2.403
36308W        W 8733  24.693   2.423   0.307
36309W        W 8734  32.543  34.396  14.963
36310W        W 8735  36.021  39.999  13.876
36311W        W 8736  43.997  15.269  12.967
36312W        W 8737  37.051  13.197  10.503
36313W        W 8738  29.963  20.666  10.494
36314W        W 8739   6.750   9.720   4.138
36315W        W 8740  33.564   7.723  14.445
36316W        W 8741   4.781   9.790   3.733
36317W        W 8742  35.885  27.071   1.735
36318W        W 8743   7.898   4.293  12.341
36319W        W 8744  18.561  13.105   1.738
36320W        W 8745  10.794  37.566  13.454
36321W        W 8746   0.294  40.889  11.962
36322W        W 8747   0.937  42.882  14.933
36323W        W 8748  11.298  38.849  12.034
36324W        W 8749  34.395  11.630  12.431
36325W        W 8750  33.887   7.892  13.378
36326W        W 8751   2.895  36.571  12.997
36327W        W 8752  18.787   6.367  13.394
36328W        W 8753  12.283  41.988   1.445
36329W        W 8754   8.402  16.195  13.925
36330W        W 8755  11.849  19.745  11.126
36331W        W 8756  27.139  37.955   1.389
36332W        W 8757  21.096  28.052  14.929
36333W        W 8758  44.812  13.672  13.825
36334W        W 8759  19.637  13.764  12.069
36335W        W 8760   4.797  32.526   2.395
36336W        W 8761   2.257  10.185   1.297
36337W        W 8762  24.679  31.466   0.908
36338W        W 8763  36.075  19.074   0.340
36339W        W 8764  30.440  26.501  12.054
36340W        W 8765  24.198  29.944   3.196
36341W        W 8766  32.067  26.659  11.388
36342W        W 8767   3.897  25.128   1.745
36343W        W 8768   8.292  13.299  13.405
36344W        W 8769  17.614  18.675   2.797
36345W        W 8770   8.310  26.193   0.332
36346W        W 8771  16.240  32.441   0.306
36347W        W 8772  20.621  22.601   0.460
36348W        W 8773   3.307  36.564   2.884
36349W        W 8774   3.441  12.852  14.863
36350W        W 8775  39.923   8.888   0.843
36351W        W 8776  16.289  24.997  10.426
36352W        W 8777   0.878   9.796   2.269
36353W        W 8778  30.500  23.177  13.498
36354W        W 8779  25.485   3.776   1.701
36355W        W 8780  43.007  25.168   1.812
36356W        W 8781   8.862  38.930  11.087
36357W        W 8782  17.722  27.670  13.883
36358W        W 8783  14.700  28.006  14.763
36359W        W 8784  34.449  27.616  11.036
36360W        W 8785  29.593   1.356  13.972
36361W        W 8786  24.057  12.171  12.014
36362W        W 8787   2.381  11.200  10.519
36363W        W 8788  12.230  38.438  14.323
36364W        W 8789   8.167  36.938   3.862
36365W        W 8790  40.492  14.303  11.097
36366W        W 8791  13.315  29.946   3.679
36367W        W 8792  38.915  15.239  11.421
36368W        W 8793   7.288   6.830   5.092
36369W        W 8794  23.585  34.479  14.351
36370W        W 8795  40.949  17.771  11.418
36371W        W 8796  41.043   6.818   0.783
36372W        W 8797  12.686   6.428  11.387
36373W        W 8798   1.465  33.578   0.247
36374W        W 8799  42.401   6.701  12.567
36375W        W 8800  28.056  31.593  10.145
36376W        W 8801  22.623  29.918   1.402
36377W        W 8802  20.084  33.927   0.379
36378W        W 8803  23.055   2.797  13.309
36379W        W 8804   9.666   1.255   2.692
36380W        W 8805  12.131  25.498   1.700
36381W        W 8806  17.263  16.250  14.332
36382W        W 8807  22.669  37.884   2.664
36383W        W 8808  35.079  10.822  10.613
36384W        W 8809   7.871   2.364   0.453
36385W        W 8810  18.129  36.977   0.797
36386W        W 8811  29.999  15.317  13.340
36387W        W 8812  16.567  44.783  11.606
36388W        W 8813  14.205  38.403  14.366
36389W        W 8814  30.924  16.269   0.914
36390W        W 8815  20.188  17.799   4.350
36391W        W 8816  16.077  30.019   4.163
36392W        W 8817  39.416  26.661  12.094
36393W        W 8818   5.703  29.592  11.977
36394W        W 8819  18.093  19.162   3.215
36395W        W 8820  20.147  28.994  12.003
36396W        W 8821   3.773   8.827   0.796
36397W        W 8822   8.372  41.025  12.861
36398W        W 8823  31.945  20.661   0.243
36399W        W 8824  20.233   6.872   2.688
36400W        W 8825  31.108   1.801  11.007
36401W        W 8826  19.068  14.308  11.899
36402W        W 8827  43.293   3.803   0.438
36403W        W 8828  15.249  15.681   4.221
36404W        W 8829  25.967  29.012   1.777
36405W        W 8830  17.691  12.349  13.833
36406W        W 8831  12.329  17.130   0.313
36407W        W 8832  11.665  23.496   0.845
36408W        W 8833  18.584   2.916  11.028
36409W        W 8834  11.682  29.647   3.655
36410W        W 8835   0.393  35.108   2.417
36411W        W 8836  20.643  14.269   4.790
36412W        W 8837  39.835  31.539  14.799
36413W        W 8838  39.061  40.506  10.615
36414W        W 8839  42.390  32.390  10.888
36415W        W 8840  11.835  13.350   5.147
36416W        W 8841  27.505   4.780  12.364
36417W        W 8842  35.883   1.403   0.448
36418W        W 8843   4.733   0.370  13.340
36419W        W 8844   9.722  18.272  12.521
36420W        W 8845   5.858  28.549   4.742
36421W        W 8846  14.592  35.561  11.084
36422W        W 8847   1.421  14.189  11.466
36423W        W 8848  33.129  11.854  12.006
36424W        W 8849  15.292  37.901   0.437
36425W        W 8850  23.994  36.897   0.749
36426W        W 8851  24.534  44.335   2.352
36427W        W 8852  25.627  40.372   2.716
36428W        W 8853  32.101  28.047  12.089
36429W        W 8854  23.508  30.090   3.218
36430W        W 8855  23.089  10.685   0.788
36431W        W 8856  34.056  32.066  12.340
36432W        W 8857  11.357  33.578   3.778
36433W        W 8858   2.242  38.385   3.800
36434W        W 8859   7.261  34.522  12.825
36435W        W 8860  35.077   0.848   3.363
36436W        W 8861  35.034  31.525  12.882
36437W        W 8862  33.942  37.554  12.342
36438W        W 8863  11.328  35.503   2.833
36439W        W 8864  15.788  23.163   4.288
36440W        W 8865  36.920  13.716   3.790
36441W        W 8866  17.699  32.926   1.752
36442W        W 8867  37.838  24.494  10.618
36443W        W 8868  40.425  12.132   0.378
36444W        W 8869  30.128  21.027  13.793
36445W        W 8870   5.288  16.083   4.774
36446W        W 8871  20.152  33.029   3.156
36447W        W 8872   7.353   9.665  12.501
36448W        W 8873  36.475   0.766  11.936
36449W        W 8874   3.340  16.721  12.966
36450W        W 8875  16.611  10.230   2.223
36451W        W 8876  21.669  41.795   4.625
36452W        W 8877  28.181   4.896   3.378
36453W        W 8878  25.128   0.943   2.769
36454W        W 8879  42.955  39.423   4.347
36455W        W 8880   9.788  25.486  11.031
36456W        W 8881  41.907  28.512  11.382
36457W        W 8882  42.843  14.800  12.865
36458W        W 8883  34.924   4.379  11.078
36459W        W 8884  40.929  12.811  14.484
36460W        W 8885  16.175  16.781  14.825
36461W        W 8886  16.292  22.572   2.730
36462W        W 8887  19.686   2.425   3.248
36463W        W 8888  10.381  31.571  13.464
36464W        W 8889  41.333  16.235   3.241
36465W        W 8890  25.076  12.615  11.967
36466W        W 8891  29.033  26.695   0.955
36467W        W 8892  24.154   4.249  11.069
36468W        W 8893  21.207  38.838   2.279
36469W        W 8894  13.328  35.505  12.926
36470W        W 8895  39.407  35.436  12.493
36471W        W 8896  34.087  38.428   2.212
36472W        W 8897  41.814  11.356   1.415
36473W        W 8898  31.421   0.753  13.008
36474W        W 8899   3.878  40.418  12.896
36475W        W 8900  16.807  43.860  14.761
36476W        W 8901  17.275  17.215   1.710
36477W        W 8902  16.804  15.599   4.255
36478W        W 8903  40.509  19.565  14.847
36479W        W 8904  27.117  39.825   4.263
36480W        W 8905  10.376   1.391  11.858
36481W        W 8906  34.530  17.582  11.383
36482W        W 8907  31.575  37.982  14.515
36483W        W 8908  29.492  28.103   1.920
36484W        W 8909  44.822  26.506   0.911
36485W        W 8910  17.782  17.737   3.683
36486W        W 8911   7.782  35.002   3.372
36487W        W 8912  44.455  18.105  10.634
36488W        W 8913  29.069  31.570  12.933
36489W        W 8914  11.630  13.749  14.868
36490W        W 8915  34.477  21.652  13.344
36491W        W 8916  34.870  38.486  12.035
36492W        W 8917  33.006  10.741  10.620
36493W        W 8918  25.084  43.845   1.420
36494W        W 8919  44.826  42.448   1.791
36495W        W 8920   6.847   5.353  11.023
36496W        W 8921  16.181  28.013  14.409
36497W        W 8922  35.526  33.617  13.440
36498W        W 8923  41.423  39.557  11.450
36499W        W 8924  39.432   9.845   1.696
36500W        W 8925  14.690  22.106   4.683
36501W        W 8926   5.713  15.678   3.194
36502W        W 8927  21.607  38.934  14.962
36503W        W 8928   2.906   3.752   0.382
36504W        W 8929  32.962   2.824  12.410
36505W        W 8930  43.779   5.217  12.492
36506W        W 8931  14.129   4.871   4.697
36507W        W 8932   4.803  30.011   2.779
36508W        W 8933  29.660   7.274  13.830
36509W        W 8934  40.398  31.543  13.444
36510W        W 8935  34.944   3.257  14.284
36511W        W 8936  10.357  40.972  12.022
36512W        W 8937   7.412  21.225   3.721
36513W        W 8938  19.771  24.028   0.790
36514W        W 8939  12.345  12.616  12.984
36515W        W 8940  34.579  33.563   2.361
36516W        W 8941  19.170   5.904  13.888
36517W        W 8942  43.799   0.369  13.534
36518W        W 8943  30.984   7.852   0.269
36519W        W 8944   4.756  39.055   3.756
36520W        W 8945   4.733   6.215  13.996
36521W        W 8946   9.749  18.282  10.532
36522W        W 8947  33.110  41.902  11.968
36523W        W 8948  40.964  36.421   4.352
36524W        W 8949  23.117  32.545  13.953
36525W        W 8950  36.885   6.291   0.751
36526W        W 8951  39.824   5.346  11.599
36527W        W 8952  13.814   8.299  13.951
36528W        W 8953  16.661  33.597   1.825
36529W        W 8954  31.110  13.826  10.942
36530W        W 8955  11.753   1.476   4.292
36531W        W 8956  28.587  31.036  12.982
36532W        W 8957  25.173  21.527   3.346
36533W        W 8958  15.642  20.195   1.746
36534W        W 8959  42.898   0.484   0.289
36535W        W 8960  28.621  42.899   2.339
36536W        W 8961  25.171   1.941   1.934
36537W        W 8962  33.933  14.152  14.355
36538W        W 8963  31.429  26.013   0.839
36539W        W 8964  37.916   9.262  13.544
36540W        W 8965  25.568   1.436  14.830
36541W        W 8966  36.021   2.257  12.893
36542W        W 8967  26.098  27.460   1.426
36543W        W 8968   5.196  44.993  11.482
36544W        W 8969   6.886  21.141  14.468
36545W        W 8970  15.322  31.036  12.858
36546W        W 8971  12.644  32.563  13.966
36547W        W 8972  38.563  17.063  11.029
36548W        W 8973  22.227  22.242  14.418
36549W        W 8974  20.620  16.766  11.491
36550W        W 8975  11.142  38.998  14.010
36551W        W 8976  29.146  32.503   5.243
36552W        W 8977  18.696   0.330  11.387
36553W        W 8978  39.522  24.509   1.803
36554W        W 8979   2.878  24.168  12.465
36555W        W 8980  34.491  16.093   3.685
36556W        W 8981  10.369   9.794   4.674
36557W        W 8982   5.703  10.379   9.980
36558W        W 8983  37.878  41.033   0.834
36559W        W 8984  43.438   4.849  13.008
36560W        W 8985  23.075  24.064  13.791
36561W        W 8986  12.793  24.224  11.953
36562W        W 8987  26.972   6.339   3.703
36563W        W 8988  22.688  39.390  11.432
36564W        W 8989   6.398   6.232  11.532
36565W        W 8990  43.893  16.773   1.280
36566W        W 8991  35.027  29.146  13.005
36567W        W 8992  28.654  19.081   3.743
36568W        W 8993  13.154  41.978  12.532
36569W        W 8994  24.610  16.804   0.948
36570W        W 8995  17.145  25.015   0.445
36571W        W 8996  21.688  42.900  13.063
36572W        W 8997  27.454  15.811  11.409
36573W        W 8998  29.453  20.252   1.255
36574W        W 8999  27.601  40.043   2.377
36575W        W 9000  21.124   0.840   0.887
36576W        W 9001  26.531  17.740  14.512
36577W        W 9002  37.061  16.599   4.350
36578W        W 9003  36.046  18.739  12.028
36579W        W 9004  16.629  21.733  14.891
36580W        W 9005   1.919   9.364   5.228
36581W        W 9006  35.602  13.840   1.871
36582W        W 9007  36.878  34.994   2.265
36583W        W 9008  36.998  36.492   2.861
36584W        W 9009   1.320   5.265  14.469
36585W        W 9010  43.417   0.887  12.489
36586W        W 9011  20.640   8.845  12.828
36587W        W 9012  31.593  16.775  10.422
36588W        W 9013  24.676  16.287  13.815
36589W        W 9014  30.967  39.534  13.336
36590W        W 9015  13.695  44.802   2.250
36591W        W 9016  29.046  25.033  11.089
36592W        W 9017  11.718  32.634  13.033
36593W        W 9018  41.922  29.101  11.019
36594W        W 9019  18.228  21.595  13.857
36595W        W 9020  33.012   6.264  11.944
36596W        W 9021  34.462   7.197   2.185
36597W        W 9022  28.579   4.211   4.145
36598W        W 9023  37.574  42.898  11.912
36599W        W 9024  41.846  42.402   3.192
36600W        W 9025   3.882  33.903   0.806
36601W        W 9026   1.953  35.907  11.099
36602W        W 9027  33.929  32.480   1.336
36603W        W 9028  20.545  12.688   3.159
36604W        W 9029  20.097  24.112   2.796
36605W        W 9030  30.077  41.901  10.552
36606W        W 9031  14.702  19.185  13.397
36607W        W 9032   3.316  22.593  14.984
36608W        W 9033  17.260  10.274   1.792
36609W        W 9034  22.552  19.763  12.399
36610W        W 9035  11.130   3.344   0.806
36611W        W 9036   2.444  42.966   5.195
36612W        W 9037  44.795   8.307  10.966
36613W        W 9038  11.731  23.147  11.373
36614W        W 9039  28.960  18.126  12.964
36615W        W 9040   0.311  14.310  12.975
36616W        W 9041  28.085   5.255   1.751
36617W        W 9042  11.788   2.453   1.414
36618W        W 9043   8.681  20.570  12.827
36619W        W 9044   5.254  32.467  12.565
36620W        W 9045   4.799   9.184   5.272
36621W        W 9046  40.040  24.640  12.954
36622W        W 9047  19.715  34.008  10.513
36623W        W 9048   6.699  32.037   0.357
36624W        W 9049  33.585  14.145  12.525
36625W        W 9050   3.321  12.696  12.474
36626W        W 9051  44.993  18.277   3.726
36627W        W 9052  44.972  14.675  10.494
36628W        W 9053  44.823  19.271   3.745
36629W        W 9054  29.639  37.364  10.539
36630W        W 9055   0.858  23.155  12.523
36631W        W 9056   5.720  21.692  11.481
36632W        W 9057  12.855  26.613  14.847
36633W        W 9058  23.127  12.744   3.680
36634W        W 9059  43.515  31.604  10.452
36635W        W 9060  19.705  38.383  13.983
36636W        W 9061  30.647  10.312  11.049
36637W        W 9062  20.662  38.073   1.812
36638W        W 9063  21.189  33.596  13.333
36639W        W 9064  18.058  37.835  14.431
36640W        W 9065  42.824   0.359  10.472
36641W        W 9066  11.156  29.547  11.980
36642W        W 9067  42.289  36.082  13.052
36643W        W 9068  16.303  18.574  14.014
36644W        W 9069  31.038  37.370   4.828
36645W        W 9070  31.590   2.803   2.759
36646W        W 9071  38.375  21.182   4.802
36647W        W 9072  10.707  18.624   4.781
36648W        W 9073  21.083  14.777  13.914
36649W        W 9074  43.479  14.272  12.982
36650W        W 9075  20.610  30.526  12.867
36651W        W 9076  42.464  10.797   1.887
36652W        W 9077   1.855  13.607   2.199
36653W        W 9078  42.472  11.843  12.487
36654W        W 9079  43.474  21.635   0.758
36655W        W 9080  11.272  15.794   3.226
36656W        W 9081  39.402  21.181   2.679
36657W        W 9082  34.549  12.822   0.944
36658W        W 9083  10.840  16.152   1.221
36659W        W 9084  10.139   7.355  14.310
36660W        W 9085   8.327   5.201  11.088
36661W        W 9086  16.117  35.596   3.252
36662W        W 9087  39.996  32.395  10.458
36663W        W 9088   3.785  35.381  12.513
36664W        W 9089   4.448  26.588  11.452
36665W        W 9090   4.843  35.475  10.465
36666W        W 9091   9.857  41.944   1.755
36667W        W 9092  18.666  13.281  14.420
36668W        W 9093   1.741  33.396   1.422
36669W        W 9094   8.399  19.672   0.245
36670W        W 9095  22.060   2.242  13.503
36671W        W 9096  25.522  17.226   4.622
36672W        W 9097   7.285  32.091   2.402
36673W        W 9098  39.452   8.721   4.824
36674W        W 9099  11.174  10.274   5.089
36675W        W 9100  22.065   3.267  11.034
36676W        W 9101   4.880   2.869   1.329
36677W        W 9102  41.945  14.208  11.004
36678W        W 9103  19.257   0.929  10.614
36679W        W 9104  37.439  15.640  13.979
36680W        W 9105   6.278   7.212   0.805
36681W        W 9106   5.930  27.974  13.004
36682W        W 9107  29.920  11.735   2.726
36683W        W 9108   2.904   4.222  12.451
36684W        W 9109   6.388  18.627  10.622
36685W        W 9110  15.774  31.428  13.350
36686W        W 9111  36.550  11.748  10.934
36687W        W 9112  13.155  16.205   2.327
36688W        W 9113  43.993   2.763   0.935
36689W        W 9114  16.608  10.820  12.941
36690W        W 9115  41.960   8.299   3.152
36691W        W 9116  21.753  23.669  14.350
36692W        W 9117   7.838  38.537   2.346
36693W        W 9118  40.046   8.816   4.193
36694W        W 9119  34.070   2.288  13.401
36695W        W 9120  21.234  30.005  12.417
36696W        W 9121  15.758  18.579   5.246
36697W        W 9122  36.922   1.327   0.428
36698W        W 9123   5.698   0.487   0.904
36699W        W 9124  15.726  29.055   1.841
36700W        W 9125  14.099   9.697  14.466
36701W        W 9126   8.358   1.453  12.853
36702W        W 9127  38.439  25.084   9.483
36703W        W 9128  31.440  12.639   2.332
36704W        W 9129  19.055  23.031  10.549
36705W        W 9130   4.897  25.714  11.409
36706W        W 9131   1.902   2.451  10.638
36707W        W 9132   9.853  41.457   2.329
36708W        W 9133  27.180   5.400   4.644
36709W        W 9134   4.448  24.579  12.876
36710W        W 9135   2.431  38.498   1.761
36711W        W 9136  22.659  30.026   0.735
36712W        W 9137  28.056  40.532  12.339
36713W        W 9138   2.396  11.299   2.353
36714W        W 9139  14.753  44.967   0.309
36715W        W 9140  35.571  23.237  13.527
36716W        W 9141  14.203  11.310  13.021
36717W        W 9142  18.721  23.723   1.706
36718W        W 9143  26.160   4.227  10.959
36719W        W 9144  38.360  28.485   2.853
36720W        W 9145  20.123   4.228   1.326
36721W        W 9146   4.320   7.823  13.946
36722W        W 9147  31.562  29.054  11.437
36723W        W 9148  19.704   7.904   4.299
36724W        W 9149  17.746   9.845   0.784
36725W        W 9150  35.069   5.795   4.602
36726W        W 9151  40.549   0.892   0.800
36727W        W 9152  11.137  42.951  14.475
36728W        W 9153  15.806  37.441   1.779
36729W        W 9154  15.124  32.492   4.641
36730W        W 9155  40.536  30.028   3.676
36731W        W 9156  35.919  42.973   2.178
36732W        W 9157  13.718  36.869  12.899
36733W        W 9158  31.045  10.732  11.048
36734W        W 9159   4.387  20.619  14.289
36735W        W 9160  41.029  39.939  10.501
36736W        W 9161  32.449   1.298  13.834
36737W        W 9162  23.989  27.481  13.942
36738W        W 9163  30.072  35.372   3.838
36739W        W 9164  30.944  10.184  10.477
36740W        W 9165  44.481  19.225   0.301
36741W        W 9166   6.872  28.182   4.310
36742W        W 9167   4.740  22.619  13.825
36743W        W 9168  22.601  18.768  11.388
36744W        W 9169  24.707  10.659   5.087
36745W        W 9170  16.271   3.365   1.909
36746W        W 9171  18.268   1.812   3.690
36747W        W 9172  13.174   8.246   1.808
36748W        W 9173  28.112  44.259   2.416
36749W        W 9174  11.640  40.436   3.716
36750W        W 9175  19.121  26.102   4.618
36751W        W 9176  18.147  38.336  11.492
36752W        W 9177  20.546  16.305  12.560
36753W        W 9178  30.062  33.439   3.165
36754W        W 9179   6.796  20.732  12.931
36755W        W 9180  29.441  29.937  14.928
36756W        W 9181  34.476  14.679   4.215
36757W        W 9182  42.350  24.669   4.251
36758W        W 9183  43.290  30.083  11.994
36759W        W 9184  28.965   7.758  10.982
36760W        W 9185  24.622  10.182   5.179
36761W        W 9186  24.593  36.061  14.467
36762W        W 9187  19.051   8.691  12.519
36763W        W 9188  24.072  38.458  12.513
36764W        W 9189  24.219  28.108   0.450
36765W        W 9190  39.426   0.775   3.866
36766W        W 9191   3.779   0.945   4.732
36767W        W 9192  16.311  21.606  11.905
36768W        W 9193  39.023  42.961   2.691
36769W        W 9194  43.420  41.904   1.716
36770W        W 9195   9.702  36.996   2.222
36771W        W 9196  33.118  17.598  12.350
36772W        W 9197   5.852  20.568  12.978
36773W        W 9198  31.027  26.022  12.000
36774W        W 9199  43.348  11.707   1.744
36775W        W 9200  19.074  15.188   3.328
36776W        W 9201  14.742  17.706  14.374
36777W        W 9202  25.612  33.468  13.891
36778W        W 9203  36.846   5.807  11.495
36779W        W 9204  38.845  22.665  10.006
36780W        W 9205  22.522  18.186   2.215
36781W        W 9206   1.299  41.496   4.304
36782W        W 9207  24.043  18.657   1.798
36783W        W 9208  31.524   6.816  11.988
36784W        W 9209  25.489  22.517  12.995
36785W        W 9210  39.443  38.353   3.250
36786W        W 9211  43.497  27.180   1.282
36787W        W 9212  41.793  20.076   4.130
36788W        W 9213  26.635   1.374  12.079
36789W        W 9214  29.944   8.381   0.834
36790W        W 9215  10.189   2.821   3.844
36791W        W 9216  15.620  24.493   2.866
36792W        W 9217  41.829  43.988  10.953
36793W        W 9218  13.274  32.027  10.458
36794W        W 9219  43.475   8.778   2.902
36795W        W 9220  40.898  21.041   3.683
36796W        W 9221  23.589  28.443  11.960
36797W        W 9222  19.248  20.536  13.889
36798W        W 9223  32.568  39.004  14.802
36799W        W 9224  44.808  28.626  11.113
36800W        W 9225  26.555  12.133  11.060
36801W        W 9226  11.769  22.201   3.253
36802W        W 9227  34.407  36.025   1.254
36803W        W 9228  33.879   8.680   3.352
36804W        W 9229  25.641   4.430   1.848
36805W        W 9230  34.096  16.295   0.433
36806W        W 9231  36.060  20.034  11.597
36807W        W 9232  35.883   7.752   3.217
36808W        W 9233   3.745  41.431   0.404
36809W        W 9234  31.502  38.007   4.830
36810W        W 9235  44.773  30.156   2.315
36811W        W 9236   9.174  35.448  14.472
36812W        W 9237  33.990  23.656   1.226
36813W        W 9238  25.023  38.895  14.411
36814W        W 9239  23.601  43.921   4.255
36815W        W 9240   2.962  29.546  13.524
36816W        W 9241  14.637   6.711  12.891
36817W        W 9242  10.738   1.296  12.389
36818W        W 9243  31.129  31.082  14.300
36819W        W 9244  35.500   3.400   1.431
36820W        W 9245  35.509  35.538  12.944
36821W        W 9246  35.502  38.870  10.468
36822W        W 9247   0.971  11.860  12.491
36823W        W 9248  11.281  12.344   2.722
36824W        W 9249  33.513  34.542   4.289
36825W        W 9250  39.027  35.408   3.707
36826W        W 9251  30.439  35.037   4.720
36827W        W 9252   7.790  33.574   0.822
36828W        W 9253  41.991  25.125   3.655
36829W        W 9254  18.154   9.768   0.333
36830W        W 9255  17.299  36.033   5.205
36831W        W 9256  34.535  19.737   1.243
36832W        W 9257  22.212  15.209  10.486
36833W        W 9258  21.627  20.193   3.214
36834W        W 9259  29.151   7.685  11.519
36835W        W 9260  36.416  33.914  12.422
36836W        W 9261  12.617  35.565   0.474
36837W        W 9262  24.203  42.495   3.201
36838W        W 9263  38.000  31.538  11.944
36839W        W 9264  43.484  31.106  14.994
36840W        W 9265  28.044  38.960  10.560
36841W        W 9266  20.122  39.983   1.317
36842W        W 9267   1.866  11.331  13.445
36843W        W 9268  43.505  33.559  12.975
36844W        W 9269   9.669   3.775   4.135
36845W        W 9270  38.819   8.182  13.331
36846W        W 9271  40.006  12.311  10.427
36847W        W 9272   6.923  41.818   2.850
36848W        W 9273  25.603  30.055   4.709
36849W        W 9274  32.895   6.387  11.475
36850W        W 9275  30.644   0.251   3.385
36851W        W 9276  27.097  24.200   2.825
36852W        W 9277  28.661   0.286  13.398
36853W        W 9278   6.801  11.731   0.957
36854W        W 9279  37.947  22.078   1.382
36855W        W 9280   0.817   9.287   4.285
36856W        W 9281  20.235  37.446   5.189
36857W        W 9282  29.947  15.278  11.579
36858W        W 9283  34.111  34.077   2.274
36859W        W 9284   3.418  19.546  13.796
36860W        W 9285   2.847  24.121   1.757
36861W        W 9286  29.611   6.685  13.798
36862W        W 9287  23.167  34.091  12.436
36863W        W 9288  11.172  20.037  12.012
36864W        W 9289  18.773  18.270   3.167
36865W        W 9290  25.103   4.743   2.851
36866W        W 9291   7.303  15.730  10.946
36867W        W 9292  30.646  11.815  12.480
36868W        W 9293   1.786  22.628   1.856
36869W        W 9294  31.154  16.796   1.726
36870W        W 9295   7.706  29.128   1.825
36871W        W 9296  36.859  16.153   4.297
36872W        W 9297  10.273  20.159  13.309
36873W        W 9298  24.638  33.067  14.510
36874W        W 9299  25.103   9.349  11.969
36875W        W 9300  30.097   3.928  11.968
36876W        W 9301  21.592  32.557   0.835
36877W        W 9302  40.349   9.849   1.364
36878W        W 9303  36.855  34.442  14.848
36879W        W 9304  35.449  38.454  10.525
36880W        W 9305   4.814   7.747  12.427
36881W        W 9306  44.797   1.238   3.146
36882W        W 9307   0.837  20.728   2.201
36883W        W 9308   1.841  19.200   1.856
36884W        W 9309  31.984   4.766  11.981
36885W        W 9310   6.255  18.761   2.182
36886W        W 9311  36.583  24.715   0.310
36887W        W 9312  40.475  19.699   4.823
36888W        W 9313  26.078   5.237  10.533
36889W        W 9314   6.822  39.333  11.553
36890W        W 9315   8.725  33.612   1.901
36891W        W 9316  26.663   3.277  11.014
36892W        W 9317  36.429  28.586   1.233
36893W        W 9318  32.971   8.821  14.484
36894W        W 9319  28.638  23.108   0.320
36895W        W 9320  24.668   1.807   0.967
36896W        W 9321   9.192   4.392  13.938
36897W        W 9322   4.233  35.961  10.485
36898W        W 9323   9.884  41.851  12.574
36899W        W 9324  29.621  32.998  14.351
36900W        W 9325  15.287  12.671   0.400
36901W        W 9326  21.531   9.803  14.906
36902W        W 9327  26.088  41.367  13.796
36903W        W 9328  22.729  39.447  13.858
36904W        W 9329  44.470  27.491   1.270
36905W        W 9330  40.879  22.152   0.947
36906W        W 9331  42.429  19.205  10.419
36907W        W 9332  24.043  40.808  13.357
36908W        W 9333  19.568   4.737  13.380
36909W        W 9334  40.418  21.037  10.632
36910W        W 9335  16.807  43.434  13.373
36911W        W 9336   8.703   8.204  11.115
36912W        W 9337  25.040  17.145  10.476
36913W        W 9338  30.598   2.250   0.953
36914W        W 9339  17.672  12.192   4.171
36915W        W 9340  40.494  18.574  12.482
36916W        W 9341  28.143  44.846  10.903
36917W        W 9342  17.277  20.749   3.805
36918W        W 9343  27.496  21.137   0.782
36919W        W 9344   7.705   2.390   0.737
36920W        W 9345  21.221  21.078   3.781
36921W        W 9346  41.304  42.473   4.739
36922W        W 9347  10.365  41.424  14.389
36923W        W 9348  28.948  36.558  13.487
36924W        W 9349   3.436   4.869   0.252
36925W        W 9350   3.862  18.630   2.826
36926W        W 9351  43.301   1.243  14.332
36927W        W 9352  35.009  18.080  12.471
36928W        W 9353  44.322  23.169  12.366
36929W        W 9354  32.887  22.032   0.416
36930W        W 9355  39.954  13.171  11.119
36931W        W 9356   4.719  42.322  11.553
36932W        W 9357  42.497  35.437   2.291
36933W        W 9358  38.934  41.942  12.432
36934W        W 9359   9.198  35.453  12.394
36935W        W 9360  38.855  15.792   0.746
36936W        W 9361  41.477  42.004   0.813
36937W        W 9362  29.657  23.126   3.853
36938W        W 9363  27.671  39.493   0.852
36939W        W 9364  19.069  32.905   4.821
36940W        W 9365  30.928  41.821  13.466
36941W        W 9366   6.357  36.073  10.979
36942W        W 9367  21.512  26.135   2.207
36943W        W 9368  13.122  44.393  10.932
36944W        W 9369  16.640   8.687  13.801
36945W        W 9370  34.991   2.893  13.996
36946W        W 9371   6.718  30.103  13.532
36947W        W 9372  42.924  24.663  14.448
36948W        W 9373  32.619  31.143   4.251
36949W        W 9374  33.591   1.382  14.312
36950W        W 9375  32.951  34.480   3.710
36951W        W 9376  37.864  16.723   1.872
36952W        W 9377  34.866   6.351  12.857
36953W        W 9378  30.472  31.570  13.372
36954W        W 9379   1.824  15.267   2.406
36955W        W 9380  31.109  19.090   0.470
36956W        W 9381   0.326  28.545   2.746
36957W        W 9382   3.939  26.155   3.301
36958W        W 9383  12.179  27.189  10.446
36959W        W 9384  12.758  38.074   1.346
36960W        W 9385  13.746   8.664  12.003
36961W        W 9386  34.032  18.074   3.209
36962W        W 9387  38.554  18.180   1.298
36963W        W 9388  31.986  40.307  14.024
36964W        W 9389  24.513   9.755  11.869
36965W        W 9390  43.327  26.105  10.976
36966W        W 9391  34.379  21.101  13.930
36967W        W 9392   6.757  31.596  11.989
36968W        W 9393   8.813  40.493   4.642
36969W        W 9394  10.341  42.808  11.011
36970W        W 9395  31.420  33.035  14.898
36971W        W 9396  15.124   4.938   1.257
36972W        W 9397  16.198  23.125   1.247
36973W        W 9398   9.344  18.635  12.058
36974W        W 9399  38.049   3.752  11.896
36975W        W 9400  43.315  10.868   4.299
36976W        W 9401  20.056  37.981   2.754
36977W        W 9402  26.670  16.271   3.632
36978W        W 9403  39.982  35.005   3.187
36979W        W 9404  35.423  40.867  14.856
36980W        W 9405  21.605  20.585   4.706
36981W        W 9406  34.946  37.947  10.575
36982W        W 9407  18.683   3.460  13.910
36983W        W 9408   2.858  44.383   1.344
36984W        W 9409  34.454   2.307   3.290
36985W        W 9410  28.174  26.975  10.439
36986W        W 9411  23.725  15.697   0.461
36987W        W 9412  40.341   9.840   1.800
36988W        W 9413  20.254  30.017   0.940
36989W        W 9414  26.133  34.540   3.663
36990W        W 9415   3.913  18.602  10.475
36991W        W 9416  41.027  32.429  10.609
36992W        W 9417  33.480  39.061   0.373
36993W        W 9418  39.868  10.357   1.419
36994W        W 9419  13.262  39.342  12.353
36995W        W 9420  44.297  24.658  10.514
36996W        W 9421  30.030  15.282   4.150
36997W        W 9422  33.952  12.131  11.486
36998W        W 9423  19.159  35.089   3.724
36999W        W 9424   9.841   7.757  13.527
37000W        W 9425  11.227  43.334   2.242
37001W        W 9426   1.881  12.706  11.456
37002W        W 9427  41.368   1.780  10.561
37003W        W 9428  17.584   0.893   0.459
37004W        W 9429  19.723  39.933   0.801
37005W        W 9430  35.453  30.052  14.987
37006W        W 9431  34.085  15.174  12.030
37007W        W 9432  22.620  35.418   1.307
37008W        W 9433  42.425  22.025   1.915
37009W        W 9434   7.667  23.163   1.376
37010W        W 9435  14.175  32.435  13.962
37011W        W 9436   2.328  28.087   2.192
37012W        W 9437  33.083  11.331   1.281
37013W        W 9438  34.493  44.823   1.346
37014W        W 9439   5.883   8.229  11.461
37015W        W 9440  25.014  41.381  13.494
37016W        W 9441   3.258  44.474  13.368
37017W        W 9442  10.660   3.922   1.297
37018W        W 9443  28.174  25.997  12.519
37019W        W 9444  39.845  44.967   1.696
37020W        W 9445  20.654   7.861   3.636
37021W        W 9446  42.373  31.473  12.449
37022W        W 9447  13.108  20.690  13.949
37023W        W 9448   5.860  41.479  14.361
37024W        W 9449  40.493   1.252   0.276
37025W        W 9450  13.771  16.096   3.367
37026W        W 9451   3.719   2.849   4.321
37027W        W 9452  28.465   7.176  11.094
37028W        W 9453   7.788  20.258   3.728
37029W        W 9454  40.355  35.586  10.490
37030W        W 9455   5.380  32.927  12.038
37031W        W 9456  16.662  10.211  12.000
37032W        W 9457  12.675  39.860   4.679
37033W        W 9458   5.745  25.995  11.502
37034W        W 9459  40.351  25.038   1.868
37035W        W 9460   0.379  29.118  12.095
37036W        W 9461   4.448  36.001  14.778
37037W        W 9462  11.728   2.752   0.807
37038W        W 9463  32.117   4.884  11.411
37039W        W 9464  44.455  11.777  13.050
37040W        W 9465  17.138  38.538   1.445
37041W        W 9466  22.582  18.245   9.928
37042W        W 9467   9.195  32.440  13.478
37043W        W 9468  14.802  26.691  12.345
37044W        W 9469  41.443  14.689   2.249
37045W        W 9470   8.853  29.008   0.289
37046W        W 9471  14.809  26.510   1.934
37047W        W 9472   7.740  35.050  11.119
37048W        W 9473   5.278  35.902  13.921
37049W        W 9474   6.322  19.088  14.408
37050W        W 9475  43.274  37.852   3.381
37051W        W 9476   4.703  43.442  14.464
37052W        W 9477   1.378  32.433  10.993
37053W        W 9478   4.825  22.099   1.920
37054W        W 9479  31.401  17.130   1.887
37055W        W 9480   2.843  31.079  11.521
37056W        W 9481   2.766  12.241  12.983
37057W        W 9482  24.504   7.209  10.931
37058W        W 9483   2.459   9.692  14.444
37059W        W 9484   8.840  20.637   3.200
37060W        W 9485   5.291  30.978  12.401
37061W        W 9486   0.761   6.411   0.803
37062W        W 9487  31.023   7.779   4.837
37063W        W 9488  38.458  20.575  12.052
37064W        W 9489  41.333   6.317   0.412
37065W        W 9490   4.213  38.898   4.206
37066W        W 9491  28.530  33.936   5.766
37067W        W 9492  14.674   4.725  14.884
37068W        W 9493  33.521  18.205  11.063
37069W        W 9494  38.041  27.472  11.996
37070W        W 9495  29.976  11.218   2.703
37071W        W 9496  39.970  43.853  13.397
37072W        W 9497  35.429  14.271  12.561
37073W        W 9498  25.068   7.715   2.820
37074W        W 9499   7.285  11.133  13.949
37075W        W 9500  28.179  25.012  10.419
37076W        W 9501   9.767  20.697  14.947
37077W        W 9502  11.134   7.883   0.851
37078W        W 9503  21.067   0.471  14.330
37079W        W 9504  31.068  33.466  10.106
37080W        W 9505   3.385  23.004   1.761
37081W        W 9506  23.984  33.938  11.951
37082W        W 9507   9.810  19.259  12.030
37083W        W 9508  20.127  32.507   4.819
37084W        W 9509  15.627  18.148   3.259
37085W        W 9510  41.812  28.620   3.181
37086W        W 9511  38.979  32.445   3.664
37087W        W 9512  22.612  14.159  13.005
37088W        W 9513  22.200  29.979   1.935
37089W        W 9514  30.658   8.341   0.470
37090W        W 9515  18.281  31.900   1.924
37091W        W 9516  14.121  26.007   4.231
37092W        W 9517   9.774  26.519   4.807
37093W        W 9518  29.476  31.488   5.156
37094W        W 9519  20.259  23.553  11.419
37095W        W 9520  23.624  19.604   4.276
37096W        W 9521  31.015  40.992  13.994
37097W        W 9522   3.384  27.573  12.941
37098W        W 9523  12.813  20.711   4.827
37099W        W 9524  40.841  20.695   2.396
37100W        W 9525  32.558  11.295  13.806
37101W        W 9526  40.000  26.086   3.340
37102W        W 9527   7.390  29.520  14.374
37103W        W 9528  21.690  35.563   1.866
37104W        W 9529  31.443   3.884   2.279
37105W        W 9530  17.561  18.667   3.737
37106W        W 9531  16.773  21.539   4.647
37107W        W 9532  28.530  32.503  12.551
37108W        W 9533  10.634   1.240  11.104
37109W        W 9534  22.533  16.189   4.782
37110W        W 9535  12.721   1.972   0.344
37111W        W 9536  13.785  17.139  11.442
37112W        W 9537  10.141  17.748   1.334
37113W        W 9538  37.889  41.431  12.868
37114W        W 9539  43.374  11.820  14.973
37115W        W 9540  37.078   1.263  11.001
37116W        W 9541   5.319  28.477  14.801
37117W        W 9542  34.447  12.637   3.167
37118W        W 9543  30.440  40.512   4.616
37119W        W 9544   6.876  15.625   3.152
37120W        W 9545   5.213  37.559   0.408
37121W        W 9546  38.879  28.162  12.925
37122W        W 9547  24.615  12.151  13.823
37123W        W 9548   9.281  44.969  10.947
37124W        W 9549  13.758  44.339  13.333
37125W        W 9550  26.543  19.737  14.761
37126W        W 9551  38.480  41.932   0.740
37127W        W 9552  15.708   4.828   4.817
37128W        W 9553   9.767  12.855   4.232
37129W        W 9554  20.645  12.660  10.958
37130W        W 9555  25.705  29.514   1.437
37131W        W 9556  13.707   8.305  14.991
37132W        W 9557  35.108  33.572  13.046
37133W        W 9558  38.353  33.045  10.514
37134W        W 9559  14.710  40.985  13.862
37135W        W 9560  30.025  38.823  13.425
37136W        W 9561  25.703  35.598   2.793
37137W        W 9562  24.094  34.035  14.886
37138W        W 9563  35.958  27.085   0.888
37139W        W 9564  23.489  23.089  14.973
37140W        W 9565  11.286  11.742   0.910
37141W        W 9566  15.743  26.473  12.039
37142W        W 9567  38.052  17.656   1.299
37143W        W 9568  22.520  41.527  14.891
37144W        W 9569   8.391  41.449   3.247
37145W        W 9570  38.072  35.062   3.724
37146W        W 9571  19.269   8.393   2.278
37147W        W 9572  40.892  22.022  13.307
37148W        W 9573  33.981  44.396   0.411
37149W        W 9574  22.518  12.329   2.718
37150W        W 9575  39.854  34.875  13.009
37151W        W 9576   9.669  33.543   1.395
37152W        W 9577  39.827  12.703   1.838
37153W        W 9578  25.525  39.859   3.239
37154W        W 9579   7.670   3.427   1.748
37155W        W 9580  11.839   1.886  12.364
37156W        W 9581  29.424  20.049  12.356
37157W        W 9582  41.971  40.870   3.769
37158W        W 9583  10.762  17.169   1.404
37159W        W 9584  19.583   0.960   0.794
37160W        W 9585  40.513   5.834   9.971
37161W        W 9586   5.265  19.649   4.783
37162W        W 9587  22.154  11.733   0.814
37163W        W 9588  23.058  28.458   1.326
37164W        W 9589  18.612  26.202  12.996
37165W        W 9590  29.524  34.023   1.760
37166W        W 9591  20.100   1.897   0.830
37167W        W 9592   5.850  38.376  13.485
37168W        W 9593  30.544  16.721   4.289
37169W        W 9594  35.430  29.129   3.765
37170W        W 9595  38.416  20.087  14.822
37171W        W 9596  36.053  20.213  13.938
37172W        W 9597  13.105   3.828  11.023
37173W        W 9598   9.862  18.271   2.401
37174W        W 9599  14.249  15.094   0.367
37175W        W 9600  42.291   6.217  10.595
37176W        W 9601  30.543  37.042  14.343
37177W        W 9602  17.744  33.411  12.091
37178W        W 9603   7.891   5.850   1.413
37179W        W 9604  14.653  24.216   1.238
37180W        W 9605  35.531  20.272   1.853
37181W        W 9606  19.171  33.534  11.476
37182W        W 9607  16.720  25.194  12.064
37183W        W 9608  37.947   8.307  13.989
37184W        W 9609  12.241  31.535   1.872
37185W        W 9610  38.999   3.782  13.423
37186W        W 9611  34.546  36.407  10.610
37187W        W 9612   5.931  18.582   2.741
37188W        W 9613  10.686  16.748  14.966
37189W        W 9614  13.757  21.735  14.484
37190W        W 9615  21.216  42.450   4.683
37191W        W 9616   9.254  31.076  14.941
37192W        W 9617  18.565  12.291   3.350
37193W        W 9618  12.171  40.019   3.376
37194W        W 9619  31.643  35.454   0.746
37195W        W 9620  35.049  14.811  13.486
37196W        W 9621  44.911  38.386   4.342
37197W        W 9622   5.430  23.087  11.097
37198W        W 9623  39.560  30.988   4.150
37199W        W 9624  22.720  23.991  14.476
37200W        W 9625  37.461  23.066   2.198
37201W        W 9626  31.988  28.525   1.436
37202W        W 9627  18.636  15.121  12.013
37203W        W 9628  25.995  24.142  14.958
37204W        W 9629  12.690  34.561   0.947
37205W        W 9630   2.925   6.718  11.501
37206W        W 9631  30.497   4.815  14.454
37207W        W 9632  34.522   2.872  14.021
37208W        W 9633  30.961   3.809   4.675
37209W        W 9634  40.845   0.304   1.830
37210W        W 9635  21.164   3.336   1.445
37211W        W 9636  33.603   4.733  14.943
37212W        W 9637   8.367  30.553   2.260
37213W        W 9638  15.257  11.829   1.851
37214W        W 9639  20.029  30.028  12.520
37215W        W 9640   7.368  36.025   1.315
37216W        W 9641  33.065   3.305  12.895
37217W        W 9642  27.970  31.056   5.127
37218W        W 9643  29.532  43.960   4.120
37219W        W 9644  29.576  44.995   0.772
37220W        W 9645   6.340  10.211   3.798
37221W        W 9646  33.499  21.656   0.915
37222W        W 9647  31.107  37.464   0.937
37223W        W 9648   0.857  33.625  13.317
37224W        W 9649  42.926  30.051  10.960
37225W        W 9650  10.377   2.226  13.428
37226W        W 9651   5.205  27.490   0.307
37227W        W 9652   0.744  16.667  12.503
37228W        W 9653  18.570  44.435   0.919
37229W        W 9654   4.770  13.738   9.955
37230W        W 9655  33.080   5.849  11.453
37231W        W 9656  39.874  26.057   2.179
37232W        W 9657  14.258  38.027   1.912
37233W        W 9658  33.384  40.885   2.214
37234W        W 9659  14.739  23.210  14.376
37235W        W 9660  12.612  27.530   1.357
37236W        W 9661  41.524  21.168   2.881
37237W        W 9662  20.030  35.429  12.959
37238W        W 9663  40.425  33.497  12.053
37239W        W 9664  24.132  30.948   3.716
37240W        W 9665  35.602  23.060   1.438
37241W        W 9666  30.126  14.314  13.839
37242W        W 9667  18.626  20.261  10.466
37243W        W 9668  44.497   9.158  13.328
37244W        W 9669  37.978  24.521   3.206
37245W        W 9670  22.587   9.339  10.931
37246W        W 9671   5.735  36.087   1.304
37247W        W 9672   0.868  34.376   0.811
37248W        W 9673  26.538  37.042  12.964
37249W        W 9674  17.687  16.198   2.881
37250W        W 9675  20.218  33.409  13.545
37251W        W 9676  13.844  11.787  13.916
37252W        W 9677  31.402  39.046  14.930
37253W        W 9678   4.215  32.512   2.268
37254W        W 9679  17.166  28.179  10.584
37255W        W 9680  27.167  43.860  11.876
37256W        W 9681  37.933  38.363  14.760
37257W        W 9682  15.587   4.207  12.053
37258W        W 9683  14.156  28.986  11.393
37259W        W 9684   3.874  33.884  12.395
37260W        W 9685  12.846  30.084  13.316
37261W        W 9686   5.244  31.643   3.707
37262W        W 9687  15.267  30.655  12.840
37263W        W 9688  44.389  23.111  14.353
37264W        W 9689  23.175  21.718  10.609
37265W        W 9690  13.248   0.432   3.789
37266W        W 9691  27.187  15.260   3.657
37267W        W 9692  12.238  12.713  14.008
37268W        W 9693   0.404  33.413   0.835
37269W        W 9694   6.225  29.636  14.455
37270W        W 9695  31.976  39.472   3.788
37271W        W 9696  19.212  36.566   2.356
37272W        W 9697  19.553   0.883  12.544
37273W        W 9698  42.469  37.436   3.242
37274W        W 9699  26.024  14.712  14.443
37275W        W 9700  28.504  22.597   0.271
37276W        W 9701  37.415  32.002   3.640
37277W        W 9702  31.517   4.269   3.642
37278W        W 9703  22.129  25.510   1.796
37279W        W 9704  30.435  44.366   1.733
37280W        W 9705   2.348  12.728   2.856
37281W        W 9706  33.060  28.536   1.778
37282W        W 9707  22.560  37.858   2.266
37283W        W 9708   0.288   4.381  13.470
37284W        W 9709   1.961   4.752  14.435
37285W        W 9710  14.207  37.972   2.900
37286W        W 9711  44.936  20.233   4.297
37287W        W 9712  36.069  38.901  14.911
37288W        W 9713   8.192   2.226  11.607
37289W        W 9714  24.214  21.603   0.742
37290W        W 9715  40.464   8.401   0.243
37291W        W 9716  44.005  11.215   4.733
37292W        W 9717  40.510  32.603  11.879
37293W        W 9718  18.774  13.174   3.850
37294W        W 9719  38.518  25.564  10.150
37295W        W 9720  38.474  26.703   3.780
37296W        W 9721  35.597  26.004   0.429
37297W        W 9722  11.136   7.903   3.298
37298W        W 9723   4.885  18.655   4.706
37299W        W 9724  13.692  29.427   2.296
37300W        W 9725  43.409  29.962  11.404
37301W        W 9726   5.368  10.251  13.537
37302W        W 9727  30.567  21.578   1.733
37303W        W 9728  10.160   4.410  12.504
37304W        W 9729  18.595  10.871   3.311
37305W        W 9730  17.669  37.041   3.715
37306W        W 9731  38.037  27.637   3.862
37307W        W 9732   3.247   9.721   4.334
37308W        W 9733   6.185  31.560  14.909
37309W        W 9734  30.952  30.099  11.113
37310W        W 9735   8.683  36.079   2.669
37311W        W 9736  23.050  43.485  13.978
37312W        W 9737  19.106  23.034   0.738
37313W        W 9738   1.970  40.478   2.726
37314W        W 9739  28.449   9.201   3.830
37315W        W 9740  28.469  40.487   0.862
37316W        W 9741  42.919  28.640   2.801
37317W        W 9742  23.513  29.460  13.482
37318W        W 9743   6.849   7.261  13.465
37319W        W 9744   1.435  14.734  11.858
37320W        W 9745  15.216  15.596   1.834
37321W        W 9746  16.622  20.053  10.466
37322W        W 9747  19.776  30.580   2.737
37323W        W 9748  41.808  27.159   4.146
37324W        W 9749   5.315  25.470   1.405
37325W        W 9750  11.165  10.778   2.688
37326W        W 9751  42.308  33.478   1.364
37327W        W 9752   0.295   4.279  14.293
37328W        W 9753  43.487  35.929  11.913
37329W        W 9754  22.649  35.965  10.038
37330W        W 9755  25.691   2.739  10.988
37331W        W 9756  29.053  34.871  12.087
37332W        W 9757   6.359  34.983  11.558
37333W        W 9758  23.708   8.285   9.926
37334W        W 9759  14.298   2.871  14.830
37335W        W 9760  15.258   8.228  14.885
37336W        W 9761   6.366  28.970  14.898
37337W        W 9762   3.831  41.429   3.702
37338W        W 9763   9.173  36.057  10.521
37339W        W 9764  30.414  36.858  12.541
37340W        W 9765  32.410  10.698   4.262
37341W        W 9766  30.518  37.992  14.357
37342W        W 9767   8.329   5.246   4.343
37343W        W 9768  39.375  30.626   1.866
37344W        W 9769   1.311  22.111   4.316
37345W        W 9770   7.320  17.138   2.221
37346W        W 9771   7.208  40.857  10.940
37347W        W 9772  14.632   8.851  10.452
37348W        W 9773  22.521  33.028   2.765
37349W        W 9774  41.412   8.295  10.934
37350W        W 9775  20.160  32.038   4.340
37351W        W 9776   2.722  14.809  11.588
37352W        W 9777  18.643  43.869   2.719
37353W        W 9778  31.904  43.430  14.982
37354W        W 9779  12.223  34.985   4.792
37355W        W 9780   1.840  21.161   2.326
37356W        W 9781  20.539   9.775  12.959
37357W        W 9782  36.558  20.563   1.315
37358W        W 9783  44.283  29.943   3.210
37359W        W 9784  38.827  31.010  13.413
37360W        W 9785  40.005  25.198   0.344
37361W        W 9786   3.878   8.323   3.310
37362W        W 9787   6.797  39.392  13.914
37363W        W 9788  38.874  35.012   5.212
37364W        W 9789  18.703  34.506  10.529
37365W        W 9790  34.520  10.871   3.766
37366W        W 9791  35.366  18.218   0.816
37367W        W 9792   4.749  26.489   1.268
37368W        W 9793  40.945  31.491  13.886
37369W        W 9794   9.869  27.590   0.461
37370W        W 9795  39.968  11.182   3.707
37371W        W 9796  36.908  41.968   4.816
37372W        W 9797  40.969  13.233  13.035
37373W        W 9798   4.373  34.098  13.874
37374W        W 9799  25.579  37.544   1.733
37375W        W 9800  10.205  11.828  14.019
37376W        W 9801   6.334  31.907  11.582
37377W        W 9802  37.421  21.629   0.462
37378W        W 9803  22.620   3.429   3.646
37379W        W 9804  17.618  33.932   4.217
37380W        W 9805  43.983  13.122   4.720
37381W        W 9806  40.388   3.287  12.894
37382W        W 9807  43.823  42.013   2.247
37383W        W 9808  26.592  11.171   4.126
37384W        W 9809   3.263  37.445  13.474
37385W        W 9810  35.584  37.381   0.796
37386W        W 9811  44.880  24.692   4.167
37387W        W 9812  17.136  38.013   1.862
37388W        W 9813  10.295   7.224   0.440
37389W        W 9814  39.424  33.965  11.579
37390W        W 9815  24.191  29.509  12.448
37391W        W 9816  34.873  19.714   2.784
37392W        W 9817  43.814   9.678   2.346
37393W        W 9818  35.004  19.740  14.499
37394W        W 9819  33.538  13.682   1.771
37395W        W 9820  27.552   2.418  11.430
37396W        W 9821  10.243   6.372   4.661
37397W        W 9822  28.147  29.089   4.329
37398W        W 9823  20.610  23.604  12.567
37399W        W 9824  29.081  32.526   0.466
37400W        W 9825   6.272  42.523  14.450
37401W        W 9826   7.745   9.664  10.949
37402W        W 9827  29.468  42.010   1.921
37403W        W 9828  38.925  17.791  12.564
37404W        W 9829  37.459  42.475   2.402
37405W        W 9830  27.060  13.746   2.214
37406W        W 9831  34.867  36.473  11.043
37407W        W 9832   9.698  11.155   1.927
37408W        W 9833  42.478  14.255  10.927
37409W        W 9834  22.119  44.384  14.950
37410W        W 9835  25.548   1.790   1.372
37411W        W 9836  18.779  27.191   1.258
37412W        W 9837   5.431  38.356   0.480
37413W        W 9838  19.046  16.660   1.393
37414W        W 9839  40.922  12.644   1.910
37415W        W 9840  30.123  20.134   2.263
37416W        W 9841  39.911  17.610  11.932
37417W        W 9842  40.859   0.305   0.833
37418W        W 9843  39.974  21.205  12.892
37419W        W 9844   1.327  30.619   1.726
37420W        W 9845  31.016   5.911   0.312
37421W        W 9846  33.132  32.451   0.390
37422W        W 9847  27.539  24.155   0.439
37423W        W 9848  17.155  30.435   3.314
37424W        W 9849  16.276  20.084   4.295
37425W        W 9850  41.369  25.131  10.569
37426W        W 9851  13.197   0.312   0.301
37427W        W 9852  19.247  41.822   3.257
37428W        W 9853  15.814   1.741  13.371
37429W        W 9854  17.658  23.080  12.516
37430W        W 9855  42.441  29.169   3.807
37431W        W 9856  40.853  27.194   0.353
37432W        W 9857  26.471  22.637  14.974
37433W        W 9858  16.106  37.385   0.391
37434W        W 9859  42.863   1.932  13.875
37435W        W 9860  11.859  13.342   0.475
37436W        W 9861  37.411  24.521  13.956
37437W        W 9862   1.463  36.520   1.819
37438W        W 9863  27.631  20.626  10.490
37439W        W 9864  33.101  34.057   0.752
37440W        W 9865  39.023  21.151  13.312
37441W        W 9866  33.058  24.485   1.335
37442W        W 9867  44.381  36.533   4.688
37443W        W 9868  18.641   3.923  12.935
37444W        W 9869  25.073  23.201   1.741
37445W        W 9870  27.992  28.473   3.294
37446W        W 9871  38.858  39.475   1.282
37447W        W 9872  35.513  30.931   2.725
37448W        W 9873  39.356  28.057   3.707
37449W        W 9874  16.776  16.567  12.096
37450W        W 9875  31.094   6.918  13.988
37451W        W 9876   2.440  12.617  10.615
37452W        W 9877  14.137  30.950   0.745
37453W        W 9878  13.834  12.225   2.772
37454W        W 9879   8.685  44.426  14.865
37455W        W 9880   5.431  35.511  12.487
37456W        W 9881  13.661   6.256  11.569
37457W        W 9882  27.677   5.248  11.931
37458W        W 9883  31.442  24.712   1.823
37459W        W 9884  24.034   7.896   3.703
37460W        W 9885  18.205  27.129  12.054
37461W        W 9886  25.553  31.972   1.405
37462W        W 9887  12.234   4.377  11.382
37463W        W 9888  21.573   6.752   4.291
37464W        W 9889  27.456   1.405   1.860
37465W        W 9890  25.094  26.973  14.766
37466W        W 9891  36.956   8.340   0.244
37467W        W 9892  36.020   1.269   4.123
37468W        W 9893  11.763  23.070  11.042
37469W        W 9894  41.837  13.768   0.473
37470W        W 9895   2.891  42.812  12.522
37471W        W 9896  16.204  28.437  10.629
37472W        W 9897  28.658  31.491   4.171
37473W        W 9898  26.053  39.361   4.134
37474W        W 9899  26.681  18.661  13.018
37475W        W 9900  27.648   7.284  11.439
37476W        W 9901   7.241   1.738  13.317
37477W        W 9902  37.957  30.911   3.704
37478W        W 9903   1.258   9.765  14.823
37479W        W 9904  30.468  13.134  11.572
37480W        W 9905   5.330   7.708  11.465
37481W        W 9906  26.166  34.469  14.383
37482W        W 9907   6.722   8.231   4.265
37483W        W 9908  30.094  22.044   1.916
37484W        W 9909  23.584  17.701  14.312
37485W        W 9910  12.207   7.829   0.348
37486W        W 9911  41.327   5.895  13.359
37487W        W 9912   5.356  11.234   1.326
37488W        W 9913  27.972  16.701  10.985
37489W        W 9914  10.192  23.690  13.497
37490W        W 9915  20.768   7.187   2.403
37491W        W 9916  11.646  44.001   2.365
37492W        W 9917   9.766  15.135   4.254
37493W        W 9918  21.202  13.830  10.603
37494W        W 9919  33.435  14.717   1.328
37495W        W 9920   4.400   7.402  11.991
37496W        W 9921  35.884  30.492   2.809
37497W        W 9922  38.922  14.185  12.505
37498W        W 9923  39.039  23.215   1.388
37499W        W 9924  18.753   0.903   0.468
37500W        W 9925  19.674  38.456   4.770
37501W        W 9926   3.926   6.396   2.696
37502W        W 9927  38.478  28.168  13.459
37503W        W 9928  27.500  44.409  10.497
37504W        W 9929  33.092  29.920   1.365
37505W        W 9930  27.685  36.083  10.457
37506W        W 9931  25.001  23.576   4.270
37507W        W 9932  12.335   3.936   3.209
37508W        W 9933  13.206  16.577  12.384
37509W        W 9934  15.255  42.777   4.261
37510W        W 9935  35.914  29.599  10.578
37511W        W 9936   9.166  12.816   1.734
37512W        W 9937  17.122  34.529  14.405
37513W        W 9938   5.217   6.281   1.710
37514W        W 9939   4.871  16.271  12.387
37515W        W 9940  33.109  14.216   2.752
37516W        W 9941  39.031  14.589   2.782
37517W        W 9942  25.647  12.333   1.722
37518W        W 9943   2.447  37.006  11.610
37519W        W 9944  22.022  24.611  14.985
37520W        W 9945  40.385  15.120   4.651
37521W        W 9946   1.951  31.146  12.843
37522W        W 9947  37.484  42.022  11.862
37523W        W 9948  24.067  31.100   3.331
37524W        W 9949   8.305  19.234   1.426
37525W        W 9950  28.115   0.885  10.049
37526W        W 9951  36.097   6.260  11.031
37527W        W 9952  15.193  24.107   5.624
37528W        W 9953  12.343  40.972  13.544
37529W        W 9954  38.977  19.586  14.306
37530W        W 9955  44.806  10.279  13.024
37531W        W 9956  29.458   9.851  14.969
37532W        W 9957  31.081   1.745   3.341
37533W        W 9958  32.506  25.085  11.917
37534W        W 9959  41.458  28.162  14.957
37535W        W 9960  20.142  15.117   0.291
37536W        W 9961  24.567  14.240   2.856
37537W        W 9962   1.443  25.610  13.792
37538W        W 9963   7.894  15.641   2.403
37539W        W 9964  26.095  11.198  12.011
37540W        W 9965   4.276   8.833  14.894
37541W        W 9966  29.152   2.768   0.793
37542W        W 9967  11.849  12.155  14.818
37543W        W 9968  36.008   8.684  13.410
37544W        W 9969  23.506  12.845  13.329
37545W        W 9970  34.517  16.676   1.320
37546W        W 9971  24.061  13.613  10.528
37547W        W 9972  16.727  32.578   0.862
37548W        W 9973  18.634  28.108   0.789
37549W        W 9974  17.565  27.517  11.869
37550W        W 9975  37.528  40.896  10.559
37551W        W 9976  22.176   7.726   1.735
37552W        W 9977  25.089  38.849   3.770
37553W        W 9978  18.682  30.584  11.549
37554W        W 9979   8.823  13.830   3.792
37555W        W 9980  20.584  13.131   2.772
37556W        W 9981  10.782  44.473  10.584
37557W        W 9982  43.847  16.307  10.430
37558W        W 9983  36.356  11.683   0.443
37559W        W 9984   4.277  22.666   3.241
37560W        W 9985  40.528   1.384  13.336
37561W        W 9986  15.603  31.150  10.573
37562W        W 9987  16.216  32.978  10.916
37563W        W 9988  40.422  34.922   2.319
37564W        W 9989  42.821  25.672  13.022
37565W        W 9990  30.423  13.285  14.429
37566W        W 9991  21.252  23.653   0.350
37567W        W 9992   3.768   4.766  10.907
37568W        W 9993  44.877  20.067   0.372
37569W        W 9994   6.195   3.754   4.729
37570W        W 9995  35.384  32.401   1.370
37571W        W 9996  24.692  37.515  12.486
37572W        W 9997  20.139   9.707  14.506
37573W        W 9998   5.894  21.537   2.739
37574W        W 9999  16.200  19.047   0.824
37575W        W10000  22.144  10.259  10.912
37576W        W10001  36.565  43.966  11.571
37577W        W10002  13.330  31.643  14.364
37578W        W10003  43.278  19.276   2.813
37579W        W10004  35.452  15.791   1.273
37580W        W10005  32.950  33.898  10.977
37581W        W10006  28.943  35.568   1.915
37582W        W10007  23.685  19.106   1.347
37583W        W10008   9.214   7.357  11.055
37584W        W10009  39.929  18.241   3.252
37585W        W10010  13.202   4.391  11.459
37586W        W10011   4.798   8.334   3.320
37587W        W10012  44.811  22.242   3.827
37588W        W10013  22.105  38.538  12.343
37589W        W10014  17.612  13.235   2.844
37590W        W10015   5.917  43.996   0.897
37591W        W10016  35.957  18.061   4.220
37592W        W10017  41.034  13.318  12.426
37593W        W10018   9.815  34.545   1.800
37594W        W10019  31.448  20.090   2.750
37595W        W10020  38.973  15.604   9.941
37596W        W10021  25.678  29.629  11.521
37597W        W10022   2.888  11.709   4.135
37598W        W10023  38.495  34.501  12.898
37599W        W10024  22.016   3.361   4.603
37600W        W10025  41.938  16.217  12.863
37601W        W10026  36.434  41.372   9.965
37602W        W10027  10.319  12.693   1.792
37603W        W10028  42.411  43.312  12.887
37604W        W10029  19.655  40.544   2.220
37605W        W10030   1.460  20.536  12.074
37606W        W10031  15.135   3.440   3.664
37607W        W10032  33.123   6.914  11.946
37608W        W10033  17.183  12.217   3.192
37609W        W10034  30.422  44.368  13.487
37610W        W10035  41.500  18.652   1.859
37611W        W10036  33.113  39.422  11.879
37612W        W10037  30.000  14.312  11.927
37613W        W10038  37.536   7.684  13.507
37614W        W10039  18.080   9.208   3.146
37615W        W10040  42.396  16.242  12.912
37616W        W10041   6.813  29.562   4.693
37617W        W10042  20.092   2.840   0.959
37618W        W10043  11.796   2.449   0.902
37619W        W10044  29.972   2.254  11.914
37620W        W10045  44.453  18.738   2.212
37621W        W10046   6.727   2.392  12.523
37622W        W10047  44.287  28.564   2.849
37623W        W10048  36.883  32.459   4.200
37624W        W10049  38.375  43.442   3.777
37625W        W10050  37.528  11.234  13.506
37626W        W10051  35.925  37.381  14.974
37627W        W10052   3.823  11.277   4.613
37628W        W10053  26.969  27.642  11.884
37629W        W10054  36.520  21.065  11.589
37630W        W10055  41.897  32.065   2.697
37631W        W10056  24.111  23.116  13.526
37632W        W10057  19.651  35.374  14.856
37633W        W10058   1.368  36.928   1.802
37634W        W10059  13.245   6.801   0.251
37635W        W10060  20.645  34.508  11.572
37636W        W10061  35.072   2.803   1.703
37637W        W10062  31.594  31.594  11.431
37638W        W10063  26.143  32.026   2.667
37639W        W10064  28.182   9.691  10.090
37640W        W10065   8.752   8.806  10.973
37641W        W10066  38.048  24.007  12.931
37642W        W10067  18.106  21.096  13.876
37643W        W10068  20.103  28.681   0.815
37644W        W10069  31.079  33.028  12.059
37645W        W10070  33.944  23.552  11.405
37646W        W10071  11.248  30.638   2.392
37647W        W10072  23.718  38.825   0.830
37648W        W10073  42.478  23.145   0.960
37649W        W10074  14.764  17.111   4.786
37650W        W10075   1.441  22.030   3.752
37651W        W10076  36.495  39.418  13.947
37652W        W10077  20.577  25.005   2.740
37653W        W10078   5.307  12.773  12.367
37654W        W10079  24.720  23.653   0.941
37655W        W10080  23.564  12.751  13.896
37656W        W10081  29.648   5.818   0.847
37657W        W10082  12.644  15.753  11.098
37658W        W10083  38.030  25.158  10.039
37659W        W10084  34.044  21.739  10.644
37660W        W10085   8.683  42.512  13.965
37661W        W10086  29.454  14.152  11.571
37662W        W10087  22.652  25.178  14.459
37663W        W10088  19.122  12.630   3.741
37664W        W10089  13.744  15.672  11.975
37665W        W10090  14.246  43.837   4.255
37666W        W10091  42.296  27.131  11.426
37667W        W10092   3.873   6.416   1.784
37668W        W10093   2.916   2.935  10.613
37669W        W10094  14.683  11.134  12.351
37670W        W10095  24.507   5.223   3.386
37671W        W10096  24.638   5.433   3.763
37672W        W10097  28.461  42.885  11.411
37673W        W10098  30.025  26.961   3.704
37674W        W10099  15.313  27.688   1.372
37675W        W10100  30.961  42.333   3.801
37676W        W10101  34.051  31.643   0.726
37677W        W10102  35.028  28.673  10.473
37678W        W10103  14.292  13.255   5.267
37679W        W10104  22.155  12.639  14.330
37680W        W10105  32.113  13.602  10.994
37681W        W10106  37.833  11.827   3.747
37682W        W10107  10.780  21.077  14.455
37683W        W10108   7.357   2.883  13.816
37684W        W10109  21.207   9.276   4.725
37685W        W10110  17.163   6.742  14.432
37686W        W10111  43.862  43.499  14.868
37687W        W10112  28.589  23.073  10.630
37688W        W10113  30.919  42.922   0.866
37689W        W10114  25.021  40.515   1.381
37690W        W10115  20.551  33.946   3.666
37691W        W10116  19.608  31.571  11.401
37692W        W10117  43.478  42.784   1.734
37693W        W10118  26.588  18.279  12.006
37694W        W10119  29.126   2.470   0.483
37695W        W10120  26.651   6.344  13.802
37696W        W10121  40.407  37.965  11.376
37697W        W10122   0.347  28.445   1.417
37698W        W10123   0.279   3.419  10.149
37699W        W10124  14.603  12.856   3.832
37700W        W10125   0.374  39.036   1.439
37701W        W10126  25.568  19.631  14.513
37702W        W10127   3.835  33.063   0.873
37703W        W10128  17.792   1.874   3.221
37704W        W10129  28.091  39.856   2.893
37705W        W10130  24.689  39.547  12.959
37706W        W10131  12.214   1.734  12.580
37707W        W10132  33.086  14.726  14.295
37708W        W10133  35.363  14.799  13.320
37709W        W10134   6.302   3.314  14.364
37710W        W10135   2.381  12.160  13.517
37711W        W10136  16.155  26.645  12.874
37712W        W10137  29.086  18.246  13.961
37713W        W10138   9.886  44.887  14.335
37714W        W10139  12.803  12.172   0.885
37715W        W10140  34.093  37.422   1.781
37716W        W10141   1.945  15.306   0.266
37717W        W10142  29.443  33.979   4.241
37718W        W10143  19.198  27.187   0.310
37719W        W10144  32.099  19.217   4.629
37720W        W10145   9.780  24.675  14.861
37721W        W10146  37.854  13.303  13.976
37722W        W10147  14.634  40.535   4.329
37723W        W10148  10.721  29.961  10.485
37724W        W10149  20.109   4.721  14.885
37725W        W10150  40.329  23.493  11.427
37726W        W10151  26.089   2.373   0.807
37727W        W10152  16.246  44.973   1.906
37728W        W10153  21.714   0.455   2.872
37729W        W10154  27.141  19.238   4.717
37730W        W10155  17.281  24.712   3.716
37731W        W10156  30.975   6.679   3.765
37732W        W10157  20.177  43.847  10.900
37733W        W10158  22.006  12.808   2.697
37734W        W10159  21.218  12.623   0.843
37735W        W10160  17.757  44.447  13.879
37736W        W10161  33.538   8.402   0.308
37737W        W10162  22.177  40.477  13.876
37738W        W10163   5.711  34.529   4.831
37739W        W10164  14.189   0.427  14.959
37740W        W10165  13.318  10.810  11.436
37741W        W10166   5.368  16.284   2.780
37742W        W10167   0.368  15.217   3.360
37743W        W10168  32.524  21.093   1.829
37744W        W10169  19.108  42.843   2.318
37745W        W10170  37.954  41.984   3.680
37746W        W10171  11.631  30.106   3.684
37747W        W10172  32.123   2.753  11.449
37748W        W10173   2.946   1.325   1.254
37749W        W10174   2.269  23.150  11.864
37750W        W10175  25.516  41.822   1.767
37751W        W10176  12.625  15.126   1.850
37752W        W10177  36.094  26.117  11.488
37753W        W10178  16.281  13.189   3.773
37754W        W10179  19.098  32.119   1.291
37755W        W10180  28.058  31.909  12.512
37756W        W10181  16.100  23.103  12.896
37757W        W10182   3.357  32.440  12.054
37758W        W10183  38.832  30.479   3.195
37759W        W10184   1.268  14.641   1.868
37760W        W10185  28.438   5.315   2.709
37761W        W10186  13.180  40.315  12.967
37762W        W10187  38.499  43.272  14.984
37763W        W10188  26.584   1.878  14.383
37764W        W10189   1.281  33.904  14.414
37765W        W10190  31.947   9.664   9.991
37766W        W10191  16.678  25.669   0.929
37767W        W10192   0.854   4.765   3.191
37768W        W10193   1.368   7.831   0.291
37769W        W10194  15.128  22.243  11.378
37770W        W10195  18.569  37.443   0.912
37771W        W10196  31.069   0.399   0.359
37772W        W10197  30.016  16.692   0.907
37773W        W10198  39.520  12.295   2.242
37774W        W10199  37.511  20.661   2.753
37775W        W10200   5.895  27.528   0.865
37776W        W10201  36.379  34.433  10.097
37777W        W10202   5.915  11.362  14.787
37778W        W10203  35.393  35.883  11.964
37779W        W10204  23.215  31.909   1.213
37780W        W10205  27.078  13.224   2.874
37781W        W10206  21.529  17.614   3.199
37782W        W10207  16.695  13.768  13.505
37783W        W10208   8.280  32.984  14.442
37784W        W10209  14.747  32.568  12.396
37785W        W10210  35.861  31.097  12.942
37786W        W10211   4.373  13.246   0.792
37787W        W10212  20.666  33.432  12.003
37788W        W10213  28.092   5.848   1.697
37789W        W10214  43.989  31.624  11.124
37790W        W10215   1.891   8.299   1.256
37791W        W10216  14.187  33.130  11.374
37792W        W10217  23.237  25.585  10.971
37793W        W10218   9.231   1.902  11.393
37794W        W10219   4.268  42.821   4.174
37795W        W10220  38.501  44.499   1.384
37796W        W10221  11.686  26.098   0.781
37797W        W10222  40.840  34.521   4.270
37798W        W10223  23.997  15.613   9.938
37799W        W10224  31.512   9.243  13.878
37800W        W10225  19.774  23.536   1.415
37801W        W10226  22.205   0.491  14.766
37802W        W10227   0.987  11.206   3.328
37803W        W10228  35.898  21.092   1.711
37804W        W10229  20.048   8.270  13.537
37805W        W10230  19.254  16.314   0.941
37806W        W10231  20.067  27.537  14.884
37807W        W10232  37.974   7.715   0.409
37808W        W10233  42.932   3.770  11.975
37809W        W10234   2.367  15.320  13.967
37810W        W10235  37.830   6.799   4.243
37811W        W10236  36.461  19.254   2.763
37812W        W10237  39.510  33.495  13.341
37813W        W10238  42.929  33.537  12.403
37814W        W10239  18.228  26.185   4.735
37815W        W10240  32.516   4.825  13.525
37816W        W10241  11.641  14.660  11.396
37817W        W10242  40.342   8.160  10.502
37818W        W10243   7.752  13.345   3.752
37819W        W10244  17.115  18.583  13.510
37820W        W10245  42.364  14.303  13.919
37821W        W10246   3.318   8.403   2.711
37822W        W10247  28.982   1.254  11.128
37823W        W10248  22.721  15.719  10.049
37824W        W10249  27.040   1.347   2.347
37825W        W10250  14.703  19.612  13.872
37826W        W10251  41.946   6.848   1.231
37827W        W10252  10.303   5.800  10.584
37828W        W10253  11.370   2.255  10.576
37829W        W10254   6.302   4.381   3.191
37830W        W10255  43.921  41.879   4.796
37831W        W10256  32.009   0.778  13.464
37832W        W10257  11.166  13.635   2.865
37833W        W10258  38.887  13.122   0.814
37834W        W10259  41.469  30.477   3.640
37835W        W10260  42.970  41.445  10.974
37836W        W10261  37.931  16.126   0.409
37837W        W10262  29.951  29.101   4.628
37838W        W10263   9.346  28.619  10.501
37839W        W10264  32.048   2.438  14.844
37840W        W10265  19.708  40.021  11.531
37841W        W10266   7.840  12.657   3.849
37842W        W10267  38.906  29.518  14.396
37843W        W10268  25.636  33.501   2.220
37844W        W10269  40.029  26.500  13.443
37845W        W10270   1.869  27.052   3.849
37846W        W10271  28.171  38.448  12.488
37847W        W10272   0.400  34.406   0.276
37848W        W10273  10.138  41.509  11.469
37849W        W10274  33.024   7.787  11.469
37850W        W10275  20.630  11.366  14.964
37851W        W10276  26.577   2.733   1.803
37852W        W10277   2.399  33.504   0.449
37853W        W10278  17.065  11.234   3.245
37854W        W10279   3.343  24.600   4.195
37855W        W10280  15.313  26.026   2.817
37856W        W10281   8.206  31.556   0.940
37857W        W10282  17.077  12.631  13.321
37858W        W10283  44.836  31.109   3.760
37859W        W10284   8.216  36.049  10.520
37860W        W10285  18.717  17.656  12.408
37861W        W10286   4.917   8.737  14.956
37862W        W10287  36.034  28.992   4.603
37863W        W10288  10.781  41.434  11.991
37864W        W10289  14.758  38.431  14.821
37865W        W10290  25.101   5.772   0.468
37866W        W10291  30.434  33.946   1.328
37867W        W10292   1.804  22.579   0.801
37868W        W10293  34.919  21.091   4.329
37869W        W10294  42.790  35.506   1.734
37870W        W10295  33.486  35.018  11.096
37871W        W10296  20.148  32.563  11.487
37872W        W10297   0.381  18.189   3.819
37873W        W10298  44.480  15.761   0.871
37874W        W10299  38.001  23.080   3.172
37875W        W10300  14.224  35.933  12.436
37876W        W10301   9.378   5.788   2.368
37877W        W10302  22.124   6.752   3.660
37878W        W10303  23.690  19.116  13.000
37879W        W10304  37.020  31.543  10.455
37880W        W10305  29.617  38.507   0.835
37881W        W10306   3.255  10.360  11.860
37882W        W10307  41.444  26.184  14.283
37883W        W10308   9.683  26.108   3.830
37884W        W10309   5.262  21.152   3.862
37885W        W10310  11.245  17.780  13.009
37886W        W10311  28.942  43.806  13.891
37887W        W10312  39.460   7.372  12.461
37888W        W10313  20.086  38.562   2.257
37889W        W10314  42.466  11.191   2.671
37890W        W10315  44.471  41.849   1.360
37891W        W10316  38.512  32.449  11.058
37892W        W10317  12.735   9.372   3.211
37893W        W10318  26.573  36.349   5.161
37894W        W10319   6.724  42.517  10.531
37895W        W10320  23.674   4.742   1.758
37896W        W10321  18.119   4.723  12.880
37897W        W10322  28.101  21.257  13.794
37898W        W10323  18.773  32.404  13.052
37899W        W10324  15.757  44.886   2.802
37900W        W10325   0.428  16.654   0.778
37901W        W10326   5.264   7.847  13.936
37902W        W10327  36.363  27.985  13.844
37903W        W10328  32.095   3.930   0.812
37904W        W10329   8.332  28.105  14.930
37905W        W10330  18.278  31.148  13.397
37906W        W10331  26.636  37.926  13.347
37907W        W10332  33.891  15.280  14.420
37908W        W10333   1.951  24.625   0.329
37909W        W10334   2.301  12.172   3.703
37910W        W10335  22.162  14.603   3.831
37911W        W10336  28.170   6.247   3.339
37912W        W10337   6.345  44.000   0.853
37913W        W10338  24.535  27.024   4.684
37914W        W10339  44.911   5.398  14.953
37915W        W10340  27.532  30.436  11.936
37916W        W10341   8.326   8.844   1.285
37917W        W10342   2.462  43.777  11.013
37918W        W10343  11.178  11.695   1.217
37919W        W10344  13.342  30.651  13.825
37920W        W10345  42.002  43.415  10.994
37921W        W10346  21.130  14.121   4.706
37922W        W10347  17.608  12.689  10.444
37923W        W10348  42.859  35.909  10.599
37924W        W10349  33.536  26.073  12.001
37925W        W10350  33.996  31.952   1.872
37926W        W10351   4.733  21.727  10.544
37927W        W10352  19.566  35.960   3.200
37928W        W10353  44.961  12.237   1.370
37929W        W10354  37.930  38.509   3.753
37930W        W10355  35.389  10.744  11.419
37931W        W10356  39.844  40.871  11.452
37932W        W10357  41.501  36.421   3.840
37933W        W10358  36.095  16.278   0.818
37934W        W10359  24.661  32.141  14.946
37935W        W10360  22.563  11.648   4.293
37936W        W10361  15.693   6.271  13.919
37937W        W10362  33.467  10.318   5.302
37938W        W10363  44.768  14.167  14.914
37939W        W10364  30.107  25.712  11.061
37940W        W10365  18.063  34.388   3.182
37941W        W10366  24.134   5.296   1.829
37942W        W10367  44.949   4.773  12.503
37943W        W10368   7.889   0.826   2.304
37944W        W10369  13.169   1.779   9.946
37945W        W10370   9.222   2.899  10.631
37946W        W10371  13.705   3.261   0.868
37947W        W10372  43.790  31.576   1.778
37948W        W10373  32.911  42.797  12.987
37949W        W10374   3.431  29.455  12.849
37950W        W10375  28.650  32.603  13.442
37951W        W10376  23.714   0.742   0.770
37952W        W10377  31.921  28.543   3.762
37953W        W10378   8.869  20.765  14.817
37954W        W10379  19.069  12.780   4.119
37955W        W10380   1.448   0.986  11.537
37956W        W10381  37.436   3.852   1.398
37957W        W10382  32.625   6.327   3.764
37958W        W10383  29.120  34.021  13.464
37959W        W10384  38.903  32.887  12.030
37960W        W10385  42.428  41.906  14.460
37961W        W10386  16.695   2.452  11.375
37962W        W10387   2.330  30.129  11.892
37963W        W10388  40.385   5.887  12.825
37964W        W10389   8.896  37.560   0.782
37965W        W10390  11.758   0.885  12.871
37966W        W10391   2.874  32.901   2.286
37967W        W10392   6.423  37.459  12.506
37968W        W10393  35.578  12.737  13.019
37969W        W10394   1.422   1.387   2.793
37970W        W10395  24.007  28.638   3.358
37971W        W10396  41.888  43.805   0.887
37972W        W10397  41.338   8.264  11.403
37973W        W10398  17.067  19.243  12.963
37974W        W10399   2.380  19.711   3.311
37975W        W10400  18.263   9.870  11.859
37976W        W10401  16.257  21.642  14.983
37977W        W10402  24.537  31.033  11.948
37978W        W10403  35.378  23.490   3.746
37979W        W10404   7.323  22.596   3.353
37980W        W10405   4.365  10.148   4.193
37981W        W10406  15.722  27.536  10.629
37982W        W10407  42.522   7.862   3.803
37983W        W10408  21.610  24.707   3.277
37984W        W10409  22.724   8.324  12.930
37985W        W10410  37.948  27.998   3.321
37986W        W10411   5.864   6.705  13.835
37987W        W10412  24.665  41.815   3.386
37988W        W10413   3.807   9.350   4.337
37989W        W10414  18.688  11.287   4.689
37990W        W10415   2.851  30.541  14.775
37991W        W10416  11.735  24.551   4.748
37992W        W10417  10.259  12.659   2.382
37993W        W10418  44.473  39.865  13.483
37994W        W10419  11.767  12.780  10.603
37995W        W10420   2.778  42.519  10.943
37996W        W10421   6.321   9.227   0.245
37997W        W10422   2.293  35.929   0.362
37998W        W10423  30.493  25.180   4.168
37999W        W10424  23.234   5.434   3.208
38000W        W10425  39.818  32.479   1.857
38001W        W10426  24.985   8.325  11.440
38002W        W10427  35.443  34.089   1.360
38003W        W10428  28.507  30.643   3.253
38004W        W10429  43.828  31.143  13.482
38005W        W10430  22.689   3.400   4.644
38006W        W10431  16.684  17.213   3.773
38007W        W10432  22.124  35.394   4.725
38008W        W10433   3.908  32.112  11.544
38009W        W10434  31.066  36.356  10.969
38010W        W10435   2.414   0.439   1.915
38011W        W10436  20.533  14.758  12.426
38012W        W10437  31.087   3.753  13.448
38013W        W10438  24.156   1.263   2.835
38014W        W10439  43.294  37.941   0.802
38015W        W10440   9.885  26.646  11.004
38016W        W10441  42.796  11.349   4.838
38017W        W10442  28.645  39.494  10.620
38018W        W10443  35.469  26.971   0.459
38019W        W10444   6.725   3.290  10.638
38020W        W10445   5.763  28.116   1.300
38021W        W10446  40.920  28.150  12.875
38022W        W10447  27.012  29.622   3.815
38023W        W10448  37.372  12.346  14.902
38024W        W10449  39.830  41.908  13.421
38025W        W10450   3.857  17.580  13.396
38026W        W10451  37.340   7.190  12.496
38027W        W10452   0.988   3.358   1.872
38028W        W10453  25.697  44.459   2.841
38029W        W10454  41.503  39.035   0.417
38030W        W10455  39.324   2.379  11.883
38031W        W10456  30.958   3.356  10.538
38032W        W10457  44.326   8.689   0.280
38033W        W10458  31.026  12.119  11.051
38034W        W10459  43.289  23.518   0.882
38035W        W10460   3.262   7.258   2.848
38036W        W10461  10.643  34.044   2.862
38037W        W10462  23.231  35.454  13.330
38038W        W10463  34.044  15.666   2.184
38039W        W10464  23.512  28.560  13.332
38040W        W10465  29.608  31.064   1.793
38041W        W10466  22.049  18.238  12.049
38042W        W10467  39.954  28.594  10.959
38043W        W10468  19.286  44.422  14.823
38044W        W10469  34.444  17.703  14.467
38045W        W10470  36.927  25.059   1.312
38046W        W10471  23.515  38.420   3.774
38047W        W10472  11.697  34.390  10.142
38048W        W10473  11.230  25.159  10.449
38049W        W10474   5.393  41.997  12.544
38050W        W10475  15.680  13.152  14.409
38051W        W10476  40.991  41.468   0.439
38052W        W10477  12.321   1.779   2.393
38053W        W10478  41.499  25.522  14.784
38054W        W10479  42.021  27.175  10.932
38055W        W10480   7.676   4.760  10.030
38056W        W10481  27.531  31.044   2.279
38057W        W10482   6.276  36.041   0.436
38058W        W10483  32.061   9.303   0.395
38059W        W10484  39.410  44.896  13.934
38060W        W10485   5.433  12.721  11.544
38061W        W10486   0.850   5.794   2.201
38062W        W10487  44.856  44.882  11.007
38063W        W10488  16.288   1.471  11.574
38064W        W10489  30.605  12.616  14.979
38065W        W10490  34.405  21.049   1.719
38066W        W10491  12.780  12.337   2.336
38067W        W10492  21.100  33.903   2.661
38068W        W10493  31.457  22.107  11.372
38069W        W10494  30.980  13.292  13.856
38070W        W10495  32.129  17.109   1.929
38071W        W10496  41.354  14.791  10.913
38072W        W10497  39.447  37.041   0.948
38073W        W10498  29.475  19.572   4.669
38074W        W10499   0.793   4.884  10.912
38075W        W10500   6.761  14.145   2.346
38076W        W10501  15.096  26.591   4.817
38077W        W10502  15.803  33.045  10.478
38078W        W10503  13.204  36.896  12.483
38079W        W10504  44.353  10.188  12.966
38080W        W10505   2.455   0.257  12.864
38081W        W10506   2.910  44.794   3.789
38082W        W10507  41.787  15.627  12.572
38083W        W10508  12.815  30.950   3.683
38084W        W10509  17.203  21.757   0.900
38085W        W10510  28.635  40.436   4.330
38086W        W10511  30.473  41.985  11.075
38087W        W10512  16.797  29.941  12.013
38088W        W10513  41.399  43.444   3.755
38089W        W10514  37.375  25.159   4.169
38090W        W10515  17.186   4.883   0.920
38091W        W10516  38.014  34.034  14.961
38092W        W10517  14.339  19.112  13.840
38093W        W10518   9.883  31.015   4.609
38094W        W10519   2.945   4.916  12.401
38095W        W10520  38.998   0.356  14.986
38096W        W10521  34.067   5.378   4.131
38097W        W10522  38.041  21.154   0.764
38098W        W10523  28.142  25.603  12.995
38099W        W10524  28.662  34.552   4.174
38100W        W10525  20.270   5.203   3.732
38101W        W10526  44.291   1.848   4.212
38102W        W10527   5.809   5.267   0.743
38103W        W10528  32.482  24.112  11.416
38104W        W10529  18.087  42.776   0.958
38105W        W10530  28.539   0.793   2.314
38106W        W10531  15.613   0.907   2.402
38107W        W10532   7.379  36.099  14.829
38108W        W10533  17.760  34.436   4.286
38109W        W10534  27.613  25.024   4.272
38110W        W10535   8.188  27.511  10.448
38111W        W10536  38.035  21.029  11.869
38112W        W10537  36.916   9.307   0.805
38113W        W10538   3.407  33.494  12.471
38114W        W10539  14.274  30.568   2.405
38115W        W10540  18.718  35.977  12.577
38116W        W10541  22.743   8.252   0.751
38117W        W10542  41.392   1.751  14.775
38118W        W10543   4.330   0.875   0.932
38119W        W10544  42.327  17.787   1.218
38120W        W10545  41.348   8.824  10.436
38121W        W10546  12.851  10.651   4.741
38122W        W10547  10.664   8.358   2.831
38123W        W10548  39.940  35.025  13.900
38124W        W10549  21.633   8.388  13.973
38125W        W10550  16.264  42.464   3.298
38126W        W10551  14.712  17.789   1.408
38127W        W10552   2.394  14.794   2.261
38128W        W10553  30.580  43.886   0.863
38129W        W10554   8.850  37.995   3.236
38130W        W10555  26.147  39.326  12.065
38131W        W10556  26.143  30.040  11.881
38132W        W10557  28.170  10.281   1.418
38133W        W10558  44.813  11.244  14.765
38134W        W10559  17.171  36.860   4.825
38135W        W10560   4.834  34.374  13.334
38136W        W10561   1.744  36.554  11.401
38137W        W10562  31.142  26.099  12.427
38138W        W10563  40.518  17.198   4.678
38139W        W10564  32.516  42.962   1.905
38140W        W10565  19.571  14.732   4.726
38141W        W10566   6.717  19.120  12.503
38142W        W10567  42.411  20.200  10.542
38143W        W10568  40.878  39.338   3.681
38144W        W10569  28.573  24.224   4.214
38145W        W10570   1.835  18.619   2.315
38146W        W10571  20.542   6.400  14.312
38147W        W10572  16.122  33.424  12.357
38148W        W10573  42.323  18.139  10.467
38149W        W10574  22.529  16.772   1.308
38150W        W10575  24.600  39.424  13.928
38151W        W10576  28.575   5.875   2.729
38152W        W10577  16.636  35.446  14.489
38153W        W10578  18.150   3.383  13.542
38154W        W10579   6.302  15.642   4.698
38155W        W10580   2.878   2.414   0.883
38156W        W10581  33.539  35.890  14.492
38157W        W10582  17.724   1.337  14.502
38158W        W10583  28.517  38.903   0.740
38159W        W10584   4.431  27.612  14.826
38160W        W10585  33.611  44.368  11.128
38161W        W10586  10.186  36.563   3.327
38162W        W10587  12.147  32.629   2.744
38163W        W10588  21.613  39.897   4.794
38164W        W10589  33.130   0.829   1.409
38165W        W10590   5.755  20.056  10.507
38166W        W10591  32.067  10.364   5.271
38167W        W10592  35.911   9.770  11.907
38168W        W10593  15.196  27.087   1.321
38169W        W10594  33.556  38.896  11.486
38170W        W10595  11.238   6.887   9.488
38171W        W10596  37.077  11.245   0.408
38172W        W10597  34.405  12.857  10.642
38173W        W10598  27.494  18.687   2.751
38174W        W10599  23.182   5.727   1.297
38175W        W10600  17.199   5.902  10.478
38176W        W10601   5.786   8.835   4.826
38177W        W10602  14.113   7.412  13.877
38178W        W10603  37.448  40.886  13.524
38179W        W10604  37.462  37.404  11.087
38180W        W10605  16.645  40.849  11.531
38181W        W10606   8.753  37.021  10.928
38182W        W10607  27.164  34.076  13.527
38183W        W10608  23.510  39.987  13.916
38184W        W10609  27.187  38.432   1.900
38185W        W10610   4.710  17.248   1.215
38186W        W10611  22.034  38.504   0.431
38187W        W10612  25.578   3.877   0.952
38188W        W10613  36.925  22.525  11.891
38189W        W10614   1.367   9.204   2.683
38190W        W10615  34.458   3.456   1.877
38191W        W10616  29.432  19.213   1.766
38192W        W10617  12.350  44.272  10.970
38193W        W10618  20.763  12.313   3.176
38194W        W10619  18.587  18.236  14.901
38195W        W10620   6.197  29.588   3.284
38196W        W10621  33.110  15.693   3.860
38197W        W10622  35.071  18.159  14.930
38198W        W10623   4.370  44.420   1.317
38199W        W10624  12.628   7.402   3.830
38200W        W10625  11.335  14.749  13.497
38201W        W10626   4.803  12.128   2.723
38202W        W10627  12.204   2.298  14.011
38203W        W10628  19.052  21.748   1.696
38204W        W10629   6.185  33.562  13.486
38205W        W10630  17.790  41.937   0.266
38206W        W10631  26.968  44.495   3.783
38207W        W10632  11.340  44.774   2.308
38208W        W10633   1.359  12.117   3.252
38209W        W10634   2.367  35.893  10.902
38210W        W10635  15.136  18.123  14.439
38211W        W10636  15.197  25.125   0.461
38212W        W10637  26.537  18.233  13.018
38213W        W10638   5.267  22.698   3.687
38214W        W10639   4.839  39.354  11.076
38215W        W10640  31.484  36.001   3.630
38216W        W10641   3.392  10.326   3.679
38217W        W10642  16.728  40.435  13.471
38218W        W10643  39.982  38.516  12.388
38219W        W10644  41.324  20.591  11.397
38220W        W10645  42.475  15.766  14.478
38221W        W10646  18.623   4.423   3.344
38222W        W10647  20.609  27.614   2.370
38223W        W10648   8.791  10.382   5.232
38224W        W10649  16.606   6.213   4.660
38225W        W10650   3.744  30.964   0.426
38226W        W10651  33.123  44.290   3.719
38227W        W10652  37.904  24.695   4.283
38228W        W10653   6.272   7.215   1.846
38229W        W10654   6.858  40.030   0.431
38230W        W10655  30.508  11.817   2.213
38231W        W10656  37.355  10.211   1.317
38232W        W10657  31.624  37.517  12.049
38233W        W10658  44.488  37.874  11.056
38234W        W10659  37.511  12.358   1.845
38235W        W10660   2.448   1.737  10.423
38236W        W10661  30.577   5.202   2.736
38237W        W10662  42.969  34.943   3.179
38238W        W10663  26.101  32.985   1.360
38239W        W10664   6.350  18.072  11.056
38240W        W10665   7.236  27.150   2.781
38241W        W10666   4.881  41.967  13.007
38242W        W10667  19.687  35.422  12.939
38243W        W10668  26.659  20.561   3.353
38244W        W10669  19.116  43.356  13.334
38245W        W10670  27.127  22.700   3.834
38246W        W10671  13.129  31.580  10.571
38247W        W10672  30.437  28.133   0.798
38248W        W10673  35.490  16.707  11.573
38249W        W10674   5.701  10.694   0.287
38250W        W10675  10.655   5.421  11.413
38251W        W10676  32.489  38.870   2.307
38252W        W10677   8.357  34.428  12.966
38253W        W10678   6.370   4.296   3.828
38254W        W10679  19.571  43.387  12.956
38255W        W10680  37.566  22.219   3.177
38256W        W10681   1.371  29.487  13.903
38257W        W10682  24.610   4.778  11.004
38258W        W10683   0.822  11.205  13.795
38259W        W10684   8.871  10.865   4.353
38260W        W10685  37.523  18.774   1.391
38261W        W10686  22.578   5.844   4.215
38262W        W10687  25.648  39.869   4.125
38263W        W10688  34.438  39.992   0.816
38264W        W10689  44.349  41.024   0.727
38265W        W10690  22.212   5.867   3.151
38266W        W10691  20.254  36.997  13.353
38267W        W10692  22.097  34.051  13.423
38268W        W10693  36.005  44.772   4.772
38269W        W10694   4.356  35.395   2.397
38270W        W10695  27.029  19.766  10.639
38271W        W10696  34.064   2.353   2.677
38272W        W10697  33.946  36.982  13.860
38273W        W10698   9.203  13.189  13.820
38274W        W10699  21.706  39.901   1.868
38275W        W10700  32.939   0.889   1.812
38276W        W10701   2.864  20.153  13.996
38277W        W10702  14.662  19.106   3.256
38278W        W10703  23.035  20.181   0.248
38279W        W10704   2.277   3.936   1.278
38280W        W10705  34.864  22.518  14.352
38281W        W10706   0.392  39.472  12.020
38282W        W10707  35.974  17.085   0.783
38283W        W10708  26.456  29.033  14.937
38284W        W10709  42.448   2.362   0.298
38285W        W10710  16.775  18.787  13.326
38286W        W10711  23.110  28.097  10.582
38287W        W10712   4.229  17.705  12.062
38288W        W10713   1.297  33.503   1.231
38289W        W10714  14.191  18.102   0.253
38290W        W10715  31.538   6.791  13.806
38291W        W10716  27.663  21.048   1.289
38292W        W10717  17.591   6.901  12.977
38293W        W10718  42.470  28.086   4.247
38294W        W10719  27.499  23.650  12.027
38295W        W10720   0.362   0.785  14.759
38296W        W10721  31.951  42.828  14.918
38297W        W10722  37.084   9.378   2.230
38298W        W10723  32.397  32.520   1.263
38299W        W10724  29.594  20.077  14.424
38300W        W10725  22.556  16.757  14.026
38301W        W10726  23.127  36.947   0.478
38302W        W10727  35.501  11.655   0.907
38303W        W10728  34.022  12.294  13.971
38304W        W10729  27.549  22.646  12.928
38305W        W10730  20.702  27.649  10.468
38306W        W10731  16.773  27.952  13.927
38307W        W10732   1.812  39.834  14.337
38308W        W10733  28.078  37.836  10.471
38309W        W10734  25.494  30.915   2.243
38310W        W10735  30.139  19.705  14.793
38311W        W10736   8.278   8.184   3.195
38312W        W10737  36.956  42.002   0.845
38313W        W10738  11.271  18.115  12.926
38314W        W10739  36.922  11.277   3.871
38315W        W10740  34.969  42.312   3.298
38316W        W10741  13.710  18.103  14.773
38317W        W10742   1.852  18.121   0.814
38318W        W10743  16.272  36.427   3.864
38319W        W10744  40.984  22.579   4.726
38320W        W10745   8.317   6.859   0.323
38321W        W10746  34.109  24.140   4.734
38322W        W10747   4.276  22.633  12.551
38323W        W10748  22.550  29.553   1.287
38324W        W10749   0.896  15.266  13.842
38325W        W10750  19.165  16.238   1.883
38326W        W10751  23.655   2.284   1.856
38327W        W10752  44.006  31.648   2.418
38328W        W10753  12.284  26.542   1.777
38329W        W10754  13.669  15.314   0.917
38330W        W10755   4.879  38.347  14.320
38331W        W10756  30.613  38.039   0.907
38332W        W10757  42.524  29.592  11.434
38333W        W10758   3.435  39.911   9.947
38334W        W10759   0.749  30.519  10.977
38335W        W10760  26.700  34.870  10.955
38336W        W10761  12.289  18.698  12.499
38337W        W10762  29.030  21.072  11.535
38338W        W10763  17.186  30.630   4.316
38339W        W10764  28.984  13.627  12.402
38340W        W10765  19.750  21.087   0.251
38341W        W10766  38.073  23.060   9.980
38342W        W10767  21.527  27.947  11.902
38343W        W10768  24.007  29.137   0.254
38344W        W10769  37.027   1.396  12.000
38345W        W10770  39.055  43.779   0.873
38346W        W10771  38.461  40.912   1.694
38347W        W10772   3.867   6.296   4.662
38348W        W10773  25.682  38.483   3.341
38349W        W10774  17.307  41.813   2.827
38350W        W10775  27.654  16.661   2.774
38351W        W10776  35.944  21.564  14.382
38352W        W10777  12.355   2.871   1.339
38353W        W10778   6.208  35.107   0.326
38354W        W10779  29.446  30.928  12.977
38355W        W10780   8.789  26.622  11.936
38356W        W10781   7.367  41.470   1.378
38357W        W10782  32.923  20.530  13.025
38358W        W10783  15.271  22.112  10.079
38359W        W10784  20.028  42.383   3.151
38360W        W10785  24.667   6.419  10.895
38361W        W10786  10.161  35.916  10.405
38362W        W10787  27.982  20.272   0.813
38363W        W10788  42.471  22.505   3.711
38364W        W10789  43.286   1.245  13.850
38365W        W10790  14.257  20.257  11.574
38366W        W10791  36.984   4.377  11.860
38367W        W10792  16.612   8.876   3.835
38368W        W10793  43.840  29.043  11.053
38369W        W10794  25.129  18.605   5.090
38370W        W10795  26.042  25.673   4.140
38371W        W10796   6.303  13.641   1.313
38372W        W10797  15.246  26.057  12.932
38373W        W10798  25.069  36.536   1.829
38374W        W10799  25.992   7.378   1.829
38375W        W10800  24.651   5.703   3.324
38376W        W10801  20.601   9.644   5.756
38377W        W10802  34.506  35.987  11.579
38378W        W10803  24.625  33.623   4.750
38379W        W10804   3.766   5.921  14.400
38380W        W10805   0.820  11.638   0.309
38381W        W10806  18.262  10.198   4.351
38382W        W10807   1.436  42.033   0.926
38383W        W10808  42.438  22.058   2.767
38384W        W10809   3.749   8.403   2.876
38385W        W10810  11.162  37.035  14.986
38386W        W10811   5.436  14.210   3.375
38387W        W10812  33.609  29.557  14.502
38388W        W10813   0.311  10.798   2.290
38389W        W10814   4.309  38.506   4.154
38390W        W10815   8.711  42.805   1.765
38391W        W10816   3.831  29.606  12.021
38392W        W10817  19.672  26.689  10.934
38393W        W10818   7.729  28.479  12.514
38394W        W10819  10.767  40.051  10.570
38395W        W10820  25.078  37.512  14.826
38396W        W10821  41.473  36.061  14.965
38397W        W10822  18.065  24.161  10.907
38398W        W10823   3.406  42.784   4.699
38399W        W10824  42.360   0.315   1.288
38400W        W10825  22.537   2.467  12.454
38401W        W10826  34.389  38.393   4.309
38402W        W10827   7.317  36.003   3.206
38403W        W10828  13.703  35.925   1.905
38404W        W10829  36.365  17.782  14.333
38405W        W10830  39.341   2.868  12.935
38406W        W10831  25.141  37.502   0.834
38407W        W10832   0.928  25.554   4.186
38408W        W10833  33.923  21.662  14.772
38409W        W10834   5.812  11.696  13.952
38410W        W10835  10.368  10.640  12.344
38411W        W10836  25.540  12.672  14.915
38412W        W10837  31.414  33.041  11.114
38413W        W10838  30.973  22.038  14.026
38414W        W10839  23.497  23.098  11.398
38415W        W10840  28.594  21.261  13.001
38416W        W10841  10.668  36.423   3.384
38417W        W10842  28.661  35.916  13.528
38418W        W10843   8.753  15.161  13.363
38419W        W10844  38.363  23.046  13.323
38420W        W10845  24.539  30.044   2.881
38421W        W10846  34.374  26.162   4.654
38422W        W10847  22.646   8.870   3.299
38423W        W10848  16.810  32.971   2.186
38424W        W10849   5.727   1.238   0.436
38425W        W10850  40.443  15.782  10.079
38426W        W10851  17.211  15.724  13.816
38427W        W10852  26.021  19.245   3.387
38428W        W10853  41.335   1.853   4.825
38429W        W10854   5.775   8.803  12.003
38430W        W10855   6.243  34.970   3.762
38431W        W10856  16.713  41.800  13.484
38432W        W10857  32.051  35.973  10.614
38433W        W10858  43.869  19.168  12.931
38434W        W10859  25.625  44.937  14.347
38435W        W10860  19.684  11.757   1.882
38436W        W10861  26.624   7.705   3.194
38437W        W10862  26.097  23.997   2.231
38438W        W10863  25.140  22.710   1.369
38439W        W10864  35.451  24.484  13.958
38440W        W10865  13.284  17.699   1.896
38441W        W10866   1.922  15.726   9.984
38442W        W10867  25.160  43.019   1.251
38443W        W10868   0.899  26.153   3.848
38444W        W10869  38.382  27.061  11.420
38445W        W10870  42.290  29.016   0.442
38446W        W10871  40.345  13.668   3.733
38447W        W10872  30.500   2.813  13.547
38448W        W10873   1.421  25.622   4.822
38449W        W10874  44.837   5.821  10.434
38450W        W10875  30.107  16.686  14.937
38451W        W10876  44.966  13.218   0.879
38452W        W10877  40.808  30.962   4.820
38453W        W10878  42.299  15.627  11.506
38454W        W10879  42.319  23.694  14.871
38455W        W10880  27.641  33.128   1.304
38456W        W10881  34.582  32.925  12.983
38457W        W10882  22.517  15.820   1.928
38458W        W10883   9.251  21.544   1.279
38459W        W10884  33.471  22.024  11.881
38460W        W10885  25.083  41.453   9.934
38461W        W10886  41.474  29.137  12.887
38462W        W10887   4.844  26.574  12.082
38463W        W10888   5.800  34.903  13.932
38464W        W10889  10.722  40.812   3.220
38465W        W10890  43.429  19.750   3.377
38466W        W10891  37.964  13.285  10.971
38467W        W10892  24.105  44.375   1.805
38468W        W10893  17.689  22.246  12.436
38469W        W10894  38.439  29.071  10.946
38470W        W10895  42.957  22.645   1.313
38471W        W10896   2.451  35.573  13.506
38472W        W10897  30.598   8.687   1.342
38473W        W10898  39.925  20.053  12.411
38474W        W10899  42.015  16.727   3.163
38475W        W10900   8.238   2.915  12.383
38476W        W10901  16.305  18.602   1.910
38477W        W10902  20.598  10.197  13.403
38478W        W10903  40.941  14.785  14.418
38479W        W10904   8.290  10.704  10.422
38480W        W10905  39.451  24.127   2.843
38481W        W10906   9.183  38.854  10.044
38482W        W10907  14.783   3.788  12.518
38483W        W10908  36.361   7.172  14.320
38484W        W10909  36.453   4.760   2.300
38485W        W10910  28.631  34.917   4.346
38486W        W10911  40.492  25.996   1.762
38487W        W10912  41.823  14.613  11.859
38488W        W10913  27.985   5.836   2.294
38489W        W10914  10.755  24.994   1.849
38490W        W10915  29.555  34.378  10.005
38491W        W10916  22.234   7.320  12.410
38492W        W10917  13.604  13.181   2.900
38493W        W10918  43.914  36.981   4.676
38494W        W10919  30.591  11.167   0.730
38495W        W10920  21.209  29.133  12.083
38496W        W10921  35.559  23.526  14.998
38497W        W10922  11.343  13.738   3.146
38498W        W10923   6.703  26.083   1.733
38499W        W10924  24.591  21.257  13.351
38500W        W10925  26.492  14.826   2.238
38501W        W10926  29.120  21.633   3.345
38502W        W10927  38.023  12.262  12.444
38503W        W10928  35.854  33.116   3.362
38504W        W10929  33.037  37.993   1.818
38505W        W10930  33.458  10.693   0.466
38506W        W10931  39.366  21.639  13.992
38507W        W10932  18.709  17.568   3.345
38508W        W10933  34.374  14.311   4.765
38509W        W10934  35.480   6.744   4.832
38510W        W10935   7.905  14.255  11.910
38511W        W10936   3.862  11.784  14.419
38512W        W10937  33.030  35.471  14.328
38513W        W10938  15.645  39.963   0.245
38514W        W10939  40.374  10.191   3.774
38515W        W10940  13.133  41.418  14.907
38516W        W10941  10.808  16.184   2.274
38517W        W10942  19.185  28.079  13.395
38518W        W10943  30.004   8.720  11.602
38519W        W10944  44.793   8.764  11.375
38520W        W10945  12.697  25.603  10.440
38521W        W10946   4.360  44.450   2.405
38522W        W10947  37.490  25.532   3.275
38523W        W10948  25.140   9.347  10.409
38524W        W10949  19.054  40.047   4.177
38525W        W10950  21.055  44.976  14.842
38526W        W10951  15.319  26.045  12.420
38527W        W10952   0.766   5.849  13.335
38528W        W10953  37.039   8.388  11.916
38529W        W10954  10.151  12.201   0.477
38530W        W10955  43.459   4.395  13.814
38531W        W10956  19.126   2.413   9.967
38532W        W10957  25.969  43.927   1.278
38533W        W10958   8.270  30.654   4.270
38534W        W10959  22.533   5.282   0.911
38535W        W10960  26.691  14.733  14.810
38536W        W10961  30.008   9.314   0.443
38537W        W10962  38.972  31.531  10.986
38538W        W10963  12.789  12.855  10.495
38539W        W10964  25.487  23.005   2.403
38540W        W10965  36.520  25.487   2.393
38541W        W10966  28.649  28.015  10.404
38542W        W10967   1.248  28.107  12.360
38543W        W10968  37.335   7.686  12.547
38544W        W10969   4.774  33.964  12.936
38545W        W10970  24.030  29.153  11.126
38546W        W10971  40.514   7.224  10.447
38547W        W10972  25.523   7.319  14.976
38548W        W10973  29.543  17.595  14.513
38549W        W10974  24.135   0.422  12.977
38550W        W10975   3.287  43.793   0.808
38551W        W10976   0.767   4.840  11.941
38552W        W10977  27.193  35.029  13.464
38553W        W10978   9.196  35.028  14.961
38554W        W10979  23.596  36.587  14.311
38555W        W10980  12.310  14.735   4.164
38556W        W10981  19.254   8.770   4.753
38557W        W10982  29.561  13.116   4.273
38558W        W10983  21.239  42.364   3.318
38559W        W10984  34.919  32.440   3.657
38560W        W10985   7.244  20.126   2.795
38561W        W10986  33.026  18.601   4.137
38562W        W10987  25.570  18.226  14.903
38563W        W10988  31.990   7.697   3.168
38564W        W10989  21.553   8.780   9.936
38565W        W10990  18.185  44.324   4.278
38566W        W10991  26.597  30.065  12.355
38567W        W10992  32.480   0.393  10.530
38568W        W10993  42.964  12.281  12.962
38569W        W10994   5.337  24.681   3.748
38570W        W10995  32.938  25.479  11.858
38571W        W10996  11.169  22.036   4.783
38572W        W10997   7.840  39.540  14.377
38573W        W10998  40.508   0.381  14.419
38574W        W10999   5.389  44.266   4.136
38575W        W11000  37.890  39.895  12.481
38576W        W11001  29.065  17.140  10.519
38577W        W11002  27.637  35.891   2.668
38578W        W11003  19.778   5.322  10.483
38579W        W11004  43.917   4.376   1.215
38580W        W11005   7.273  13.787   4.764
38581W        W11006  43.786   7.754  11.551
38582W        W11007  20.067   4.767   2.716
38583W        W11008  43.281  42.921  14.780
38584W        W11009  38.500   2.277  14.975
38585W        W11010  22.077   4.369   0.820
38586W        W11011  25.480  25.012   3.850
38587W        W11012  28.483  16.782   1.725
38588W        W11013  14.615  13.615   3.378
38589W        W11014  18.120   2.860  11.967
38590W        W11015  31.420  19.248  12.373
38591W        W11016  39.349  25.002  13.397
38592W        W11017   7.335  28.622  12.954
38593W        W11018  16.719  19.769   1.791
38594W        W11019   7.211  17.645   1.709
38595W        W11020  27.034  22.189  14.510
38596W        W11021   2.823  28.170  14.429
38597W        W11022   2.418  14.731   1.220
38598W        W11023  44.900  11.834  14.473
38599W        W11024  19.271   6.680  11.501
38600W        W11025  29.447  43.360   3.343
38601W        W11026  41.469  15.733  14.816
38602W        W11027  10.315  23.500   3.690
38603W        W11028  11.789  22.585   2.730
38604W        W11029  19.083  37.881   1.806
38605W        W11030   1.308  42.284   4.139
38606W        W11031  34.881  25.478  12.055
38607W        W11032  17.141   4.714  11.430
38608W        W11033   3.809  11.232   0.307
38609W        W11034  43.386  11.298   0.860
38610W        W11035  30.935  12.647  14.441
38611W        W11036  24.125   6.272  14.018
38612W        W11037   7.847   4.811  14.390
38613W        W11038  28.994  29.156   0.371
38614W        W11039  35.489  36.424  10.506
38615W        W11040  40.856  33.524  10.454
38616W        W11041  26.151   1.940  11.524
38617W        W11042   4.280   0.746   3.842
38618W        W11043  41.489  38.350  13.349
38619W        W11044  11.779  31.488   1.444
38620W        W11045  30.642  19.186  10.618
38621W        W11046  38.427  28.520   2.350
38622W        W11047  43.335  35.377   4.710
38623W        W11048  40.810  13.186   2.257
38624W        W11049  12.764  25.003  13.505
38625W        W11050   6.894  42.979   2.718
38626W        W11051  22.540  22.203  12.529
38627W        W11052  40.833  30.502   4.691
38628W        W11053  38.831   0.844  10.996
38629W        W11054  28.634  19.059  12.876
38630W        W11055  24.048  19.625   3.768
38631W        W11056  27.493  27.146   3.754
38632W        W11057  34.880  34.389  13.828
38633W        W11058   1.818   4.933   0.779
38634W        W11059   0.884   5.334   2.768
38635W        W11060  17.598  36.383   4.759
38636W        W11061   0.808   2.841   3.785
38637W        W11062  14.820  44.316  12.880
38638W        W11063   0.750  40.840   4.680
38639W        W11064  39.825  37.501  11.471
38640W        W11065  28.000  14.094   0.346
38641W        W11066  21.257  10.332   4.321
38642W        W11067   2.316   7.735   4.718
38643W        W11068   2.861  34.572  11.596
38644W        W11069  33.395  38.474  12.072
38645W        W11070  43.789  18.204  10.902
38646W        W11071   8.896  25.208   2.847
38647W        W11072   4.714  12.168  13.470
38648W        W11073  41.425  38.333   2.784
38649W        W11074   9.666  23.592  14.761
38650W        W11075   4.397  29.446  11.924
38651W        W11076  31.919   1.843  14.302
38652W        W11077  20.125   9.667   2.845
38653W        W11078  23.044  33.494  13.438
38654W        W11079  22.212  26.145  13.423
38655W        W11080  17.245  24.724  14.503
38656W        W11081  40.303  41.894   1.718
38657W        W11082  20.223  11.747  11.102
38658W        W11083  41.500  23.566  11.920
38659W        W11084  10.824  25.633  10.501
38660W        W11085  38.035   7.711  10.620
38661W        W11086  10.693   7.182   0.325
38662W        W11087  32.443  21.065  13.861
38663W        W11088  25.535  23.203  12.918
38664W        W11089  26.123  12.846  10.468
38665W        W11090  16.715   9.160   1.755
38666W        W11091  20.526   2.777  12.963
38667W        W11092  13.806  25.196   2.245
38668W        W11093  14.777  34.539  14.512
38669W        W11094  38.360  33.454  13.942
38670W        W11095   4.908   1.771   4.127
38671W        W11096  25.502  35.525  11.982
38672W        W11097  14.191  34.428   4.675
38673W        W11098  14.145  40.809   4.325
38674W        W11099   9.705  24.512   2.765
38675W        W11100  13.653  15.602  14.324
38676W        W11101  41.893  26.561  12.545
38677W        W11102  30.472  38.014  12.382
38678W        W11103  36.907  42.327  12.072
38679W        W11104  44.912  11.145  10.993
38680W        W11105  21.723  31.437  10.491
38681W        W11106  23.708  33.996  13.058
38682W        W11107  29.624  33.521   2.194
38683W        W11108   9.387   1.477   2.849
38684W        W11109  17.756  21.672   2.692
38685W        W11110  39.895  38.501   0.412
38686W        W11111   3.309  19.731   1.451
38687W        W11112  43.819  11.700  14.412
38688W        W11113  44.420  31.948  11.109
38689W        W11114  33.117   4.835  11.999
38690W        W11115  20.587  15.162   4.653
38691W        W11116   4.893  40.020   5.270
38692W        W11117   8.817  12.347   4.186
38693W        W11118  25.208   8.681   1.441
38694W        W11119   1.406   0.369  14.912
38695W        W11120  13.775  41.486   2.256
38696W        W11121  13.614  18.106  12.388
38697W        W11122  13.747  18.574  14.442
38698W        W11123   2.360  29.031  11.441
38699W        W11124  35.057  23.664  14.328
38700W        W11125   8.681  34.433  14.880
38701W        W11126   1.341  26.629   0.392
38702W        W11127  39.948  37.921  12.848
38703W        W11128  29.029  24.489  14.435
38704W        W11129  41.811  18.162   1.288
38705W        W11130  20.265   0.866  13.511
38706W        W11131  22.183  13.703   4.717
38707W        W11132  26.994  17.667  12.066
38708W        W11133   4.930  24.105   0.297
38709W        W11134  28.973  10.646  14.352
38710W        W11135  13.156  38.067  11.515
38711W        W11136  14.753  17.704   2.205
38712W        W11137  23.729  20.093   4.178
38713W        W11138  31.951  20.165  14.899
38714W        W11139  38.038   6.223  14.962
38715W        W11140   2.402   9.156   0.483
38716W        W11141  37.434  15.173  12.576
38717W        W11142  23.106  39.998  10.408
38718W        W11143  11.765  17.132   4.814
38719W        W11144   8.202  36.439   0.953
38720W        W11145   9.789   0.309   2.186
38721W        W11146  43.331   6.262  11.421
38722W        W11147  12.227  10.194   3.650
38723W        W11148  43.825  43.278  14.313
38724W        W11149   0.370   2.267  11.460
38725W        W11150   4.284  12.305  10.931
38726W        W11151   5.249  41.444   1.355
38727W        W11152  37.892  21.065   2.786
38728W        W11153  35.088  40.937   1.713
38729W        W11154  43.469  25.013  10.512
38730W        W11155  35.054  12.121  14.785
38731W        W11156  44.402  44.350   3.767
38732W        W11157   9.235  40.824  10.905
38733W        W11158  28.032  11.779  12.860
38734W        W11159  43.819  43.508  12.066
38735W        W11160  25.213  12.276  12.906
38736W        W11161  36.018  28.438   0.420
38737W        W11162  19.618  34.376   0.412
38738W        W11163   0.302  42.465  13.925
38739W        W11164  27.069   9.718   3.327
38740W        W11165  29.982  16.237  12.419
38741W        W11166  34.920  36.912  11.114
38742W        W11167  34.509   6.679  10.902
38743W        W11168  41.433  29.082  13.849
38744W        W11169  36.073  27.063   3.362
38745W        W11170   4.267  31.144   3.781
38746W        W11171  26.511  31.052   1.847
38747W        W11172  32.521  15.283  10.418
38748W        W11173  23.074  14.127   3.689
38749W        W11174   5.756   3.890  14.468
38750W        W11175   1.752  11.351  12.395
38751W        W11176  29.488  34.022  13.335
38752W        W11177   1.406  29.580  11.070
38753W        W11178  17.563  25.581   0.271
38754W        W11179  34.461  35.970   3.380
38755W        W11180  19.046  27.965  11.088
38756W        W11181  10.227  17.240   3.382
38757W        W11182  24.507  20.537   2.814
38758W        W11183  31.051   7.857  14.918
38759W        W11184  16.567  14.683   3.276
38760W        W11185  32.400  16.669  11.111
38761W        W11186  26.131  32.404   1.701
38762W        W11187   2.812  24.507   1.799
38763W        W11188  21.754   7.223  14.381
38764W        W11189  44.879  20.541   3.635
38765W        W11190  40.922  29.045   0.371
38766W        W11191  44.922   4.875   1.903
38767W        W11192  35.540   6.202   2.179
38768W        W11193  35.432  42.008  12.524
38769W        W11194  40.509  33.007  14.943
38770W        W11195  37.023  13.184   2.695
38771W        W11196   3.950   5.400  10.500
38772W        W11197  28.513  10.186   1.413
38773W        W11198  25.554  17.571  11.874
38774W        W11199  30.571  11.218  12.012
38775W        W11200  33.588   4.831  11.907
38776W        W11201  31.498  40.515   2.835
38777W        W11202  11.163   6.393  13.404
38778W        W11203  15.321  40.446   3.813
38779W        W11204  23.541  37.504  12.938
38780W        W11205  17.608  29.490   1.853
38781W        W11206  24.656   1.829   1.236
38782W        W11207  44.905  31.577  14.375
38783W        W11208  14.662  25.140   3.172
38784W        W11209  20.130  32.623   4.269
38785W        W11210  42.996  37.918  10.534
38786W        W11211  32.439  16.312   0.742
38787W        W11212  35.928  42.924  14.788
38788W        W11213  38.399  30.515   4.341
38789W        W11214  14.173  30.593   0.726
38790W        W11215  37.052  39.847  13.981
38791W        W11216  36.991  26.494  14.996
38792W        W11217  27.530  37.068  14.873
38793W        W11218  24.174   8.748  14.879
38794W        W11219  43.507  38.953  10.983
38795W        W11220  13.599  12.709   4.185
38796W        W11221  34.429  33.550  11.498
38797W        W11222   8.708  41.926   0.292
38798W        W11223  34.965  19.639  11.939
38799W        W11224  13.347   1.441  10.410
38800W        W11225  17.260   8.779  14.953
38801W        W11226  29.561  17.065   0.394
38802W        W11227  23.105   6.726  14.425
38803W        W11228  35.906  16.781   0.768
38804W        W11229  40.962   7.820  11.488
38805W        W11230   4.739  26.990   4.310
38806W        W11231  10.151  28.453  14.349
38807W        W11232  16.720  35.569   4.258
38808W        W11233  23.530  16.618  13.416
38809W        W11234  21.088  22.627   3.686
38810W        W11235  40.407  28.072  14.451
38811W        W11236  31.431  29.612  14.295
38812W        W11237  22.141   5.739   4.766
38813W        W11238   0.876  29.062   2.832
38814W        W11239  13.716   5.883  13.439
38815W        W11240  35.499  11.337  12.398
38816W        W11241  36.911  33.002   3.369
38817W        W11242  39.873  14.177  11.007
38818W        W11243   7.745  22.186  13.454
38819W        W11244  15.294  29.956  12.353
38820W        W11245  16.287  32.519   4.173
38821W        W11246  33.079  26.013  11.550
38822W        W11247  44.355   0.836  13.973
38823W        W11248  29.663  40.028   2.337
38824W        W11249  10.780   2.808  11.945
38825W        W11250   5.879  20.547   1.341
38826W        W11251  27.101  27.952  14.775
38827W        W11252  35.056  23.163  13.039
38828W        W11253   4.813  37.894  12.084
38829W        W11254  23.073   9.171   3.757
38830W        W11255  23.028  18.647   3.821
38831W        W11256   9.301  33.543  12.859
38832W        W11257  19.158  44.801  12.994
38833W        W11258  44.327  11.229  13.828
38834W        W11259  17.658  19.540   2.264
38835W        W11260  17.575  42.991   1.899
38836W        W11261   2.934  29.101  14.864
38837W        W11262  15.212  41.537  13.522
38838W        W11263  19.740  44.271   3.251
38839W        W11264  44.781  43.485  11.857
38840W        W11265  32.128  22.099  13.386
38841W        W11266   2.281  17.191   3.812
38842W        W11267  38.939   7.761  14.845
38843W        W11268  13.146  44.419  10.467
38844W        W11269  31.569  23.197   0.250
38845W        W11270  39.898  26.969   0.742
38846W        W11271  25.709  10.777  11.402
38847W        W11272   6.354  21.631   2.859
38848W        W11273  31.026  33.533   1.757
38849W        W11274   2.886  19.063  14.415
38850W        W11275  23.032  27.082   4.707
38851W        W11276   4.354  24.710   0.877
38852W        W11277  12.653   1.252   1.778
38853W        W11278  11.756  10.245   1.891
38854W        W11279  18.754   9.354  11.061
38855W        W11280  44.433  35.983   4.627
38856W        W11281  19.124  26.973   2.270
38857W        W11282  41.506   9.734  14.777
38858W        W11283  31.462  27.666  13.449
38859W        W11284   5.926  37.573  13.843
38860W        W11285  10.739  16.598   3.705
38861W        W11286  38.026  13.693   2.190
38862W        W11287   3.933  27.640  14.384
38863W        W11288   6.279  42.786   3.323
38864W        W11289   1.262  22.642  13.411
38865W        W11290  31.903   1.368  11.481
38866W        W11291  42.330  12.289  11.519
38867W        W11292  20.183   6.240  10.614
38868W        W11293  16.113   9.815   1.837
38869W        W11294  34.505  36.976  14.856
38870W        W11295  10.856  39.439   4.737
38871W        W11296  21.566   4.834  14.942
38872W        W11297  21.639  37.977  13.415
38873W        W11298  42.945  28.533  11.860
38874W        W11299  38.889  38.858   3.836
38875W        W11300  17.680  27.103  11.418
38876W        W11301  19.610  31.999   2.694
38877W        W11302  39.328   5.728   0.851
38878W        W11303  41.463  38.471   0.259
38879W        W11304  24.719  11.650  13.434
38880W        W11305  26.179   0.937   2.755
38881W        W11306  27.493  30.509   3.171
38882W        W11307   1.397   8.183   3.265
38883W        W11308  14.101  15.784  10.469
38884W        W11309  31.898   9.240   4.117
38885W        W11310   9.704   9.294   3.156
38886W        W11311  22.619  15.124   3.313
38887W        W11312  35.484   6.822   3.327
38888W        W11313   9.821  44.987   1.727
38889W        W11314   3.250   0.853  14.469
38890W        W11315  19.248  23.231   2.382
38891W        W11316  21.251  10.334   5.217
38892W        W11317  23.041  26.460   3.198
38893W        W11318  25.493   6.394   4.687
38894W        W11319  20.139  29.587   3.817
38895W        W11320  40.312   0.376   4.150
38896W        W11321  16.588  31.532   2.207
38897W        W11322  35.053  25.647   0.946
38898W        W11323  24.107  13.752  13.980
38899W        W11324  40.491  32.121   4.350
38900W        W11325  28.100  23.686   3.341
38901W        W11326  43.008  11.753  11.948
38902W        W11327  28.530  35.465   0.786
38903W        W11328  35.410  15.796  12.007
38904W        W11329  14.632  18.109  11.899
38905W        W11330  29.032  16.231  11.962
38906W        W11331   4.235  42.874  14.302
38907W        W11332  36.440  23.089   3.295
38908W        W11333  27.583   6.191   4.117
38909W        W11334  30.044  33.626  12.029
38910W        W11335  21.066  24.057  13.898
38911W        W11336  37.489   4.916  10.562
38912W        W11337   2.889  37.905   1.286
38913W        W11338  33.053  36.476  14.823
38914W        W11339  37.835  33.092   4.683
38915W        W11340   1.750  30.963  14.904
38916W        W11341  21.524   8.236   1.912
38917W        W11342  26.549  39.813  14.386
38918W        W11343   1.809  24.054  11.994
38919W        W11344  11.839  39.826   1.749
38920W        W11345  21.208   8.172   4.779
38921W        W11346   8.326   6.361   5.092
38922W        W11347   7.883  43.371   0.366
38923W        W11348  22.125  35.889   2.693
38924W        W11349   4.898  19.650   0.912
38925W        W11350  29.579  33.016  10.633
38926W        W11351   7.692  20.649   3.746
38927W        W11352  40.804  14.314   3.375
38928W        W11353  39.946  27.608  12.848
38929W        W11354  35.955  17.179   0.417
38930W        W11355  15.770  16.693   2.331
38931W        W11356  24.508  34.492  12.903
38932W        W11357  20.128  39.474   2.244
38933W        W11358  42.291   1.289  10.972
38934W        W11359  18.612  23.553   1.422
38935W        W11360  37.383  29.603  10.537
38936W        W11361   6.275  27.513  14.420
38937W        W11362  21.639  23.726  14.799
38938W        W11363  37.415  28.183   3.190
38939W        W11364  11.366  44.891  13.494
38940W        W11365  19.664  26.017  13.044
38941W        W11366  35.857  41.919   2.200
38942W        W11367  37.836  41.038  13.500
38943W        W11368  12.689  20.130  13.464
38944W        W11369  28.037  41.305  10.048
38945W        W11370  20.082   3.365  11.418
38946W        W11371   0.857  43.894  10.478
38947W        W11372  24.599  12.244   1.320
38948W        W11373   7.317  33.036  12.855
38949W        W11374  16.260   4.832  11.488
38950W        W11375  37.953  38.827   3.665
38951W        W11376  31.133  28.496  11.958
38952W        W11377  16.229  43.998   0.811
38953W        W11378  36.059  22.185  13.365
38954W        W11379  11.663  10.277  14.867
38955W        W11380  12.210  40.807  11.125
38956W        W11381  21.066  14.779   2.369
38957W        W11382  13.779  24.140  10.494
38958W        W11383  10.277  31.629   3.842
38959W        W11384  33.564  28.995   2.197
38960W        W11385  36.931   2.926  11.599
38961W        W11386  30.933  27.982   1.893
38962W        W11387  21.115   5.724  11.519
38963W        W11388  13.640   7.880  13.437
38964W        W11389  37.856  42.357  13.845
38965W        W11390  29.990   5.755  14.773
38966W        W11391  42.520  12.311   4.749
38967W        W11392   3.446  36.066  12.385
38968W        W11393  14.239   9.763  12.010
38969W        W11394  37.572   2.872   1.256
38970W        W11395   5.771  24.531  11.420
38971W        W11396  36.064  33.946   3.166
38972W        W11397   2.841  13.206  11.407
38973W        W11398  10.314  22.560   4.270
38974W        W11399  36.986   5.211   2.248
38975W        W11400  21.749  36.002  13.798
38976W        W11401  10.871  40.391   2.848
38977W        W11402  20.609  25.590  10.578
38978W        W11403   9.356   3.361   0.897
38979W        W11404  41.981   4.713  11.554
38980W        W11405  17.068  41.984   3.373
38981W        W11406   1.400  20.052   2.703
38982W        W11407  17.796  40.315  14.290
38983W        W11408  25.485  44.981   0.800
38984W        W11409   2.896  24.540  12.578
38985W        W11410  36.871  40.809   1.289
38986W        W11411  17.233  38.377   4.672
38987W        W11412  34.872  44.345  12.841
38988W        W11413  15.685  17.578   1.406
38989W        W11414  18.171  28.957   3.308
38990W        W11415  26.639   5.246   2.327
38991W        W11416  17.224  41.833  11.535
38992W        W11417  38.831  14.779   4.268
38993W        W11418  24.650  19.243  14.434
38994W        W11419  14.269  28.042   2.338
38995W        W11420  35.064  34.920   4.676
38996W        W11421  21.024  22.509   5.261
38997W        W11422  14.132   3.825   2.196
38998W        W11423   8.769  31.467   1.410
38999W        W11424  27.485   1.813   3.694
39000W        W11425   2.321   5.752  12.979
39001W        W11426  41.502  29.920   3.361
39002W        W11427  13.276   1.410   3.190
39003W        W11428   7.838   8.658   2.205
39004W        W11429   2.319  38.548  13.996
39005W        W11430   2.333   3.910   2.830
39006W        W11431  37.571  15.685  14.304
39007W        W11432  42.382  15.318   3.277
39008W        W11433  14.710  44.432  14.358
39009W        W11434  33.499  26.644   0.313
39010W        W11435  18.630  22.701   0.284
39011W        W11436  16.624  29.490  13.050
39012W        W11437  41.321  19.185  12.517
39013W        W11438   9.195  33.473   9.956
39014W        W11439  28.649  13.211   1.277
39015W        W11440   7.342   6.911  14.406
39016W        W11441  13.752  12.300  13.985
39017W        W11442   1.777  37.352   4.231
39018W        W11443  39.991   2.421  14.313
39019W        W11444  42.357  41.328  12.456
39020W        W11445  25.147  19.669  12.938
39021W        W11446   6.267  34.994   0.851
39022W        W11447  39.030  15.256  13.849
39023W        W11448  24.650  28.592  11.105
39024W        W11449  36.883   6.389  14.411
39025W        W11450  12.631  16.097   1.759
39026W        W11451  41.838  22.070  10.405
39027W        W11452  15.211  34.002   2.723
39028W        W11453  38.372   1.398  13.011
39029W        W11454  16.132   7.763  13.947
39030W        W11455  13.224  43.288   2.725
39031W        W11456  16.805   4.276  13.319
39032W        W11457   2.290  15.163   2.673
39033W        W11458  43.299   7.310  14.420
39034W        W11459  32.083  28.631  13.007
39035W        W11460   9.721  29.565   3.639
39036W        W11461  25.592  14.603  12.559
39037W        W11462  10.832  20.262   3.867
39038W        W11463  15.762  33.403   5.205
39039W        W11464  12.855  41.851  11.060
39040W        W11465   5.386   7.174  12.398
39041W        W11466  38.056   0.438   3.796
39042W        W11467   9.201  15.126   3.251
39043W        W11468  16.768  21.139  12.575
39044W        W11469  41.368  20.120  12.053
39045W        W11470  20.176  25.053  11.399
39046W        W11471  31.433   3.739  14.884
39047W        W11472  32.516   5.368   1.335
39048W        W11473   9.374  16.758   3.304
39049W        W11474  32.109  44.279  12.886
39050W        W11475  34.896  13.616   4.266
39051W        W11476   0.949  32.485  12.933
39052W        W11477   1.948  12.171   1.239
39053W        W11478   0.361   9.227   0.731
39054W        W11479   3.780  23.683   2.846
39055W        W11480  44.969  31.036   1.411
39056W        W11481   8.890  10.844  11.115
39057W        W11482  38.447  23.155  12.404
39058W        W11483  29.430  22.142   1.842
39059W        W11484  28.447  19.222   4.621
39060W        W11485   4.435  19.244   4.632
39061W        W11486  44.454   1.909  13.958
39062W        W11487  21.020  26.463   1.420
39063W        W11488  32.090  39.463   0.432
39064W        W11489  16.086   8.239  14.452
39065W        W11490   3.338  34.462  10.564
39066W        W11491   3.443   4.235  13.858
39067W        W11492  42.022  33.923  11.442
39068W        W11493  40.458   2.855   4.723
39069W        W11494  23.212  23.734  10.914
39070W        W11495   3.382  44.469   5.269
39071W        W11496   4.728  31.575   4.665
39072W        W11497  19.736  26.549   4.662
39073W        W11498  20.243  30.634  10.540
39074W        W11499   1.937  44.347  14.965
39075W        W11500   3.932  24.095  14.288
39076W        W11501   1.860  17.678  13.342
39077W        W11502  43.020  44.898   3.630
39078W        W11503  10.368  32.547   1.342
39079W        W11504  38.365  15.160  12.431
39080W        W11505  44.305  27.111   1.337
39081W        W11506  19.541  27.553   0.819
39082W        W11507  12.715  21.026  14.328
39083W        W11508  27.057  17.304  10.027
39084W        W11509  10.288  38.823  11.491
39085W        W11510  31.984  40.434  13.337
39086W        W11511   8.740  29.157   4.804
39087W        W11512   9.320  36.842  12.358
39088W        W11513  35.920  20.656  13.544
39089W        W11514   1.842   2.929  14.434
39090W        W11515   1.828  18.561   5.195
39091W        W11516  12.281  36.050   1.223
39092W        W11517  37.858  31.124   2.301
39093W        W11518   5.297  42.913  14.488
39094W        W11519  35.443  25.060   1.856
39095W        W11520   9.841  28.103   3.383
39096W        W11521  21.586  28.144  11.048
39097W        W11522  32.070  37.337  14.364
39098W        W11523  36.916   5.749  12.976
39099W        W11524  27.037  24.076  11.967
39100W        W11525  28.025  16.160   0.297
39101W        W11526   5.380  23.653  14.771
39102W        W11527  24.514  37.484  13.847
39103W        W11528  32.547   9.330  11.440
39104W        W11529  25.129  41.913   3.379
39105W        W11530  27.672  32.537   2.354
39106W        W11531   9.244  18.283   1.447
39107W        W11532   1.736   8.350   3.294
39108W        W11533   1.287   6.321   0.809
39109W        W11534  44.322  42.931  13.510
39110W        W11535  31.122  39.392   4.140
39111W        W11536  34.065  14.206   1.698
39112W        W11537  38.489  15.146   0.952
39113W        W11538  38.456   9.391  12.856
39114W        W11539  27.657  18.729  12.463
39115W        W11540  43.384   6.828   1.899
39116W        W11541  11.254  12.648   4.159
39117W        W11542  36.857   0.368  14.785
39118W        W11543  41.845  19.043  11.019
39119W        W11544  18.611  36.473   3.710
39120W        W11545   5.438  23.585   0.264
39121W        W11546  42.775  28.954   3.259
39122W        W11547   9.391  15.189   0.746
39123W        W11548  24.498  34.090  11.883
39124W        W11549   8.771  30.577  14.289
39125W        W11550  24.704   6.806  10.549
39126W        W11551  44.378   9.649  14.778
39127W        W11552   0.363   0.808   0.951
39128W        W11553  22.564  10.835   4.337
39129W        W11554  16.630  21.166   4.341
39130W        W11555   3.405  13.164  11.459
39131W        W11556   5.860  17.707   1.229
39132W        W11557  41.972  16.771   2.721
39133W        W11558  20.598  27.950   0.767
39134W        W11559   3.227  43.938  11.377
39135W        W11560   2.382  26.637  12.921
39136W        W11561  36.448  23.091   4.732
39137W        W11562   0.252   2.936  12.006
39138W        W11563   9.679  44.283  13.990
39139W        W11564   6.333  43.351  10.511
39140W        W11565  16.223   9.289   4.250
39141W        W11566  14.136  39.348   3.235
39142W        W11567   0.343  16.639   4.711
39143W        W11568  22.574  20.559   4.788
39144W        W11569  18.236  20.246   1.733
39145W        W11570  36.454  32.461   2.411
39146W        W11571  21.634   9.266   3.669
39147W        W11572  44.925  40.374  11.923
39148W        W11573   9.731   0.462  13.450
39149W        W11574  15.774  13.741  11.545
39150W        W11575  18.235  38.565  12.359
39151W        W11576  28.655  34.411   3.865
39152W        W11577  18.194   7.339  13.472
39153W        W11578  29.525  22.577   3.220
39154W        W11579  38.568  22.603  14.858
39155W        W11580  34.949   6.721  14.468
39156W        W11581  13.271  30.103   1.800
39157W        W11582  41.401  10.737  11.866
39158W        W11583  37.911   0.866  10.991
39159W        W11584   0.796   6.236   0.325
39160W        W11585  16.270  13.609   4.753
39161W        W11586   3.456  42.022   5.176
39162W        W11587  29.068  34.882  14.818
39163W        W11588   6.719  15.092  11.972
39164W        W11589  12.348  13.634   0.968
39165W        W11590   7.370  37.893   9.609
39166W        W11591   1.453   2.842   3.280
39167W        W11592  33.596  26.962   2.785
39168W        W11593  12.232   9.365  10.971
39169W        W11594  21.739  33.410   2.831
39170W        W11595  26.485  43.427  10.904
39171W        W11596   5.258  37.407  13.893
39172W        W11597  22.152  42.864  10.479
39173W        W11598  28.062  29.108  12.498
39174W        W11599  12.216   4.355  13.912
39175W        W11600  22.195  15.675  13.469
39176W        W11601  44.293  32.093   3.364
39177W        W11602  44.933  36.553   4.317
39178W        W11603  39.447   9.747  13.458
39179W        W11604  15.619  37.958  13.518
39180W        W11605  32.902  16.183   3.358
39181W        W11606  28.957  40.464   4.314
39182W        W11607  22.705  20.686  13.915
39183W        W11608  14.820   7.244   1.347
39184W        W11609  44.997  38.471   3.147
39185W        W11610  27.119  35.552  11.893
39186W        W11611  16.191  41.854   4.648
39187W        W11612  13.268  18.163   5.090
39188W        W11613  27.019  15.785  13.312
39189W        W11614   2.335  42.885   1.340
39190W        W11615  38.503   2.776  10.485
39191W        W11616   8.224  32.414  11.906
39192W        W11617   2.762  32.541  11.030
39193W        W11618  15.761   2.810   0.320
39194W        W11619  31.595  44.906   3.825
39195W        W11620  28.453  13.759   0.357
39196W        W11621  21.619  40.493  11.004
39197W        W11622   3.793  30.087   3.301
39198W        W11623  17.073  11.808  10.101
39199W        W11624  21.618  33.914   4.144
39200W        W11625  21.183  39.957   9.947
39201W        W11626  44.767  18.561   3.331
39202W        W11627  10.788  14.131   4.635
39203W        W11628  32.957   2.465   2.723
39204W        W11629  43.782  20.247  10.947
39205W        W11630  26.582  27.099  10.559
39206W        W11631   1.850   9.713   0.360
39207W        W11632  22.508  43.767  14.421
39208W        W11633   0.775  40.318   4.281
39209W        W11634  13.208  37.504  13.879
39210W        W11635  32.465  30.022   4.608
39211W        W11636  29.933  29.969  12.547
39212W        W11637  12.269  37.485   5.245
39213W        W11638  18.768   8.897   1.293
39214W        W11639  27.017  30.629  10.521
39215W        W11640  33.490  21.654  14.304
39216W        W11641  27.170  29.978   1.892
39217W        W11642  18.688   7.315  13.053
39218W        W11643   7.230  10.726   4.799
39219W        W11644  44.886  43.939   2.302
39220W        W11645  31.109  29.613  11.058
39221W        W11646  27.088   8.854   1.278
39222W        W11647  17.194   0.965  13.819
39223W        W11648  25.549  24.712   0.785
39224W        W11649  32.117  41.972  11.565
39225W        W11650  18.716  20.541   0.467
39226W        W11651  27.190  34.427  11.563
39227W        W11652  36.033  11.806  14.275
39228W        W11653  26.017  36.842  12.007
39229W        W11654  21.701   0.959   9.960
39230W        W11655  42.822  34.863  12.019
39231W        W11656  44.991  31.961   0.892
39232W        W11657  39.386  41.514   0.293
39233W        W11658  19.197  20.655  12.428
39234W        W11659  44.784  14.260  12.365
39235W        W11660  12.760  17.711   3.818
39236W        W11661  31.014  15.613   1.890
39237W        W11662  12.812   2.350   2.845
39238W        W11663  18.714   4.848   0.295
39239W        W11664  42.463  32.600  13.943
39240W        W11665   1.952   5.290  12.438
39241W        W11666  14.255  22.048   1.377
39242W        W11667   8.353  14.284   0.251
39243W        W11668  39.368  28.608   4.780
39244W        W11669  33.945  41.488  14.893
39245W        W11670  31.056  10.683  10.579
39246W        W11671   1.330  18.233   4.284
39247W        W11672  30.633  44.364  11.416
39248W        W11673   0.404  26.502   1.213
39249W        W11674  21.728  24.975  14.353
39250W        W11675  24.075  34.442   2.368
39251W        W11676  37.339  27.156   2.289
39252W        W11677  19.727   0.459  14.910
39253W        W11678   6.365  34.915   1.754
39254W        W11679  22.687   7.833  11.918
39255W        W11680  10.804   3.741   3.363
39256W        W11681  13.114  16.174  14.434
39257W        W11682  21.259  28.936   1.862
39258W        W11683  26.624   5.252  10.618
39259W        W11684  14.783  18.634  12.878
39260W        W11685  38.527  41.825  10.565
39261W        W11686   4.219  19.634   3.686
39262W        W11687  32.106  16.171  13.019
39263W        W11688  15.776   6.735   3.811
39264W        W11689   7.832  26.087   4.829
39265W        W11690  22.735  42.826  12.378
39266W        W11691  41.470  33.886   4.293
39267W        W11692  38.431  21.557  11.916
39268W        W11693  35.057  25.145  12.028
39269W        W11694   9.251  34.533   2.385
39270W        W11695  22.104  12.647   3.190
39271W        W11696  43.944  19.572   2.698
39272W        W11697  37.437  39.899   3.643
39273W        W11698   2.333  38.396  14.283
39274W        W11699   5.249  37.462  11.047
39275W        W11700  27.482  38.364  11.932
39276W        W11701  40.510  37.348   4.307
39277W        W11702  20.611  38.446  12.988
39278W        W11703   8.750   8.703   1.336
39279W        W11704  17.628   1.958   9.436
39280W        W11705   9.757  14.314   1.863
39281W        W11706  40.026   8.862  14.324
39282W        W11707  29.486  16.658  12.447
39283W        W11708  16.289  36.081   2.832
39284W        W11709  12.701  30.438   0.788
39285W        W11710  36.425  42.332  14.839
39286W        W11711  38.918   7.864   1.892
39287W        W11712  24.181  22.241   4.247
39288W        W11713  42.353  10.861   2.285
39289W        W11714  30.525  21.610   2.760
39290W        W11715  32.585   0.291  12.479
39291W        W11716  20.053  18.655   4.806
39292W        W11717  40.392  10.839  13.911
39293W        W11718  18.749  25.996   1.355
39294W        W11719   2.276  30.456   0.321
39295W        W11720   3.274  14.595  10.928
39296W        W11721   3.333  35.569   2.387
39297W        W11722  29.462  13.312   0.374
39298W        W11723   1.469   5.332   3.302
39299W        W11724  38.861  24.534   5.733
39300W        W11725  11.672   8.254   3.181
39301W        W11726  23.226  44.387  12.530
39302W        W11727  41.928  36.432  10.897
39303W        W11728   8.780  38.483  11.436
39304W        W11729  34.558  21.101   1.391
39305W        W11730  17.128  40.991  11.863
39306W        W11731  44.314  43.825   0.795
39307W        W11732  16.142  36.085   2.390
39308W        W11733   9.744  44.940  14.009
39309W        W11734   1.430  36.972  12.890
39310W        W11735   7.215  26.656   4.142
39311W        W11736  10.854   9.189   5.615
39312W        W11737  25.092  22.712  14.451
39313W        W11738  13.839  31.012  10.631
39314W        W11739  36.919   7.377   0.367
39315W        W11740   0.278  23.129   0.478
39316W        W11741   6.834   6.908   1.263
39317W        W11742  44.330  17.161   5.108
39318W        W11743  42.021   1.822  10.076
39319W        W11744  20.739   6.309   0.374
39320W        W11745   4.411  22.032  10.496
39321W        W11746  14.277   7.277  11.913
39322W        W11747  27.958   1.386  12.480
39323W        W11748  27.974  30.978  13.341
39324W        W11749   6.894  21.038   4.625
39325W        W11750  22.047  34.454  13.494
39326W        W11751  41.975   5.734  11.525
39327W        W11752  18.583  16.185  13.060
39328W        W11753  30.413  31.949  11.977
39329W        W11754   9.721  34.532  12.001
39330W        W11755  23.202  16.286  12.984
39331W        W11756  30.978   3.338  11.400
39332W        W11757  13.317   2.893  12.988
39333W        W11758  38.491  23.666   0.388
39334W        W11759  19.101  27.127   3.760
39335W        W11760  36.387   3.411  13.323
39336W        W11761  32.628  10.354   2.306
39337W        W11762  26.111  37.042  12.491
39338W        W11763  40.371   2.367  12.872
39339W        W11764  21.026   5.822  10.983
39340W        W11765  44.458  38.060   3.209
39341W        W11766  38.345  18.606   3.724
39342W        W11767  39.902  15.791  13.913
39343W        W11768  28.033  24.981  13.049
39344W        W11769   3.426   6.293  10.527
39345W        W11770  34.567  33.558   3.856
39346W        W11771  24.037   9.773   0.763
39347W        W11772  37.958  20.054  10.600
39348W        W11773  12.673   3.241  12.557
39349W        W11774  28.573  41.887   2.841
39350W        W11775   6.903  16.575   2.243
39351W        W11776  31.471  21.749  11.077
39352W        W11777  41.945  38.964  11.026
39353W        W11778   6.923  23.184  10.491
39354W        W11779  27.571   4.391  13.879
39355W        W11780  21.581  14.146   1.321
39356W        W11781   8.899  20.692   3.646
39357W        W11782  24.502  22.184   2.766
39358W        W11783   6.844  38.974   2.805
39359W        W11784  39.053   4.289   0.750
39360W        W11785  33.919  31.928  13.951
39361W        W11786  30.981  40.945  11.077
39362W        W11787   5.802  21.245  14.285
39363W        W11788   1.287  42.877  11.037
39364W        W11789  18.126  33.958  12.414
39365W        W11790  31.063  15.160   3.192
39366W        W11791  12.723  31.579   2.840
39367W        W11792  34.482  22.678   2.199
39368W        W11793  11.315  33.443  14.280
39369W        W11794  12.783   0.872  14.972
39370W        W11795  38.929   3.431   2.780
39371W        W11796  44.763  16.585   3.288
39372W        W11797  26.128   5.880  13.355
39373W        W11798   2.944  44.409   0.459
39374W        W11799  11.781   6.183   0.923
39375W        W11800  27.666  28.598  10.953
39376W        W11801  42.393  33.539  12.379
39377W        W11802  25.986  29.118  12.893
39378W        W11803  31.937  28.639  10.515
39379W        W11804   1.822  20.748  14.977
39380W        W11805  40.949   5.693  13.001
39381W        W11806  31.068  21.068   1.914
39382W        W11807   6.793  32.954  12.413
39383W        W11808   9.700  26.642   0.451
39384W        W11809  34.487  38.829  11.868
39385W        W11810   7.730   3.230  11.064
39386W        W11811  30.947   8.257  14.773
39387W        W11812  22.138  26.672  10.445
39388W        W11813  43.906  12.651  12.559
39389W        W11814  25.163  38.505  10.890
39390W        W11815  23.088  23.673  12.010
39391W        W11816  29.065  37.893   2.805
39392W        W11817  32.012  15.783  11.991
39393W        W11818  28.617  41.931   4.792
39394W        W11819  38.897  28.944   0.859
39395W        W11820   4.820  10.778   2.410
39396W        W11821   5.350  38.506   3.807
39397W        W11822  40.845  24.096   3.332
39398W        W11823  32.621  23.734   1.271
39399W        W11824  31.979  32.135   4.682
39400W        W11825  12.792   8.278   0.957
39401W        W11826  43.884   4.788   1.780
39402W        W11827  10.774  32.107   3.635
39403W        W11828   5.830  34.974  13.533
39404W        W11829  11.299  25.540   0.355
39405W        W11830  15.297  31.404   2.242
39406W        W11831  21.723  36.864   0.451
39407W        W11832  30.579  15.787  14.776
39408W        W11833  17.620  42.777   0.305
39409W        W11834   0.368  25.661   0.749
39410W        W11835  20.724  10.208  12.857
39411W        W11836  27.946  10.263   3.667
39412W        W11837  28.497  14.264  10.995
39413W        W11838  31.947  24.628   2.369
39414W        W11839  37.836  12.637  10.587
39415W        W11840  39.479   6.347  13.351
39416W        W11841   1.328  15.146  12.922
39417W        W11842  25.107  24.505   4.668
39418W        W11843   8.240   2.468   2.899
39419W        W11844  15.679   5.927   0.257
39420W        W11845   9.271  12.258   4.783
39421W        W11846  12.760  17.246   2.227
39422W        W11847  11.692  44.268  10.463
39423W        W11848  23.575   3.753  13.428
39424W        W11849  13.299  36.426  13.014
39425W        W11850  31.150  20.564   2.885
39426W        W11851  16.199   8.293  14.967
39427W        W11852  43.001   9.194   2.317
39428W        W11853  40.945  30.464  14.422
39429W        W11854  29.024  44.445   4.325
39430W        W11855   8.259   2.949  12.885
39431W        W11856  10.709   8.707  13.365
39432W        W11857  21.664  20.767  14.301
39433W        W11858   4.770  30.596  14.368
39434W        W11859  37.964  32.961   1.444
39435W        W11860  16.141   3.421  14.369
39436W        W11861   9.188  40.345  13.991
39437W        W11862  33.457   8.817   4.316
39438W        W11863   9.374   4.419   0.853
39439W        W11864   7.730  26.193  13.892
39440W        W11865  14.314  40.873   4.714
39441W        W11866  23.563   0.272   1.358
39442W        W11867   0.919   7.831   3.208
39443W        W11868  11.765  23.550   4.138
39444W        W11869  11.697  25.647  10.488
39445W        W11870   0.349  15.293  13.432
39446W        W11871   4.449   7.357  14.817
39447W        W11872  38.430  19.052  12.942
39448W        W11873  10.769   2.310   3.218
39449W        W11874   9.754  30.605   4.318
39450W        W11875   4.438  21.135  12.515
39451W        W11876  40.473  37.846  14.303
39452W        W11877  20.724   4.403   1.448
39453W        W11878  36.469  37.385   0.395
39454W        W11879  31.960  42.818  13.859
39455W        W11880  15.200  35.592   2.736
39456W        W11881  21.636  25.622   4.689
39457W        W11882  34.426  25.162   4.153
39458W        W11883  26.673  20.658   2.244
39459W        W11884   6.416  11.348  13.048
39460W        W11885  36.356  34.567  14.306
39461W        W11886  27.010  32.936  12.359
39462W        W11887  43.953   9.330  13.476
39463W        W11888  43.907  24.704  12.922
39464W        W11889  43.847   4.879  13.412
39465W        W11890  26.144   7.710   2.314
39466W        W11891   7.301  22.170   0.841
39467W        W11892  26.054  41.320  10.486
39468W        W11893  25.695  35.103   3.661
39469W        W11894  14.222  29.650  14.973
39470W        W11895  25.549  21.231   3.220
39471W        W11896  35.446   5.748   1.262
39472W        W11897  43.346   7.301   1.277
39473W        W11898  24.718  28.063   2.220
39474W        W11899  24.690   0.375  12.372
39475W        W11900  28.578   8.847  14.774
39476W        W11901  17.250  17.651  10.942
39477W        W11902  19.614  21.590  14.486
39478W        W11903  42.358   7.220   3.740
39479W        W11904  34.431  39.315   1.720
39480W        W11905  44.446   7.889  14.891
39481W        W11906  44.831  35.020   4.124
39482W        W11907   4.408  44.483  11.562
39483W        W11908  21.222  32.597  10.480
39484W        W11909   3.952  28.050  10.443
39485W        W11910   9.323  43.308  14.858
39486W        W11911  14.114   5.727   0.312
39487W        W11912   5.753  42.957   4.640
39488W        W11913  43.839   9.158  13.879
39489W        W11914   0.899  16.226  13.479
39490W        W11915  37.491  18.239  10.915
39491W        W11916  41.041  26.184   2.393
39492W        W11917  33.430  39.002  12.913
39493W        W11918   6.908   5.221  13.337
39494W        W11919  42.485  24.651  12.914
39495W        W11920  33.404  40.005  13.538
39496W        W11921  31.513   1.970  14.973
39497W        W11922   6.770  17.242   2.688
39498W        W11923   6.279   2.908   0.774
39499W        W11924  40.803  39.879  14.363
39500W        W11925   3.361  25.049  10.533
39501W        W11926  37.877  35.891  12.974
39502W        W11927   1.910  41.432  14.372
39503W        W11928  31.571  34.471  11.419
39504W        W11929  20.094  31.899  11.914
39505W        W11930   3.877  11.665   2.395
39506W        W11931  17.260  11.629  12.037
39507W        W11932  15.238   8.258  11.915
39508W        W11933  41.933   8.842  10.063
39509W        W11934   9.711  44.308  11.505
39510W        W11935  12.143   2.231  13.449
39511W        W11936  40.049   3.948   0.291
39512W        W11937  43.419  12.360   1.373
39513W        W11938  14.100  42.357   3.820
39514W        W11939  41.962  37.513   1.922
39515W        W11940  17.692   4.388   1.416
39516W        W11941  39.852  35.391   3.338
39517W        W11942  30.500  16.710   3.150
39518W        W11943  12.276  16.122   0.810
39519W        W11944  41.786  14.321   1.294
39520W        W11945  17.707   5.748   2.411
39521W        W11946  14.095   3.727  12.573
39522W        W11947  30.598  29.652   1.414
39523W        W11948  42.028  42.298  14.865
39524W        W11949   5.326   1.348   3.806
39525W        W11950  12.201  42.284  10.607
39526W        W11951  34.580   5.892  11.474
39527W        W11952  39.495  27.986   2.715
39528W        W11953  44.459   8.762  13.920
39529W        W11954  43.416  11.861   0.412
39530W        W11955  31.095  21.557   2.224
39531W        W11956  22.220  14.099   0.914
39532W        W11957  17.567  36.858   0.741
39533W        W11958   3.303   9.852   1.751
39534W        W11959   8.326  27.985   4.675
39535W        W11960   1.412  10.683  14.480
39536W        W11961  35.452  23.053  11.028
39537W        W11962   6.345  11.687  14.922
39538W        W11963  12.134  29.602   1.896
39539W        W11964   5.395  30.072   1.744
39540W        W11965  23.125  31.554   1.268
39541W        W11966  13.153  13.756   3.285
39542W        W11967   4.207   3.235   2.409
39543W        W11968  14.150  25.707  13.415
39544W        W11969  30.606   8.801  12.984
39545W        W11970   2.960  17.783  11.988
39546W        W11971   1.403  20.629  14.891
39547W        W11972   8.345  20.127  13.970
39548W        W11973  19.262  12.754   1.906
39549W        W11974   9.332  30.498  12.914
39550W        W11975  43.772  22.654  13.403
39551W        W11976  10.850   4.338  10.477
39552W        W11977  35.042   1.475  12.531
39553W        W11978  26.073  38.858   1.882
39554W        W11979  13.115  35.511  12.487
39555W        W11980  43.778  33.570   4.801
39556W        W11981  10.741  18.737  13.364
39557W        W11982  39.900  17.161  13.381
39558W        W11983  14.095   5.370  13.471
39559W        W11984  29.034   6.778  13.970
39560W        W11985  34.538  40.861   4.337
39561W        W11986  28.586   3.720   1.423
39562W        W11987  10.227   2.354   9.979
39563W        W11988  24.175  34.956  14.436
39564W        W11989  28.523  17.639  14.894
39565W        W11990  27.019   4.276  12.527
39566W        W11991   1.430  23.193  12.024
39567W        W11992  39.888  13.813  11.558
39568W        W11993   6.770  37.024  12.875
39569W        W11994  35.067  29.966   0.375
39570W        W11995  22.153   1.881   1.386
39571W        W11996  27.014  12.664   1.324
39572W        W11997  34.113  28.955  10.511
39573W        W11998  15.104  30.058  14.949
39574W        W11999  22.628  44.799  13.039
39575W        W12000  30.639   2.299  12.362
39576W        W12001  14.653  12.681   0.395
39577W        W12002  37.508  14.769   3.228
39578W        W12003   1.382  28.439  11.098
39579W        W12004   8.792  30.159   1.411
39580W        W12005  23.538  13.669   0.441
39581W        W12006  22.509  39.360   1.830
39582W        W12007   1.742  42.975   4.219
39583W        W12008  37.459   6.334  14.292
39584W        W12009  16.591  20.679  11.605
39585W        W12010  19.205  14.715   2.861
39586W        W12011  43.350  12.798   1.217
39587W        W12012  20.140  38.873   0.365
39588W        W12013   8.700  16.265  13.416
39589W        W12014   5.205  26.003  12.035
39590W        W12015  28.086  30.643  10.904
39591W        W12016  42.494  26.653   0.949
39592W        W12017  27.109  35.481   4.285
39593W        W12018  32.999  25.616  13.416
39594W        W12019  29.160  39.471   3.740
39595W        W12020  36.537  20.699  10.560
39596W        W12021  19.090   6.259   0.298
39597W        W12022  23.505  43.348   3.381
39598W        W12023   9.369  31.957   0.288
39599W        W12024  15.677  39.372  14.303
39600W        W12025  31.503  35.930   3.175
39601W        W12026   8.344  24.988   2.414
39602W        W12027  40.390  13.202   3.164
39603W        W12028   6.683   7.233   3.361
39604W        W12029   0.784  43.901   0.794
39605W        W12030   7.306  19.160   1.792
39606W        W12031   7.341  14.641   1.717
39607W        W12032  14.699  16.261  13.387
39608W        W12033  40.481  39.041   3.682
39609W        W12034  28.473  31.416   4.708
39610W        W12035  37.960  11.847  10.632
39611W        W12036  23.665  32.008   0.932
39612W        W12037   6.274  44.410  12.433
39613W        W12038  35.107  42.301  13.489
39614W        W12039  22.607  19.072  11.433
39615W        W12040  32.493  34.520  11.608
39616W        W12041   5.920  30.584  11.900
39617W        W12042  22.704  15.255   2.317
39618W        W12043  39.869  26.100   3.669
39619W        W12044  29.559   4.898  11.028
39620W        W12045  26.673  29.045   2.804
39621W        W12046  34.090  37.484  12.917
39622W        W12047  19.677  11.135   4.304
39623W        W12048  43.480  41.488   2.738
39624W        W12049  36.058  44.282  11.010
39625W        W12050   6.718  29.109  13.856
39626W        W12051  32.961  40.047   1.292
39627W        W12052  35.933  20.600  10.992
39628W        W12053  24.721  33.572   4.353
39629W        W12054   2.805  21.118   0.289
39630W        W12055  30.490   6.255   5.234
39631W        W12056  26.513  32.890  11.471
39632W        W12057   0.418  22.127  11.492
39633W        W12058   2.271  19.549  12.548
39634W        W12059  25.181   3.722   1.906
39635W        W12060   6.857  39.408  14.432
39636W        W12061  27.522   4.305   4.143
39637W        W12062  33.432  16.726  13.923
39638W        W12063  27.096  42.384  14.972
39639W        W12064   5.390  13.836   1.857
39640W        W12065  35.577  38.378   1.827
39641W        W12066  25.614  13.168   0.355
39642W        W12067  40.818  43.795  10.469
39643W        W12068  39.842  44.312  12.375
39644W        W12069  36.559   6.822   4.696
39645W        W12070  36.966  19.708   3.728
39646W        W12071  30.481  22.713   3.777
39647W        W12072  31.465   1.392   4.331
39648W        W12073  19.251   0.347   1.249
39649W        W12074   1.826  10.864  12.860
39650W        W12075  13.775  40.876  13.007
39651W        W12076   6.412  34.414   3.242
39652W        W12077  18.728  18.591   2.364
39653W        W12078   1.750  13.262   1.396
39654W        W12079  14.678  40.956   0.263
39655W        W12080  39.031  41.311   1.835
39656W        W12081   8.869   7.875   0.379
39657W        W12082  16.154  37.853  11.389
39658W        W12083  28.078  15.823   0.856
39659W        W12084  21.115   6.288   4.313
39660W        W12085  38.985   5.359   3.799
39661W        W12086  35.890   7.710  11.444
39662W        W12087  43.410  25.165   3.805
39663W        W12088  39.560  11.690   4.690
39664W        W12089   9.887   3.334   1.873
39665W        W12090  20.556   9.736  11.931
39666W        W12091  18.119  44.350  14.303
39667W        W12092  41.337   2.423  14.897
39668W        W12093   2.896   0.358  10.544
39669W        W12094  10.172  30.044   1.419
39670W        W12095  16.674  17.192  12.045
39671W        W12096   0.305  39.364  14.409
39672W        W12097   1.824  35.914  14.292
39673W        W12098  38.914  43.461   3.714
39674W        W12099   2.945  40.482   3.154
39675W        W12100   7.828  12.188  11.961
39676W        W12101  31.621  12.685   3.801
39677W        W12102  10.228   7.259  12.452
39678W        W12103  27.625  21.548  12.978
39679W        W12104  29.589  37.471   1.366
39680W        W12105  41.946  10.870   4.802
39681W        W12106  32.549  31.520   3.797
39682W        W12107  39.941  41.007   4.598
39683W        W12108  14.795  36.527   3.670
39684W        W12109  17.643  14.725  10.452
39685W        W12110  25.680   4.294  12.994
39686W        W12111  22.026   9.728   3.234
39687W        W12112  15.330  36.543  10.904
39688W        W12113  10.640  18.055  13.958
39689W        W12114  44.961  16.082  10.598
39690W        W12115  17.565  18.294   1.314
39691W        W12116  36.998  21.630   1.797
39692W        W12117   2.752  34.875  13.026
39693W        W12118  21.731  10.815  11.069
39694W        W12119  20.164  30.433  10.976
39695W        W12120  20.617  12.179   3.765
39696W        W12121  41.453  35.525   2.287
39697W        W12122  17.235  17.670  14.972
39698W        W12123  27.135  12.273  11.065
39699W        W12124  12.666  37.871  14.957
39700W        W12125   8.801  33.531   3.721
39701W        W12126  12.294  23.132   4.830
39702W        W12127  20.267  43.851  12.551
39703W        W12128   8.392  26.177  14.974
39704W        W12129  39.321  20.574  11.518
39705W        W12130   2.320  31.551  11.502
39706W        W12131   4.772   9.305   3.365
39707W        W12132  37.449  29.545   2.183
39708W        W12133  15.318  11.814   1.375
39709W        W12134  34.435  33.527   4.778
39710W        W12135   4.886  32.578   3.790
39711W        W12136   1.379  13.195  13.933
39712W        W12137   5.839  20.620  13.926
39713W        W12138   5.875  14.270  11.400
39714W        W12139  40.891  42.964  11.955
39715W        W12140  34.086   0.936   4.655
39716W        W12141  14.173  20.643   4.166
39717W        W12142  13.616  38.542   2.291
39718W        W12143   1.745  24.222   2.230
39719W        W12144   5.874   3.813   1.256
39720W        W12145  38.875  44.263  11.381
39721W        W12146  41.885  35.973  13.460
39722W        W12147  16.632  39.445   2.213
39723W        W12148  29.945  16.245   1.796
39724W        W12149  17.634  37.385   1.230
39725W        W12150  18.288  11.345   1.225
39726W        W12151  10.311  12.312  10.998
39727W        W12152  24.003  43.298  14.776
39728W        W12153  38.457  18.754   3.235
39729W        W12154  15.248  43.508   0.943
39730W        W12155  29.162  33.572   2.671
39731W        W12156   5.252  23.996   4.147
39732W        W12157  21.223  44.291  14.453
39733W        W12158  27.454   6.746   4.831
39734W        W12159   3.329  40.864   1.213
39735W        W12160  16.592  19.719  14.871
39736W        W12161  33.951   9.259  10.970
39737W        W12162   7.238  29.108   4.778
39738W        W12163   2.351  25.521   1.257
39739W        W12164   3.898  12.677  13.366
39740W        W12165  23.674  44.503  12.995
39741W        W12166  30.579  18.110  12.937
39742W        W12167  23.159  29.662  13.979
39743W        W12168  32.511  21.750   0.917
39744W        W12169   2.353   6.751  11.469
39745W        W12170  31.451  32.989  10.508
39746W        W12171  38.452  36.005   4.139
39747W        W12172  16.125  12.348  11.945
39748W        W12173  36.953  30.592  12.938
39749W        W12174  21.170   0.352  13.997
39750W        W12175  29.121  25.192   3.277
39751W        W12176  37.348  28.999  13.886
39752W        W12177  43.803   0.348   4.746
39753W        W12178  34.919  30.442   4.748
39754W        W12179  18.296   2.948  12.924
39755W        W12180  30.053  32.960   2.687
39756W        W12181   0.763  34.881   1.310
39757W        W12182  35.438  38.480   1.393
39758W        W12183   8.404  38.020   2.798
39759W        W12184  34.420  44.978   1.831
39760W        W12185  21.055  32.426   2.821
39761W        W12186   8.359  12.345  12.949
39762W        W12187  38.963   4.354  13.483
39763W        W12188   2.830  24.148  12.003
39764W        W12189  24.725   5.829   4.205
39765W        W12190  25.676  43.954   4.214
39766W        W12191   0.804   0.899   0.828
39767W        W12192  37.980  24.066   1.393
39768W        W12193  28.183  24.494  11.922
39769W        W12194  39.496  18.714  13.914
39770W        W12195   8.334   1.413   0.291
39771W        W12196  17.169  33.915  11.904
39772W        W12197   1.794  21.069  13.463
39773W        W12198  17.226   1.826  11.072
39774W        W12199   6.741   4.792  12.958
39775W        W12200  13.251  39.935  12.873
39776W        W12201   6.408  35.486  14.353
39777W        W12202  15.127   6.909   0.242
39778W        W12203  12.678  13.621  11.450
39779W        W12204  42.004  31.938  13.524
39780W        W12205  22.166   9.721  14.976
39781W        W12206  11.795  43.958  13.862
39782W        W12207  17.591   3.875   1.711
39783W        W12208   6.315  20.607  10.426
39784W        W12209  10.200  15.723   1.313
39785W        W12210  41.789   2.949   4.792
39786W        W12211  30.512  23.160  12.066
39787W        W12212  40.366   6.255   0.246
39788W        W12213   8.731  44.982  10.614
39789W        W12214  31.587   6.766   3.777
39790W        W12215  23.653  27.196   3.703
39791W        W12216  10.252  38.355   0.947
39792W        W12217  44.291  44.776   4.334
39793W        W12218  10.848  19.084  10.425
39794W        W12219   3.769  25.478  11.993
39795W        W12220  18.687  19.227   3.289
39796W        W12221  13.214  20.228   1.735
39797W        W12222  26.541  35.452  11.028
39798W        W12223   3.406  27.050  12.022
39799W        W12224  21.140  23.073   3.807
39800W        W12225   3.722   9.310   1.713
39801W        W12226   3.255  30.908   1.856
39802W        W12227  26.091  12.230   1.816
39803W        W12228  35.028  37.385  11.438
39804W        W12229   5.933  26.559   0.415
39805W        W12230   0.826   1.434  14.029
39806W        W12231  34.045  34.902  13.983
39807W        W12232  16.246  10.358  12.508
39808W        W12233   6.755  15.707  13.981
39809W        W12234  22.577  12.750   5.295
39810W        W12235  32.912  33.602   4.618
39811W        W12236  38.363  10.161  11.468
39812W        W12237   6.281  24.133   3.318
39813W        W12238  11.833   2.930  10.577
39814W        W12239  17.745  36.506  14.791
39815W        W12240  17.752  15.754   2.796
39816W        W12241  23.522  43.905  14.415
39817W        W12242  40.803  41.514  11.445
39818W        W12243  25.616  27.056   3.791
39819W        W12244  21.671   6.895  12.855
39820W        W12245  13.730  29.154  14.383
39821W        W12246   0.427  26.532  11.057
39822W        W12247  30.952  33.938   2.835
39823W        W12248  26.117  37.493   3.212
39824W        W12249  24.204  26.547   1.751
39825W        W12250   8.334  10.183  13.540
39826W        W12251  35.052  21.687   1.812
39827W        W12252  14.722   5.933  10.599
39828W        W12253  17.101   5.700   9.968
39829W        W12254  24.086  17.205   0.896
39830W        W12255   0.800  15.112  13.056
39831W        W12256  25.211  35.076  14.921
39832W        W12257   8.341  16.698   2.893
39833W        W12258  21.169  22.519   1.263
39834W        W12259  33.930   1.866   2.807
39835W        W12260  10.188  11.808   5.193
39836W        W12261  14.144   5.925  11.558
39837W        W12262  26.526  18.225  10.563
39838W        W12263   9.177   2.746  12.908
39839W        W12264  29.660  33.605  13.996
39840W        W12265   4.343  38.048  12.912
39841W        W12266  12.808   2.274  11.064
39842W        W12267  38.012  22.246  12.406
39843W        W12268   1.925  19.076  11.970
39844W        W12269   5.233  40.933   2.403
39845W        W12270  30.000  13.315  12.563
39846W        W12271  20.152   0.835   3.810
39847W        W12272   7.171   6.212   1.706
39848W        W12273  23.060   9.253   3.151
39849W        W12274  34.992  11.219  14.396
39850W        W12275   5.753  43.486   2.205
39851W        W12276   7.306   4.214   1.773
39852W        W12277  23.690  13.786   1.905
39853W        W12278  33.968  11.145  12.006
39854W        W12279  29.653  22.722  14.871
39855W        W12280  41.791  37.347   5.209
39856W        W12281  25.126   1.380  14.965
39857W        W12282  16.304   2.963   0.916
39858W        W12283  35.366   4.381   0.408
39859W        W12284   0.294  15.293   1.781
39860W        W12285  43.508  15.803   2.412
39861W        W12286  36.998  41.507  10.916
39862W        W12287  44.841   2.963  14.433
39863W        W12288  21.721  33.071   4.819
39864W        W12289  22.738  38.850   1.448
39865W        W12290  43.851  26.976  10.951
39866W        W12291  23.033  33.966   3.335
39867W        W12292  18.176  17.262  12.004
39868W        W12293  38.469  28.069   0.929
39869W        W12294  27.563  12.725  14.409
39870W        W12295   6.755  32.538   1.344
39871W        W12296  16.723   0.760   1.255
39872W        W12297   0.268   6.187  14.866
39873W        W12298  13.295  30.508  12.858
39874W        W12299   4.210   5.892  12.004
39875W        W12300  35.565   7.246  14.805
39876W        W12301  26.615  40.333  10.453
39877W        W12302  32.514  17.113   3.753
39878W        W12303  30.440  36.377  14.286
39879W        W12304  36.366  30.000  12.517
39880W        W12305  11.754  31.556  10.945
39881W        W12306  36.922  26.953   3.265
39882W        W12307  18.625   1.840  13.970
39883W        W12308  35.072  26.484   1.898
39884W        W12309  26.997  44.967   0.473
39885W        W12310  15.125   8.766   0.872
39886W        W12311  10.383  34.538   3.161
39887W        W12312  21.669   5.917   4.660
39888W        W12313  32.541  35.478  12.896
39889W        W12314  33.128  42.955  10.408
39890W        W12315   9.356  33.621  12.457
39891W        W12316   6.714   5.691  10.416
39892W        W12317   1.246  16.228  12.039
39893W        W12318  30.151  11.240  10.457
39894W        W12319  40.319  12.714   2.337
39895W        W12320  19.173  34.940   3.231
39896W        W12321  29.042   9.358  12.834
39897W        W12322  18.127   3.793   4.209
39898W        W12323  28.145  15.201   0.255
39899W        W12324   2.811  38.879  11.571
39900W        W12325  10.706  39.020  13.818
39901W        W12326  27.659   0.256  12.449
39902W        W12327   0.314  11.808   0.317
39903W        W12328   3.855   5.323   3.641
39904W        W12329  41.798  38.938  14.469
39905W        W12330  19.209  43.019   0.350
39906W        W12331  10.234  21.031   4.323
39907W        W12332  23.236   5.697  13.386
39908W        W12333  14.340   5.788  10.010
39909W        W12334  40.958   0.953  11.946
39910W        W12335  25.207  24.034   0.470
39911W        W12336   9.360  31.406   2.871
39912W        W12337  28.553  32.933  14.494
39913W        W12338  10.239  39.895  13.897
39914W        W12339   0.823  19.780   1.425
39915W        W12340  10.310  37.045   2.754
39916W        W12341  12.208   0.309  14.805
39917W        W12342  30.089  19.647   0.749
39918W        W12343   5.354  40.799  11.421
39919W        W12344   7.231  32.906   2.834
39920W        W12345  16.242   7.730   2.825
39921W        W12346  29.645  39.477   2.411
39922W        W12347  41.336  32.054  13.004
39923W        W12348   1.951   1.752  13.893
39924W        W12349   0.746  12.690  13.791
39925W        W12350  12.792   1.268  14.900
39926W        W12351  15.272   6.306   2.740
39927W        W12352  29.587  20.150   2.815
39928W        W12353  25.622  12.164   3.658
39929W        W12354  36.404  15.751  12.433
39930W        W12355  41.937   2.311  14.817
39931W        W12356  26.643  19.703   2.882
39932W        W12357   3.416  31.969   0.449
39933W        W12358  38.411  37.408  10.590
39934W        W12359  12.346   6.188   1.215
39935W        W12360  36.389  36.504   4.688
39936W        W12361   2.937  36.379   0.908
39937W        W12362  41.861  38.924  11.406
39938W        W12363   1.734  35.078   2.768
39939W        W12364  44.445   8.846   4.131
39940W        W12365  20.636  33.050  13.856
39941W        W12366  33.106  27.063  14.850
39942W        W12367  17.190  30.055   4.674
39943W        W12368  40.877  40.478  11.951
39944W        W12369  27.596  27.954   2.702
39945W        W12370  31.096   6.191   1.799
39946W        W12371  33.027  17.718   5.192
39947W        W12372  33.113  13.631   2.190
39948W        W12373  18.765   8.240  13.445
39949W        W12374  38.831  37.038  14.295
39950W        W12375  33.962   6.348  14.491
39951W        W12376  14.769   1.311   0.863
39952W        W12377  19.054  10.292   2.188
39953W        W12378   8.803  14.255   2.791
39954W        W12379  20.591  19.278  12.482
39955W        W12380  27.063  18.650   2.685
39956W        W12381   9.344   1.288  12.061
39957W        W12382  41.864  12.750  10.124
39958W        W12383   9.299  11.809   3.800
39959W        W12384  28.000   9.349   2.286
39960W        W12385  27.489  18.252   1.422
39961W        W12386  39.333  11.704   1.320
39962W        W12387  31.128  27.519  12.988
39963W        W12388  41.028  34.899   4.730
39964W        W12389  10.755  15.671   3.747
39965W        W12390  11.750  40.308   4.759
39966W        W12391  42.411  24.164   3.322
39967W        W12392  10.828  16.685  14.365
39968W        W12393  43.340  33.580  11.862
39969W        W12394  43.334  37.897   2.774
39970W        W12395  26.101   2.301   1.383
39971W        W12396  25.135  41.327   2.204
39972W        W12397  15.291  12.632   1.231
39973W        W12398   5.924  15.121   4.250
39974W        W12399  12.625  27.689   0.481
39975W        W12400  34.422  15.317  12.377
39976W        W12401  28.004  31.421   2.836
39977W        W12402  28.459  43.861  10.516
39978W        W12403  35.371   6.759  14.428
39979W        W12404  13.820  28.515   1.701
39980W        W12405  19.718  20.051  14.996
39981W        W12406  16.675  41.515  12.559
39982W        W12407  40.518   5.717   2.344
39983W        W12408  19.755  22.190  13.984
39984W        W12409  40.403  21.153   1.796
39985W        W12410  26.979  14.243  13.815
39986W        W12411  35.461   7.697  14.485
39987W        W12412   2.737  40.994   3.198
39988W        W12413  11.661   4.788  13.373
39989W        W12414   3.852   7.384   4.125
39990W        W12415  41.787  40.967   2.236
39991W        W12416  43.980  40.499   2.766
39992W        W12417  15.159   4.808   3.357
39993W        W12418  16.780  40.977  11.930
39994W        W12419  13.172  34.495  10.611
39995W        W12420  22.598  34.062   4.344
39996W        W12421  12.311   3.911   1.728
39997W        W12422  34.599  42.861   4.603
39998W        W12423   2.319  37.844   4.259
39999W        W12424  38.499  44.889  10.035
40000W        W12425  29.985  17.229  14.469
40001W        W12426  21.607  29.954   3.233
40002W        W12427   5.912  22.586  14.366
40003W        W12428  16.694   2.733   5.796
40004W        W12429  40.015   5.753  10.535
40005W        W12430   3.808   2.749   4.603
40006W        W12431  40.328   8.865   0.905
40007W        W12432   2.279  21.685   3.818
40008W        W12433   9.856  12.140   1.759
40009W        W12434  37.503  30.026   0.275
40010W        W12435  26.998  40.399  12.018
40011W        W12436  13.189  21.101  12.944
40012W        W12437  31.060  12.352   3.681
40013W        W12438  20.185   8.749   3.869
40014W        W12439  18.227  19.149   1.393
40015W        W12440  15.738  44.337   2.863
40016W        W12441  36.403  15.790  11.049
40017W        W12442  40.511  22.025  12.453
40018W        W12443  17.302   7.850   4.695
40019W        W12444  40.833  14.120   0.860
40020W        W12445   0.444  40.838  14.983
40021W        W12446   6.888  29.077   3.762
40022W        W12447  25.015  42.005   0.957
40023W        W12448  11.807   3.419  12.024
40024W        W12449  26.470  11.232   1.324
40025W        W12450  40.803  37.509  12.830
40026W        W12451   2.862  33.036  13.050
40027W        W12452  16.114  30.132  13.471
40028W        W12453  13.117   8.854  10.991
40029W        W12454  11.171  23.620   1.411
40030W        W12455  19.171  25.713   0.938
40031W        W12456  25.566  43.378  12.965
40032W        W12457  35.032  27.046  10.919
40033W        W12458  10.876  19.586   4.129
40034W        W12459  32.001  40.479   5.272
40035W        W12460   4.910  41.353  12.861
40036W        W12461  36.562   7.885   1.211
40037W        W12462  12.840  24.705   9.600
40038W        W12463  15.090  44.774   3.194
40039W        W12464  15.263  42.001   4.232
40040W        W12465   5.692  13.332   2.867
40041W        W12466  21.597  37.520   4.294
40042W        W12467  12.225  14.138  13.023
40043W        W12468  12.185  10.752  13.321
40044W        W12469  25.627  41.032  10.534
40045W        W12470   3.923  19.597   1.903
40046W        W12471  29.026  43.363   3.294
40047W        W12472  44.421  24.685   4.292
40048W        W12473  34.896  30.568   0.823
40049W        W12474  25.215  29.538  10.422
40050W        W12475   5.875  14.755   2.258
40051W        W12476  21.531   8.821   1.814
40052W        W12477   0.287  11.651   0.742
40053W        W12478  35.872  33.397  14.387
40054W        W12479   0.942  17.747   1.729
40055W        W12480  21.546   0.406  13.937
40056W        W12481  25.688   1.961   4.762
40057W        W12482  27.153  31.419  11.879
40058W        W12483   6.687  18.173   3.319
40059W        W12484  21.674  21.177   4.776
40060W        W12485   1.808   1.340  11.100
40061W        W12486  27.473  30.446   2.668
40062W        W12487   6.288  17.612  13.870
40063W        W12488  42.504  38.052   0.833
40064W        W12489  27.979   5.823  14.965
40065W        W12490  31.041  23.617  12.358
40066W        W12491  18.218   6.269   0.311
40067W        W12492   3.826  21.604  11.454
40068W        W12493  35.953  13.292  14.330
40069W        W12494  36.556  25.119   0.322
40070W        W12495  38.354   7.301   4.301
40071W        W12496  19.087  10.878   3.251
40072W        W12497  25.593  10.184   2.832
40073W        W12498   8.382  38.495   0.375
40074W        W12499  11.150   8.752  14.760
40075W        W12500   2.813  43.299  12.870
40076W        W12501   2.797  18.234   3.751
40077W        W12502  14.298  25.997   0.755
40078W        W12503  43.295  17.644  13.334
40079W        W12504  25.602  15.220   3.362
40080W        W12505  17.661   5.901   3.815
40081W        W12506  12.802  21.156   1.882
40082W        W12507  32.069  20.552  13.467
40083W        W12508  28.072  25.549   2.283
40084W        W12509  14.225   4.443  12.880
40085W        W12510  18.698   4.226  14.818
40086W        W12511   9.191  27.109  12.850
40087W        W12512   5.241  22.114  12.841
40088W        W12513  31.427  39.340  13.343
40089W        W12514  28.599  29.958   5.219
40090W        W12515  23.671  11.789   1.306
40091W        W12516   1.966  12.821   4.349
40092W        W12517  34.537  10.735  14.428
40093W        W12518  36.888  37.073   1.323
40094W        W12519  16.632  31.028  12.068
40095W        W12520  24.651  40.045   4.745
40096W        W12521  33.540  34.974  14.010
40097W        W12522   2.410  27.167   4.238
40098W        W12523   3.368   1.750  13.414
40099W        W12524   0.300   1.308   1.325
40100W        W12525  16.747  23.155   0.825
40101W        W12526  41.017  25.976   2.730
40102W        W12527  40.471  35.425   0.309
40103W        W12528   9.718  12.149   4.123
40104W        W12529   6.425   9.861   1.446
40105W        W12530  20.201  37.014  12.503
40106W        W12531   0.933  27.942   5.129
40107W        W12532  33.890  29.620  11.011
40108W        W12533  28.458  20.750  12.459
40109W        W12534  15.703   1.302   1.228
40110W        W12535  41.484  34.543   1.755
40111W        W12536   0.446   6.324   4.715
40112W        W12537  19.558  37.044   1.810
40113W        W12538  15.807  41.822   4.760
40114W        W12539  33.529  38.539   1.220
40115W        W12540  12.269  17.113  12.910
40116W        W12541  16.269  27.019   2.748
40117W        W12542  19.715  20.165   0.334
40118W        W12543  23.992  37.002   4.150
40119W        W12544   6.771   8.369  12.017
40120W        W12545  22.238  17.556  12.075
40121W        W12546  36.532  16.276   3.278
40122W        W12547  25.598  27.946  12.543
40123W        W12548  20.044  15.119   1.787
40124W        W12549  12.150  10.682  11.399
40125W        W12550  40.879  36.055   3.694
40126W        W12551   7.740  26.522  10.602
40127W        W12552   5.391   7.899   1.310
40128W        W12553  35.365  30.965  11.007
40129W        W12554  14.677  17.629  10.527
40130W        W12555  34.895  35.571   1.236
40131W        W12556   0.781  37.411  12.051
40132W        W12557  14.711   2.756   1.355
40133W        W12558   8.773   1.318  11.606
40134W        W12559  29.452  17.285   4.733
40135W        W12560  33.027   8.657  14.810
40136W        W12561  43.951  36.891   0.831
40137W        W12562  44.293  43.880   4.171
40138W        W12563  15.746  40.477  14.396
40139W        W12564  33.077  28.658   0.938
40140W        W12565  11.354  44.383  14.971
40141W        W12566   2.930  31.035   4.267
40142W        W12567  22.129  43.002   4.806
40143W        W12568  40.872  42.973   5.259
40144W        W12569  23.052   1.781   3.746
40145W        W12570  22.730  26.662   4.183
40146W        W12571  37.836   3.271  11.061
40147W        W12572   7.185  27.989  12.029
40148W        W12573  19.264  25.575   1.721
40149W        W12574  36.469   9.845  14.498
40150W        W12575  41.451  12.227   2.401
40151W        W12576  36.500   1.881   5.102
40152W        W12577  27.101  13.184   4.604
40153W        W12578  39.981  37.426  13.993
40154W        W12579  11.210  35.964  12.872
40155W        W12580   1.365  33.568   2.304
40156W        W12581   3.318  25.151  14.788
40157W        W12582   1.353   2.426   0.426
40158W        W12583  37.999   0.461  10.889
40159W        W12584  26.193  34.957  13.024
40160W        W12585  32.054  27.519   9.966
40161W        W12586  22.661  43.503  12.897
40162W        W12587  28.130   5.750   4.644
40163W        W12588  31.523  35.589  11.596
40164W        W12589   4.274   5.397  12.570
40165W        W12590  35.382  17.201   0.875
40166W        W12591  29.526  42.952   2.784
40167W        W12592  32.407  34.584   0.962
40168W        W12593  12.203  23.709  10.038
40169W        W12594  23.024  14.812   2.859
40170W        W12595  17.573   7.869   0.763
40171W        W12596  25.494  12.733   2.392
40172W        W12597  23.635   0.755  10.539
40173W        W12598  32.509  20.042   4.296
40174W        W12599  28.059  37.538   3.699
40175W        W12600  23.230  37.399   0.901
40176W        W12601   9.154  31.931   1.724
40177W        W12602  17.680   1.873   2.340
40178W        W12603  32.568  12.233  10.573
40179W        W12604  19.605  30.144  14.418
40180W        W12605  32.025  16.261   4.748
40181W        W12606   6.696  44.956  12.391
40182W        W12607  13.659  14.601   0.936
40183W        W12608   3.354  29.574   3.772
40184W        W12609  24.030  27.500   0.296
40185W        W12610  16.283  34.093  10.574
40186W        W12611  30.545  41.530  12.895
40187W        W12612   1.799  20.269  11.961
40188W        W12613  38.894  34.442  12.955
40189W        W12614  30.959  33.534  12.950
40190W        W12615   5.311  29.555  13.455
40191W        W12616   6.231  34.048   0.252
40192W        W12617  11.679  10.770   1.350
40193W        W12618   0.950   1.748  11.056
40194W        W12619  18.112   9.776  13.924
40195W        W12620  27.013  19.759   0.828
40196W        W12621  41.946   3.722  14.945
40197W        W12622  24.556  27.173   0.916
40198W        W12623  34.117   2.916   0.793
40199W        W12624  18.630  19.740   0.779
40200W        W12625  40.507  22.141  13.465
40201W        W12626  44.945  32.017   2.685
40202W        W12627  34.028   4.804   1.928
40203W        W12628  36.376  36.412   1.799
40204W        W12629   4.313  20.146  11.611
40205W        W12630   5.862  14.208   3.742
40206W        W12631   3.315  44.398   4.670
40207W        W12632  13.168   5.916   2.351
40208W        W12633  12.222   7.873  10.430
40209W        W12634  40.326  11.211   2.779
40210W        W12635   2.849  41.850  11.011
40211W        W12636  28.571  39.063  14.449
40212W        W12637  32.929  19.042   4.771
40213W        W12638  17.078  12.778  10.948
40214W        W12639  26.624  22.545   2.197
40215W        W12640   7.750  41.469   1.231
40216W        W12641  38.481  20.075   2.802
40217W        W12642  40.309  26.956   1.286
40218W        W12643   0.917  30.538  14.872
40219W        W12644  42.867  13.636  12.080
40220W        W12645  26.144  26.181   4.307
40221W        W12646   8.713  14.142   4.320
40222W        W12647  30.958   1.757   4.771
40223W        W12648  22.087  43.498  10.478
40224W        W12649  14.834  42.502  13.325
40225W        W12650  11.632  42.372   0.328
40226W        W12651   9.225  35.492   5.250
40227W        W12652  24.147  25.488   0.867
40228W        W12653  33.461  44.903   2.299
40229W        W12654  31.568   4.745   2.220
40230W        W12655  31.554  29.445  11.574
40231W        W12656  36.923  18.177   2.296
40232W        W12657  21.137  22.137  13.820
40233W        W12658  35.533  14.323   3.353
40234W        W12659  43.963  40.313  11.964
40235W        W12660   5.363  35.413  12.964
40236W        W12661   4.282   6.183   3.176
40237W        W12662  27.532   8.276  13.406
40238W        W12663   1.904  16.811  10.887
40239W        W12664  26.696  38.051   2.845
40240W        W12665  35.928  36.389   4.601
40241W        W12666  39.931  12.329  13.425
40242W        W12667  35.940   1.451   3.759
40243W        W12668  15.607   8.818   0.414
40244W        W12669  34.957  42.851  13.392
40245W        W12670  28.666  26.652  11.561
40246W        W12671  22.170   9.662   0.248
40247W        W12672  38.532  17.652  11.049
40248W        W12673  17.665  19.670  12.897
40249W        W12674  31.587  36.961  14.007
40250W        W12675  36.006  17.061  10.501
40251W        W12676  19.165  38.832   4.326
40252W        W12677  22.119  36.017   1.816
40253W        W12678   8.218  42.812  14.870
40254W        W12679   4.887  41.445   1.440
40255W        W12680  44.833  31.910   3.229
40256W        W12681   2.280  22.165   1.764
40257W        W12682  11.282  24.576   1.278
40258W        W12683  37.033  44.430  14.966
40259W        W12684  10.669  23.079  11.105
40260W        W12685  33.006  38.981   2.671
40261W        W12686  16.733  38.542   0.397
40262W        W12687   7.196  29.639  11.499
40263W        W12688  43.814  26.957   0.817
40264W        W12689  20.692  39.054   1.359
40265W        W12690  20.673  30.592  14.809
40266W        W12691  36.018  25.210  13.418
40267W        W12692   3.815  24.538  12.076
40268W        W12693  31.146   6.832   1.412
40269W        W12694   8.896  41.375   1.724
40270W        W12695   5.318  33.045  12.902
40271W        W12696  11.337  10.835   3.228
40272W        W12697  31.061  19.583   1.842
40273W        W12698  10.770  18.258   1.763
40274W        W12699  30.639  38.517   4.648
40275W        W12700  15.598   8.769   3.803
40276W        W12701  32.522  42.342  13.804
40277W        W12702  30.622  26.996   1.750
40278W        W12703   5.354  39.901   0.279
40279W        W12704   4.795  42.850   4.300
40280W        W12705  43.793  36.452   1.711
40281W        W12706  36.451  13.673  11.593
40282W        W12707  37.849  43.780   2.295
40283W        W12708  33.448  26.642   3.149
40284W        W12709  16.660  30.428   1.421
40285W        W12710  26.047  30.613   2.368
40286W        W12711  32.906  42.511   3.200
40287W        W12712   5.435   7.347  10.449
40288W        W12713  34.001  38.978  11.051
40289W        W12714  13.695   4.269   4.711
40290W        W12715  35.034  29.665  14.934
40291W        W12716  38.030  13.661   3.221
40292W        W12717  15.197  18.124  14.775
40293W        W12718  27.570  42.029   3.633
40294W        W12719  23.668  22.235  12.548
40295W        W12720  11.707  16.270  12.939
40296W        W12721  22.013  24.050   2.824
40297W        W12722  41.027  28.985  12.498
40298W        W12723  32.420   9.152   3.841
40299W        W12724  10.812   2.402   1.213
40300W        W12725  33.422  19.680  14.323
40301W        W12726   3.856  26.576   0.967
40302W        W12727  18.659  16.313  13.337
40303W        W12728   1.906   5.901  10.520
40304W        W12729   6.902  40.848   4.799
40305W        W12730  18.137  17.600  11.999
40306W        W12731  42.875  30.091   2.840
40307W        W12732   7.369  35.081  13.049
40308W        W12733   4.869   1.952   2.215
40309W        W12734  39.541   3.911  12.044
40310W        W12735  33.069  18.255  14.929
40311W        W12736  42.306  16.237   1.214
40312W        W12737  24.067  40.519   1.265
40313W        W12738   2.396  43.452   0.453
40314W        W12739   7.342   3.456  10.934
40315W        W12740  24.226  44.833  14.494
40316W        W12741  41.302   1.967   1.808
40317W        W12742  32.994  40.343   1.703
40318W        W12743  36.531   8.770  10.538
40319W        W12744  27.549  24.205  13.356
40320W        W12745  33.037  23.561  12.841
40321W        W12746  32.548   4.255   2.854
40322W        W12747  28.514  41.944   4.328
40323W        W12748  20.645  35.363   0.733
40324W        W12749  37.576   9.794  11.538
40325W        W12750   9.190  25.113  12.375
40326W        W12751  17.117  36.461   0.742
40327W        W12752  22.093  25.708  12.451
40328W        W12753  22.641   1.938  13.507
40329W        W12754   8.712  19.246   1.346
40330W        W12755  24.085  36.052  13.312
40331W        W12756   4.407  19.142   3.830
40332W        W12757  25.116  30.007   4.697
40333W        W12758   2.822  30.594  12.074
40334W        W12759  21.070  16.319   3.217
40335W        W12760  19.644  26.054  12.560
40336W        W12761   5.419  23.100  14.436
40337W        W12762  21.184  29.564  10.477
40338W        W12763  25.120  26.036   4.703
40339W        W12764  10.218  35.448   2.309
40340W        W12765  39.455  27.154   0.251
40341W        W12766   3.774  42.499   2.810
40342W        W12767  21.020  17.638   0.290
40343W        W12768  10.368  26.012  12.860
40344W        W12769  15.121  32.097   3.728
40345W        W12770  12.190   7.811  13.520
40346W        W12771  44.500  27.451   1.837
40347W        W12772  25.651  37.933   2.272
40348W        W12773  42.330  31.623   0.864
40349W        W12774  25.528  18.117   3.351
40350W        W12775  44.360  18.188   2.784
40351W        W12776   8.222  34.598   0.346
40352W        W12777  15.290  37.425  13.493
40353W        W12778  20.166  21.743  12.069
40354W        W12779  22.639   9.295   2.723
40355W        W12780  13.602   4.843  11.008
40356W        W12781  23.043  32.072  14.784
40357W        W12782  44.404   5.404   4.129
40358W        W12783  43.820  21.611   4.610
40359W        W12784  14.100   9.788   2.885
40360W        W12785  43.975   9.275   1.699
40361W        W12786   7.902  34.959   5.790
40362W        W12787  30.910   6.413   0.806
40363W        W12788  33.572  29.020   3.774
40364W        W12789  15.248   8.844  10.939
40365W        W12790  39.323  27.580  14.364
40366W        W12791  14.170  43.986  10.484
40367W        W12792  36.489  38.006  12.570
40368W        W12793  13.142  22.720  11.915
40369W        W12794  16.644  24.023  10.455
40370W        W12795  17.691  25.054  12.911
40371W        W12796   8.842  20.574   4.764
40372W        W12797  18.663  11.661   4.808
40373W        W12798  23.094  43.386   1.721
40374W        W12799  16.140  34.556   1.833
40375W        W12800  36.434   4.425   2.734
40376W        W12801  38.499  11.299  14.492
40377W        W12802  29.518  29.096  10.535
40378W        W12803  41.989  26.965  11.958
40379W        W12804   9.292  31.543   4.736
40380W        W12805  25.581  39.394  10.485
40381W        W12806  26.613  21.059  13.794
40382W        W12807  20.037  28.084  10.471
40383W        W12808  14.226  12.331   1.805
40384W        W12809   2.267   6.787   4.782
40385W        W12810  22.686  15.298  14.020
40386W        W12811  34.581  25.193  12.557
40387W        W12812  22.191  18.153   0.879
40388W        W12813   5.838   2.781   2.805
40389W        W12814  42.994  14.141   3.244
40390W        W12815   0.930  19.699  14.848
40391W        W12816  30.499  36.046   1.324
40392W        W12817  24.521   9.207  12.448
40393W        W12818   4.711   5.700   3.856
40394W        W12819  33.482  21.147   4.162
40395W        W12820  37.501  15.762  12.361
40396W        W12821  27.604  33.474   2.390
40397W        W12822  30.086   4.874  11.447
40398W        W12823  26.644  15.670   0.358
40399W        W12824  13.685  19.695   4.772
40400W        W12825  32.451  18.683  14.360
40401W        W12826  42.983   1.952   2.244
40402W        W12827   6.324  42.505  13.999
40403W        W12828  11.721   0.412   0.731
40404W        W12829  29.057  30.450  10.637
40405W        W12830   2.371  43.472  12.502
40406W        W12831   6.360  16.176   0.893
40407W        W12832  17.649   7.837   1.869
40408W        W12833  19.267   0.350  14.500
40409W        W12834  18.194  13.340   1.256
40410W        W12835  21.065  19.689  13.010
40411W        W12836  31.547  15.306  12.413
40412W        W12837  11.853  36.502   1.874
40413W        W12838  26.018  17.624  12.552
40414W        W12839  33.905  37.500  12.031
40415W        W12840   5.871   6.733  10.537
40416W        W12841  14.271   4.737  13.963
40417W        W12842   4.364  41.529  11.096
40418W        W12843  31.560  42.386   1.392
40419W        W12844   1.947  24.210  13.472
40420W        W12845   9.161  25.482  12.352
40421W        W12846  21.688  40.375  11.927
40422W        W12847  30.050  10.742  14.439
40423W        W12848   3.370  18.784  11.439
40424W        W12849  14.827  15.765  10.013
40425W        W12850  44.266  24.583   3.725
40426W        W12851  37.491  13.334   3.692
40427W        W12852   9.687  41.451   3.331
40428W        W12853  42.921  38.393  13.403
40429W        W12854  36.018  11.641  11.887
40430W        W12855   5.311  42.463   4.197
40431W        W12856  33.523  10.840   3.754
40432W        W12857   9.366  22.604   3.173
40433W        W12858   2.299  29.570   2.788
40434W        W12859  28.559   6.270   2.360
40435W        W12860  24.124   8.281  11.579
40436W        W12861   1.370   0.950   0.783
40437W        W12862   1.919  35.396   4.699
40438W        W12863  32.616   4.743  12.846
40439W        W12864  29.986  28.958   1.451
40440W        W12865  27.485  21.572   0.732
40441W        W12866  30.522   1.795   2.706
40442W        W12867   2.743   8.221  14.893
40443W        W12868  34.085  13.209  11.080
40444W        W12869  17.742   0.422   3.710
40445W        W12870  29.923  26.153   1.395
40446W        W12871  41.941   9.718   1.840
40447W        W12872  19.642  36.432  14.408
40448W        W12873   1.449  24.197   4.213
40449W        W12874   1.930   4.834   3.266
40450W        W12875  26.490  22.069  11.044
40451W        W12876  40.306  37.372   3.354
40452W        W12877   9.779  10.725  12.571
40453W        W12878  10.237  10.790   0.839
40454W        W12879   4.229  21.238   4.801
40455W        W12880  35.440  17.630   3.754
40456W        W12881  36.588  31.484   0.400
40457W        W12882  36.879  20.029   2.666
40458W        W12883  20.536  26.183   1.882
40459W        W12884   6.264  36.387   4.619
40460W        W12885   7.249   3.296  12.484
40461W        W12886   8.806  21.149   3.340
40462W        W12887  10.173  31.484  12.899
40463W        W12888   7.343  26.561  10.631
40464W        W12889  21.710   1.924  10.969
40465W        W12890   4.783  21.243   4.197
40466W        W12891   5.346  31.526  11.074
40467W        W12892  27.185  22.527   4.185
40468W        W12893  33.110   6.275  13.469
40469W        W12894   1.768  32.063   3.252
40470W        W12895   3.779  17.233  14.821
40471W        W12896   3.217  40.012   4.196
40472W        W12897  11.712  30.082  12.364
40473W        W12898  42.407  43.851   4.161
40474W        W12899  32.018  19.615  10.599
40475W        W12900  42.916  38.493   1.282
40476W        W12901  10.236  43.977  14.292
40477W        W12902   5.761  32.963  10.548
40478W        W12903  44.444   8.884  10.100
40479W        W12904  11.751  31.495   1.823
40480W        W12905  11.677   8.724   4.726
40481W        W12906   5.822  29.960  10.507
40482W        W12907   2.280  21.536   4.766
40483W        W12908  26.630   9.195  13.857
40484W        W12909  11.291  15.720  14.294
40485W        W12910  17.091  15.186  12.461
40486W        W12911  38.340  38.437  12.441
40487W        W12912  11.636  28.506   0.862
40488W        W12913  10.845  24.494   3.753
40489W        W12914  13.108  34.099   0.298
40490W        W12915  36.479   6.185  14.384
40491W        W12916  16.184  31.125  11.581
40492W        W12917  34.118   4.740   3.340
40493W        W12918   5.402   8.859   2.823
40494W        W12919  26.658  38.011   4.710
40495W        W12920  16.291  40.878  10.437
40496W        W12921  20.251   3.334   3.267
40497W        W12922  31.981   2.965   1.379
40498W        W12923  15.220   1.319  14.805
40499W        W12924  39.320  35.508  11.584
40500W        W12925  39.865   7.736   0.799
40501W        W12926   5.277  38.839   1.228
40502W        W12927  13.774  14.721  12.340
40503W        W12928  11.144  38.392  12.071
40504W        W12929  31.153  20.655   1.852
40505W        W12930   8.362  17.765   0.855
40506W        W12931  13.774  35.427   4.311
40507W        W12932  35.441  41.894   1.246
40508W        W12933  44.491  11.211   3.862
40509W        W12934  14.612  30.015  14.447
40510W        W12935   9.657   9.879  12.006
40511W        W12936  35.568  18.294   3.230
40512W        W12937  41.362  34.120  11.538
40513W        W12938  10.661  11.738  13.408
40514W        W12939  17.699  30.617   2.406
40515W        W12940  39.413  18.551   1.816
40516W        W12941  16.692  37.503   0.746
40517W        W12942  22.709   5.859  12.948
40518W        W12943  17.626  32.961  10.925
40519W        W12944  22.709  14.793  11.411
40520W        W12945  25.134  36.873   3.721
40521W        W12946  36.003  22.656   3.734
40522W        W12947   8.717  26.540   0.781
40523W        W12948  23.633  23.494   0.415
40524W        W12949  29.608  41.828   0.406
40525W        W12950  21.633  40.508  10.583
40526W        W12951  20.586  25.549  14.826
40527W        W12952  14.335   4.445   0.902
40528W        W12953  10.836  22.653  11.883
40529W        W12954   9.189   4.768   4.127
40530W        W12955  17.736   0.828   9.943
40531W        W12956   1.301  25.631  14.890
40532W        W12957  12.695   6.692  11.963
40533W        W12958  35.949  26.104   0.954
40534W        W12959  44.856   3.414   3.241
40535W        W12960   5.750   7.242   2.819
40536W        W12961   0.493  28.113  12.072
40537W        W12962   8.836   2.356  11.992
40538W        W12963  21.569  19.714   1.259
40539W        W12964  20.045   0.815   4.250
40540W        W12965  36.542  44.401   1.825
40541W        W12966  37.080  28.112   0.801
40542W        W12967   5.307  15.711   4.753
40543W        W12968  32.137  26.672  14.840
40544W        W12969  44.351  15.095   3.772
40545W        W12970  44.467  27.612   2.364
40546W        W12971   5.292  14.172  12.570
40547W        W12972  25.622  32.510   2.895
40548W        W12973  27.107  28.121   1.291
40549W        W12974  23.126  44.309   4.811
40550W        W12975  18.621  38.444   1.877
40551W        W12976  26.598  14.790   1.404
40552W        W12977  29.478   8.789  10.028
40553W        W12978  34.378  30.153   4.277
40554W        W12979  19.079   4.327  14.354
40555W        W12980  14.805  37.513   5.225
40556W        W12981  22.650  16.261  11.061
40557W        W12982  31.134  38.384   3.221
40558W        W12983  10.638  21.603  10.992
40559W        W12984  29.568  18.678   1.424
40560W        W12985  14.286  27.991  10.997
40561W        W12986  33.410  18.649   3.871
40562W        W12987  21.251  29.970  11.063
40563W        W12988  41.982  18.230   1.910
40564W        W12989  30.009  31.537  11.008
40565W        W12990  13.792  39.831  11.548
40566W        W12991  22.566  44.364  11.540
40567W        W12992  32.501  15.643  14.332
40568W        W12993  33.909  15.785   0.888
40569W        W12994  39.366  17.079  12.484
40570W        W12995  13.244  10.329  12.472
40571W        W12996  44.863  16.233  14.421
40572W        W12997  44.364  44.471   2.307
40573W        W12998  19.745  14.333  12.539
40574W        W12999  33.026  39.027  12.971
40575W        W13000  32.057  19.085   3.838
40576W        W13001  25.118  42.460   1.818
40577W        W13002   8.219   0.822  14.289
40578W        W13003   6.748  17.232  14.912
40579W        W13004  18.129  10.227   0.780
40580W        W13005   4.449  16.649   3.725
40581W        W13006  35.398  15.230  13.994
40582W        W13007  12.355  22.137  14.307
40583W        W13008   5.819   7.863  11.540
40584W        W13009  40.324  15.665   2.211
40585W        W13010  20.073  37.563  13.953
40586W        W13011  25.149   5.844  13.390
40587W        W13012  39.983  14.116   1.781
40588W        W13013  16.116  18.201   4.662
40589W        W13014   2.802  37.927  11.492
40590W        W13015  26.137   8.380  11.027
40591W        W13016  39.475  11.298   0.274
40592W        W13017  38.325  30.135   2.211
40593W        W13018  26.024  36.878  14.343
40594W        W13019   8.170  27.137   4.197
40595W        W13020  31.573   7.357   4.276
40596W        W13021  28.517  18.600   1.370
40597W        W13022   2.300  42.424  10.970
40598W        W13023  16.613  28.629  10.565
40599W        W13024  36.434  40.020   1.214
40600W        W13025  26.475   2.360   3.252
40601W        W13026  22.208   5.721  11.123
40602W        W13027  27.962  27.466  12.469
40603W        W13028  14.126  29.173   2.765
40604W        W13029  14.697   6.265  13.860
40605W        W13030  32.931   9.374   3.300
40606W        W13031   0.413  16.254   1.935
40607W        W13032  40.866  20.185   1.777
40608W        W13033  43.470  44.425   0.911
40609W        W13034  33.440  12.325  10.989
40610W        W13035  36.490   6.258  13.845
40611W        W13036  13.131  26.070  13.478
40612W        W13037  27.530  26.662   3.731
40613W        W13038  33.489  35.411  11.532
40614W        W13039   7.181  29.940   4.671
40615W        W13040  18.789  24.680   4.246
40616W        W13041  38.451  24.669  14.866
40617W        W13042   2.936  42.369  12.576
40618W        W13043  27.996  25.578  12.011
40619W        W13044  11.268   1.950   3.227
40620W        W13045   5.236  35.009  12.093
40621W        W13046  32.585  28.098  11.377
40622W        W13047  24.204  27.449   2.295
40623W        W13048   8.688   5.736   3.352
40624W        W13049  20.668  24.701  13.835
40625W        W13050   1.433  19.756  13.982
40626W        W13051  41.520  18.275   1.848
40627W        W13052   9.241   9.704  13.495
40628W        W13053  22.618  34.458  14.889
40629W        W13054  18.712  39.939   1.439
40630W        W13055  31.032  28.973   3.673
40631W        W13056  21.018  16.607  12.962
40632W        W13057  24.154   7.243   3.153
40633W        W13058  43.480  13.767  11.482
40634W        W13059   3.345  35.013   4.266
40635W        W13060   2.228  35.882   2.361
40636W        W13061  35.010  26.209   0.959
40637W        W13062  17.802  28.640  12.019
40638W        W13063  22.190  43.917  13.516
40639W        W13064  16.662  19.112  12.887
40640W        W13065  26.579  44.454   0.245
40641W        W13066  44.393  30.127  13.060
40642W        W13067  22.552  40.522  10.944
40643W        W13068  13.240   6.772  12.052
40644W        W13069  23.557   2.424  13.491
40645W        W13070  44.492  13.307   2.837
40646W        W13071  19.545  23.573   0.353
40647W        W13072  36.896  13.645   4.132
40648W        W13073   2.959  29.131   4.197
40649W        W13074  10.753  10.853  13.339
40650W        W13075  25.586   7.312  13.347
40651W        W13076  29.600  34.546  12.516
40652W        W13077  18.608  25.662  11.429
40653W        W13078  10.826   4.735   1.318
40654W        W13079  19.064  13.264  14.463
40655W        W13080  12.756  15.299   4.335
40656W        W13081  25.111  32.905  10.889
40657W        W13082  13.721  24.530   4.836
40658W        W13083  39.494   2.930   3.812
40659W        W13084  19.705   3.764   4.669
40660W        W13085  25.152  28.609  11.961
40661W        W13086  23.540   3.720   3.818
40662W        W13087  16.597  11.779   1.219
40663W        W13088   8.277  39.834   1.321
40664W        W13089  12.291   4.899   4.329
40665W        W13090  30.001  40.467   2.886
40666W        W13091  29.946  13.305   2.279
40667W        W13092  34.056  35.977  13.938
40668W        W13093   8.279  23.102  14.469
40669W        W13094  34.371  38.354  13.945
40670W        W13095   4.383  39.441  13.514
40671W        W13096  44.777  10.719   3.363
40672W        W13097   2.399   6.894  12.916
40673W        W13098  24.622  27.660   1.822
40674W        W13099  24.525  36.368  12.895
40675W        W13100  24.679  19.070  11.973
40676W        W13101  17.068  21.633  10.622
40677W        W13102   3.431  33.988   0.826
40678W        W13103  32.492  36.985  13.983
40679W        W13104  29.464   0.379  11.889
40680W        W13105   6.223  39.934  12.366
40681W        W13106  29.164   8.170  13.029
40682W        W13107  16.787   2.406  14.846
40683W        W13108  28.186  30.939  12.475
40684W        W13109  27.678  40.396  14.006
40685W        W13110  19.254  39.849   2.822
40686W        W13111  19.691  40.348   1.215
40687W        W13112  26.075  16.667  13.958
40688W        W13113  11.366  32.008  12.032
40689W        W13114   6.352  41.303   1.884
40690W        W13115  38.394   1.402  11.460
40691W        W13116  16.317   8.841  13.518
40692W        W13117  42.994   4.418   0.955
40693W        W13118  10.704  20.608   4.776
40694W        W13119   4.708  23.552   1.394
40695W        W13120   4.786  29.516  12.871
40696W        W13121  10.225  28.103  11.056
40697W        W13122  38.858   2.426   2.238
40698W        W13123   3.843  22.135   2.881
40699W        W13124   3.745  42.286   0.401
40700W        W13125  34.412  16.629   2.725
40701W        W13126  15.328  20.077   1.337
40702W        W13127  32.495  34.909   4.269
40703W        W13128  32.895  24.500  13.330
40704W        W13129  34.593  26.535  13.972
40705W        W13130  24.495  22.590  10.888
40706W        W13131   0.481   9.871  10.629
40707W        W13132  41.825  44.822  11.612
40708W        W13133   2.407  36.413   3.247
40709W        W13134  15.601  38.847   3.340
40710W        W13135  10.874  15.770  14.913
40711W        W13136  28.027  41.339  14.840
40712W        W13137  19.080  25.055  14.445
40713W        W13138  23.155  26.091  11.878
40714W        W13139   6.330   6.356  13.401
40715W        W13140  38.388   5.890   3.233
40716W        W13141  39.930  24.066  12.026
40717W        W13142  40.392  16.773  14.436
40718W        W13143  33.393  20.682   1.854
40719W        W13144  43.390  35.106   3.760
40720W        W13145   4.843  26.205  14.821
40721W        W13146  19.060  34.487  11.382
40722W        W13147  25.613  27.566  12.562
40723W        W13148   7.868   6.200  11.884
40724W        W13149   2.935  25.512   0.390
40725W        W13150  12.664  25.496  11.432
40726W        W13151  36.077  31.940  11.869
40727W        W13152  12.227   4.270  13.352
40728W        W13153   3.235   0.347   0.361
40729W        W13154  12.121  34.116  14.295
40730W        W13155  21.543   4.884  14.493
40731W        W13156   6.829  28.105  11.994
40732W        W13157  37.562  25.028  10.156
40733W        W13158  20.670  43.002  10.502
40734W        W13159  41.825  11.693  10.570
40735W        W13160  33.988  23.142   0.752
40736W        W13161  32.909  30.605   2.334
40737W        W13162  15.191  38.446  14.413
40738W        W13163  21.103  44.994   4.133
40739W        W13164   0.985  25.166   0.401
40740W        W13165  18.575  31.989   5.801
40741W        W13166  35.088  28.082   0.361
40742W        W13167  22.209  35.943  13.348
40743W        W13168  34.044  24.012   2.237
40744W        W13169   0.748  18.257  13.825
40745W        W13170   4.231  30.058  11.400
40746W        W13171   5.436  27.971   4.639
40747W        W13172   2.744  14.794   2.307
40748W        W13173   1.377  11.791   3.663
40749W        W13174   4.425   7.227  12.887
40750W        W13175   7.176  18.098   2.804
40751W        W13176   7.249  26.548   4.691
40752W        W13177   9.271  16.773   4.816
40753W        W13178  20.093  13.122   0.733
40754W        W13179  33.506  43.947  12.085
40755W        W13180  15.759  15.746  10.426
40756W        W13181  19.244  33.995  13.973
40757W        W13182  23.713  38.838   1.811
40758W        W13183  37.508  22.677   5.798
40759W        W13184  16.679  10.204   3.384
40760W        W13185  31.000  28.506   3.672
40761W        W13186  39.418  44.468   3.760
40762W        W13187  21.226  15.584  11.953
40763W        W13188  28.451   3.249   4.285
40764W        W13189  23.592   3.954   2.893
40765W        W13190  39.492  14.588   4.781
40766W        W13191   4.831  39.899  10.638
40767W        W13192   7.877  43.386  11.429
40768W        W13193   5.924  11.711   2.891
40769W        W13194  26.182  31.634  11.109
40770W        W13195   4.934   9.285  14.328
40771W        W13196  21.081  30.081   3.328
40772W        W13197  10.218   6.298   3.827
40773W        W13198  20.729  16.755  13.335
40774W        W13199   4.918   0.429   4.197
40775W        W13200  15.596  10.670   2.808
40776W        W13201  26.999  40.490   2.189
40777W        W13202  44.375  33.995  10.408
40778W        W13203   4.823  44.340  10.567
40779W        W13204  28.105  24.024   3.744
40780W        W13205  23.081  25.515  12.013
40781W        W13206  35.942  15.597  12.581
40782W        W13207  34.417   9.312  12.906
40783W        W13208  22.587   6.786  12.453
40784W        W13209  15.708  26.980  10.935
40785W        W13210  22.501  42.429   2.778
40786W        W13211  12.158  25.172   3.854
40787W        W13212  26.139  19.264   1.423
40788W        W13213  41.829  25.471   1.318
40789W        W13214  39.432  41.811  12.087
40790W        W13215   0.765  32.078   3.684
40791W        W13216  37.067  35.072   3.827
40792W        W13217  35.932  21.715  13.514
40793W        W13218  23.220  17.276   4.189
40794W        W13219   7.196  10.343  13.042
40795W        W13220  11.131  18.658   2.815
40796W        W13221   1.464  11.712  14.510
40797W        W13222  40.847  36.976  13.316
40798W        W13223  11.847   4.370  11.050
40799W        W13224  30.018  12.749  11.444
40800W        W13225  32.428  11.816  11.493
40801W        W13226   1.315  37.406   3.710
40802W        W13227  23.044   0.379   2.755
40803W        W13228  35.542   7.719  11.518
40804W        W13229  15.606  29.067  13.920
40805W        W13230   3.746  23.709  10.570
40806W        W13231  24.671  11.792   2.285
40807W        W13232   7.233  33.911   4.805
40808W        W13233  20.700   3.311  13.928
40809W        W13234   5.343  34.463   4.653
40810W        W13235   3.725   7.796  14.945
40811W        W13236  41.017  10.819   4.680
40812W        W13237  30.140   0.465   0.471
40813W        W13238  12.353  36.977   4.622
40814W        W13239  35.475   4.749   0.822
40815W        W13240  14.635  32.067  10.472
40816W        W13241  13.661  44.465   2.214
40817W        W13242   7.895   7.276   0.783
40818W        W13243  31.634  44.780  11.076
40819W        W13244  10.696   2.734   4.653
40820W        W13245  18.711  18.787  10.641
40821W        W13246   1.283   4.798  13.918
40822W        W13247  12.773  43.885   2.745
40823W        W13248  16.777  31.091   5.659
40824W        W13249  32.031  24.598  12.993
40825W        W13250  38.043   9.778  13.812
40826W        W13251  23.520   1.387  13.976
40827W        W13252  19.761  37.566   2.281
40828W        W13253  15.124  24.496   4.145
40829W        W13254  44.939  42.326   0.243
40830W        W13255   0.795  35.958   3.774
40831W        W13256  28.062  13.321   4.207
40832W        W13257  32.135  27.943  10.889
40833W        W13258  22.615   5.254  12.863
40834W        W13259  34.000  18.777   1.819
40835W        W13260   7.843  16.673   2.243
40836W        W13261  21.148  10.258   2.746
40837W        W13262  29.469  38.548  11.399
40838W        W13263  21.180  39.876  10.927
40839W        W13264  21.521  32.902   1.210
40840W        W13265  43.468  10.726  11.527
40841W        W13266  38.366   6.302   4.745
40842W        W13267   1.469  38.074   0.946
40843W        W13268  26.636  13.747   2.754
40844W        W13269   2.447  43.443  13.796
40845W        W13270  41.495  29.474  12.047
40846W        W13271  21.564  41.917  13.020
40847W        W13272  10.146   3.776  14.920
40848W        W13273   8.234  39.449   0.958
40849W        W13274  31.588  16.725   9.482
40850W        W13275  14.239  26.633   1.696
40851W        W13276  27.644   3.773   2.800
40852W        W13277   0.391  39.868   3.798
40853W        W13278  23.093  18.666   2.710
40854W        W13279  40.470  17.626  13.522
40855W        W13280  28.134  42.804  14.490
40856W        W13281  30.971  35.958   5.319
40857W        W13282  16.092  36.999   2.787
40858W        W13283  16.773   0.895  11.065
40859W        W13284  18.166  39.945  10.478
40860W        W13285  26.607  33.621  13.874
40861W        W13286  36.905  12.328   1.730
40862W        W13287   7.410  11.848  13.445
40863W        W13288  30.636  25.481  11.002
40864W        W13289  15.158   5.210   2.886
40865W        W13290  14.759  29.029  12.525
40866W        W13291   7.767  33.399  14.836
40867W        W13292  18.084  37.947  11.436
40868W        W13293  26.588  12.814   1.311
40869W        W13294  21.178  19.575  14.465
40870W        W13295  26.968  29.602  12.077
40871W        W13296   1.791  17.694   4.690
40872W        W13297  28.649   6.280   3.186
40873W        W13298  14.792   6.890  14.962
40874W        W13299   9.886   7.740  11.591
40875W        W13300   9.724  11.272  12.495
40876W        W13301  10.343  23.000   0.850
40877W        W13302  37.564   6.328   1.426
40878W        W13303  38.916  20.073   4.801
40879W        W13304  18.590  26.047  10.535
40880W        W13305   2.815  34.471  11.097
40881W        W13306  14.654  33.614  12.986
40882W        W13307  29.075  42.976   1.407
40883W        W13308  21.542  37.897  10.953
40884W        W13309   5.807  17.267  10.553
40885W        W13310  13.290  25.615  13.836
40886W        W13311  12.236  15.753   0.730
40887W        W13312  29.577  44.473   1.918
40888W        W13313   7.260  26.107  13.336
40889W        W13314  29.977  34.401   1.878
40890W        W13315  27.629  12.855   4.791
40891W        W13316   6.208   0.340  12.472
40892W        W13317  35.009  13.743   3.260
40893W        W13318   9.245  37.052  10.034
40894W        W13319  32.514  36.942  12.523
40895W        W13320   9.885  36.034   3.246
40896W        W13321  13.744  14.302   1.861
40897W        W13322   2.957  13.342   4.740
40898W        W13323  11.774  15.583  11.576
40899W        W13324  22.164  17.270   2.715
40900W        W13325  25.216  20.165   0.383
40901W        W13326  28.634  44.851  14.371
40902W        W13327  14.190   7.359  12.432
40903W        W13328  33.579  33.895  14.866
40904W        W13329  36.493  44.268  10.472
40905W        W13330  42.298   0.882   2.334
40906W        W13331  20.566  29.995  10.958
40907W        W13332  43.856  20.765   1.237
40908W        W13333  33.442  28.186  10.587
40909W        W13334   3.423  19.232   4.161
40910W        W13335  21.108  30.947   4.779
40911W        W13336  27.457   3.455  11.867
40912W        W13337  43.806  17.712   0.306
40913W        W13338   5.809  32.626  13.028
40914W        W13339  36.509  32.426   3.782
40915W        W13340  43.871  44.777   3.843
40916W        W13341   4.339  20.624   3.330
40917W        W13342  17.253   6.199  14.956
40918W        W13343  35.516  29.015  14.354
40919W        W13344  35.892  19.742   1.704
40920W        W13345   8.396  40.336   3.747
40921W        W13346  14.709  24.023   3.321
40922W        W13347   4.293   5.756   1.272
40923W        W13348  26.119  10.339   2.881
40924W        W13349   2.804   6.369  13.401
40925W        W13350   8.814  29.172  13.891
40926W        W13351  21.213  31.542   4.755
40927W        W13352  39.908  41.388  13.961
40928W        W13353  44.834  10.176  11.512
40929W        W13354  17.248  21.112   3.159
40930W        W13355   9.843  28.178   0.246
40931W        W13356   5.203  30.048  11.377
40932W        W13357  10.659  37.398  14.470
40933W        W13358  32.045   2.835   0.817
40934W        W13359  19.135  39.926  13.952
40935W        W13360  31.505  44.892  14.410
40936W        W13361  16.673   4.417  10.420
40937W        W13362   2.378  22.685   3.818
40938W        W13363  27.596  22.551  10.944
40939W        W13364  23.691  10.760   5.171
40940W        W13365  35.564  13.606  10.556
40941W        W13366  30.979  37.998   1.868
40942W        W13367  44.976   5.241   0.361
40943W        W13368  10.326  40.338   3.236
40944W        W13369  36.876  27.547   0.264
40945W        W13370  41.531  23.162   2.802
40946W        W13371  33.124  29.168   3.750
40947W        W13372  29.601  44.830  11.467
40948W        W13373  38.414  40.962   1.421
40949W        W13374   8.215  44.799   0.415
40950W        W13375  21.205  13.704   1.935
40951W        W13376   6.892  31.460  12.363
40952W        W13377  15.231  31.977  11.520
40953W        W13378  30.568  29.121   0.269
40954W        W13379  42.898   0.823   1.896
40955W        W13380  44.918  19.601   4.733
40956W        W13381  32.002  11.794   4.239
40957W        W13382  42.871  26.645  10.403
40958W        W13383  25.692  19.123   1.756
40959W        W13384   9.645  42.977   2.866
40960W        W13385   0.448  33.435  13.874
40961W        W13386  19.765  10.223   2.415
40962W        W13387  42.520  36.962  13.019
40963W        W13388  11.625   1.793   5.170
40964W        W13389  31.021  40.822  14.496
40965W        W13390  19.721  10.213   3.168
40966W        W13391  38.455  26.097   0.883
40967W        W13392  10.255  27.103  11.509
40968W        W13393  37.059  21.158  13.959
40969W        W13394  18.269   1.441  14.961
40970W        W13395  24.108  18.631  11.896
40971W        W13396  40.410  37.526   3.635
40972W        W13397   4.863   3.782  14.808
40973W        W13398  24.021   6.192  10.587
40974W        W13399  31.473  27.095  14.994
40975W        W13400  12.220  30.141   0.418
40976W        W13401  37.981  40.949  14.893
40977W        W13402  37.905  42.462   2.745
40978W        W13403   9.262  38.843  10.578
40979W        W13404  34.431  18.116   1.399
40980W        W13405   4.833  33.066   4.726
40981W        W13406  38.519  10.356  12.886
40982W        W13407   7.259  36.429   4.217
40983W        W13408  20.732  22.027   2.212
40984W        W13409  36.487   6.679  14.478
40985W        W13410  20.253  12.154   4.598
40986W        W13411   5.742  27.020   3.261
40987W        W13412  17.715  37.555  13.901
40988W        W13413  27.550   2.858   2.277
40989W        W13414  18.163  29.168  11.587
40990W        W13415  31.017  35.963  10.071
40991W        W13416  27.051  35.566   1.718
40992W        W13417   0.981  35.886   0.256
40993W        W13418  23.138   7.262   0.450
40994W        W13419   4.743  33.903   1.396
40995W        W13420  20.143  28.972  10.552
40996W        W13421   9.853  41.002   1.416
40997W        W13422   2.902  30.140   3.840
40998W        W13423  10.209  42.966   2.236
40999W        W13424  20.768  17.720  14.766
41000W        W13425   7.829  35.579   1.696
41001W        W13426  16.278  30.134   0.935
41002W        W13427  13.734  35.393  10.547
41003W        W13428   0.425  25.578  13.397
41004W        W13429  44.371  11.854   2.737
41005W        W13430  23.116  25.196   0.369
41006W        W13431  10.318  44.471  11.392
41007W        W13432  29.498  12.841  13.497
41008W        W13433   4.889   0.932   2.878
41009W        W13434   6.802  26.621  10.935
41010W        W13435  12.616  36.865  14.971
41011W        W13436  16.283  31.540   1.345
41012W        W13437  10.328   6.364  10.986
41013W        W13438  33.959  15.642  13.880
41014W        W13439  30.615  18.171   5.199
41015W        W13440   9.759  16.166  13.060
41016W        W13441  25.083  44.284   0.380
41017W        W13442  25.009  36.972  14.410
41018W        W13443  38.067   7.705   0.811
41019W        W13444  16.620   2.775   1.772
41020W        W13445  42.423  23.147  10.426
41021W        W13446  27.651  19.663   0.947
41022W        W13447  28.982  13.129  13.511
41023W        W13448   0.302  35.394  13.865
41024W        W13449   3.277  38.824   2.817
41025W        W13450  35.981  38.350  11.531
41026W        W13451  27.658  42.840  14.766
41027W        W13452   5.229  31.442  11.537
41028W        W13453  18.626  11.228   3.159
41029W        W13454  18.644   2.783  14.986
41030W        W13455  18.647  15.172  10.926
41031W        W13456  20.657  33.499  10.602
41032W        W13457  18.696  41.362   3.284
41033W        W13458  32.934   5.769  11.914
41034W        W13459  28.574   4.247  14.823
41035W        W13460   4.423  19.606   1.443
41036W        W13461  33.903  28.016  10.632
41037W        W13462  28.013  44.918  14.292
41038W        W13463  38.974   0.389   2.199
41039W        W13464  41.940  29.507   5.148
41040W        W13465  39.897   6.890  14.795
41041W        W13466  26.576   5.714  11.419
41042W        W13467  19.237  20.075   0.363
41043W        W13468  24.492  16.289   1.403
41044W        W13469  12.786  21.233   3.790
41045W        W13470  44.930   6.897   4.756
41046W        W13471   4.904  34.387  12.537
41047W        W13472  36.549  36.052   0.328
41048W        W13473  28.653  14.224   0.306
41049W        W13474  31.402  30.556  12.047
41050W        W13475  30.142  23.172  11.597
41051W        W13476   0.868  34.613   3.255
41052W        W13477   4.725   2.363  11.991
41053W        W13478   1.287   5.202  12.056
41054W        W13479  28.161   9.306  11.571
41055W        W13480  43.483  41.907  11.070
41056W        W13481  33.120  20.093  11.063
41057W        W13482  23.035   5.217  13.028
41058W        W13483   0.919  28.045  13.841
41059W        W13484   4.443  44.441   4.177
41060W        W13485  42.848   1.317   4.759
41061W        W13486  36.436   1.434  10.976
41062W        W13487  12.259   3.394  13.818
41063W        W13488  22.076  34.401   4.138
41064W        W13489  14.272  41.952   4.174
41065W        W13490  40.882  37.380  10.041
41066W        W13491  35.556  41.483  10.969
41067W        W13492  16.744   3.729   2.369
41068W        W13493   2.918  44.938  11.125
41069W        W13494  22.552   7.746   2.742
41070W        W13495   8.756   6.404   3.845
41071W        W13496  41.418  26.141  14.917
41072W        W13497   0.390  39.960  13.408
41073W        W13498  20.049  44.870  12.970
41074W        W13499  28.948   7.260   1.316
41075W        W13500  17.669  23.508  10.980
41076W        W13501  43.431  39.909   1.229
41077W        W13502  35.601   5.292  12.853
41078W        W13503  18.566  25.682   3.238
41079W        W13504  35.591  32.479   3.268
41080W        W13505   8.829  28.039   1.251
41081W        W13506  11.272  18.102   1.278
41082W        W13507  41.408  32.021  10.988
41083W        W13508  34.024  20.573  13.369
41084W        W13509  38.570  31.104   0.347
41085W        W13510  29.944   1.276   1.723
41086W        W13511  43.285  12.710   5.298
41087W        W13512   8.811   1.408   2.666
41088W        W13513  18.133  27.135   2.225
41089W        W13514  39.013  42.484  12.396
41090W        W13515  16.578  42.421   0.378
41091W        W13516  13.717  15.678  12.570
41092W        W13517  15.740   3.427   0.872
41093W        W13518  31.469  12.330  10.965
41094W        W13519  23.687  32.547   2.219
41095W        W13520   6.402  23.209  13.939
41096W        W13521  24.130   6.771   0.928
41097W        W13522  26.181   3.835   0.352
41098W        W13523   7.220  10.676   1.704
41099W        W13524  40.532  27.157  10.428
41100W        W13525  40.530  30.969  11.501
41101W        W13526  44.459  16.082  11.896
41102W        W13527  27.953  23.559  12.495
41103W        W13528   1.442  12.278   4.177
41104W        W13529   5.738  42.313  14.300
41105W        W13530  10.728  31.637  13.327
41106W        W13531  15.292   3.727   0.308
41107W        W13532   3.735  37.581   3.762
41108W        W13533  42.473   3.274  13.457
41109W        W13534  16.248   2.323  10.431
41110W        W13535  24.560  38.398   2.802
41111W        W13536  12.792  15.182  12.510
41112W        W13537  15.773  26.643  13.959
41113W        W13538  42.419  41.920  14.979
41114W        W13539  18.696  40.991  14.303
41115W        W13540  39.030   6.838  10.036
41116W        W13541  31.917  40.887   0.394
41117W        W13542  11.813   9.730  13.911
41118W        W13543   7.877  20.036  11.517
41119W        W13544  10.789  13.305   2.803
41120W        W13545  20.643  20.132  10.598
41121W        W13546   5.391  35.085  13.903
41122W        W13547  17.239  23.696  14.803
41123W        W13548  44.883  36.023  12.926
41124W        W13549  26.052  12.612   4.344
41125W        W13550  28.522  34.522  14.313
41126W        W13551   4.936  37.475  11.452
41127W        W13552  31.919  38.357   4.171
41128W        W13553  16.802  14.634  11.483
41129W        W13554   2.266  15.679   1.848
41130W        W13555  30.978   4.939  12.536
41131W        W13556   5.854  20.602   4.837
41132W        W13557  26.488  10.335  10.593
41133W        W13558  26.569  39.896   0.244
41134W        W13559  27.070  35.014  10.600
41135W        W13560  44.764  20.739   2.866
41136W        W13561   7.693  32.575  12.350
41137W        W13562   9.698  18.097   3.775
41138W        W13563   5.792  15.738   1.907
41139W        W13564  26.660   4.308  13.051
41140W        W13565  44.896  11.234   3.186
41141W        W13566   2.745  34.057  13.064
41142W        W13567  37.381  40.983   0.374
41143W        W13568   1.425  44.263  14.789
41144W        W13569  34.519  28.514  11.078
41145W        W13570  10.768   2.276  12.489
41146W        W13571  25.704  40.458  12.915
41147W        W13572  17.629  21.515  14.425
41148W        W13573  21.537  26.195  14.996
41149W        W13574  14.727   8.368   0.261
41150W        W13575  25.152  17.089   4.608
41151W        W13576  18.758  10.859  10.558
41152W        W13577   9.816  28.043   2.280
41153W        W13578   6.417  39.823  14.510
41154W        W13579  41.442  17.708   3.715
41155W        W13580  38.366  25.027   2.842
41156W        W13581   4.312  20.032  11.017
41157W        W13582  40.538  43.002   3.258
41158W        W13583  37.968   5.901  11.404
41159W        W13584   8.742  34.515  13.391
41160W        W13585   7.193  37.578  11.932
41161W        W13586   3.441   7.838  11.872
41162W        W13587  20.629  12.139  11.126
41163W        W13588  24.576  16.103   4.757
41164W        W13589  15.651   0.890   0.941
41165W        W13590  22.555  24.104  11.978
41166W        W13591  39.462  30.155   0.773
41167W        W13592   2.901  14.723  13.995
41168W        W13593  23.648  21.668   3.819
41169W        W13594  12.327  17.299  11.575
41170W        W13595   9.689  19.129  13.979
41171W        W13596  19.553  44.375  10.893
41172W        W13597  16.673  44.279  11.496
41173W        W13598   5.855  39.546  10.959
41174W        W13599  38.998  38.522   2.360
41175W        W13600  12.716  23.637  11.557
41176W        W13601  13.155  24.500  10.094
41177W        W13602  24.522  42.384   2.267
41178W        W13603  29.083  23.611  12.028
41179W        W13604   1.937  27.129   4.663
41180W        W13605  28.592  10.266  14.484
41181W        W13606  36.513  21.701  11.049
41182W        W13607  42.835  14.110   1.345
41183W        W13608   9.302  38.380  12.973
41184W        W13609  39.544  41.838  11.101
41185W        W13610  16.756  38.566  11.452
41186W        W13611  38.898  20.183   0.272
41187W        W13612  16.704  14.103  11.998
41188W        W13613  30.919   9.275  10.600
41189W        W13614   3.849  21.617   2.902
41190W        W13615  37.996  36.057  13.997
41191W        W13616  26.691  31.104   5.134
41192W        W13617  39.987  15.287  14.510
41193W        W13618   9.657  20.595  10.956
41194W        W13619   3.884  39.015   1.854
41195W        W13620  40.454  36.384   0.399
41196W        W13621  29.472  44.774   3.688
41197W        W13622   2.913  20.563  13.952
41198W        W13623  22.075   8.670   4.642
41199W        W13624   3.453  26.544  10.481
41200W        W13625  11.343   0.358   4.116
41201W        W13626  22.098  41.960  12.924
41202W        W13627  16.292   7.267   4.315
41203W        W13628   4.310  18.783  13.037
41204W        W13629  21.568   7.703  12.867
41205W        W13630   6.396  37.046   4.761
41206W        W13631  41.877  38.993   2.840
41207W        W13632   2.842  26.539  13.493
41208W        W13633  23.540  25.085   1.223
41209W        W13634   4.764  18.142   1.754
41210W        W13635   3.864   0.387   4.613
41211W        W13636  43.392   3.905  11.384
41212W        W13637   7.891  38.506  11.411
41213W        W13638  35.409  13.319  10.972
41214W        W13639  22.688   4.355   2.212
41215W        W13640  32.599  38.454   4.640
41216W        W13641  42.940  43.013  11.023
41217W        W13642  22.502  41.298  12.827
41218W        W13643  44.958  20.242  14.460
41219W        W13644  25.570   5.324  10.417
41220W        W13645   7.414  26.161  13.823
41221W        W13646  34.603  15.794   1.806
41222W        W13647  25.589  16.748   2.713
41223W        W13648  34.521  44.504   3.287
41224W        W13649  43.494  28.070   2.272
41225W        W13650   6.873  10.794   3.802
41226W        W13651   3.783   8.404  12.393
41227W        W13652  43.790   5.318   2.404
41228W        W13653  44.860   1.425  10.550
41229W        W13654  15.686  11.812   3.213
41230W        W13655  33.547  11.802  11.514
41231W        W13656  25.993  30.146   4.121
41232W        W13657  36.536  25.685   4.722
41233W        W13658  21.688   3.434  12.494
41234W        W13659  14.720  13.181  12.958
41235W        W13660  36.057  31.104   2.701
41236W        W13661  44.347  20.109   2.211
41237W        W13662   1.739  14.720   0.363
41238W        W13663  43.930  14.326  13.792
41239W        W13664  44.391  35.463   0.378
41240W        W13665  37.450   6.847   1.254
41241W        W13666  26.513  18.770   0.443
41242W        W13667  13.803  28.076   3.361
41243W        W13668  12.772  25.968   3.692
41244W        W13669  32.071   9.840   3.643
41245W        W13670  27.559  25.628   0.817
41246W        W13671  18.581  36.961   4.659
41247W        W13672  20.633   7.295  14.902
41248W        W13673  43.892   5.688  14.777
41249W        W13674  25.077  25.022  11.857
41250W        W13675  30.580  37.369  10.578
41251W        W13676  31.015  24.084   4.181
41252W        W13677  13.271  14.814   3.171
41253W        W13678   1.425  21.579  14.400
41254W        W13679  44.834   1.280  11.897
41255W        W13680  22.571  21.677   2.724
41256W        W13681  19.612  16.226  12.515
41257W        W13682  12.655  22.101  13.817
41258W        W13683  24.067   2.769  10.519
41259W        W13684  29.062  43.004   3.236
41260W        W13685  35.854  22.099  14.780
41261W        W13686   1.392  18.279  13.038
41262W        W13687  20.758  14.240  12.085
41263W        W13688  17.275   8.827   0.890
41264W        W13689  36.415  40.392  10.965
41265W        W13690  18.074  13.218  13.315
41266W        W13691  31.909   6.195  11.603
41267W        W13692  41.407  19.215   1.335
41268W        W13693  26.670  42.446   4.163
41269W        W13694   2.460  21.620   3.221
41270W        W13695   6.409  30.909  11.515
41271W        W13696   6.192   1.764  10.051
41272W        W13697  19.708  34.957  11.508
41273W        W13698   8.878  16.651   3.716
41274W        W13699  43.385  12.155   0.953
41275W        W13700  32.987  27.125   1.732
41276W        W13701  36.438   8.340   0.795
41277W        W13702  29.611  27.195   0.385
41278W        W13703   2.956   7.761  11.027
41279W        W13704  28.568  31.021  11.534
41280W        W13705  34.464  41.011   2.798
41281W        W13706  18.223  13.227   3.223
41282W        W13707  27.191  41.330  13.454
41283W        W13708  36.927  36.946  13.535
41284W        W13709  28.539   3.774  12.563
41285W        W13710  11.224  22.555  10.642
41286W        W13711  21.628  19.230   4.337
41287W        W13712  23.531   1.348   4.662
41288W        W13713   3.753  27.126  11.502
41289W        W13714  28.632   8.337   2.852
41290W        W13715  38.074  29.972   2.249
41291W        W13716  27.115   9.309  12.562
41292W        W13717  22.533  28.142  11.046
41293W        W13718   4.387   6.192  14.436
41294W        W13719  42.949  35.961  11.941
41295W        W13720  25.104  23.209  11.471
41296W        W13721  29.024  23.523  13.042
41297W        W13722  22.654  22.563  11.091
41298W        W13723   6.729   2.390   2.334
41299W        W13724   4.213   4.763   2.787
41300W        W13725   4.830  27.971  12.523
41301W        W13726  38.564  10.381  13.435
41302W        W13727  17.747  41.471   2.296
41303W        W13728  26.697  28.989   1.417
41304W        W13729  34.980   3.788   4.276
41305W        W13730  14.099  22.020   2.357
41306W        W13731  13.232   0.868   0.430
41307W        W13732  38.031  13.272  12.566
41308W        W13733  21.148  12.175  14.448
41309W        W13734   2.879  16.811   4.675
41310W        W13735  14.223  37.080   1.421
41311W        W13736  43.015  25.165  10.545
41312W        W13737  30.510  41.495  10.906
41313W        W13738   9.764  42.972   2.326
41314W        W13739  19.233  27.458   1.214
41315W        W13740  24.539  10.859   3.837
41316W        W13741  34.559   5.234   0.467
41317W        W13742  26.503  44.983   1.417
41318W        W13743  44.279  38.930   0.458
41319W        W13744  38.393  41.858   4.343
41320W        W13745   1.471  38.441  13.394
41321W        W13746  40.494   2.836  12.466
41322W        W13747   0.484  35.521  12.040
41323W        W13748  27.192  36.979   1.929
41324W        W13749  30.999  42.431  11.387
41325W        W13750   9.161  16.186   3.225
41326W        W13751  34.420  27.120  12.460
41327W        W13752  10.313  22.515   0.744
41328W        W13753   2.283  43.325   3.812
41329W        W13754  44.272  26.550   2.726
41330W        W13755   3.408  24.043   4.316
41331W        W13756   3.877  40.866   3.777
41332W        W13757  29.648  29.593   0.469
41333W        W13758  33.602   5.403   1.904
41334W        W13759  29.039   8.275  11.532
41335W        W13760  25.494  21.043  12.947
41336W        W13761   6.878  31.974   5.282
41337W        W13762  25.548  34.479  12.927
41338W        W13763  12.264  40.388   1.878
41339W        W13764  15.743  44.853   5.093
41340W        W13765  35.422   5.395  11.384
41341W        W13766  17.220  17.160   3.324
41342W        W13767  29.450  41.874  11.560
41343W        W13768  43.391  37.465  12.935
41344W        W13769   7.793  28.654  12.021
41345W        W13770  15.290   9.205  14.954
41346W        W13771  29.020   1.910   4.763
41347W        W13772  36.963  39.438  12.490
41348W        W13773  44.361  19.181  10.445
41349W        W13774   7.873   7.402   1.785
41350W        W13775  16.078  21.071  12.568
41351W        W13776   2.756  24.178   1.445
41352W        W13777  35.883  29.611  11.373
41353W        W13778  10.377  30.430  12.985
41354W        W13779  43.320   0.752  14.329
41355W        W13780  34.555  28.119  13.323
41356W        W13781  42.908  20.587   2.761
41357W        W13782  36.426  11.636   4.323
41358W        W13783   8.249  26.607   5.163
41359W        W13784  28.012  28.556  13.483
41360W        W13785  28.531   1.864  13.897
41361W        W13786  40.432  42.504   2.836
41362W        W13787  40.379   2.281  13.525
41363W        W13788   7.790  29.060  10.136
41364W        W13789   3.760  42.463  12.857
41365W        W13790  35.012  36.506   4.775
41366W        W13791  20.213  16.109  12.857
41367W        W13792  15.690  13.122  11.901
41368W        W13793  29.423  44.798   1.270
41369W        W13794   4.939  42.996   1.697
41370W        W13795  26.554   9.357   0.446
41371W        W13796  20.131  17.251   2.749
41372W        W13797  27.029  21.703   3.312
41373W        W13798  15.253   4.780  10.988
41374W        W13799  18.261  37.875   4.295
41375W        W13800   7.213  19.132  14.916
41376W        W13801  38.981  20.692  10.132
41377W        W13802  17.663  18.596   4.158
41378W        W13803  43.912  16.216   4.613
41379W        W13804   2.762  32.949   3.203
41380W        W13805  24.088  18.241   4.322
41381W        W13806  39.896  20.133  13.370
41382W        W13807  43.493  43.273  10.594
41383W        W13808  42.819   3.819   0.830
41384W        W13809   1.242  34.895  11.002
41385W        W13810  24.983  27.964  11.910
41386W        W13811  37.961  43.835  14.369
41387W        W13812  32.122  13.707  11.438
41388W        W13813  41.013   1.361  12.066
41389W        W13814   8.735  12.143   0.456
41390W        W13815  19.586  38.833  10.962
41391W        W13816   1.862   9.847  11.912
41392W        W13817  36.513   2.933   4.794
41393W        W13818  26.124  23.648   1.242
41394W        W13819   9.803  29.140   2.253
41395W        W13820  37.849  44.937  14.281
41396W        W13821   8.352  16.715  11.048
41397W        W13822   4.293  25.100  11.119
41398W        W13823   3.783  23.005   2.304
41399W        W13824  38.542  13.227   2.288
41400W        W13825  37.443  12.189   1.220
41401W        W13826   5.908  28.661  14.335
41402W        W13827  44.272  10.375  11.609
41403W        W13828  23.199  12.284  13.408
41404W        W13829  13.321  20.710   2.192
41405W        W13830  35.107   3.370  10.554
41406W        W13831  26.626  28.141  11.571
41407W        W13832   5.704  14.331   1.448
41408W        W13833  31.433   4.368  11.952
41409W        W13834  19.143  23.154  14.469
41410W        W13835  42.337  24.126   4.228
41411W        W13836   7.729  21.170   4.129
41412W        W13837  44.867   4.754  11.516
41413W        W13838  14.649   3.294   4.717
41414W        W13839  41.042  14.201  14.893
41415W        W13840  44.927  42.395  12.986
41416W        W13841   2.782   0.865  11.876
41417W        W13842   9.727  21.079   4.169
41418W        W13843  20.599   5.229   3.357
41419W        W13844  31.528  15.581   3.195
41420W        W13845  15.787  41.912  10.491
41421W        W13846  17.125   0.475  12.910
41422W        W13847  13.770   4.837   0.954
41423W        W13848   8.367  31.606   1.401
41424W        W13849  43.766   4.939  10.601
41425W        W13850   3.442  20.133   2.859
41426W        W13851  13.825  10.747   1.243
41427W        W13852  17.681  14.647   2.268
41428W        W13853  34.903   5.234  12.932
41429W        W13854   6.407  42.938   5.283
41430W        W13855  24.076  22.134  10.638
41431W        W13856  17.229  42.820  11.106
41432W        W13857  37.444  43.294  12.030
41433W        W13858  38.407   7.312   1.762
41434W        W13859  27.503  41.813  10.642
41435W        W13860  22.077  28.634  13.874
41436W        W13861  42.798  31.089   2.326
41437W        W13862  31.972   5.281   2.260
41438W        W13863  21.191  10.214  12.375
41439W        W13864  16.697  39.958  12.407
41440W        W13865  12.800   4.366  14.481
41441W        W13866  25.673  41.987   3.206
41442W        W13867  12.829   5.822   1.231
41443W        W13868  22.724  31.998   1.353
41444W        W13869  17.070   4.366   3.780
41445W        W13870  44.277  42.902  14.392
41446W        W13871  17.306  43.503   4.761
41447W        W13872  43.275  21.231  12.402
41448W        W13873  27.691  34.958  10.920
41449W        W13874  44.294   6.709  11.421
41450W        W13875  34.410  29.994   0.858
41451W        W13876  26.590  42.337   3.353
41452W        W13877  20.606  16.222   1.234
41453W        W13878  22.517  12.238  13.419
41454W        W13879   6.919  20.645   2.696
41455W        W13880  40.945  38.010   2.228
41456W        W13881   6.919   9.851   4.633
41457W        W13882  43.506  25.041  13.815
41458W        W13883  32.434   9.870   3.654
41459W        W13884  16.641  37.958   1.801
41460W        W13885   5.869   1.778   3.341
41461W        W13886  44.315  11.304  14.366
41462W        W13887  37.426  25.518  10.500
41463W        W13888   4.747  14.663   1.744
41464W        W13889  41.959  12.258  10.555
41465W        W13890  29.057  30.020   4.670
41466W        W13891  32.471  42.453   1.443
41467W        W13892   3.240  35.991   0.794
41468W        W13893  40.911  11.330  11.605
41469W        W13894  40.542  39.844   1.243
41470W        W13895  10.709  16.641  13.933
41471W        W13896  41.812  10.152   1.723
41472W        W13897  22.659  43.355   1.421
41473W        W13898  36.537   9.285  13.449
41474W        W13899  44.307  37.421  13.866
41475W        W13900  24.130  27.488  10.499
41476W        W13901   3.726  36.433  14.429
41477W        W13902  34.435  31.142   3.217
41478W        W13903  19.120  44.462  12.051
41479W        W13904  35.427  43.960  13.003
41480W        W13905  27.049  28.062  10.907
41481W        W13906  39.919  42.971   4.314
41482W        W13907   5.361  26.692  10.549
41483W        W13908  28.178   3.935   4.799
41484W        W13909  35.889  20.695   4.689
41485W        W13910   4.229  27.039   1.215
41486W        W13911  36.915  33.433  12.051
41487W        W13912   3.229  38.820  12.456
41488W        W13913   2.408  33.523  14.992
41489W        W13914  40.024   9.807   4.150
41490W        W13915  44.965  26.684  11.577
41491W        W13916  41.471  18.724  12.935
41492W        W13917   0.959  27.458  14.484
41493W        W13918  10.655   1.756   4.322
41494W        W13919  37.340  22.599  13.439
41495W        W13920  10.750  21.118   1.765
41496W        W13921   9.786  23.118  12.446
41497W        W13922  29.959  15.259  14.431
41498W        W13923  38.506  14.291  12.034
41499W        W13924  42.018  22.019  13.316
41500W        W13925  12.320  33.453   4.230
41501W        W13926  18.157   0.755  11.483
41502W        W13927  19.109   4.915  10.894
41503W        W13928  36.511  42.994  14.932
41504W        W13929  13.161  39.332  13.516
41505W        W13930  33.431   7.347  13.974
41506W        W13931  23.997  17.135  14.335
41507W        W13932  38.956   9.314  12.506
41508W        W13933  19.632   5.431   3.161
41509W        W13934  29.494  18.067   2.727
41510W        W13935   2.795  21.636  10.946
41511W        W13936  41.827   8.169  11.598
41512W        W13937  41.842  13.168  13.500
41513W        W13938  15.775  10.242  11.575
41514W        W13939  11.175  21.709   4.128
41515W        W13940  41.943  13.329   3.291
41516W        W13941  13.654  34.087  14.335
41517W        W13942  25.671   1.798   5.161
41518W        W13943  24.590  16.634   3.841
41519W        W13944  41.900  15.275   3.304
41520W        W13945  20.558  28.561  11.941
41521W        W13946  31.571  30.487  14.345
41522W        W13947  42.021   9.853  12.409
41523W        W13948  43.424   1.263  11.868
41524W        W13949  43.780  15.651  14.305
41525W        W13950   4.783  12.309  11.918
41526W        W13951  19.764  40.819   3.794
41527W        W13952  23.559   5.890  11.414
41528W        W13953  16.251   1.254   4.620
41529W        W13954  24.641  11.705  13.941
41530W        W13955  15.623  32.971   4.609
41531W        W13956  34.595   1.738   4.753
41532W        W13957  27.044  26.177  11.518
41533W        W13958  41.329  24.209   0.802
41534W        W13959  25.521  21.750   1.220
41535W        W13960  17.706  11.638   1.248
41536W        W13961  16.700  11.276   4.266
41537W        W13962  31.038  21.031   2.847
41538W        W13963  18.579  43.513  11.420
41539W        W13964  35.883   5.332   3.739
41540W        W13965  30.427  11.787  11.898
41541W        W13966  11.717  12.191  13.386
41542W        W13967  37.950   4.702  11.611
41543W        W13968  24.159  33.033  14.352
41544W        W13969   6.680  16.246   4.155
41545W        W13970  17.269  44.317  12.913
41546W        W13971  19.051  12.246   3.863
41547W        W13972   9.193  23.200   4.332
41548W        W13973  24.226   7.779   0.451
41549W        W13974  40.883  28.528  12.001
41550W        W13975   9.288  18.124   2.733
41551W        W13976  13.286  31.939  13.367
41552W        W13977  27.572  41.429  13.491
41553W        W13978  44.859   1.832   2.377
41554W        W13979  40.811  43.426  13.996
41555W        W13980  42.457   5.267  11.075
41556W        W13981  26.053  40.519   4.168
41557W        W13982   8.278  36.890  10.991
41558W        W13983   7.822   8.184   0.307
41559W        W13984  31.473  13.754  14.784
41560W        W13985   8.803  38.068   0.911
41561W        W13986  21.182  26.139  13.040
41562W        W13987   3.458  38.465   1.704
41563W        W13988  39.382  26.475   1.376
41564W        W13989  41.440  23.682   1.433
41565W        W13990  38.062   4.897   2.333
41566W        W13991   8.769  25.539   2.681
41567W        W13992  31.932  38.050   3.657
41568W        W13993  44.458   5.778  13.321
41569W        W13994  38.856  32.635   0.857
41570W        W13995  41.362  20.560  14.308
41571W        W13996  40.406  30.074   0.309
41572W        W13997  38.910  35.003  11.955
41573W        W13998   8.165  27.154   0.821
41574W        W13999  32.628  23.735  11.573
41575W        W14000  21.081  29.056  10.958
41576W        W14001  28.583  29.157  12.069
41577W        W14002   2.284  23.052   0.334
41578W        W14003  41.339  28.540  10.582
41579W        W14004  38.868  19.107   1.912
41580W        W14005  41.457   4.763  13.822
41581W        W14006  13.804  36.556  11.553
41582W        W14007  34.867  14.152   3.259
41583W        W14008   5.916  30.532   2.319
41584W        W14009  38.872   3.230  13.001
41585W        W14010  44.348   5.216  13.029
41586W        W14011  36.844  17.131   4.621
41587W        W14012  26.585   2.421   5.231
41588W        W14013  27.579   6.310  11.000
41589W        W14014   0.426  28.186  12.838
41590W        W14015  25.025   7.306   3.285
41591W        W14016  11.127  19.685  11.501
41592W        W14017  28.021  12.338  12.457
41593W        W14018  44.279  24.083  14.828
41594W        W14019  23.202  29.053   0.759
41595W        W14020  19.045  33.040  11.562
41596W        W14021   9.755  36.560   0.274
41597W        W14022   6.768  12.166   1.309
41598W        W14023   1.846  14.815   1.219
41599W        W14024  26.997   2.860  10.435
41600W        W14025  44.262  17.747   4.119
41601W        W14026   6.409   2.876  13.387
41602W        W14027   8.256  18.236  12.579
41603W        W14028  31.002  15.588   3.317
41604W        W14029   6.369  18.283  14.014
41605W        W14030  38.373  26.461   2.210
41606W        W14031  11.252  31.520  14.980
41607W        W14032  36.872  32.552   1.915
41608W        W14033  22.009  16.115  14.347
41609W        W14034  13.316   6.894  14.845
41610W        W14035  36.996  36.970   2.292
41611W        W14036  33.126  15.635  13.924
41612W        W14037  33.031  35.061  13.799
41613W        W14038  20.114  37.535   1.232
41614W        W14039  41.023  16.754   4.304
41615W        W14040  44.313  20.146   3.771
41616W        W14041  34.457  32.961   1.296
41617W        W14042  30.619   1.346  12.424
41618W        W14043   4.442  11.680  12.387
41619W        W14044  22.583  20.087  10.126
41620W        W14045  32.485  39.539  14.808
41621W        W14046  35.012   4.378   2.813
41622W        W14047  19.557  27.951   2.403
41623W        W14048  27.940  11.810  13.917
41624W        W14049   6.732  12.657   4.231
41625W        W14050  24.536  27.054  12.460
41626W        W14051  36.547  41.024  12.363
41627W        W14052  40.994  20.543   1.296
41628W        W14053   3.769  13.250   1.705
41629W        W14054  28.590  15.731  13.973
41630W        W14055  31.464  36.509   4.663
41631W        W14056   0.444  31.534   1.358
41632W        W14057  34.494  39.467  11.448
41633W        W14058   7.872  27.085   4.277
41634W        W14059  40.028  38.968  14.980
41635W        W14060  12.619  43.974   2.276
41636W        W14061  16.117  17.577   1.312
41637W        W14062   5.891  20.585   0.311
41638W        W14063   8.168  41.506  11.433
41639W        W14064  12.312  44.399   3.165
41640W        W14065  24.667   6.690  11.057
41641W        W14066   2.855  18.131  11.883
41642W        W14067  31.583  17.120  10.956
41643W        W14068  32.482  40.821   4.659
41644W        W14069   8.380  30.945   3.176
41645W        W14070  30.416  16.284   3.384
41646W        W14071   7.765  44.443  12.527
41647W        W14072  39.389   0.271   5.239
41648W        W14073  14.814  18.099  10.896
41649W        W14074   1.805  24.108  14.279
41650W        W14075  14.286  23.230  12.519
41651W        W14076  22.184  20.585  13.454
41652W        W14077  39.359   8.223   1.861
41653W        W14078   7.744  22.567  14.957
41654W        W14079  12.309  25.145   2.403
41655W        W14080  35.584  37.552   3.714
41656W        W14081  25.211  19.623   4.284
41657W        W14082   1.912  29.576  14.984
41658W        W14083  41.945  29.535   9.976
41659W        W14084   9.162  19.665  11.495
41660W        W14085  42.868  15.250  11.901
41661W        W14086  23.167  43.896   1.385
41662W        W14087  11.269  13.132   0.418
41663W        W14088  23.093   6.773   0.397
41664W        W14089  31.135   4.357   3.369
41665W        W14090   8.404  36.468   1.388
41666W        W14091  36.368  40.537   2.291
41667W        W14092   7.185  21.037   4.666
41668W        W14093  41.526  16.769  12.420
41669W        W14094   3.810   9.733   0.400
41670W        W14095  21.596  21.606   4.778
41671W        W14096  41.477   4.213   4.347
41672W        W14097   8.851  29.126  13.346
41673W        W14098   3.344  31.480   0.448
41674W        W14099  13.268   2.417   1.442
41675W        W14100  17.580  19.257   4.672
41676W        W14101  32.000  17.773  13.357
41677W        W14102  18.694  42.390   2.306
41678W        W14103  30.503   5.874   1.361
41679W        W14104  17.629  28.559  11.089
41680W        W14105  40.353  43.360   0.956
41681W        W14106  25.688  17.576   3.323
41682W        W14107  40.431   2.424   2.307
41683W        W14108  38.829   6.844  14.880
41684W        W14109  30.005  31.487  14.013
41685W        W14110  26.629  35.913  12.998
41686W        W14111  13.622  23.132  13.992
41687W        W14112  42.860  18.774  11.385
41688W        W14113  38.492  44.292  12.924
41689W        W14114   0.272  14.773  12.014
41690W        W14115  38.521   3.274   4.785
41691W        W14116  29.933  33.390  14.407
41692W        W14117  30.998   7.330   1.847
41693W        W14118  37.534  41.320   0.805
41694W        W14119  28.945  13.793  14.930
41695W        W14120  30.013  39.468  13.051
41696W        W14121   7.740  35.903  11.419
41697W        W14122  41.029   7.281  14.879
41698W        W14123  10.200  14.776   5.145
41699W        W14124  14.665   4.707   9.997
41700W        W14125  42.435   0.952  13.826
41701W        W14126  25.001  14.097  11.069
41702W        W14127  20.671   4.776   0.270
41703W        W14128  34.937  42.821   2.182
41704W        W14129   2.802   0.434  11.123
41705W        W14130  30.056  25.630   4.191
41706W        W14131  26.527  20.597  10.511
41707W        W14132   0.751  29.025   3.338
41708W        W14133  15.272  37.914  14.426
41709W        W14134  28.508   7.321  13.869
41710W        W14135   8.836  36.897  12.521
41711W        W14136  30.140  25.134   2.206
41712W        W14137  23.625  31.485   4.604
41713W        W14138   7.333  16.278  13.484
41714W        W14139  12.297  37.518  10.432
41715W        W14140  14.243  11.373  13.963
41716W        W14141   0.297  12.709   1.933
41717W        W14142  17.109  43.294   3.849
41718W        W14143  14.217  18.616   4.742
41719W        W14144  27.174  12.340   0.815
41720W        W14145  13.104  33.520   0.309
41721W        W14146  36.463   1.822  10.059
41722W        W14147  35.389  41.305  14.815
41723W        W14148  39.409  34.112  12.521
41724W        W14149  38.412  44.275   2.702
41725W        W14150   9.285  12.156  10.472
41726W        W14151   7.870   1.476   2.799
41727W        W14152  17.125  19.625   1.823
41728W        W14153  39.415  13.761   2.375
41729W        W14154  37.341   6.833  10.603
41730W        W14155  19.275  42.986  11.561
41731W        W14156   0.249  11.811  12.945
41732W        W14157  20.561  35.563  10.445
41733W        W14158  10.718  37.546   3.702
41734W        W14159   2.355  38.854   0.922
41735W        W14160  34.897   2.882  13.416
41736W        W14161   0.959  12.214   1.897
41737W        W14162   1.311   1.316   3.215
41738W        W14163  39.356  29.966  13.319
41739W        W14164  11.155   5.881  12.833
41740W        W14165  37.928  40.025  13.949
41741W        W14166  39.917  14.789   4.225
41742W        W14167  42.414   1.874  14.957
41743W        W14168  13.834  16.287  10.962
41744W        W14169   6.193  34.563   4.252
41745W        W14170  10.205  16.711   3.287
41746W        W14171  30.555  26.971   3.854
41747W        W14172  34.379  15.154  14.420
41748W        W14173  21.559  36.462  13.014
41749W        W14174  26.047  26.102  13.868
41750W        W14175  13.643  19.577  12.975
41751W        W14176  29.000  19.217   0.743
41752W        W14177  36.422  20.197  13.533
41753W        W14178   0.983  28.542  13.419
41754W        W14179  15.210  34.029  10.981
41755W        W14180  31.464  34.003  10.454
41756W        W14181  20.721  43.356  13.909
41757W        W14182  27.015  43.947   3.187
41758W        W14183  41.307  23.638  13.040
41759W        W14184   5.926   4.855  10.929
41760W        W14185  28.674  32.921   0.736
41761W        W14186  42.399  11.248  13.874
41762W        W14187   6.835  44.827  13.035
41763W        W14188  25.594  38.456   2.738
41764W        W14189  21.627   7.332   5.321
41765W        W14190  12.634  34.103   4.146
41766W        W14191   6.904  31.624  10.509
41767W        W14192  21.628   1.352   3.225
41768W        W14193  36.442  13.159  14.994
41769W        W14194  35.909   1.300  14.968
41770W        W14195   2.740  16.761  11.020
41771W        W14196  23.629  28.975  11.513
41772W        W14197   6.811  27.493  12.831
41773W        W14198  22.094  16.309   1.772
41774W        W14199  30.615  34.460  11.893
41775W        W14200  38.068  40.335   3.777
41776W        W14201  34.538   3.710   1.225
41777W        W14202  15.663   5.761  12.480
41778W        W14203   4.369  42.385   0.941
41779W        W14204  25.187  10.708   0.965
41780W        W14205  22.564   1.844   1.925
41781W        W14206  39.536  19.137  10.514
41782W        W14207   1.381   5.769   0.362
41783W        W14208  43.312   6.419  12.349
41784W        W14209  16.098  37.839   0.304
41785W        W14210  26.178   2.934  12.406
41786W        W14211  39.385  34.077  10.502
41787W        W14212  22.574  26.594   3.184
41788W        W14213  14.305  33.551  11.547
41789W        W14214  44.917   2.360   3.850
41790W        W14215  39.327  15.219   3.728
41791W        W14216  30.488  23.167  10.411
41792W        W14217  18.053  13.652  13.848
41793W        W14218  22.235  16.180   2.895
41794W        W14219  15.653  17.620   2.735
41795W        W14220  20.552  36.582   0.908
41796W        W14221  18.077  28.957  13.869
41797W        W14222  43.893   0.867  14.485
41798W        W14223  16.660   7.304   4.199
41799W        W14224  11.702  28.087   5.273
41800W        W14225  16.619  16.697  13.854
41801W        W14226  23.068  31.448   3.163
41802W        W14227   6.715  26.528   0.731
41803W        W14228   9.307   5.824  13.394
41804W        W14229  27.073  25.211   2.186
41805W        W14230  31.415  38.450  14.386
41806W        W14231  22.710   5.797  14.430
41807W        W14232  44.490  27.179  12.497
41808W        W14233  17.180   9.680   0.785
41809W        W14234  10.841   6.426   0.877
41810W        W14235  20.730  24.619   1.258
41811W        W14236   8.818   3.396  12.094
41812W        W14237   2.386  34.003   4.323
41813W        W14238  39.860  32.622  12.936
41814W        W14239  29.071  32.437   4.725
41815W        W14240  15.726  27.061   4.715
41816W        W14241   9.308  10.308  11.004
41817W        W14242   7.907  25.543   3.279
41818W        W14243  40.804  23.016  12.506
41819W        W14244  23.618  35.564  13.976
41820W        W14245  33.598  20.184   4.674
41821W        W14246   9.285  25.054   4.686
41822W        W14247  23.679  32.908   0.312
41823W        W14248   5.769   2.879   1.218
41824W        W14249  38.372  17.110  11.881
41825W        W14250  23.560  11.628  12.411
41826W        W14251  17.293  19.764   2.770
41827W        W14252  17.221   8.284   3.696
41828W        W14253   6.771  35.058  14.332
41829W        W14254  44.363  44.986   1.707
41830W        W14255  36.506  25.145  10.154
41831W        W14256   0.928  34.058   1.286
41832W        W14257  14.618  36.072  14.850
41833W        W14258  33.610   2.760  11.063
41834W        W14259   7.271  14.238  12.895
41835W        W14260  24.034  11.741   2.874
41836W        W14261  27.562   7.736   4.167
41837W        W14262  19.679  30.431   9.555
41838W        W14263  22.552  16.666  12.950
41839W        W14264  37.832  16.570  13.925
41840W        W14265  33.935  44.831  14.287
41841W        W14266   2.848  24.540  11.000
41842W        W14267  44.849  26.061   3.660
41843W        W14268  30.912  36.986   3.244
41844W        W14269  16.237  11.838   1.770
41845W        W14270  14.329  13.636   1.360
41846W        W14271  32.944   2.950   3.362
41847W        W14272  30.603  24.219  12.078
41848W        W14273   4.906  23.573  13.530
41849W        W14274  18.288  26.702   1.742
41850W        W14275  10.836  44.435   2.371
41851W        W14276  34.078   4.246  13.908
41852W        W14277  29.570  35.864   0.825
41853W        W14278  11.684  19.694   0.295
41854W        W14279  21.662  39.055  12.999
41855W        W14280  21.595  22.669   9.952
41856W        W14281   2.831  11.861   1.864
41857W        W14282  35.485  23.023  10.478
41858W        W14283  28.563  29.990  13.434
41859W        W14284  18.709   1.333   4.275
41860W        W14285  12.775  29.970   3.294
41861W        W14286  13.626  30.055  14.911
41862W        W14287  44.965  19.108  11.966
41863W        W14288  44.910  22.210  11.975
41864W        W14289  38.473   1.802   0.734
41865W        W14290   0.286   9.277   1.914
41866W        W14291  18.564  39.402   0.875
41867W        W14292  35.879  42.776   0.389
41868W        W14293  44.793   9.705  14.435
41869W        W14294  14.743   4.403  14.411
41870W        W14295   3.410  18.124  11.063
41871W        W14296  28.094   2.309   5.190
41872W        W14297  33.616   6.802   0.903
41873W        W14298  27.143   5.740  13.356
41874W        W14299  15.637  28.439  12.461
41875W        W14300  25.711  39.840  14.400
41876W        W14301  17.765   3.716  11.999
41877W        W14302  12.677  17.246  13.442
41878W        W14303  24.193   3.772   4.839
41879W        W14304  44.301   4.403  13.328
41880W        W14305  25.217  18.143   0.747
41881W        W14306  13.744  25.106  14.837
41882W        W14307  33.122  22.579   3.706
41883W        W14308  35.602   2.954  13.341
41884W        W14309  15.779   9.346  13.909
41885W        W14310  14.109  41.313  14.457
41886W        W14311  10.767  18.120  13.052
41887W        W14312  42.425  14.733  12.381
41888W        W14313  35.968   9.258  12.942
41889W        W14314  10.189  44.328  13.427
41890W        W14315  44.303  12.713   0.303
41891W        W14316  35.405  33.020  14.824
41892W        W14317  44.950  37.991  11.986
41893W        W14318  30.975  10.848  14.966
41894W        W14319  23.608  29.663  12.485
41895W        W14320   9.733   7.734   5.275
41896W        W14321  33.087  20.218  13.960
41897W        W14322  35.917  31.404   0.403
41898W        W14323  30.043  18.704  10.576
41899W        W14324  16.602  36.510   3.864
41900W        W14325   8.233  43.357   4.764
41901W        W14326  17.759  17.299   4.633
41902W        W14327  16.621  14.629  14.902
41903W        W14328  38.057  27.133  14.465
41904W        W14329  34.515   9.321  14.773
41905W        W14330  40.418   2.267  14.030
41906W        W14331  16.655  44.485   2.869
41907W        W14332  12.287  24.607   4.686
41908W        W14333  41.824  14.781   0.743
41909W        W14334  35.887  27.554   3.245
41910W        W14335  34.479  40.902  14.823
41911W        W14336  18.184  33.044   5.118
41912W        W14337  30.433   0.399  13.930
41913W        W14338  40.372  41.498   1.449
41914W        W14339  38.920   9.213  11.548
41915W        W14340  33.509  19.717   3.832
41916W        W14341  30.424   4.800   1.237
41917W        W14342  26.010   5.220   0.357
41918W        W14343   6.397  44.969  14.431
41919W        W14344  39.516  38.898   0.457
41920W        W14345  22.027  34.944  11.979
41921W        W14346  26.600   8.838   4.227
41922W        W14347  12.205  25.973  11.902
41923W        W14348   5.375   5.741  10.494
41924W        W14349  41.450   6.185  12.420
41925W        W14350  21.142  29.455   4.798
41926W        W14351  24.527  14.197   4.328
41927W        W14352   0.250  23.679  12.374
41928W        W14353  19.049  32.479  10.535
41929W        W14354  38.997  14.817   3.171
41930W        W14355  14.300  20.235   3.230
41931W        W14356  21.158  13.644   0.830
41932W        W14357  13.169  19.722   3.360
41933W        W14358  17.633   4.710  14.983
41934W        W14359   6.202   2.901  12.055
41935W        W14360  31.129  39.052   3.696
41936W        W14361  15.590   5.387   4.238
41937W        W14362  42.827  11.734   2.712
41938W        W14363  17.164  18.213  13.473
41939W        W14364  13.339  22.603   2.819
41940W        W14365  25.500  38.885  11.417
41941W        W14366  43.880   3.381  10.525
41942W        W14367  26.581   1.431  11.495
41943W        W14368  44.988   4.758   4.256
41944W        W14369  36.006  32.458  12.870
41945W        W14370  42.410  17.725  11.922
41946W        W14371   0.843  19.121   3.274
41947W        W14372  21.563  15.195   1.346
41948W        W14373  35.563  35.442  10.949
41949W        W14374   9.162  29.959  14.477
41950W        W14375  39.316  31.990  12.405
41951W        W14376  16.685  32.478   3.757
41952W        W14377  44.982  37.054   4.164
41953W        W14378  25.051  27.679   3.643
41954W        W14379   8.287   6.309   2.321
41955W        W14380   5.931   1.835  14.408
41956W        W14381  39.915   6.684  12.061
41957W        W14382  16.742  13.200  14.872
41958W        W14383  28.106  29.950   1.728
41959W        W14384   1.875   4.838   1.227
41960W        W14385  41.436  30.485  12.966
41961W        W14386  10.864  35.066   3.858
41962W        W14387  19.171  31.560   2.305
41963W        W14388  44.349  36.061  12.974
41964W        W14389  17.794  32.049  12.007
41965W        W14390  25.469  37.065  11.396
41966W        W14391  43.371  14.282  14.028
41967W        W14392  22.608   4.251  13.949
41968W        W14393   8.841  12.801  14.336
41969W        W14394  40.306  37.578  14.807
41970W        W14395   2.252  39.388   4.248
41971W        W14396  23.583  26.065   4.752
41972W        W14397  25.559  20.052  14.017
41973W        W14398   0.292  16.620   2.343
41974W        W14399  19.058  32.440   2.355
41975W        W14400   6.712  30.458  13.003
41976W        W14401  16.089  18.190  14.018
41977W        W14402  19.119  31.611   0.915
41978W        W14403  44.911  33.434   1.371
41979W        W14404  42.301  40.366  10.429
41980W        W14405  30.567  38.911   2.280
41981W        W14406  17.075  37.549   1.898
41982W        W14407  41.967  20.655   3.655
41983W        W14408   6.358  33.948  14.925
41984W        W14409  31.453  11.739  12.890
41985W        W14410   0.797  34.603  10.461
41986W        W14411  12.801  36.096  13.904
41987W        W14412  23.114  20.045  13.790
41988W        W14413  28.022  17.137   2.754
41989W        W14414  29.155  33.613   3.650
41990W        W14415   2.751  33.556   0.477
41991W        W14416  39.943  43.315  10.541
41992W        W14417   8.666  27.600   2.751
41993W        W14418  29.454  29.089  14.306
41994W        W14419  22.022  23.497  11.128
41995W        W14420  14.244  33.572  14.850
41996W        W14421  18.594  18.170  10.622
41997W        W14422  15.725  23.726  12.018
41998W        W14423  10.668   7.380   2.209
41999W        W14424   6.772  41.438  10.577
42000W        W14425  22.179  34.409   2.670
42001W        W14426  42.494  25.111   3.340
42002W        W14427  11.683   6.420  11.424
42003W        W14428   9.738  35.046  14.937
42004W        W14429  33.994  17.088   0.461
42005W        W14430   3.289  17.283  11.446
42006W        W14431  35.077  29.008  12.035
42007W        W14432  20.763  35.486   4.601
42008W        W14433  37.863  31.079  13.825
42009W        W14434  43.899  23.704   1.698
42010W        W14435  38.011  23.004   9.653
42011W        W14436  28.054  28.059   4.324
42012W        W14437  25.699  33.602  12.375
42013W        W14438  42.787   3.915  11.377
42014W        W14439  38.000   5.291  14.024
42015W        W14440  13.244  38.044   3.668
42016W        W14441  11.847   5.915  13.366
42017W        W14442   4.800  25.977   3.229
42018W        W14443  43.472  19.569   1.850
42019W        W14444  35.075  34.008  14.976
42020W        W14445  10.232   1.819  12.570
42021W        W14446  40.969  27.454   2.804
42022W        W14447  26.499  43.769  14.800
42023W        W14448  38.050   1.785   2.287
42024W        W14449   6.854   3.856   1.252
42025W        W14450  32.905  30.531   0.308
42026W        W14451  23.574   2.412   0.332
42027W        W14452  37.491  10.830   0.810
42028W        W14453  41.870  32.991  13.049
42029W        W14454   9.840   8.767  12.485
42030W        W14455  13.696  15.599  11.456
42031W        W14456   1.463   3.835  10.934
42032W        W14457  44.765   6.224  14.880
42033W        W14458  16.294  41.866   3.207
42034W        W14459  39.060  34.962   4.340
42035W        W14460  30.003  17.627  14.490
42036W        W14461  39.540  35.936  13.467
42037W        W14462  39.997  12.629  13.477
42038W        W14463   6.754  39.937   1.272
42039W        W14464  29.951  44.845   4.683
42040W        W14465  40.333  17.073  10.436
42041W        W14466  28.637   7.772  12.567
42042W        W14467  32.031   7.882   4.133
42043W        W14468  41.437  44.378  13.816
42044W        W14469  23.202  38.446  11.120
42045W        W14470  29.087   3.915  11.575
42046W        W14471  12.119  15.669  14.991
42047W        W14472  42.470   9.318   2.273
42048W        W14473  19.696   9.283   2.836
42049W        W14474  18.720  25.099   4.608
42050W        W14475  27.561   7.908   0.468
42051W        W14476  33.074   1.960  13.859
42052W        W14477  31.046  20.266   3.160
42053W        W14478   5.304  29.955  13.402
42054W        W14479  41.529  39.358   1.737
42055W        W14480  41.885  26.971  12.970
42056W        W14481  29.172  24.007  13.487
42057W        W14482  11.321   8.211  13.532
42058W        W14483  13.139   4.727   1.926
42059W        W14484  35.400  24.580   0.819
42060W        W14485  10.647   0.277   1.339
42061W        W14486  22.534  16.299  12.460
42062W        W14487  12.712  20.181  12.532
42063W        W14488   1.448   4.235   0.290
42064W        W14489  43.385  14.835  13.451
42065W        W14490   4.879   3.327   4.325
42066W        W14491  14.302  33.913  13.340
42067W        W14492  36.961  13.145  14.386
42068W        W14493   5.251  21.624   4.762
42069W        W14494  36.589  36.031  12.832
42070W        W14495  39.557   4.835  10.414
42071W        W14496   8.793  17.140   5.112
42072W        W14497  12.835  20.033  14.905
42073W        W14498   4.855   2.373   3.307
42074W        W14499  25.475  17.218  10.611
42075W        W14500  36.842  17.573   3.658
42076W        W14501  44.452  30.594  12.916
42077W        W14502  24.649  37.378  10.474
42078W        W14503   3.854  35.985   1.314
42079W        W14504  17.720  24.054  10.533
42080W        W14505  27.188   4.204  11.103
42081W        W14506  37.469   4.332   3.253
42082W        W14507   2.871  28.107   1.813
42083W        W14508  28.935  16.270  12.848
42084W        W14509  20.551   0.397  12.359
42085W        W14510  41.845  31.148  12.460
42086W        W14511  44.387  34.116  13.349
42087W        W14512   3.851  16.100  11.402
42088W        W14513  40.864  16.151   1.264
42089W        W14514   1.363  21.736   2.729
42090W        W14515  30.424  30.066   3.636
42091W        W14516  40.875   5.868  13.401
42092W        W14517  38.023   4.218   3.170
42093W        W14518  42.924  41.480  11.993
42094W        W14519  11.624  26.182  11.898
42095W        W14520   5.769  39.058   2.289
42096W        W14521  16.087  11.782  11.059
42097W        W14522  35.589  22.213  13.971
42098W        W14523   4.891   9.714   2.736
42099W        W14524  39.538  33.052   2.205
42100W        W14525  39.476  40.539  14.387
42101W        W14526  30.534  39.536  14.335
42102W        W14527  40.358  42.297  12.372
42103W        W14528  32.049  11.200  12.532
42104W        W14529  29.025  34.614   4.629
42105W        W14530  24.081  14.793   2.190
42106W        W14531  19.637  41.303   2.901
42107W        W14532  14.773  10.784  11.980
42108W        W14533  24.977  29.996   1.774
42109W        W14534  18.564  41.790   4.133
42110W        W14535   3.258   0.412  12.363
42111W        W14536  27.662   8.176   3.822
42112W        W14537  23.007   4.280   1.423
42113W        W14538   3.902  35.577  11.393
42114W        W14539  33.523  36.504   4.660
42115W        W14540  30.061  37.467   4.172
42116W        W14541  37.517  12.758   1.244
42117W        W14542  30.468  37.998  13.807
42118W        W14543   0.277  18.700   3.851
42119W        W14544  12.853  33.955   2.202
42120W        W14545  33.053  37.082  13.062
42121W        W14546  31.970  26.702   1.759
42122W        W14547   0.882  38.884   3.319
42123W        W14548  36.051   6.792   4.789
42124W        W14549  28.065  23.723  10.975
42125W        W14550  40.403   1.249  14.781
42126W        W14551  27.528  10.817  14.443
42127W        W14552   8.261  42.855   0.792
42128W        W14553  40.984  37.903  14.315
42129W        W14554   6.789  19.218  12.007
42130W        W14555  17.575  15.160   4.354
42131W        W14556  24.570  20.150   1.788
42132W        W14557   4.815  28.172   3.760
42133W        W14558  35.915  37.844  14.796
42134W        W14559  39.325  15.773  11.992
42135W        W14560  38.409   7.835   3.812
42136W        W14561  21.694  26.025  10.906
42137W        W14562  32.478  44.475  13.344
42138W        W14563  36.951   2.353   2.277
42139W        W14564   6.417  10.867   1.731
42140W        W14565  23.555   6.218  11.027
42141W        W14566  43.856  25.217   3.775
42142W        W14567  13.238  41.837  11.445
42143W        W14568  20.620  28.442   2.710
42144W        W14569  36.915  22.078   1.343
42145W        W14570  28.016  21.137   9.967
42146W        W14571  17.226  21.254  14.277
42147W        W14572  42.299  20.249   1.338
42148W        W14573   9.258   0.345  10.540
42149W        W14574  27.943  44.458  10.575
42150W        W14575  21.619  29.935   3.852
42151W        W14576  22.584  43.405   4.313
42152W        W14577  15.237  40.029  14.402
42153W        W14578  32.984  14.635  12.501
42154W        W14579   3.931  16.780   0.790
42155W        W14580  16.622  22.642  13.368
42156W        W14581   5.865  37.356  13.058
42157W        W14582  22.120   3.439   3.852
42158W        W14583  29.611  21.654   4.151
42159W        W14584  31.048  44.360   0.742
42160W        W14585  23.720  22.043  11.376
42161W        W14586   5.750  12.631  12.860
42162W        W14587  23.720  33.459   1.285
42163W        W14588  23.046  31.584   2.699
42164W        W14589   0.276   0.325   3.277
42165W        W14590  22.561  42.961   5.268
42166W        W14591  30.558   5.801  10.448
42167W        W14592  20.048  14.106  13.351
42168W        W14593  41.990  34.982  14.936
42169W        W14594  33.055  22.662   4.669
42170W        W14595  39.062  26.954   0.360
42171W        W14596  34.932  17.069  13.892
42172W        W14597  10.159  23.704  10.625
42173W        W14598  26.127  41.797  10.608
42174W        W14599   0.880  44.374   3.786
42175W        W14600   8.754  25.690   1.924
42176W        W14601   1.420  38.915   4.602
42177W        W14602   7.414  35.426   5.692
42178W        W14603   0.461  30.057  13.029
42179W        W14604  26.520   1.381   3.694
42180W        W14605  27.130  27.674  13.412
42181W        W14606  17.113  23.150  11.477
42182W        W14607  44.993  39.501  11.886
42183W        W14608   0.444  12.147  10.550
42184W        W14609  24.987  13.325  13.467
42185W        W14610  11.674  23.198  12.438
42186W        W14611  43.413  34.518  11.439
42187W        W14612  41.018  10.234   0.727
42188W        W14613   0.972  19.571  14.510
42189W        W14614  39.858  32.920   2.346
42190W        W14615  32.491  37.892  12.458
42191W        W14616  18.158  22.158   0.410
42192W        W14617  30.948  23.652  10.580
42193W        W14618   6.910   6.696   0.312
42194W        W14619  18.253   3.910  11.560
42195W        W14620   0.963  20.551   0.957
42196W        W14621   9.235   9.755  14.345
42197W        W14622  26.991  44.455  13.945
42198W        W14623   1.294  21.262  11.064
42199W        W14624  12.655  17.212   0.907
42200W        W14625  20.066  20.265  10.967
42201W        W14626  35.550   9.167   1.783
42202W        W14627  13.315  14.743  10.458
42203W        W14628  15.120   4.349   0.894
42204W        W14629   6.335  11.696  13.395
42205W        W14630  15.621  42.439  13.932
42206W        W14631  44.978  24.710  13.840
42207W        W14632   0.887  43.427   2.686
42208W        W14633  31.903  14.813   0.244
42209W        W14634  19.600  41.886   4.205
42210W        W14635  30.037  28.620   4.306
42211W        W14636  27.663  13.261  11.499
42212W        W14637  33.386  34.585  13.042
42213W        W14638  14.219  12.663   1.365
42214W        W14639   6.239  30.930   4.194
42215W        W14640   2.267  20.594   3.844
42216W        W14641  16.132  42.430   1.909
42217W        W14642  40.948  20.244   2.369
42218W        W14643  18.576  11.665   2.284
42219W        W14644   9.201  11.819  13.955
42220W        W14645   3.878  12.176   4.651
42221W        W14646  21.257   2.411   0.413
42222W        W14647   1.836  19.669  14.469
42223W        W14648  19.721  32.514   5.569
42224W        W14649   3.262  33.953   3.233
42225W        W14650  18.072   5.241   3.672
42226W        W14651   1.373  10.232  13.951
42227W        W14652   7.256   4.772   3.225
42228W        W14653  32.099  41.946   3.661
42229W        W14654  24.035   6.307  11.965
42230W        W14655  12.341   6.254  13.990
42231W        W14656   7.181  24.204   1.844
42232W        W14657  30.425  27.469   3.182
42233W        W14658  38.476  40.952   2.269
42234W        W14659  11.686   3.956  11.941
42235W        W14660  10.706  43.472   1.300
42236W        W14661   9.313  36.386   0.954
42237W        W14662  29.599  22.721  13.890
42238W        W14663  26.503   0.847  14.015
42239W        W14664  11.156  34.384   0.405
42240W        W14665  33.997  43.863  13.508
42241W        W14666  10.333  19.778   4.257
42242W        W14667   0.780  13.692  12.093
42243W        W14668  43.320   0.969   2.222
42244W        W14669  44.765   2.925  12.079
42245W        W14670  33.589  13.628   2.730
42246W        W14671  44.480  10.851  10.418
42247W        W14672  41.308  37.370  12.885
42248W        W14673  11.678  28.676  10.938
42249W        W14674  17.208  12.341  12.425
42250W        W14675  42.474  29.971   1.884
42251W        W14676  36.513  32.974  13.868
42252W        W14677  33.625  35.077  14.493
42253W        W14678  10.243  18.287  11.522
42254W        W14679  24.013  22.682  14.870
42255W        W14680   3.318  27.066  14.811
42256W        W14681  37.529  37.954   0.936
42257W        W14682  43.015   2.264   2.697
42258W        W14683   6.261  43.804  11.862
42259W        W14684   3.261  23.083   4.836
42260W        W14685  42.947  29.921  13.946
42261W        W14686   0.988   2.386  12.389
42262W        W14687  13.306  12.248  12.923
42263W        W14688  16.124  30.474   3.692
42264W        W14689  42.879   2.390   0.839
42265W        W14690  19.614  19.246   3.219
42266W        W14691  44.494  36.406   2.396
42267W        W14692  29.156  18.058  13.435
42268W        W14693  15.627  35.481   4.755
42269W        W14694  39.371  43.425   1.265
42270W        W14695  32.997  31.061   3.353
42271W        W14696  32.480  12.205  14.327
42272W        W14697   4.303   7.253   2.879
42273W        W14698  40.896  22.520  13.449
42274W        W14699   9.795  39.826  12.872
42275W        W14700  42.896   9.691   4.184
42276W        W14701   8.229   8.792  13.990
42277W        W14702   3.939  16.747  11.576
42278W        W14703  20.641  15.641   2.789
42279W        W14704  26.695  25.675  11.933
42280W        W14705  31.547  20.540  13.354
42281W        W14706  41.354  11.356   2.393
42282W        W14707  12.315  43.019   1.814
42283W        W14708  37.890  22.573  12.945
42284W        W14709  12.745  26.038   2.697
42285W        W14710  30.928  42.497  13.883
42286W        W14711  43.844  30.163   2.296
42287W        W14712  28.938  44.007   3.296
42288W        W14713   8.377  25.635   4.635
42289W        W14714   7.181  34.461  12.434
42290W        W14715  11.842  44.501   9.960
42291W        W14716  44.356   0.315  11.907
42292W        W14717  14.811   4.914   3.846
42293W        W14718  19.244  12.260   4.315
42294W        W14719  14.801   8.767   2.838
42295W        W14720  24.120  13.832  11.905
42296W        W14721  27.993  44.264   5.274
42297W        W14722   7.206  26.567  11.127
42298W        W14723  18.711  20.184   3.323
42299W        W14724  28.440  15.102  12.847
42300W        W14725  35.455  43.322  11.540
42301W        W14726  22.032  21.143  10.903
42302W        W14727  35.534  25.616  13.919
42303W        W14728  33.077  30.434  13.396
42304W        W14729  25.596  20.762  12.507
42305W        W14730  27.667  17.757   1.373
42306W        W14731  40.810  19.756   0.371
42307W        W14732  30.542  19.104   1.370
42308W        W14733  20.688   5.839   0.265
42309W        W14734  38.414  43.910   2.867
42310W        W14735   2.465  30.928   1.924
42311W        W14736  30.510  41.814  13.818
42312W        W14737  25.170   7.825  13.317
42313W        W14738  15.812  39.547  10.640
42314W        W14739  34.980  42.494   2.402
42315W        W14740  11.658   4.940  14.336
42316W        W14741  10.791   8.368   5.736
42317W        W14742  30.989  16.250  14.777
42318W        W14743  25.633  12.698  11.015
42319W        W14744  19.152  13.304  11.557
42320W        W14745  12.710  13.682   4.608
42321W        W14746   7.790  34.866   0.954
42322W        W14747  19.048  37.467  14.768
42323W        W14748  43.887   7.206   2.763
42324W        W14749  22.085   4.341   2.877
42325W        W14750  21.143  19.224  14.831
42326W        W14751  31.408  10.714  14.357
42327W        W14752  30.114  22.182  13.938
42328W        W14753   5.331  17.102  11.492
42329W        W14754   8.658  37.346   2.693
42330W        W14755  32.612  11.709  13.382
42331W        W14756  21.149  16.595  10.561
42332W        W14757  32.068   2.915  13.873
42333W        W14758   5.317   9.789   3.725
42334W        W14759  31.476  27.070   0.246
42335W        W14760   6.309  36.014  14.285
42336W        W14761  25.071  33.626  13.313
42337W        W14762  34.423   9.771   4.604
42338W        W14763  17.217  19.765  10.089
42339W        W14764   9.301  23.642  14.955
42340W        W14765  15.123  37.361  10.994
42341W        W14766   6.769  34.567   0.752
42342W        W14767  11.639  19.692   0.815
42343W        W14768  41.975  41.907  12.083
42344W        W14769  43.941  31.572   0.727
42345W        W14770  12.762  24.098   0.812
42346W        W14771  23.688  20.086   0.457
42347W        W14772  33.882  24.506   1.343
42348W        W14773  41.335  17.246  10.597
42349W        W14774  18.555  24.096   1.230
42350W        W14775  24.023  21.650  13.969
42351W        W14776  13.345  20.766   0.348
42352W        W14777  41.354   3.247   1.392
42353W        W14778  20.749  28.494   1.396
42354W        W14779  43.003   0.984  11.598
42355W        W14780  41.951  13.164  14.468
42356W        W14781  33.594  24.537   1.413
42357W        W14782   8.682  21.122   4.313
42358W        W14783  15.815  26.491   4.335
42359W        W14784  34.030  28.505  14.481
42360W        W14785  19.738  17.165  13.545
42361W        W14786  23.674   9.368   2.836
42362W        W14787  40.953  31.475   3.249
42363W        W14788  11.174  32.414  10.560
42364W        W14789  18.288   1.929   4.823
42365W        W14790  17.275  43.888   4.168
42366W        W14791   3.371  21.603   1.784
42367W        W14792  43.307  18.111  10.890
42368W        W14793  27.970  40.523   3.734
42369W        W14794  37.997  31.554  12.910
42370W        W14795  36.067   6.845   1.904
42371W        W14796  25.117   4.309  12.393
42372W        W14797   0.249  41.470  11.117
42373W        W14798  18.693  25.100   2.240
42374W        W14799  16.211  23.493  11.508
42375W        W14800  17.667  27.950   0.964
42376W        W14801   8.761  16.711   4.710
42377W        W14802  36.391  19.607  11.507
42378W        W14803   8.853  33.013   3.358
42379W        W14804  11.667  29.036   3.233
42380W        W14805   4.830  43.281  12.551
42381W        W14806  11.155  27.055   1.231
42382W        W14807  22.694  19.248  12.943
42383W        W14808   8.673   7.299  14.476
42384W        W14809  34.380  16.149  10.599
42385W        W14810  18.063  38.830  13.512
42386W        W14811   5.263   1.910  11.499
42387W        W14812  15.188  11.217  14.897
42388W        W14813  24.074  13.197   2.415
42389W        W14814   1.823  16.714  11.525
42390W        W14815   1.407  38.494  11.103
42391W        W14816   0.829  30.601  13.463
42392W        W14817  32.109  26.586   2.380
42393W        W14818  37.948  14.155  13.919
42394W        W14819  38.961  25.105   0.760
42395W        W14820  33.568  37.863  14.870
42396W        W14821  16.194   2.884   2.764
42397W        W14822  43.804  20.197  11.383
42398W        W14823  25.180  31.624   2.746
42399W        W14824  28.542   8.760  10.538
42400W        W14825  27.617   0.307  13.357
42401W        W14826  22.010  10.184   1.252
42402W        W14827  21.050  38.987  10.486
42403W        W14828  41.320   5.735  12.916
42404W        W14829  17.709   3.215   4.291
42405W        W14830  33.890  43.509  11.877
42406W        W14831  43.367  39.331  13.967
42407W        W14832  32.432  32.059   1.891
42408W        W14833  20.087  34.967   2.407
42409W        W14834  26.154  14.283   3.659
42410W        W14835  26.461  15.786   4.188
42411W        W14836  20.207  24.548   0.948
42412W        W14837   4.918   6.369   5.206
42413W        W14838   0.930   6.821  14.315
42414W        W14839  43.916  13.650   1.905
42415W        W14840  10.230  15.325  10.428
42416W        W14841  41.468  23.611  10.458
42417W        W14842  17.257  26.063  12.014
42418W        W14843  11.135   8.314  13.959
42419W        W14844  37.560  14.729  14.810
42420W        W14845  36.467  10.732  10.499
42421W        W14846  18.212  13.265   0.818
42422W        W14847   0.456  29.932  13.515
42423W        W14848  42.992  38.972   3.322
42424W        W14849  26.954  34.485  13.460
42425W        W14850  33.526   4.353   2.716
42426W        W14851  34.937  33.961   3.225
42427W        W14852  13.780  30.099  10.406
42428W        W14853  12.125  28.983  12.550
42429W        W14854  28.095   3.803  13.443
42430W        W14855  41.344   4.213  10.929
42431W        W14856   6.902  41.331   1.734
42432W        W14857  26.600   4.365  12.008
42433W        W14858  36.994  22.543   4.215
42434W        W14859  22.092  30.098   3.257
42435W        W14860   4.447  34.562   2.352
42436W        W14861   4.761  12.718  13.872
42437W        W14862  44.870  11.839  10.939
42438W        W14863   6.695  39.448   3.778
42439W        W14864  18.724  38.882  10.579
42440W        W14865  19.645  43.986   3.173
42441W        W14866  11.346  15.816  13.369
42442W        W14867  29.107  20.237  12.442
42443W        W14868  38.383   9.672   3.299
42444W        W14869   6.285  43.438  13.039
42445W        W14870  37.459  37.426  14.867
42446W        W14871  33.084   9.383  14.933
42447W        W14872  13.720  22.653   4.709
42448W        W14873  36.571  12.741   1.780
42449W        W14874  13.202   5.725   1.220
42450W        W14875   7.417  41.879   2.287
42451W        W14876  15.176   9.152   1.265
42452W        W14877  44.320  25.529   0.312
42453W        W14878  24.108  20.248  14.287
42454W        W14879  16.098  35.095  13.502
42455W        W14880  30.119   9.776   2.817
42456W        W14881  25.176  13.155  11.080
42457W        W14882  16.232  30.624   4.190
42458W        W14883  38.835   0.419  11.082
42459W        W14884   1.300  17.763  14.497
42460W        W14885  40.385  39.431  10.411
42461W        W14886  38.965  34.575  14.791
42462W        W14887  22.509  30.126  11.935
42463W        W14888  37.392  12.802   3.345
42464W        W14889   9.292  19.070   0.333
42465W        W14890   1.287  10.311  14.357
42466W        W14891  33.978  14.159   3.714
42467W        W14892   4.215  15.181  11.459
42468W        W14893  28.469  24.638  13.373
42469W        W14894  33.995  44.474  11.514
42470W        W14895  39.905  29.068   3.681
42471W        W14896  15.120  38.027  10.623
42472W        W14897  36.055  14.277   4.700
42473W        W14898  31.562  42.945   1.806
42474W        W14899   4.845  41.420   3.821
42475W        W14900  14.258   7.803  14.379
42476W        W14901  10.139  20.654   4.765
42477W        W14902  16.190  26.594   3.343
42478W        W14903  32.976   0.255   0.372
42479W        W14904  16.312  27.068  12.962
42480W        W14905  28.177  11.802   1.904
42481W        W14906  22.660  27.985  12.994
42482W        W14907  14.259   0.355  11.409
42483W        W14908  44.962  14.199   0.783
42484W        W14909  38.569  14.251  14.901
42485W        W14910  14.256   7.303   1.799
42486W        W14911  17.286  15.587   1.796
42487W        W14912  12.148  36.967   0.326
42488W        W14913  24.524   1.825  12.880
42489W        W14914  18.731  11.717  14.416
42490W        W14915  15.133  36.473  10.512
42491W        W14916   5.797  37.522   3.784
42492W        W14917  41.963  22.158   0.865
42493W        W14918  32.035   6.739   1.727
42494W        W14919  33.448   3.264   2.811
42495W        W14920  16.719  23.536   2.753
42496W        W14921  20.233  27.169  14.790
42497W        W14922   5.885  31.425   1.278
42498W        W14923   4.731   6.235   1.734
42499W        W14924  24.098  27.014  10.476
42500W        W14925  15.210  44.972  11.572
42501W        W14926  35.009  30.524  13.529
42502W        W14927  15.223  27.603  12.035
42503W        W14928  18.549   0.869  13.971
42504W        W14929   8.765   9.770   4.767
42505W        W14930  41.942  37.034  13.472
42506W        W14931  17.681   7.762  14.457
42507W        W14932  38.444  32.072  14.433
42508W        W14933  31.003   3.263  14.927
42509W        W14934  13.815  39.412  12.420
42510W        W14935  14.603   1.470  11.473
42511W        W14936  12.341  18.616  12.045
42512W        W14937  21.182  22.192   3.333
42513W        W14938  18.754  42.781   2.786
42514W        W14939   2.398  33.504   3.651
42515W        W14940  32.401  21.543  12.043
42516W        W14941  10.330  23.195   0.449
42517W        W14942  39.542  41.040  12.435
42518W        W14943  19.125   1.438   5.314
42519W        W14944  44.271  26.085   4.192
42520W        W14945  26.573  10.288  12.432
42521W        W14946  10.149  20.555   0.829
42522W        W14947   9.662   3.307   3.184
42523W        W14948  11.156  38.455  14.011
42524W        W14949  35.383  36.394   3.864
42525W        W14950  33.398  33.607  10.966
42526W        W14951  32.886  17.223  10.639
42527W        W14952  21.523  19.184  12.988
42528W        W14953   6.358  24.180   2.390
42529W        W14954  40.539   7.237   4.133
42530W        W14955  16.753  26.084   4.195
42531W        W14956  42.460  13.795  12.849
42532W        W14957  29.081  10.777   2.212
42533W        W14958  23.229  22.513   0.729
42534W        W14959   5.771  28.177  10.443
42535W        W14960  39.934   3.934   3.699
42536W        W14961  35.562  19.063   1.449
42537W        W14962  35.867  11.357   2.760
42538W        W14963  19.131  17.063  13.903
42539W        W14964  23.142  34.021  13.468
42540W        W14965   4.246  34.371  12.380
42541W        W14966  11.223  38.555   4.176
42542W        W14967  15.713  25.141   4.123
42543W        W14968   5.723  22.226   0.897
42544W        W14969  15.781  28.525   1.305
42545W        W14970  21.197  29.080   4.668
42546W        W14971  12.695  31.952   1.706
42547W        W14972  13.134  16.288   1.774
42548W        W14973   3.227  20.562  14.789
42549W        W14974  44.966  28.171   2.815
42550W        W14975  27.180   8.249   2.350
42551W        W14976   9.867  13.780  10.593
42552W        W14977   9.876  20.059   4.227
42553W        W14978   8.394  38.939   1.328
42554W        W14979  19.128  35.590  14.369
42555W        W14980  37.451  33.455   4.281
42556W        W14981   6.411  32.516  12.940
42557W        W14982   4.933  20.635  11.093
42558W        W14983  30.145  43.907  14.874
42559W        W14984   7.415   5.800  14.857
42560W        W14985  20.639   4.863  13.510
42561W        W14986  23.549  31.474   0.474
42562W        W14987   9.857  36.077   2.745
42563W        W14988  19.278  20.718   0.415
42564W        W14989  17.164  24.150  11.574
42565W        W14990  42.306  21.109   4.241
42566W        W14991  23.612  36.435   3.309
42567W        W14992  25.596   3.921   4.652
42568W        W14993   5.701  24.722  12.341
42569W        W14994  10.741   4.332   2.368
42570W        W14995  26.064  24.573  12.441
42571W        W14996  30.545   3.916  13.537
42572W        W14997   6.750   2.302  11.023
42573W        W14998  28.165   3.754  10.926
42574W        W14999  26.519  35.981   1.224
42575W        W15000   0.967  33.484   9.936
42576W        W15001  24.688  40.514   0.878
42577W        W15002  42.919  35.921  12.430
42578W        W15003  38.026  22.167  13.968
42579W        W15004  32.951  23.688  12.377
42580W        W15005  15.204  18.236  11.961
42581W        W15006  29.539  42.356   0.480
42582W        W15007  38.480  34.004   4.279
42583W        W15008  14.723  16.723   0.320
42584W        W15009  40.924  44.345   1.235
42585W        W15010  33.539  13.178   0.428
42586W        W15011   3.718   9.177  13.797
42587W        W15012  19.066  32.489   1.211
42588W        W15013  30.431   6.191   4.716
42589W        W15014  25.533   6.834   3.703
42590W        W15015  38.828  30.652  12.925
42591W        W15016   4.391  34.110  13.411
42592W        W15017  39.402  24.501   1.432
42593W        W15018   3.310  32.572   4.206
42594W        W15019  16.760  28.034  12.965
42595W        W15020   3.331  28.479  14.450
42596W        W15021  38.489   7.705  13.843
42597W        W15022  11.643  23.200  14.430
42598W        W15023   4.791  44.842   3.706
42599W        W15024  15.589  26.640   5.147
42600W        W15025   0.909  41.327   2.280
42601W        W15026  42.512  37.376  11.437
42602W        W15027   8.686  12.251  13.382
42603W        W15028  34.107  28.025  12.580
42604W        W15029   4.872   8.884  10.923
42605W        W15030  42.932  12.677  11.917
42606W        W15031  30.585  32.927  10.469
42607W        W15032  10.295   3.342   0.924
42608W        W15033  39.811  33.875  11.977
42609W        W15034  23.993  13.657  13.341
42610W        W15035  21.560   7.218   1.331
42611W        W15036  14.648   0.949   4.658
42612W        W15037  43.934  28.500  13.871
42613W        W15038  22.017   2.339  12.579
42614W        W15039  30.099  24.505   2.287
42615W        W15040   6.826  41.384  11.861
42616W        W15041  17.298   3.925  11.102
42617W        W15042  19.759   6.682   0.402
42618W        W15043  30.926   6.863  12.943
42619W        W15044  44.851  36.946   1.914
42620W        W15045   8.387  18.726  13.922
42621W        W15046   1.330  12.805   2.378
42622W        W15047   0.869   8.384  13.342
42623W        W15048   6.871  43.768  12.857
42624W        W15049   5.312  24.010  10.438
42625W        W15050  44.464   8.243   1.223
42626W        W15051   7.345  26.047  14.422
42627W        W15052  40.877  23.078   1.349
42628W        W15053  31.992  35.910   0.433
42629W        W15054  28.517  15.690  13.340
42630W        W15055  44.417  16.274   3.630
42631W        W15056  40.482  41.977   4.648
42632W        W15057  12.298  42.958  14.436
42633W        W15058  39.896   8.329   4.740
42634W        W15059  39.411  25.153   2.853
42635W        W15060  19.156  24.626   0.369
42636W        W15061  27.511  18.233  14.353
42637W        W15062  35.543  28.999  13.437
42638W        W15063  42.317   5.362   2.697
42639W        W15064  36.026  18.218   4.792
42640W        W15065  23.222   8.787  11.469
42641W        W15066  32.606  21.153  11.063
42642W        W15067   1.737  16.128  13.516
42643W        W15068  22.628  32.135  10.557
42644W        W15069  27.075   5.722   4.239
42645W        W15070  13.657   6.911  11.501
42646W        W15071  31.484  16.268  10.044
42647W        W15072  33.930  22.224   0.327
42648W        W15073  39.558  29.945  10.634
42649W        W15074  30.092  34.103   2.777
42650W        W15075  22.636  21.050   1.383
42651W        W15076  25.153  15.788  12.538
42652W        W15077  22.183   6.699  11.875
42653W        W15078   4.362  38.973  12.376
42654W        W15079  23.512  41.923  13.425
42655W        W15080  16.610   9.382  13.388
42656W        W15081  42.978   3.385  10.082
42657W        W15082  13.648  20.767   4.129
42658W        W15083   0.798  43.984  13.858
42659W        W15084  36.869  31.424   2.820
42660W        W15085  32.546   3.392   1.910
42661W        W15086  19.739   3.420   3.184
42662W        W15087  20.722  31.408   0.830
42663W        W15088  11.806  31.645   0.417
42664W        W15089  14.109  27.479   3.379
42665W        W15090   5.360  26.952  13.537
42666W        W15091   0.763  17.286  12.003
42667W        W15092  28.475  33.417  11.602
42668W        W15093   0.315  27.495  13.432
42669W        W15094   5.311  35.366   4.744
42670W        W15095  17.303  10.720   1.295
42671W        W15096   5.932  34.051  11.071
42672W        W15097  38.892   0.948  10.432
42673W        W15098  40.968  19.564   1.213
42674W        W15099   0.874  15.099  12.438
42675W        W15100  26.096   5.251  13.393
42676W        W15101  10.281  23.560   9.987
42677W        W15102  14.265  14.820  12.896
42678W        W15103  39.043  25.019  13.957
42679W        W15104  15.725  15.736  13.902
42680W        W15105   1.866  32.479   0.457
42681W        W15106  22.223   6.309   0.335
42682W        W15107  42.937  27.505  11.502
42683W        W15108  11.301   2.809   3.155
42684W        W15109  36.549  24.175  10.575
42685W        W15110  29.958  25.670  14.297
42686W        W15111  32.986  36.850   2.869
42687W        W15112  17.724   5.380   2.792
42688W        W15113   9.746   9.311   4.612
42689W        W15114  10.670   0.804  10.606
42690W        W15115  41.821  30.001  11.047
42691W        W15116  36.987  13.132   0.364
42692W        W15117  35.359  19.554   2.295
42693W        W15118  19.087   5.745  14.385
42694W        W15119   8.862  31.561  13.920
42695W        W15120  33.466   5.260   0.306
42696W        W15121   8.359  32.475   3.641
42697W        W15122  32.043  19.734  10.984
42698W        W15123  36.478  34.476  12.994
42699W        W15124  41.970  22.247  12.442
42700W        W15125  16.578  39.393   1.345
42701W        W15126   7.304  11.749   2.197
42702W        W15127  42.978  24.201  14.870
42703W        W15128  35.556  24.603  10.050
42704W        W15129  39.913  29.040   0.348
42705W        W15130  25.479  11.294   3.813
42706W        W15131  32.554  23.510  12.032
42707W        W15132  28.603  12.348   2.840
42708W        W15133  43.995  16.258  11.903
42709W        W15134  34.421   0.477  11.860
42710W        W15135  19.203  19.659  12.975
42711W        W15136  36.889  42.526   0.379
42712W        W15137   3.237   1.458   4.130
42713W        W15138  10.643  12.205  11.454
42714W        W15139   5.793  38.886   0.789
42715W        W15140   0.931  26.965  14.416
42716W        W15141  16.812  25.552  14.910
42717W        W15142  29.653   5.394   0.476
42718W        W15143  22.136   6.274   2.238
42719W        W15144  24.193  41.328  11.504
42720W        W15145  15.626   6.726  13.409
42721W        W15146  26.469   6.684  10.966
42722W        W15147  23.128   2.237  12.985
42723W        W15148   3.374  30.545  10.577
42724W        W15149  40.369  26.041   4.158
42725W        W15150  35.419  15.723   3.707
42726W        W15151  27.634  29.610   1.875
42727W        W15152   7.675  25.210  11.559
42728W        W15153   5.925  32.081   3.820
42729W        W15154  42.345  29.558  13.949
42730W        W15155   3.392  14.604   4.288
42731W        W15156  24.615  19.715  10.955
42732W        W15157  15.167  33.098  11.444
42733W        W15158  28.457  42.361   4.678
42734W        W15159  11.273  32.900   0.878
42735W        W15160  21.543  36.086  10.616
42736W        W15161  29.049  20.127   3.672
42737W        W15162  34.431  25.194  10.980
42738W        W15163   7.346  19.083  11.416
42739W        W15164  15.138   3.760  10.431
42740W        W15165   6.220  10.259  13.520
42741W        W15166  40.547  11.864  12.068
42742W        W15167   9.220  33.976   2.888
42743W        W15168  12.636  25.641  12.898
42744W        W15169  34.098  36.034   2.392
42745W        W15170  16.251  36.844  13.793
42746W        W15171  41.364  43.972   0.394
42747W        W15172   3.924  36.872  13.020
42748W        W15173  11.715  30.129   2.347
42749W        W15174  28.101  31.142  11.936
42750W        W15175  38.474  38.011   3.179
42751W        W15176   3.224   2.235   1.276
42752W        W15177  10.147  13.151  10.628
42753W        W15178  28.659  16.760   3.285
42754W        W15179  18.678   0.294   0.730
42755W        W15180  42.821  31.523   3.653
42756W        W15181  29.668   3.316   2.887
42757W        W15182  31.896  27.481  11.554
42758W        W15183  31.575   2.404  10.478
42759W        W15184  44.856  36.431  12.961
42760W        W15185  24.581  39.372  11.526
42761W        W15186  15.791  39.466   1.893
42762W        W15187  36.551   0.816  12.993
42763W        W15188  28.967  27.483   3.248
42764W        W15189  23.594  19.252  11.524
42765W        W15190   1.430  31.966  10.541
42766W        W15191  23.214  44.391   0.808
42767W        W15192  13.164  23.155  12.876
42768W        W15193  15.221  42.412   3.216
42769W        W15194   0.252  29.038  10.965
42770W        W15195   7.207  32.949  14.369
42771W        W15196  20.688  15.724  13.543
42772W        W15197  27.128  28.591   1.289
42773W        W15198  37.437  14.827   0.370
42774W        W15199  35.405  34.407   1.711
42775W        W15200   9.270  22.083  14.800
42776W        W15201  34.591  41.903   3.292
42777W        W15202   9.196  39.322   3.697
42778W        W15203  11.341  12.269   3.385
42779W        W15204  32.987  31.564   4.174
42780W        W15205  44.774  43.814  13.997
42781W        W15206  18.190  36.560   0.933
42782W        W15207  31.101  29.067   2.332
42783W        W15208  43.929  10.295   0.482
42784W        W15209   5.688  19.127  11.929
42785W        W15210   2.927   4.807   2.407
42786W        W15211  29.079  21.082   1.381
42787W        W15212   4.716  11.703  14.819
42788W        W15213  43.783  33.880  11.894
42789W        W15214  26.112   2.847   2.192
42790W        W15215  29.036   1.459  13.936
42791W        W15216  11.664   0.260  10.417
42792W        W15217   5.772  12.124  10.488
42793W        W15218  14.701  20.223  12.547
42794W        W15219  34.390  33.906   1.820
42795W        W15220  25.558  38.065  12.867
42796W        W15221   7.262  35.373   2.738
42797W        W15222   8.369  32.095   3.351
42798W        W15223  29.594  25.686  12.388
42799W        W15224  19.709  16.165  10.906
42800W        W15225   5.891  14.806   3.798
42801W        W15226  39.047  21.023   3.747
42802W        W15227   5.931  40.876  13.793
42803W        W15228  12.788  19.598  11.889
42804W        W15229   6.696  34.989  13.024
42805W        W15230  25.015  32.623  10.498
42806W        W15231  29.635  38.995  14.972
42807W        W15232  11.239   4.334   2.736
42808W        W15233  33.097  12.131   0.834
42809W        W15234  31.009  11.812   2.382
42810W        W15235  22.694  28.034  12.005
42811W        W15236  31.451  23.615  11.928
42812W        W15237  28.628  35.006  11.424
42813W        W15238   4.297  36.959   4.699
42814W        W15239  25.038  21.670   3.750
42815W        W15240  19.696   8.837  10.529
42816W        W15241  11.739  18.599   0.762
42817W        W15242  42.403  44.777  13.406
42818W        W15243   3.926  32.032  13.833
42819W        W15244  10.182  29.040   2.824
42820W        W15245  24.599  41.810  11.588
42821W        W15246   1.368   6.681  13.541
42822W        W15247  34.529  25.652  10.410
42823W        W15248  16.140  28.678  14.882
42824W        W15249   4.327  32.922  14.495
42825W        W15250   8.240   5.415  12.038
42826W        W15251  19.545  12.351  11.102
42827W        W15252  15.141  29.971   4.131
42828W        W15253   0.462  32.013  10.619
42829W        W15254  18.583  12.336   2.232
42830W        W15255  15.300  19.606   1.256
42831W        W15256  30.497  10.246   0.837
42832W        W15257   3.413  28.574  12.452
42833W        W15258  30.994  41.354  14.277
42834W        W15259  19.720  43.916   3.648
42835W        W15260  13.219  11.292  12.977
42836W        W15261  15.633  11.622   0.474
42837W        W15262  27.120   1.825   3.717
42838W        W15263  14.619   9.798   3.360
42839W        W15264  13.657  15.725  10.916
42840W        W15265  42.023   7.234   4.261
42841W        W15266   9.695  11.690   4.820
42842W        W15267  37.948  20.537   3.205
42843W        W15268  30.931   9.779   1.710
42844W        W15269  42.341   4.757   1.824
42845W        W15270  35.588  21.196   0.912
42846W        W15271  31.025  33.058  11.514
42847W        W15272  29.985  37.576  12.485
42848W        W15273  13.625  38.922   2.818
42849W        W15274  43.900  43.919   3.665
42850W        W15275  32.519  34.479  13.051
42851W        W15276  16.182  21.563  10.598
42852W        W15277   0.461  36.998  10.523
42853W        W15278   3.741  32.136   3.753
42854W        W15279  19.605  30.534   2.246
42855W        W15280  20.768  40.424   2.903
42856W        W15281  11.760   6.807  13.917
42857W        W15282   5.812  23.726  12.026
42858W        W15283  14.162  29.007  14.423
42859W        W15284  29.027  39.893  12.383
42860W        W15285  25.179  16.776  13.423
42861W        W15286  24.073  14.597   4.792
42862W        W15287  24.586  18.566  10.414
42863W        W15288  25.032  17.208   1.272
42864W        W15289  44.348  16.692   2.851
42865W        W15290  39.033  42.004  10.467
42866W        W15291  23.108  25.714   0.244
42867W        W15292  12.832  33.446   2.845
42868W        W15293   3.448  33.393   1.911
42869W        W15294  29.036   5.859  12.513
42870W        W15295  30.979   3.457  12.432
42871W        W15296  32.979   1.883   1.364
42872W        W15297  36.472  42.972  10.998
42873W        W15298   7.775  17.273   1.705
42874W        W15299  15.797  25.049  10.016
42875W        W15300   4.270  14.799   1.278
42876W        W15301  15.209  42.875   0.876
42877W        W15302  29.146  27.968   2.312
42878W        W15303  31.521  39.486   2.758
42879W        W15304   6.370  38.539   3.340
42880W        W15305  13.217  26.526   1.364
42881W        W15306  23.602  10.726   2.864
42882W        W15307  40.985  39.513  12.560
42883W        W15308   7.744  42.311   2.407
42884W        W15309  16.135  19.596   0.437
42885W        W15310  21.073  18.147  10.509
42886W        W15311   7.861  31.954  10.619
42887W        W15312  10.169  36.913   1.371
42888W        W15313   3.760  12.762   1.854
42889W        W15314  44.475  12.698   2.791
42890W        W15315  14.659  41.354  12.408
42891W        W15316  26.119  23.711   1.834
42892W        W15317   5.246  37.362  14.854
42893W        W15318  29.053  32.107   0.941
42894W        W15319  36.574  16.229   1.412
42895W        W15320  26.063  38.827  14.999
42896W        W15321   6.744  16.118  11.073
42897W        W15322   6.753  32.067   2.273
42898W        W15323  25.516   3.244   1.252
42899W        W15324  29.160  30.656   0.259
42900W        W15325  22.725   8.685   3.830
42901W        W15326  41.994  14.770   0.279
42902W        W15327  34.597  25.135  14.946
42903W        W15328   6.800   3.428   1.699
42904W        W15329  42.495  37.845  14.283
42905W        W15330  26.201   9.324   2.291
42906W        W15331  13.769  30.949   3.254
42907W        W15332  14.708  43.835  13.021
42908W        W15333  14.631  32.103  13.985
42909W        W15334  11.277  34.983  13.804
42910W        W15335  14.789  37.437   4.274
42911W        W15336  18.751   0.770  10.599
42912W        W15337  44.298  29.606   3.173
42913W        W15338   1.951  33.564   2.840
42914W        W15339  30.985  19.209   1.706
42915W        W15340   6.200  24.695   3.281
42916W        W15341   5.855  27.527   3.215
42917W        W15342   3.825  34.091   4.706
42918W        W15343  23.662  41.449   1.243
42919W        W15344  33.415  10.225   3.373
42920W        W15345  43.833  32.890   2.283
42921W        W15346  40.305   8.780  14.328
42922W        W15347  26.667  18.087   2.702
42923W        W15348  30.493  43.939   2.786
42924W        W15349   5.806  13.638   0.393
42925W        W15350  44.328   2.941   5.148
42926W        W15351  41.372   9.247   5.299
42927W        W15352   6.825  41.860   1.350
42928W        W15353  11.792  27.629   0.916
42929W        W15354  12.642   2.436   1.347
42930W        W15355  28.656  11.133   0.741
42931W        W15356  42.901   5.694  14.856
42932W        W15357   1.902   7.251   0.863
42933W        W15358  29.114  34.483  13.321
42934W        W15359  16.644  19.630  13.902
42935W        W15360  27.454  34.600   3.810
42936W        W15361   3.250  36.953  12.856
42937W        W15362   0.893  16.093  14.942
42938W        W15363  29.505  17.682  13.447
42939W        W15364  12.286   6.734  14.784
42940W        W15365  23.537  24.609  12.896
42941W        W15366  14.673  15.121  13.832
42942W        W15367  19.137  29.927   3.331
42943W        W15368  40.483  37.074  14.956
42944W        W15369  35.479  10.788  10.639
42945W        W15370  33.424  35.369   2.824
42946W        W15371   1.424  44.846   2.235
42947W        W15372   7.277   9.783   1.211
42948W        W15373  29.167  17.770   2.199
42949W        W15374  22.021  25.537   2.865
42950W        W15375  16.714   6.706  11.557
42951W        W15376  34.891  13.805  11.604
42952W        W15377  16.104  39.026  11.014
42953W        W15378  24.539  28.674  10.411
42954W        W15379   0.932  41.922   2.839
42955W        W15380   7.339  23.009   4.640
42956W        W15381  13.188  26.469   5.243
42957W        W15382  20.167   4.914  11.582
42958W        W15383   7.883  11.762   2.746
42959W        W15384  10.158  19.727  11.532
42960W        W15385  28.938   5.383   1.715
42961W        W15386  27.173   1.963  12.983
42962W        W15387  28.070   2.905   1.835
42963W        W15388  12.772  19.188   4.258
42964W        W15389  23.712  43.020  12.517
42965W        W15390  41.485  16.188  13.964
42966W        W15391  43.462  13.113   0.333
42967W        W15392  27.074  27.477  13.827
42968W        W15393  17.723  34.039  12.958
42969W        W15394  36.489  26.065  12.003
42970W        W15395  35.058  28.135  11.030
42971W        W15396   6.712  11.833  11.025
42972W        W15397  18.640  13.752   4.290
42973W        W15398  17.122  16.611  11.377
42974W        W15399   6.881  13.623   4.231
42975W        W15400  25.008  21.238   5.319
42976W        W15401  38.886  41.530   2.336
42977W        W15402   1.395  42.884   2.218
42978W        W15403  10.233  34.000  13.808
42979W        W15404   5.858  13.705  13.327
42980W        W15405  13.696   5.895   3.366
42981W        W15406  29.170  31.613  13.819
42982W        W15407   0.950  38.367  10.995
42983W        W15408   8.708  26.549  12.448
42984W        W15409  41.925  19.537  10.959
42985W        W15410  25.559  39.468   2.893
42986W        W15411   3.310  22.168   2.786
42987W        W15412   8.832  19.078   1.770
42988W        W15413  41.846  28.641   0.418
42989W        W15414  43.323  25.086  11.023
42990W        W15415   2.267  27.624  13.906
42991W        W15416  17.582  14.649  14.474
42992W        W15417  23.494  35.890  11.468
42993W        W15418  30.912  24.529  10.916
42994W        W15419  33.923  21.110  10.091
42995W        W15420  44.907  41.488   2.806
42996W        W15421  10.757  15.177  13.993
42997W        W15422  18.691  12.772  12.510
42998W        W15423  36.349  27.196   2.725
42999W        W15424  21.569  25.148  13.800
43000W        W15425  37.404  12.258  10.947
43001W        W15426   8.227  11.718   4.698
43002W        W15427   6.725  21.091   0.341
43003W        W15428  42.512  21.554   1.284
43004W        W15429  17.749  42.327   2.666
43005W        W15430  12.729  33.407   2.212
43006W        W15431  12.747  10.147  13.421
43007W        W15432  12.212  24.480   1.770
43008W        W15433  27.121  19.742   4.164
43009W        W15434  38.040  11.651  12.964
43010W        W15435  29.554  25.037  12.540
43011W        W15436  33.459  39.409  11.889
43012W        W15437   6.795  21.201  10.894
43013W        W15438  10.351   2.387   2.230
43014W        W15439  30.615  33.598  10.602
43015W        W15440   2.788  30.508  10.437
43016W        W15441  20.224  31.517  12.062
43017W        W15442  31.008  34.898   1.849
43018W        W15443   1.902   3.426  13.452
43019W        W15444  43.479  15.227   4.279
43020W        W15445   3.824   8.762   1.897
43021W        W15446  25.574  29.583  10.925
43022W        W15447  44.303  18.552   4.821
43023W        W15448  30.055  31.926   4.780
43024W        W15449  27.133   9.195   3.331
43025W        W15450   4.423  18.610  13.310
43026W        W15451   0.364   3.439  13.423
43027W        W15452  16.077   3.750  13.894
43028W        W15453  40.867  42.327  12.918
43029W        W15454  23.006  29.123  14.379
43030W        W15455  26.527  11.718  12.921
43031W        W15456  26.056  31.050   0.937
43032W        W15457  34.921   7.282  10.490
43033W        W15458  38.015  34.892   4.173
43034W        W15459  28.552  11.334  14.516
43035W        W15460  13.278  44.841   4.162
43036W        W15461  15.683  26.118   0.905
43037W        W15462  44.830   0.946   2.329
43038W        W15463  31.904   2.890  14.843
43039W        W15464   4.767   2.457   4.715
43040W        W15465  34.446  28.101   2.892
43041W        W15466   7.903  36.875  11.378
43042W        W15467  44.826  30.576   1.785
43043W        W15468  35.561  24.207   4.709
43044W        W15469  42.523  31.109   4.827
43045W        W15470  39.368   3.256   2.368
43046W        W15471  38.420  10.662   2.813
43047W        W15472  30.506  18.577   4.242
43048W        W15473  18.204  37.377   2.281
43049W        W15474   4.747  29.529  10.948
43050W        W15475  25.076  26.200  13.349
43051W        W15476  40.045  11.129  10.932
43052W        W15477   4.745  10.321  14.952
43053W        W15478  16.601   8.700   1.745
43054W        W15479   4.899  25.103   4.235
43055W        W15480   8.769  11.662   1.258
43056W        W15481   1.378  22.188  11.117
43057W        W15482   3.793  33.420   0.243
43058W        W15483  28.168  25.545  11.533
43059W        W15484  11.362  37.038  13.423
43060W        W15485  26.539  27.585  11.954
43061W        W15486  38.336   7.726  11.860
43062W        W15487  13.275  41.878   1.804
43063W        W15488  19.224   3.837   0.814
43064W        W15489   5.802  12.705  10.581
43065W        W15490   7.720  35.602  11.941
43066W        W15491  15.784  35.357   3.753
43067W        W15492  24.208  31.122  11.961
43068W        W15493  33.884  32.427   4.289
43069W        W15494  12.260  22.092   4.123
43070W        W15495  20.183  24.214  10.601
43071W        W15496  36.519  22.056  11.063
43072W        W15497  12.347  29.977   3.340
43073W        W15498  34.417  16.732  13.542
43074W        W15499  42.867   8.291  12.424
43075W        W15500  25.089  19.076  12.979
43076W        W15501  26.513  42.386  11.541
43077W        W15502  31.475  12.615  11.383
43078W        W15503  40.014  43.791   3.161
43079W        W15504  28.164  25.665   0.427
43080W        W15505  30.594   6.687  13.395
43081W        W15506   9.792   7.753  10.922
43082W        W15507  13.828  39.372  12.850
43083W        W15508  21.070  43.866   2.803
43084W        W15509   6.278  41.828   2.179
43085W        W15510  21.067  31.550  10.986
43086W        W15511  40.835  14.613   4.182
43087W        W15512  17.692  41.796  11.933
43088W        W15513  43.492  17.798   3.200
43089W        W15514  38.931  24.697   0.267
43090W        W15515  14.790  33.018  14.296
43091W        W15516   6.310   8.160  13.897
43092W        W15517   8.862  20.713  14.490
43093W        W15518  41.839  11.797   3.747
43094W        W15519  38.830  36.966   0.334
43095W        W15520   0.304  22.122   0.781
43096W        W15521  14.646  12.201   4.786
43097W        W15522  34.920  26.668  13.348
43098W        W15523  23.728  14.301  13.411
43099W        W15524  34.436  33.100  12.492
43100W        W15525  41.421  20.524   2.879
43101W        W15526  44.799  40.371  12.372
43102W        W15527   5.428   6.426  14.431
43103W        W15528  14.621  16.656   4.292
43104W        W15529   3.216  36.967  11.125
43105W        W15530  24.531  25.166   2.343
43106W        W15531   6.845  12.845  12.516
43107W        W15532  15.254  43.860  14.898
43108W        W15533  33.972  18.625   9.967
43109W        W15534  24.685  33.606  10.617
43110W        W15535   9.191  31.980  14.834
43111W        W15536  17.731  10.770  13.976
43112W        W15537  14.123   7.397  11.553
43113W        W15538   7.378  35.104   2.238
43114W        W15539  29.464  18.058  10.079
43115W        W15540   7.402  43.901  12.514
43116W        W15541  27.987   8.250  14.774
43117W        W15542  13.269  24.016   3.343
43118W        W15543  15.133  33.525   4.631
43119W        W15544  15.205  39.883   3.824
43120W        W15545  36.522  14.608   1.698
43121W        W15546  13.831  44.300   0.944
43122W        W15547  27.530   3.826  11.991
43123W        W15548  42.886  44.328  13.371
43124W        W15549  22.048  15.701   3.652
43125W        W15550  28.453  36.496   4.353
43126W        W15551  31.451  23.193  14.448
43127W        W15552  29.654  23.012  11.450
43128W        W15553  33.956  42.822  14.370
43129W        W15554  35.517  36.372   3.368
43130W        W15555   0.784  16.107   1.817
43131W        W15556  12.661   9.266   1.293
43132W        W15557  26.184   5.892   2.215
43133W        W15558  40.827  36.999   0.370
43134W        W15559  43.500  11.281   3.705
43135W        W15560   2.749  10.702   1.895
43136W        W15561  34.517  41.504  12.528
43137W        W15562  28.618  43.279  12.963
43138W        W15563  14.335  26.012  12.073
43139W        W15564   5.748   9.725   3.755
43140W        W15565   3.280  34.922   3.167
43141W        W15566  38.056  43.796   3.687
43142W        W15567  11.737  37.909  13.923
43143W        W15568  18.731   1.467   3.725
43144W        W15569  23.060  16.198   3.860
43145W        W15570  34.873   0.975  10.946
43146W        W15571  34.104   4.339  14.443
43147W        W15572  29.446   0.751   1.713
43148W        W15573  16.296  41.537   0.954
43149W        W15574  12.268  24.619   3.315
43150W        W15575   2.812  31.920   9.998
43151W        W15576  26.144  43.916   1.935
43152W        W15577  28.051  43.995  14.972
43153W        W15578  29.643  27.537   4.261
43154W        W15579  30.498  24.635  13.994
43155W        W15580   8.754  36.486  13.905
43156W        W15581  28.546  22.593   3.372
43157W        W15582   5.767   2.836  12.907
43158W        W15583  20.249   1.404  12.521
43159W        W15584  18.629  27.074   0.343
43160W        W15585  33.596  33.079   2.242
43161W        W15586  12.742   6.696  10.547
43162W        W15587   0.270  18.208  14.352
43163W        W15588  35.997  26.571   2.347
43164W        W15589  27.068   3.878   2.773
43165W        W15590  36.541   8.231  11.532
43166W        W15591   4.758  36.891   1.697
43167W        W15592  17.279  11.314  10.597
43168W        W15593  43.469  10.731  14.792
43169W        W15594  41.800  13.655  13.899
43170W        W15595  33.918  41.306   3.264
43171W        W15596   7.839  35.411  10.073
43172W        W15597  24.186  40.016  13.969
43173W        W15598  40.319  12.306   1.770
43174W        W15599  36.359  27.103   3.165
43175W        W15600  29.995  38.931  14.281
43176W        W15601  23.500  41.502  11.937
43177W        W15602  32.132  32.544   2.373
43178W        W15603  22.080   7.760  10.977
43179W        W15604   2.839  39.511   4.240
43180W        W15605  27.555  16.092   1.349
43181W        W15606  36.541  42.883   4.674
43182W        W15607  34.488  29.942   3.286
43183W        W15608  41.505  17.066  11.868
43184W        W15609   9.355  14.219  12.946
43185W        W15610  37.979  13.330  13.468
43186W        W15611  34.036  23.221   1.846
43187W        W15612   4.338  33.945   3.299
43188W        W15613  31.896  43.832  11.103
43189W        W15614   6.224  43.833  10.898
43190W        W15615   6.893  21.092  11.943
43191W        W15616  38.570  26.968  10.893
43192W        W15617  35.927  40.920  11.547
43193W        W15618  20.596   3.422  10.154
43194W        W15619   8.880  26.992  11.457
43195W        W15620  19.636  31.526   0.459
43196W        W15621  32.633  29.593  11.590
43197W        W15622  42.807  29.095   1.407
43198W        W15623  27.157  36.407  10.630
43199W        W15624   9.847  36.006  11.003
43200W        W15625  17.624   2.922  11.596
43201W        W15626   9.330  12.796  10.500
43202W        W15627  33.449  17.763  10.413
43203W        W15628  42.527  30.604   1.732
43204W        W15629  44.776  42.350  12.436
43205W        W15630  37.889  34.548  14.415
43206W        W15631   7.274   8.898   0.741
43207W        W15632  10.718  17.132  12.053
43208W        W15633   6.334   6.796   1.827
43209W        W15634  38.957  40.346   5.097
43210W        W15635   0.878   8.871   4.806
43211W        W15636  11.824  37.939   2.299
43212W        W15637   8.298  28.165   1.908
43213W        W15638  33.558  44.307   1.800
43214W        W15639  20.582  43.877  11.571
43215W        W15640  14.610  10.660   0.778
43216W        W15641  28.047  37.369   1.226
43217W        W15642  17.762  21.754   3.328
43218W        W15643  32.001  34.597   2.763
43219W        W15644  42.413  19.569   3.732
43220W        W15645  31.916  42.971  10.101
43221W        W15646  22.723  44.505  13.999
43222W        W15647   7.869  37.918   1.878
43223W        W15648   4.866   6.391  12.034
43224W        W15649  14.648  13.288  11.429
43225W        W15650  26.563   0.934  14.349
43226W        W15651  39.930   2.263  14.778
43227W        W15652  19.246  43.911  14.395
43228W        W15653  43.975  37.903   3.654
43229W        W15654   9.170  37.433   2.695
43230W        W15655  13.606  11.787   2.236
43231W        W15656  34.897  15.779  12.948
43232W        W15657   9.700  10.836  13.810
43233W        W15658   1.345  41.038  12.064
43234W        W15659  43.504  21.735   3.293
43235W        W15660  26.661  19.617  12.828
43236W        W15661   3.711  27.543  12.408
43237W        W15662  32.393  26.487   4.619
43238W        W15663   4.302  35.083  12.823
43239W        W15664  29.107  40.914  10.599
43240W        W15665   3.411  18.590  13.991
43241W        W15666  22.101   7.807  11.895
43242W        W15667  19.681  25.496   2.730
43243W        W15668  37.955   1.255   3.808
43244W        W15669  15.691  18.661   2.327
43245W        W15670  44.999   1.842  12.066
43246W        W15671  34.408  25.119   2.873
43247W        W15672  19.566   3.274  11.457
43248W        W15673  43.001  39.950  14.315
43249W        W15674  22.629  21.518   1.778
43250W        W15675  12.222  37.544   4.816
43251W        W15676  14.692  27.632  13.002
43252W        W15677  41.394  15.137  12.534
43253W        W15678  35.569  44.807   4.724
43254W        W15679  11.660   8.693   3.685
43255W        W15680   6.393   9.809   3.830
43256W        W15681   6.374  26.662  14.333
43257W        W15682  40.877  14.723   3.160
43258W        W15683  25.598  38.448  11.416
43259W        W15684   3.446  11.646   1.707
43260W        W15685  40.963  10.143   4.646
43261W        W15686  23.077   1.936  12.934
43262W        W15687  37.881   9.818   1.358
43263W        W15688  13.619  38.895  13.037
43264W        W15689  43.991  32.068   0.750
43265W        W15690  14.152  43.391   2.666
43266W        W15691  13.184  36.086   0.757
43267W        W15692  40.955  25.994   1.883
43268W        W15693   0.842  34.369   4.161
43269W        W15694  39.820  23.225  10.596
43270W        W15695  13.843  25.099  13.337
43271W        W15696  42.297  28.569   3.169
43272W        W15697   1.437  10.818   3.642
43273W        W15698   7.200  12.140   0.956
43274W        W15699  32.605  44.800  13.334
43275W        W15700   3.261  18.284  11.477
43276W        W15701  31.603  13.739   2.391
43277W        W15702  41.973  21.722   1.393
43278W        W15703  13.221   9.688   1.325
43279W        W15704  25.538   3.951  13.038
43280W        W15705  22.609  36.925  11.938
43281W        W15706  43.834   0.765   2.357
43282W        W15707  43.354  32.621   0.482
43283W        W15708  38.027   1.391  14.887
43284W        W15709  11.162  40.990   0.787
43285W        W15710  28.611  36.374  10.932
43286W        W15711  35.569  29.933  11.081
43287W        W15712  36.505  26.613   3.223
43288W        W15713  33.588  32.944  10.576
43289W        W15714  28.102  24.597   2.734
43290W        W15715  11.229  14.118   0.406
43291W        W15716   0.969  34.947  10.073
43292W        W15717  38.540  21.638   1.710
43293W        W15718  28.625   2.379   4.267
43294W        W15719  15.596   9.821  13.335
43295W        W15720  29.617  10.786   1.425
43296W        W15721  11.855  41.855   2.876
43297W        W15722  42.406  25.137  11.936
43298W        W15723  35.441  24.161  14.415
43299W        W15724  41.925  41.532  10.637
43300W        W15725  24.158  43.802   4.328
43301W        W15726  40.843   7.311  14.440
43302W        W15727  44.987  28.614   3.736
43303W        W15728   8.319  29.168   2.720
43304W        W15729   1.775   2.895   0.887
43305W        W15730  13.785   4.223   3.359
43306W        W15731   1.264   6.264  12.462
43307W        W15732   6.414  12.611   1.393
43308W        W15733  16.146   3.794  11.555
43309W        W15734  19.733   1.304  12.896
43310W        W15735  10.301  21.690   4.830
43311W        W15736  11.209  26.066   4.252
43312W        W15737  36.440  27.086  11.947
43313W        W15738  22.175  10.640  12.077
43314W        W15739  21.036  21.198  11.957
43315W        W15740   4.412  44.758   2.730
43316W        W15741   1.376  18.561  13.795
43317W        W15742  29.520   8.182  11.406
43318W        W15743   8.401  26.609   4.713
43319W        W15744  34.988  14.315   9.973
43320W        W15745  16.802  12.756   1.397
43321W        W15746  16.142   5.208   2.193
43322W        W15747  42.343  10.864  12.877
43323W        W15748  39.556  38.930   4.303
43324W        W15749   6.700  31.103   2.790
43325W        W15750  17.187  29.050   4.792
43326W        W15751  11.152  14.717   4.770
43327W        W15752  21.050  41.503   3.206
43328W        W15753  12.770   7.884  11.018
43329W        W15754  31.452  40.911  13.056
43330W        W15755   8.333  10.758   1.885
43331W        W15756  24.576  30.446   1.233
43332W        W15757  29.610  10.774   4.725
43333W        W15758  44.831  44.877   2.696
43334W        W15759   9.654  10.789   3.227
43335W        W15760  21.056  36.464   5.213
43336W        W15761   1.872  12.713  12.900
43337W        W15762   9.297  29.574  14.362
43338W        W15763  36.449  28.518  12.892
43339W        W15764  28.578  10.232  11.426
43340W        W15765  14.178  42.976  12.519
43341W        W15766  17.647   8.331  13.023
43342W        W15767  36.917  26.179   9.449
43343W        W15768  42.948  25.500  11.576
43344W        W15769  24.488  10.745  11.948
43345W        W15770   3.253  37.085   1.853
43346W        W15771  17.622  23.233   4.288
43347W        W15772  23.986  18.677   4.638
43348W        W15773   6.415  23.493   3.756
43349W        W15774  39.358  33.922   0.431
43350W        W15775  31.958  13.146  14.970
43351W        W15776  31.152  42.959  10.145
43352W        W15777  38.013  11.846   0.813
43353W        W15778  21.678  21.179  14.937
43354W        W15779  25.064  23.644   1.778
43355W        W15780  21.029  33.957  14.459
43356W        W15781   9.164  37.345  11.985
43357W        W15782  21.127  38.023   4.658
43358W        W15783  17.655   1.898  11.542
43359W        W15784  28.635   1.925  10.534
43360W        W15785  44.780  37.537  13.915
43361W        W15786   7.818   2.844  11.932
43362W        W15787  29.543  13.774  14.278
43363W        W15788  39.394  30.515  10.518
43364W        W15789   2.384  35.577   3.187
43365W        W15790  14.791  19.068  12.956
43366W        W15791  34.891  27.677   0.279
43367W        W15792   0.969  34.029  14.846
43368W        W15793  44.455  32.103  11.499
43369W        W15794  30.562  36.537  12.078
43370W        W15795  30.651   1.869   0.392
43371W        W15796  16.294   6.798   1.807
43372W        W15797  15.188  22.523  14.920
43373W        W15798  39.325   5.348  14.848
43374W        W15799  34.891  36.097  11.901
43375W        W15800  19.113  13.235   0.891
43376W        W15801  31.968  10.221   4.335
43377W        W15802  31.919  35.495  13.520
43378W        W15803   2.781  37.922  12.883
43379W        W15804  35.591  16.122  13.815
43380W        W15805  41.915  27.599  12.935
43381W        W15806  34.875   0.824   4.261
43382W        W15807   3.834  20.108  11.859
43383W        W15808  15.772  19.155   1.895
43384W        W15809  22.640   3.216  10.487
43385W        W15810  36.059  15.253   1.260
43386W        W15811  27.523   2.379  10.426
43387W        W15812  24.216  32.134   1.295
43388W        W15813  40.510   6.819   2.709
43389W        W15814  17.687   5.427  12.008
43390W        W15815  39.046  14.096   1.869
43391W        W15816  43.827  33.388   1.243
43392W        W15817  36.975  30.422   4.766
43393W        W15818  11.218  23.072   1.334
43394W        W15819  43.403   3.921   1.813
43395W        W15820  32.579  27.630   4.607
43396W        W15821  20.724   5.890   3.248
43397W        W15822  27.645  27.150   1.293
43398W        W15823   4.877   1.441  12.376
43399W        W15824  21.633  38.400  12.991
43400W        W15825   0.483  42.835  11.945
43401W        W15826  26.192  13.208   2.349
43402W        W15827  39.822   2.938   2.326
43403W        W15828  22.095  12.755  11.596
43404W        W15829  30.644  22.728   3.196
43405W        W15830   0.753  29.993  14.430
43406W        W15831   0.466  31.488  13.520
43407W        W15832  19.167   1.468  12.914
43408W        W15833  11.161   5.735   1.709
43409W        W15834  31.992  41.482   3.657
43410W        W15835  31.109  14.826  11.120
43411W        W15836  10.208  14.592   0.389
43412W        W15837  26.586   6.859   2.180
43413W        W15838  43.473  32.563  12.976
43414W        W15839  32.400  30.583  13.449
43415W        W15840  27.662   1.242  11.907
43416W        W15841  16.580  11.326   2.755
43417W        W15842  11.710  36.445   4.780
43418W        W15843  43.855  32.523   1.231
43419W        W15844   0.323  40.359  13.951
43420W        W15845  32.450  26.508   9.965
43421W        W15846  11.739  28.680  11.943
43422W        W15847   2.334  28.166  10.887
43423W        W15848  34.988  35.056  14.769
43424W        W15849   3.790  38.401  14.366
43425W        W15850  21.635   7.312   0.289
43426W        W15851   4.706  26.071  13.316
43427W        W15852  33.024  18.675   1.340
43428W        W15853  34.565  42.010  12.844
43429W        W15854  35.018  44.971  10.438
43430W        W15855  16.795  29.956   0.817
43431W        W15856  29.018   4.882  10.972
43432W        W15857  14.255   4.243  14.809
43433W        W15858  20.167  16.309   4.749
43434W        W15859  44.273  25.141   0.342
43435W        W15860  21.755  29.102   1.890
43436W        W15861  40.917   1.805   0.923
43437W        W15862  17.159  17.252  10.980
43438W        W15863   6.234  16.638  14.814
43439W        W15864  38.916  30.965  14.961
43440W        W15865  31.505  38.447   1.889
43441W        W15866  14.662   7.417   1.873
43442W        W15867   0.961  38.364   4.622
43443W        W15868  32.464  27.627   3.327
43444W        W15869   6.689  39.915   2.201
43445W        W15870  32.465  44.795   1.308
43446W        W15871   5.806  14.303   4.740
43447W        W15872  33.380  42.522  10.004
43448W        W15873  39.935  29.092   4.776
43449W        W15874  29.432   0.848  12.921
43450W        W15875  32.009  16.204   0.896
43451W        W15876  37.563  12.241   3.315
43452W        W15877  20.753   8.675  12.544
43453W        W15878  36.850   4.369  11.425
43454W        W15879  40.825  29.568  14.761
43455W        W15880  26.470  25.536  12.541
43456W        W15881   5.256  26.022  13.048
43457W        W15882   5.404   5.333  10.984
43458W        W15883  21.137   1.364   4.348
43459W        W15884  44.915  41.526  10.579
43460W        W15885  43.848  17.137  13.945
43461W        W15886   5.830  28.457  11.545
43462W        W15887  26.205  16.651   3.185
43463W        W15888  23.614  38.890  10.904
43464W        W15889  32.427  31.982   1.351
43465W        W15890   4.832  35.970   2.772
43466W        W15891  10.689   9.730  14.424
43467W        W15892  39.347  37.405   0.419
43468W        W15893  30.414  18.274   4.209
43469W        W15894  10.244  23.597  12.349
43470W        W15895   4.210  19.144  11.494
43471W        W15896  16.698   2.872  12.880
43472W        W15897   5.347  29.564  11.001
43473W        W15898  40.012  24.641   0.871
43474W        W15899  30.957  21.635   0.421
43475W        W15900  10.222  27.166   3.248
43476W        W15901   3.236   7.361   0.958
43477W        W15902  11.818  17.139   0.864
43478W        W15903  42.308  23.177  14.405
43479W        W15904  15.675  34.414  11.942
43480W        W15905  16.303  12.141   4.646
43481W        W15906  26.683  15.689   1.410
43482W        W15907  33.534  33.614   0.262
43483W        W15908  39.850  42.973  11.898
43484W        W15909  39.008  33.001   3.691
43485W        W15910   6.854  19.584   2.333
43486W        W15911  32.111  20.713  14.289
43487W        W15912   6.859  18.628  13.333
43488W        W15913  15.729  25.011   3.162
43489W        W15914  43.451   3.921   2.198
43490W        W15915   1.909   3.860  14.804
43491W        W15916  34.056  16.139   2.260
43492W        W15917   0.806  39.388   1.935
43493W        W15918  13.752  28.580  14.335
43494W        W15919  25.054  44.398  11.593
43495W        W15920  26.680  26.039   0.476
43496W        W15921  16.195  31.022   5.578
43497W        W15922  36.427   0.851   0.477
43498W        W15923   9.795  43.509   1.434
43499W        W15924  13.723   0.815  13.466
43500W        W15925   2.959   1.290   2.871
43501W        W15926   6.242  12.156  10.576
43502W        W15927  10.349   8.224  14.927
43503W        W15928   4.813  12.332   9.922
43504W        W15929  26.095  42.354   0.881
43505W        W15930   6.816  17.658  11.026
43506W        W15931  39.551  26.553   3.263
43507W        W15932   7.264  30.515  14.399
43508W        W15933  30.426  27.052  11.977
43509W        W15934  16.666  37.410  13.813
43510W        W15935  25.577   5.360  13.009
43511W        W15936   3.460  30.132  14.862
43512W        W15937  11.373  37.867  10.901
43513W        W15938   4.248  17.556  13.020
43514W        W15939  42.008  24.578  11.412
43515W        W15940  10.355  27.004   1.852
43516W        W15941  44.497  26.493   3.340
43517W        W15942  13.210  31.453   4.338
43518W        W15943   8.198  43.868   1.776
43519W        W15944  39.882  34.501  14.966
43520W        W15945  27.587  15.628   4.604
43521W        W15946  26.520   7.366  11.508
43522W        W15947   2.263  39.872  11.542
43523W        W15948  32.912  15.603   2.749
43524W        W15949   8.747  21.588  14.869
43525W        W15950  10.358  43.384   1.218
43526W        W15951  41.410  33.394  13.968
43527W        W15952  37.045  12.295  14.283
43528W        W15953  19.632   7.234   1.763
43529W        W15954  13.338  31.969  11.974
43530W        W15955  25.975  35.074  14.945
43531W        W15956  16.226  33.944   1.379
43532W        W15957  22.018   9.216  14.299
43533W        W15958  30.486  12.234   0.747
43534W        W15959  15.822  11.175  14.330
43535W        W15960  10.303   2.776   3.233
43536W        W15961  38.057  18.291   3.285
43537W        W15962  41.324  40.450   2.693
43538W        W15963  12.239  40.537  13.948
43539W        W15964  29.475  33.907  14.339
43540W        W15965  38.397  33.455   1.838
43541W        W15966  32.582  36.848  11.495
43542W        W15967   2.325  19.593   0.915
43543W        W15968   2.890  12.218   2.305
43544W        W15969   6.350  28.494   0.371
43545W        W15970  35.923   2.351   2.402
43546W        W15971   8.860  31.519   4.678
43547W        W15972  40.540  15.222  14.028
43548W        W15973  16.316  29.481   2.664
43549W        W15974  12.740  26.976   3.372
43550W        W15975  34.104  37.925   1.342
43551W        W15976  40.809   5.326  10.449
43552W        W15977  19.270  30.609  12.403
43553W        W15978   3.737  32.048  14.278
43554W        W15979  24.228  33.025   1.250
43555W        W15980  24.192  36.486  11.530
43556W        W15981  13.312  43.361  12.984
43557W        W15982   2.801  41.867  14.791
43558W        W15983  13.115  24.595  11.530
43559W        W15984  18.184   2.451   2.890
43560W        W15985  31.530  28.489   2.303
43561W        W15986  39.974  43.915   0.763
43562W        W15987  26.976   2.957   3.856
43563W        W15988  12.667  44.762   1.377
43564W        W15989  40.804   1.965   1.918
43565W        W15990  38.463  40.462   2.748
43566W        W15991  38.433  41.929  13.451
43567W        W15992  25.010  30.149  11.387
43568W        W15993  32.888  12.615   1.731
43569W        W15994  37.925   1.390   3.257
43570W        W15995   0.344  26.207   4.180
43571W        W15996  32.970   0.784   0.952
43572W        W15997  30.599  31.103  11.908
43573W        W15998  38.527  41.320  11.093
43574W        W15999   1.448  39.370  14.801
43575W        W16000   6.259   6.812  11.414
43576W        W16001  35.594  26.972  12.545
43577W        W16002   5.925   4.923   0.321
43578W        W16003   8.862   1.892  14.919
43579W        W16004  19.738   7.346   3.246
43580W        W16005  11.689  19.270  14.978
43581W        W16006   4.891  17.657   2.763
43582W        W16007  17.661   8.692  10.907
43583W        W16008  14.268  41.491   0.806
43584W        W16009  17.707  28.657  12.412
43585W        W16010  44.505  29.926  14.822
43586W        W16011   7.314  29.103  10.510
43587W        W16012  20.552   7.325   4.340
43588W        W16013  11.268   5.864  13.996
43589W        W16014  35.013  11.794   0.813
43590W        W16015  10.873  37.422   2.865
43591W        W16016   0.775  32.436  11.447
43592W        W16017   0.425  13.212  14.843
43593W        W16018  33.476   3.367  10.924
43594W        W16019  10.806  29.018   1.405
43595W        W16020  21.644  39.372  12.984
43596W        W16021   9.871  38.498  12.412
43597W        W16022  12.330  14.112  10.970
43598W        W16023  10.635  27.116  10.922
43599W        W16024  25.010   5.292  14.813
43600W        W16025  32.622   1.287   0.820
43601W        W16026  22.503  16.213   2.267
43602W        W16027  32.539   4.420  14.439
43603W        W16028  41.947   6.920  12.426
43604W        W16029  38.888  34.582  12.420
43605W        W16030  32.007  13.812  10.539
43606W        W16031  32.021  29.165  10.020
43607W        W16032  10.759  43.823  11.536
43608W        W16033  22.548   9.363   4.251
43609W        W16034  28.631  37.846   2.333
43610W        W16035  16.662  38.891   4.687
43611W        W16036   7.713  33.071   0.392
43612W        W16037   0.939  22.695  11.896
43613W        W16038  15.757  10.343   0.826
43614W        W16039   9.332   1.271  13.940
43615W        W16040  19.780  27.020   3.206
43616W        W16041  21.043   6.852  10.436
43617W        W16042  30.063  12.823   2.803
43618W        W16043   5.688  21.560   2.220
43619W        W16044  36.527   0.307   2.677
43620W        W16045  39.847  32.551  14.312
43621W        W16046  16.214  22.044  11.898
43622W        W16047  25.052  10.814  10.533
43623W        W16048   7.275  28.030  13.317
43624W        W16049  44.921  11.248   4.734
43625W        W16050  29.922   6.837   4.164
43626W        W16051  43.845  26.010   2.207
43627W        W16052  22.580  12.655   0.358
43628W        W16053  25.643  10.687   1.307
43629W        W16054  29.032  44.003  11.544
43630W        W16055  41.397  26.001   2.291
43631W        W16056  44.483  34.455   3.756
43632W        W16057  41.499  27.052  12.480
43633W        W16058  13.603  31.043   2.280
43634W        W16059   3.754  14.656   3.278
43635W        W16060  13.815   7.718   4.331
43636W        W16061  30.646  25.171  13.808
43637W        W16062  40.821   4.349   2.254
43638W        W16063   4.826   8.886   4.216
43639W        W16064  31.062  27.460  12.042
43640W        W16065  40.347   2.261   3.248
43641W        W16066  20.036   6.347  13.876
43642W        W16067  38.332  15.644  10.475
43643W        W16068  28.037   1.817   4.175
43644W        W16069  19.213  25.174   3.206
43645W        W16070  44.439  16.214  13.036
43646W        W16071  13.631  41.527  11.063
43647W        W16072  20.182  28.098  14.793
43648W        W16073  16.634   0.846  13.829
43649W        W16074  33.958  22.590  13.010
43650W        W16075  20.544  31.434   5.287
43651W        W16076  28.066   2.259  14.815
43652W        W16077  29.008  40.331   2.234
43653W        W16078  11.686   9.364  11.415
43654W        W16079  37.397  28.062   4.114
43655W        W16080   8.393   2.464  12.570
43656W        W16081  29.642   4.918  14.904
43657W        W16082   8.280  11.356  14.378
43658W        W16083  27.124  31.452   4.212
43659W        W16084  14.685   4.272  14.807
43660W        W16085  25.628  32.510   3.158
43661W        W16086  40.976  23.527   0.415
43662W        W16087  23.987  39.383   4.319
43663W        W16088  14.744  12.289  11.477
43664W        W16089  40.883  37.581   2.358
43665W        W16090   9.338   1.460   4.188
43666W        W16091   5.433  28.529  11.064
43667W        W16092   5.357   8.859   0.945
43668W        W16093  32.136  10.235  12.968
43669W        W16094   3.225  20.145  13.024
43670W        W16095   9.787  38.856   1.797
43671W        W16096  40.969  16.750   1.830
43672W        W16097  10.313  29.077  13.954
43673W        W16098  30.011  43.962   3.789
43674W        W16099  20.236   7.805   0.449
43675W        W16100  28.006  41.940   2.879
43676W        W16101  22.995  20.722   3.815
43677W        W16102   3.444   1.471  11.454
43678W        W16103   3.411  29.152  11.991
43679W        W16104  40.337   7.271  11.085
43680W        W16105   9.816  21.127   3.817
43681W        W16106  36.090  40.938  14.364
43682W        W16107  11.263   4.892  13.919
43683W        W16108  29.083  31.016  11.466
43684W        W16109   8.694   3.278   4.145
43685W        W16110   8.829   7.304  10.891
43686W        W16111  20.640   7.791  12.505
43687W        W16112   7.809  26.510  14.917
43688W        W16113  28.443  28.481  12.966
43689W        W16114  35.937  44.948  11.454
43690W        W16115   0.775   6.704   0.895
43691W        W16116   3.711  21.595   1.733
43692W        W16117  43.399   6.341   0.294
43693W        W16118  43.491  11.225  14.940
43694W        W16119  42.902  35.364   1.338
43695W        W16120  39.414  14.332  13.421
43696W        W16121  14.244  25.498   2.677
43697W        W16122  30.018   2.287   1.281
43698W        W16123  39.855   9.647   4.635
43699W        W16124  21.660  38.405  13.886
43700W        W16125  17.266  38.510   4.310
43701W        W16126  38.060  15.666  10.640
43702W        W16127  38.450  27.510  12.927
43703W        W16128  15.608  14.697  10.559
43704W        W16129  32.450   8.268  14.281
43705W        W16130   4.907   7.391  10.415
43706W        W16131  30.163  22.027   1.210
43707W        W16132   1.918  20.686  13.879
43708W        W16133   9.683  42.305  14.007
43709W        W16134   6.849  37.889   1.833
43710W        W16135  15.640  19.567  14.296
43711W        W16136  42.305  35.055   2.195
43712W        W16137  10.754  25.479   4.652
43713W        W16138  38.884  36.472   0.327
43714W        W16139   6.316  43.400  14.760
43715W        W16140  27.140  40.871   4.679
43716W        W16141  18.655  26.077  10.933
43717W        W16142  15.824  12.148   0.964
43718W        W16143  15.638   7.307  10.505
43719W        W16144  22.105  37.851  13.403
43720W        W16145   3.439  15.141   4.789
43721W        W16146  37.549   5.338  11.992
43722W        W16147  10.329  14.791   2.675
43723W        W16148   3.331  24.133   0.792
43724W        W16149  40.961   1.883  14.995
43725W        W16150  41.403  41.013   3.836
43726W        W16151  15.600  13.298   1.895
43727W        W16152  42.456  30.064  12.487
43728W        W16153  42.829  41.810  10.484
43729W        W16154   8.656  43.482  13.826
43730W        W16155   5.409  31.611   4.712
43731W        W16156  14.659  40.027   1.934
43732W        W16157  25.129  30.504  14.883
43733W        W16158   2.469  14.224  10.103
43734W        W16159  34.578  22.549   1.869
43735W        W16160  18.204  10.864   1.278
43736W        W16161   5.714   3.301   2.418
43737W        W16162  38.825  18.689   1.325
43738W        W16163  41.814  15.315  11.962
43739W        W16164   9.691  27.113   4.828
43740W        W16165   7.910   8.686   3.800
43741W        W16166  31.432  23.053  13.818
43742W        W16167  29.664  15.296   0.834
43743W        W16168  36.473  15.311   3.356
43744W        W16169   3.430   7.265   3.742
43745W        W16170  31.905  14.796   2.418
43746W        W16171  21.599   2.265   4.130
43747W        W16172  24.219  28.668   4.735
43748W        W16173  36.039   6.209  11.532
43749W        W16174  27.608   7.238  13.013
43750W        W16175  44.450   9.384  10.562
43751W        W16176  43.515  31.631  13.971
43752W        W16177  10.821  38.851   0.339
43753W        W16178  27.981  22.549  11.561
43754W        W16179   5.724  25.030  10.406
43755W        W16180  34.470  13.645  11.031
43756W        W16181  28.065   1.247  13.517
43757W        W16182  43.270  22.665  12.016
43758W        W16183  26.163   0.391   3.331
43759W        W16184   1.275  44.917   4.280
43760W        W16185   8.359  16.078   4.221
43761W        W16186  24.021  13.301  14.470
43762W        W16187  10.653  15.680   4.722
43763W        W16188  32.591  17.703  13.017
43764W        W16189  20.725  36.077   3.648
43765W        W16190  40.935  15.198  11.975
43766W        W16191   2.800  38.349  13.953
43767W        W16192   9.761  38.494   3.256
43768W        W16193  11.158   3.357  12.444
43769W        W16194  11.234  11.176  12.959
43770W        W16195  14.150  44.938  10.483
43771W        W16196  15.691  24.612   0.255
43772W        W16197  11.342   6.253  13.013
43773W        W16198  36.469  27.950  11.891
43774W        W16199  43.932  35.095  11.564
43775W        W16200  25.100  35.949  12.356
43776W        W16201  22.655   9.856  12.469
43777W        W16202   2.736  36.532   4.170
43778W        W16203   2.775   8.671  14.487
43779W        W16204  42.805  44.505   3.653
43780W        W16205  30.602   3.366   5.159
43781W        W16206   5.819  28.954   1.286
43782W        W16207   5.387  30.077   4.235
43783W        W16208  32.589   7.690  14.984
43784W        W16209  17.622  19.752  13.533
43785W        W16210  24.121  16.697  11.483
43786W        W16211  12.825  44.493   2.801
43787W        W16212   8.303   1.819   3.673
43788W        W16213  44.992   6.907  11.912
43789W        W16214   0.910   4.298   1.822
43790W        W16215  16.639  37.477   3.717
43791W        W16216  29.537  18.692  13.903
43792W        W16217  29.567  25.468  12.988
43793W        W16218  34.971  24.610   4.254
43794W        W16219  38.022  25.134  10.473
43795W        W16220  36.031  43.383  11.128
43796W        W16221  31.913  16.713   0.907
43797W        W16222  42.852  24.504   3.165
43798W        W16223  34.080  21.256   1.864
43799W        W16224  22.718   2.370   2.797
43800W        W16225   7.379  16.699  10.608
43801W        W16226   2.307  41.453  10.626
43802W        W16227  18.706   5.910   3.787
43803W        W16228  13.338  21.031  10.434
43804W        W16229  19.539  39.518  14.473
43805W        W16230   5.263   9.306  13.448
43806W        W16231  16.074  41.371  12.924
43807W        W16232  38.545  34.928  11.128
43808W        W16233  31.562  27.625   2.752
43809W        W16234   5.203   1.868  11.963
43810W        W16235  30.064   6.237  10.998
43811W        W16236  34.879  36.375   2.381
43812W        W16237  11.800  12.655   4.780
43813W        W16238   4.776  14.686   0.908
43814W        W16239  14.724   0.442  10.919
43815W        W16240   2.949  18.060   4.154
43816W        W16241  19.683   9.347  13.857
43817W        W16242  24.071  30.154   2.328
43818W        W16243   5.391  17.589  11.034
43819W        W16244  44.854  27.580  11.521
43820W        W16245  15.764   6.284  11.126
43821W        W16246   8.736   1.296  13.313
43822W        W16247  25.066   0.748   4.751
43823W        W16248  17.179  11.665   0.873
43824W        W16249  27.175  12.326  12.344
43825W        W16250   8.662  11.196   0.914
43826W        W16251  29.440  16.656   3.704
43827W        W16252  28.978   8.299  10.975
43828W        W16253  22.214  32.557   2.303
43829W        W16254  28.020  28.027   0.406
43830W        W16255  34.472  38.568  11.560
43831W        W16256  31.941  10.692  14.313
43832W        W16257  18.085  25.614  14.932
43833W        W16258   7.689  34.101  13.498
43834W        W16259  23.068  28.176   2.264
43835W        W16260  37.561  37.874  11.909
43836W        W16261  28.145  12.708   3.650
43837W        W16262  24.166  26.043   0.253
43838W        W16263  20.205  39.426   0.293
43839W        W16264  22.223  20.247  14.799
43840W        W16265  19.128  15.107   1.828
43841W        W16266  34.394   8.762   1.414
43842W        W16267   3.334  24.579  14.894
43843W        W16268  22.698   3.418   4.303
43844W        W16269   2.280  30.908  13.974
43845W        W16270  41.827  16.242  11.511
43846W        W16271   4.735  24.666  14.499
43847W        W16272  44.962  41.800  12.508
43848W        W16273   0.825  32.421   4.232
43849W        W16274  30.029   7.312  12.548
43850W        W16275  38.495   8.295  11.081
43851W        W16276  19.703   5.378   4.833
43852W        W16277   6.864  33.392  14.820
43853W        W16278  27.521  13.105  14.288
43854W        W16279  37.349  25.703  13.985
43855W        W16280  39.354  22.563  10.988
43856W        W16281  18.275  21.569  14.812
43857W        W16282  34.004  14.170  12.041
43858W        W16283   8.167  42.918  10.629
43859W        W16284  39.518   3.803  12.393
43860W        W16285   3.324  41.438  10.508
43861W        W16286   7.231   0.894   4.198
43862W        W16287  39.928  39.515  10.509
43863W        W16288   4.779  42.949   0.856
43864W        W16289  39.337  43.788   3.259
43865W        W16290  17.106   3.841   2.832
43866W        W16291   1.972  10.321  12.351
43867W        W16292  21.072  36.443   1.365
43868W        W16293  17.586  28.156   0.427
43869W        W16294  42.015   8.824  14.869
43870W        W16295  12.209  26.576   1.394
43871W        W16296   1.856  38.042  14.987
43872W        W16297  12.692  17.586   0.435
43873W        W16298  32.448  32.953  11.540
43874W        W16299  21.046  14.834  12.370
43875W        W16300  35.948  40.959  12.062
43876W        W16301  19.723   9.838   3.280
43877W        W16302  33.457  19.767   4.751
43878W        W16303   6.346  36.428  11.570
43879W        W16304  16.193   6.823  14.981
43880W        W16305   3.247  13.273   5.149
43881W        W16306   4.406  20.577   2.268
43882W        W16307  28.088  17.074  12.545
43883W        W16308  17.139  30.570   0.950
43884W        W16309  44.484  17.091   4.768
43885W        W16310  38.333   4.943   1.850
43886W        W16311  14.680  33.982  11.054
43887W        W16312  43.987   7.308  10.974
43888W        W16313  13.109  42.302   1.411
43889W        W16314  39.948  18.679  12.427
43890W        W16315   3.735  29.460   0.776
43891W        W16316  23.681  21.119  11.114
43892W        W16317  10.775  31.097   3.698
43893W        W16318  31.518  26.702   2.322
43894W        W16319  15.650  32.545  14.943
43895W        W16320  38.970  44.760   2.326
43896W        W16321   6.874   2.838   2.400
43897W        W16322  39.902  16.255  11.514
43898W        W16323  25.510  38.954  13.327
43899W        W16324  25.012  22.073  14.987
43900W        W16325  39.359  25.025  11.398
43901W        W16326   2.313  34.981   3.198
43902W        W16327  38.875  11.200   1.282
43903W        W16328   7.241  41.815   3.360
43904W        W16329  37.893  26.166  11.547
43905W        W16330  10.737  41.323  11.066
43906W        W16331  11.327   4.252  11.890
43907W        W16332   9.153  25.201  13.064
43908W        W16333   2.302  12.705   2.353
43909W        W16334  33.897  11.714   3.828
43910W        W16335  24.649   8.241  10.900
43911W        W16336  40.321  38.008  12.996
43912W        W16337  25.476  15.199  13.537
43913W        W16338  14.679  19.243  14.004
43914W        W16339  34.381  11.622   1.364
43915W        W16340  36.577  29.128  12.084
43916W        W16341   4.414  44.903  11.399
43917W        W16342  31.119  13.818  13.009
43918W        W16343   6.391  44.941  12.094
43919W        W16344  36.844  41.352  13.420
43920W        W16345  31.985  42.355  14.449
43921W        W16346  14.162  32.125  13.364
43922W        W16347   3.878  26.156  11.579
43923W        W16348  37.470   1.921   1.434
43924W        W16349   0.779  15.250   4.312
43925W        W16350  21.100  23.518   4.633
43926W        W16351   9.207  37.409   4.210
43927W        W16352  35.008  43.882  13.392
43928W        W16353  31.420  25.514   4.682
43929W        W16354   3.393  10.728  13.346
43930W        W16355  29.427  24.532  10.412
43931W        W16356  34.394   7.860  13.005
43932W        W16357  33.482  22.717  14.922
43933W        W16358  32.535  25.986  12.385
43934W        W16359  13.665  42.433   3.337
43935W        W16360  33.471   9.789  12.522
43936W        W16361  11.239  17.085   2.797
43937W        W16362  33.594  38.461  10.517
43938W        W16363  36.558   4.333  10.957
43939W        W16364  30.033  30.980   0.779
43940W        W16365   5.904  32.085  10.602
43941W        W16366   9.324   3.363   1.748
43942W        W16367   4.903  29.948  11.941
43943W        W16368  16.588  23.709  14.993
43944W        W16369  30.487   8.720   4.634
43945W        W16370   8.741   6.776  11.886
43946W        W16371  27.042  13.728  10.469
43947W        W16372  18.236  11.273  11.904
43948W        W16373   2.421  31.899  12.399
43949W        W16374  15.186  44.941   2.868
43950W        W16375  32.899   4.876  13.334
43951W        W16376  36.531  35.374  14.515
43952W        W16377  35.925  22.586  14.383
43953W        W16378  25.103  42.483  13.021
43954W        W16379  40.388  11.680  10.941
43955W        W16380  20.635  11.363  11.463
43956W        W16381  18.669  37.357  14.786
43957W        W16382  17.096  22.014  13.795
43958W        W16383   9.829  34.526  13.976
43959W        W16384   6.298  22.569  10.942
43960W        W16385   3.389  15.690   1.779
43961W        W16386  30.021   6.865   2.285
43962W        W16387  34.417  16.120   0.925
43963W        W16388   8.332   3.870  13.974
43964W        W16389   7.356  15.772   3.194
43965W        W16390   5.803   8.881   4.118
43966W        W16391  20.040  43.466  11.929
43967W        W16392  38.900   8.319   3.713
43968W        W16393  16.752   8.861   2.264
43969W        W16394   9.331   2.247  11.890
43970W        W16395  43.919  22.558   4.824
43971W        W16396  36.437  41.505   2.804
43972W        W16397  35.603   2.289   3.230
43973W        W16398  11.320  41.946  10.642
43974W        W16399   0.903  39.526   3.241
43975W        W16400   5.923  15.778   4.298
43976W        W16401  19.152   6.838  14.287
43977W        W16402  42.421  43.471   2.194
43978W        W16403  36.998  11.171  14.315
43979W        W16404  29.575  14.245   4.627
43980W        W16405  11.815  23.685  11.455
43981W        W16406  29.656  20.658  12.438
43982W        W16407  10.726  35.467  13.417
43983W        W16408   2.378  22.195  12.416
43984W        W16409  29.046  20.037  11.916
43985W        W16410   0.981  24.124  13.331
43986W        W16411  26.173   0.952  10.415
43987W        W16412  14.771  23.584  13.049
43988W        W16413   4.250  15.240  12.482
43989W        W16414   3.214  24.216   3.659
43990W        W16415  31.140  35.994   1.923
43991W        W16416  19.171  13.202  10.406
43992W        W16417  28.973  24.200   3.355
43993W        W16418  37.434  33.885  10.476
43994W        W16419  32.474  14.630  12.939
43995W        W16420  13.211  33.503  10.980
43996W        W16421  31.513  39.521  10.925
43997W        W16422  16.781  34.920  13.910
43998W        W16423  23.659  11.190  12.829
43999W        W16424  40.342  14.207   1.889
44000W        W16425   0.832   8.852  12.070
44001W        W16426   4.768  33.569   5.186
44002W        W16427   2.924  22.182   0.959
44003W        W16428  25.539  34.373   0.745
44004W        W16429  26.616  31.406  13.028
44005W        W16430  19.203  28.448  13.420
44006W        W16431  43.782  38.950   2.399
44007W        W16432   0.358  39.060  12.580
44008W        W16433  31.944  40.955  14.452
44009W        W16434   6.350   6.824   0.406
44010W        W16435  33.970   3.848  13.475
44011W        W16436  44.493  11.284  11.563
44012W        W16437  32.538  23.075  11.496
44013W        W16438  15.628  22.077   9.938
44014W        W16439  29.127   1.877  14.952
44015W        W16440  41.407  15.664   2.901
44016W        W16441  42.819  28.936  12.836
44017W        W16442  35.029  20.145  12.075
44018W        W16443  10.733  42.302   1.333
44019W        W16444   7.895  32.896   2.288
44020W        W16445   9.717  33.454  13.914
44021W        W16446  23.184  40.953  14.974
44022W        W16447  33.484  32.036  11.409
44023W        W16448   7.332  31.949  12.891
44024W        W16449   2.244  42.509   1.814
44025W        W16450  29.974  44.972   1.218
44026W        W16451   5.388   3.449  11.514
44027W        W16452   3.354  25.196   1.820
44028W        W16453  37.547  23.718  13.491
44029W        W16454  42.340  19.679  14.957
44030W        W16455  33.924  37.952   0.379
44031W        W16456  34.885   4.873  11.961
44032W        W16457   6.908  16.266   2.853
44033W        W16458  22.646  24.086  12.550
44034W        W16459  20.522  35.027  14.433
44035W        W16460  15.783  38.430  12.048
44036W        W16461  20.231  28.080   2.667
44037W        W16462  11.342  35.542   4.641
44038W        W16463   1.911  14.629  11.946
44039W        W16464  38.932  39.983   3.379
44040W        W16465   7.257  15.620  14.853
44041W        W16466  12.736   6.686  12.568
44042W        W16467  20.709   2.308   0.265
44043W        W16468   3.240   1.978   1.848
44044W        W16469   0.474  30.137   3.826
44045W        W16470  35.413  36.504  11.945
44046W        W16471   3.792  18.603  11.117
44047W        W16472   5.230  40.311  11.033
44048W        W16473  41.820  23.652  10.067
44049W        W16474  40.505   6.373   2.750
44050W        W16475   0.971   1.278  14.504
44051W        W16476  34.021  43.981  11.592
44052W        W16477  29.033  33.917  10.486
44053W        W16478  17.571  38.052   3.291
44054W        W16479  27.565  25.533   4.353
44055W        W16480  30.437  25.547  11.502
44056W        W16481  28.661   4.289  13.898
44057W        W16482  22.099  44.339   2.674
44058W        W16483  33.928   1.835   4.338
44059W        W16484  14.688  43.957   1.220
44060W        W16485  30.099   1.894   4.774
44061W        W16486   3.843  30.498  14.482
44062W        W16487  12.807  42.409  13.513
44063W        W16488   8.801  16.582  13.364
44064W        W16489  40.804  34.471   3.321
44065W        W16490  12.627  37.904  12.471
44066W        W16491   8.871  40.997   3.733
44067W        W16492  43.343  42.382   1.768
44068W        W16493  39.336   5.886   2.736
44069W        W16494  35.869   9.263   3.863
44070W        W16495   6.797  29.625  13.841
44071W        W16496  23.091  38.479   0.933
44072W        W16497  18.263  15.778   2.884
44073W        W16498  25.165  22.570   2.197
44074W        W16499  11.712  26.043  10.158
44075W        W16500  12.345  12.354  12.825
44076W        W16501  22.563  33.010   1.817
44077W        W16502  16.145  20.169   2.707
44078W        W16503  29.099  37.355   1.820
44079W        W16504  36.494  20.635  12.477
44080W        W16505  36.883  10.237   2.769
44081W        W16506  39.990  34.539   0.379
44082W        W16507   0.348  34.113  12.887
44083W        W16508  19.690  33.453   4.623
44084W        W16509  29.033  11.316  14.489
44085W        W16510  15.175  18.240  11.425
44086W        W16511  40.931   0.278  14.406
44087W        W16512  37.418  20.042  13.486
44088W        W16513   9.661   0.314   4.680
44089W        W16514  17.068  34.966  10.462
44090W        W16515   3.377  13.141   4.192
44091W        W16516   0.290   9.840   0.818
44092W        W16517  17.677  31.499  12.451
44093W        W16518  40.896  12.158  11.012
44094W        W16519  20.720  29.049   2.702
44095W        W16520  30.032  40.471   0.965
44096W        W16521  30.137  19.634   0.478
44097W        W16522  32.545  38.387   1.272
44098W        W16523   4.401  37.572  14.501
44099W        W16524  30.434   9.382  14.813
44100W        W16525  41.961   0.354   1.274
44101W        W16526  36.514   9.776   0.775
44102W        W16527   4.361  40.846   2.846
44103W        W16528   9.643  43.460   2.328
44104W        W16529  28.665  39.470  12.558
44105W        W16530  15.120  42.912  10.409
44106W        W16531  38.372   3.946   2.300
44107W        W16532  24.189  32.425  12.913
44108W        W16533  38.887  24.484  11.088
44109W        W16534  10.249   4.445  11.521
44110W        W16535  27.689  32.930  10.550
44111W        W16536   0.407  34.955   1.932
44112W        W16537   9.698  21.150  12.851
44113W        W16538   2.439  17.204   4.776
44114W        W16539  23.709  35.578  12.926
44115W        W16540  29.154  39.517   2.292
44116W        W16541  13.728  10.714  10.643
44117W        W16542   4.240  34.412  11.591
44118W        W16543  13.286  31.984   2.326
44119W        W16544  30.506  40.924   4.611
44120W        W16545  18.281  22.233  11.557
44121W        W16546  39.985  34.412   0.745
44122W        W16547  10.340  10.203   2.692
44123W        W16548  41.396   2.434  14.484
44124W        W16549   7.268  21.246   5.157
44125W        W16550  25.530  10.853  14.391
44126W        W16551   2.251  30.925   4.775
44127W        W16552   5.758  19.281   4.668
44128W        W16553   5.279  40.434   2.789
44129W        W16554  43.886  14.695  12.073
44130W        W16555  33.095  41.485   4.286
44131W        W16556  40.891  11.866   4.223
44132W        W16557  25.125   6.696   4.684
44133W        W16558  21.260  19.614  14.810
44134W        W16559   5.796  13.322   1.757
44135W        W16560   5.363   7.351   4.207
44136W        W16561  40.870   3.856   0.917
44137W        W16562  12.704  38.327   0.326
44138W        W16563   2.898  11.250  13.897
44139W        W16564  31.617   3.256  10.447
44140W        W16565  34.548  24.717  12.484
44141W        W16566  19.662  18.161  13.392
44142W        W16567   3.881  22.063  13.456
44143W        W16568   5.392   6.219  11.044
44144W        W16569   0.970  14.114  11.465
44145W        W16570   3.843   1.243  11.978
44146W        W16571  29.109  44.799  11.463
44147W        W16572   1.946  16.077   4.210
44148W        W16573  12.190   3.383   1.867
44149W        W16574  26.496  30.107   4.330
44150W        W16575  42.511  36.424  14.937
44151W        W16576   9.776   4.852  13.428
44152W        W16577  40.922  15.692   2.702
44153W        W16578  35.487  20.568  11.937
44154W        W16579  14.139  39.409   2.836
44155W        W16580  19.057   1.309   3.635
44156W        W16581  18.286   9.840   3.651
44157W        W16582  30.907  23.179   1.332
44158W        W16583  35.985  33.937  12.495
44159W        W16584  25.169   4.251  11.515
44160W        W16585   0.889  44.335   3.215
44161W        W16586  36.368   5.693  10.906
44162W        W16587  31.102  32.560   4.273
44163W        W16588  14.131  24.593  12.460
44164W        W16589   6.894  37.880   4.694
44165W        W16590   5.759   6.843  11.403
44166W        W16591  13.801  14.765  11.452
44167W        W16592   0.457   3.448   1.421
44168W        W16593   3.216  11.353   0.289
44169W        W16594  41.826  12.847   4.678
44170W        W16595  30.051  42.491   3.171
44171W        W16596   6.738  31.629   1.821
44172W        W16597  14.218  33.887   2.194
44173W        W16598  17.259   7.215  11.523
44174W        W16599  26.144  42.988  10.926
44175W        W16600  18.149   5.826  13.027
44176W        W16601  11.211  28.608  11.941
44177W        W16602  40.351  31.614  13.947
44178W        W16603  27.130  26.471  14.361
44179W        W16604  31.032  38.344  12.496
44180W        W16605  14.723   3.316  10.484
44181W        W16606  30.413   0.330  14.436
44182W        W16607   4.258   3.217   4.654
44183W        W16608  30.511  33.479   1.343
44184W        W16609  31.063  36.360  12.988
44185W        W16610  23.215  41.926  14.822
44186W        W16611  10.370  24.644   1.867
44187W        W16612  41.952  11.284   2.671
44188W        W16613  24.998  35.386   3.382
44189W        W16614  14.146   7.707   4.659
44190W        W16615  16.646  22.202   4.652
44191W        W16616   1.308   4.438  13.860
44192W        W16617  14.122   8.276   4.162
44193W        W16618  16.648  37.938   2.827
44194W        W16619  11.167  30.544   0.349
44195W        W16620  21.573  42.815  10.985
44196W        W16621  34.966   0.253  14.825
44197W        W16622  13.788  22.516   2.306
44198W        W16623  11.631  25.599   4.125
44199W        W16624  12.221  10.292  14.275
44200W        W16625  44.279  18.601  12.370
44201W        W16626  11.854  23.054   3.790
44202W        W16627  27.122  12.167  13.796
44203W        W16628  23.231  22.672   4.772
44204W        W16629   3.329   9.213  12.398
44205W        W16630  19.161  33.625  12.076
44206W        W16631   5.289  21.018  12.574
44207W        W16632  29.612  43.458  14.937
44208W        W16633   7.799  27.042  13.423
44209W        W16634  42.883   9.191   4.148
44210W        W16635  20.085  12.739   3.178
44211W        W16636   3.429  35.477   4.263
44212W        W16637  17.228  31.000   2.230
44213W        W16638  18.071  20.224  14.279
44214W        W16639  16.171  38.966  14.986
44215W        W16640   8.698  44.956   1.436
44216W        W16641   4.429  12.319  12.365
44217W        W16642  42.353  33.904   1.716
44218W        W16643  30.047  28.013  14.284
44219W        W16644  21.105  26.988  12.572
44220W        W16645  17.254  27.616  10.453
44221W        W16646  43.807  32.543  11.068
44222W        W16647   8.284  29.622   3.779
44223W        W16648  21.218   6.682   0.822
44224W        W16649  17.176  24.605  12.415
44225W        W16650  41.797  38.368   0.296
44226W        W16651   5.346  15.210  12.861
44227W        W16652  23.016  40.822   1.923
44228W        W16653  19.668  10.342  13.348
44229W        W16654   9.811  41.474   0.269
44230W        W16655  13.705  22.706  14.929
44231W        W16656  13.249  25.029  10.918
44232W        W16657   0.471  19.094   3.327
44233W        W16658  33.132  39.373  14.303
44234W        W16659   5.700  35.574  12.038
44235W        W16660  24.078  43.860   2.737
44236W        W16661  36.470  19.590  13.051
44237W        W16662   4.719  24.222  10.627
44238W        W16663  44.295  17.676   2.198
44239W        W16664  19.724  39.447  12.056
44240W        W16665  15.702   5.845   0.747
44241W        W16666  34.376  10.203   0.827
44242W        W16667  12.748  21.591   1.920
44243W        W16668   9.844  28.013   4.334
44244W        W16669   0.784  30.625   4.605
44245W        W16670   5.777  23.111  10.416
44246W        W16671  24.196  27.139  13.337
44247W        W16672  43.015  34.098  13.873
44248W        W16673  15.284  16.198   1.814
44249W        W16674  41.530  32.008  10.598
44250W        W16675   0.892  25.533  10.479
44251W        W16676   6.269  12.769   4.665
44252W        W16677   4.280   6.300  14.886
44253W        W16678  29.540  15.649  12.824
44254W        W16679  36.930  22.143   2.673
44255W        W16680   6.889  39.951  13.343
44256W        W16681  16.207  37.486  13.032
44257W        W16682  38.917  39.911  10.005
44258W        W16683  37.058  34.593   0.752
44259W        W16684  44.494   9.871  13.929
44260W        W16685  16.794  29.609  10.531
44261W        W16686  10.239  36.055   2.309
44262W        W16687  25.697  29.923  14.432
44263W        W16688  35.584  16.244   1.246
44264W        W16689  35.081  34.530  13.012
44265W        W16690   8.785  28.632   0.454
44266W        W16691  29.979  25.188  12.056
44267W        W16692  31.908  42.484   3.842
44268W        W16693  29.643  43.945  14.815
44269W        W16694  11.746  27.009   2.322
44270W        W16695  33.401  15.181  10.161
44271W        W16696  19.765  14.207   5.092
44272W        W16697   5.720   0.358  12.943
44273W        W16698  34.865  33.946   0.953
44274W        W16699  11.840  21.112   1.909
44275W        W16700  13.313  31.904   3.151
44276W        W16701  39.509  27.190   2.262
44277W        W16702  38.363  41.369  12.002
44278W        W16703  16.621  29.082   2.363
44279W        W16704  11.838   1.458  14.297
44280W        W16705  44.275  32.962  12.525
44281W        W16706  12.181   8.170   4.797
44282W        W16707  21.656   7.705   3.764
44283W        W16708  35.882  33.025  11.952
44284W        W16709  30.959  31.470   4.329
44285W        W16710  29.573  21.688  11.111
44286W        W16711   3.731  31.579   2.719
44287W        W16712   0.834  20.758  12.938
44288W        W16713  27.606  23.071   2.277
44289W        W16714  43.301  41.483   3.314
44290W        W16715   2.765   3.242   1.356
44291W        W16716  14.643  22.732  13.429
44292W        W16717  35.011  20.071  14.467
44293W        W16718  27.647   4.893  13.328
44294W        W16719  20.656  35.928   4.605
44295W        W16720   5.730  12.757   4.685
44296W        W16721   2.844  16.093  12.529
44297W        W16722  21.079   6.326   2.891
44298W        W16723  41.967  31.498  10.526
44299W        W16724   8.270   6.708   1.246
44300W        W16725  11.350  39.406  13.926
44301W        W16726  24.481  17.074  14.371
44302W        W16727  24.975  11.798  10.433
44303W        W16728  34.411  39.370   2.247
44304W        W16729  14.781   0.285  13.888
44305W        W16730  25.594   1.390  14.465
44306W        W16731  44.291  38.963   2.178
44307W        W16732  12.299   4.353   4.167
44308W        W16733  10.859   3.816   2.199
44309W        W16734  41.873  38.344  14.306
44310W        W16735   8.858  21.734   3.330
44311W        W16736  28.597   6.861   3.164
44312W        W16737  44.891  25.513  10.911
44313W        W16738  20.146   3.337   3.754
44314W        W16739  35.912  12.268   4.718
44315W        W16740  24.074   2.274   4.315
44316W        W16741  26.172  19.282   2.672
44317W        W16742  29.046  19.671  14.449
44318W        W16743  44.432  12.850  10.108
44319W        W16744  20.526  32.034   5.318
44320W        W16745   5.391   0.959   3.302
44321W        W16746  17.622  24.665   3.777
44322W        W16747   9.688  22.631   1.725
44323W        W16748  27.031  10.340  13.908
44324W        W16749  20.145  35.107  11.118
44325W        W16750  26.952  11.635  11.452
44326W        W16751  18.206  21.638  14.331
44327W        W16752   0.329  25.039  11.402
44328W        W16753  19.241  41.031   1.716
44329W        W16754   1.411  16.714  14.767
44330W        W16755  10.857  23.154   1.267
44331W        W16756  18.659  36.893   2.226
44332W        W16757   3.246  11.328  14.492
44333W        W16758  17.303  21.715  13.334
44334W        W16759  35.060  30.110  13.520
44335W        W16760   6.782  43.500  13.053
44336W        W16761   5.408  18.659  13.424
44337W        W16762  44.369  13.676  12.382
44338W        W16763  24.578  44.421   4.295
44339W        W16764   1.449  12.181  11.430
44340W        W16765  17.078  15.201   2.387
44341W        W16766  26.545   9.210  10.457
44342W        W16767  40.481  26.088  14.012
44343W        W16768  35.592  24.071  12.988
44344W        W16769  15.739  42.925  14.787
44345W        W16770  12.823  14.274  14.970
44346W        W16771  10.237  25.116   1.763
44347W        W16772  19.618  11.331   2.334
44348W        W16773  30.937  24.697  12.913
44349W        W16774   4.358   9.760   4.323
44350W        W16775  13.760  31.535   0.749
44351W        W16776   2.272  39.970  11.056
44352W        W16777  27.475  20.680  11.041
44353W        W16778  22.554   3.895   3.157
44354W        W16779   8.241  10.706  12.412
44355W        W16780  15.141  30.554   0.273
44356W        W16781  17.299   1.756   2.225
44357W        W16782  21.033  18.698   3.714
44358W        W16783  10.712  12.231   3.368
44359W        W16784  11.293   9.666  14.354
44360W        W16785  23.639  10.206  10.087
44361W        W16786   7.783  32.950   0.817
44362W        W16787  13.227  43.802   0.297
44363W        W16788  44.270   0.938   4.682
44364W        W16789  27.652   0.938  11.920
44365W        W16790  44.370  35.988   5.271
44366W        W16791  27.525   6.205  13.450
44367W        W16792  26.990  18.245  12.421
44368W        W16793  17.741  22.592  11.499
44369W        W16794  32.112  38.868  11.441
44370W        W16795  21.104  32.590   3.669
44371W        W16796   6.870  34.064   1.338
44372W        W16797  41.867  14.147   3.681
44373W        W16798   3.866  11.277  11.572
44374W        W16799  42.831  35.869   4.738
44375W        W16800  37.959  44.457  14.308
44376W        W16801  14.269  31.146  14.466
44377W        W16802  34.591  37.975   0.936
44378W        W16803  39.005  28.066   4.180
44379W        W16804  19.769  24.074  12.042
44380W        W16805  44.415  43.819  11.064
44381W        W16806   9.242  38.331   3.670
44382W        W16807  24.692  26.530   2.759
44383W        W16808  37.480  21.632   0.855
44384W        W16809  32.076  32.593  11.098
44385W        W16810  29.469  22.094  13.932
44386W        W16811  35.067  10.175  10.054
44387W        W16812  13.350  17.130  13.031
44388W        W16813  41.862  10.221   4.331
44389W        W16814  16.705  22.704   0.483
44390W        W16815   6.329   5.378   3.226
44391W        W16816  27.540  21.134  10.494
44392W        W16817  32.595  31.450  13.928
44393W        W16818  10.690  36.972  10.590
44394W        W16819  39.851  12.150  11.525
44395W        W16820  11.750  23.733   2.871
44396W        W16821  29.642  21.751   0.413
44397W        W16822  28.047  44.310   1.821
44398W        W16823  36.885  18.746  14.490
44399W        W16824  31.440   5.832  12.537
44400W        W16825  30.020  39.359  12.554
44401W        W16826  24.556  42.838   1.402
44402W        W16827  15.144  11.862   0.935
44403W        W16828  32.138  43.339   5.133
44404W        W16829  27.479  27.594  11.611
44405W        W16830  40.499  42.945  13.826
44406W        W16831  32.604  40.831  14.916
44407W        W16832  38.033   0.379   5.271
44408W        W16833  32.615  43.458   3.202
44409W        W16834   2.393  33.896  10.418
44410W        W16835  29.622  35.072  11.945
44411W        W16836  36.012   3.230   1.347
44412W        W16837  21.211  41.381   0.374
44413W        W16838  16.685  18.120   1.445
44414W        W16839   8.787   1.896  11.119
44415W        W16840  36.554  24.035  14.857
44416W        W16841  38.411  43.427   5.226
44417W        W16842  37.019  11.731   3.815
44418W        W16843  43.017  25.171   3.155
44419W        W16844  14.270  10.688   1.705
44420W        W16845   8.667  21.126  13.324
44421W        W16846  15.165  33.072  14.330
44422W        W16847   0.807   2.770  13.868
44423W        W16848  25.068  12.692   2.199
44424W        W16849  44.879  32.913  12.058
44425W        W16850  43.493  30.030  14.465
44426W        W16851  41.475  26.963   1.923
44427W        W16852  10.698  18.661  10.520
44428W        W16853  33.983  18.645   2.182
44429W        W16854   4.885  17.584  14.003
44430W        W16855  33.077  18.708   2.685
44431W        W16856  11.231  20.222   2.732
44432W        W16857  18.279   3.813  10.457
44433W        W16858   7.735  33.989  11.073
44434W        W16859   2.359  33.455   2.891
44435W        W16860   2.429  43.401   2.878
44436W        W16861  21.713  32.485  11.450
44437W        W16862  38.000   7.834  11.592
44438W        W16863  26.070   4.733   3.858
44439W        W16864  11.770  40.447   2.834
44440W        W16865  39.399   7.865   0.331
44441W        W16866  42.302  11.332   2.227
44442W        W16867  24.987   1.453   2.413
44443W        W16868  16.171  29.535  11.539
44444W        W16869  24.650  17.694  13.933
44445W        W16870   4.867  40.442  10.951
44446W        W16871  20.696  31.048  10.105
44447W        W16872  42.960  40.990  12.373
44448W        W16873  36.949   9.644   4.166
44449W        W16874  44.495  44.774  11.920
44450W        W16875  30.586  19.720  14.915
44451W        W16876  33.003  20.574  14.862
44452W        W16877  23.603  40.521   2.756
44453W        W16878  15.105   5.905   1.856
44454W        W16879   3.856  40.315   2.663
44455W        W16880  35.507  43.473   1.419
44456W        W16881   2.926  37.919  12.387
44457W        W16882  41.922  13.662   2.828
44458W        W16883  10.186  27.156  11.072
44459W        W16884   3.269  20.031  10.405
44460W        W16885  12.795  42.400  14.808
44461W        W16886  14.192  42.305   2.846
44462W        W16887   4.794  22.996  11.981
44463W        W16888   6.839  40.879   3.828
44464W        W16889  39.428  17.606   4.718
44465W        W16890  38.554   8.883  12.570
44466W        W16891   2.308  13.811   3.224
44467W        W16892  43.411  17.088   4.686
44468W        W16893  41.894  34.930  10.138
44469W        W16894   5.767   0.492  10.512
44470W        W16895  34.864  16.080   0.752
44471W        W16896   0.336  12.622   2.823
44472W        W16897  40.347  37.912   2.323
44473W        W16898   3.407  13.289  13.414
44474W        W16899   1.788  43.832   2.847
44475W        W16900  34.883   8.807   2.786
44476W        W16901  12.774  17.227   4.320
44477W        W16902  40.515   8.374   4.353
44478W        W16903  34.081   1.913  11.456
44479W        W16904  42.859  41.479  13.969
44480W        W16905   3.954   5.208   1.275
44481W        W16906   0.968   3.451  14.877
44482W        W16907   2.801  25.112   1.865
44483W        W16908  35.537  20.660   3.205
44484W        W16909  17.683  36.479   1.816
44485W        W16910  41.950  13.804   1.738
44486W        W16911  15.244   8.821  14.409
44487W        W16912   7.199  19.129  11.108
44488W        W16913  42.524  12.138  10.623
44489W        W16914  24.216  32.500   1.765
44490W        W16915  37.406  38.070   3.258
44491W        W16916  38.372  13.708   3.361
44492W        W16917   7.222   9.204  12.406
44493W        W16918  18.223  22.242   2.797
44494W        W16919  15.321  37.370   1.239
44495W        W16920  12.269   8.232  14.960
44496W        W16921  43.977  18.125  12.389
44497W        W16922  38.835  18.257  10.482
44498W        W16923  19.065   6.285  12.358
44499W        W16924   5.922  14.219   3.180
44500W        W16925  12.246   7.369   4.764
44501W        W16926   9.182  33.989  13.508
44502W        W16927  38.831  15.659  14.321
44503W        W16928   8.336   8.305   5.125
44504W        W16929  32.478  29.963  11.033
44505W        W16930   9.209  23.045  14.981
44506W        W16931  27.563   9.162   3.676
44507W        W16932   6.747  29.129   2.229
44508W        W16933  25.707  41.462   1.359
44509W        W16934  40.883  26.011  13.891
44510W        W16935  36.416  21.720  11.859
44511W        W16936  33.440  29.039  10.424
44512W        W16937  40.048   0.791   5.279
44513W        W16938  18.118  16.231  11.577
44514W        W16939  24.583  34.916   2.345
44515W        W16940  44.931  15.698  12.936
44516W        W16941  18.753  15.101   2.199
44517W        W16942  22.572  24.203  12.848
44518W        W16943   9.855  28.006  11.450
44519W        W16944   1.429  26.588  12.535
44520W        W16945  44.890  23.182  13.537
44521W        W16946   5.817   0.441   3.318
44522W        W16947   7.678  17.683   3.780
44523W        W16948   9.219  11.851   0.890
44524W        W16949  30.516  17.288   0.926
44525W        W16950  17.186  28.435  13.463
44526W        W16951  44.004   8.400  11.114
44527W        W16952  38.945  32.630  12.351
44528W        W16953  39.412   0.255   5.623
44529W        W16954  17.228  26.132   2.364
44530W        W16955  30.911   8.716  11.383
44531W        W16956   1.375   3.261   1.213
44532W        W16957   6.792   4.398  10.526
44533W        W16958  30.908  44.349  12.841
44534W        W16959  17.218  34.863   0.469
44535W        W16960  20.600   0.853  11.464
44536W        W16961  31.966  31.030  10.412
44537W        W16962  16.198  41.908  11.464
44538W        W16963   5.209  13.630   4.336
44539W        W16964  11.753  39.853   2.850
44540W        W16965  25.654  32.986  12.386
44541W        W16966  18.152  31.006   4.709
44542W        W16967   3.299  14.697   4.753
44543W        W16968  15.188   9.165   0.449
44544W        W16969  14.294  36.442  10.487
44545W        W16970  32.055   7.199   1.877
44546W        W16971  15.279  29.540   3.159
44547W        W16972  33.947   5.888  10.477
44548W        W16973   6.759  33.973  11.035
44549W        W16974  43.014  40.438   3.379
44550W        W16975  22.556   6.912  14.986
44551W        W16976   5.297  10.714   0.748
44552W        W16977  20.605  17.651  10.563
44553W        W16978  10.376  21.638  10.644
44554W        W16979  21.108  21.693   3.317
44555W        W16980  34.916   9.681   0.392
44556W        W16981  28.453  37.539  12.542
44557W        W16982  24.549   7.275   2.370
44558W        W16983   4.380   9.371   2.357
44559W        W16984  37.087  25.134  10.973
44560W        W16985  31.403  31.493  12.521
44561W        W16986  10.764  44.477  12.448
44562W        W16987  44.416  24.595   1.694
44563W        W16988   5.330   2.383   1.302
44564W        W16989  28.934  10.858   3.844
44565W        W16990  13.321  11.730  13.317
44566W        W16991  14.812  38.494   3.344
44567W        W16992  41.454  26.482  13.422
44568W        W16993  44.332  12.786  14.932
44569W        W16994  32.118  11.693   1.873
44570W        W16995   2.277  15.658   2.806
44571W        W16996  10.733  41.333   3.148
44572W        W16997  43.786  41.347   0.425
44573W        W16998   6.711  25.102  13.513
44574W        W16999   3.222  33.558  10.484
44575W        W17000  20.532  18.611  13.012
44576W        W17001  31.025  27.123   0.432
44577W        W17002  11.129  25.654  14.396
44578W        W17003  22.572   1.408  14.845
44579W        W17004  35.955  14.277   3.664
44580W        W17005  28.124   1.423   3.199
44581W        W17006  43.514  14.276  12.065
44582W        W17007  36.924   9.358   0.397
44583W        W17008  11.704  10.321   5.315
44584W        W17009  33.127  11.204  10.613
44585W        W17010  36.963  37.083   0.899
44586W        W17011  12.850  16.703  11.940
44587W        W17012  30.583  35.973  10.428
44588W        W17013  27.654  14.665   3.811
44589W        W17014  13.239  27.122   4.834
44590W        W17015  34.461  36.849  10.494
44591W        W17016  40.516  15.305   0.388
44592W        W17017  16.586  29.447  14.402
44593W        W17018  26.953  31.645  11.548
44594W        W17019  20.139  39.516   2.828
44595W        W17020  30.999   0.279   3.148
44596W        W17021  32.060  43.867  12.900
44597W        W17022  36.410   1.270   3.230
44598W        W17023  13.347  22.172   9.568
44599W        W17024  33.516  24.499   4.732
44600W        W17025  40.408  20.261   2.316
44601W        W17026  30.993   9.889  11.917
44602W        W17027  13.286  32.476  12.854
44603W        W17028  36.979  18.752   2.306
44604W        W17029  28.099  26.179  10.623
44605W        W17030   5.727  22.647  10.961
44606W        W17031  11.231  11.218   2.388
44607W        W17032  21.538   9.384   0.431
44608W        W17033  28.490  24.538  14.473
44609W        W17034  21.166  41.033   1.356
44610W        W17035  15.750  25.483  10.645
44611W        W17036  15.213   6.286   3.243
44612W        W17037  31.452  36.924  10.566
44613W        W17038  18.607  37.366   5.088
44614W        W17039   1.958  28.966   3.328
44615W        W17040  29.636  16.073  13.401
44616W        W17041  16.589  21.677   0.301
44617W        W17042   1.845  27.513  13.923
44618W        W17043  30.563  39.842   0.264
44619W        W17044  15.676  44.355   0.762
44620W        W17045  36.863   8.354   2.193
44621W        W17046  32.027  43.354   0.805
44622W        W17047  15.717  13.743   3.345
44623W        W17048  25.572  28.013   1.898
44624W        W17049   7.772  23.603   3.204
44625W        W17050  33.395  41.900  11.103
44626W        W17051  28.164  31.042   0.465
44627W        W17052  19.587  30.565  12.075
44628W        W17053   2.263  20.041  14.425
44629W        W17054  20.220  25.175   5.138
44630W        W17055  42.838  28.108   3.363
44631W        W17056  11.677  22.533  11.864
44632W        W17057  32.024  23.693  11.446
44633W        W17058  26.638  36.900   0.819
44634W        W17059  25.635  27.469  14.445
44635W        W17060  43.436  39.059   1.215
44636W        W17061  36.441  14.198  10.076
44637W        W17062  37.404  27.164  12.905
44638W        W17063  24.985  36.408   1.305
44639W        W17064  16.198  38.962  12.959
44640W        W17065   0.403  24.573   1.787
44641W        W17066  26.066  29.597  12.402
44642W        W17067  28.500  42.499   2.369
44643W        W17068  35.096  15.645  14.400
44644W        W17069  11.337  14.662  14.329
44645W        W17070  29.159  30.112  12.490
44646W        W17071  28.101   1.249   1.719
44647W        W17072  11.654  32.613   2.353
44648W        W17073  30.150  30.914  14.413
44649W        W17074  31.448   6.189  14.999
44650W        W17075  36.495  35.975  10.934
44651W        W17076  11.295  37.054   1.393
44652W        W17077  13.755   8.728   3.195
44653W        W17078  13.782  15.223  10.486
44654W        W17079  27.456  41.942   4.161
44655W        W17080  11.352  44.444  10.423
44656W        W17081  35.857  33.023  12.503
44657W        W17082  37.380   0.863  11.527
44658W        W17083  28.438  36.960   2.389
44659W        W17084  16.776  32.616  12.068
44660W        W17085  22.614  19.602   1.427
44661W        W17086  35.473  11.178  10.954
44662W        W17087  41.409  40.336  14.958
44663W        W17088  23.569  10.271  13.326
44664W        W17089  20.100  42.323   3.825
44665W        W17090  39.515  42.361  14.907
44666W        W17091  29.115  11.657  12.993
44667W        W17092  31.641   4.785   3.750
44668W        W17093  16.634  13.241   0.791
44669W        W17094  25.648  18.552   4.221
44670W        W17095  38.914   7.863   0.423
44671W        W17096  20.222   6.288  14.913
44672W        W17097  15.824  36.585  11.990
44673W        W17098  20.094  22.549  14.281
44674W        W17099  13.744  19.201  13.510
44675W        W17100   5.816   5.822  11.415
44676W        W17101  12.165  41.034  14.869
44677W        W17102  35.957   7.792   3.791
44678W        W17103  15.712  13.304  11.443
44679W        W17104   5.203   9.866  10.534
44680W        W17105  25.021   7.235  14.768
44681W        W17106  12.831  39.471   3.313
44682W        W17107  25.172  11.719   0.371
44683W        W17108  43.947  12.245   4.680
44684W        W17109  40.432  13.153  12.548
44685W        W17110  29.536  26.019   2.311
44686W        W17111  12.709  36.006   1.217
44687W        W17112   8.401  31.411   3.261
44688W        W17113  30.533   1.404  14.822
44689W        W17114  18.115  41.376   3.244
44690W        W17115  38.921  33.038  14.798
44691W        W17116  23.009  32.947   4.302
44692W        W17117   9.326  44.283  14.367
44693W        W17118  42.904  30.128   3.226
44694W        W17119   9.661  17.203   1.294
44695W        W17120  42.921  12.139   2.825
44696W        W17121  23.701   2.829   4.729
44697W        W17122   8.373  14.633   4.235
44698W        W17123  13.729  33.913   3.761
44699W        W17124  18.149  38.566  13.396
44700W        W17125  29.583  33.010   5.271
44701W        W17126  13.638  41.407  13.812
44702W        W17127  16.693  35.415  12.564
44703W        W17128   7.853  35.409   2.351
44704W        W17129  22.084  22.609   2.898
44705W        W17130  27.479  29.662  14.770
44706W        W17131  37.485  27.454  13.988
44707W        W17132  23.098  38.450   2.364
44708W        W17133   4.885  20.662  11.488
44709W        W17134  20.245  44.283  13.057
44710W        W17135  10.723  15.234   4.662
44711W        W17136  34.066   8.387   4.654
44712W        W17137   2.270   1.740  11.930
44713W        W17138  30.151  40.450  14.769
44714W        W17139  22.156  25.665  14.014
44715W        W17140  16.309  38.387   3.253
44716W        W17141  41.377  19.258  10.636
44717W        W17142  16.215  32.020  14.425
44718W        W17143  44.971  41.792   2.664
44719W        W17144  44.282  43.492  13.477
44720W        W17145  31.020  41.012  12.058
44721W        W17146  30.042   9.837   0.891
44722W        W17147   6.203  15.174   0.270
44723W        W17148   4.262  14.818  14.797
44724W        W17149  15.678   1.731  10.598
44725W        W17150  31.027  22.218  11.067
44726W        W17151  34.467  29.987   2.312
44727W        W17152   3.815   5.926   0.428
44728W        W17153  21.097   5.322   4.227
44729W        W17154  29.526  41.314  12.446
44730W        W17155  28.992  44.305  10.117
44731W        W17156  38.040  14.335  14.869
44732W        W17157   5.765   6.800  14.409
44733W        W17158   8.899   7.810   4.630
44734W        W17159  40.963  26.112  12.473
44735W        W17160  30.123   0.977   1.848
44736W        W17161  13.684  23.998   0.273
44737W        W17162   9.315   4.702   4.735
44738W        W17163   5.295  18.151   4.240
44739W        W17164  35.478   0.791   4.288
44740W        W17165   5.227  42.904  13.971
44741W        W17166  26.059   1.317   0.850
44742W        W17167   2.841  18.113  14.774
44743W        W17168  28.529  40.377  10.946
44744W        W17169  30.454   0.341  12.557
44745W        W17170  22.143   2.761   3.866
44746W        W17171   5.743  41.504   3.282
44747W        W17172  20.156  28.054  12.004
44748W        W17173  22.656  20.148   2.852
44749W        W17174  41.482  44.456   1.410
44750W        W17175  42.339  26.081   1.444
44751W        W17176  31.956  37.044  12.860
44752W        W17177  15.684  34.582  12.520
44753W        W17178  41.038  33.384  14.832
44754W        W17179  37.048  22.168  13.493
44755W        W17180  22.706  31.644  10.949
44756W        W17181  15.099   0.786   1.761
44757W        W17182  29.546  27.969  12.994
44758W        W17183  43.797  36.947  14.302
44759W        W17184  14.252  26.644   2.853
44760W        W17185  11.854   8.793   2.837
44761W        W17186   4.841  16.176   1.310
44762W        W17187  44.852   0.959  14.982
44763W        W17188  41.477  32.948   1.820
44764W        W17189   1.843  21.595   1.427
44765W        W17190  40.929  28.473  13.495
44766W        W17191  26.689  29.099   0.730
44767W        W17192  39.911  16.727  12.095
44768W        W17193  31.066  30.091   4.797
44769W        W17194  17.608   1.756  13.530
44770W        W17195  17.082  28.939  12.868
44771W        W17196  14.654  17.135   0.383
44772W        W17197  23.724   8.334   5.707
44773W        W17198   0.823  20.761  11.086
44774W        W17199  19.053  28.456   2.193
44775W        W17200  42.484  30.561  10.527
44776W        W17201  21.642   1.812  12.537
44777W        W17202  31.530  29.496   2.391
44778W        W17203  15.684  19.661   4.767
44779W        W17204   0.880   4.787  13.380
44780W        W17205  32.437  18.271  11.415
44781W        W17206  25.080  16.137  14.407
44782W        W17207  19.773  30.035   5.634
44783W        W17208   5.299  32.542   4.136
44784W        W17209  39.884   5.284   0.482
44785W        W17210   2.387  41.963   1.804
44786W        W17211  43.301  18.201   0.346
44787W        W17212  18.692   1.948   5.215
44788W        W17213  24.705  33.548   0.333
44789W        W17214  40.946  26.952   1.744
44790W        W17215   9.244  14.199  10.942
44791W        W17216  31.644  21.526   1.746
44792W        W17217  34.106   8.814  14.513
44793W        W17218  17.100  28.175   4.131
44794W        W17219  19.227  42.477  12.350
44795W        W17220  10.802  17.580  13.350
44796W        W17221  33.446  28.643   2.767
44797W        W17222  31.966  21.199  11.062
44798W        W17223  14.277  37.853  12.367
44799W        W17224   9.211  10.383   3.820
44800W        W17225  25.697   9.878   1.756
44801W        W17226  20.225  12.836   5.159
44802W        W17227  15.619  39.936  11.918
44803W        W17228  35.052   9.709   3.864
44804W        W17229  20.038  12.335   2.342
44805W        W17230  12.736   8.294  14.012
44806W        W17231  32.445  11.815  13.852
44807W        W17232  27.473   7.907   2.248
44808W        W17233  29.126  43.344   1.334
44809W        W17234  17.141  30.068  12.017
44810W        W17235   8.306   3.252  10.552
44811W        W17236   6.282  42.404  12.559
44812W        W17237   3.956   3.381   4.255
44813W        W17238  44.268  21.650   4.268
44814W        W17239  23.122  20.751  12.046
44815W        W17240  36.560  43.403   4.336
44816W        W17241  29.107  41.385  10.551
44817W        W17242  17.073  10.701  10.155
44818W        W17243   6.382  27.051   0.245
44819W        W17244  16.617  12.792   3.380
44820W        W17245   8.277  29.599  13.926
44821W        W17246  20.259  31.118  12.417
44822W        W17247  15.748   5.392   1.885
44823W        W17248  38.027  31.104   0.957
44824W        W17249  30.509  23.689  10.041
44825W        W17250  26.460   3.455   4.311
44826W        W17251  44.753  26.557  12.563
44827W        W17252  22.165  35.098  13.532
44828W        W17253  38.521  26.479   4.325
44829W        W17254   2.954  37.551   4.701
44830W        W17255   3.260  17.660  13.450
44831W        W17256  34.521  16.784   4.717
44832W        W17257   1.358  26.508  10.583
44833W        W17258  16.086  20.599   0.811
44834W        W17259  33.541  35.379   4.176
44835W        W17260  44.790   3.955  12.084
44836W        W17261  28.042  33.098   4.294
44837W        W17262   3.914  34.041   2.728
44838W        W17263  31.607   0.298  13.467
44839W        W17264  33.609  35.904  12.541
44840W        W17265  10.145  31.065  13.471
44841W        W17266  11.354  15.143   0.461
44842W        W17267  32.621  14.702   4.336
44843W        W17268   2.355  44.356  14.964
44844W        W17269  42.331  16.761   2.741
44845W        W17270  37.844  37.982  11.589
44846W        W17271  38.489  13.158   1.784
44847W        W17272  15.292  22.625   2.837
44848W        W17273  18.165  13.259  11.462
44849W        W17274  43.002  43.956  14.005
44850W        W17275  30.460   9.205   1.338
44851W        W17276  14.606  44.874  11.960
44852W        W17277  31.918  24.989   3.722
44853W        W17278  30.493  19.170   2.736
44854W        W17279  40.839  33.093  14.765
44855W        W17280  36.903  41.954   1.914
44856W        W17281  29.491   3.826  12.918
44857W        W17282  35.895  28.977   2.247
44858W        W17283  24.220  15.738   3.377
44859W        W17284  32.592  38.385   2.887
44860W        W17285  21.156  33.114   3.292
44861W        W17286  32.071  33.399   4.752
44862W        W17287  16.790  16.711   1.383
44863W        W17288  24.005  35.580   4.267
44864W        W17289   8.806   3.320  11.011
44865W        W17290  25.069  14.661  14.276
44866W        W17291  29.025  29.953   1.451
44867W        W17292  21.639  24.610   4.167
44868W        W17293  17.685  33.896  10.428
44869W        W17294  18.730   7.866  14.931
44870W        W17295   1.240  16.115   1.780
44871W        W17296  18.787   8.765   4.640
44872W        W17297  20.166  16.111  11.879
44873W        W17298  10.354  22.148   2.867
44874W        W17299   7.221  34.496   3.313
44875W        W17300  14.199  34.110   2.688
44876W        W17301  23.193   1.908   0.278
44877W        W17302   9.681  18.599  12.057
44878W        W17303  15.793  37.434   2.897
44879W        W17304  38.977  12.186   2.747
44880W        W17305  33.598  15.817  13.841
44881W        W17306   0.261  36.445   4.327
44882W        W17307   7.356  40.962   0.470
44883W        W17308  26.579  40.906  14.032
44884W        W17309  37.579  25.016   5.722
44885W        W17310  35.078  43.506  10.451
44886W        W17311  27.055  19.145   2.244
44887W        W17312  13.290   9.781  12.907
44888W        W17313  15.717   6.342   4.832
44889W        W17314   8.209  15.141   0.444
44890W        W17315  44.765  27.032  14.429
44891W        W17316  21.593  13.824   2.253
44892W        W17317  42.478  27.673   0.357
44893W        W17318  27.099   6.426  14.285
44894W        W17319  35.975   5.788   1.727
44895W        W17320   4.773  44.895   1.701
44896W        W17321   1.969  44.325   3.184
44897W        W17322   7.194  17.134  12.370
44898W        W17323  26.650  25.003   0.254
44899W        W17324  40.853   4.853  13.801
44900W        W17325  11.696  43.484  14.455
44901W        W17326  36.959   3.438  14.909
44902W        W17327  37.547  40.313   1.877
44903W        W17328  41.825  40.456   3.806
44904W        W17329  32.506  30.120   4.177
44905W        W17330  43.345  30.020   0.738
44906W        W17331  27.662  28.041  10.471
44907W        W17332  25.198  10.160  10.057
44908W        W17333  10.823   4.799   3.789
44909W        W17334  37.562  35.950  11.010
44910W        W17335  10.365  19.247  11.389
44911W        W17336   3.834  18.229   4.124
44912W        W17337   4.762  31.433   4.233
44913W        W17338  28.964  14.324   1.885
44914W        W17339  16.753  30.563   2.754
44915W        W17340  30.590  16.127  13.462
44916W        W17341   6.693   5.400   3.833
44917W        W17342   0.253   6.816   2.823
44918W        W17343  36.469  28.635  13.494
44919W        W17344  28.546  16.579  10.892
44920W        W17345  26.613  26.102   2.712
44921W        W17346  25.596  32.110   3.833
44922W        W17347   1.322  11.372  12.920
44923W        W17348  18.135  38.954   4.762
44924W        W17349  34.970  29.625   2.392
44925W        W17350  13.206  30.500  14.451
44926W        W17351  25.546  42.856  10.159
44927W        W17352  37.069  34.902  12.454
44928W        W17353  13.718  13.125   3.671
44929W        W17354  18.087  22.672  14.516
44930W        W17355  17.088  38.852   1.344
44931W        W17356  34.612   1.824  11.067
44932W        W17357   7.378  38.833   9.982
44933W        W17358  19.642  28.467  12.894
44934W        W17359  23.112  41.042   4.726
44935W        W17360  13.629  10.284   2.810
44936W        W17361  18.704  22.019   0.868
44937W        W17362  11.853  31.036  10.943
44938W        W17363  23.563   5.787  12.500
44939W        W17364  35.540  35.539   2.358
44940W        W17365  26.047   5.285   4.240
44941W        W17366  36.525  13.263  10.889
44942W        W17367  37.478  42.775  11.411
44943W        W17368  42.009  30.102  13.325
44944W        W17369  39.846  41.465  12.090
44945W        W17370  20.061  26.189  11.613
44946W        W17371   0.371   3.831   3.330
44947W        W17372  11.247  27.531   2.799
44948W        W17373  15.750  39.978  10.006
44949W        W17374   6.273   8.684  11.499
44950W        W17375  28.652  23.079  13.318
44951W        W17376  14.094  43.401  12.011
44952W        W17377  33.006  30.938   4.834
44953W        W17378  43.796  11.713  10.524
44954W        W17379  24.152  31.584  14.905
44955W        W17380  23.636  37.972  13.966
44956W        W17381   5.299  16.157  12.975
44957W        W17382  43.506  14.275  14.932
44958W        W17383  38.531  34.058  10.447
44959W        W17384   2.799  25.714   1.293
44960W        W17385  42.828  26.159  13.031
44961W        W17386  13.287   2.328   3.275
44962W        W17387  25.114  25.537  13.821
44963W        W17388  33.048  15.789   1.803
44964W        W17389  42.351  41.454   2.247
44965W        W17390  25.602  40.311   4.331
44966W        W17391  13.311  19.134   2.266
44967W        W17392  18.223  21.101   0.481
44968W        W17393   7.724  18.213  13.409
44969W        W17394  20.639   8.369  13.451
44970W        W17395  14.168  38.002   4.339
44971W        W17396   9.168  15.580   0.403
44972W        W17397   7.343  41.473   0.283
44973W        W17398   6.736  21.077   1.843
44974W        W17399   1.437  30.440   3.250
44975W        W17400  41.907   5.282  12.532
44976W        W17401  30.932  36.900  14.511
44977W        W17402  21.593  20.106  12.961
44978W        W17403  11.849  37.041   4.656
44979W        W17404  12.678   0.352   3.197
44980W        W17405  28.094  28.093   9.941
44981W        W17406  43.771   3.943   4.263
44982W        W17407   9.289  35.960  11.496
44983W        W17408  16.772  43.446   3.709
44984W        W17409  19.195   4.826   3.666
44985W        W17410  31.499   6.692  11.431
44986W        W17411  15.184   9.235   1.858
44987W        W17412  25.695  27.031  14.922
44988W        W17413   9.272   6.882  12.563
44989W        W17414  36.529  25.211   4.824
44990W        W17415  14.272  15.778   5.223
44991W        W17416  40.488  31.989   2.884
44992W        W17417  43.341  14.281  12.563
44993W        W17418  38.950   4.251  11.585
44994W        W17419   3.216  11.237   1.767
44995W        W17420  17.302  13.264  12.460
44996W        W17421  10.280  39.941   2.669
44997W        W17422  37.884  31.462   0.807
44998W        W17423  15.632  11.272  10.555
44999W        W17424  20.712   9.392   0.400
45000W        W17425   2.337  21.694  10.626
45001W        W17426   0.956  29.950  12.988
45002W        W17427  34.469   5.278  11.085
45003W        W17428  26.074  20.765   3.765
45004W        W17429  20.202   8.237   3.784
45005W        W17430   2.257   5.276  12.365
45006W        W17431  41.448  39.485   4.715
45007W        W17432  44.338  11.222  13.465
45008W        W17433  31.151   1.968   4.215
45009W        W17434  35.877  33.562  12.992
45010W        W17435   3.724  11.128   0.847
45011W        W17436  34.996  19.040  13.463
45012W        W17437  28.174  32.032   3.248
45013W        W17438  28.525   0.445  14.887
45014W        W17439  28.570  17.676   4.759
45015W        W17440  24.225  38.406   4.259
45016W        W17441  31.461  34.084  13.461
45017W        W17442   7.330  37.846   5.309
45018W        W17443  33.546  35.069   0.749
45019W        W17444  39.490  29.073  13.936
45020W        W17445  42.793   1.917   1.796
45021W        W17446   3.246   6.399  12.396
45022W        W17447  44.986  44.008   0.391
45023W        W17448   2.859   4.269   4.203
45024W        W17449  16.689  10.765   4.813
45025W        W17450  15.109  19.744  10.621
45026W        W17451  31.937  27.582  11.904
45027W        W17452  42.349  31.927  12.508
45028W        W17453  22.608  30.638  11.056
45029W        W17454   2.859  13.271  13.395
45030W        W17455   9.756  28.561  14.417
45031W        W17456   7.356  21.729   0.925
45032W        W17457   8.314  35.023  13.505
45033W        W17458   4.277  43.494  10.978
45034W        W17459  17.689  44.409  14.837
45035W        W17460  13.636  32.123  14.484
45036W        W17461  41.441   0.767  12.004
45037W        W17462  11.863  36.087  14.818
45038W        W17463  36.900  44.853   4.324
45039W        W17464  42.975  40.941  11.056
45040W        W17465   4.800  44.399   5.177
45041W        W17466  32.072  40.048  12.860
45042W        W17467  20.730   7.282  11.542
45043W        W17468  34.497  27.636  12.016
45044W        W17469  24.998  34.381   3.323
45045W        W17470  13.700   2.932   4.192
45046W        W17471  32.538   9.660   1.391
45047W        W17472  25.095  21.564  11.568
45048W        W17473   4.385   5.238   3.756
45049W        W17474  20.038  25.065  13.469
45050W        W17475  44.288  24.667  12.049
45051W        W17476   1.941   4.729   2.880
45052W        W17477   1.826  21.737   0.941
45053W        W17478  27.984  38.827  13.461
45054W        W17479   8.370  21.516   0.878
45055W        W17480  10.827  35.056   2.395
45056W        W17481  41.450   9.308  12.082
45057W        W17482   1.931  21.253   4.252
45058W        W17483   2.262  44.889   4.750
45059W        W17484  11.349   9.309  11.372
45060W        W17485  35.453  34.962  14.861
45061W        W17486  31.107  32.999  13.501
45062W        W17487  39.485  27.562  14.857
45063W        W17488  23.129  16.170   2.401
45064W        W17489  20.625   0.974   1.265
45065W        W17490  28.556  17.692   4.259
45066W        W17491   9.774   7.198  14.028
45067W        W17492  29.625  38.385   2.864
45068W        W17493   3.385  21.700  10.958
45069W        W17494  23.683  28.046   0.481
45070W        W17495  44.778  34.111  13.902
45071W        W17496  21.259  41.025  14.967
45072W        W17497  34.092  22.676   0.871
45073W        W17498  43.962   0.884   0.269
45074W        W17499  38.341  38.433  11.574
45075W        W17500  13.684  30.625  12.428
45076W        W17501  31.069   8.401  10.606
45077W        W17502  34.469   0.347  13.930
45078W        W17503  35.366  41.451   1.294
45079W        W17504  15.813   2.892   3.680
45080W        W17505   7.229  19.608   1.726
45081W        W17506  25.175  44.410  14.810
45082W        W17507  35.093  21.150   1.862
45083W        W17508  19.580  40.924   2.253
45084W        W17509   6.907  39.832  14.026
45085W        W17510  41.012  33.884   4.599
45086W        W17511  29.468  15.104   0.400
45087W        W17512   5.333  41.434   4.251
45088W        W17513  35.476  23.148   0.822
45089W        W17514  40.988   3.716   2.244
45090W        W17515   0.962  21.087  13.412
45091W        W17516  25.648  42.981  11.005
45092W        W17517  29.172  36.476   0.787
45093W        W17518  17.146   6.377  10.517
45094W        W17519  43.459  29.998   3.674
45095W        W17520  10.319   2.933   4.608
45096W        W17521  44.275  19.083   4.773
45097W        W17522  34.615  18.742  10.622
45098W        W17523  31.990  17.132  13.491
45099W        W17524  15.752  21.570   0.279
45100W        W17525  15.691  16.615   0.800
45101W        W17526   8.179  12.668   4.314
45102W        W17527  20.066  42.984  13.842
45103W        W17528   1.954  36.917   2.818
45104W        W17529  11.839  22.143  10.928
45105W        W17530  20.640  41.924   3.242
45106W        W17531  16.133  42.978  13.038
45107W        W17532  18.739  33.021  11.968
45108W        W17533   3.817  24.104  11.493
45109W        W17534  28.486  22.016   2.713
45110W        W17535  22.615  16.199   3.168
45111W        W17536  16.217  32.889  11.544
45112W        W17537  32.043  21.612   0.478
45113W        W17538  14.122  14.128  12.843
45114W        W17539   8.281   0.974  11.516
45115W        W17540  31.612   9.708  13.399
45116W        W17541  15.107  22.062   2.419
45117W        W17542  26.021   7.826  13.540
45118W        W17543  38.508  36.533  13.911
45119W        W17544  19.231  30.972   2.755
45120W        W17545  22.735  43.999  11.913
45121W        W17546   7.698  19.065  13.914
45122W        W17547  10.270   1.303  12.551
45123W        W17548  40.001  32.054  10.644
45124W        W17549  15.685  18.267   4.281
45125W        W17550  39.324  12.693  10.915
45126W        W17551   1.830   2.748  13.531
45127W        W17552  27.030   7.201  10.413
45128W        W17553  12.185  29.668   1.212
45129W        W17554  29.051  44.795   4.156
45130W        W17555  42.401   8.389   1.303
45131W        W17556   6.182  39.878   2.862
45132W        W17557  24.493  25.102   1.794
45133W        W17558   8.189  14.771  10.427
45134W        W17559  42.332  12.150  13.456
45135W        W17560  30.641  19.654  10.997
45136W        W17561  14.222   8.161   1.849
45137W        W17562  15.586  21.603   0.899
45138W        W17563  19.226  37.415   0.913
45139W        W17564   1.793  28.951   1.833
45140W        W17565  13.828   5.370   4.327
45141W        W17566  20.668  26.579  13.853
45142W        W17567  13.723  43.984  13.437
45143W        W17568  16.215   2.416   1.289
45144W        W17569   8.806  16.633  14.932
45145W        W17570  30.970   2.231   2.399
45146W        W17571  33.085   9.726  13.892
45147W        W17572  21.071  30.443  12.937
45148W        W17573  29.499  29.022  12.018
45149W        W17574   9.716  41.479  11.462
45150W        W17575  41.503   5.884   3.851
45151W        W17576  13.673  37.386  10.576
45152W        W17577   4.811  38.507   3.330
45153W        W17578   0.757  21.094   2.207
45154W        W17579   1.905   1.456  11.472
45155W        W17580  11.171  15.799   4.328
45156W        W17581  10.201   8.760   0.921
45157W        W17582  28.166  11.316  14.958
45158W        W17583  23.086  38.435   2.786
45159W        W17584  21.246  10.661   3.844
45160W        W17585  34.450  33.010   3.364
45161W        W17586  40.897  43.489   2.790
45162W        W17587  21.068   2.285   1.824
45163W        W17588  34.034  23.015   2.178
45164W        W17589  38.433   7.322  10.642
45165W        W17590  37.368  41.489  11.588
45166W        W17591   2.837  24.096  14.423
45167W        W17592   4.304  36.046   2.288
45168W        W17593  21.720  44.389  14.311
45169W        W17594  22.996  18.222  13.509
45170W        W17595  26.138  44.880  12.087
45171W        W17596  38.494   3.745   0.303
45172W        W17597   7.343  42.856   3.686
45173W        W17598  41.788  21.714   0.330
45174W        W17599  34.537  24.660   3.751
45175W        W17600  22.248  25.191   0.826
45176W        W17601  35.396  37.434  11.428
45177W        W17602  28.676  24.682   0.260
45178W        W17603  31.629  29.648  14.032
45179W        W17604  19.210  43.277  13.916
45180W        W17605  10.360  25.198   5.275
45181W        W17606  43.773   0.763  12.920
45182W        W17607   7.839  32.458   3.343
45183W        W17608  32.440  29.523   0.865
45184W        W17609  14.259  22.162   4.234
45185W        W17610  22.618  28.679   1.919
45186W        W17611  36.883  44.848   1.844
45187W        W17612   1.903  14.212  12.030
45188W        W17613  42.353  25.090  10.431
45189W        W17614  32.992  27.136  13.523
45190W        W17615  38.928   8.276   1.241
45191W        W17616  36.545  36.424   0.374
45192W        W17617  31.908  43.399   4.706
45193W        W17618  22.186  33.548   1.922
45194W        W17619   8.664  27.647  10.151
45195W        W17620  33.062  12.235  14.438
45196W        W17621  32.542  24.592  12.529
45197W        W17622  32.955  21.077  14.892
45198W        W17623  19.271   7.195   4.163
45199W        W17624  24.020  10.731  11.528
45200W        W17625  27.568  32.452   3.642
45201W        W17626  26.972   4.790   3.309
45202W        W17627  32.051  28.008   2.306
45203W        W17628  30.524   4.228  11.944
45204W        W17629  41.475  44.816  10.095
45205W        W17630  44.847  32.021  13.012
45206W        W17631   2.412  42.902  10.518
45207W        W17632  24.698  41.413   1.335
45208W        W17633  44.459   1.923  10.476
45209W        W17634  35.477  19.601   1.783
45210W        W17635   7.911  18.554  14.389
45211W        W17636  30.637  28.440  14.971
45212W        W17637  35.379  24.719   3.759
45213W        W17638  40.407  16.309  13.858
45214W        W17639  25.077  17.700   0.812
45215W        W17640   1.309  33.128  13.919
45216W        W17641  42.472  27.149  13.899
45217W        W17642  28.538  38.387   0.940
45218W        W17643   6.723  14.124  13.842
45219W        W17644  28.057  35.880  10.518
45220W        W17645  34.396   0.314  14.333
45221W        W17646  42.491  27.664   3.174
45222W        W17647  23.192  21.749  12.087
45223W        W17648   8.657  26.005   4.325
45224W        W17649  16.609  42.787  14.910
45225W        W17650  14.656  44.455  14.933
45226W        W17651  43.000  14.767  14.371
45227W        W17652   5.424  20.217  11.927
45228W        W17653  18.228   3.292   4.699
45229W        W17654  29.429  10.223  11.122
45230W        W17655  15.679  23.513  14.329
45231W        W17656  17.640  40.464   1.330
45232W        W17657  37.921  14.305  13.334
45233W        W17658  20.047  44.891   0.920
45234W        W17659  24.719  26.144   1.304
45235W        W17660  29.527  23.027   3.386
45236W        W17661  34.418   7.345   4.309
45237W        W17662  22.592   2.354   4.746
45238W        W17663  19.247  14.296  12.454
45239W        W17664  10.299  43.915  11.952
45240W        W17665   5.727  29.096   3.147
45241W        W17666  21.136   9.301  13.511
45242W        W17667  27.637   7.699   3.739
45243W        W17668  21.243  24.578  14.021
45244W        W17669  29.603  10.736   3.224
45245W        W17670  19.212  29.453   1.886
45246W        W17671  29.499  32.560  14.819
45247W        W17672  18.259  20.059   2.862
45248W        W17673  16.658  13.705  11.548
45249W        W17674  17.771  14.335   1.391
45250W        W17675  38.000  38.342  12.901
45251W        W17676  20.213   2.281  12.399
45252W        W17677  29.614  42.386   1.313
45253W        W17678  37.982  39.814  11.454
45254W        W17679  44.974  13.690  14.883
45255W        W17680  34.428  21.612   2.278
45256W        W17681  37.461   6.252   3.816
45257W        W17682  11.640   4.433   2.879
45258W        W17683  32.507  19.166  10.411
45259W        W17684  31.511  26.095  13.493
45260W        W17685  39.045  22.705  11.942
45261W        W17686  27.630  43.949   4.327
45262W        W17687  15.185   9.178  11.011
45263W        W17688  24.000   3.788  12.353
45264W        W17689  41.471  18.115  12.872
45265W        W17690   2.903  40.908  10.985
45266W        W17691  15.306  33.452  14.812
45267W        W17692   0.762   3.401   4.693
45268W        W17693   1.462  29.593  12.911
45269W        W17694   7.313   7.301   0.350
45270W        W17695  25.038  28.525  13.394
45271W        W17696  43.949  19.246   4.805
45272W        W17697  36.504  12.783   1.420
45273W        W17698  27.145  42.474  11.066
45274W        W17699   3.955  44.287   0.916
45275W        W17700  18.719  31.623  11.025
45276W        W17701  38.929   1.737   3.340
45277W        W17702  27.144   4.811  12.402
45278W        W17703  14.187  16.127  10.594
45279W        W17704   4.298  39.021   3.385
45280W        W17705  18.081   5.420   4.709
45281W        W17706  39.881   4.307  10.620
45282W        W17707   9.820   9.802  14.405
45283W        W17708  37.998   8.367  12.344
45284W        W17709  25.006  29.665  14.371
45285W        W17710   0.410   7.292  12.977
45286W        W17711  18.760  35.492  13.856
45287W        W17712  43.430  38.870  11.863
45288W        W17713  11.849  30.104   0.959
45289W        W17714   7.345  33.434   4.335
45290W        W17715  11.688   1.798   0.469
45291W        W17716  29.094  11.292  13.916
45292W        W17717  31.586   3.946  12.539
45293W        W17718   4.320  27.626  13.468
45294W        W17719  32.096   8.312   4.811
45295W        W17720  17.250  39.443  10.571
45296W        W17721  14.825  20.539  14.850
45297W        W17722  31.615  23.013   1.415
45298W        W17723  36.885  30.090  10.601
45299W        W17724  13.198  32.455   0.280
45300W        W17725   5.922  21.211  12.548
45301W        W17726  33.515   5.298  11.001
45302W        W17727  17.287  29.477   3.865
45303W        W17728  44.376   7.725   2.369
45304W        W17729  30.073  44.833  10.609
45305W        W17730   7.709  13.733  12.095
45306W        W17731  19.103  32.455   5.728
45307W        W17732   9.772  38.412  11.888
45308W        W17733  33.004  32.133   4.280
45309W        W17734  16.689  39.436  13.999
45310W        W17735  41.920  29.063  13.515
45311W        W17736  27.504   8.756  12.419
45312W        W17737  32.540  25.967   0.327
45313W        W17738  36.946  38.978  14.005
45314W        W17739  17.687  25.113   2.234
45315W        W17740  10.223   9.693   1.403
45316W        W17741  18.270  28.568   2.247
45317W        W17742  35.476  38.478  13.977
45318W        W17743  30.539  34.458  12.831
45319W        W17744  23.657  30.575  13.983
45320W        W17745  23.070   8.180   4.272
45321W        W17746  35.050  34.087  13.364
45322W        W17747  40.917  18.628  13.865
45323W        W17748  43.997  23.600   2.348
45324W        W17749  39.534   2.354  10.558
45325W        W17750  42.807  21.108  14.994
45326W        W17751  33.008  36.974   4.188
45327W        W17752  19.604  18.279  11.063
45328W        W17753  26.140  40.852  14.412
45329W        W17754   2.748  35.033   1.866
45330W        W17755  40.350  18.078  10.042
45331W        W17756  34.588  41.891  13.311
45332W        W17757  17.075  17.671  11.509
45333W        W17758  23.149  21.120  13.342
45334W        W17759  19.753  26.596  12.412
45335W        W17760  21.587  13.726   4.218
45336W        W17761  10.271   9.246   9.489
45337W        W17762  26.530  31.112  10.510
45338W        W17763  12.235  28.434   2.829
45339W        W17764  30.467   6.817   2.411
45340W        W17765   8.336  38.456   2.742
45341W        W17766  21.114  37.386   1.292
45342W        W17767  24.625  35.078   0.834
45343W        W17768  17.155  22.627  12.050
45344W        W17769  28.560  16.699   1.259
45345W        W17770  15.702  19.233  14.763
45346W        W17771  41.791  35.997   2.849
45347W        W17772  10.681  22.125   1.343
45348W        W17773  13.748  42.986   2.259
45349W        W17774   9.773  36.853   3.787
45350W        W17775  31.600   4.829  10.586
45351W        W17776  21.168   3.275  10.120
45352W        W17777  40.037  44.263  13.805
45353W        W17778  36.437   4.327   4.151
45354W        W17779  37.035  19.552   0.286
45355W        W17780  32.395  28.640   2.243
45356W        W17781  16.720  24.048   1.231
45357W        W17782  12.782  15.097  14.903
45358W        W17783  21.226  38.454   3.217
45359W        W17784  31.506   4.332  13.873
45360W        W17785  37.043  41.866  12.569
45361W        W17786   1.450  42.363  10.948
45362W        W17787   8.370  35.473  13.034
45363W        W17788  35.568  40.834   1.261
45364W        W17789  13.621  24.525  10.058
45365W        W17790   2.908  36.090   3.656
45366W        W17791   5.801   3.461   0.448
45367W        W17792  21.518   2.876   2.824
45368W        W17793   6.715  25.199   1.333
45369W        W17794  28.983  20.126  14.904
45370W        W17795   8.367  22.227   2.346
45371W        W17796   8.789  24.031   0.378
45372W        W17797  37.503  12.682  10.560
45373W        W17798  19.563  43.274  13.320
45374W        W17799  27.517  10.140  12.380
45375W        W17800   5.334  21.709  11.970
45376W        W17801   4.236  39.841  11.591
45377W        W17802  37.404  18.622  12.963
45378W        W17803  40.922  17.766  10.952
45379W        W17804  34.031  32.476   3.276
45380W        W17805   2.774  10.236  14.990
45381W        W17806  23.101  15.289   4.222
45382W        W17807  33.501  25.113  12.891
45383W        W17808   1.855   7.890  14.427
45384W        W17809  33.435   3.719   4.158
45385W        W17810  20.228  28.489   3.293
45386W        W17811  17.577   9.813   4.185
45387W        W17812   2.421  43.858   2.178
45388W        W17813  21.656   5.208  11.980
45389W        W17814  19.656  18.137   1.214
45390W        W17815   4.226  26.591   2.358
45391W        W17816  19.185  29.072   3.799
45392W        W17817  27.651  37.917   4.332
45393W        W17818  17.244  16.783  12.350
45394W        W17819  18.680  16.701   4.718
45395W        W17820  29.523  31.459  13.469
45396W        W17821   7.389  11.653  13.034
45397W        W17822   4.819  33.468  12.914
45398W        W17823  20.704  16.749  14.010
45399W        W17824   7.190  10.676   0.421
45400W        W17825   1.354   3.778  12.024
45401W        W17826  18.657  28.015  14.403
45402W        W17827   3.831  33.475   2.337
45403W        W17828  19.141  24.544  10.578
45404W        W17829  44.856  21.699  14.334
45405W        W17830  16.257  12.725  11.110
45406W        W17831   7.889  43.982  13.400
45407W        W17832   7.258   6.226  14.478
45408W        W17833  21.728  14.776   3.667
45409W        W17834   8.805   3.264   0.765
45410W        W17835  41.838  17.156  12.464
45411W        W17836   5.354   7.351   2.797
45412W        W17837   8.861  28.013  11.379
45413W        W17838  41.923  26.692  11.540
45414W        W17839  21.696  20.737   3.787
45415W        W17840   8.387  13.764   0.251
45416W        W17841   1.973  33.911   1.929
45417W        W17842  20.599  18.281  10.635
45418W        W17843  19.762  18.196   4.230
45419W        W17844  12.841  33.883  10.964
45420W        W17845  32.492  34.899   0.904
45421W        W17846  20.060  18.268  14.970
45422W        W17847  11.155  30.540  11.975
45423W        W17848   7.905  43.767  13.991
45424W        W17849  25.121  31.035   1.817
45425W        W17850  42.942  34.421   1.216
45426W        W17851   3.931  27.056   3.323
45427W        W17852   8.378  21.069   3.385
45428W        W17853   9.760   3.353   2.897
45429W        W17854  26.125   1.827  13.325
45430W        W17855  41.334  31.101   0.390
45431W        W17856   3.745  42.341  14.764
45432W        W17857  23.171  30.645   1.740
45433W        W17858  37.576  30.944  12.368
45434W        W17859  20.131  31.051  14.964
45435W        W17860  39.429  33.488   0.304
45436W        W17861  22.200  40.903   0.363
45437W        W17862   4.385  12.711  14.021
45438W        W17863  32.017  13.687  14.436
45439W        W17864  21.168  29.452  14.831
45440W        W17865   3.239   8.345  14.276
45441W        W17866  23.649  42.468  14.929
45442W        W17867  11.704   5.330  12.473
45443W        W17868  34.929  44.272  13.510
45444W        W17869  39.975  14.640  14.960
45445W        W17870  11.838  19.178   3.306
45446W        W17871  33.388  34.394   0.387
45447W        W17872  23.731  27.651  12.916
45448W        W17873  18.080  24.697   3.833
45449W        W17874   8.235  41.017   4.173
45450W        W17875  37.942  36.917  14.507
45451W        W17876  44.278  14.674   3.698
45452W        W17877  44.437  29.588  14.406
45453W        W17878  35.470  38.454   0.794
45454W        W17879  27.147   0.308   3.697
45455W        W17880  31.146  34.111   4.777
45456W        W17881  12.678  14.808   4.805
45457W        W17882  44.876   4.819  13.923
45458W        W17883  39.840  10.774  11.968
45459W        W17884  39.009  39.359  10.614
45460W        W17885  37.071  19.245   4.822
45461W        W17886   5.321  43.509  13.541
45462W        W17887  16.710  21.598   1.229
45463W        W17888   7.759  24.130  10.952
45464W        W17889  30.594  32.450   0.371
45465W        W17890  36.535  23.052  12.853
45466W        W17891   5.700  39.395   2.179
45467W        W17892  27.563   9.709   0.839
45468W        W17893  44.995  37.964   2.275
45469W        W17894  23.665  33.538  14.414
45470W        W17895  30.962  30.071   1.229
45471W        W17896  34.875  26.667  12.354
45472W        W17897  31.546  22.048   1.405
45473W        W17898   3.792  38.539   1.226
45474W        W17899  36.987  23.614   4.134
45475W        W17900  30.085  12.748  14.293
45476W        W17901   0.397  20.632   2.217
45477W        W17902  23.091  27.613   2.803
45478W        W17903  20.604   0.963   3.344
45479W        W17904  41.322  40.984   1.885
45480W        W17905  30.058  21.124  10.549
45481W        W17906  30.148  27.979  10.458
45482W        W17907  39.422   0.347  14.463
45483W        W17908   4.407  39.537   1.817
45484W        W17909  31.128  38.407   4.207
45485W        W17910  29.094   4.220  11.976
45486W        W17911  20.704  14.154   0.746
45487W        W17912   4.706   5.303   1.393
45488W        W17913  16.089  33.494  11.038
45489W        W17914  41.786  21.044   4.603
45490W        W17915   7.370  38.520  13.516
45491W        W17916  31.534  10.276  12.533
45492W        W17917  26.129  34.573   3.309
45493W        W17918  13.722  32.920  11.935
45494W        W17919   3.344  15.142  13.866
45495W        W17920  40.987  43.277   3.353
45496W        W17921   4.911  36.533  14.426
45497W        W17922  10.794  32.968  14.971
45498W        W17923  17.760  15.652   4.190
45499W        W17924  11.155  39.386   0.756
45500W        W17925  41.478  44.400   1.868
45501W        W17926  33.523  37.552   3.650
45502W        W17927  38.987  33.560   3.360
45503W        W17928  17.230  12.127  14.812
45504W        W17929  13.299  31.991  14.995
45505W        W17930   6.846  31.129  13.923
45506W        W17931  38.981  28.984  12.848
45507W        W17932  11.690  22.542   3.753
45508W        W17933  33.039  31.585   3.244
45509W        W17934  35.867  32.505  11.123
45510W        W17935  30.935  20.575  12.000
45511W        W17936  41.811   2.767   4.231
45512W        W17937  12.701  28.516   2.407
45513W        W17938   4.733  12.645  11.115
45514W        W17939  13.123  37.054  14.028
45515W        W17940  37.485  15.313  12.905
45516W        W17941   2.840  35.099   4.732
45517W        W17942   0.489  15.583   4.657
45518W        W17943  20.597   1.928   4.250
45519W        W17944   8.743  29.149   4.183
45520W        W17945   6.768  41.875   3.856
45521W        W17946  10.812   8.352   0.347
45522W        W17947  13.314   7.696  14.790
45523W        W17948   9.303  15.783   3.769
45524W        W17949   9.728  38.418   4.149
45525W        W17950  29.986  34.580  13.375
45526W        W17951  20.153  36.381   2.844
45527W        W17952  40.413   0.461  13.876
45528W        W17953  24.165  29.455  14.958
45529W        W17954   8.874  32.393  13.347
45530W        W17955  26.009  33.993  12.027
45531W        W17956  42.318  11.284   4.775
45532W        W17957  10.749   1.789   3.159
45533W        W17958  30.554  18.585  11.459
45534W        W17959  25.522   8.774   4.316
45535W        W17960  15.683   5.807  12.852
45536W        W17961   2.745  32.614  11.980
45537W        W17962   3.820   5.270  14.441
45538W        W17963  33.520  25.218   4.347
45539W        W17964  33.114  36.559  14.503
45540W        W17965   2.914  28.949   4.604
45541W        W17966   5.315  18.089   3.641
45542W        W17967  11.812  31.075   4.805
45543W        W17968  29.571   9.275  13.857
45544W        W17969  29.598   3.869   4.824
45545W        W17970   7.899  17.230  11.875
45546W        W17971   5.349  24.023  14.295
45547W        W17972   4.387  43.963  11.973
45548W        W17973   0.260  15.201   1.443
45549W        W17974  21.240  11.136  14.359
45550W        W17975  25.572  18.715  12.510
45551W        W17976  29.104   3.825   1.350
45552W        W17977  18.676   4.271  11.553
45553W        W17978  36.350  10.370   4.224
45554W        W17979  37.873   3.800   4.258
45555W        W17980   8.843   7.257   3.690
45556W        W17981  31.932  44.833  14.803
45557W        W17982  20.707  23.703   0.444
45558W        W17983  33.945   7.305   3.646
45559W        W17984  30.472   0.268  14.944
45560W        W17985  33.456  12.651   2.307
45561W        W17986  34.949  35.487   3.157
45562W        W17987  20.083  41.895   3.662
45563W        W17988  34.558  38.894  10.491
45564W        W17989  42.883  14.289  11.052
45565W        W17990   6.321  28.628   4.350
45566W        W17991  14.751  23.654   1.211
45567W        W17992  35.405  43.810  10.981
45568W        W17993  25.100  11.298  12.578
45569W        W17994  24.095  32.567   0.846
45570W        W17995  25.096   7.180   1.703
45571W        W17996  24.982   2.898  14.376
45572W        W17997  14.120   7.721  12.428
45573W        W17998  18.282   3.288  11.004
45574W        W17999  36.893  35.381   4.714
45575W        W18000  41.442  44.497  10.023
45576W        W18001   1.346  38.399   4.316
45577W        W18002  15.741   0.337  10.093
45578W        W18003  33.079  37.339  13.435
45579W        W18004   5.305  17.571  13.923
45580W        W18005  24.987  33.402   1.344
45581W        W18006  25.551  16.618   0.918
45582W        W18007  38.567  36.470  14.355
45583W        W18008  10.636  28.562  11.526
45584W        W18009   8.278  14.667   3.365
45585W        W18010  33.468  24.022  12.828
45586W        W18011  37.436  37.543  12.464
45587W        W18012  40.518  18.177  12.078
45588W        W18013   0.846   8.686   1.835
45589W        W18014  11.373   5.789   0.754
45590W        W18015  43.008  33.464   1.729
45591W        W18016  38.947  38.872   0.448
45592W        W18017  35.373   6.815  13.972
45593W        W18018   8.375  38.544   1.739
45594W        W18019  16.315  24.621  11.925
45595W        W18020  21.155  40.824  11.375
45596W        W18021  30.465   6.769  14.400
45597W        W18022   7.754  11.725   3.812
45598W        W18023  10.212  19.773  10.488
45599W        W18024  25.653  15.735  12.394
45600W        W18025   5.222  22.623   1.384
45601W        W18026  13.618   9.854   2.678
45602W        W18027  19.643  17.793   3.657
45603W        W18028   0.864  41.878  14.819
45604W        W18029  34.943   8.301  10.985
45605W        W18030  31.942  31.950  11.467
45606W        W18031  25.153  24.562   3.659
45607W        W18032  17.087   1.873   0.907
45608W        W18033  33.027  41.971  13.489
45609W        W18034  31.558  14.216  14.911
45610W        W18035  17.597   2.339   1.348
45611W        W18036   9.696  25.560  11.493
45612W        W18037  33.906  19.606  12.529
45613W        W18038  29.102  34.606  10.901
45614W        W18039  27.599   0.284   1.325
45615W        W18040  42.385   7.824  12.511
45616W        W18041   4.720  42.940  11.406
45617W        W18042   6.263  41.294   0.923
45618W        W18043   2.842  26.587   1.445
45619W        W18044  18.681  23.109   2.675
45620W        W18045  15.110  28.513  10.488
45621W        W18046  34.431  20.109  10.551
45622W        W18047   6.895  28.969  12.901
45623W        W18048  28.157  36.927   1.828
45624W        W18049   3.391  34.551   0.350
45625W        W18050  22.626   2.848   1.388
45626W        W18051  42.942  29.160  12.002
45627W        W18052  31.409  24.000  13.415
45628W        W18053   9.378  23.686  13.902
45629W        W18054  31.026  22.106  11.918
45630W        W18055  16.708  25.058  14.406
45631W        W18056  28.184   6.409   0.428
45632W        W18057  36.881  42.354  13.045
45633W        W18058  25.700  33.092  14.020
45634W        W18059  41.000   6.728   3.385
45635W        W18060  16.721  40.433  14.857
45636W        W18061  29.493  20.656   0.819
45637W        W18062  42.867  22.684   3.373
45638W        W18063  43.490  33.586  14.960
45639W        W18064   3.864  35.388  11.061
45640W        W18065  38.385  32.536  12.997
45641W        W18066  17.110  41.334  10.957
45642W        W18067  13.796   7.903   2.726
45643W        W18068  25.667  39.541   0.767
45644W        W18069  14.299  26.586  13.965
45645W        W18070  24.696  17.717  10.967
45646W        W18071  20.541  33.603  14.498
45647W        W18072  17.735  13.270  14.856
45648W        W18073  13.307  39.456  13.823
45649W        W18074  39.902  34.437   2.393
45650W        W18075  42.924  14.273   0.887
45651W        W18076  20.609  30.097  13.866
45652W        W18077   8.318  35.547  12.452
45653W        W18078  37.837  37.342   2.400
45654W        W18079   5.202   6.392  14.845
45655W        W18080   9.393   0.863   4.602
45656W        W18081   4.704  37.014  10.545
45657W        W18082  28.982  42.339  13.461
45658W        W18083  18.183  44.963   2.188
45659W        W18084  22.684  24.646  12.958
45660W        W18085  21.245  34.501   4.255
45661W        W18086  44.795  17.649  12.527
45662W        W18087   9.153  16.072   4.829
45663W        W18088  31.643  15.783   1.382
45664W        W18089  20.591  35.012   3.365
45665W        W18090  34.884  43.978  14.429
45666W        W18091   5.381  15.680   1.823
45667W        W18092  38.822  32.083  11.586
45668W        W18093  22.575  20.090   0.747
45669W        W18094  30.428  10.169  14.800
45670W        W18095  32.996  32.105  11.430
45671W        W18096  39.397  27.950  12.405
45672W        W18097  42.784  24.985  14.919
45673W        W18098   6.773  43.292  11.117
45674W        W18099  26.002   7.330  13.045
45675W        W18100  34.013  29.580   2.399
45676W        W18101  44.807  22.051  12.990
45677W        W18102   1.423   7.674  12.941
45678W        W18103  13.631  26.005  11.032
45679W        W18104  10.651  22.172   2.382
45680W        W18105  24.099  16.579  13.421
45681W        W18106  24.569  21.737  10.478
45682W        W18107  21.634   2.804  13.820
45683W        W18108  17.791  38.050  14.841
45684W        W18109  14.789   3.262  13.802
45685W        W18110  28.182  14.155   4.315
45686W        W18111  12.198  21.601  12.381
45687W        W18112  23.053  31.644  13.442
45688W        W18113   5.916  40.813  11.861
45689W        W18114  32.537  32.409   4.729
45690W        W18115  17.732  37.846  10.443
45691W        W18116  38.459  18.287  10.968
45692W        W18117   6.398   0.454  10.945
45693W        W18118   6.260  22.052  12.997
45694W        W18119  41.422  10.640   1.843
45695W        W18120  33.508  37.977   2.738
45696W        W18121  21.700  25.670   1.863
45697W        W18122  17.718  25.167  14.004
45698W        W18123  27.197   3.436   4.240
45699W        W18124  42.889   5.906  11.440
45700W        W18125  26.018  15.298  12.546
45701W        W18126  10.825   8.396  14.478
45702W        W18127   9.156   4.228  11.940
45703W        W18128  10.635   5.871   5.745
45704W        W18129  21.195  42.028   4.336
45705W        W18130   4.390  23.598   3.342
45706W        W18131  32.887  11.280  11.534
45707W        W18132  40.378  40.969   4.331
45708W        W18133  25.044  33.032   1.891
45709W        W18134  32.566  21.540  11.486
45710W        W18135  34.430  26.663   2.221
45711W        W18136  40.988  15.735   1.716
45712W        W18137  11.772  32.121   4.319
45713W        W18138  33.127  21.114   0.333
45714W        W18139  18.749   0.448  14.956
45715W        W18140   0.843  30.528   1.323
45716W        W18141  20.122  29.634  14.906
45717W        W18142  14.689   2.828   2.378
45718W        W18143  30.585  42.348   4.719
45719W        W18144   2.406  18.561  14.943
45720W        W18145  10.714  42.951  13.332
45721W        W18146  30.982  39.941   4.738
45722W        W18147  23.496  14.604   2.246
45723W        W18148  41.978  39.560   0.741
45724W        W18149  34.462  15.216  11.428
45725W        W18150  43.456  26.565   0.467
45726W        W18151  39.467  21.136  10.534
45727W        W18152  36.985   6.345   2.349
45728W        W18153  24.123   8.665  12.970
45729W        W18154   0.269  17.083   1.880
45730W        W18155  24.018   4.870   5.269
45731W        W18156  43.308  34.908  14.434
45732W        W18157   9.345  26.154  11.057
45733W        W18158  41.891  21.150  14.511
45734W        W18159   6.268  15.234  12.403
45735W        W18160  37.440   5.931  14.311
45736W        W18161  20.219  26.190   0.954
45737W        W18162  17.624  17.664  14.291
45738W        W18163  38.060  16.205  13.329
45739W        W18164  41.393  14.630  14.512
45740W        W18165  17.767  14.782  14.802
45741W        W18166   7.395  43.342  10.640
45742W        W18167   1.838  11.344  14.795
45743W        W18168  35.375  26.468  12.453
45744W        W18169  32.101  22.528  10.994
45745W        W18170   0.277  29.585  11.501
45746W        W18171  24.034  40.030  12.839
45747W        W18172  41.911   4.767   0.818
45748W        W18173  18.088   2.809  11.521
45749W        W18174  32.525  26.043  13.308
45750W        W18175   1.384  39.327  12.550
45751W        W18176  43.016  18.561  12.392
45752W        W18177   3.828  24.610  11.421
45753W        W18178   5.778  36.480   3.216
45754W        W18179  13.843  40.015   0.788
45755W        W18180  29.095  39.959  12.065
45756W        W18181  23.557  23.121  10.519
45757W        W18182  42.010  35.427   0.730
45758W        W18183  35.968   0.449   2.190
45759W        W18184   9.239  42.005  14.924
45760W        W18185  34.941  26.099   1.734
45761W        W18186  28.679   1.367  11.880
45762W        W18187  11.830  22.541   2.329
45763W        W18188  39.549  44.991   3.797
45764W        W18189  30.048   1.888  10.424
45765W        W18190  40.000  28.136  13.443
45766W        W18191  10.710  24.702  14.886
45767W        W18192  30.992  23.102   4.605
45768W        W18193   8.391  41.015   4.752
45769W        W18194  26.072  16.127   2.770
45770W        W18195   7.283  27.638  14.806
45771W        W18196  27.455  40.982  11.443
45772W        W18197  17.798  31.038   1.362
45773W        W18198  28.657  39.404  14.329
45774W        W18199   4.372   8.684  13.048
45775W        W18200   7.405   7.836  12.457
45776W        W18201  25.668  24.048  11.990
45777W        W18202  42.378   3.794   0.359
45778W        W18203  43.976   9.205   2.262
45779W        W18204   4.839  30.654   4.631
45780W        W18205   4.265  39.412   3.784
45781W        W18206   3.807  25.980   1.449
45782W        W18207  40.341  40.423   0.866
45783W        W18208   5.205  10.819  12.549
45784W        W18209   6.343  18.555  14.283
45785W        W18210  37.030  36.480  13.976
45786W        W18211  29.159   7.894   3.220
45787W        W18212  41.984  31.054   1.779
45788W        W18213   0.808  44.395  10.513
45789W        W18214  16.775  27.102  12.578
45790W        W18215  23.234  31.637   0.352
45791W        W18216  11.194  15.708   4.813
45792W        W18217  19.096   9.354   1.401
45793W        W18218  28.537  30.107   9.587
45794W        W18219  17.601  12.163  12.082
45795W        W18220  43.389  36.564   3.844
45796W        W18221  22.616  22.060  12.862
45797W        W18222   8.228   4.934   3.670
45798W        W18223  44.876  11.668   2.882
45799W        W18224  32.928  40.430  12.406
45800W        W18225  24.095   1.761   0.930
45801W        W18226  32.391  17.556  13.857
45802W        W18227  20.110  44.833  11.591
45803W        W18228   0.983   0.820  14.499
45804W        W18229  39.382  39.034   3.719
45805W        W18230   8.175  27.995   0.350
45806W        W18231  22.746  35.103  13.333
45807W        W18232  15.659  22.101   4.606
45808W        W18233  33.587   4.301  14.922
45809W        W18234  19.147  17.133   1.793
45810W        W18235  21.137  34.934   2.252
45811W        W18236  13.779  38.868  11.499
45812W        W18237  10.811  21.538  10.477
45813W        W18238  17.769  44.303  10.897
45814W        W18239  21.097   1.469   2.831
45815W        W18240  33.391  36.576   1.917
45816W        W18241   7.226  35.419  10.063
45817W        W18242   3.224  28.083   1.430
45818W        W18243   3.932  27.671  12.849
45819W        W18244   4.344   1.301  14.889
45820W        W18245  11.144   5.923  14.476
45821W        W18246   6.823   4.944   3.148
45822W        W18247  11.360   7.713  11.989
45823W        W18248  18.611   4.729   2.385
45824W        W18249   2.886  30.500   2.864
45825W        W18250  34.061  33.457  12.088
45826W        W18251  42.480  20.549  10.540
45827W        W18252  12.196   2.844  13.315
45828W        W18253  25.707  13.211  11.948
45829W        W18254   7.892  20.578   1.790
45830W        W18255  41.019   3.325  14.429
45831W        W18256  31.013   1.247  13.825
45832W        W18257  14.094   3.946  12.893
45833W        W18258   7.364  14.767  13.850
45834W        W18259  25.659  21.255   2.734
45835W        W18260   4.247   4.937  14.000
45836W        W18261  12.657  21.058   1.418
45837W        W18262  28.521  31.995  13.519
45838W        W18263  14.172  19.129   2.291
45839W        W18264  42.354   2.329   2.665
45840W        W18265  11.861   1.861  13.465
45841W        W18266   4.788  25.965   1.781
45842W        W18267  28.080  24.197  14.905
45843W        W18268  37.378  31.068  11.868
45844W        W18269  30.437  43.457   0.842
45845W        W18270  43.503  19.149  14.510
45846W        W18271  33.430  20.048  12.433
45847W        W18272  42.786   3.317   3.841
45848W        W18273  25.585  16.655   3.296
45849W        W18274   3.432   4.238   3.341
45850W        W18275  16.747   0.809   2.779
45851W        W18276  29.560  29.021   4.352
45852W        W18277  44.335   8.882   3.307
45853W        W18278  24.533   4.238   0.952
45854W        W18279  19.705   3.837   0.951
45855W        W18280  16.662  15.204   4.655
45856W        W18281   2.381  18.680  14.470
45857W        W18282  16.572   2.325  10.486
45858W        W18283   4.859   4.412   2.297
45859W        W18284  29.571  34.604   3.167
45860W        W18285  32.889  26.021  14.982
45861W        W18286   1.381  21.020  12.833
45862W        W18287   6.913   8.345   3.199
45863W        W18288  44.974   6.805  10.623
45864W        W18289  16.273  33.875   4.124
45865W        W18290  13.173  18.545  14.010
45866W        W18291   9.834  34.484   4.308
45867W        W18292   6.867  30.979   2.252
45868W        W18293  39.829  14.745  11.462
45869W        W18294  28.480  27.465   4.608
45870W        W18295  41.451  35.476   3.213
45871W        W18296  23.493  17.694  11.475
45872W        W18297  10.872  10.712  10.574
45873W        W18298  27.035  19.101  14.364
45874W        W18299  41.529   7.346  13.491
45875W        W18300  44.447  21.203  11.380
45876W        W18301  14.691  12.792   2.762
45877W        W18302  18.626   6.342  10.516
45878W        W18303  21.643  25.643  14.023
45879W        W18304  16.627  13.109  13.973
45880W        W18305   1.246  33.402  13.327
45881W        W18306   1.974  28.937  12.530
45882W        W18307   1.285  25.629  14.493
45883W        W18308  36.536  22.740  12.846
45884W        W18309  24.482  41.938  14.007
45885W        W18310   4.728   5.262  13.858
45886W        W18311  26.505  39.558  11.439
45887W        W18312  37.970   7.323   4.346
45888W        W18313  20.624  28.078   2.384
45889W        W18314  27.653  43.842  14.507
45890W        W18315  39.992   9.149   1.796
45891W        W18316  21.151  11.841  13.962
45892W        W18317  24.610  18.693  13.840
45893W        W18318  28.572   5.918  13.321
45894W        W18319  43.788   4.438  11.498
45895W        W18320  14.165  10.308  13.547
45896W        W18321  22.587  22.628  14.478
45897W        W18322   8.805   7.792  12.917
45898W        W18323  14.118  29.427  10.473
45899W        W18324  27.084  33.982  13.805
45900W        W18325  30.161   6.914  14.484
45901W        W18326  35.435  32.133   1.217
45902W        W18327  36.071  29.605   1.798
45903W        W18328  37.895  30.453   1.896
45904W        W18329  28.184  12.178  14.472
45905W        W18330  38.435   8.299   1.254
45906W        W18331  15.112   6.867   3.211
45907W        W18332   6.906  10.284  12.871
45908W        W18333  44.502  36.468  14.277
45909W        W18334   0.343  43.462  12.828
45910W        W18335  38.971  29.058  12.387
45911W        W18336   1.264   3.455  12.955
45912W        W18337  38.829  18.070  12.447
45913W        W18338  16.153   6.303  11.390
45914W        W18339  35.936  16.683   2.197
45915W        W18340  23.504  42.462  13.922
45916W        W18341   8.400   2.298  12.875
45917W        W18342   7.726  13.152  13.419
45918W        W18343  24.011   1.335   0.266
45919W        W18344  29.481   9.740   1.414
45920W        W18345  33.490  40.306  11.580
45921W        W18346  14.156  42.881   2.351
45922W        W18347  21.088  13.204   2.667
45923W        W18348  42.010  44.008  10.016
45924W        W18349   8.323  32.107   5.178
45925W        W18350  10.327  25.031   4.130
45926W        W18351  19.616  19.281  13.851
45927W        W18352  19.167  11.322   1.268
45928W        W18353   4.338   4.316   0.340
45929W        W18354  12.322  21.737  13.944
45930W        W18355   2.946  12.625  14.997
45931W        W18356   7.789  10.301   0.287
45932W        W18357  36.916  42.373  13.437
45933W        W18358  19.173   2.901  11.052
45934W        W18359  37.974  27.080  13.458
45935W        W18360  20.230  33.931   4.195
45936W        W18361  14.228   5.863   1.435
45937W        W18362  22.721  25.188  13.523
45938W        W18363  25.098  29.427   3.790
45939W        W18364   8.371  27.082   1.310
45940W        W18365  40.983  33.043  11.533
45941W        W18366   7.241  40.835   4.263
45942W        W18367  21.168   8.852  13.841
45943W        W18368  37.387  22.074  13.013
45944W        W18369   7.278  37.352   0.400
45945W        W18370   1.467   7.905  11.939
45946W        W18371  34.120  20.585  14.021
45947W        W18372  32.111  41.394   4.781
45948W        W18373  36.515  13.248   1.865
45949W        W18374  44.939  29.080   2.320
45950W        W18375  17.676  25.491  11.557
45951W        W18376  41.796  12.822   2.822
45952W        W18377  35.013  14.260   2.809
45953W        W18378  13.289  22.562  14.441
45954W        W18379  34.014   7.742   1.820
45955W        W18380  22.674  15.224  13.438
45956W        W18381  25.605   5.413  14.411
45957W        W18382  30.027  13.715   2.767
45958W        W18383  43.473  26.104  14.828
45959W        W18384  11.254  39.428   1.883
45960W        W18385  23.069  21.514  12.902
45961W        W18386  11.248  33.551  11.596
45962W        W18387  29.967  24.132   3.281
45963W        W18388  27.176  25.132  13.842
45964W        W18389  28.588  15.195   0.852
45965W        W18390  39.391  18.726   0.758
45966W        W18391   4.285  15.137  10.982
45967W        W18392  31.639   4.844   3.340
45968W        W18393  37.029  27.051   0.731
45969W        W18394  14.291  41.838   0.369
45970W        W18395  16.634  30.424  12.861
45971W        W18396  41.328  12.717   2.347
45972W        W18397  25.997  39.062   0.454
45973W        W18398   9.154  28.548   2.801
45974W        W18399   2.907   9.284   1.868
45975W        W18400  41.339  37.854  13.041
45976W        W18401  19.739  13.206   3.338
45977W        W18402  26.026  25.631  11.477
45978W        W18403  20.262  38.879  11.860
45979W        W18404  10.243  30.029   0.467
45980W        W18405  41.851   7.196   0.279
45981W        W18406  32.411  10.676  10.470
45982W        W18407   0.955  42.844  14.347
45983W        W18408  28.180  22.217  12.410
45984W        W18409  16.606  18.210  12.938
45985W        W18410   1.300  32.429   2.300
45986W        W18411  37.366  23.138   0.790
45987W        W18412  32.446   4.814  10.981
45988W        W18413  34.067  17.240   1.887
45989W        W18414   1.366  36.946  14.321
45990W        W18415  43.444  16.592  10.526
45991W        W18416  19.068  27.137   1.892
45992W        W18417   7.182  17.648  12.499
45993W        W18418   3.801  26.038   0.816
45994W        W18419   8.754  38.388   0.853
45995W        W18420  43.851  31.937   0.302
45996W        W18421  11.843  35.520   4.152
45997W        W18422  13.109  38.829  13.969
45998W        W18423  21.627  10.770  13.043
45999W        W18424   3.233   9.330  10.949
46000W        W18425  31.551  21.259  11.103
46001W        W18426   7.209  31.459   3.190
46002W        W18427  41.296  36.440   2.730
46003W        W18428  26.556  11.246   0.390
46004W        W18429  30.980   0.796   4.328
46005W        W18430  20.532  11.646   1.913
46006W        W18431  20.650  32.090   3.192
46007W        W18432   3.371  29.948   4.161
46008W        W18433  27.950   4.233  12.497
46009W        W18434   2.764  37.974  10.413
46010W        W18435  19.265   3.803   4.684
46011W        W18436  21.048  27.107   0.309
46012W        W18437   8.793  28.977   1.295
46013W        W18438  42.877  22.016   3.291
46014W        W18439  23.610  30.027   0.256
46015W        W18440  27.605  27.144  12.063
46016W        W18441  41.325  34.546   3.763
46017W        W18442  11.757  10.729   4.344
46018W        W18443  26.953  36.940  11.085
46019W        W18444  41.862  44.911   4.309
46020W        W18445   5.768  39.031  14.000
46021W        W18446  36.431   7.722  10.505
46022W        W18447  35.511  26.082  12.992
46023W        W18448   8.839  33.063   0.282
46024W        W18449  14.597   3.282   2.665
46025W        W18450  14.718   0.809   2.244
46026W        W18451   1.337  26.493   3.182
46027W        W18452  11.785  29.037   4.153
46028W        W18453  41.895  43.499  14.365
46029W        W18454  19.059   4.337   1.267
46030W        W18455  18.056  29.982   3.316
46031W        W18456  36.956  24.011  11.560
46032W        W18457  40.402  27.105   0.943
46033W        W18458  21.259  36.073   0.370
46034W        W18459  43.476  36.577  11.101
46035W        W18460   7.870  43.855   4.688
46036W        W18461  10.829  12.852  12.356
46037W        W18462  23.515  18.699   3.298
46038W        W18463  13.230   1.877   5.250
46039W        W18464  10.191  12.135  14.895
46040W        W18465  18.580  17.145   0.956
46041W        W18466  12.613  43.422  12.403
46042W        W18467   0.926  41.377  13.352
46043W        W18468   3.792  12.238  14.348
46044W        W18469  20.703  37.069  12.844
46045W        W18470  40.876  34.984   0.450
46046W        W18471   6.420  17.234  12.492
46047W        W18472  20.136  27.021   3.243
46048W        W18473  42.873   1.344   1.837
46049W        W18474  13.168  17.761   4.751
46050W        W18475   8.668  32.599   0.732
46051W        W18476  38.950  13.831  14.790
46052W        W18477  23.207  29.501   4.832
46053W        W18478  19.777  42.527  11.050
46054W        W18479  37.944  32.889   4.338
46055W        W18480  38.958  24.153   0.321
46056W        W18481   1.735  44.845   0.815
46057W        W18482  17.592  34.564   0.786
46058W        W18483  41.810  37.861  11.878
46059W        W18484  27.018  11.670  13.379
46060W        W18485  23.696  13.297  13.993
46061W        W18486  10.638  39.335  14.303
46062W        W18487  43.996  25.592   1.775
46063W        W18488   9.864  27.556   1.430
46064W        W18489  14.611  39.344   4.778
46065W        W18490  30.064  33.509   2.196
46066W        W18491  42.030  43.480   2.732
46067W        W18492  33.586   1.461  10.525
46068W        W18493  20.706  15.288  12.355
46069W        W18494  36.057  44.878  12.980
46070W        W18495  40.834  17.146   1.830
46071W        W18496   4.254  13.809   2.732
46072W        W18497  41.424  41.852   1.845
46073W        W18498  44.864   7.907   4.238
46074W        W18499   8.764  37.082  11.985
46075W        W18500  26.541  42.003  14.504
46076W        W18501  10.702  34.541  11.096
46077W        W18502  42.333  34.895   1.856
46078W        W18503  42.427  38.886   2.201
46079W        W18504  19.212   0.953  14.812
46080W        W18505   0.755  41.330   3.328
46081W        W18506  28.560  14.283   1.800
46082W        W18507  44.386  17.560   1.873
46083W        W18508  28.146  31.640   4.318
46084W        W18509  31.936  40.432   2.343
46085W        W18510  11.830   4.932   2.860
46086W        W18511  29.582  15.767  12.090
46087W        W18512  17.598  24.079   3.387
46088W        W18513   4.390  14.204   2.854
46089W        W18514  38.846  29.523   0.774
46090W        W18515  36.527  26.573   1.427
46091W        W18516  29.098  24.494  12.539
46092W        W18517  41.343   2.413   0.329
46093W        W18518  24.057  15.713  13.017
46094W        W18519  33.087  16.664   3.350
46095W        W18520  12.350  32.603   3.227
46096W        W18521  31.059  22.998   0.755
46097W        W18522  23.635  22.049   0.760
46098W        W18523  29.587  26.209  13.353
46099W        W18524  28.064  39.431  13.980
46100W        W18525  32.607  44.289   3.726
46101W        W18526  39.897  24.154   2.902
46102W        W18527  33.058  22.153  11.520
46103W        W18528  37.960   2.844  13.006
46104W        W18529  10.343  39.043   1.761
46105W        W18530  27.048   9.367  10.547
46106W        W18531  22.594  18.134  13.033
46107W        W18532  28.650  10.200  13.434
46108W        W18533  22.184  42.983   3.694
46109W        W18534  13.126  21.630  13.515
46110W        W18535  24.701  15.756   0.323
46111W        W18536   9.387  34.952  13.995
46112W        W18537   9.302  41.383   3.679
46113W        W18538  23.497  30.975   3.753
46114W        W18539  13.671  34.922  12.979
46115W        W18540   0.796  36.541  10.560
46116W        W18541  22.144   0.360   4.652
46117W        W18542  28.553  29.468   2.334
46118W        W18543  21.244  26.078   2.736
46119W        W18544  35.915  12.256   1.351
46120W        W18545  30.655  21.263   3.212
46121W        W18546  15.139  20.557   4.629
46122W        W18547  19.763  33.571  12.067
46123W        W18548  14.323  16.589  10.422
46124W        W18549  18.615  31.630   4.230
46125W        W18550  35.396  20.752   4.257
46126W        W18551  40.857   5.934  12.353
46127W        W18552  16.757   5.390  14.812
46128W        W18553   8.709  39.950   1.451
46129W        W18554  16.099   8.374   2.673
46130W        W18555  17.286  17.135  14.000
46131W        W18556   4.921  16.793  12.855
46132W        W18557  13.639  38.857   1.278
46133W        W18558  35.916  33.993   0.357
46134W        W18559  23.177  35.586   0.782
46135W        W18560  22.096  20.154   2.709
46136W        W18561  25.684  11.855  12.950
46137W        W18562  43.924  14.793   1.772
46138W        W18563  40.943   1.731  12.479
46139W        W18564  17.130  10.827  12.502
46140W        W18565  29.089  11.193   4.826
46141W        W18566  26.118  30.147   2.829
46142W        W18567   7.908  40.850  10.996
46143W        W18568   9.287  15.805   2.858
46144W        W18569  30.432  44.367   2.759
46145W        W18570  10.852   5.832  10.915
46146W        W18571  13.182  31.490   3.793
46147W        W18572  31.128  37.544  12.850
46148W        W18573  11.827  44.895   3.287
46149W        W18574  34.484  40.378   2.419
46150W        W18575  19.134  39.433   3.352
46151W        W18576  23.101  37.991   1.399
46152W        W18577  29.510  35.881  14.930
46153W        W18578   8.835  25.533   3.821
46154W        W18579  22.630  25.980  12.933
46155W        W18580  13.703  14.121  14.798
46156W        W18581  16.707  20.229   4.293
46157W        W18582  44.802   6.745  14.301
46158W        W18583  26.007  15.211  13.485
46159W        W18584  43.847  36.394  14.825
46160W        W18585  26.594  23.592   1.802
46161W        W18586   0.313  20.589  14.764
46162W        W18587  43.920  10.210  13.820
46163W        W18588   4.258  22.196   4.225
46164W        W18589  34.577  33.514  11.034
46165W        W18590  10.354  36.426  13.931
46166W        W18591  24.027  23.997  14.846
46167W        W18592  18.113   9.309  11.099
46168W        W18593  35.402   5.362   2.886
46169W        W18594  31.990  36.369   2.336
46170W        W18595  33.026  36.072  11.031
46171W        W18596  27.631   3.290  10.983
46172W        W18597  15.720  24.206  11.000
46173W        W18598   5.897  15.726  12.347
46174W        W18599  26.197  18.562  11.554
46175W        W18600  21.232   1.294   3.373
46176W        W18601  21.032  22.577  12.976
46177W        W18602  38.571  18.059   4.635
46178W        W18603  20.754  28.003  13.953
46179W        W18604  20.078  42.833   1.357
46180W        W18605  35.861  34.556   3.155
46181W        W18606   1.441   4.392   2.662
46182W        W18607   2.233  37.467   3.819
46183W        W18608  25.604  15.688   1.236
46184W        W18609  43.780   2.731  14.866
46185W        W18610  44.322   2.924  11.002
46186W        W18611  24.560   8.277   2.409
46187W        W18612   8.364  44.494   2.758
46188W        W18613  15.614  16.739   4.738
46189W        W18614  43.928  32.633  13.542
46190W        W18615  36.870   9.826  11.426
46191W        W18616  32.605  38.854  14.369
46192W        W18617   4.293   7.224  14.482
46193W        W18618  22.061  35.445  14.893
46194W        W18619  35.534  42.900   2.344
46195W        W18620   4.311  43.360  11.434
46196W        W18621  34.513  12.186   2.326
46197W        W18622  43.485  25.107   1.431
46198W        W18623  22.092   9.351   4.614
46199W        W18624  23.033   8.839   1.840
46200W        W18625  13.196  33.112   3.841
46201W        W18626  14.314  43.877   4.820
46202W        W18627  35.889   0.401   3.730
46203W        W18628   9.297   4.914   2.846
46204W        W18629   6.326  32.491   4.320
46205W        W18630  31.536  26.056  13.008
46206W        W18631  40.831  33.916   3.632
46207W        W18632  29.044   2.342  10.983
46208W        W18633   8.796  29.086  10.633
46209W        W18634  39.866   3.931  12.843
46210W        W18635  29.104  36.858   2.250
46211W        W18636  37.935  41.023  11.921
46212W        W18637  18.724  13.703  12.878
46213W        W18638   3.822  38.958  13.409
46214W        W18639  26.624  12.663  14.873
46215W        W18640  11.659  35.961  10.503
46216W        W18641  18.701  33.546   4.182
46217W        W18642  43.769  21.026   4.831
46218W        W18643  26.140  43.507   3.799
46219W        W18644  20.216   9.161  11.419
46220W        W18645  40.874  20.749   0.392
46221W        W18646  36.501  42.464   2.667
46222W        W18647  41.435  32.603  10.489
46223W        W18648  34.957  34.603   3.247
46224W        W18649  36.093  21.743   2.707
46225W        W18650  43.497  36.087  13.443
46226W        W18651   9.307   9.189   3.381
46227W        W18652   4.385   2.802   2.214
46228W        W18653  43.290  34.548  14.986
46229W        W18654   7.174  22.549  13.929
46230W        W18655  19.184  26.507  12.009
46231W        W18656   0.849  43.364   3.326
46232W        W18657  15.182  20.086  12.461
46233W        W18658   5.404  12.140   2.743
46234W        W18659  27.482  20.549   3.720
46235W        W18660  43.446  18.640  10.537
46236W        W18661  10.257  33.006   1.898
46237W        W18662   6.419  28.933  13.328
46238W        W18663   3.735  38.859  14.503
46239W        W18664  25.217  11.299  11.109
46240W        W18665  26.638  31.114  11.076
46241W        W18666   4.320  35.073   2.696
46242W        W18667  19.591  35.525   1.430
46243W        W18668  33.441  21.039   1.251
46244W        W18669  23.197   5.298   1.255
46245W        W18670  10.317  19.184  10.981
46246W        W18671  10.162  27.630   2.727
46247W        W18672   3.232  11.319  12.432
46248W        W18673  42.389  20.154   0.439
46249W        W18674  38.011   4.723  12.428
46250W        W18675  21.129  36.581  12.987
46251W        W18676  29.435  33.947   3.195
46252W        W18677  43.908  21.705   1.250
46253W        W18678  43.291  10.238  11.078
46254W        W18679  18.555  35.600   3.167
46255W        W18680  25.494  23.685   1.819
46256W        W18681  41.787  41.418   9.997
46257W        W18682  21.692  14.232  14.779
46258W        W18683   7.850  16.736  12.842
46259W        W18684   0.761  35.949  12.972
46260W        W18685  15.227   5.203   3.686
46261W        W18686   4.387  25.638   3.155
46262W        W18687  13.243  35.879   4.834
46263W        W18688  36.485  19.264   3.178
46264W        W18689  16.088  30.442  13.512
46265W        W18690  14.168  20.227  12.524
46266W        W18691  26.070  23.520   3.224
46267W        W18692  44.949  27.138  13.055
46268W        W18693  43.459  17.215   0.473
46269W        W18694   7.799  35.457  10.640
46270W        W18695  11.854  36.523   2.324
46271W        W18696  14.158   1.468   2.666
46272W        W18697  41.533  44.332  14.987
46273W        W18698   7.182   5.782  12.411
46274W        W18699  16.107   3.391   2.305
46275W        W18700  40.401  22.566   2.235
46276W        W18701  26.995  31.993  14.406
46277W        W18702  10.311  12.709   4.182
46278W        W18703  15.666  15.088  10.057
46279W        W18704   3.248  32.628  14.003
46280W        W18705  33.016  14.664   4.764
46281W        W18706  27.448  11.230   1.339
46282W        W18707  27.466  36.985   3.221
46283W        W18708  16.182  10.877  11.912
46284W        W18709  36.521  11.775   1.417
46285W        W18710   8.745  34.076   2.221
46286W        W18711  37.952   7.220  10.974
46287W        W18712  44.317  19.217   3.670
46288W        W18713  42.438  33.561  12.039
46289W        W18714   9.291  34.026   0.268
46290W        W18715  22.017  19.274  11.129
46291W        W18716  14.248  31.111   1.246
46292W        W18717  30.471  15.776  14.486
46293W        W18718  37.476  17.299  11.510
46294W        W18719   1.390  22.187   4.666
46295W        W18720  34.959  17.717  13.034
46296W        W18721  28.448  10.375  12.575
46297W        W18722  11.772   6.759   4.697
46298W        W18723  28.480  28.676  13.416
46299W        W18724   2.315   9.275   2.399
46300W        W18725  23.200  13.330  11.608
46301W        W18726  19.716   4.883   0.887
46302W        W18727  42.825   8.686   1.242
46303W        W18728  17.680  34.989  14.334
46304W        W18729  26.495  20.644   1.846
46305W        W18730  12.204  35.938   3.320
46306W        W18731  12.747   4.705  14.881
46307W        W18732  35.480  16.778   0.919
46308W        W18733   2.249  34.430   4.614
46309W        W18734  39.053  32.094  14.921
46310W        W18735  37.395  15.249  13.480
46311W        W18736   6.405  13.191   2.849
46312W        W18737  30.144  40.525   0.394
46313W        W18738  39.375  43.416   0.917
46314W        W18739   9.745  14.249   3.787
46315W        W18740  31.469   1.735  14.380
46316W        W18741  20.151  20.593  12.399
46317W        W18742  26.541  13.144   5.267
46318W        W18743   9.776  25.077   3.744
46319W        W18744  28.556   4.770  12.049
46320W        W18745  11.845  12.186   2.864
46321W        W18746   5.754  10.312   0.412
46322W        W18747  16.148  40.325   4.695
46323W        W18748  28.935  18.270  10.891
46324W        W18749  36.488   0.389  12.490
46325W        W18750  35.920  44.368  10.479
46326W        W18751  33.887  38.887   3.265
46327W        W18752  30.081   9.697  14.502
46328W        W18753   6.342  26.119  14.946
46329W        W18754   6.696  19.615   0.340
46330W        W18755  12.733  16.675  13.548
46331W        W18756  19.704  44.470   2.298
46332W        W18757   4.852   0.912   0.850
46333W        W18758   3.781  43.467  14.362
46334W        W18759   7.892  24.494  13.827
46335W        W18760  33.012  40.859  14.919
46336W        W18761  27.672  10.227   3.168
46337W        W18762  31.100   0.989   3.232
46338W        W18763  34.554  35.018  11.406
46339W        W18764  17.657  24.645  11.992
46340W        W18765  18.725  28.185  10.078
46341W        W18766  44.441  10.157  14.824
46342W        W18767  44.263  41.396   2.218
46343W        W18768   4.400  22.674   4.788
46344W        W18769  35.577  23.671  11.588
46345W        W18770   7.689   3.776  13.451
46346W        W18771   2.361  42.453   2.731
46347W        W18772   1.440   9.202  14.870
46348W        W18773  40.392  16.188   0.744
46349W        W18774   2.760  41.041   0.856
46350W        W18775   1.820  38.967   4.727
46351W        W18776  25.523   6.418  11.870
46352W        W18777   1.245   6.304   2.754
46353W        W18778  10.824  13.622  13.895
46354W        W18779  11.318  44.504   3.226
46355W        W18780  37.561  34.466   3.754
46356W        W18781  22.559  35.460  12.450
46357W        W18782  36.969   4.849  12.539
46358W        W18783  35.099  37.932  11.573
46359W        W18784  29.439  30.143  11.426
46360W        W18785   2.773   8.898  12.902
46361W        W18786  38.061  18.055  14.281
46362W        W18787  35.429   5.750  14.760
46363W        W18788  29.067  29.045   3.224
46364W        W18789  43.390  20.112   3.833
46365W        W18790  14.243  22.663   1.792
46366W        W18791  42.291  44.318   1.919
46367W        W18792  28.005  32.407  11.499
46368W        W18793   8.338  11.366   2.709
46369W        W18794   5.425  42.339  12.074
46370W        W18795  11.787  37.083   2.725
46371W        W18796  35.603  13.249  13.363
46372W        W18797  23.210  36.532   1.335
46373W        W18798  19.643  37.341  14.002
46374W        W18799  12.250  25.472   2.189
46375W        W18800   5.846   0.251   3.764
46376W        W18801  33.097  29.645   3.312
46377W        W18802  14.641  34.077   3.272
46378W        W18803  34.004   2.412  11.925
46379W        W18804   7.667  43.778  14.945
46380W        W18805  20.186  22.728  11.991
46381W        W18806  20.130   9.837   0.446
46382W        W18807   9.292  39.012  12.080
46383W        W18808  19.245  30.996   4.681
46384W        W18809   6.722  29.520   2.884
46385W        W18810  28.500  10.150   2.340
46386W        W18811  40.511  23.503  10.966
46387W        W18812  14.138  16.802  13.818
46388W        W18813  15.098  40.308   1.709
46389W        W18814   9.654   8.847  11.074
46390W        W18815   0.775  35.437  11.420
46391W        W18816  28.051  16.630   1.921
46392W        W18817  20.717  37.896   1.256
46393W        W18818  16.241   7.415  12.566
46394W        W18819  16.698   7.704   0.902
46395W        W18820  29.580   3.318   2.225
46396W        W18821  27.009   8.748   1.834
46397W        W18822  27.122   4.270   4.663
46398W        W18823   8.795  28.666   2.856
46399W        W18824   4.239  29.470  13.844
46400W        W18825   5.816  31.007   3.258
46401W        W18826   5.208  33.419   3.686
46402W        W18827  28.467  28.469   4.125
46403W        W18828  26.696   1.447  13.539
46404W        W18829  28.589  13.150  12.422
46405W        W18830  21.528  41.445  13.990
46406W        W18831  37.349  38.933   1.268
46407W        W18832  40.459  12.743  10.155
46408W        W18833  37.968  37.433  11.490
46409W        W18834  18.701  15.587   4.301
46410W        W18835  12.285  40.974   2.790
46411W        W18836  38.399   6.838  14.887
46412W        W18837  25.706   0.353   3.333
46413W        W18838  17.631  17.565   4.136
46414W        W18839  33.618  37.079  14.888
46415W        W18840  43.987  21.560  13.990
46416W        W18841  43.802  40.491   1.323
46417W        W18842  43.011  44.761   3.283
46418W        W18843  36.906  27.637  12.962
46419W        W18844  14.250  39.332   4.173
46420W        W18845   0.929   6.321   1.233
46421W        W18846  43.495   5.351  14.458
46422W        W18847  40.826  11.332  11.095
46423W        W18848  31.631   1.348   4.606
46424W        W18849  12.168  32.563  12.496
46425W        W18850  26.154  13.214   4.207
46426W        W18851  18.217  35.863   0.836
46427W        W18852   3.413  36.911  12.444
46428W        W18853  19.284  25.606   4.681
46429W        W18854   0.448   7.908  12.084
46430W        W18855  37.879   5.705   2.688
46431W        W18856  26.175  38.362  12.519
46432W        W18857  19.746  43.278   3.830
46433W        W18858  23.553  27.994   4.147
46434W        W18859  21.680  16.297  13.429
46435W        W18860  17.629  35.540  12.071
46436W        W18861   4.378  18.618  14.917
46437W        W18862   6.818  10.755   2.668
46438W        W18863   3.823  10.342  12.877
46439W        W18864  34.413  28.477  14.375
46440W        W18865  41.804  44.490   9.617
46441W        W18866  37.554  25.133   0.393
46442W        W18867  43.913   4.273   0.469
46443W        W18868  37.063  16.659  13.503
46444W        W18869  39.553   0.261  13.527
46445W        W18870  33.010  14.146   1.228
46446W        W18871  20.662  11.373  14.496
46447W        W18872  20.563  13.817   2.337
46448W        W18873  28.606   3.453   3.682
46449W        W18874   0.332  24.499  11.465
46450W        W18875  19.243   8.256  13.460
46451W        W18876  35.375  15.267   4.664
46452W        W18877   3.457  15.766   1.229
46453W        W18878  38.395  44.465   4.613
46454W        W18879   6.325  23.084  12.096
46455W        W18880  25.082  18.784   2.714
46456W        W18881   8.774  11.813  13.389
46457W        W18882  36.571  40.360  13.978
46458W        W18883  38.997  35.431  10.078
46459W        W18884  44.485   1.892   2.829
46460W        W18885  19.676  27.975  13.057
46461W        W18886  43.363   8.864   2.258
46462W        W18887  23.715  31.617   3.285
46463W        W18888  17.676  32.545   9.977
46464W        W18889   1.322  14.307  11.975
46465W        W18890  23.093  11.300  10.158
46466W        W18891  11.323  19.267  11.486
46467W        W18892  12.796  20.701   1.829
46468W        W18893   4.314  22.145   1.789
46469W        W18894   8.352  28.931  12.493
46470W        W18895  18.127   1.442   5.188
46471W        W18896  27.046  10.166   0.276
46472W        W18897  20.097  36.950   3.819
46473W        W18898   1.737  23.587   0.804
46474W        W18899  20.170   4.238   0.727
46475W        W18900   9.889  17.786   2.899
46476W        W18901  23.653  23.626   4.324
46477W        W18902  37.973  13.179  11.998
46478W        W18903  18.696  38.981   0.779
46479W        W18904  32.411  10.715   0.336
46480W        W18905  16.690   1.384   3.378
46481W        W18906   0.417  37.941   0.426
46482W        W18907  23.560   1.273   3.356
46483W        W18908  25.146   9.688   0.320
46484W        W18909  30.946  21.206   3.762
46485W        W18910   2.345   7.288   4.256
46486W        W18911  30.636  37.517   2.739
46487W        W18912  43.374   9.184  14.444
46488W        W18913   2.446   6.786   2.327
46489W        W18914  34.036   4.224  12.084
46490W        W18915  36.902  15.676  11.527
46491W        W18916  43.853  22.182   0.787
46492W        W18917  16.305  12.801   1.251
46493W        W18918  42.031  26.026  14.301
46494W        W18919   3.906  22.728  14.759
46495W        W18920  30.084   9.384  11.108
46496W        W18921   5.892   9.206  10.991
46497W        W18922  18.230   0.952   1.790
46498W        W18923   1.312  30.150   0.353
46499W        W18924  24.501  13.679  12.436
46500W        W18925  22.568  29.578  13.519
46501W        W18926  16.717  38.009   0.270
46502W        W18927   4.224   7.720  11.553
46503W        W18928  26.983  38.520  14.795
46504W        W18929  22.060  37.351   3.235
46505W        W18930  11.341  39.837  12.572
46506W        W18931  23.672  30.919   1.814
46507W        W18932  40.827  27.107  14.426
46508W        W18933   1.857   3.889  13.473
46509W        W18934  44.984  44.428  11.970
46510W        W18935  21.690  19.647  13.960
46511W        W18936  13.262  35.902  10.140
46512W        W18937  33.484  19.654  10.969
46513W        W18938  39.912  23.090   1.697
46514W        W18939   8.683  15.220  14.833
46515W        W18940  26.569  14.253   0.392
46516W        W18941  21.705  39.389  11.479
46517W        W18942  40.548  36.080  14.911
46518W        W18943  30.529   0.795  11.901
46519W        W18944  34.593  12.315   0.910
46520W        W18945  25.666  43.823   3.745
46521W        W18946   1.934  28.554  13.308
46522W        W18947  16.104   6.883   0.848
46523W        W18948  25.618  13.701  10.413
46524W        W18949  36.049  40.425   1.799
46525W        W18950  24.118   9.321   4.213
46526W        W18951  19.637   2.423  12.506
46527W        W18952  18.668  23.102  14.906
46528W        W18953  32.621  30.978  13.468
46529W        W18954  14.131  35.433   0.783
46530W        W18955  34.084  10.206  13.394
46531W        W18956  39.904  14.151   2.815
46532W        W18957  14.593  27.138  10.491
46533W        W18958  30.077  23.181   2.828
46534W        W18959  23.607  20.234   1.724
46535W        W18960  22.194  32.578  11.889
46536W        W18961  20.732  32.016   3.713
46537W        W18962  24.655  36.964   2.767
46538W        W18963  23.605  32.395  11.499
46539W        W18964  36.033  32.049   3.716
46540W        W18965  39.327  42.309   2.713
46541W        W18966   5.816  27.166   1.437
46542W        W18967  13.184  16.182   3.369
46543W        W18968  32.437  23.677  14.414
46544W        W18969  39.942  18.635   4.803
46545W        W18970  15.172  36.974   0.434
46546W        W18971  28.963  26.956   3.793
46547W        W18972  40.432  42.992   0.327
46548W        W18973  30.152  34.576   0.730
46549W        W18974  20.748  18.786  14.016
46550W        W18975  16.218   3.387   0.876
46551W        W18976   1.784   4.247   0.446
46552W        W18977  39.398  19.725   2.346
46553W        W18978  37.576   9.834   0.812
46554W        W18979   5.769  27.176   4.338
46555W        W18980  19.131   6.356  14.933
46556W        W18981  44.314   0.816   5.280
46557W        W18982  35.012  23.045  10.616
46558W        W18983  41.333  18.697   3.630
46559W        W18984  33.932   8.242   3.804
46560W        W18985   8.334   2.244  13.348
46561W        W18986  16.177  42.500  14.423
46562W        W18987  30.588   3.811  10.443
46563W        W18988  25.163  20.556   4.354
46564W        W18989  26.666  11.772   3.646
46565W        W18990  41.907   7.225  11.053
46566W        W18991  35.427  14.746   0.792
46567W        W18992  30.474  25.573   3.663
46568W        W18993  43.322  38.033   3.791
46569W        W18994  20.082  15.756  14.282
46570W        W18995  22.243   5.264  12.970
46571W        W18996  21.609   8.317  14.781
46572W        W18997  43.451  37.433   0.403
46573W        W18998  15.111  35.931   1.284
46574W        W18999   3.281   9.149   3.181
46575W        W19000   8.385  27.133  12.917
46576W        W19001   7.258  34.400   4.119
46577W        W19002  12.808   8.672   4.743
46578W        W19003  28.478  35.571  10.993
46579W        W19004  21.590  38.911   1.326
46580W        W19005   6.337  36.576   5.226
46581W        W19006  35.069  30.936   0.445
46582W        W19007  17.207  44.939  14.472
46583W        W19008  33.522  21.677   1.363
46584W        W19009  40.483  21.066   5.157
46585W        W19010   0.438  29.551   1.369
46586W        W19011   7.354  42.472   2.292
46587W        W19012  39.543  37.408  11.603
46588W        W19013  35.394  15.695  11.439
46589W        W19014  16.804   1.931   9.995
46590W        W19015  32.556  28.065  10.028
46591W        W19016  14.716  27.050   2.293
46592W        W19017  35.430  30.529  13.520
46593W        W19018  40.947  28.141   3.708
46594W        W19019  23.018   8.189  10.119
46595W        W19020  15.686  15.104   2.412
46596W        W19021  31.451  30.018   4.342
46597W        W19022  40.382   0.742  11.448
46598W        W19023   8.340  32.452   4.230
46599W        W19024   3.942   2.287   4.679
46600W        W19025  22.045   7.703  14.930
46601W        W19026   2.324  26.506  10.597
46602W        W19027  31.114  11.694   3.837
46603W        W19028  43.429  12.742  10.092
46604W        W19029  41.037  42.417  13.877
46605W        W19030  40.545  29.139   0.245
46606W        W19031   8.684  32.906   1.430
46607W        W19032  15.581  27.554  12.060
46608W        W19033  13.796  31.933   0.845
46609W        W19034  30.093  36.971   0.347
46610W        W19035   9.682  30.608  14.276
46611W        W19036  21.556  25.197  11.030
46612W        W19037  35.100  11.341   0.744
46613W        W19038  14.705  27.966  11.475
46614W        W19039  30.477  23.187   4.820
46615W        W19040  41.889  42.527  10.912
46616W        W19041   1.829  21.079   1.338
46617W        W19042  14.184  44.290  12.876
46618W        W19043   5.363  44.808  12.907
46619W        W19044  15.245  31.993   4.288
46620W        W19045  29.602  13.347   1.716
46621W        W19046   0.938  36.476  11.060
46622W        W19047   3.283  36.572  11.111
46623W        W19048   3.282  22.188   4.824
46624W        W19049  39.543  20.757   0.381
46625W        W19050   5.431   9.215   3.211
46626W        W19051  13.307  17.214  14.446
46627W        W19052  41.463  16.703  11.118
46628W        W19053  18.769  14.121  14.470
46629W        W19054  20.110   1.885  12.390
46630W        W19055  19.546  13.158   0.845
46631W        W19056  22.701  24.556   4.238
46632W        W19057   4.754  28.597   1.410
46633W        W19058  33.104  43.933   3.797
46634W        W19059  18.195  27.552  11.003
46635W        W19060  29.512  31.055   1.332
46636W        W19061   3.308  35.537   0.884
46637W        W19062  39.543  23.515  12.434
46638W        W19063  16.621  27.126   4.836
46639W        W19064  38.379   0.397   3.717
46640W        W19065  16.799   9.166  10.977
46641W        W19066   1.751   4.339   0.779
46642W        W19067  30.433  26.184   3.311
46643W        W19068  13.121  32.581   4.791
46644W        W19069  44.843  34.486   0.314
46645W        W19070   7.711  14.135   2.181
46646W        W19071   4.802  27.182   2.304
46647W        W19072  15.703  24.663   1.362
46648W        W19073  12.754  34.048   3.805
46649W        W19074  41.872  41.520   2.677
46650W        W19075  37.963  10.265  14.958
46651W        W19076  24.101  23.235   2.798
46652W        W19077  41.364  18.719   1.290
46653W        W19078  14.757  13.778  13.919
46654W        W19079  20.709  30.979  10.969
46655W        W19080   5.928  13.729  14.965
46656W        W19081  25.691  39.347   1.773
46657W        W19082  16.178  10.718  10.952
46658W        W19083  43.001  17.064   4.273
46659W        W19084  20.541   7.214   3.276
46660W        W19085   0.368  20.721   1.888
46661W        W19086  14.329  13.739  13.475
46662W        W19087  28.984  28.471   0.844
46663W        W19088  26.205  41.933  11.469
46664W        W19089  16.241  39.972   1.724
46665W        W19090  33.464  12.196   0.416
46666W        W19091  42.930  40.894  14.783
46667W        W19092  27.496  22.686   4.712
46668W        W19093  19.634  10.795  14.323
46669W        W19094  27.021  23.051  11.122
46670W        W19095   7.198  25.190   0.454
46671W        W19096  43.375  30.518  14.996
46672W        W19097  13.658  13.822  11.013
46673W        W19098  23.007  20.657  10.409
46674W        W19099  35.362  16.628   1.392
46675W        W19100   4.840  42.292   4.706
46676W        W19101   8.247   4.847  13.003
46677W        W19102  18.148  38.344   0.289
46678W        W19103  26.597  10.733  10.514
46679W        W19104  14.116  10.764  10.493
46680W        W19105  10.232  17.685  13.932
46681W        W19106  23.165  33.460   0.452
46682W        W19107  43.346  34.497  12.543
46683W        W19108  33.471  35.868   1.407
46684W        W19109  19.042  12.202   2.186
46685W        W19110  43.416   5.768   1.300
46686W        W19111  44.829  22.542   1.927
46687W        W19112  29.174   7.410   3.651
46688W        W19113  42.293  10.180  13.825
46689W        W19114   4.940  20.091  11.555
46690W        W19115  31.079   1.366   4.199
46691W        W19116  27.942  38.046   0.902
46692W        W19117  31.515  35.374  13.811
46693W        W19118   4.374   9.768   1.415
46694W        W19119  38.396  35.416   1.912
46695W        W19120  17.565  16.647  11.531
46696W        W19121  16.179  36.529  13.946
46697W        W19122   3.807  22.555  13.917
46698W        W19123  17.291   3.417   4.158
46699W        W19124  41.391  13.329  11.109
46700W        W19125  31.565  21.086   0.906
46701W        W19126  43.976  14.101   3.762
46702W        W19127  39.509  16.752  10.616
46703W        W19128  11.355   4.227   1.243
46704W        W19129   2.463  43.884  13.538
46705W        W19130  19.769  37.056  11.101
46706W        W19131   1.239  37.004  10.414
46707W        W19132   7.869   6.705   5.125
46708W        W19133  35.021  29.425  12.878
46709W        W19134   3.240  11.323  11.553
46710W        W19135  42.803   0.743  13.049
46711W        W19136  37.036  35.980  12.405
46712W        W19137   1.743  36.416  14.818
46713W        W19138   3.333  14.701   3.182
46714W        W19139  38.368  31.526  13.437
46715W        W19140  25.962   5.205  11.594
46716W        W19141  21.199   6.688  12.362
46717W        W19142  34.089  13.304   2.323
46718W        W19143  14.167  42.800  14.951
46719W        W19144  27.679  15.776   2.324
46720W        W19145  18.636   4.370   4.319
46721W        W19146  44.838   6.773   1.926
46722W        W19147   9.268  43.291  11.995
46723W        W19148  39.856  10.178  11.374
46724W        W19149  13.639  23.557   9.482
46725W        W19150  22.160   9.283  13.478
46726W        W19151  14.304   4.808   3.240
46727W        W19152   0.397   0.370  13.030
46728W        W19153  13.171  15.157  11.934
46729W        W19154   7.860  23.664  11.857
46730W        W19155   8.216  42.359   4.134
46731W        W19156  19.160  27.051   4.178
46732W        W19157  25.480  38.399  11.945
46733W        W19158  25.966  40.313   2.668
46734W        W19159   9.800  10.764   4.732
46735W        W19160  32.412  11.850   1.261
46736W        W19161  18.756  39.974  12.071
46737W        W19162  13.701  18.564   0.462
46738W        W19163  44.472   3.238  12.096
46739W        W19164  22.062   3.299  11.484
46740W        W19165   0.951  21.077  11.025
46741W        W19166  33.084  30.954  13.412
46742W        W19167   0.827  42.966   0.935
46743W        W19168  28.149  10.252   3.311
46744W        W19169  23.146   9.162   1.736
46745W        W19170  37.994  22.193  14.462
46746W        W19171  22.020  28.033   2.214
46747W        W19172  17.102  11.680  11.059
46748W        W19173   3.434  10.677  11.020
46749W        W19174   2.240  16.726  11.986
46750W        W19175   4.323   5.927  13.398
46751W        W19176  20.664  42.496  12.490
46752W        W19177  33.610   6.892  10.619
46753W        W19178  22.570  37.839  10.152
46754W        W19179  11.148   7.211  14.826
46755W        W19180  32.400   1.965   1.249
46756W        W19181  42.507  10.250  13.382
46757W        W19182  16.173  13.176  12.037
46758W        W19183  13.809   9.660  11.448
46759W        W19184   5.694  39.991  13.524
46760W        W19185   9.258  32.525  11.865
46761W        W19186  18.090  22.661   2.764
46762W        W19187   6.235  43.405   1.756
46763W        W19188  38.930   3.225  12.411
46764W        W19189  24.150  21.518  12.493
46765W        W19190  26.610  28.976   4.150
46766W        W19191  18.165  35.025   3.786
46767W        W19192  15.255  16.691   4.656
46768W        W19193  34.038  12.157  14.850
46769W        W19194  31.608   7.817  13.973
46770W        W19195  25.679  35.033  13.926
46771W        W19196  38.825  23.633   2.674
46772W        W19197  12.331  27.569  12.953
46773W        W19198   4.709   5.254  10.577
46774W        W19199  15.088  19.635  12.498
46775W        W19200  21.119  32.103   1.245
46776W        W19201  37.057  41.531   0.420
46777W        W19202  28.487   8.789   2.285
46778W        W19203   9.885  18.111   0.863
46779W        W19204  15.270  24.542   5.722
46780W        W19205  30.114  30.503  11.906
46781W        W19206   6.771   8.836   5.134
46782W        W19207  28.594  42.869   4.319
46783W        W19208  30.108  43.301  13.507
46784W        W19209  13.293  16.716   0.448
46785W        W19210  26.510  25.003   1.719
46786W        W19211  42.479  31.419   4.638
46787W        W19212  27.525  34.983   0.729
46788W        W19213   6.257   1.479   1.440
46789W        W19214  22.032  12.185   4.169
46790W        W19215   0.778  15.236  13.336
46791W        W19216   9.358  17.183   0.303
46792W        W19217   2.304  43.823   3.792
46793W        W19218  38.966  21.019   0.330
46794W        W19219  36.351  26.077   5.670
46795W        W19220  26.685   3.305   2.769
46796W        W19221  22.035   9.373   2.874
46797W        W19222   2.250  25.123  14.449
46798W        W19223  23.110  44.377   2.803
46799W        W19224  11.827  37.989  10.630
46800W        W19225  13.640  23.491  14.473
46801W        W19226  15.689  31.111  11.525
46802W        W19227  26.538   1.818   4.816
46803W        W19228  26.120  33.982   2.356
46804W        W19229  16.701  26.015  12.445
46805W        W19230  30.562  33.038   1.287
46806W        W19231  41.489  14.686   3.690
46807W        W19232  22.566  36.445   2.840
46808W        W19233   8.215   0.795  14.020
46809W        W19234  24.066  11.239   1.331
46810W        W19235  39.543  40.498   4.149
46811W        W19236  20.172  35.483  11.886
46812W        W19237  19.543  40.800   1.871
46813W        W19238  30.111  10.802  12.432
46814W        W19239  24.110  42.331  13.976
46815W        W19240  40.499   5.317   2.294
46816W        W19241  32.523  24.094  13.990
46817W        W19242  17.627  15.087   0.432
46818W        W19243  31.491  24.673  14.838
46819W        W19244  32.468  24.170   0.727
46820W        W19245  20.227  12.295  10.439
46821W        W19246  12.736   4.306   1.836
46822W        W19247   6.247   1.770   4.681
46823W        W19248  27.587  38.024  11.374
46824W        W19249   9.842   7.765   3.281
46825W        W19250  27.142  17.097  14.383
46826W        W19251  32.486   8.789  11.876
46827W        W19252  41.832  40.938  12.958
46828W        W19253  37.568  31.468  13.382
46829W        W19254  18.216  35.097  12.451
46830W        W19255  17.231   8.753   1.217
46831W        W19256  23.685  16.304   4.163
46832W        W19257  29.035  19.676  11.421
46833W        W19258   7.388  40.943  11.441
46834W        W19259  21.560  17.131  13.980
46835W        W19260  35.903  39.488  12.392
46836W        W19261   7.868  41.027   1.714
46837W        W19262   0.381  38.506   1.288
46838W        W19263  29.953  20.037  13.799
46839W        W19264  37.348   5.891  12.379
46840W        W19265  18.663   5.922  10.951
46841W        W19266   3.243  20.625   1.917
46842W        W19267  27.965  31.476  12.919
46843W        W19268  39.949  42.389  11.034
46844W        W19269  31.024  11.633   1.849
46845W        W19270  32.561  32.104  12.426
46846W        W19271   5.369  10.718  10.590
46847W        W19272   7.303  42.895   4.743
46848W        W19273  31.567   0.265  14.852
46849W        W19274   8.866  24.696  13.536
46850W        W19275   7.208  39.829   2.181
46851W        W19276  21.593  39.000  13.546
46852W        W19277  16.805  13.680  13.038
46853W        W19278  23.135  12.123   4.698
46854W        W19279  34.540  28.578   4.200
46855W        W19280  15.321  21.067  13.455
46856W        W19281  14.597  29.527  11.612
46857W        W19282  40.038   3.922  11.119
46858W        W19283  14.777   5.864  14.875
46859W        W19284  17.268  23.190   2.181
46860W        W19285   3.925  24.001   2.714
46861W        W19286  18.267  16.285   2.824
46862W        W19287   3.437  27.474  14.419
46863W        W19288  35.435  22.166   0.296
46864W        W19289  10.346   0.926  10.456
46865W        W19290  30.073  30.444  13.882
46866W        W19291  21.599  16.674   4.606
46867W        W19292  44.787  24.001   1.228
46868W        W19293  41.996  43.809   1.215
46869W        W19294  37.510  35.384  12.355
46870W        W19295   9.209  25.482   4.770
46871W        W19296  32.392  30.082  13.861
46872W        W19297  38.520  41.960   3.245
46873W        W19298  39.523  40.808  13.444
46874W        W19299  38.882   3.844   0.340
46875W        W19300  21.714  38.846   0.899
46876W        W19301  34.992  34.873   4.346
46877W        W19302   2.430  11.692   0.422
46878W        W19303  30.639   4.892   9.923
46879W        W19304  42.880  14.340   2.227
46880W        W19305  17.701  35.865   4.647
46881W        W19306  41.521  25.110   4.154
46882W        W19307   0.833  16.673   4.601
46883W        W19308  21.172  21.121   2.178
46884W        W19309  30.152  19.653  14.490
46885W        W19310  37.877  30.634  14.885
46886W        W19311   8.397  19.565  10.609
46887W        W19312   8.207   3.295  13.882
46888W        W19313  17.089  44.305   2.414
46889W        W19314  16.170   1.902   2.708
46890W        W19315  26.543  35.445  13.059
46891W        W19316  29.471   6.847  11.384
46892W        W19317  36.956  44.433   2.804
46893W        W19318  31.114  19.072   0.848
46894W        W19319  30.547   3.256   3.347
46895W        W19320   9.165   3.296   4.638
46896W        W19321  19.681  33.010  10.464
46897W        W19322   9.652   2.911  14.395
46898W        W19323   5.729  31.943  12.468
46899W        W19324  22.568  33.582  14.516
46900W        W19325  29.173   7.818  13.869
46901W        W19326  18.718  40.420  12.461
46902W        W19327  40.850  30.936   2.328
46903W        W19328  39.344  36.420  12.573
46904W        W19329  28.976   8.305  12.367
46905W        W19330  19.119  28.670   4.720
46906W        W19331  36.841  27.983  10.927
46907W        W19332  41.394  28.668   4.628
46908W        W19333  36.582   8.755  11.113
46909W        W19334  21.254   6.419  11.457
46910W        W19335   7.823  35.003   9.978
46911W        W19336  16.203   5.331   0.954
46912W        W19337  32.054  11.216   1.321
46913W        W19338  16.149   1.739  11.605
46914W        W19339  21.622  31.988  12.487
46915W        W19340  23.012  25.505  14.848
46916W        W19341  21.580  44.769  12.425
46917W        W19342  16.573  20.223   1.907
46918W        W19343  41.839  41.354  14.969
46919W        W19344  26.078  21.260   2.799
46920W        W19345  40.352  24.578   2.670
46921W        W19346   9.883  33.526  12.377
46922W        W19347   3.225  20.707   4.622
46923W        W19348   1.362  31.478   4.193
46924W        W19349  33.539  24.030   1.770
46925W        W19350  19.626   1.758   2.351
46926W        W19351  12.181  40.929  11.552
46927W        W19352  39.464  25.012   0.768
46928W        W19353  29.094   1.747  13.478
46929W        W19354   5.348  34.583  12.388
46930W        W19355  41.379  41.973  11.559
46931W        W19356   3.326  37.386  14.802
46932W        W19357  42.499  31.558  11.374
46933W        W19358  20.125  26.485   3.802
46934W        W19359  37.875  41.874  12.921
46935W        W19360   3.948   2.342  12.520
46936W        W19361  19.183  21.051   4.611
46937W        W19362  41.005  30.007   3.771
46938W        W19363  30.435  17.659   1.448
46939W        W19364  34.990  34.510   1.751
46940W        W19365  22.095  19.624  13.837
46941W        W19366  36.892  39.388   2.746
46942W        W19367  18.750  42.453  14.811
46943W        W19368  44.764  20.732   4.233
46944W        W19369  37.398   4.269  13.032
46945W        W19370  15.744  38.427   0.962
46946W        W19371  19.712   0.749   5.244
46947W        W19372   8.245   7.316   1.449
46948W        W19373  40.309  32.429   0.909
46949W        W19374  41.516  44.991   4.649
46950W        W19375   7.885  18.621  12.034
46951W        W19376  27.981  18.786  11.890
46952W        W19377   9.199  42.884   4.261
46953W        W19378  25.991  39.046   3.845
46954W        W19379  31.923  38.402   1.845
46955W        W19380  11.330  20.625   2.740
46956W        W19381  33.105  28.503  12.439
46957W        W19382   9.700  19.550   4.338
46958W        W19383  43.403  44.889  10.570
46959W        W19384  20.056  36.850   0.374
46960W        W19385  17.123   3.922   3.854
46961W        W19386   7.690   6.898  14.890
46962W        W19387   8.179  17.583   0.419
46963W        W19388  24.031  14.676   1.759
46964W        W19389  41.946  31.480  12.574
46965W        W19390  36.427  42.296  11.510
46966W        W19391   1.927   5.898  11.963
46967W        W19392  23.233  33.387   0.801
46968W        W19393  23.024  19.238  13.538
46969W        W19394  38.506  26.475  14.015
46970W        W19395  32.418  23.575  12.497
46971W        W19396   4.203  13.115  14.362
46972W        W19397   6.809  18.680  10.940
46973W        W19398  13.231   2.269   1.749
46974W        W19399  10.330  31.561   2.355
46975W        W19400  21.255  35.516   2.803
46976W        W19401  19.247  28.995  10.575
46977W        W19402  13.187  27.105   0.289
46978W        W19403  35.589  41.806  11.945
46979W        W19404  20.111  13.783  13.345
46980W        W19405  21.711  13.682  11.552
46981W        W19406  13.109  18.592   3.721
46982W        W19407  27.021  23.157  12.011
46983W        W19408  30.521  32.504   1.861
46984W        W19409  40.958  26.609   2.850
46985W        W19410  31.919  40.372  10.944
46986W        W19411  28.515  30.014   4.769
46987W        W19412  12.285  30.975   3.648
46988W        W19413  25.710  10.820   2.826
46989W        W19414  33.539  40.482  12.345
46990W        W19415   3.884  34.065  11.874
46991W        W19416  14.268  27.170  13.535
46992W        W19417   1.869  10.657   1.841
46993W        W19418  18.183   5.308   0.336
46994W        W19419  19.582  10.850  11.110
46995W        W19420   1.332   3.321  14.865
46996W        W19421  23.654   8.788  10.595
46997W        W19422  43.500  25.673   2.685
46998W        W19423  19.101  25.091   0.389
46999W        W19424  17.257   2.860   4.334
47000W        W19425  11.840  30.001   1.749
47001W        W19426  19.768   9.643  14.790
47002W        W19427  22.173  41.519  10.967
47003W        W19428  14.759  30.572   0.899
47004W        W19429   5.236  17.092   1.345
47005W        W19430  27.475  36.475   3.859
47006W        W19431  38.965  44.994  13.325
47007W        W19432  22.055  32.887  13.938
47008W        W19433  35.559   4.930   4.694
47009W        W19434  36.515  31.578   3.276
47010W        W19435  12.812  14.765   3.771
47011W        W19436  30.908  26.639  11.047
47012W        W19437  24.513   7.895   1.279
47013W        W19438  25.177  29.476  13.926
47014W        W19439  30.527  19.722   3.867
47015W        W19440  38.028  44.264  13.447
47016W        W19441  19.688  27.607  13.449
47017W        W19442  12.663   7.171  12.525
47018W        W19443   3.411  41.472   0.913
47019W        W19444  26.003  29.089  14.477
47020W        W19445  21.130   3.307  14.301
47021W        W19446  12.314  14.237   4.799
47022W        W19447  31.556  10.724   4.266
47023W        W19448  36.476  26.958  10.454
47024W        W19449   4.332  17.265  12.835
47025W        W19450  39.033  43.810  13.819
47026W        W19451  16.277  31.592   4.324
47027W        W19452  18.164  16.708  10.942
47028W        W19453   0.812  24.980   5.255
47029W        W19454  40.439   3.739   0.474
47030W        W19455   5.295  16.604  13.045
47031W        W19456  22.152   4.442   1.284
47032W        W19457  37.087  33.489   0.864
47033W        W19458  22.512  17.175   2.375
47034W        W19459   7.390  19.258   0.938
47035W        W19460  19.609  16.304  12.040
47036W        W19461  12.619  31.646  14.930
47037W        W19462  25.156  12.729   1.791
47038W        W19463   6.814  35.086   5.690
47039W        W19464  35.526  18.564  13.379
47040W        W19465  17.296   6.736  10.480
47041W        W19466   8.171  34.026  12.440
47042W        W19467  41.854  20.183  14.395
47043W        W19468   6.355  20.128  11.105
47044W        W19469   5.275  17.600   3.244
47045W        W19470  43.364  26.557   4.757
47046W        W19471  26.618  22.207  11.402
47047W        W19472  14.241   1.387  10.589
47048W        W19473  24.597  16.804   2.883
47049W        W19474  17.721  11.277   1.834
47050W        W19475  34.457  11.141   0.422
47051W        W19476  10.782  19.087  13.841
47052W        W19477  37.965   0.768   1.351
47053W        W19478  38.907  30.464  12.534
47054W        W19479  35.573   0.360  14.942
47055W        W19480  43.368   3.328   1.826
47056W        W19481  30.498  16.733   4.787
47057W        W19482  21.103  23.227   2.250
47058W        W19483  18.269  21.593   2.834
47059W        W19484  15.581  43.506   4.600
47060W        W19485  19.181   6.374   2.297
47061W        W19486   3.890   4.437   2.244
47062W        W19487  28.447   5.807   3.335
47063W        W19488  44.435   3.845  10.932
47064W        W19489  29.060  15.222   1.397
47065W        W19490  25.628   6.782   4.655
47066W        W19491   2.791  38.397   4.835
47067W        W19492  22.178  14.790  10.615
47068W        W19493  28.120   0.421   5.153
47069W        W19494  37.848  40.842  11.102
47070W        W19495  17.750  24.668  13.828
47071W        W19496   9.191  22.040   3.146
47072W        W19497  32.014   0.468   4.208
47073W        W19498  16.658  35.603   0.938
47074W        W19499  29.554  28.542   3.847
47075W        W19500  16.142  28.591  12.550
47076W        W19501  17.690  18.652   0.348
47077W        W19502  21.684  43.017  13.932
47078W        W19503  13.695  29.451  12.455
47079W        W19504   2.753  20.140   2.754
47080W        W19505  17.281  36.492   2.792
47081W        W19506   3.941  12.736  14.841
47082W        W19507   8.776   6.816   5.162
47083W        W19508  36.971  20.629  14.759
47084W        W19509  20.080  15.588   1.881
47085W        W19510  44.009  28.605  14.950
47086W        W19511   6.313  29.054   4.724
47087W        W19512  16.175  12.780  14.469
47088W        W19513  17.561  13.173   1.217
47089W        W19514  28.603  23.028  11.518
47090W        W19515  40.383   9.673  12.930
47091W        W19516  33.609   2.410  10.463
47092W        W19517  37.450   5.270   2.349
47093W        W19518  14.610   7.816  13.957
47094W        W19519  14.616  30.497  11.864
47095W        W19520  40.437   8.666  14.792
47096W        W19521  39.030  42.807   2.193
47097W        W19522   6.276  34.477  10.975
47098W        W19523  12.805  10.819   4.276
47099W        W19524  13.730  12.204  12.529
47100W        W19525  22.234  40.890  13.998
47101W        W19526  17.737  39.516  12.923
47102W        W19527   1.346  42.879  10.526
47103W        W19528   7.877  13.782   2.793
47104W        W19529  29.939   2.811  11.414
47105W        W19530  41.454  12.651   2.705
47106W        W19531  39.350  14.590   0.801
47107W        W19532  29.003  33.907   2.191
47108W        W19533  32.552  43.447   1.712
47109W        W19534  43.394   0.309   2.382
47110W        W19535  32.422  10.332  13.329
47111W        W19536  23.993  10.808   4.807
47112W        W19537  38.346   3.862   0.951
47113W        W19538  35.891  14.662  13.330
47114W        W19539   2.261  39.065  11.415
47115W        W19540   3.416  10.317   1.879
47116W        W19541  24.722  24.680   0.378
47117W        W19542  13.678  21.714  13.337
47118W        W19543  41.934  43.901   1.788
47119W        W19544  29.525  13.603  13.019
47120W        W19545  18.184  42.384  10.959
47121W        W19546  43.810   0.278   2.825
47122W        W19547  43.770   9.771  12.541
47123W        W19548   8.683  17.585  14.823
47124W        W19549  31.030  19.252  12.060
47125W        W19550   8.241  24.061  13.416
47126W        W19551  19.753  43.798  13.502
47127W        W19552  35.086  41.396   2.802
47128W        W19553  28.048  33.438   4.146
47129W        W19554  21.754  42.849   1.893
47130W        W19555  17.589  41.825   2.310
47131W        W19556  13.149   8.726   3.647
47132W        W19557  20.625  38.492  12.435
47133W        W19558  12.702  36.972   3.204
47134W        W19559   0.266  35.883  13.845
47135W        W19560  31.617  36.071  12.881
47136W        W19561  25.583  21.124   3.742
47137W        W19562  33.476  41.037  13.990
47138W        W19563  26.480  18.174   3.212
47139W        W19564  16.125  17.208  13.395
47140W        W19565  26.081  31.086  10.913
47141W        W19566  33.500  13.272   3.340
47142W        W19567  22.093  30.511  12.985
47143W        W19568  33.613  25.555   1.250
47144W        W19569   9.205  37.346   0.859
47145W        W19570  20.604  35.590   2.736
47146W        W19571   0.801  30.029   2.235
47147W        W19572  15.181  30.107   3.159
47148W        W19573   4.702  37.574  12.885
47149W        W19574   7.732  42.426   2.735
47150W        W19575  14.737  32.038   3.175
47151W        W19576   1.832  13.303  10.519
47152W        W19577   8.294  42.489  14.391
47153W        W19578  21.608  41.801   3.246
47154W        W19579   5.791  15.185  13.920
47155W        W19580  10.199  33.001   3.147
47156W        W19581  16.222   6.352  12.969
47157W        W19582   0.290  23.037  11.950
47158W        W19583  36.919  40.976  12.447
47159W        W19584   4.888  32.624  12.053
47160W        W19585  38.950  22.697  12.543
47161W        W19586  39.329   1.873   5.181
47162W        W19587  42.790  25.671  11.965
47163W        W19588  36.078  13.201   3.346
47164W        W19589  42.798  22.628  11.006
47165W        W19590   8.297   9.183  10.529
47166W        W19591   7.878   4.747  10.504
47167W        W19592   4.752   2.805   4.599
47168W        W19593  31.059   8.161   1.360
47169W        W19594  12.767  18.627  11.516
47170W        W19595  25.475  20.609   3.249
47171W        W19596  25.696  12.207   0.874
47172W        W19597  42.007   6.901   3.348
47173W        W19598  14.798   2.312   3.155
47174W        W19599  20.626   0.947   2.218
47175W        W19600   9.648   8.406  12.905
47176W        W19601  37.849  17.269  14.389
47177W        W19602  41.523  22.562  10.897
47178W        W19603  16.773  15.169   2.818
47179W        W19604  43.894  12.810   3.260
47180W        W19605  25.671  25.649   0.774
47181W        W19606  28.572   1.792   4.209
47182W        W19607  35.099  40.305   4.217
47183W        W19608  31.486  20.720   3.382
47184W        W19609  16.805  36.494   2.738
47185W        W19610  40.450  43.976  11.865
47186W        W19611  36.421  25.978   1.867
47187W        W19612  35.465  24.126  12.379
47188W        W19613  20.757  40.995  11.493
47189W        W19614   4.856  28.936  13.001
47190W        W19615   7.242  30.541   1.356
47191W        W19616  26.062  27.102  13.474
47192W        W19617   9.676   9.274  12.355
47193W        W19618  12.159  16.622  13.048
47194W        W19619   6.245  25.197   2.742
47195W        W19620  22.581  31.076  13.415
47196W        W19621  21.106   0.340   4.759
47197W        W19622  44.322  41.830   3.317
47198W        W19623  44.956  14.208  11.039
47199W        W19624   8.762  31.911  11.564
47200W        W19625  17.664  41.421  14.289
47201W        W19626  33.921  32.929   4.743
47202W        W19627  33.571  43.411   3.224
47203W        W19628   5.312  28.941  10.528
47204W        W19629  20.040  39.031  14.972
47205W        W19630   6.737  20.735  13.918
47206W        W19631   0.300  39.319   1.254
47207W        W19632  13.768  33.519   0.377
47208W        W19633  12.674  31.431  13.312
47209W        W19634  39.518  10.274  11.433
47210W        W19635   8.790   5.428   0.439
47211W        W19636  38.930  26.964   3.710
47212W        W19637  13.148  44.376  13.000
47213W        W19638  21.734  30.558   1.739
47214W        W19639   9.342  11.748  10.007
47215W        W19640  10.769   5.893   0.251
47216W        W19641  12.788  29.650   3.668
47217W        W19642   7.868  42.993   3.321
47218W        W19643   7.672   3.274   0.383
47219W        W19644  22.079  36.848  14.989
47220W        W19645  29.063  34.975   2.180
47221W        W19646  26.509   2.732  12.416
47222W        W19647   7.836  36.886   2.284
47223W        W19648  16.805   1.794  14.805
47224W        W19649  31.923   8.201   3.267
47225W        W19650   0.924   4.772  10.050
47226W        W19651   6.920  25.555  14.372
47227W        W19652   5.227   4.857   4.680
47228W        W19653  44.780  38.877  10.557
47229W        W19654   6.220  43.490  11.092
47230W        W19655  36.370  33.521   4.789
47231W        W19656   8.720  35.929  11.429
47232W        W19657  32.075  19.738  14.407
47233W        W19658  11.153   4.845  12.893
47234W        W19659  37.352   1.808   0.275
47235W        W19660   1.844   0.437   1.327
47236W        W19661  16.605   8.871   4.137
47237W        W19662  38.404  26.491  10.426
47238W        W19663  35.045   4.817   9.936
47239W        W19664  20.758  24.220  13.798
47240W        W19665   0.465  27.960   4.346
47241W        W19666  24.722  31.986   3.202
47242W        W19667  10.261   1.380   0.773
47243W        W19668  24.222  20.737   3.677
47244W        W19669  27.959  44.762  11.471
47245W        W19670  34.928   1.973  13.418
47246W        W19671  11.310  21.151  11.039
47247W        W19672   8.339  21.119  11.952
47248W        W19673  31.901  15.754   2.190
47249W        W19674   4.296  37.919  11.398
47250W        W19675  27.665   8.245   0.459
47251W        W19676  32.587  28.962   3.155
47252W        W19677   5.890  41.871   1.407
47253W        W19678  31.564  44.438  12.991
47254W        W19679  34.912  42.779  12.975
47255W        W19680   5.817  41.906   3.647
47256W        W19681  28.045  36.593   1.394
47257W        W19682  13.207  17.291  10.022
47258W        W19683  36.890  21.665   0.429
47259W        W19684  38.030  21.620   0.923
47260W        W19685  28.116  28.943   3.794
47261W        W19686  38.930  14.141   1.214
47262W        W19687  35.936  36.431  12.968
47263W        W19688  14.590  23.524   5.118
47264W        W19689  15.632  25.522   5.248
47265W        W19690  13.637   4.879  12.476
47266W        W19691  19.535  26.478   0.328
47267W        W19692  24.612  20.589  14.410
47268W        W19693  43.861  11.146   1.838
47269W        W19694   1.947  27.963   2.214
47270W        W19695   2.852  19.630   0.837
47271W        W19696  12.354  13.194  14.872
47272W        W19697  41.975  13.144  14.007
47273W        W19698  37.376  25.640   5.164
47274W        W19699  20.196   7.891  13.843
47275W        W19700  10.340  30.588   1.727
47276W        W19701  34.992  25.482   3.317
47277W        W19702   4.339  26.670   3.308
47278W        W19703  25.500   7.737   2.204
47279W        W19704  15.327  17.572  13.535
47280W        W19705  35.965  12.357   0.287
47281W        W19706   2.428   4.435   3.301
47282W        W19707  43.321   7.197   0.788
47283W        W19708  38.429  24.198  11.987
47284W        W19709  39.914  35.411  10.600
47285W        W19710  30.526   1.375  13.853
47286W        W19711  27.476  23.611   1.810
47287W        W19712  44.260  10.817   1.743
47288W        W19713   9.740  25.605   1.734
47289W        W19714  35.930  31.514  14.381
47290W        W19715   8.205   9.770   1.808
47291W        W19716  12.838   0.316   2.716
47292W        W19717  37.506  39.439   4.671
47293W        W19718  27.145   8.683  12.453
47294W        W19719  14.600   5.288  11.560
47295W        W19720  38.462  19.650   2.861
47296W        W19721  40.546  35.527  13.793
47297W        W19722  13.246  13.252  14.392
47298W        W19723  32.409   3.359  13.459
47299W        W19724   9.232  37.429  14.388
47300W        W19725  20.628  24.039  14.876
47301W        W19726   3.824  24.188   4.740
47302W        W19727  27.957   2.266  14.508
47303W        W19728  32.119  32.498   3.370
47304W        W19729  43.943  21.554  12.868
47305W        W19730  35.551  22.602   3.705
47306W        W19731  44.904  12.839   4.257
47307W        W19732  26.503   2.961   4.322
47308W        W19733  10.804  22.127   0.857
47309W        W19734  32.444  10.151   9.976
47310W        W19735   0.835  37.877   3.221
47311W        W19736  44.882  29.637   2.790
47312W        W19737  34.913  33.581   2.353
47313W        W19738  10.317  18.071  14.923
47314W        W19739  11.862  17.715   1.846
47315W        W19740   1.740  32.899  12.443
47316W        W19741  14.150  30.946  12.402
47317W        W19742  20.647  16.076   2.713
47318W        W19743   5.351  33.899   3.716
47319W        W19744  19.254  21.058  11.109
47320W        W19745  31.148  21.205   4.168
47321W        W19746  35.550  38.039   4.308
47322W        W19747  21.194  28.440  13.438
47323W        W19748   8.750  39.989   0.730
47324W        W19749   4.319  42.294  11.576
47325W        W19750  10.374   0.763  12.883
47326W        W19751  18.068   8.195  10.420
47327W        W19752  23.069  25.060   1.230
47328W        W19753  33.621  16.281  10.561
47329W        W19754   2.722  17.643   3.810
47330W        W19755   9.272  26.528  11.935
47331W        W19756  26.649  36.357  11.965
47332W        W19757   4.393  28.027  10.552
47333W        W19758  28.533   5.900  14.843
47334W        W19759  44.913  26.523  10.139
47335W        W19760   2.921  16.095   1.748
47336W        W19761   3.939  23.629  12.572
47337W        W19762  26.661  39.506  14.288
47338W        W19763  22.696  44.850   1.817
47339W        W19764   2.765  23.506  14.916
47340W        W19765  32.555  15.701   4.743
47341W        W19766   6.798  15.810  12.851
47342W        W19767  25.654   3.759  11.520
47343W        W19768  18.746  13.713   1.322
47344W        W19769  23.089   9.279   9.963
47345W        W19770   9.798  37.838  13.890
47346W        W19771   5.329  11.805   0.268
47347W        W19772  10.214   6.350  14.323
47348W        W19773  36.955  24.975   0.467
47349W        W19774  36.054  34.435   0.823
47350W        W19775  36.516  10.223   3.226
47351W        W19776  35.588  37.063   3.274
47352W        W19777  43.300  38.068   0.397
47353W        W19778  34.042  10.230  14.290
47354W        W19779  26.472  27.691  12.436
47355W        W19780  26.086  34.511   4.655
47356W        W19781  36.468   2.372  12.396
47357W        W19782  34.449  18.275   4.747
47358W        W19783  22.591  30.164   0.279
47359W        W19784  39.987  33.022  13.817
47360W        W19785  35.492  21.206  13.828
47361W        W19786  36.562  32.418   2.858
47362W        W19787   1.334  35.916  14.337
47363W        W19788   0.374  11.825   2.850
47364W        W19789  43.367  26.102  11.492
47365W        W19790  39.444  30.040   1.423
47366W        W19791  11.866  39.366   2.360
47367W        W19792  14.629  38.874   3.220
47368W        W19793  27.448  44.894  10.984
47369W        W19794  17.136  38.881  13.412
47370W        W19795   4.392   9.154   4.274
47371W        W19796  41.042  15.769   2.225
47372W        W19797   5.792  42.849   1.375
47373W        W19798   6.856   9.162   1.844
47374W        W19799  31.114  14.685  13.817
47375W        W19800  37.034   5.925   3.222
47376W        W19801  33.920   2.729   4.687
47377W        W19802  24.997   7.317   4.785
47378W        W19803  38.847  16.239  12.047
47379W        W19804  11.135  20.743   0.943
47380W        W19805  19.764  10.658   3.761
47381W        W19806   7.871  29.964  13.026
47382W        W19807  27.538  38.980   2.213
47383W        W19808   0.296  41.910  10.973
47384W        W19809  18.265  31.479   3.662
47385W        W19810  36.509  31.456  11.610
47386W        W19811   0.814  38.866  10.037
47387W        W19812  20.230   4.216   2.674
47388W        W19813  15.789  29.959  12.075
47389W        W19814  33.937  27.003   0.742
47390W        W19815  12.290   9.705  13.828
47391W        W19816   3.883   1.254   3.225
47392W        W19817  39.842  21.524  11.078
47393W        W19818  23.011  16.581   4.244
47394W        W19819  39.025  12.852  13.841
47395W        W19820  33.085  23.548  11.397
47396W        W19821  20.713  22.716   1.327
47397W        W19822  20.602  44.433  10.510
47398W        W19823  30.967  18.567   5.237
47399W        W19824  33.595  30.934   4.627
47400W        W19825  41.502  10.638   2.388
47401W        W19826  30.115  24.512  14.308
47402W        W19827  20.039  38.065  14.971
47403W        W19828  16.682   4.306   3.151
47404W        W19829   4.844   5.889   2.325
47405W        W19830  35.413  24.491   2.861
47406W        W19831   0.912  44.406  14.496
47407W        W19832  26.985  13.231   1.745
47408W        W19833  38.371  22.147  12.864
47409W        W19834  41.506  21.622   3.703
47410W        W19835  20.586  11.804  11.054
47411W        W19836  31.403  24.671   2.391
47412W        W19837  10.776  31.600  12.963
47413W        W19838  38.531  22.034  11.577
47414W        W19839  24.183  35.438  12.892
47415W        W19840  38.543  35.881  14.987
47416W        W19841  33.122  44.504  13.315
47417W        W19842   7.868   4.211   1.866
47418W        W19843  11.371   8.859   4.125
47419W        W19844  12.150   8.344  11.588
47420W        W19845  39.394  38.445  14.349
47421W        W19846   8.797  21.591   1.734
47422W        W19847  27.956  32.633  10.081
47423W        W19848  29.632   2.761  11.907
47424W        W19849  37.515   8.812   0.903
47425W        W19850  43.295  18.608   0.743
47426W        W19851  17.249   7.401  13.892
47427W        W19852  26.111   4.357   2.860
47428W        W19853  16.104  23.649   9.965
47429W        W19854  29.959   6.370   0.929
47430W        W19855   3.900  12.815   2.890
47431W        W19856  23.672  38.821  12.441
47432W        W19857  29.541  25.666   1.888
47433W        W19858  11.325  28.531  12.514
47434W        W19859  15.292  38.982   3.750
47435W        W19860  44.859   3.340   4.142
47436W        W19861  19.095  26.165  13.848
47437W        W19862  37.381  38.498  11.047
47438W        W19863  21.196  24.717   2.740
47439W        W19864  14.761  23.049   5.221
47440W        W19865  41.361   8.213   4.347
47441W        W19866  31.572  26.193  14.347
47442W        W19867  33.541  24.133   0.482
47443W        W19868  33.620  37.027   4.166
47444W        W19869  42.354  36.921  11.375
47445W        W19870  38.972  25.698  14.357
47446W        W19871  33.502  14.743  14.798
47447W        W19872   6.826  44.486  14.879
47448W        W19873  26.494  30.588   0.917
47449W        W19874  25.638  24.684  14.011
47450W        W19875  25.108  14.746  11.484
47451W        W19876  27.589  23.130  11.935
47452W        W19877  24.158  42.802  10.898
47453W        W19878  35.011  30.032  12.367
47454W        W19879  38.392   9.155   4.289
47455W        W19880  38.345   5.346   1.698
47456W        W19881  34.516  33.960  14.820
47457W        W19882  17.647  22.242   3.844
47458W        W19883   5.411   4.919  14.327
47459W        W19884   8.744   1.481   4.705
47460W        W19885   8.304  26.046  13.349
47461W        W19886  26.205  14.714   3.376
47462W        W19887  41.007  24.168  11.866
47463W        W19888  10.334   9.191   1.297
47464W        W19889  36.513  43.943   1.817
47465W        W19890  32.579  34.921  14.296
47466W        W19891  36.492   2.242   3.331
47467W        W19892   2.934  13.605  11.468
47468W        W19893  35.069  24.541  13.371
47469W        W19894  15.249  39.918   0.483
47470W        W19895   1.286  15.320  10.536
47471W        W19896  44.302  16.203   9.987
47472W        W19897   9.254  35.466  14.015
47473W        W19898  22.555  34.484  12.579
47474W        W19899  43.471  22.507  13.419
47475W        W19900   2.337   1.900   1.371
47476W        W19901  31.069  12.188  14.308
47477W        W19902  25.079  38.914  13.015
47478W        W19903   3.445   4.908   5.292
47479W        W19904  22.593   1.358   0.375
47480W        W19905  13.814  28.592   3.848
47481W        W19906  29.467  13.819   2.357
47482W        W19907  33.039  33.909   0.480
47483W        W19908  26.184  30.103  13.432
47484W        W19909  20.244  32.498   1.359
47485W        W19910   3.851  30.459   0.967
47486W        W19911  32.070  37.581  11.426
47487W        W19912  12.621  15.100   0.480
47488W        W19913  41.479   0.963   1.349
47489W        W19914   0.922  31.114  12.486
47490W        W19915   1.290  11.241   4.196
47491W        W19916  34.040  34.062  14.953
47492W        W19917  31.042  33.418   5.200
47493W        W19918  18.647  22.178   4.667
47494W        W19919  37.422  44.795  11.512
47495W        W19920  27.490  27.673  10.494
47496W        W19921  28.624  44.825   1.892
47497W        W19922  31.625  34.577  13.541
47498W        W19923  16.575  42.361  13.839
47499W        W19924  36.370  44.488  10.128
47500W        W19925  27.029  24.643  12.551
47501W        W19926   9.254  26.463   0.822
47502W        W19927  33.487  24.718   1.869
47503W        W19928   5.332  25.128   3.164
47504W        W19929   0.460  31.903  11.609
47505W        W19930  43.419   9.338   0.279
47506W        W19931   0.970  19.636  11.067
47507W        W19932   9.261  39.998   2.894
47508W        W19933  18.074   4.415  12.436
47509W        W19934  31.579  33.080   2.744
47510W        W19935  14.712   3.329   0.481
47511W        W19936  13.811  39.860  13.535
47512W        W19937  11.355  22.118  14.478
47513W        W19938  26.553   3.376  10.038
47514W        W19939  20.744  33.062  10.508
47515W        W19940  15.251  43.001  10.972
47516W        W19941   5.425  18.586  11.522
47517W        W19942   6.221  15.634  12.945
47518W        W19943  33.950  19.098   1.428
47519W        W19944  21.626  14.748  10.515
47520W        W19945  21.686  32.576   1.377
47521W        W19946  37.902  12.204   0.797
47522W        W19947  17.569  11.798  12.492
47523W        W19948  20.046   6.682  14.028
47524W        W19949   1.771   1.406  13.985
47525W        W19950   1.801  25.214   2.812
47526W        W19951  37.508  25.694  14.490
47527W        W19952  10.678  36.040   1.771
47528W        W19953  10.790  32.140   4.823
47529W        W19954   9.158  40.804  10.563
47530W        W19955  15.176  44.438   0.373
47531W        W19956  41.841   5.306  11.018
47532W        W19957  42.022  41.341  11.047
47533W        W19958  34.526  40.008   2.733
47534W        W19959  24.034  28.020  13.920
47535W        W19960  41.977  34.063   0.945
47536W        W19961  33.448   3.458   9.944
47537W        W19962  27.634  37.900  10.903
47538W        W19963  14.220  20.180  13.040
47539W        W19964  29.150  40.487  11.461
47540W        W19965  25.684  11.282   2.806
47541W        W19966  15.318  12.633  11.378
47542W        W19967  38.046   8.827  12.406
47543W        W19968  33.898   1.464  12.939
47544W        W19969  32.014  30.104  12.497
47545W        W19970   6.232   7.186   5.209
47546W        W19971  21.733  32.092  10.010
47547W        W19972  36.095  18.693  14.381
47548W        W19973   3.430  40.865  13.861
47549W        W19974   5.889  32.116   0.824
47550W        W19975  30.456  36.351  10.610
47551W        W19976   3.447  11.859   1.284
47552W        W19977   6.883  32.942  11.003
47553W        W19978  12.252  41.841  11.984
47554W        W19979  38.369  25.701   0.266
47555W        W19980  19.541   5.817   0.312
47556W        W19981   1.800  16.635   3.819
47557W        W19982  35.096  20.741   3.685
47558W        W19983  22.238   0.258  14.363
47559W        W19984   7.839   5.909  10.016
47560W        W19985  29.472  21.744   1.272
47561W        W19986  42.028  17.075  10.046
47562W        W19987   4.381  24.199   1.717
47563W        W19988  18.660  29.437  13.933
47564W        W19989  40.536   6.227  10.575
47565W        W19990  10.378   5.769   5.132
47566W        W19991  22.501   4.233   3.214
47567W        W19992  21.115  11.717   1.413
47568W        W19993   8.198  34.079   3.732
47569W        W19994   7.828  31.610   1.925
47570W        W19995  11.196   4.237  11.534
47571W        W19996  37.858  37.415   0.472
47572W        W19997  21.523  41.302   0.462
47573W        W19998   4.290  22.174  11.528
47574W        W19999  31.002  15.631  11.984
47575W        W20000  36.043  24.674   0.868
47576W        W20001  38.510  42.899   2.279
47577W        W20002  14.775   0.856   0.889
47578W        W20003  11.815  24.212  10.897
47579W        W20004  19.755   5.429  14.924
47580W        W20005  23.022   9.655  13.379
47581W        W20006  38.873  28.162   1.896
47582W        W20007  43.896  43.469   1.712
47583W        W20008   9.202  36.498  10.423
47584W        W20009  27.951  21.623   0.859
47585W        W20010  40.522   4.410   1.349
47586W        W20011  15.629  26.604  10.552
47587W        W20012   9.690  26.517   4.321
47588W        W20013   5.802  15.756   0.276
47589W        W20014  26.532  32.901  12.867
47590W        W20015   7.724  36.992   0.320
47591W        W20016  39.839  23.716   3.729
47592W        W20017  26.473  23.700   1.438
47593W        W20018  29.568  23.161   0.318
47594W        W20019   0.865   6.731  12.382
47595W        W20020  28.603  19.739  14.400
47596W        W20021  39.535  44.009  11.388
47597W        W20022  44.334  38.064   4.689
47598W        W20023   4.722   4.931   2.234
47599W        W20024  14.735   7.824   3.825
47600W        W20025  36.510  39.015   2.312
47601W        W20026  27.630  39.962   1.414
47602W        W20027  13.650  13.825  12.360
47603W        W20028  21.541  22.666  14.770
47604W        W20029  33.446  31.050   3.721
47605W        W20030  10.647   0.280   0.484
47606W        W20031  38.490  25.582  12.371
47607W        W20032   3.917   6.344  11.910
47608W        W20033  24.564  20.089   4.748
47609W        W20034  38.898  27.617  14.820
47610W        W20035  33.902  17.176   0.918
47611W        W20036   0.407   3.395   0.942
47612W        W20037  10.183  16.568   4.796
47613W        W20038  35.929   9.676   0.727
47614W        W20039  43.811   5.291   1.360
47615W        W20040  31.421   0.901  10.634
47616W        W20041  22.180  16.811  12.399
47617W        W20042   6.364   7.780  10.997
47618W        W20043  42.985   2.339   5.275
47619W        W20044  41.471  43.769   9.952
47620W        W20045  38.073  38.917  13.375
47621W        W20046  23.731  21.064   3.301
47622W        W20047  40.900  26.587   4.196
47623W        W20048   3.406   4.749   4.187
47624W        W20049   9.702  32.006   5.096
47625W        W20050   1.460  40.876   0.730
47626W        W20051  28.134  26.688  14.847
47627W        W20052   4.315  15.750  10.476
47628W        W20053  16.181  37.859   3.786
47629W        W20054  23.998   6.349   1.400
47630W        W20055   4.393  43.859   4.773
47631W        W20056  25.104  38.014   3.721
47632W        W20057   7.224  35.506  14.346
47633W        W20058   0.933  16.739   3.656
47634W        W20059  29.992  44.976   3.844
47635W        W20060  35.431  19.572  12.551
47636W        W20061  20.748  39.984  10.634
47637W        W20062  31.026   9.215   0.276
47638W        W20063  36.504  40.854   3.790
47639W        W20064   2.863  14.305  13.347
47640W        W20065  35.108  22.582   0.384
47641W        W20066   1.872  32.441   4.192
47642W        W20067  34.493  10.867  13.868
47643W        W20068  34.550  33.020   0.955
47644W        W20069  37.549  39.039   2.405
47645W        W20070  34.885  40.537  10.920
47646W        W20071  28.642  18.281   2.328
47647W        W20072  33.918  43.854   4.703
47648W        W20073   7.822  26.048   4.273
47649W        W20074  14.720  35.531   1.763
47650W        W20075  13.326  13.797   4.647
47651W        W20076   0.887  40.348   2.745
47652W        W20077  29.934  14.677   3.841
47653W        W20078  20.610   7.800   3.209
47654W        W20079  15.799  31.497  11.008
47655W        W20080   2.386  38.871   4.814
47656W        W20081  26.077   7.260   0.734
47657W        W20082  32.523  17.223   3.330
47658W        W20083  29.119  38.012  14.834
47659W        W20084  22.716  19.126  12.088
47660W        W20085  11.717   7.908  13.506
47661W        W20086  40.005  29.580  13.547
47662W        W20087  13.782  28.557  14.028
47663W        W20088   7.910  34.481   0.783
47664W        W20089  30.130   8.826   4.298
47665W        W20090   4.906   5.381   3.162
47666W        W20091  40.910  32.392  13.051
47667W        W20092  36.060   9.326  12.376
47668W        W20093  35.500  32.617   3.705
47669W        W20094  30.641  28.948   3.686
47670W        W20095  29.094  29.618  10.546
47671W        W20096  36.072  41.007  13.793
47672W        W20097   6.330  25.500  12.085
47673W        W20098  11.705   2.430   3.247
47674W        W20099  22.226  14.230  11.059
47675W        W20100  32.966  35.896   1.817
47676W        W20101  18.206   3.264   2.737
47677W        W20102  29.978  18.633   2.278
47678W        W20103  12.117  11.231   4.636
47679W        W20104   1.745   8.672   4.769
47680W        W20105  40.534  20.651   0.957
47681W        W20106   8.197   9.149  14.443
47682W        W20107  36.585  35.461  10.982
47683W        W20108  12.188  16.246   1.880
47684W        W20109  26.555  36.050   0.433
47685W        W20110  31.423  19.084  13.962
47686W        W20111  29.511  15.659   2.689
47687W        W20112  37.939  34.415  10.919
47688W        W20113  17.185  23.642  14.509
47689W        W20114  12.240  37.336  12.835
47690W        W20115   0.917  19.646   4.270
47691W        W20116  44.472   7.871  12.025
47692W        W20117  17.608  16.274  14.004
47693W        W20118   0.479  22.745   2.747
47694W        W20119   7.252  24.607  10.914
47695W        W20120  35.917   1.305  13.886
47696W        W20121   2.323  32.591   2.802
47697W        W20122   0.814  44.337   5.301
47698W        W20123   6.239  18.122  12.865
47699W        W20124  36.074   8.693  12.464
47700W        W20125  41.526  24.525   1.426
47701W        W20126  26.553  21.622  10.561
47702W        W20127  38.986  20.127  11.011
47703W        W20128  32.122   4.343   3.871
47704W        W20129   5.265  27.996  14.940
47705W        W20130   4.237  36.446  13.897
47706W        W20131  22.065  42.999   4.324
47707W        W20132  27.978   6.919  11.431
47708W        W20133  30.646  37.495  12.559
47709W        W20134  31.036  30.639  12.403
47710W        W20135  23.034   6.847  11.435
47711W        W20136  14.740  42.380   1.699
47712W        W20137  39.820  18.661   0.915
47713W        W20138  41.968  28.960   4.603
47714W        W20139  35.515  15.244  10.441
47715W        W20140  26.637   7.688  12.835
47716W        W20141  31.024  23.199  10.607
47717W        W20142  28.635  15.777  14.807
47718W        W20143  11.687  19.687  14.306
47719W        W20144  25.163  38.064   2.787
47720W        W20145  13.638  35.962   2.392
47721W        W20146  17.794  40.371  11.546
47722W        W20147   2.358  10.771   1.358
47723W        W20148  27.943  15.690  14.891
47724W        W20149  17.182  44.449  10.497
47725W        W20150  29.503  42.800   4.774
47726W        W20151  10.864  38.898  13.314
47727W        W20152  21.552  43.931   4.646
47728W        W20153   2.754   3.887   1.917
47729W        W20154  26.034   4.757   0.766
47730W        W20155  40.032  41.907   3.685
47731W        W20156  28.570  21.040  12.438
47732W        W20157   4.257  10.147  14.415
47733W        W20158   1.259  44.503  12.415
47734W        W20159  25.621  42.520   1.908
47735W        W20160   6.758  14.757  11.496
47736W        W20161  14.763  27.482   0.338
47737W        W20162   1.278  17.159   3.188
47738W        W20163  17.797  25.486  10.418
47739W        W20164  14.153   7.222  14.784
47740W        W20165  35.394  30.980  14.848
47741W        W20166   3.327  41.036  13.518
47742W        W20167  19.279  32.634  13.814
47743W        W20168  21.262  16.726   1.822
47744W        W20169  31.930  11.754   2.698
47745W        W20170  21.066  42.877   0.915
47746W        W20171   6.818  18.600   1.804
47747W        W20172   1.896  41.502  13.914
47748W        W20173  37.400  39.553   0.254
47749W        W20174  15.818  36.954   4.679
47750W        W20175   3.920  16.747  14.024
47751W        W20176  40.000  36.938   4.675
47752W        W20177   5.360  42.448  14.412
47753W        W20178  35.365  44.891  14.873
47754W        W20179  25.497  13.165  10.597
47755W        W20180  41.839  14.674   3.336
47756W        W20181  42.285  35.957  13.346
47757W        W20182  42.793  24.635  14.776
47758W        W20183  14.292   8.741   3.329
47759W        W20184  18.273   6.412   4.811
47760W        W20185  20.561   1.940  11.505
47761W        W20186  28.600  41.492  10.462
47762W        W20187   6.714  36.508   5.132
47763W        W20188  38.560  34.070   4.676
47764W        W20189   0.844   7.363   3.303
47765W        W20190  34.420   2.962  13.371
47766W        W20191  19.256  32.127  13.037
47767W        W20192  11.162  21.018  13.335
47768W        W20193  38.339  43.303   0.916
47769W        W20194   4.393  28.969   0.810
47770W        W20195  36.967  25.710   0.779
47771W        W20196  22.039  11.272   3.695
47772W        W20197   9.178  28.957   9.945
47773W        W20198  22.549  20.208  10.494
47774W        W20199  43.300  10.656  14.484
47775W        W20200   0.353  15.642  12.864
47776W        W20201  16.739   4.755   3.637
47777W        W20202  26.625   0.928   3.676
47778W        W20203  31.012  24.638   0.726
47779W        W20204   6.356  17.580   0.786
47780W        W20205  33.920  26.163   0.860
47781W        W20206  33.415  27.061   1.795
47782W        W20207   1.376  12.231   2.665
47783W        W20208  19.165  16.217  13.414
47784W        W20209  32.122  40.000   2.768
47785W        W20210   9.760  20.103   3.370
47786W        W20211  16.088   4.894   2.823
47787W        W20212  27.187  17.089   2.865
47788W        W20213  44.772  34.607  13.886
47789W        W20214  34.900  40.985   0.748
47790W        W20215  15.642  39.558   3.369
47791W        W20216  12.615  38.560  11.917
47792W        W20217  15.202   0.908   4.281
47793W        W20218   8.217  22.070   1.263
47794W        W20219  13.160  26.467  14.905
47795W        W20220  16.711  23.559   0.281
47796W        W20221  32.894  13.309   0.848
47797W        W20222  41.884  44.416   1.288
47798W        W20223  10.865  32.143  14.997
47799W        W20224  15.803  33.601   2.193
47800W        W20225  26.627   4.914  13.880
47801W        W20226  33.610  17.624   2.802
47802W        W20227   9.746   6.411  12.381
47803W        W20228   8.323  28.055  10.928
47804W        W20229  35.861  15.087   4.237
47805W        W20230  24.172  20.162  12.070
47806W        W20231  22.143   5.868   4.229
47807W        W20232  31.058  42.423  12.933
47808W        W20233  18.153  25.694  10.631
47809W        W20234  36.418   3.341   2.250
47810W        W20235  13.158  29.018   1.293
47811W        W20236  17.657  29.584  10.583
47812W        W20237  26.560  35.554   1.418
47813W        W20238  37.940   0.442   1.300
47814W        W20239  23.542  28.637   4.716
47815W        W20240  41.469   6.241   4.802
47816W        W20241  23.190  31.432  14.953
47817W        W20242  21.636  18.273  11.454
47818W        W20243   8.162   8.257   3.867
47819W        W20244  39.402  15.680   1.276
47820W        W20245  44.413   6.411   3.347
47821W        W20246  13.734  11.665  14.468
47822W        W20247  16.614   7.273   0.783
47823W        W20248  36.904  12.275   3.721
47824W        W20249  25.054  32.979   2.681
47825W        W20250   2.355  15.609  14.875
47826W        W20251  41.018  35.077   1.880
47827W        W20252  44.771  14.250  10.636
47828W        W20253  16.212  14.224   4.837
47829W        W20254  31.420  20.716   4.159
47830W        W20255  40.899   6.736   1.419
47831W        W20256   6.343  43.277   0.890
47832W        W20257  28.434   2.825   3.249
47833W        W20258   0.861  40.989  12.022
47834W        W20259   7.781  21.686  12.064
47835W        W20260  35.097  26.036  12.016
47836W        W20261   5.822  35.419  13.408
47837W        W20262  29.005  16.095   1.776
47838W        W20263  32.893  12.708  13.029
47839W        W20264   5.295  11.266  13.325
47840W        W20265   2.277  27.492   0.317
47841W        W20266   1.919  33.008   2.782
47842W        W20267  15.676  17.677  12.516
47843W        W20268  18.055  33.888   1.251
47844W        W20269  13.728  15.705  13.916
47845W        W20270  19.601   4.857   4.226
47846W        W20271  35.085  39.894  12.395
47847W        W20272  20.043  20.628   4.774
47848W        W20273  15.172  29.585  14.301
47849W        W20274   1.798   3.337  10.568
47850W        W20275  27.615  20.585  13.482
47851W        W20276  13.776  26.611   4.707
47852W        W20277  35.569  29.984  11.886
47853W        W20278  11.230  36.514   3.235
47854W        W20279  36.081  20.161   1.367
47855W        W20280  16.150  40.320   2.241
47856W        W20281  29.144  44.504  14.514
47857W        W20282  26.092   2.468  11.411
47858W        W20283  37.400  43.007   3.790
47859W        W20284  37.069   3.373  13.975
47860W        W20285  39.331   4.226  10.933
47861W        W20286   1.793  32.996   4.256
47862W        W20287  14.732   0.349  11.518
47863W        W20288   8.249   9.724   4.785
47864W        W20289  16.805  31.911   5.569
47865W        W20290   7.413  23.111   1.714
47866W        W20291  16.654  42.903  12.395
47867W        W20292  33.899  15.660  13.003
47868W        W20293   6.285   8.891   4.235
47869W        W20294  11.828  24.565   1.780
47870W        W20295  19.540  39.332   4.630
47871W        W20296  20.077  23.183   4.645
47872W        W20297  31.000   8.673  13.063
47873W        W20298  39.980  33.100  13.033
47874W        W20299   8.232  21.581  13.800
47875W        W20300  10.164  25.155  11.029
47876W        W20301  29.609  25.133   2.673
47877W        W20302  31.406   0.414   1.293
47878W        W20303  44.910   0.909   4.257
47879W        W20304  16.752  34.583   0.338
47880W        W20305  33.955  25.676   3.265
47881W        W20306  37.360  44.307   1.766
47882W        W20307  15.186  32.065  11.991
47883W        W20308  32.598  13.683  14.276
47884W        W20309  16.618  28.518  13.905
47885W        W20310  44.883  27.083   4.207
47886W        W20311   4.826  28.976   3.640
47887W        W20312  35.004  30.547  12.504
47888W        W20313   9.869  11.804   1.901
47889W        W20314  15.301  20.532  12.532
47890W        W20315  13.236  38.421   1.911
47891W        W20316  33.431  13.333  14.368
47892W        W20317   3.382  35.917   9.966
47893W        W20318  44.371  28.988   0.797
47894W        W20319  12.680  12.314   4.154
47895W        W20320   8.231   1.976  14.394
47896W        W20321  33.428   6.294  11.525
47897W        W20322  35.949   5.241  12.862
47898W        W20323  16.117  42.314  13.019
47899W        W20324  36.368  24.586   1.924
47900W        W20325  19.641  33.033   0.434
47901W        W20326  30.427  41.022   2.367
47902W        W20327  39.012  31.422  12.434
47903W        W20328  38.874  29.445   4.255
47904W        W20329  21.156  22.741   2.706
47905W        W20330  25.557  12.236   3.351
47906W        W20331  17.115  32.073  12.495
47907W        W20332  10.738  15.796   2.345
47908W        W20333  36.894  16.227  10.425
47909W        W20334  34.962   7.861   0.923
47910W        W20335  28.084  37.929   3.800
47911W        W20336  44.389  41.845  12.389
47912W        W20337  44.481   9.795   2.804
47913W        W20338  43.004  28.681  11.575
47914W        W20339  33.908  44.818   2.197
47915W        W20340   0.464  33.005  12.910
47916W        W20341  35.448  11.661   2.390
47917W        W20342   8.279  24.115   2.326
47918W        W20343  35.383  13.272   3.773
47919W        W20344   8.356   6.746   5.142
47920W        W20345  11.343   4.758   4.305
47921W        W20346   6.337  28.150   5.289
47922W        W20347  19.564  39.944   1.425
47923W        W20348  11.157   3.881   0.780
47924W        W20349  13.129  32.073   0.742
47925W        W20350  37.419  16.317   0.314
47926W        W20351  39.372  18.643   2.339
47927W        W20352  39.431   8.655   3.226
47928W        W20353  19.594  13.194   1.377
47929W        W20354  31.152  29.146   3.165
47930W        W20355  32.536   8.350   1.358
47931W        W20356  18.583  28.438  11.113
47932W        W20357  41.475  22.118   2.287
47933W        W20358  34.090  29.529  14.946
47934W        W20359  15.783   2.405   1.314
47935W        W20360   1.306   5.258  12.849
47936W        W20361   9.763  43.791   2.344
47937W        W20362  26.474   2.313   3.680
47938W        W20363  22.094  39.428   4.665
47939W        W20364  32.621  43.930  13.453
47940W        W20365  36.376  33.592  11.473
47941W        W20366  21.237  20.114   4.163
47942W        W20367  40.410  14.225   4.727
47943W        W20368  14.202  25.628  11.904
47944W        W20369  31.624  36.540   1.694
47945W        W20370  28.110  27.175  12.445
47946W        W20371  17.562  38.351   1.891
47947W        W20372  17.252  42.488   4.221
47948W        W20373  36.578  24.124  14.498
47949W        W20374   1.256   1.333   0.353
47950W        W20375  17.743  32.627   1.907
47951W        W20376   4.877  20.572   3.147
47952W        W20377  38.910  20.630   3.691
47953W        W20378  31.497  29.654   4.812
47954W        W20379  10.843  17.582   2.734
47955W        W20380  28.524  19.113  11.530
47956W        W20381  23.138  22.513   2.787
47957W        W20382  12.160  23.718  10.621
47958W        W20383  27.019  26.047  14.885
47959W        W20384  38.932  22.518   2.347
47960W        W20385  16.175  30.094   2.677
47961W        W20386  36.058  14.605  11.039
47962W        W20387  34.371   9.153  11.526
47963W        W20388  26.600   0.486   4.793
47964W        W20389  35.047  34.586  14.783
47965W        W20390  32.597   1.296  14.808
47966W        W20391  41.314  20.056   3.639
47967W        W20392  41.508   7.731   2.715
47968W        W20393  22.664  19.731  11.451
47969W        W20394  23.174   6.841  11.030
47970W        W20395   5.292  33.948  14.465
47971W        W20396   6.881   8.347  14.340
47972W        W20397  39.926  41.920   5.092
47973W        W20398  33.487   2.317   0.438
47974W        W20399  23.219  19.137   1.914
47975W        W20400   4.395  14.236  11.929
47976W        W20401  10.783  17.155  14.010
47977W        W20402  23.736   5.722   0.740
47978W        W20403  16.802  31.509  11.085
47979W        W20404  40.798  13.744  13.336
47980W        W20405  18.668  12.643   3.702
47981W        W20406   8.739  30.158   3.864
47982W        W20407  24.580  24.571  11.559
47983W        W20408  32.570   1.782  11.125
47984W        W20409  21.229  32.544   1.778
47985W        W20410  30.000  35.475  13.939
47986W        W20411  43.911  19.183  10.600
47987W        W20412  42.319  27.562  11.941
47988W        W20413  43.397  27.670  10.416
47989W        W20414   2.358  37.562   0.909
47990W        W20415   7.768   1.827   2.737
47991W        W20416  30.545  22.148  14.420
47992W        W20417  33.397  40.492  10.921
47993W        W20418  36.589  11.799   5.121
47994W        W20419  15.603  44.773  12.499
47995W        W20420  18.549  17.065   0.412
47996W        W20421  15.114   7.787  13.457
47997W        W20422  14.096   4.368  11.004
47998W        W20423  38.527  33.417   3.339
47999W        W20424  31.605  26.646   0.756
48000W        W20425  31.634   5.800  13.054
48001W        W20426  30.948  18.646  11.054
48002W        W20427   1.796  21.749  11.924
48003W        W20428  21.516  44.836  11.081
48004W        W20429   6.289  20.608   0.471
48005W        W20430  15.307  20.118  11.004
48006W        W20431  21.716   0.888   4.832
48007W        W20432   7.210  23.107   3.168
48008W        W20433  18.079   3.935   1.448
48009W        W20434   2.292  15.659   9.937
48010W        W20435  37.077  23.624  13.494
48011W        W20436  27.557   4.712  10.598
48012W        W20437  27.050  33.008   2.680
48013W        W20438  31.943  15.233  11.117
48014W        W20439  22.016   3.428   1.834
48015W        W20440  21.017   5.923  12.055
48016W        W20441   2.778  13.253  10.460
48017W        W20442   7.896   0.448   2.788
48018W        W20443   8.855  37.471  12.440
48019W        W20444  39.809  24.619  11.025
48020W        W20445  32.049  16.165  13.909
48021W        W20446  26.667  18.710  12.041
48022W        W20447  18.645  15.184  10.541
48023W        W20448  11.764  29.997  10.972
48024W        W20449  42.446  14.338  14.846
48025W        W20450  27.589  16.797   0.382
48026W        W20451  22.588  35.870  11.904
48027W        W20452  13.631  41.994   1.335
48028W        W20453  10.267   4.855  10.052
48029W        W20454  31.146  36.489  13.443
48030W        W20455  11.827  33.057   4.175
48031W        W20456  31.916  32.617   4.280
48032W        W20457  33.456   7.401   1.911
48033W        W20458  15.263  23.011  11.866
48034W        W20459   1.306   1.933   2.316
48035W        W20460  20.105   7.231  11.914
48036W        W20461  15.686  12.306   1.934
48037W        W20462   7.823  15.759  13.439
48038W        W20463  29.072   6.404  11.577
48039W        W20464  13.105  44.472   1.359
48040W        W20465   9.745  19.646   3.374
48041W        W20466  27.112  16.633   3.284
48042W        W20467   5.351  17.239  10.009
48043W        W20468  32.494  33.563   9.932
48044W        W20469   0.953  19.205  10.517
48045W        W20470  23.056  28.669  11.971
48046W        W20471  26.694  21.123   0.331
48047W        W20472  15.747  36.368   2.779
48048W        W20473  31.927  23.646  12.892
48049W        W20474  26.578  13.728  12.824
48050W        W20475  35.036   3.230   0.865
48051W        W20476  19.042  32.024  11.128
48052W        W20477  28.962  33.884   3.163
48053W        W20478   9.363   6.701   3.823
48054W        W20479  43.832  18.095   2.275
48055W        W20480  25.112  37.542  13.860
48056W        W20481  32.449  25.055   0.250
48057W        W20482   5.240  20.636  11.126
48058W        W20483  42.364   4.883   3.251
48059W        W20484  19.724  39.424   3.806
48060W        W20485  42.782  38.369   4.711
48061W        W20486  23.115  26.522  10.625
48062W        W20487  42.921  23.006   2.703
48063W        W20488  39.555   8.221   4.257
48064W        W20489   6.892  35.412  14.377
48065W        W20490   2.778  17.064   4.753
48066W        W20491  41.341  29.637  12.539
48067W        W20492  24.075  22.200   0.899
48068W        W20493  21.618  19.134  12.561
48069W        W20494  27.481   8.822   4.678
48070W        W20495   4.869  36.044   4.705
48071W        W20496   8.303  19.160   2.779
48072W        W20497  22.597   1.261  13.509
48073W        W20498  32.458  11.716   0.365
48074W        W20499  33.601  14.314   5.170
48075W        W20500  10.712  31.602  12.448
48076W        W20501  19.613  44.771  11.899
48077W        W20502   7.345  20.108   4.830
48078W        W20503   6.248  36.590   0.399
48079W        W20504  34.057  19.541  11.557
48080W        W20505  18.279   5.311  14.869
48081W        W20506  13.601   4.225   3.835
48082W        W20507  31.033  17.683  12.356
48083W        W20508  32.454  14.697   0.863
48084W        W20509  36.400  29.928  10.412
48085W        W20510  42.779  37.568   1.379
48086W        W20511  43.487  29.150   1.919
48087W        W20512  44.380  15.746  10.128
48088W        W20513  29.492  28.436   2.884
48089W        W20514   4.372  18.284   3.668
48090W        W20515  40.349   0.767  13.337
48091W        W20516  39.329  17.673  13.890
48092W        W20517  32.595   7.747  11.004
48093W        W20518   8.752  14.121   0.398
48094W        W20519  21.593  30.614  12.379
48095W        W20520  42.884  29.451  11.072
48096W        W20521  26.153  26.555   4.346
48097W        W20522  37.855  22.586  11.129
48098W        W20523   8.863  15.722  14.471
48099W        W20524  24.108   8.284   3.722
48100W        W20525  32.537   5.885   1.227
48101W        W20526  35.031  34.369  11.949
48102W        W20527  44.352  35.000   3.346
48103W        W20528   1.350  36.446   4.616
48104W        W20529   6.869   9.246  11.397
48105W        W20530  33.553  39.816   4.138
48106W        W20531  21.517  38.022  14.395
48107W        W20532   8.216  34.464  13.485
48108W        W20533   8.666  17.755   4.823
48109W        W20534  39.386  10.198   0.259
48110W        W20535  17.704  10.367  10.948
48111W        W20536  40.959  28.056  12.423
48112W        W20537  10.282  27.630   1.850
48113W        W20538  36.075  16.698  13.043
48114W        W20539  26.665  37.486   2.685
48115W        W20540  23.693  22.122  14.837
48116W        W20541   3.456  14.814  11.539
48117W        W20542   5.910  38.460  10.434
48118W        W20543  40.480  39.821   4.257
48119W        W20544  29.120  13.296   3.173
48120W        W20545  37.838  10.852  14.881
48121W        W20546   7.344  24.118  13.873
48122W        W20547   5.263  26.096   3.795
48123W        W20548  16.124  43.505   1.284
48124W        W20549   9.769  32.453   0.402
48125W        W20550  20.688  26.576   3.762
48126W        W20551  19.767  31.008   4.837
48127W        W20552   2.872   1.447   4.322
48128W        W20553  31.968   6.346   5.236
48129W        W20554  21.147  32.987  12.964
48130W        W20555  32.028  17.072  10.622
48131W        W20556  43.821   2.854  10.584
48132W        W20557  14.229  22.075  11.461
48133W        W20558  31.450  11.303  10.643
48134W        W20559  19.122   4.400  13.379
48135W        W20560  28.931   7.205  13.963
48136W        W20561   6.686  14.172  14.303
48137W        W20562  20.255  28.943   0.315
48138W        W20563   1.755  26.482  13.064
48139W        W20564  38.981  39.884   2.690
48140W        W20565  38.989  37.478   0.472
48141W        W20566  23.508  28.457  14.927
48142W        W20567  42.286  15.256   2.773
48143W        W20568   3.747   7.878   2.797
48144W        W20569  41.430  10.874  10.408
48145W        W20570  27.546  22.534   0.786
48146W        W20571   1.403  10.790   0.791
48147W        W20572  13.793  21.178  10.033
48148W        W20573  37.347   7.253  10.965
48149W        W20574  36.546   0.251  13.371
48150W        W20575  22.999  38.858   1.922
48151W        W20576  17.608   4.715   0.406
48152W        W20577  10.167  16.286  10.950
48153W        W20578  18.689  37.988   2.831
48154W        W20579  12.702   0.337  13.395
48155W        W20580  28.060   7.255   2.352
48156W        W20581   9.325  12.329   1.829
48157W        W20582  14.597  44.358   0.363
48158W        W20583   7.237  41.996   1.839
48159W        W20584  25.545  40.005  14.912
48160W        W20585  22.644  44.451   3.650
48161W        W20586  37.002  20.052   0.847
48162W        W20587  30.593   8.711   3.163
48163W        W20588  15.821  11.621  12.094
48164W        W20589  21.021  36.991  12.562
48165W        W20590   0.261  29.919  12.065
48166W        W20591  40.824   9.665   3.864
48167W        W20592  21.743  39.989  12.955
48168W        W20593  17.193  33.959  10.965
48169W        W20594  15.716   6.335   0.788
48170W        W20595  33.999  26.548  12.493
48171W        W20596  15.088  37.944   2.895
48172W        W20597  12.657  18.612   1.828
48173W        W20598  16.785  14.211  13.858
48174W        W20599  23.069   1.467  11.935
48175W        W20600  29.457  24.607  13.451
48176W        W20601  29.007   0.263   3.368
48177W        W20602  44.264  18.086   4.736
48178W        W20603  42.789  40.528   2.669
48179W        W20604  26.596  38.331  10.158
48180W        W20605   3.927  21.702   3.173
48181W        W20606  12.701  43.897  14.372
48182W        W20607  30.974  39.343  11.494
48183W        W20608  15.095   2.941   4.307
48184W        W20609   3.403  33.598   2.310
48185W        W20610  18.219   7.845   0.443
48186W        W20611  10.271  33.487   4.300
48187W        W20612  11.296  44.428  13.400
48188W        W20613   5.736   4.776  12.920
48189W        W20614   9.242  36.888   0.349
48190W        W20615   1.330  42.330  12.448
48191W        W20616   1.876  33.062  11.386
48192W        W20617  35.380   5.891  12.562
48193W        W20618  21.567   5.691  12.398
48194W        W20619  26.121  30.622   4.797
48195W        W20620  15.096  38.030   3.841
48196W        W20621   7.239  42.028  12.977
48197W        W20622  41.458   8.404   0.476
48198W        W20623  24.577  20.191  14.404
48199W        W20624  26.970  19.050  14.970
48200W        W20625  38.362  31.925  14.004
48201W        W20626  33.053   8.176  11.100
48202W        W20627  27.529  29.936   9.981
48203W        W20628  34.495  18.749   1.864
48204W        W20629  14.796   3.241   5.124
48205W        W20630  35.973  34.437  10.641
48206W        W20631  22.066  40.542   3.283
48207W        W20632   7.704  11.278   3.853
48208W        W20633  23.598  30.523   4.306
48209W        W20634   0.271  22.527   0.242
48210W        W20635  42.340   9.267  11.499
48211W        W20636  25.671  38.440   3.789
48212W        W20637  16.671  29.423   2.305
48213W        W20638  18.675  31.640  13.825
48214W        W20639  18.085  13.347  10.504
48215W        W20640   3.241   9.656  13.525
48216W        W20641  13.321  26.681  13.359
48217W        W20642  20.619   6.711  14.385
48218W        W20643  35.859  33.504  11.069
48219W        W20644   8.394  29.136   4.130
48220W        W20645   2.827  19.589  10.443
48221W        W20646   1.975   6.782  14.986
48222W        W20647  32.963  34.576   4.134
48223W        W20648  23.112  36.851  14.814
48224W        W20649  18.753   6.204   4.770
48225W        W20650  31.913   8.799  13.889
48226W        W20651   8.811  37.431   1.914
48227W        W20652  32.131  18.083   1.730
48228W        W20653  28.087  41.484  13.054
48229W        W20654   4.308   0.813   2.339
48230W        W20655  16.786  20.263  14.925
48231W        W20656   2.840   1.780  10.957
48232W        W20657  34.591  13.216  10.588
48233W        W20658  27.966   9.728   2.304
48234W        W20659  44.483   6.710   2.251
48235W        W20660  25.592  28.006  10.487
48236W        W20661   2.763   9.713  11.502
48237W        W20662  27.673   5.400   4.742
48238W        W20663  34.916  37.521   4.164
48239W        W20664  21.536   1.756   2.691
48240W        W20665  12.724   1.312  14.475
48241W        W20666  30.636  10.168   2.667
48242W        W20667  29.924   9.645   1.871
48243W        W20668  44.911  25.125  14.926
48244W        W20669  30.536  12.342   4.177
48245W        W20670   7.356  38.447  10.459
48246W        W20671   0.805  13.794  11.411
48247W        W20672  28.162  31.641  14.790
48248W        W20673  17.167  38.441  11.074
48249W        W20674  31.094  26.071   0.943
48250W        W20675  16.153  21.538   2.798
48251W        W20676  31.963   6.910  11.393
48252W        W20677  26.689  38.903  10.942
48253W        W20678  11.736  24.004  10.553
48254W        W20679  40.943   2.728   2.348
48255W        W20680  11.660  16.592   3.337
48256W        W20681  28.058  31.094   4.277
48257W        W20682  26.597  38.398  10.626
48258W        W20683   5.844  18.171  14.870
48259W        W20684  37.354   1.791   4.230
48260W        W20685  12.788  16.244  11.094
48261W        W20686  12.824  12.622   4.798
48262W        W20687  41.413  16.720   0.961
48263W        W20688  38.396   3.934  11.386
48264W        W20689  35.005   0.947  11.975
48265W        W20690  43.432  15.791  13.057
48266W        W20691  27.021  21.722   2.826
48267W        W20692  25.517  33.537  10.073
48268W        W20693  22.065  32.114  14.302
48269W        W20694  14.262  40.804  14.763
48270W        W20695  23.615  21.673  11.086
48271W        W20696  34.000  16.218   3.857
48272W        W20697   7.844  36.915   2.684
48273W        W20698  16.139  29.429  13.955
48274W        W20699  21.618   4.771   2.247
48275W        W20700  33.583  17.642  14.504
48276W        W20701   7.282  38.489   0.278
48277W        W20702  28.466  15.138  10.524
48278W        W20703  39.048   6.774   0.760
48279W        W20704  24.016  32.041  10.910
48280W        W20705  26.057  27.601  11.447
48281W        W20706  28.161  33.529   0.935
48282W        W20707   9.168   5.437   3.175
48283W        W20708  24.543  30.949  14.381
48284W        W20709  21.562  17.167  13.533
48285W        W20710  19.065  35.507  13.864
48286W        W20711  35.440  10.320  13.957
48287W        W20712  35.862  25.036  10.888
48288W        W20713   4.703   5.369  14.503
48289W        W20714   1.337  43.509   4.140
48290W        W20715  19.768  25.171   1.261
48291W        W20716  27.968   8.833   4.132
48292W        W20717  26.467  29.484  10.979
48293W        W20718   0.918  14.623  11.542
48294W        W20719  35.852  38.943  10.635
48295W        W20720  27.191  14.137   1.793
48296W        W20721   0.825  38.957   2.399
48297W        W20722  19.119  10.355  14.971
48298W        W20723   7.787   6.270  11.600
48299W        W20724  42.389   2.440  13.414
48300W        W20725   2.311  22.636   1.280
48301W        W20726  11.166  41.508   4.648
48302W        W20727  26.567  20.551  13.969
48303W        W20728  11.783  30.462   5.138
48304W        W20729  28.129  32.026   3.821
48305W        W20730   9.785  21.225  11.979
48306W        W20731  27.974   7.280   4.280
48307W        W20732   6.907   6.794  12.430
48308W        W20733  40.549  39.453   1.743
48309W        W20734  17.566  26.098  14.395
48310W        W20735  22.183  20.250  12.909
48311W        W20736  33.566   8.203  13.533
48312W        W20737  32.044  25.540  11.542
48313W        W20738  12.714  28.609   4.714
48314W        W20739  25.150  28.486  13.058
48315W        W20740  15.152  31.403  14.771
48316W        W20741  44.461  18.123  13.891
48317W        W20742  37.909  22.031  11.514
48318W        W20743  15.256  29.603   4.177
48319W        W20744  12.285   3.831   0.442
48320W        W20745   6.847  20.206  13.965
48321W        W20746   2.318  12.618  12.838
48322W        W20747  13.152  38.050  11.869
48323W        W20748  19.132  34.581  14.286
48324W        W20749  44.410  32.465   4.754
48325W        W20750  29.030  25.969  14.773
48326W        W20751  28.174  36.957  13.798
48327W        W20752   4.799  30.606  12.031
48328W        W20753   6.368  30.462   4.226
48329W        W20754  41.445   5.390  11.513
48330W        W20755  10.733  39.912   0.893
48331W        W20756  36.068  24.001   3.809
48332W        W20757  44.759  10.820   3.853
48333W        W20758  19.754  17.732   4.310
48334W        W20759   3.363  17.623  12.477
48335W        W20760  32.109  37.562   0.863
48336W        W20761  18.185  19.646   2.890
48337W        W20762  32.968   5.916   2.410
48338W        W20763   9.170   9.299  14.463
48339W        W20764   8.191  19.086  14.867
48340W        W20765  27.185  25.673  13.825
48341W        W20766  14.213  41.397  12.507
48342W        W20767  40.311  39.536   4.151
48343W        W20768  35.425  38.030   3.147
48344W        W20769   3.232   0.796  13.362
48345W        W20770  16.739   2.248   0.254
48346W        W20771   2.902  11.807  11.394
48347W        W20772   2.449   5.719   1.315
48348W        W20773  19.274  39.438   1.792
48349W        W20774  25.995  30.941  13.521
48350W        W20775  24.107  40.504   2.860
48351W        W20776  11.187  35.030  10.969
48352W        W20777   8.404  40.469  12.381
48353W        W20778  33.042  16.687   9.942
48354W        W20779  30.427   5.920  13.806
48355W        W20780  29.532  21.024  10.972
48356W        W20781   3.747  19.149  12.038
48357W        W20782  17.626  24.532  14.780
48358W        W20783  22.102  28.062   4.196
48359W        W20784   5.361  17.724   2.857
48360W        W20785  32.514  25.150   3.701
48361W        W20786  19.540  21.185  12.381
48362W        W20787   3.342  36.073   3.695
48363W        W20788  43.795  30.619   0.899
48364W        W20789  38.399  13.616   0.796
48365W        W20790  37.554   4.370  13.460
48366W        W20791   7.227  36.984   0.734
48367W        W20792  39.942   4.238   4.835
48368W        W20793  13.599  34.992   1.350
48369W        W20794  15.091   0.335   0.436
48370W        W20795   9.226  26.180   3.259
48371W        W20796  16.570   6.278   0.421
48372W        W20797  39.414  24.047  13.413
48373W        W20798  27.584   4.445   2.359
48374W        W20799   3.337  12.770   4.598
48375W        W20800  30.951  28.103  12.401
48376W        W20801  34.467  23.192  10.978
48377W        W20802  26.187  22.598   1.291
48378W        W20803  42.823  17.134   5.195
48379W        W20804  25.535  37.079  13.877
48380W        W20805   3.942  32.070   2.811
48381W        W20806  25.692  28.672   0.939
48382W        W20807  41.532  12.627  13.923
48383W        W20808   6.393  32.007  12.533
48384W        W20809  41.798  31.623   3.324
48385W        W20810   7.272  22.621  11.053
48386W        W20811  34.083   9.762  13.060
48387W        W20812  15.189   6.317   4.174
48388W        W20813  38.029  21.743  14.513
48389W        W20814  33.497  41.460  11.568
48390W        W20815  27.644  12.650   0.375
48391W        W20816  34.379  23.682  12.050
48392W        W20817  33.471  20.732   3.168
48393W        W20818  17.097   4.796   3.730
48394W        W20819  21.202  38.979   1.212
48395W        W20820  13.704  31.070   0.440
48396W        W20821  25.135   4.804   2.205
48397W        W20822  21.718  13.717  11.024
48398W        W20823  11.709  38.953   3.838
48399W        W20824  13.117   7.857   3.725
48400W        W20825  24.182  18.238  12.977
48401W        W20826  31.031   4.246  12.999
48402W        W20827  34.916  28.563  14.491
48403W        W20828  26.107  35.410  12.349
48404W        W20829  11.191  16.202  13.986
48405W        W20830  14.675  39.816  12.055
48406W        W20831  11.637  22.191  10.476
48407W        W20832  43.393  32.107  11.373
48408W        W20833  44.447  15.788   2.416
48409W        W20834  41.871  17.175  11.974
48410W        W20835   8.772  19.554  11.948
48411W        W20836  25.005   8.898   1.855
48412W        W20837  29.926  19.220  11.468
48413W        W20838  11.329   8.761   2.845
48414W        W20839  43.940   6.291   2.291
48415W        W20840   7.791  43.498   2.682
48416W        W20841  21.731  24.125   3.202
48417W        W20842   3.347   3.873  10.993
48418W        W20843  22.178   2.404   0.898
48419W        W20844  10.159  44.864  14.003
48420W        W20845   8.713  16.225  12.531
48421W        W20846   4.853  16.583   1.708
48422W        W20847   8.313  30.057   3.790
48423W        W20848  15.703  16.714   2.894
48424W        W20849   4.297  25.107  12.841
48425W        W20850   8.900  39.357  13.873
48426W        W20851  12.801  19.602  14.015
48427W        W20852   8.841  11.245  13.499
48428W        W20853   5.822   2.866   1.920
48429W        W20854  21.618  19.715  11.583
48430W        W20855   4.331  22.581  14.481
48431W        W20856  29.504  32.918   0.427
48432W        W20857  10.719  35.575  14.855
48433W        W20858  19.767  17.759   1.442
48434W        W20859  23.542  20.623  13.449
48435W        W20860  37.354  18.673  13.486
48436W        W20861   6.269  28.941   3.721
48437W        W20862   2.346  42.383  13.529
48438W        W20863  18.084  13.777  13.041
48439W        W20864  43.868  43.506  13.008
48440W        W20865  39.464  40.018   3.198
48441W        W20866   6.687  16.122   1.427
48442W        W20867  38.921  11.159  12.074
48443W        W20868  14.324   8.183  14.353
48444W        W20869  22.222  25.164   0.312
48445W        W20870  36.886   3.732   2.875
48446W        W20871  23.095  34.503  11.983
48447W        W20872   8.836  11.629  13.819
48448W        W20873  20.146  31.966   3.369
48449W        W20874  20.734  31.421   4.829
48450W        W20875  22.232  28.963  13.390
48451W        W20876   8.240  42.894   5.291
48452W        W20877  22.183  11.786   5.163
48453W        W20878  44.286  39.911  14.384
48454W        W20879  16.684  16.309   4.267
48455W        W20880   0.807  14.220   3.265
48456W        W20881  23.179   6.920   4.737
48457W        W20882  35.953  16.252   3.857
48458W        W20883  36.994  19.653  10.597
48459W        W20884  26.052  18.224  11.424
48460W        W20885  44.289  25.143  13.383
48461W        W20886  31.576   2.273  14.023
48462W        W20887   9.679  28.437  10.564
48463W        W20888  43.325  18.600   2.236
48464W        W20889   5.798  42.918  12.992
48465W        W20890  43.928  22.545  11.881
48466W        W20891   6.285  32.485   0.789
48467W        W20892   1.968  37.525   0.370
48468W        W20893  23.625  15.208  11.964
48469W        W20894  18.245  11.654   1.295
48470W        W20895  15.327  33.985  12.430
48471W        W20896  19.538   6.289  11.438
48472W        W20897  34.072  44.975  10.510
48473W        W20898  22.200  13.111   3.364
48474W        W20899   9.391  39.888   2.405
48475W        W20900   0.468  19.065  10.468
48476W        W20901  31.588  28.633   3.181
48477W        W20902  33.899   3.863   2.313
48478W        W20903  34.970  35.394  12.014
48479W        W20904  44.324  38.426   4.198
48480W        W20905  32.958  10.822  11.028
48481W        W20906  40.391  20.636   1.850
48482W        W20907  24.522  29.606   0.858
48483W        W20908   6.356  28.518   3.697
48484W        W20909  34.588  40.801   3.859
48485W        W20910  23.173   7.676   2.687
48486W        W20911  24.201   3.814  11.897
48487W        W20912  28.643  21.738  14.451
48488W        W20913  30.606   5.790  12.559
48489W        W20914  41.307  18.558   3.159
48490W        W20915  32.051  16.184   2.225
48491W        W20916  30.100  24.671   2.738
48492W        W20917  26.524  29.975  10.958
48493W        W20918  24.044  13.803  11.051
48494W        W20919  25.150   1.825  13.910
48495W        W20920   9.777  26.555   1.845
48496W        W20921  10.326  13.650   3.676
48497W        W20922  36.984  14.702   0.754
48498W        W20923  21.650   4.285   2.708
48499W        W20924  10.321   6.813   0.268
48500W        W20925  18.220  12.630   2.261
48501W        W20926  25.584  20.160  12.538
48502W        W20927  20.211  19.275  14.307
48503W        W20928  28.627   2.914   0.896
48504W        W20929  31.983   3.749   0.352
48505W        W20930   4.361  10.705  12.063
48506W        W20931   7.874  24.552   1.317
48507W        W20932  16.607  12.830   1.871
48508W        W20933  15.112  25.089   2.714
48509W        W20934  32.622  11.359  14.961
48510W        W20935   5.374  26.570   5.118
48511W        W20936  21.593  14.739  13.410
48512W        W20937  42.012  39.558   1.271
48513W        W20938  14.768  24.508   1.696
48514W        W20939  19.229  25.529   2.715
48515W        W20940  25.968  35.898  10.483
48516W        W20941   7.885  32.418   1.782
48517W        W20942  21.255  22.154  11.916
48518W        W20943  30.971  10.205  14.323
48519W        W20944  16.781   1.268  14.912
48520W        W20945  22.640  34.007  12.571
48521W        W20946  22.623  35.465  11.409
48522W        W20947  37.965  42.300  12.839
48523W        W20948  40.305  19.644  11.546
48524W        W20949  29.154  14.819  14.022
48525W        W20950  26.545  39.452   1.761
48526W        W20951  22.066  19.625  12.006
48527W        W20952  29.044  30.618  11.970
48528W        W20953  39.434   3.319  10.947
48529W        W20954   4.828  12.350   1.319
48530W        W20955  33.978  10.312  12.938
48531W        W20956  35.954  39.324   1.756
48532W        W20957  14.253  12.181  14.768
48533W        W20958  33.506  24.177   2.326
48534W        W20959  21.586  15.602  14.973
48535W        W20960   8.782   0.409   3.868
48536W        W20961  30.931   2.966  13.030
48537W        W20962  15.226   7.743  11.050
48538W        W20963  31.559  33.401  10.915
48539W        W20964  40.045  17.568  13.328
48540W        W20965  39.464   9.262   0.295
48541W        W20966   9.762  40.892  14.308
48542W        W20967  11.856  43.991  11.420
48543W        W20968   5.823   1.279  11.507
48544W        W20969  42.371  29.979   4.265
48545W        W20970   0.925  21.073   5.266
48546W        W20971  33.999  27.986   1.270
48547W        W20972   7.342  32.938  11.064
48548W        W20973   0.855  42.419   2.234
48549W        W20974  40.395  16.722  11.506
48550W        W20975  14.692  12.137  12.483
48551W        W20976  19.198   6.376   4.249
48552W        W20977  11.742  33.391   5.195
48553W        W20978  30.969   7.762   1.913
48554W        W20979  11.854  36.394   3.667
48555W        W20980  29.935  31.976  11.073
48556W        W20981  41.914   0.394  14.760
48557W        W20982  36.537  27.481   1.799
48558W        W20983  30.918  25.190   2.802
48559W        W20984  19.227  23.033  11.927
48560W        W20985  22.582   5.386   1.447
48561W        W20986   5.394  40.914  12.528
48562W        W20987  20.056   8.314  13.020
48563W        W20988   5.194   5.389  12.040
48564W        W20989   7.760  14.826  11.586
48565W        W20990  42.968  23.590   2.281
48566W        W20991  17.197   0.784  10.087
48567W        W20992  17.754  44.943  10.443
48568W        W20993  25.626   6.873   2.346
48569W        W20994  10.222  14.187  13.849
48570W        W20995   6.379   6.744   3.313
48571W        W20996  17.745  15.601   3.233
48572W        W20997  40.368  10.297  14.817
48573W        W20998  30.634  39.500  11.091
48574W        W20999  38.942  34.532  14.006
48575W        W21000  44.947   1.769   3.744
48576W        W21001  21.058  12.790  13.997
48577W        W21002  15.654  37.977  12.517
48578W        W21003   1.267  14.165   0.732
48579W        W21004  15.772  23.138   4.690
48580W        W21005  11.164  16.693  10.506
48581W        W21006  31.473  44.305   1.388
48582W        W21007  10.703   7.748  11.504
48583W        W21008  38.866   7.724  10.565
48584W        W21009  20.246  39.927  14.908
48585W        W21010   2.417  33.042  12.355
48586W        W21011  36.044  44.960   3.193
48587W        W21012   4.299  26.478   4.714
48588W        W21013  15.677   6.207  14.948
48589W        W21014  14.193  14.789  11.550
48590W        W21015  30.520  38.483  14.876
48591W        W21016  43.869  43.847   1.913
48592W        W21017  19.058  29.012   1.356
48593W        W21018  42.287  33.593  13.872
48594W        W21019  13.253  10.872  11.865
48595W        W21020  28.440  10.850   4.675
48596W        W21021  19.550  34.995   4.195
48597W        W21022  20.103  26.479  12.527
48598W        W21023  16.717  19.241  11.604
48599W        W21024  42.940  37.855  12.493
48600W        W21025   6.739  21.718   2.189
48601W        W21026  30.911  44.884   1.814
48602W        W21027  28.460   4.220   0.749
48603W        W21028  33.122  28.479   4.664
48604W        W21029  12.856  20.088  11.521
48605W        W21030  32.103  14.747   4.333
48606W        W21031  36.472   6.254  14.952
48607W        W21032  15.642  26.679   0.845
48608W        W21033  18.219   7.256   3.344
48609W        W21034  41.881   0.790  14.509
48610W        W21035  29.025   1.875   0.860
48611W        W21036  27.580  34.035  10.119
48612W        W21037  21.217   3.411  13.535
48613W        W21038  25.480  39.872   0.375
48614W        W21039  24.016   5.370  10.602
48615W        W21040   7.353  21.723   1.831
48616W        W21041  18.755  22.217   3.172
48617W        W21042  29.635  31.612   1.436
48618W        W21043  44.263   5.836   0.819
48619W        W21044   4.879  20.112   1.238
48620W        W21045  36.453  37.889  12.056
48621W        W21046  24.702  33.494  13.352
48622W        W21047  25.165  21.589   1.853
48623W        W21048   2.803  19.697  13.324
48624W        W21049  40.309   4.757  12.345
48625W        W21050  13.332  39.354   4.641
48626W        W21051  15.103  30.525  14.501
48627W        W21052  24.023   5.745   2.674
48628W        W21053  37.437   5.338  11.129
48629W        W21054  24.546   5.267  12.038
48630W        W21055  43.440  29.081  10.911
48631W        W21056   3.755   0.961   0.860
48632W        W21057  27.966   0.295  11.074
48633W        W21058  24.166  29.118  11.936
48634W        W21059  37.418  19.254  13.452
48635W        W21060  44.469  18.774  12.824
48636W        W21061  20.114   6.387  11.066
48637W        W21062  21.549  29.436   0.861
48638W        W21063  33.586   5.882  11.372
48639W        W21064  27.606  10.210  13.922
48640W        W21065  19.617  22.014   4.351
48641W        W21066  44.995   9.261   0.781
48642W        W21067   4.249  26.982   4.231
48643W        W21068   9.179  29.576  14.910
48644W        W21069   0.483  44.954  12.975
48645W        W21070   9.301  13.123   4.215
48646W        W21071  27.649  42.802  10.611
48647W        W21072  27.165  42.508   4.706
48648W        W21073  14.731  15.306   0.776
48649W        W21074  40.899  35.523  14.393
48650W        W21075  19.067  30.548   2.238
48651W        W21076  25.664  25.536   1.731
48652W        W21077   4.767  35.392  13.415
48653W        W21078  25.680  30.502  13.365
48654W        W21079  16.748  38.829  12.490
48655W        W21080  15.638  30.963   0.418
48656W        W21081  12.644  30.586  13.356
48657W        W21082   2.820  44.365  13.904
48658W        W21083   4.943  40.955  12.008
48659W        W21084  17.281  31.538   5.105
48660W        W21085  38.026  19.623   2.371
48661W        W21086  20.258  41.027  11.892
48662W        W21087   1.922  27.132   4.117
48663W        W21088  42.906  31.618  13.328
48664W        W21089  13.320   5.801  13.513
48665W        W21090   0.351  24.640   4.838
48666W        W21091   9.674  14.633   3.826
48667W        W21092  44.425  11.722   1.743
48668W        W21093  41.821  19.129  14.338
48669W        W21094  20.587  17.125   1.436
48670W        W21095  16.226   5.933  12.492
48671W        W21096  10.669   5.717  13.314
48672W        W21097  10.852   8.383   5.203
48673W        W21098   0.766   9.817   2.896
48674W        W21099  13.346  43.988  11.038
48675W        W21100  40.829  36.505   4.764
48676W        W21101  28.055  26.599   3.196
48677W        W21102  27.097  33.512  14.286
48678W        W21103   0.913   4.861   4.658
48679W        W21104  15.818  19.066  11.032
48680W        W21105  21.220   0.435  10.986
48681W        W21106  17.282  32.099   1.232
48682W        W21107   4.791   3.925   2.901
48683W        W21108  44.419  31.623  13.398
48684W        W21109  12.684   5.301   3.183
48685W        W21110  21.130  39.502   4.221
48686W        W21111  33.472  43.394   3.813
48687W        W21112  25.612  41.907   0.404
48688W        W21113  23.553  16.124  10.617
48689W        W21114  44.886   9.796  13.983
48690W        W21115  39.475  13.809  14.858
48691W        W21116  43.946   5.193   3.867
48692W        W21117  19.047  11.362  13.855
48693W        W21118  40.904  36.389   1.266
48694W        W21119  18.584  43.892   0.954
48695W        W21120  27.099  41.380   2.378
48696W        W21121  11.165  12.766   2.296
48697W        W21122  10.654  23.686  14.357
48698W        W21123   8.674  19.553   3.831
48699W        W21124  31.026  26.601  11.453
48700W        W21125  38.902  11.762  10.528
48701W        W21126  30.912  35.521  11.886
48702W        W21127  41.422  29.574   4.256
48703W        W21128   0.867  19.725   2.321
48704W        W21129  18.205   5.913   2.226
48705W        W21130   2.450  17.565   1.238
48706W        W21131  30.557  22.715   0.258
48707W        W21132  19.175  25.179   2.230
48708W        W21133  24.699  41.845  10.427
48709W        W21134  13.279  15.699  10.479
48710W        W21135  21.068   8.721   5.097
48711W        W21136  22.116  26.694   0.278
48712W        W21137   0.409   8.312   3.816
48713W        W21138   0.373  39.491  13.903
48714W        W21139  41.433  37.384  12.380
48715W        W21140  38.970  15.239   0.385
48716W        W21141  41.469   2.416   4.653
48717W        W21142  16.577  17.291   0.461
48718W        W21143  10.874  24.103  10.052
48719W        W21144  44.380   0.443   0.244
48720W        W21145   9.657  24.094  10.917
48721W        W21146  18.749  34.941   3.158
48722W        W21147  10.252  12.156   4.605
48723W        W21148  31.475  33.391   2.723
48724W        W21149  20.562  23.988   0.907
48725W        W21150  23.089   0.756  10.985
48726W        W21151  30.150  14.773  10.563
48727W        W21152  27.491  27.524  13.454
48728W        W21153  26.557   3.335   5.165
48729W        W21154  43.401  34.615   3.173
48730W        W21155  20.634  11.822   0.355
48731W        W21156  21.640  35.080   4.711
48732W        W21157  41.893   3.355   3.630
48733W        W21158  42.522  33.069   2.383
48734W        W21159  33.042  42.017   3.812
48735W        W21160  35.427  42.429  13.010
48736W        W21161  19.698   2.734  14.013
48737W        W21162  37.001  31.909   0.960
48738W        W21163  38.382   2.434   1.388
48739W        W21164  37.049  40.318   2.712
48740W        W21165  40.035  17.283  12.001
48741W        W21166   8.820  40.974   0.903
48742W        W21167  19.608   0.878   2.372
48743W        W21168  40.875  37.863   2.760
48744W        W21169  38.919  24.651   1.412
48745W        W21170  14.682  19.588  11.947
48746W        W21171  36.014  13.220   2.300
48747W        W21172  10.690  24.078   1.351
48748W        W21173   3.758  36.578  13.361
48749W        W21174  29.048  20.714  12.007
48750W        W21175  19.771  23.172  14.335
48751W        W21176   1.376  39.038   1.377
48752W        W21177  33.452  16.766   1.311
48753W        W21178  20.212   6.920   0.342
48754W        W21179  16.776  28.052   2.273
48755W        W21180  42.013  14.684  11.552
48756W        W21181  16.147  40.817   2.765
48757W        W21182   6.680  31.597  10.888
48758W        W21183   6.825   3.231   4.706
48759W        W21184   7.715  21.191  12.065
48760W        W21185  22.654  22.178  13.479
48761W        W21186  18.701  35.896   3.321
48762W        W21187  27.617  41.010   0.291
48763W        W21188  11.663  18.223  10.145
48764W        W21189  16.759   8.261   0.811
48765W        W21190  22.558  35.972  13.942
48766W        W21191  42.496   5.282  10.413
48767W        W21192  10.346  38.545   1.287
48768W        W21193  13.220  12.169   3.739
48769W        W21194   6.909  21.735   0.366
48770W        W21195   3.765  39.062   0.819
48771W        W21196  10.340  26.168   1.407
48772W        W21197  34.445  18.627   2.269
48773W        W21198  22.509   0.808   3.806
48774W        W21199  40.940  23.240  10.955
48775W        W21200  42.999  16.599   2.392
48776W        W21201  22.696  32.427   4.199
48777W        W21202  29.939  20.063   4.760
48778W        W21203   4.420  16.790  12.008
48779W        W21204  19.098  43.460  10.431
48780W        W21205  17.170  40.336   2.204
48781W        W21206  26.159  15.800   0.745
48782W        W21207  16.567  38.991  12.927
48783W        W21208  30.531  21.034  13.869
48784W        W21209   3.243   9.724   3.366
48785W        W21210   0.329   4.941  11.989
48786W        W21211  23.139   0.381  11.968
48787W        W21212  15.730  34.981   4.135
48788W        W21213  26.683   4.931  10.422
48789W        W21214  21.736   0.761   2.727
48790W        W21215  10.233  26.622  13.324
48791W        W21216   7.788  14.707   2.317
48792W        W21217  12.691  11.203  11.413
48793W        W21218  35.427  37.565  11.107
48794W        W21219  13.808   6.359   0.448
48795W        W21220  24.101  17.183   2.837
48796W        W21221  15.286  21.680  13.385
48797W        W21222  13.772  28.119  14.469
48798W        W21223  40.934  44.997  14.326
48799W        W21224  17.589   6.352  12.885
48800W        W21225  24.988  21.693  12.557
48801W        W21226  27.050   0.982  10.107
48802W        W21227  25.086  28.527   2.303
48803W        W21228   8.661  25.019  14.346
48804W        W21229  16.797   0.965  12.565
48805W        W21230  26.171   4.238  14.894
48806W        W21231  12.250  15.811  11.554
48807W        W21232   7.198  21.541  11.598
48808W        W21233  17.092   2.760   5.622
48809W        W21234   6.863   3.792  11.973
48810W        W21235  11.815  26.979   3.205
48811W        W21236  14.102  32.904  10.586
48812W        W21237  37.554  30.131  12.826
48813W        W21238  32.118  30.432  14.852
48814W        W21239  10.299  26.561   0.790
48815W        W21240  24.486  33.030  12.465
48816W        W21241  30.492   8.792   1.873
48817W        W21242   5.931  31.959   3.313
48818W        W21243  21.572  29.958  13.544
48819W        W21244   8.161  37.010  11.939
48820W        W21245   7.723  23.109   4.134
48821W        W21246  33.581  11.788   5.308
48822W        W21247  10.316  25.214  13.546
48823W        W21248  36.072  23.704  10.608
48824W        W21249  17.260  37.052   2.849
48825W        W21250  34.869   0.935  11.564
48826W        W21251  43.443  11.807   2.761
48827W        W21252  21.256  40.890   0.851
48828W        W21253  40.026  30.520  14.451
48829W        W21254  15.237   7.284   0.361
48830W        W21255   4.897  30.159  13.396
48831W        W21256  28.988   0.389  11.091
48832W        W21257  19.262  35.875  12.922
48833W        W21258  22.109  43.920   4.676
48834W        W21259  30.473  25.690  12.386
48835W        W21260  30.953  35.082   0.791
48836W        W21261   1.448  25.698   3.166
48837W        W21262  39.845  42.976   0.803
48838W        W21263  42.346  33.392   0.364
48839W        W21264  29.573  11.805  11.541
48840W        W21265  18.725  20.255  14.855
48841W        W21266  43.946  37.944   2.293
48842W        W21267  35.437  44.384   1.846
48843W        W21268  26.488  11.835   3.374
48844W        W21269  30.450  30.112  13.974
48845W        W21270   2.342   3.884  14.884
48846W        W21271  42.811  17.625   0.424
48847W        W21272  17.667  31.602  13.015
48848W        W21273  21.094   2.893   2.353
48849W        W21274   2.879  30.511   2.202
48850W        W21275  37.852  29.943  10.544
48851W        W21276  40.913  31.466  12.048
48852W        W21277   5.305  24.038   2.385
48853W        W21278  10.363  30.073  12.930
48854W        W21279  20.692   3.783   3.337
48855W        W21280  40.314  24.598   3.358
48856W        W21281  41.035  20.748  14.948
48857W        W21282  43.943  24.151   2.874
48858W        W21283  31.538   4.724  13.965
48859W        W21284  36.018  34.987   1.915
48860W        W21285   1.768  21.112  11.430
48861W        W21286  43.296   7.738  14.955
48862W        W21287   1.916  12.250   4.757
48863W        W21288   5.734  25.047   1.779
48864W        W21289  24.589  18.281   2.185
48865W        W21290  40.812   2.249  14.799
48866W        W21291  42.294  24.167  11.007
48867W        W21292  11.668  43.488  12.016
48868W        W21293  19.697  31.115   1.274
48869W        W21294  21.568  44.799   4.663
48870W        W21295   7.342   8.262   3.301
48871W        W21296  19.251  28.552  13.889
48872W        W21297  32.423  13.149   4.629
48873W        W21298  40.391   3.314  13.978
48874W        W21299  13.199   7.252   4.214
48875W        W21300  44.900   0.265  10.932
48876W        W21301  35.855   0.276  12.845
48877W        W21302  21.517   1.966  10.491
48878W        W21303  11.855   1.475   2.806
48879W        W21304  26.984  10.372  14.494
48880W        W21305  36.377  12.656  11.886
48881W        W21306  44.447  36.578  13.498
48882W        W21307  35.522  39.911   1.281
48883W        W21308  15.263   0.965  11.125
48884W        W21309  44.403  32.951  11.097
48885W        W21310  42.381  44.930  11.542
48886W        W21311  39.046  41.986  10.073
48887W        W21312  35.855  39.383  11.877
48888W        W21313   3.409  25.111  12.053
48889W        W21314   1.248  44.775  13.868
48890W        W21315  41.420  18.279   3.655
48891W        W21316   4.798   7.907  14.933
48892W        W21317   4.391   3.383   3.340
48893W        W21318  30.163   6.239   2.406
48894W        W21319  10.707   9.355   0.245
48895W        W21320  33.463  23.670   2.213
48896W        W21321   8.761  33.558   1.357
48897W        W21322  17.712  40.388  14.991
48898W        W21323  24.000  42.356   0.403
48899W        W21324  37.917  33.533   4.602
48900W        W21325  44.374  32.993  10.076
48901W        W21326   8.220   4.914   1.450
48902W        W21327  34.562  42.320   2.810
48903W        W21328   5.403  25.070  13.800
48904W        W21329  10.877  42.493  11.868
48905W        W21330   7.404  35.997   0.338
48906W        W21331  34.993  35.004   2.838
48907W        W21332   6.755  30.047   1.336
48908W        W21333  16.638  20.685  13.371
48909W        W21334   7.849  12.703   2.208
48910W        W21335  13.741  40.967   4.783
48911W        W21336  13.217  17.628   0.410
48912W        W21337  12.338  20.756  10.988
48913W        W21338  16.216  33.886  11.898
48914W        W21339  39.390   2.426  14.477
48915W        W21340  25.118  28.964  13.982
48916W        W21341  27.091  35.041   4.244
48917W        W21342  22.618   9.309   1.797
48918W        W21343   6.377  34.992   5.247
48919W        W21344  13.183  12.656   0.282
48920W        W21345  42.859   2.283   1.401
48921W        W21346  10.857   9.309  12.060
48922W        W21347   3.942  15.761  14.915
48923W        W21348  35.474  19.718   3.683
48924W        W21349  28.981  41.965   2.336
48925W        W21350  11.733  17.198   4.157
48926W        W21351  22.732  11.265  10.607
48927W        W21352  22.652  26.467   2.375
48928W        W21353  33.928  33.113  13.412
48929W        W21354  20.766  18.125  11.089
48930W        W21355  13.308   8.341  13.350
48931W        W21356   7.787  39.340  11.864
48932W        W21357  12.360  32.890   4.324
48933W        W21358  17.160  41.441   1.758
48934W        W21359  39.818  16.574   0.292
48935W        W21360  15.306  21.064   0.738
48936W        W21361  14.826  31.551   1.262
48937W        W21362  18.591   2.732   0.269
48938W        W21363  14.596  36.389   2.881
48939W        W21364  38.918   8.746  10.629
48940W        W21365  35.437   3.334   0.410
48941W        W21366  23.606  26.593  10.091
48942W        W21367  32.483  40.951  12.095
48943W        W21368  13.653  29.510  14.465
48944W        W21369   7.715  23.565  11.079
48945W        W21370  41.925  36.528  12.434
48946W        W21371  16.694  15.322   3.782
48947W        W21372  28.461   3.887  13.310
48948W        W21373  38.881   3.221   5.115
48949W        W21374  12.213  21.250   3.218
48950W        W21375  35.010   5.240   0.905
48951W        W21376  34.942   9.329   0.269
48952W        W21377  28.016  18.125   4.257
48953W        W21378  20.745  25.137   1.347
48954W        W21379   2.408  12.358   2.196
48955W        W21380   1.248   3.725   4.284
48956W        W21381  32.537  33.498  12.046
48957W        W21382   6.372  27.994   3.837
48958W        W21383  29.172   7.690  12.467
48959W        W21384  20.155  20.261  14.370
48960W        W21385  22.159  26.589   2.831
48961W        W21386   4.826  23.049  11.088
48962W        W21387  28.434  33.908   1.234
48963W        W21388   6.276  28.519  13.963
48964W        W21389  29.620   0.411  14.356
48965W        W21390   0.250   3.390   1.926
48966W        W21391  38.550  12.833   4.652
48967W        W21392   9.167  44.416   3.631
48968W        W21393  39.987  10.369  14.870
48969W        W21394  24.041  25.475   3.159
48970W        W21395  30.971  37.065  13.439
48971W        W21396  25.159  43.396  11.496
48972W        W21397  26.669   3.224  14.914
48973W        W21398   7.912   4.231  11.012
48974W        W21399   4.263   7.369   0.482
48975W        W21400  38.443  44.853   3.375
48976W        W21401   1.943   0.347  13.505
48977W        W21402  19.090   5.919   2.874
48978W        W21403  18.149  33.914   0.394
48979W        W21404  30.012  19.123   0.254
48980W        W21405  36.356   2.315   2.825
48981W        W21406  35.428  13.345   4.793
48982W        W21407  16.574  39.939   3.255
48983W        W21408   5.711   7.347   2.387
48984W        W21409  12.797  32.132  13.349
48985W        W21410  30.960   8.214   4.661
48986W        W21411  39.914  19.603  10.540
48987W        W21412  23.989   8.769   4.658
48988W        W21413  30.951  23.153   1.898
48989W        W21414   5.330  21.227  13.054
48990W        W21415  41.991  32.498  12.525
48991W        W21416  38.383  36.917  10.997
48992W        W21417   6.422  19.072  12.384
48993W        W21418  30.094  40.953  11.446
48994W        W21419  22.593  30.486  13.533
48995W        W21420  14.644  17.774   4.767
48996W        W21421  30.065   0.957   3.790
48997W        W21422  24.145   5.413  14.967
48998W        W21423   4.438  15.666   0.748
48999W        W21424  25.197  14.676   4.624
49000W        W21425   9.822   6.311   3.235
49001W        W21426  39.502  13.185   4.824
49002W        W21427  31.107   7.349   0.417
49003W        W21428  30.092  37.899   4.115
49004W        W21429  29.929  35.581  12.067
49005W        W21430  14.148  14.720   1.869
49006W        W21431  44.391  44.971   3.710
49007W        W21432   4.733  29.995   0.445
49008W        W21433  19.772  36.583  13.026
49009W        W21434  11.312   0.776   3.237
49010W        W21435  26.457  11.686  13.531
49011W        W21436  44.827  15.586   3.644
49012W        W21437  17.099  27.582   3.177
49013W        W21438  36.936  28.955  10.590
49014W        W21439  28.038  22.667  14.914
49015W        W21440   0.453  29.014  13.035
49016W        W21441  26.102  28.472   3.307
49017W        W21442  23.222  14.612   1.885
49018W        W21443  44.433   4.882   4.207
49019W        W21444  35.069  35.891  10.071
49020W        W21445  16.577  16.782   2.707
49021W        W21446  33.395  17.265  11.050
49022W        W21447  42.291  36.506   2.757
49023W        W21448  34.931  39.324   0.298
49024W        W21449  34.503  38.480  11.120
49025W        W21450  35.070  11.294  14.914
49026W        W21451  12.842  19.281   0.401
49027W        W21452   1.797  34.432   0.377
49028W        W21453  26.532   9.283   1.700
49029W        W21454  28.545  28.146  10.977
49030W        W21455  27.448  36.554  11.423
49031W        W21456  34.438   1.915  14.397
49032W        W21457  21.535   7.248  13.379
49033W        W21458  15.714  23.543  10.126
49034W        W21459   2.290  39.808  13.857
49035W        W21460  22.686  34.986  13.808
49036W        W21461  33.502  13.136  11.039
49037W        W21462  25.537   5.294   3.303
49038W        W21463  44.479  42.432   3.757
49039W        W21464  28.088  13.818  11.115
49040W        W21465   2.845  24.646   3.796
49041W        W21466   0.770  39.035   1.275
49042W        W21467  34.956  17.784   1.388
49043W        W21468  26.056   0.348  10.987
49044W        W21469  44.990  35.386  11.013
49045W        W21470  35.012   7.211   4.612
49046W        W21471  14.810  40.419  12.941
49047W        W21472  27.040  16.732   1.221
49048W        W21473  25.045  30.911  12.375
49049W        W21474  27.590   5.225  14.815
49050W        W21475  14.786  27.474   4.250
49051W        W21476  12.248  37.424   3.270
49052W        W21477  18.716  38.876   1.703
49053W        W21478  17.564  40.955  10.417
49054W        W21479  12.348  39.013  12.984
49055W        W21480  20.100  33.908  14.818
49056W        W21481  15.117  10.704   0.829
49057W        W21482  10.166   5.706  13.034
49058W        W21483   8.314  15.690  12.376
49059W        W21484  15.752  18.707  14.028
49060W        W21485  24.563  44.908  11.057
49061W        W21486  36.985  38.074   3.245
49062W        W21487   8.366  37.924  10.533
49063W        W21488  39.029  16.284   3.340
49064W        W21489  21.718  10.193  11.374
49065W        W21490  32.017  20.208  14.276
49066W        W21491   4.240  14.683  11.560
49067W        W21492  22.146   7.811   0.339
49068W        W21493   4.280  34.461   3.769
49069W        W21494  11.804  26.536  13.510
49070W        W21495  39.327  27.683   4.657
49071W        W21496   0.816  13.846  14.325
49072W        W21497   8.215  24.487  13.487
49073W        W21498   4.719  21.644   2.264
49074W        W21499  26.116  21.228  12.095
49075W        W21500  10.646   2.922   0.746
49076W        W21501  20.135   6.845   3.699
49077W        W21502  40.398  10.251   2.817
49078W        W21503  14.663   5.242  13.034
49079W        W21504  41.493  17.701  13.853
49080W        W21505  19.623  29.518   2.331
49081W        W21506  41.013  14.172   2.370
49082W        W21507   7.355   3.721  11.441
49083W        W21508   5.916   3.228   4.274
49084W        W21509  25.063  12.340  10.980
49085W        W21510  25.164  21.198   1.801
49086W        W21511   5.350   8.304  14.436
49087W        W21512  40.388  21.060   2.383
49088W        W21513   7.369   2.302   4.157
49089W        W21514  35.855  16.742   3.763
49090W        W21515   7.404  39.026   3.823
49091W        W21516  33.984  29.173   1.883
49092W        W21517  33.434  42.286   3.852
49093W        W21518  25.489   8.775  14.324
49094W        W21519  32.892   5.847   1.703
49095W        W21520  13.231  14.825   0.478
49096W        W21521   2.327  29.485  13.945
49097W        W21522  35.855   7.365   4.694
49098W        W21523  25.515  33.510   0.749
49099W        W21524  20.189  36.097   0.737
49100W        W21525  21.512  30.478  14.436
49101W        W21526  34.072  29.921  12.517
49102W        W21527  21.035  23.131   1.793
49103W        W21528  22.034  38.970  10.958
49104W        W21529  13.304  21.033   4.120
49105W        W21530   7.302  31.039  13.389
49106W        W21531  22.082  10.755  13.413
49107W        W21532   0.430  24.527  12.422
49108W        W21533   6.795   2.362  13.027
49109W        W21534  27.072   3.298  14.852
49110W        W21535  11.815  12.750  11.545
49111W        W21536  33.479   5.291  13.471
49112W        W21537   8.717  20.042  14.784
49113W        W21538  29.624  24.548  10.993
49114W        W21539   0.765   4.335   2.699
49115W        W21540   7.787  39.825  12.079
49116W        W21541  18.107  13.188   2.271
49117W        W21542  30.160  18.190  12.421
49118W        W21543   9.788  43.407   1.932
49119W        W21544   0.752  25.145   1.764
49120W        W21545  28.057  40.904   1.933
49121W        W21546  42.459  34.018  12.081
49122W        W21547  21.686  28.615   3.148
49123W        W21548  14.311  15.318  14.849
49124W        W21549  24.025  33.450   5.311
49125W        W21550  25.609  24.204  14.877
49126W        W21551  34.586  30.575   1.886
49127W        W21552  37.365   2.254   0.914
49128W        W21553  36.080  27.952  14.349
49129W        W21554  11.726  17.198  14.913
49130W        W21555  22.066   3.388  14.318
49131W        W21556  40.512  14.217   9.975
49132W        W21557   4.311   6.894  10.633
49133W        W21558  21.659  26.655   2.269
49134W        W21559  36.997   7.205  12.353
49135W        W21560  13.154  15.600   3.158
49136W        W21561  40.856   3.247  10.633
49137W        W21562  39.009  33.031  11.456
49138W        W21563  11.747  39.967  12.572
49139W        W21564  41.433  22.709  12.868
49140W        W21565  25.506  44.841   0.402
49141W        W21566  31.922   3.370   9.947
49142W        W21567  14.310  33.437   5.118
49143W        W21568  25.131  37.997  14.936
49144W        W21569  21.661   2.824  12.016
49145W        W21570  16.241  29.468   3.195
49146W        W21571   5.759  13.773   1.820
49147W        W21572  11.126  26.172   2.810
49148W        W21573   3.864  34.533   4.699
49149W        W21574   6.296  15.307   3.298
49150W        W21575  19.135  10.659   4.135
49151W        W21576  17.262  44.940   2.883
49152W        W21577  40.983  34.113  11.935
49153W        W21578   9.759  10.144  11.408
49154W        W21579  26.043  10.241  11.903
49155W        W21580   0.438  11.738   2.234
49156W        W21581  22.247  15.245  13.811
49157W        W21582  36.479  36.847  10.551
49158W        W21583  30.639   1.314  13.027
49159W        W21584  14.185  17.122   5.273
49160W        W21585  30.014  41.796  12.827
49161W        W21586  33.900   6.788   2.735
49162W        W21587  36.534  40.447   4.758
49163W        W21588  15.760  27.083   3.345
49164W        W21589   9.682   7.216   4.608
49165W        W21590  42.458  30.499   1.437
49166W        W21591  32.547  33.938   1.876
49167W        W21592  14.747   8.859  13.426
49168W        W21593  28.959  14.136   1.399
49169W        W21594  11.269  15.213   1.324
49170W        W21595  32.081  32.523   4.632
49171W        W21596  24.481   9.245  14.821
49172W        W21597   8.264  23.686  10.535
49173W        W21598   1.372   6.338   4.637
49174W        W21599  12.678  39.518  10.888
49175W        W21600  18.566   3.286   1.367
49176W        W21601  12.689  10.338   2.393
49177W        W21602   9.293  26.490  11.539
49178W        W21603  33.064   5.722   4.613
49179W        W21604  24.668   4.926   1.249
49180W        W21605  41.995  30.923  14.451
49181W        W21606  15.247  23.663  14.822
49182W        W21607  30.073  34.993   2.306
49183W        W21608   4.224  35.480  14.492
49184W        W21609  26.694  36.871  10.518
49185W        W21610  43.336  42.323  10.639
49186W        W21611  43.336  41.854  13.360
49187W        W21612  30.538   1.419   4.168
49188W        W21613  33.038  39.545   0.859
49189W        W21614  27.043   1.864  11.400
49190W        W21615  16.767   8.292  14.787
49191W        W21616   0.360  23.030  12.540
49192W        W21617  40.457  25.116   3.683
49193W        W21618  12.711  43.300   0.792
49194W        W21619  23.589  13.106  12.009
49195W        W21620  18.594  20.095  12.017
49196W        W21621   6.322  16.724   0.754
49197W        W21622  11.643  25.191   3.293
49198W        W21623  12.655   3.784   0.950
49199W        W21624  36.094  28.069   3.767
49200W        W21625  33.989  10.685  10.543
49201W        W21626   8.395  23.489   2.295
49202W        W21627  30.020  11.356  12.484
49203W        W21628   9.743  21.665  13.924
49204W        W21629   7.858  40.014   3.285
49205W        W21630  33.915  18.680  13.870
49206W        W21631  27.077  40.387   1.724
49207W        W21632   9.867   8.206  13.342
49208W        W21633   2.462  10.647  11.559
49209W        W21634  21.127  27.168   4.619
49210W        W21635  41.933   1.343   0.833
49211W        W21636  35.471  12.290  11.993
49212W        W21637  40.465  40.439  12.025
49213W        W21638   4.279  40.464   0.788
49214W        W21639  38.363   1.359   3.775
49215W        W21640   2.451  30.148   1.386
49216W        W21641  20.247  30.527  11.869
49217W        W21642   4.730  26.527  11.590
49218W        W21643   9.817   6.199  13.548
49219W        W21644  41.882  34.521  14.409
49220W        W21645   9.258  35.492  13.043
49221W        W21646  15.152  34.373   1.347
49222W        W21647  43.428  21.718   0.348
49223W        W21648  23.144  26.966   3.665
49224W        W21649  19.621  15.803   2.663
49225W        W21650  22.163  27.542  11.898
49226W        W21651  15.173  20.551   0.361
49227W        W21652   8.834  23.562  14.947
49228W        W21653  28.932  16.100  10.935
49229W        W21654  14.203   8.248   3.739
49230W        W21655  11.249  19.136  12.437
49231W        W21656  33.973  38.500   3.299
49232W        W21657   1.743   9.813  14.842
49233W        W21658   9.760  23.024   1.885
49234W        W21659   5.249  18.673  10.540
49235W        W21660  18.168  13.747  12.559
49236W        W21661   6.923  24.494  12.044
49237W        W21662  13.148  24.059   1.445
49238W        W21663   8.677  35.905   2.296
49239W        W21664   7.768  34.049   1.820
49240W        W21665  34.596  40.532  14.449
49241W        W21666   3.444  25.552   3.780
49242W        W21667  24.657  36.960   4.166
49243W        W21668  28.018  17.795   3.651
49244W        W21669  42.291  28.549  11.912
49245W        W21670  30.908  38.552   1.733
49246W        W21671  43.839  39.907   0.318
49247W        W21672  15.716   8.390  13.016
49248W        W21673  24.525  37.402   0.797
49249W        W21674  33.909  11.825   0.866
49250W        W21675  28.505  10.776  11.513
49251W        W21676   8.213  10.291  10.500
49252W        W21677   7.684   1.912   0.302
49253W        W21678   0.884  16.078  12.855
49254W        W21679  33.469  34.397   3.287
49255W        W21680   4.341  40.851   4.188
49256W        W21681   4.850  28.627   1.772
49257W        W21682  35.071  38.418   3.161
49258W        W21683   2.901  26.126  10.603
49259W        W21684  29.002   4.703   4.296
49260W        W21685  44.332  33.591   1.387
49261W        W21686  25.164  27.459  13.058
49262W        W21687  39.556  12.244   3.684
49263W        W21688   3.361  11.258   2.396
49264W        W21689  32.593   2.300   4.185
49265W        W21690  13.813  22.244   9.507
49266W        W21691  18.663  16.116  13.858
49267W        W21692  14.783   2.896   4.833
49268W        W21693  42.476  13.205  14.960
49269W        W21694   1.272  34.529  14.280
49270W        W21695   2.264  18.257   2.333
49271W        W21696  40.544  19.620   1.326
49272W        W21697  15.742  13.249   3.258
49273W        W21698  17.766  32.476   3.364
49274W        W21699  23.659  22.510  10.595
49275W        W21700  27.561  32.999   4.682
49276W        W21701  39.339  26.065   3.325
49277W        W21702  20.760   1.425  12.911
49278W        W21703   1.401   8.226  14.380
49279W        W21704   0.310  19.714  12.515
49280W        W21705  28.476  33.021   4.149
49281W        W21706  30.968  16.715   2.303
49282W        W21707  44.820  36.066   1.770
49283W        W21708  12.334  42.502   1.797
49284W        W21709   1.457  29.033   0.273
49285W        W21710  33.121  15.580  10.569
49286W        W21711  14.292  30.531   4.226
49287W        W21712  19.652   2.459   2.401
49288W        W21713  10.277   3.318   3.166
49289W        W21714   8.820  40.501  14.514
49290W        W21715  39.445  18.185  12.488
49291W        W21716  34.490   7.726   4.290
49292W        W21717  35.430  39.896  13.951
49293W        W21718  37.857   6.882  12.017
49294W        W21719  29.111  35.008   3.329
49295W        W21720   1.959  38.993  13.006
49296W        W21721   2.869  41.846  11.473
49297W        W21722   4.241  38.077   0.247
49298W        W21723  35.585  30.105  13.959
49299W        W21724   2.404  36.538  12.890
49300W        W21725  28.541  20.071   0.409
49301W        W21726   4.306  32.553  12.833
49302W        W21727  26.537  23.509  11.477
49303W        W21728  32.635  37.516  11.109
49304W        W21729  39.368   8.690   2.889
49305W        W21730  41.033   4.227   4.626
49306W        W21731  34.891  12.138  10.440
49307W        W21732  31.086  16.671  12.909
49308W        W21733  35.465  36.365   1.915
49309W        W21734  24.091   6.763  11.065
49310W        W21735   2.376  13.252  12.938
49311W        W21736  33.042   7.808  13.960
49312W        W21737  23.056  44.866   4.780
49313W        W21738  24.617  41.901   1.284
49314W        W21739  41.448   5.744   3.365
49315W        W21740  43.312  19.709  13.463
49316W        W21741  44.956  24.639  11.438
49317W        W21742  38.563  36.846   3.204
49318W        W21743  23.113  35.044  11.569
49319W        W21744   4.720  35.060   5.186
49320W        W21745   6.334  32.578  10.488
49321W        W21746  23.221   0.335   0.802
49322W        W21747  19.707  42.415  11.450
49323W        W21748  43.436  35.930   1.806
49324W        W21749   1.910  27.093   2.330
49325W        W21750  15.214  42.363  11.541
49326W        W21751  25.508  19.715  10.072
49327W        W21752  35.406   8.743   0.757
49328W        W21753  23.097  19.170  13.953
49329W        W21754  14.300  35.384   2.811
49330W        W21755  40.376  36.562  11.613
49331W        W21756  33.433  15.781  14.434
49332W        W21757  44.983  26.613   4.820
49333W        W21758   8.716   1.467  12.864
49334W        W21759  23.559  12.236   3.249
49335W        W21760  11.167   1.849  10.551
49336W        W21761  19.225  34.094   0.261
49337W        W21762  11.625   4.862  10.896
49338W        W21763  37.568   1.741  12.443
49339W        W21764   8.776  40.331  12.840
49340W        W21765  10.203   0.319   0.746
49341W        W21766  39.519  28.609   2.828
49342W        W21767  28.614  17.567   2.204
49343W        W21768   6.321   2.463   0.788
49344W        W21769  19.239  11.307   2.746
49345W        W21770  26.559  13.146   3.205
49346W        W21771  41.885  30.569  10.953
49347W        W21772  12.229  14.199   2.696
49348W        W21773  13.792   1.921  12.400
49349W        W21774  42.988  14.326  13.898
49350W        W21775  43.319  26.124   4.126
49351W        W21776  20.085  29.962  12.917
49352W        W21777  25.605  40.378  14.023
49353W        W21778   7.803  37.376   3.796
49354W        W21779  41.983   0.391   3.319
49355W        W21780  26.480  37.501  13.506
49356W        W21781   2.338   0.491   0.449
49357W        W21782  44.381  39.396  13.879
49358W        W21783   8.668   0.424   4.119
49359W        W21784   6.764  32.011  12.017
49360W        W21785  38.394   6.707   3.329
49361W        W21786  22.592  44.944  10.634
49362W        W21787  22.516  36.410   3.208
49363W        W21788  20.040  15.252  12.539
49364W        W21789  24.147  43.886  12.998
49365W        W21790  31.507  16.721   4.232
49366W        W21791  33.451  20.734  14.475
49367W        W21792   3.254   0.391  13.440
49368W        W21793  39.044  38.419   0.726
49369W        W21794   5.216  31.919  13.053
49370W        W21795  30.552  33.953   1.737
49371W        W21796   3.313  31.469   1.886
49372W        W21797   2.836  33.897   1.383
49373W        W21798  42.940  30.632  13.428
49374W        W21799   3.740  29.105  12.958
49375W        W21800  30.526  35.540   2.250
49376W        W21801   9.218   6.338   1.423
49377W        W21802  17.124  22.746  11.534
49378W        W21803  44.783  43.486  10.451
49379W        W21804  11.701  18.766  11.981
49380W        W21805  29.560   2.824  14.333
49381W        W21806  24.512  20.640  13.882
49382W        W21807  40.872   9.289  13.467
49383W        W21808  18.105  31.543  14.352
49384W        W21809  27.952  19.594   2.402
49385W        W21810   6.739   6.276  14.892
49386W        W21811  38.431  33.427  11.534
49387W        W21812  24.204  16.802   4.778
49388W        W21813   6.737  28.135   0.866
49389W        W21814   0.755  39.908  13.307
49390W        W21815   7.897  40.807  13.495
49391W        W21816  23.159  19.662  10.421
49392W        W21817  31.538  12.204   4.656
49393W        W21818  25.999   4.845   4.283
49394W        W21819  40.867   3.811  10.509
49395W        W21820  17.590   3.757  13.861
49396W        W21821  10.841   1.905   2.240
49397W        W21822  30.977  25.621   0.775
49398W        W21823  43.946  34.048   3.639
49399W        W21824  41.394   4.447  13.033
49400W        W21825  32.048  11.780  11.477
49401W        W21826  14.225  33.467  13.031
49402W        W21827  36.079  24.588  14.985
49403W        W21828   5.812  20.758   3.826
49404W        W21829  28.609  33.611  10.623
49405W        W21830  41.890   9.658   4.687
49406W        W21831  17.706  32.916  11.956
49407W        W21832  16.640  35.542   1.278
49408W        W21833  22.655  29.565  14.855
49409W        W21834  39.013   1.356   3.288
49410W        W21835  31.055   1.456   3.158
49411W        W21836  25.981  19.073  12.483
49412W        W21837  10.318  27.178   4.666
49413W        W21838   1.443  11.790   1.227
49414W        W21839  11.782  39.357  14.979
49415W        W21840  11.213  24.653  13.402
49416W        W21841   0.346  33.619  13.318
49417W        W21842  30.065  36.909  11.378
49418W        W21843   3.881   0.898   1.880
49419W        W21844  13.753  23.685  10.980
49420W        W21845  30.415  32.977   2.848
49421W        W21846  24.494  11.322   0.384
49422W        W21847  44.284   8.359   2.816
49423W        W21848   3.838  20.154  14.334
49424W        W21849  18.657  29.926   1.424
49425W        W21850  28.549  44.393  11.953
49426W        W21851  15.210  32.032   2.396
49427W        W21852  34.065  18.261  10.926
49428W        W21853  31.042  17.723   2.181
49429W        W21854  38.532   1.335   1.449
49430W        W21855  17.605   7.401   1.314
49431W        W21856  14.269  33.012   4.618
49432W        W21857  41.811   2.442   1.340
49433W        W21858  26.988  23.626   2.380
49434W        W21859  15.689   3.435  11.534
49435W        W21860  11.827  12.810  12.376
49436W        W21861   7.784   2.870   3.216
49437W        W21862  11.332   4.441   4.629
49438W        W21863  20.174  21.184  10.012
49439W        W21864  44.771  20.206  14.861
49440W        W21865   6.184   5.419  11.122
49441W        W21866   3.452   0.936   1.754
49442W        W21867  13.283   1.377  14.971
49443W        W21868  42.959  31.906   2.365
49444W        W21869  41.332   9.697   1.906
49445W        W21870  21.045  38.553  10.410
49446W        W21871   7.869  37.062  13.413
49447W        W21872  28.063   8.886   2.679
49448W        W21873   9.772  15.777  13.817
49449W        W21874  17.153  26.602  12.424
49450W        W21875  22.605  18.101   0.889
49451W        W21876  17.223  18.750  11.605
49452W        W21877   4.337  43.840   1.287
49453W        W21878   1.858  29.551  12.943
49454W        W21879   8.208   0.873   3.167
49455W        W21880  31.136  11.244   1.876
49456W        W21881  30.528  39.951  13.498
49457W        W21882  15.637  13.674  12.944
49458W        W21883  27.493  43.371   1.250
49459W        W21884   6.330  43.983  14.865
49460W        W21885   9.159  31.594   4.224
49461W        W21886   7.267  15.714   1.790
49462W        W21887  40.895  37.368   1.923
49463W        W21888  12.340  20.536  11.988
49464W        W21889  30.525  17.062   4.662
49465W        W21890  28.047   8.344  14.310
49466W        W21891  37.034  32.919  11.977
49467W        W21892  38.892  23.632  10.146
49468W        W21893  31.445  38.833   1.266
49469W        W21894   9.190  11.858  14.491
49470W        W21895   6.347   3.888   3.342
49471W        W21896  18.132   4.824  10.474
49472W        W21897  14.651  39.038  10.422
49473W        W21898  44.282   4.240  11.491
49474W        W21899  40.021  10.817   4.288
49475W        W21900  36.478  29.610  11.511
49476W        W21901  19.722  22.166   2.418
49477W        W21902  27.019  24.596  13.428
49478W        W21903  26.625  24.152   0.353
49479W        W21904  14.603  29.975  12.958
49480W        W21905  39.410  39.965  11.000
49481W        W21906   5.370  22.518  14.828
49482W        W21907   1.415  33.429  12.456
49483W        W21908  17.162  16.732   0.736
49484W        W21909   1.772   2.775   1.277
49485W        W21910  43.491  30.943  12.475
49486W        W21911  26.605  43.841   9.922
49487W        W21912   3.259  38.929   1.426
49488W        W21913  36.538  19.751  14.988
49489W        W21914  14.262   9.654   3.641
49490W        W21915  35.400   0.350   1.284
49491W        W21916  27.955  21.237  13.425
49492W        W21917  35.595  35.909  12.837
49493W        W21918  28.120  38.063  13.028
49494W        W21919  35.579  12.254  11.124
49495W        W21920   4.414  44.806   0.254
49496W        W21921  34.909  18.261  10.553
49497W        W21922  25.541  34.045  13.322
49498W        W21923  20.748   6.923  12.566
49499W        W21924  34.880   4.242   4.772
49500W        W21925  42.828   2.945  14.992
49501W        W21926  24.208   3.218  10.586
49502W        W21927  35.463   2.345  13.427
49503W        W21928  36.979   5.428  13.813
49504W        W21929  30.055  11.678  12.418
49505W        W21930  32.130  29.428   2.768
49506W        W21931   7.886  36.567  14.846
49507W        W21932  39.413  28.030   2.282
49508W        W21933   0.380  11.267   0.409
49509W        W21934  20.620  20.601  13.456
49510W        W21935   5.743  40.996  12.897
49511W        W21936  17.244  44.358   5.257
49512W        W21937  39.027  17.564  13.933
49513W        W21938  13.166   9.836   4.252
49514W        W21939   9.263   1.866  14.946
49515W        W21940  14.151  33.488   3.331
49516W        W21941  17.142   3.420   3.213
49517W        W21942  33.926  17.218  13.919
49518W        W21943  37.855   3.351  10.455
49519W        W21944  33.063  43.515  12.543
49520W        W21945  22.525  23.124  14.332
49521W        W21946  43.798  20.743  11.387
49522W        W21947  33.927   6.714   2.300
49523W        W21948  40.895  13.759  12.875
49524W        W21949  37.396  11.220   2.668
49525W        W21950   9.354  26.471  14.889
49526W        W21951  39.352  41.916   0.932
49527W        W21952  12.691  40.425   4.148
49528W        W21953  34.915  18.573   1.724
49529W        W21954  18.788  38.838   1.426
49530W        W21955  37.459  10.237   5.157
49531W        W21956  35.486  16.072  13.374
49532W        W21957  23.674  31.999  14.326
49533W        W21958  32.898  36.847   1.702
49534W        W21959  18.168  26.531   0.923
49535W        W21960   7.397  35.472  12.367
49536W        W21961  27.502  18.278  11.448
49537W        W21962  40.405   2.399  11.458
49538W        W21963   1.937  17.694   3.248
49539W        W21964   9.198  30.495   4.270
49540W        W21965  34.425  42.940   5.103
49541W        W21966   3.347   3.792   4.694
49542W        W21967  41.301  35.440   1.375
49543W        W21968  28.556  27.578  13.846
49544W        W21969  34.054  33.012  10.622
49545W        W21970  33.525  21.225  13.910
49546W        W21971  33.622  27.513  12.015
49547W        W21972   3.374  39.358   4.344
49548W        W21973   3.803  14.602   0.891
49549W        W21974  15.810   3.335   0.302
49550W        W21975  15.140  17.718  12.450
49551W        W21976  20.210  44.355   2.275
49552W        W21977  40.462  40.490   2.705
49553W        W21978  40.032  10.798  10.599
49554W        W21979  13.822  25.637  13.394
49555W        W21980  15.092  17.629   4.676
49556W        W21981  30.589  44.956  13.323
49557W        W21982  16.112  11.810   1.279
49558W        W21983  18.574  19.123  14.410
49559W        W21984   7.707   0.409   4.674
49560W        W21985  23.118   0.961  14.503
49561W        W21986  34.911   2.380  10.500
49562W        W21987  34.383  28.056   0.904
49563W        W21988   1.891  24.558   3.817
49564W        W21989   0.834  33.538   1.321
49565W        W21990  40.804  36.853  11.601
49566W        W21991   5.235  30.934   1.439
49567W        W21992  42.919  42.799   4.639
49568W        W21993   4.435  36.896  11.980
49569W        W21994   7.285  42.816  13.956
49570W        W21995   0.988  19.227  13.399
49571W        W21996  30.057  16.152  13.852
49572W        W21997  24.057  14.337  10.554
49573W        W21998  14.145  23.058  13.888
49574W        W21999  26.980  38.927  11.543
49575W        W22000  27.965  30.540  14.016
49576W        W22001  14.598  22.670  11.908
49577W        W22002  22.706   4.749  13.807
49578W        W22003  10.641  42.357   4.260
49579W        W22004  28.521  11.685   1.861
49580W        W22005  14.125  16.250  14.284
49581W        W22006  22.104   4.259  12.453
49582W        W22007  15.168  41.303   3.806
49583W        W22008  38.364  14.832   2.182
49584W        W22009  18.075  19.168  12.037
49585W        W22010  14.126  42.778  13.929
49586W        W22011  12.313  33.062  12.486
49587W        W22012  41.880  33.504  12.477
49588W        W22013  19.756  14.660   4.235
49589W        W22014  14.115  38.538  11.393
49590W        W22015  12.212  16.281   0.358
49591W        W22016  33.987  38.330  13.849
49592W        W22017  15.766  20.040  12.916
49593W        W22018   6.733   9.644   0.893
49594W        W22019  27.175  12.191   4.332
49595W        W22020  41.979  26.091   1.229
49596W        W22021  35.586   5.350  13.816
49597W        W22022  10.366  21.264  13.855
49598W        W22023  35.581  23.533  12.832
49599W        W22024   3.286  17.144  10.615
49600W        W22025  35.563  22.171   2.800
49601W        W22026  12.611  28.977  11.028
49602W        W22027  32.586  10.792  11.118
49603W        W22028  26.197  42.320   2.684
49604W        W22029  26.519  42.915  12.446
49605W        W22030  28.970  39.493  11.405
49606W        W22031   1.453  14.636   3.183
49607W        W22032  15.700  37.371  11.529
49608W        W22033  29.987   4.324  12.998
49609W        W22034   7.320   5.325   2.727
49610W        W22035  41.908  41.425   1.920
49611W        W22036  18.613  37.563   4.691
49612W        W22037   1.917  12.274  13.870
49613W        W22038  25.686  43.802   3.165
49614W        W22039  33.607   2.821   4.816
49615W        W22040  13.148  41.804   3.843
49616W        W22041   5.438  35.582  11.530
49617W        W22042  27.615  16.214  13.022
49618W        W22043  26.598  44.334  10.951
49619W        W22044  43.927   7.183  13.335
49620W        W22045  31.958  29.635  11.507
49621W        W22046   6.286  35.918  10.561
49622W        W22047   3.760  17.692  11.126
49623W        W22048   0.911  28.125  14.965
49624W        W22049  11.741   4.936  14.903
49625W        W22050  36.395   2.773  12.563
49626W        W22051  18.709  43.810  10.437
49627W        W22052  15.213  39.427   2.809
49628W        W22053  38.504  19.671  12.355
49629W        W22054  41.524  44.760  10.640
49630W        W22055   1.283  21.072  12.391
49631W        W22056  11.833   5.241   0.415
49632W        W22057  28.638   9.300   2.765
49633W        W22058   4.276  38.989   4.807
49634W        W22059  11.804   6.185   3.230
49635W        W22060   5.802   8.318  13.030
49636W        W22061  14.168  10.782  12.005
49637W        W22062  26.191   8.680  10.543
49638W        W22063  42.317  11.248  10.898
49639W        W22064  11.622  16.597   3.703
49640W        W22065   1.237  35.545  11.375
49641W        W22066  27.457  39.001  14.358
49642W        W22067   4.834   6.239  12.515
49643W        W22068   7.299  22.242   4.719
49644W        W22069  22.605  37.353   1.885
49645W        W22070  33.886  39.322  12.940
49646W        W22071  33.626  26.677  12.493
49647W        W22072  22.610  28.593   0.937
49648W        W22073   5.804   1.309  14.279
49649W        W22074   6.789  30.121  12.439
49650W        W22075  31.097  37.559   2.891
49651W        W22076  39.437  40.373   3.365
49652W        W22077  14.185  39.033   3.204
49653W        W22078   2.894   3.782  12.014
49654W        W22079   7.311  33.503   5.261
49655W        W22080   0.321  36.053   4.264
49656W        W22081  42.378  35.898   0.356
49657W        W22082  32.422   7.736   4.151
49658W        W22083   1.468   0.853  12.830
49659W        W22084  39.449  22.623  12.066
49660W        W22085  33.527  17.647  11.874
49661W        W22086  30.416  10.202  14.339
49662W        W22087   8.867  38.338  14.895
49663W        W22088  11.224   8.819  11.022
49664W        W22089   7.672  20.135  12.420
49665W        W22090  10.254  12.735  10.102
49666W        W22091  11.777  42.883   3.210
49667W        W22092  38.522  16.615   4.130
49668W        W22093  26.075  39.864  10.589
49669W        W22094  37.561  38.539   2.287
49670W        W22095  31.139  37.504  12.393
49671W        W22096  41.934   9.201  12.403
49672W        W22097  41.906   4.912   3.640
49673W        W22098  33.549  40.362   0.885
49674W        W22099  37.082   0.330   1.446
49675W        W22100  41.936  42.021   3.273
49676W        W22101  11.852  16.674   4.745
49677W        W22102  15.303  41.793  10.489
49678W        W22103  38.886   8.207   2.229
49679W        W22104  33.918  23.637  10.635
49680W        W22105  26.122   0.473   4.220
49681W        W22106  27.082  15.578   3.341
49682W        W22107   5.245  24.514   2.190
49683W        W22108  44.864  41.529   0.954
49684W        W22109  37.082   9.857  14.002
49685W        W22110  25.500  18.600   0.471
49686W        W22111  31.575  29.146  13.994
49687W        W22112  41.845  14.131  10.036
49688W        W22113  15.661   3.803   4.820
49689W        W22114  40.010   0.491  10.507
49690W        W22115  18.545  24.121  13.521
49691W        W22116  19.746   6.866   2.824
49692W        W22117  11.350  39.429  11.925
49693W        W22118   4.749   9.368   1.892
49694W        W22119  42.921   9.387   2.848
49695W        W22120  23.734  33.431   0.926
49696W        W22121  22.248  12.711  12.961
49697W        W22122  34.004  39.426   0.476
49698W        W22123  34.949   9.350   3.254
49699W        W22124  23.241  22.228   1.281
49700W        W22125  28.467   9.878   4.703
49701W        W22126  33.385   5.898  13.823
49702W        W22127  27.131  22.739   0.881
49703W        W22128   3.917  41.295  13.540
49704W        W22129  10.320  44.802   0.456
49705W        W22130   8.254   8.794  12.477
49706W        W22131   0.802  10.382   2.729
49707W        W22132  10.183   4.331   9.994
49708W        W22133  34.912  21.753   0.440
49709W        W22134  27.659  10.756   2.251
49710W        W22135  26.523  38.535   0.763
49711W        W22136  36.920  11.764  14.878
49712W        W22137  27.638  16.292   1.727
49713W        W22138  19.756  17.562  13.439
49714W        W22139   1.267  31.533   0.370
49715W        W22140  19.584  34.986  14.027
49716W        W22141   3.760   4.236   3.661
49717W        W22142  37.841  23.169   5.697
49718W        W22143  13.159  14.810   2.822
49719W        W22144  17.677   7.300   3.772
49720W        W22145   9.284  10.230  14.812
49721W        W22146  32.627  24.075   1.230
49722W        W22147  28.092  22.614  12.900
49723W        W22148   8.308   6.344  10.565
49724W        W22149  27.471   4.325   0.813
49725W        W22150  21.688  27.100  13.500
49726W        W22151   3.865   1.301   2.216
49727W        W22152  16.114   9.719  13.872
49728W        W22153  20.090  20.212   2.205
49729W        W22154  39.018   4.824   3.314
49730W        W22155  12.116   3.413  13.401
49731W        W22156  33.008  36.077   2.678
49732W        W22157   6.906  42.030  12.340
49733W        W22158  31.952   9.349   1.435
49734W        W22159  34.532  12.304  11.516
49735W        W22160  35.473   4.403   2.877
49736W        W22161  34.104  31.983  13.517
49737W        W22162  29.506  43.505  10.938
49738W        W22163  43.864  34.012  13.458
49739W        W22164  41.016  24.695  12.909
49740W        W22165  20.646  29.645   3.268
49741W        W22166  34.882  25.002  13.322
49742W        W22167  28.454   7.242  12.026
49743W        W22168  44.501  24.702   0.303
49744W        W22169  19.615  33.424  14.345
49745W        W22170  42.287  16.769  14.357
49746W        W22171  37.414  12.355   0.811
49747W        W22172  28.613  12.330   0.868
49748W        W22173  32.575  20.654  13.507
49749W        W22174  32.433  38.063  11.862
49750W        W22175  15.623  40.337   3.257
49751W        W22176  12.660  14.605  10.941
49752W        W22177  41.800   7.335  14.809
49753W        W22178  28.184  38.880   4.804
49754W        W22179  23.694  10.335  14.366
49755W        W22180   6.909  25.064   2.740
49756W        W22181   5.710  30.613   3.746
49757W        W22182  19.654  37.014  12.875
49758W        W22183  39.460  37.487  13.465
49759W        W22184  21.605  39.498   4.322
49760W        W22185  39.840   6.750  11.125
49761W        W22186  32.120  44.773   2.315
49762W        W22187   5.366   6.831  10.535
49763W        W22188  37.348  20.230   0.894
49764W        W22189   0.294  25.062   4.186
49765W        W22190  33.395  40.905   3.696
49766W        W22191  24.621  38.328  13.841
49767W        W22192  14.234  12.832   3.247
49768W        W22193  32.101  43.437  12.045
49769W        W22194   2.747  13.170  14.857
49770W        W22195   9.758  34.387   4.704
49771W        W22196   7.741  30.580   3.709
49772W        W22197  26.633  15.598  12.940
49773W        W22198   3.452  23.500   3.866
49774W        W22199  40.036  10.142  11.081
49775W        W22200  44.009  35.008   3.213
49776W        W22201   0.455  19.156  10.952
49777W        W22202  19.178  33.900   1.865
49778W        W22203  12.273  36.591   0.818
49779W        W22204  30.115  19.234  10.645
49780W        W22205   7.706   8.743   5.173
49781W        W22206  28.165  17.172  13.041
49782W        W22207  10.215  24.089  13.966
49783W        W22208   7.783  10.241  11.550
49784W        W22209  43.971   7.387   1.732
49785W        W22210  13.743  42.016  14.480
49786W        W22211  22.743  21.027   3.355
49787W        W22212  44.843   0.910   1.405
49788W        W22213  26.650  41.949   0.458
49789W        W22214  25.508  11.132  14.471
49790W        W22215  19.210  30.098   4.750
49791W        W22216   4.757  10.334  14.300
49792W        W22217  34.906  43.316   2.346
49793W        W22218  44.414  40.314   4.618
49794W        W22219  21.709   9.875   1.283
49795W        W22220  42.370  18.760  11.459
49796W        W22221  44.275  11.147  14.836
49797W        W22222  13.292  25.061  14.962
49798W        W22223  15.723  16.737   9.938
49799W        W22224   9.176   2.385   3.368
49800W        W22225   5.764  24.529   2.306
49801W        W22226  37.481  21.116  12.437
49802W        W22227   0.835   6.252  12.060
49803W        W22228  42.840  25.162   2.755
49804W        W22229  36.412   2.903   1.921
49805W        W22230   2.469  25.534   2.303
49806W        W22231   2.388  23.001  13.430
49807W        W22232   1.367   0.446  11.877
49808W        W22233  19.153  23.505  13.385
49809W        W22234   6.398  13.201   1.311
49810W        W22235  20.130  21.686  13.801
49811W        W22236  24.716   4.897   2.261
49812W        W22237  19.577   0.893   4.130
49813W        W22238   6.288  31.003  13.500
49814W        W22239   2.233   9.263  14.293
49815W        W22240  34.939  10.350   2.326
49816W        W22241   4.820   5.364  13.515
49817W        W22242  14.663  40.359   1.772
49818W        W22243  18.082  34.956   0.911
49819W        W22244  21.263  17.065   0.473
49820W        W22245   3.727   6.356  13.838
49821W        W22246  16.671  31.036   3.649
49822W        W22247  36.547  36.987  10.944
49823W        W22248   9.866  36.071  12.390
49824W        W22249  44.844  16.140   0.843
49825W        W22250   0.975   1.460  12.011
49826W        W22251   4.311  29.149   3.217
49827W        W22252  35.515  25.554  11.496
49828W        W22253  21.691  27.106   0.820
49829W        W22254  41.530  19.742   2.357
49830W        W22255  41.348  36.936   0.831
49831W        W22256  12.639  30.507  13.853
49832W        W22257  41.983  24.207  13.870
49833W        W22258   3.895  13.749  13.813
49834W        W22259  33.604  13.655  11.072
49835W        W22260  35.891  10.167   1.279
49836W        W22261   4.382  41.422  11.560
49837W        W22262  44.956  26.145  12.565
49838W        W22263  27.140  13.674   0.385
49839W        W22264  21.681  18.085   2.238
49840W        W22265  42.483   0.774   1.705
49841W        W22266  18.191  28.013  11.097
49842W        W22267  29.994  18.616  10.148
49843W        W22268   0.823   9.750   1.698
49844W        W22269  41.026  38.501  12.954
49845W        W22270  22.065  26.023   4.262
49846W        W22271  33.468  35.089  13.037
49847W        W22272  35.389  22.589   4.118
49848W        W22273  27.488  22.620  14.342
49849W        W22274  44.350  11.137   4.739
49850W        W22275  28.441  25.487  13.465
49851W        W22276  40.471  24.495   0.467
49852W        W22277  33.526   1.824  14.446
49853W        W22278   5.728  25.479  11.925
49854W        W22279   1.383  24.140   2.755
49855W        W22280  31.004  30.060  13.387
49856W        W22281  21.730  39.878   2.754
49857W        W22282   8.165  34.919  13.045
49858W        W22283  35.903  18.671   1.307
49859W        W22284  26.697  26.499   4.352
49860W        W22285  17.230  32.426  10.503
49861W        W22286  17.653  24.504   2.308
49862W        W22287  20.265  30.073  14.344
49863W        W22288  23.130  21.223   3.378
49864W        W22289   9.884  42.945  10.948
49865W        W22290  32.111  39.559  13.944
49866W        W22291  35.965  29.631  12.071
49867W        W22292   7.857  26.146  14.477
49868W        W22293  24.608  19.137   3.651
49869W        W22294  16.690  19.718  12.826
49870W        W22295  31.076  36.408  10.536
49871W        W22296  41.884  22.096  14.855
49872W        W22297  16.588  18.608   1.284
49873W        W22298  26.127  26.123  11.469
49874W        W22299  23.047  17.700   1.274
49875W        W22300  41.376  28.640  13.494
49876W        W22301  24.715  22.151  14.839
49877W        W22302  23.162  29.596   0.465
49878W        W22303  14.266   6.859   1.821
49879W        W22304  11.702  40.825   1.407
49880W        W22305  15.290  20.060   0.765
49881W        W22306  37.453   7.410   0.955
49882W        W22307  20.526   0.844  12.867
49883W        W22308   3.318  11.627   3.658
49884W        W22309  25.038   1.737   4.188
49885W        W22310  26.180  11.737   4.230
49886W        W22311  12.280   1.768   3.870
49887W        W22312  26.619  43.331   0.783
49888W        W22313   6.842  20.148  12.900
49889W        W22314  34.380  23.634  11.128
49890W        W22315  16.215  29.071  12.006
49891W        W22316  23.099  33.911  11.376
49892W        W22317  10.143  42.963   5.196
49893W        W22318  11.312  20.744  12.841
49894W        W22319  10.703   1.907   1.212
49895W        W22320  42.944   3.283   4.626
49896W        W22321  16.616  26.480  12.481
49897W        W22322  42.883   3.856   4.314
49898W        W22323  27.508   4.303  11.036
49899W        W22324  13.808  19.592   1.779
49900W        W22325  38.525  27.479   0.329
49901W        W22326   3.425  44.963   2.356
49902W        W22327  11.719  40.516  12.410
49903W        W22328  14.141  23.125   1.262
49904W        W22329  38.440  30.907  11.395
49905W        W22330  27.451  36.008  14.405
49906W        W22331  18.148  26.567  10.606
49907W        W22332  43.010  39.496   2.676
49908W        W22333  27.102   4.799  14.852
49909W        W22334   0.846  35.041   4.198
49910W        W22335  24.979  14.788   2.190
49911W        W22336   7.180  15.308  12.070
49912W        W22337  28.481  44.887   3.349
49913W        W22338  15.179  40.826   2.378
49914W        W22339  44.979  44.996  14.431
49915W        W22340  31.144  43.873   4.275
49916W        W22341   2.381   0.887   1.863
49917W        W22342  32.437  22.584  14.814
49918W        W22343  43.954   5.726   2.295
49919W        W22344   8.365  25.141  14.955
49920W        W22345  11.276  12.706   4.808
49921W        W22346  19.263  32.956   1.375
49922W        W22347  42.984  35.023   0.288
49923W        W22348  20.536  34.427  12.952
49924W        W22349  28.490  21.542   2.867
49925W        W22350  18.549  21.177   0.306
49926W        W22351  11.730  44.318   0.925
49927W        W22352  14.831  31.133  13.505
49928W        W22353   3.251  18.773  12.382
49929W        W22354   6.723  24.503  12.867
49930W        W22355  40.040   0.376  12.420
49931W        W22356   5.738  39.021  10.472
49932W        W22357  37.832  19.252  14.903
49933W        W22358   5.736  28.494   1.330
49934W        W22359  29.033  39.521   4.220
49935W        W22360   9.868  37.569   0.917
49936W        W22361  29.057  23.516   1.241
49937W        W22362  23.492  44.400  12.488
49938W        W22363   2.294  35.598   1.752
49939W        W22364  38.350  34.071  13.442
49940W        W22365  19.164  43.457   2.293
49941W        W22366   4.753  31.523  12.487
49942W        W22367  20.528  35.972  12.832
49943W        W22368   6.815  29.586  12.074
49944W        W22369   9.805  41.453   4.231
49945W        W22370  35.400   9.336  14.442
49946W        W22371   8.388  19.089   1.755
49947W        W22372  42.419   1.427   3.184
49948W        W22373  25.160  21.733  10.962
49949W        W22374  37.831  24.578  13.433
49950W        W22375  39.413  34.019   4.325
49951W        W22376  41.385  20.181   0.773
49952W        W22377   2.432  26.117  11.967
49953W        W22378  20.669  18.719  12.412
49954W        W22379  36.921  37.419  13.483
49955W        W22380  44.288  38.979  12.949
49956W        W22381  41.452  19.574   3.847
49957W        W22382   1.763  25.188   0.373
49958W        W22383   0.971  30.541  12.069
49959W        W22384  24.209  10.676   1.380
49960W        W22385   5.386  31.529   0.772
49961W        W22386   3.364  18.660  11.890
49962W        W22387  31.481  15.770  13.362
49963W        W22388  14.695   5.779  13.347
49964W        W22389  21.192  16.214  11.431
49965W        W22390  38.886  37.386   4.698
49966W        W22391  26.582   0.429   0.843
49967W        W22392  14.800  16.098  10.445
49968W        W22393   0.808  35.485  14.003
49969W        W22394  42.385  10.327  10.062
49970W        W22395   9.258   0.412   0.310
49971W        W22396  18.675  32.968   4.280
49972W        W22397  21.614  38.876   2.333
49973W        W22398  14.296   3.808  10.919
49974W        W22399  18.112  30.555   0.764
49975W        W22400  13.792  24.003  13.413
49976W        W22401   5.326  24.724  10.611
49977W        W22402   3.737  21.556   1.220
49978W        W22403  16.297  10.200  11.454
49979W        W22404  15.755   7.687  11.978
49980W        W22405  19.598  27.552  14.335
49981W        W22406  21.635  42.480   1.704
49982W        W22407  21.704   2.231   3.655
49983W        W22408  30.471  30.153   4.259
49984W        W22409   3.714  35.871  14.759
49985W        W22410  28.644   6.892  12.486
49986W        W22411  26.524   3.863  13.538
49987W        W22412  13.827  41.453   0.305
49988W        W22413  11.316  30.123  11.383
49989W        W22414  42.870  13.708   1.217
49990W        W22415  32.964  44.428  11.980
49991W        W22416   4.791  32.530   1.896
49992W        W22417  39.815  10.775   2.418
49993W        W22418  36.842   6.793   3.671
49994W        W22419  29.475  27.536   2.361
49995W        W22420  16.784  12.297   4.714
49996W        W22421  31.964  29.031  12.918
49997W        W22422  25.501  36.901   2.785
49998W        W22423  24.494  35.571  12.857
49999W        W22424  44.405  41.837  13.545
50000W        W22425  36.859  38.989   4.332
50001W        W22426  19.662  20.593  12.974
50002W        W22427  23.627   6.731  13.822
50003W        W22428  17.635  26.963   1.288
50004W        W22429  36.855  17.278  12.983
50005W        W22430  38.007  44.429   9.954
50006W        W22431  30.063  11.639  10.490
50007W        W22432  36.418   7.185   0.870
50008W        W22433   3.882   7.833  11.879
50009W        W22434   5.238  39.532  10.480
50010W        W22435   9.328   8.679   5.301
50011W        W22436  29.571  25.980   4.670
50012W        W22437   9.804   7.854   2.241
50013W        W22438  26.167  41.444  14.904
50014W        W22439  24.031  24.701   3.278
50015W        W22440  40.920   2.812  11.397
50016W        W22441   3.932   6.302   0.847
50017W        W22442  43.434  41.896   0.747
50018W        W22443   0.419  17.191   2.684
50019W        W22444   1.328  42.503  14.953
50020W        W22445   5.373  13.336  13.862
50021W        W22446   8.876  30.055  12.854
50022W        W22447  34.492  27.179  13.955
50023W        W22448  43.918   4.877  12.918
50024W        W22449  28.960  17.748   3.359
50025W        W22450  35.879  42.348  14.439
50026W        W22451  32.925  22.658   1.297
50027W        W22452  37.030  25.577   4.350
50028W        W22453  21.638  20.162  11.960
50029W        W22454  27.496  32.020  14.905
50030W        W22455   3.250  13.298  10.448
50031W        W22456  28.150  34.980   0.455
50032W        W22457  14.675  39.820   2.371
50033W        W22458   9.275  37.348  10.644
50034W        W22459   4.405   3.287   0.849
50035W        W22460  37.975  25.488  11.070
50036W        W22461  23.091   3.935   3.310
50037W        W22462  12.140  10.308   0.252
50038W        W22463   2.306  31.909   5.290
50039W        W22464  32.427  21.711   4.779
50040W        W22465  16.736  21.093   1.266
50041W        W22466   6.762  43.983   3.849
50042W        W22467  17.197  26.669  12.966
50043W        W22468  40.362  41.525  12.527
50044W        W22469   2.857  23.078  11.051
50045W        W22470   5.412  13.302  14.872
50046W        W22471  43.967  31.032   1.803
50047W        W22472   7.258  26.590   0.961
50048W        W22473   1.792  11.368  12.083
50049W        W22474  17.282   8.236  14.477
50050W        W22475   7.266  14.773   1.232
50051W        W22476  28.581  25.172   1.809
50052W        W22477  36.053  31.519   4.600
50053W        W22478  37.892  25.474  14.851
50054W        W22479   4.286  34.601  14.441
50055W        W22480  43.312  32.497   1.788
50056W        W22481  30.625   0.405  12.016
50057W        W22482   6.388  28.041   0.391
50058W        W22483  40.494  43.390  11.915
50059W        W22484  28.614  22.041   3.246
50060W        W22485   6.291  21.085  13.488
50061W        W22486   6.213   8.270  10.530
50062W        W22487  17.663  38.444   4.807
50063W        W22488  37.546   2.960  14.848
50064W        W22489  11.817  41.335   3.159
50065W        W22490  42.335  38.346   3.761
50066W        W22491  33.381  35.885   4.120
50067W        W22492  23.148  10.691  12.398
50068W        W22493  13.279  28.079   0.379
50069W        W22494  24.015  44.911  12.378
50070W        W22495  18.090  35.596  12.456
50071W        W22496  29.478  13.222  12.359
50072W        W22497  18.620   6.871   4.298
50073W        W22498  39.343  20.074   3.188
50074W        W22499  16.675  15.187   1.902
50075W        W22500  32.910  19.779  14.016
50076W        W22501  20.258  26.200   4.623
50077W        W22502  42.899  40.485  14.467
50078W        W22503  40.978  23.725   4.693
50079W        W22504   0.372  17.284  14.973
50080W        W22505  20.668  37.523   3.719
50081W        W22506  28.065   7.209  14.013
50082W        W22507  22.740   3.459  10.085
50083W        W22508  41.384  34.430   2.808
50084W        W22509  38.337   9.658  10.516
50085W        W22510  19.760  33.908  11.470
50086W        W22511  19.642  44.436   1.434
50087W        W22512  13.599  35.406  13.340
50088W        W22513  30.414  16.774  14.310
50089W        W22514  34.588   6.800   2.710
50090W        W22515   4.406   3.713   4.319
50091W        W22516  11.632  31.526   4.282
50092W        W22517  11.367  37.372  10.108
50093W        W22518  40.396  39.965  13.795
50094W        W22519   7.888   5.813  14.827
50095W        W22520  30.530  19.541  13.389
50096W        W22521  25.189   4.850   3.663
50097W        W22522   3.922  13.715   1.271
50098W        W22523  31.548  40.475  11.510
50099W        W22524  34.116  10.680   1.337
50100W        W22525   5.203  13.728  10.537
50101W        W22526   2.343   9.784   4.197
50102W        W22527  42.329   1.263   3.694
50103W        W22528   6.711  44.969   3.327
50104W        W22529  19.186  43.993   1.240
50105W        W22530  27.056  16.772   2.327
50106W        W22531  41.893   5.932  13.477
50107W        W22532  43.908  43.013  10.473
50108W        W22533   0.946  30.985  13.992
50109W        W22534  38.874  37.020   0.774
50110W        W22535   9.361  36.917  13.913
50111W        W22536   6.245   4.734   4.712
50112W        W22537  10.746  39.819   3.160
50113W        W22538   3.457  23.201   3.309
50114W        W22539  25.062  23.604  12.422
50115W        W22540  24.115  34.959   4.198
50116W        W22541  15.679   6.394  13.336
50117W        W22542  16.297  23.555   1.835
50118W        W22543  16.591  25.996  13.837
50119W        W22544  19.598  25.040  14.298
50120W        W22545  33.125  43.012  12.555
50121W        W22546  21.718  28.516   0.965
50122W        W22547  10.305  26.118  10.059
50123W        W22548   1.862  39.024   2.199
50124W        W22549  19.156  33.016   3.293
50125W        W22550  32.890  30.964   0.473
50126W        W22551  23.028  30.941   0.768
50127W        W22552  24.640   5.330  12.566
50128W        W22553  10.165  38.951   4.789
50129W        W22554   2.311  29.140   1.256
50130W        W22555  12.227   9.732   0.248
50131W        W22556  22.068   2.330  12.879
50132W        W22557   0.399  14.275  12.075
50133W        W22558  14.737  24.112   4.239
50134W        W22559   9.878  12.181  12.526
50135W        W22560  12.805  39.955   1.282
50136W        W22561  30.618  12.140   4.816
50137W        W22562  23.719  35.105  12.980
50138W        W22563  35.587  38.850   4.151
50139W        W22564  12.664  31.465  12.409
50140W        W22565  44.408  11.361   0.841
50141W        W22566  22.508   9.702  14.329
50142W        W22567  27.663  11.815  14.009
50143W        W22568  25.037  37.880   4.810
50144W        W22569  30.539   0.930   1.766
50145W        W22570  21.121  41.006  12.037
50146W        W22571  39.323  10.690   4.205
50147W        W22572   9.683  18.691  14.814
50148W        W22573   8.688   7.295   4.787
50149W        W22574  29.525  23.696   3.644
50150W        W22575  16.680  37.374   1.245
50151W        W22576   0.769   7.324   3.693
50152W        W22577  17.110   0.286   0.805
50153W        W22578  42.446  24.605  13.946
50154W        W22579  31.090  42.421  12.092
50155W        W22580  17.565  17.122  13.314
50156W        W22581  39.435  27.541  13.059
50157W        W22582  34.921   9.776  11.455
50158W        W22583  10.347   8.667   4.717
50159W        W22584  28.160  42.296  14.474
50160W        W22585  30.549  25.143  12.883
50161W        W22586   0.864   4.798   1.299
50162W        W22587  22.660  43.332  11.460
50163W        W22588  11.810   8.681  12.872
50164W        W22589  37.985  35.999   4.622
50165W        W22590   9.776  19.108   2.841
50166W        W22591  39.856  41.830   2.370
50167W        W22592   4.918   8.667   2.292
50168W        W22593  23.060  29.935  13.507
50169W        W22594  24.206  13.710   3.282
50170W        W22595  20.067  11.369  12.018
50171W        W22596  30.558  33.109   3.735
50172W        W22597   7.792   4.839   0.824
50173W        W22598  43.894  28.988   3.778
50174W        W22599  28.080  16.176  14.408
50175W        W22600   3.305  35.419   1.904
50176W        W22601  30.121  37.490  13.386
50177W        W22602  18.172   0.376   1.729
50178W        W22603  37.581  41.503   2.331
50179W        W22604  28.071  15.690   4.132
50180W        W22605  32.953   7.726   1.799
50181W        W22606   1.840   9.810  14.305
50182W        W22607  35.079  37.536  10.961
50183W        W22608  36.401  26.017  10.897
50184W        W22609  39.330  28.539  13.968
50185W        W22610  10.203  16.650   9.922
50186W        W22611  19.633  12.750   2.673
50187W        W22612  39.863  32.560  11.991
50188W        W22613  44.491  37.396   0.291
50189W        W22614  31.927  12.694  10.473
50190W        W22615   8.310  19.042  12.341
50191W        W22616   2.887  13.752   3.698
50192W        W22617  36.561  11.356  13.938
50193W        W22618   8.722   8.751  14.027
50194W        W22619  28.935  10.786   0.806
50195W        W22620  17.244  43.867  12.438
50196W        W22621   8.293   4.271  14.911
50197W        W22622  27.129  41.831  12.984
50198W        W22623  14.109  43.274  13.432
50199W        W22624  43.860  39.496  13.506
50200W        W22625  14.749  35.877  14.498
50201W        W22626  33.472   4.931  10.522
50202W        W22627  33.908  21.119   4.637
50203W        W22628  44.463  39.823   2.261
50204W        W22629  32.016   9.837   4.599
50205W        W22630  37.899  25.104  11.400
50206W        W22631   8.246  31.442  11.381
50207W        W22632   9.296  10.825  12.421
50208W        W22633  18.752  39.455   0.483
50209W        W22634  34.481  39.846   0.409
50210W        W22635   7.861  11.686  14.949
50211W        W22636  38.398   4.929  10.966
50212W        W22637  31.470  28.534  12.504
50213W        W22638  31.137  33.597  14.319
50214W        W22639  33.596  27.479  10.616
50215W        W22640  29.019  25.983   0.953
50216W        W22641   3.884  30.482   2.902
50217W        W22642  15.746  31.574  14.771
50218W        W22643  20.099  32.093   0.438
50219W        W22644  25.634  43.949  14.369
50220W        W22645  20.094  41.851  10.904
50221W        W22646  24.618  21.705  14.882
50222W        W22647  25.219   5.929   2.886
50223W        W22648  10.205  30.017  12.406
50224W        W22649  14.262  36.447   5.141
50225W        W22650  30.449  32.605  14.419
50226W        W22651  35.002  20.579   0.764
50227W        W22652   1.348  13.247  10.442
50228W        W22653   7.859  39.413   0.478
50229W        W22654  42.365   7.770  13.370
50230W        W22655  24.717  24.489  13.383
50231W        W22656  19.143  16.794  12.466
50232W        W22657   1.298  23.055   3.243
50233W        W22658  19.065  38.481   4.229
50234W        W22659  27.481  34.426   0.473
50235W        W22660  43.507  43.994   1.755
50236W        W22661  33.959  44.909   4.677
50237W        W22662  26.553  11.225   2.320
50238W        W22663  42.389  28.044  11.109
50239W        W22664  20.572   5.712  14.826
50240W        W22665  22.568  13.806   9.988
50241W        W22666  20.613  21.119   2.404
50242W        W22667  29.164   3.889  13.952
50243W        W22668  33.942  12.336   4.812
50244W        W22669  15.658  43.436   1.438
50245W        W22670  41.310  36.358   4.247
50246W        W22671  42.437  17.233   1.794
50247W        W22672  11.254  12.643  14.995
50248W        W22673  39.931  24.226  12.526
50249W        W22674  25.538  14.256   0.861
50250W        W22675  21.174  36.091  11.575
50251W        W22676   6.405  41.034   4.771
50252W        W22677   6.400  22.057   3.685
50253W        W22678  34.552  14.647   4.723
50254W        W22679  14.632   3.234   3.750
50255W        W22680   9.736  16.093  12.505
50256W        W22681  19.739  12.342   4.163
50257W        W22682  26.078  25.495  11.048
50258W        W22683  43.431  29.658  14.460
50259W        W22684  16.217  36.990  12.032
50260W        W22685  40.864  44.453   4.713
50261W        W22686  20.743  44.501   1.874
50262W        W22687  32.584   5.421  12.513
50263W        W22688  20.271  21.157   1.869
50264W        W22689   4.232  26.953  14.399
50265W        W22690  44.386   0.770  12.398
50266W        W22691  38.570  10.757   0.960
50267W        W22692  37.910   7.751  13.490
50268W        W22693  21.110  15.615  13.964
50269W        W22694  32.449  25.104  13.989
50270W        W22695   8.851  31.613   0.932
50271W        W22696   8.260  41.883  14.390
50272W        W22697  16.681  35.515   3.696
50273W        W22698  42.897  20.113  13.383
50274W        W22699  39.369  27.461   3.241
50275W        W22700  24.501  12.720  10.452
50276W        W22701   1.393  36.546  13.464
50277W        W22702   6.317  11.717  12.456
50278W        W22703  37.568  22.518  12.845
50279W        W22704  12.666  37.572  10.635
50280W        W22705   6.752  26.188  14.945
50281W        W22706  12.726  21.618   2.303
50282W        W22707  13.307  24.106  13.888
50283W        W22708  35.871  36.541   2.772
50284W        W22709  28.560  44.002   1.855
50285W        W22710  41.981  18.570   2.902
50286W        W22711  18.258  19.093   0.849
50287W        W22712   1.245  20.096  10.498
50288W        W22713  44.756  30.911  10.435
50289W        W22714  28.116  11.862   0.880
50290W        W22715  33.961  10.810   1.768
50291W        W22716  10.325   3.286   4.776
50292W        W22717  25.982  26.608  14.003
50293W        W22718  11.158  37.851  12.418
50294W        W22719   3.365   6.806  13.850
50295W        W22720  33.974   0.251   2.808
50296W        W22721  20.551  26.690  11.537
50297W        W22722   6.711   6.774   3.207
50298W        W22723  38.546  19.743   1.445
50299W        W22724  11.371  33.064  11.052
50300W        W22725  33.875  14.095  11.475
50301W        W22726  39.467  44.294   2.216
50302W        W22727   1.753  25.645   2.765
50303W        W22728   4.852  41.490  13.961
50304W        W22729  20.630  21.169   0.387
50305W        W22730  40.390  39.414   0.755
50306W        W22731  42.364  37.844   1.826
50307W        W22732  26.554   6.834  12.974
50308W        W22733  42.012  37.359  14.887
50309W        W22734  22.619   0.748  10.610
50310W        W22735  19.664  26.691  11.907
50311W        W22736  11.750  26.685   3.215
50312W        W22737   8.168   6.907  11.422
50313W        W22738  41.304  17.278   2.404
50314W        W22739  37.456  30.539  13.395
50315W        W22740  35.418  25.184  13.334
50316W        W22741   9.194  35.392   0.467
50317W        W22742  26.166  32.924   4.289
50318W        W22743  37.063   9.357  13.425
50319W        W22744  22.108  11.732  11.414
50320W        W22745   5.798  34.081  10.549
50321W        W22746  42.411  12.705  10.417
50322W        W22747  24.582  20.693  14.960
50323W        W22748  11.857   2.891   3.274
50324W        W22749  21.072   0.939   0.468
50325W        W22750  20.106   2.242   1.749
50326W        W22751  28.077   9.322  10.416
50327W        W22752  42.361  18.656   2.745
50328W        W22753  43.283  29.665  14.853
50329W        W22754  14.171  11.365  13.544
50330W        W22755  20.256  19.753   0.424
50331W        W22756   6.377  11.299   4.712
50332W        W22757  14.271  10.662  13.826
50333W        W22758   8.782  30.158  14.465
50334W        W22759  13.811  16.293   0.808
50335W        W22760  44.484  15.630   2.870
50336W        W22761   7.899  23.137  10.590
50337W        W22762  35.075  38.975   3.861
50338W        W22763  14.699  16.233   3.777
50339W        W22764  11.292  42.375   2.182
50340W        W22765   8.172   1.412   2.325
50341W        W22766  20.118  29.518  14.441
50342W        W22767  31.971  43.941  14.359
50343W        W22768  31.142  17.645  13.001
50344W        W22769  18.670  28.026   2.346
50345W        W22770   7.209   7.712  11.568
50346W        W22771  14.701  36.454   4.653
50347W        W22772  18.123   3.940  14.006
50348W        W22773  29.426  44.297  11.491
50349W        W22774  11.836  37.417  14.387
50350W        W22775   6.773  34.082  14.835
50351W        W22776  39.348  17.190  11.063
50352W        W22777  31.063  35.482  10.417
50353W        W22778  43.941  22.570  11.012
50354W        W22779  14.625  28.936  11.949
50355W        W22780  30.095  17.764   3.255
50356W        W22781  28.004  39.345  12.462
50357W        W22782   3.749  14.694   2.715
50358W        W22783  13.605  22.007   2.307
50359W        W22784  11.735   6.228  10.435
50360W        W22785  39.534  12.284   4.771
50361W        W22786  17.761  41.299   2.829
50362W        W22787  34.993  30.598  14.787
50363W        W22788   9.678  36.542   2.680
50364W        W22789  18.619   1.902  13.330
50365W        W22790   6.780   3.444  11.064
50366W        W22791  23.520   7.835  11.961
50367W        W22792  30.043  15.735  10.539
50368W        W22793  25.066  24.021  12.566
50369W        W22794  44.443  15.818  13.330
50370W        W22795  30.109  13.666  14.299
50371W        W22796   9.872  11.304   2.859
50372W        W22797  37.041  43.841  14.819
50373W        W22798   8.678  25.025  13.508
50374W        W22799   0.769  44.267   0.952
50375W        W22800   1.351  29.986   3.705
50376W        W22801   9.746  28.622   1.913
50377W        W22802  44.778  30.022   1.368
50378W        W22803   8.395  10.664   0.301
50379W        W22804  43.273  22.218  11.117
50380W        W22805  14.604  38.461  12.071
50381W        W22806  34.408  18.221   3.296
50382W        W22807  17.158   2.422  13.985
50383W        W22808  38.967  44.887   1.822
50384W        W22809  25.479  38.871   2.739
50385W        W22810   1.418  28.998   4.692
50386W        W22811  24.032  16.755   3.639
50387W        W22812  31.522  16.247  11.971
50388W        W22813  19.581  24.531  14.872
50389W        W22814   8.285  12.134   4.267
50390W        W22815  16.314  21.191   3.833
50391W        W22816  35.932  29.621   2.826
50392W        W22817  38.400  33.058  10.979
50393W        W22818  27.183  20.662   3.348
50394W        W22819  40.463   1.809   3.867
50395W        W22820  20.065   6.761  11.407
50396W        W22821   5.730  11.810  11.916
50397W        W22822  24.639  28.947  11.463
50398W        W22823  16.215  19.143  13.009
50399W        W22824   3.902   9.269   2.802
50400W        W22825  32.012  14.239  10.615
50401W        W22826   6.282   0.909  13.333
50402W        W22827  44.440  21.115  12.523
50403W        W22828  13.277  40.018   1.369
50404W        W22829   0.384   2.784   3.359
50405W        W22830  35.910  43.795   2.278
50406W        W22831  19.555   0.969  13.395
50407W        W22832  32.620   4.902   0.807
50408W        W22833  11.831  38.405   0.429
50409W        W22834  39.867  22.092   0.336
50410W        W22835  10.795  37.050  14.960
50411W        W22836   8.676  41.382  10.979
50412W        W22837   8.729  41.495   0.844
50413W        W22838  30.909  43.017  12.033
50414W        W22839  18.631  19.082   4.665
50415W        W22840   8.341  13.340  12.527
50416W        W22841   3.284   1.460   2.339
50417W        W22842  44.940  18.751  11.117
50418W        W22843  13.636  31.940  12.463
50419W        W22844  30.517  29.934  11.916
50420W        W22845  22.164   1.861  12.404
50421W        W22846   7.360  26.038   3.256
50422W        W22847  32.959  10.785  12.554
50423W        W22848  15.616  29.169   3.650
50424W        W22849  35.447  16.282   0.940
50425W        W22850  12.670  36.541  12.020
50426W        W22851  16.627  20.555   4.180
50427W        W22852  27.953  18.128  14.320
50428W        W22853   9.224  21.695  13.017
50429W        W22854  34.509  21.512  11.088
50430W        W22855  37.989   2.266   2.838
50431W        W22856  28.621  21.256   0.949
50432W        W22857  16.685  29.641  11.038
50433W        W22858   4.409  28.448  13.006
50434W        W22859  26.544  42.481   0.442
50435W        W22860  10.220  22.622   3.861
50436W        W22861  10.216  41.977  13.403
50437W        W22862   4.739  23.087   3.755
50438W        W22863   7.208   8.755  12.947
50439W        W22864  19.679  31.993  13.900
50440W        W22865   5.739  12.791  13.854
50441W        W22866   6.700   2.399  13.820
50442W        W22867  19.657  30.080   3.786
50443W        W22868   7.232   9.700  14.021
50444W        W22869  28.954  32.925   4.276
50445W        W22870  16.113  13.342   4.710
50446W        W22871   1.456  32.898   0.430
50447W        W22872   6.423  11.216   4.297
50448W        W22873  19.596  28.554   1.241
50449W        W22874  17.593  14.619   1.354
50450W        W22875  41.377  34.398  11.433
50451W        W22876  35.033   1.971   2.282
50452W        W22877  32.047  41.371   1.405
50453W        W22878  40.447  43.794  13.355
50454W        W22879  23.699  38.061   2.840
50455W        W22880  41.804   8.165  14.460
50456W        W22881  36.461  38.953  13.901
50457W        W22882  16.658   9.769  14.341
50458W        W22883  21.058  20.671   1.353
50459W        W22884  35.379  11.864  13.934
50460W        W22885   0.344  26.965   2.388
50461W        W22886  15.768   0.422   3.236
50462W        W22887  32.422  22.243  14.944
50463W        W22888  18.662  43.963   4.619
50464W        W22889  11.721  34.978  14.287
50465W        W22890  23.508  28.645   2.207
50466W        W22891  15.667  27.480  13.538
50467W        W22892   3.436  21.683   0.758
50468W        W22893  15.116  29.665   2.385
50469W        W22894  22.669   1.347  11.434
50470W        W22895   5.893  25.637   1.914
50471W        W22896  14.170  35.432  12.513
50472W        W22897  36.499  28.129  12.411
50473W        W22898   6.909  14.663  13.367
50474W        W22899  16.299   6.388   3.674
50475W        W22900  14.692  25.000   2.287
50476W        W22901  21.605  10.218  11.855
50477W        W22902  18.067  20.723   3.871
50478W        W22903   5.858   4.829   2.273
50479W        W22904  13.751  27.448   1.808
50480W        W22905  35.479  16.142  12.368
50481W        W22906   3.756   5.396  14.978
50482W        W22907   3.847   8.843  14.475
50483W        W22908  18.776   0.980   2.219
50484W        W22909  42.343  43.850   4.814
50485W        W22910   3.869  23.665   4.293
50486W        W22911  31.902  16.292  12.404
50487W        W22912  27.637  36.948  14.489
50488W        W22913  11.669  39.853   4.649
50489W        W22914   2.731  10.369  12.343
50490W        W22915  37.045  36.528  12.534
50491W        W22916   0.295  25.599  11.108
50492W        W22917  30.529  13.843   3.665
50493W        W22918   0.403  15.712   1.280
50494W        W22919  27.137  33.457   2.325
50495W        W22920  24.206   3.923   2.416
50496W        W22921  26.031  44.280   3.327
50497W        W22922   2.818  16.749   2.280
50498W        W22923  25.169  13.125  12.511
50499W        W22924  25.553  26.588  11.524
50500W        W22925  22.682  12.652  11.569
50501W        W22926  20.552  18.609   3.202
50502W        W22927  40.948  12.711   0.895
50503W        W22928  44.414  13.606   0.452
50504W        W22929  20.575   3.894  12.038
50505W        W22930  23.612  28.987   4.719
50506W        W22931  25.486  34.032  13.965
50507W        W22932  21.022  15.736  10.554
50508W        W22933  33.530  44.440   2.199
50509W        W22934  19.222  15.182  10.595
50510W        W22935  22.094  16.189   1.308
50511W        W22936  42.029   0.875  10.452
50512W        W22937  10.820  43.461   0.853
50513W        W22938  14.801   9.817   0.425
50514W        W22939  14.338  34.487  14.997
50515W        W22940  43.789  12.824   4.816
50516W        W22941  31.968  30.964  13.498
50517W        W22942  23.678  17.181  11.867
50518W        W22943  20.045  40.387  10.454
50519W        W22944   3.754  37.889   4.641
50520W        W22945  15.611  28.510  12.903
50521W        W22946   7.274   6.409  13.852
50522W        W22947  35.886  37.522  10.963
50523W        W22948  17.077  36.901   1.380
50524W        W22949  10.675  37.848   2.675
50525W        W22950  33.617   4.449  12.950
50526W        W22951  10.143   5.293   2.689
50527W        W22952  21.245  23.649   3.221
50528W        W22953   2.408   2.429   0.397
50529W        W22954  29.966  25.092   3.238
50530W        W22955   9.845  23.118   2.737
50531W        W22956  21.574  28.631   2.692
50532W        W22957  34.519  34.557   2.744
50533W        W22958  38.971  39.467   3.837
50534W        W22959  12.827  23.985  11.455
50535W        W22960  12.139  36.037   1.867
50536W        W22961  40.894   4.394  12.483
50537W        W22962   5.313   1.422   4.148
50538W        W22963  24.107  36.522   2.743
50539W        W22964  17.118   5.228   3.163
50540W        W22965  35.551  39.352   0.907
50541W        W22966   0.461  44.437   1.846
50542W        W22967   3.353   8.795   0.305
50543W        W22968  42.975  28.557  14.425
50544W        W22969  27.509  16.266  13.883
50545W        W22970  32.098  39.476  13.052
50546W        W22971  25.055  42.910   4.184
50547W        W22972   8.861   6.844   3.671
50548W        W22973   4.766  25.057   2.248
50549W        W22974  12.142  44.396   4.268
50550W        W22975  27.974  32.504  12.070
50551W        W22976  32.501  24.227  12.929
50552W        W22977  25.206  23.652  12.024
50553W        W22978  28.552  30.951   3.645
50554W        W22979  25.692  44.488  11.477
50555W        W22980  20.032  26.674   2.204
50556W        W22981   8.721   5.344  14.945
50557W        W22982   0.401  32.924   4.239
50558W        W22983   3.326  43.850  12.925
50559W        W22984  18.260  31.108  10.980
50560W        W22985  12.620  11.288   2.891
50561W        W22986  35.974  16.686   1.393
50562W        W22987  21.529  43.895  12.843
50563W        W22988  40.314  15.189  13.370
50564W        W22989  33.018  14.223   4.119
50565W        W22990  44.443  28.449  10.577
50566W        W22991  41.897  30.067  14.437
50567W        W22992   9.388  28.508   2.417
50568W        W22993  30.499  27.973   1.801
50569W        W22994  22.139   3.896   1.706
50570W        W22995  13.118  28.452   1.913
50571W        W22996  19.653  31.469  14.804
50572W        W22997   4.802   8.325   0.315
50573W        W22998  15.141  12.131   4.767
50574W        W22999  39.432  33.043   1.849
50575W        W23000  11.860   9.649   2.845
50576W        W23001   9.164  42.823   1.809
50577W        W23002  25.544  32.963   3.284
50578W        W23003  28.113  12.670  14.861
50579W        W23004  20.732   6.697   1.331
50580W        W23005   6.753  27.462   0.462
50581W        W23006  26.128   5.328   2.829
50582W        W23007  38.063  31.052   0.447
50583W        W23008   2.460   4.881   9.950
50584W        W23009  19.702  15.741  10.618
50585W        W23010   2.318  13.224  12.037
50586W        W23011  37.987  20.607   4.800
50587W        W23012  44.435   8.721   5.133
50588W        W23013  18.632  39.825  14.924
50589W        W23014  18.249   1.750   1.806
50590W        W23015  15.641  26.474   2.759
50591W        W23016  14.730  12.830  11.087
50592W        W23017  38.364  20.176   4.831
50593W        W23018  20.063   6.411   2.900
50594W        W23019  12.197  12.159   1.817
50595W        W23020  44.484  11.686  14.448
50596W        W23021  31.028   5.258   3.849
50597W        W23022  17.756  23.192   3.740
50598W        W23023  41.922  20.235  11.503
50599W        W23024  33.097  15.677   4.348
50600W        W23025  26.967  16.286  11.954
50601W        W23026   8.352  30.040  14.899
50602W        W23027  26.643  32.059   5.178
50603W        W23028  34.102  10.380   2.282
50604W        W23029   5.282  16.581   1.269
50605W        W23030  26.008  40.835   4.252
50606W        W23031   1.845  42.456   2.387
50607W        W23032  43.392  31.978   1.911
50608W        W23033  27.165  20.130   3.843
50609W        W23034  25.635   2.794  10.644
50610W        W23035   2.810  10.706   4.783
50611W        W23036   0.807  30.924  10.994
50612W        W23037   9.300  44.404   0.929
50613W        W23038  14.239  15.098  13.369
50614W        W23039  28.004  42.498   4.240
50615W        W23040  39.822  15.599   2.382
50616W        W23041  43.379  37.440  11.060
50617W        W23042   8.271  17.124  11.495
50618W        W23043  11.750  18.640   0.394
50619W        W23044  25.029   6.702  10.955
50620W        W23045  25.543  23.692  11.480
50621W        W23046  19.693  33.529  13.939
50622W        W23047  16.779  12.756   2.371
50623W        W23048  33.617  10.840  11.980
50624W        W23049  14.737  39.538  13.825
50625W        W23050  33.932   8.780  12.086
50626W        W23051   3.903  10.248  12.420
50627W        W23052  40.870  31.949   4.768
50628W        W23053   1.347   3.268   2.359
50629W        W23054   7.313  16.086   3.796
50630W        W23055  38.825   7.286  12.842
50631W        W23056   9.189  32.528  13.850
50632W        W23057  33.525  20.058   4.228
50633W        W23058  33.110  41.880  11.432
50634W        W23059  40.418  11.221  13.924
50635W        W23060   0.335   8.786  12.040
50636W        W23061  23.584  19.235  12.037
50637W        W23062  41.428  33.427   1.802
50638W        W23063  22.092  20.162  13.475
50639W        W23064  25.200  14.219  12.039
50640W        W23065   7.357  35.394  12.967
50641W        W23066  28.550   0.486  11.977
50642W        W23067  28.158  15.111  13.797
50643W        W23068   9.353  43.898   2.779
50644W        W23069  21.098   9.370  10.555
50645W        W23070  41.010  43.295  10.053
50646W        W23071  15.628   6.709  10.536
50647W        W23072  33.409  39.863  10.582
50648W        W23073   0.264   3.276   2.776
50649W        W23074  34.599  29.996  12.483
50650W        W23075  14.298  16.743   3.277
50651W        W23076   4.704  28.095   4.627
50652W        W23077  36.002  17.725  14.820
50653W        W23078   4.316  43.893  12.574
50654W        W23079  13.112  11.298  12.472
50655W        W23080   3.943   6.329  11.425
50656W        W23081   1.785  43.332  10.644
50657W        W23082  24.571   3.798  13.428
50658W        W23083  16.080  24.161   2.271
50659W        W23084  12.853  17.802   0.822
50660W        W23085  14.798  36.849  11.493
50661W        W23086  34.417   3.936   1.778
50662W        W23087  21.521   3.917   1.349
50663W        W23088   2.433  24.024   0.779
50664W        W23089   3.819  19.670  11.066
50665W        W23090  16.269  36.403  13.429
50666W        W23091  37.547  29.551   4.215
50667W        W23092   6.908  13.774  14.828
50668W        W23093   2.337   3.311   1.819
50669W        W23094   8.329   2.930   3.319
50670W        W23095  19.585  34.534  13.424
50671W        W23096  11.238  43.347  11.429
50672W        W23097  31.991   4.445  11.082
50673W        W23098  15.808  40.520  13.013
50674W        W23099  34.526  30.497   2.770
50675W        W23100  35.440  10.171  10.531
50676W        W23101   0.808  16.712   0.831
50677W        W23102  22.024  31.975   1.762
50678W        W23103  29.113  41.911   0.876
50679W        W23104  40.431  25.191  12.917
50680W        W23105  16.793  40.360  11.128
50681W        W23106  40.523  33.954  14.844
50682W        W23107  25.089  43.501   1.305
50683W        W23108  36.013  34.590  14.906
50684W        W23109  33.392  15.239   2.302
50685W        W23110   5.874  42.505   3.829
50686W        W23111  10.749  27.554   0.815
50687W        W23112  36.580  32.091   2.383
50688W        W23113  35.876  41.793  11.095
50689W        W23114  28.091  20.630   2.348
50690W        W23115  38.536   9.822  12.032
50691W        W23116   3.245   4.374  10.601
50692W        W23117   5.722  27.147   4.643
50693W        W23118  32.954  18.252   4.646
50694W        W23119  24.123  18.782   3.367
50695W        W23120   9.818  26.571   3.183
50696W        W23121  19.578  32.415   3.195
50697W        W23122  24.620  22.689  12.067
50698W        W23123  16.081  13.163  13.488
50699W        W23124  18.165   5.239   1.347
50700W        W23125   6.845  39.981  12.862
50701W        W23126  28.141  40.867   1.329
50702W        W23127   0.392  22.564  11.077
50703W        W23128  38.009  24.214   3.331
50704W        W23129  32.409  16.084   1.403
50705W        W23130   7.180  38.071   3.869
50706W        W23131  38.855   7.687   1.319
50707W        W23132  17.100  22.117   1.243
50708W        W23133  37.976  17.074   3.858
50709W        W23134  33.564  40.305  14.352
50710W        W23135   6.909  38.443   0.414
50711W        W23136   4.250  19.111  10.510
50712W        W23137  40.469  33.466   2.900
50713W        W23138  13.830   5.754   1.831
50714W        W23139  40.397  12.836   0.840
50715W        W23140  44.356  26.643   2.306
50716W        W23141  43.451  32.538  13.800
50717W        W23142   7.279  42.828  14.356
50718W        W23143  35.108  35.548   2.681
50719W        W23144  24.074  11.859   1.389
50720W        W23145   8.238  35.537  12.028
50721W        W23146  23.566   6.685   1.702
50722W        W23147  33.381  11.266   4.664
50723W        W23148  27.039  40.366  13.506
50724W        W23149  19.108   0.275  10.967
50725W        W23150  36.031  11.854   0.853
50726W        W23151   5.261  28.175  10.466
50727W        W23152  13.702  10.352   0.739
50728W        W23153  21.245   4.257  13.321
50729W        W23154  33.922  20.270   3.274
50730W        W23155  22.195  22.727  11.021
50731W        W23156  38.426  42.983  10.580
50732W        W23157  15.786   0.900   0.428
50733W        W23158  26.146  35.065   0.839
50734W        W23159  39.993  10.334   2.759
50735W        W23160  23.621  33.958   2.747
50736W        W23161  20.102  13.245   2.213
50737W        W23162  39.841   1.387  12.403
50738W        W23163  30.513  28.631   0.772
50739W        W23164  36.999  15.292   1.272
50740W        W23165   9.748  39.425   3.867
50741W        W23166  17.144  42.796   2.893
50742W        W23167   9.275   2.297  12.346
50743W        W23168  25.056  17.079  14.031
50744W        W23169  16.608  12.831  14.954
50745W        W23170  33.964  43.973   4.242
50746W        W23171  24.089  22.219  13.984
50747W        W23172  22.604   4.745  14.958
50748W        W23173  16.175  31.545   0.885
50749W        W23174   5.292   2.472  10.897
50750W        W23175  23.655  14.159   2.214
50751W        W23176  18.227   4.403  10.493
50752W        W23177  40.804   6.397   0.965
50753W        W23178  18.691   9.658   3.216
50754W        W23179  40.993  23.528  14.326
50755W        W23180  33.465   7.172   4.297
50756W        W23181   5.894   2.409   3.859
50757W        W23182   7.361  43.472   1.278
50758W        W23183  44.988  42.879   4.253
50759W        W23184  32.522   7.885  13.811
50760W        W23185  39.522  20.708  13.019
50761W        W23186   2.788  22.628  14.973
50762W        W23187  41.884  26.561   1.899
50763W        W23188   4.912  42.348   4.147
50764W        W23189  41.295  43.272   0.965
50765W        W23190  32.609  43.989  12.419
50766W        W23191  10.183  32.456   4.299
50767W        W23192  25.656  31.510   2.333
50768W        W23193   2.329  33.061   4.272
50769W        W23194  23.032  11.366  14.492
50770W        W23195  36.489  43.005   0.457
50771W        W23196   0.319  44.816  10.442
50772W        W23197  29.112  39.043  14.474
50773W        W23198  23.730  33.001  13.463
50774W        W23199  17.262  32.977  10.987
50775W        W23200  30.954  23.207   3.792
50776W        W23201   1.354  41.504  13.387
50777W        W23202  37.872  17.134  14.887
50778W        W23203  25.492  13.637   3.680
50779W        W23204  13.718  21.675  12.401
50780W        W23205  13.200   1.910  10.590
50781W        W23206  20.133  21.174   2.845
50782W        W23207   9.198  27.511   3.277
50783W        W23208   1.271   9.690  14.359
50784W        W23209  20.617  40.884  12.541
50785W        W23210   3.359   3.716  12.031
50786W        W23211  38.960  14.314   3.150
50787W        W23212   3.369  33.100  14.969
50788W        W23213   1.298  13.256  11.048
50789W        W23214  30.633  26.138  10.644
50790W        W23215   2.967  14.652   3.226
50791W        W23216  32.442   4.859  11.432
50792W        W23217  31.926  14.324   2.260
50793W        W23218  26.545  31.527   9.599
50794W        W23219   9.150  16.703   4.297
50795W        W23220   0.982  21.620   3.735
50796W        W23221  26.697  12.152  14.867
50797W        W23222   2.942  36.090  10.924
50798W        W23223  11.209   0.253  10.639
50799W        W23224   0.253  30.643   3.674
50800W        W23225  27.082  42.359   4.131
50801W        W23226  25.642  24.596   3.379
50802W        W23227  14.155  25.654   4.716
50803W        W23228   8.191  41.016  13.955
50804W        W23229  31.069  35.973  13.442
50805W        W23230  37.967  32.927   2.368
50806W        W23231  12.199  32.488  13.450
50807W        W23232  41.375  12.348   3.734
50808W        W23233  25.091   7.702   1.420
50809W        W23234  23.174  36.914   1.372
50810W        W23235  16.740  12.730   3.667
50811W        W23236  31.960   3.276  12.069
50812W        W23237  40.336  18.560  11.566
50813W        W23238  44.891  24.118  14.499
50814W        W23239  19.710  16.314  13.353
50815W        W23240  32.991  31.963  12.054
50816W        W23241  24.603  28.940   4.145
50817W        W23242   1.345  38.851  12.838
50818W        W23243  33.597  12.313  12.893
50819W        W23244   9.308  36.583   1.749
50820W        W23245  27.092  33.532  10.525
50821W        W23246   8.204  33.471   3.819
50822W        W23247   1.877  43.484   3.374
50823W        W23248  33.986  36.380  13.447
50824W        W23249  40.546  14.283   4.332
50825W        W23250   1.892  22.150   0.786
50826W        W23251  39.314  14.657  14.860
50827W        W23252  36.583  30.496  13.838
50828W        W23253  23.026  29.576   1.437
50829W        W23254  31.504  21.625  11.372
50830W        W23255  17.172  15.135   0.453
50831W        W23256  40.480  11.650   3.274
50832W        W23257  43.305   9.388   4.700
50833W        W23258  34.909  43.012  13.877
50834W        W23259  24.126   7.283   4.244
50835W        W23260   7.695  34.103   3.299
50836W        W23261  13.738  42.877  10.489
50837W        W23262  14.830  24.535   4.201
50838W        W23263   3.724  40.326  13.886
50839W        W23264  31.152  35.080  11.096
50840W        W23265   1.436  13.631  11.079
50841W        W23266  13.652  36.565  13.799
50842W        W23267  13.120  37.925   1.387
50843W        W23268   5.794   0.472   4.686
50844W        W23269   8.355   8.334  13.920
50845W        W23270  15.290  16.798  14.513
50846W        W23271  37.343  27.639  12.505
50847W        W23272  20.149  42.395  11.087
50848W        W23273  33.087  26.460   2.828
50849W        W23274  30.106  26.616  14.003
50850W        W23275  18.681  10.186   4.799
50851W        W23276  35.053  13.193   0.779
50852W        W23277  23.688  26.037   3.314
50853W        W23278  39.958  44.950   5.733
50854W        W23279  32.094   2.394   4.121
50855W        W23280  31.646  26.121   3.323
50856W        W23281   2.739  14.752  10.631
50857W        W23282  34.064   3.894   3.813
50858W        W23283   8.279   6.190   3.339
50859W        W23284  24.116  35.467   3.843
50860W        W23285  19.205  36.882  12.518
50861W        W23286  42.335  44.904   0.853
50862W        W23287   2.458  17.694  12.018
50863W        W23288  39.384  35.018  10.924
50864W        W23289  18.703  28.022  13.381
50865W        W23290  36.939  38.382  11.378
50866W        W23291  30.512  10.324   5.214
50867W        W23292  12.214  35.389   0.788
50868W        W23293  19.643  14.201   2.707
50869W        W23294   6.873  13.727   0.260
50870W        W23295   0.307  28.932   1.776
50871W        W23296  24.633  10.192  12.001
50872W        W23297  33.540  42.321  13.483
50873W        W23298  15.258  15.791  10.468
50874W        W23299  29.620   1.329  12.850
50875W        W23300   0.925   5.255   0.956
50876W        W23301  31.460  13.641   3.151
50877W        W23302  39.818  30.453   4.197
50878W        W23303   7.877  13.649   0.883
50879W        W23304  34.534  13.664  14.868
50880W        W23305  35.577   8.711  13.910
50881W        W23306  38.982   4.855   3.870
50882W        W23307   4.263  23.180  10.919
50883W        W23308  30.967  39.329  13.007
50884W        W23309  10.636  42.814  10.620
50885W        W23310  41.929   4.833   0.264
50886W        W23311  33.449  12.804  12.096
50887W        W23312  15.318  41.953   3.341
50888W        W23313  29.542   3.352  11.477
50889W        W23314  34.553  42.379   1.703
50890W        W23315  23.543  22.580  11.869
50891W        W23316  33.474  33.043   4.814
50892W        W23317  21.186  12.304  13.866
50893W        W23318  29.082  37.395   2.748
50894W        W23319  32.965  43.923   1.778
50895W        W23320  11.665  30.473  13.972
50896W        W23321  26.603  39.549  11.091
50897W        W23322   2.273  10.866   2.780
50898W        W23323  24.011  38.463  13.529
50899W        W23324  32.038   6.773  14.910
50900W        W23325  17.210  19.649   2.180
50901W        W23326  30.132  11.656  10.939
50902W        W23327   1.277  14.337   3.162
50903W        W23328  21.181  24.149   2.850
50904W        W23329  21.235  34.484   3.293
50905W        W23330  21.181   6.379  12.480
50906W        W23331   0.866  14.204  12.366
50907W        W23332  21.229  18.166  11.033
50908W        W23333  17.109  36.348   1.804
50909W        W23334  31.513  10.188   3.642
50910W        W23335  14.278  21.203   1.422
50911W        W23336   3.284  10.160  10.503
50912W        W23337  28.135  23.631   4.261
50913W        W23338  22.065   1.322  14.477
50914W        W23339  31.991  19.226  14.836
50915W        W23340   2.794  16.751   2.789
50916W        W23341  10.712   4.855  14.368
50917W        W23342   5.324  44.897  12.019
50918W        W23343  36.368   0.848   3.205
50919W        W23344  16.696   3.296  14.804
50920W        W23345  37.341  25.630   1.853
50921W        W23346  31.484  41.379  12.913
50922W        W23347  14.253  29.496  12.577
50923W        W23348   1.391  37.023   3.288
50924W        W23349  41.324  21.745   0.325
50925W        W23350   0.362  37.442  12.840
50926W        W23351  30.061  13.124   1.841
50927W        W23352  29.669  32.548   9.559
50928W        W23353  44.939   0.961  10.642
50929W        W23354  41.037  28.573   3.370
50930W        W23355   9.325  37.431   0.378
50931W        W23356  22.041  26.566   1.746
50932W        W23357  13.799  14.618  10.949
50933W        W23358  37.069  10.255  12.559
50934W        W23359  13.143  23.172   4.212
50935W        W23360  20.652  16.312  10.905
50936W        W23361   4.367  17.735   0.887
50937W        W23362  11.259  11.180   2.857
50938W        W23363  39.999   6.822   4.126
50939W        W23364  22.561   6.316  14.472
50940W        W23365  35.406  14.340   1.414
50941W        W23366  30.992   7.730   0.781
50942W        W23367  15.237   7.724  12.509
50943W        W23368   2.876  19.594  12.465
50944W        W23369  29.666  11.846   3.237
50945W        W23370  21.120  41.441  11.599
50946W        W23371  37.401  30.162   3.754
50947W        W23372   0.283  34.883  12.540
50948W        W23373  43.951  30.163   3.657
50949W        W23374  37.013   4.206  13.840
50950W        W23375  31.473  24.532  14.456
50951W        W23376   2.909  39.494  11.060
50952W        W23377   8.199  13.125   3.345
50953W        W23378  26.151   5.716   1.239
50954W        W23379   2.745  40.447   4.265
50955W        W23380  27.164  30.456   5.208
50956W        W23381  43.803   1.407  12.578
50957W        W23382  11.207  14.340  14.303
50958W        W23383  11.722  13.670   3.214
50959W        W23384  38.920   3.436  13.350
50960W        W23385  23.589  17.700  12.069
50961W        W23386  31.421  17.778  14.907
50962W        W23387  29.472  33.513   4.697
50963W        W23388  43.978  17.252   3.354
50964W        W23389  39.543   9.253   4.705
50965W        W23390   2.288  26.663  14.483
50966W        W23391  27.567  41.368  11.555
50967W        W23392  31.921  39.453   1.787
50968W        W23393  22.216  41.451   2.888
50969W        W23394   2.951  42.410   1.891
50970W        W23395  17.166  27.017   1.283
50971W        W23396   1.770  12.308  12.972
50972W        W23397  36.429  35.021   3.195
50973W        W23398  19.682  37.439   2.662
50974W        W23399  22.694  27.668   4.769
50975W        W23400   5.811  27.095   2.285
50976W        W23401  23.717  31.564   4.327
50977W        W23402   3.427  27.629   3.649
50978W        W23403  44.917  15.174  12.078
50979W        W23404  25.605  26.630   1.264
50980W        W23405  42.782  37.392   1.912
50981W        W23406  41.976  19.600   1.925
50982W        W23407  34.901   7.878  11.930
50983W        W23408  27.097  11.205   0.890
50984W        W23409  14.315  36.900  11.073
50985W        W23410   7.354  28.635  13.535
50986W        W23411  22.189   1.736   1.924
50987W        W23412  30.040   9.160   0.760
50988W        W23413  14.135  20.688  13.394
50989W        W23414  25.666  14.112  13.854
50990W        W23415  20.723  30.412  10.479
50991W        W23416   3.400  17.218   4.341
50992W        W23417  41.393  25.136  12.566
50993W        W23418  25.482  23.021  13.908
50994W        W23419  26.974  37.467   4.151
50995W        W23420  28.556  13.225   3.868
50996W        W23421   4.340   6.238   2.668
50997W        W23422  19.616  36.941   0.814
50998W        W23423  44.392  18.586  11.440
50999W        W23424   3.820  36.440   4.270
51000W        W23425   0.467  36.851  11.577
51001W        W23426  35.930   4.831   0.897
51002W        W23427   3.790   6.754   2.829
51003W        W23428  15.126   7.708   1.853
51004W        W23429  30.506  29.572  13.850
51005W        W23430  31.442  44.861  11.936
51006W        W23431   7.733  32.553   2.819
51007W        W23432   8.717  13.706   0.799
51008W        W23433   7.691   1.307  11.544
51009W        W23434  29.570  42.495   4.648
51010W        W23435  17.792  20.703  12.562
51011W        W23436  11.200  27.614  13.310
51012W        W23437   9.277  19.116  14.947
51013W        W23438  28.635  11.645   1.257
51014W        W23439  43.298  14.314   2.729
51015W        W23440  23.611  38.850   1.393
51016W        W23441  27.584  43.346  12.350
51017W        W23442  22.542  31.953   5.287
51018W        W23443   0.790  21.645   0.943
51019W        W23444  42.311  43.408   1.304
51020W        W23445  17.141  33.534   0.300
51021W        W23446  21.061  24.570  12.468
51022W        W23447   5.233  12.320  13.314
51023W        W23448  26.048  20.670   1.378
51024W        W23449  17.080  10.317   2.397
51025W        W23450  40.905   4.297  10.506
51026W        W23451  23.588  36.487   4.832
51027W        W23452  27.688   7.352   0.303
51028W        W23453   3.281   3.890   1.892
51029W        W23454  40.882   4.398  13.976
51030W        W23455  12.720  42.893  13.823
51031W        W23456  31.081  31.988  14.870
51032W        W23457   8.659  27.642   2.301
51033W        W23458  33.604  14.613  13.022
51034W        W23459  20.217   9.233   2.347
51035W        W23460   1.300  13.335  14.810
51036W        W23461   5.385  18.064  10.633
51037W        W23462  43.916  40.326  10.956
51038W        W23463  37.919  19.106   2.309
51039W        W23464   9.172   9.335   4.178
51040W        W23465  39.368  15.774  14.774
51041W        W23466  36.518   5.304  12.352
51042W        W23467   9.350  14.301  13.308
51043W        W23468  37.915  17.664  10.562
51044W        W23469  29.960   2.738   1.845
51045W        W23470  43.293  31.516   2.327
51046W        W23471  35.979   1.875  12.540
51047W        W23472  30.608  27.463   2.759
51048W        W23473   5.769  35.054   3.841
51049W        W23474   2.292  33.477   1.886
51050W        W23475  18.728  27.654   1.822
51051W        W23476   8.731  15.237  12.537
51052W        W23477  18.061  31.079   2.232
51053W        W23478   1.430  36.931  11.503
51054W        W23479  27.096  36.844   2.210
51055W        W23480  30.134   3.349   3.373
51056W        W23481  39.339  42.976  11.395
51057W        W23482   7.197   6.907  10.080
51058W        W23483   2.362  21.070  12.048
51059W        W23484   9.194  28.494   1.899
51060W        W23485  17.284  22.110  12.535
51061W        W23486  34.578  34.599   0.960
51062W        W23487   9.681  11.632   3.203
51063W        W23488  31.515  32.050   0.323
51064W        W23489  33.515   8.377  11.107
51065W        W23490   3.443  36.909   0.875
51066W        W23491  25.998   6.911  14.962
51067W        W23492  38.972  29.946  11.531
51068W        W23493  41.940  36.954  12.984
51069W        W23494  32.918  19.599   3.698
51070W        W23495   1.733  34.552  11.879
51071W        W23496   0.782  21.030   0.961
51072W        W23497  10.352  14.099  10.002
51073W        W23498  32.482  35.053   0.434
51074W        W23499  42.307  17.783   4.788
51075W        W23500  14.605  41.342   3.764
51076W        W23501  35.982  10.354   0.401
51077W        W23502  19.534  18.161  13.876
51078W        W23503  34.520  42.980   4.141
51079W        W23504  11.173  42.384   0.368
51080W        W23505  36.003  16.753  14.796
51081W        W23506  35.572  24.142  13.420
51082W        W23507  25.134  20.743   2.383
51083W        W23508  43.382   1.448  10.612
51084W        W23509  43.950  20.626  13.937
51085W        W23510   8.279  28.508   2.357
51086W        W23511  26.152  34.974  12.511
51087W        W23512   5.735  14.262   2.861
51088W        W23513  40.315  34.002   0.945
51089W        W23514  30.006   7.298   4.717
51090W        W23515  13.644   9.342   0.840
51091W        W23516  10.654  23.188  13.349
51092W        W23517   1.396  23.028   2.723
51093W        W23518  38.877   0.916   3.358
51094W        W23519  41.405   0.353   3.851
51095W        W23520   6.700  21.660   0.782
51096W        W23521  26.058  34.034  13.903
51097W        W23522  21.643   8.369  14.297
51098W        W23523  21.668  24.639   0.309
51099W        W23524   6.363  28.969  13.004
51100W        W23525  41.295  11.141  11.533
51101W        W23526  27.666  39.963  12.901
51102W        W23527   9.754  11.363  14.884
51103W        W23528  42.837   8.192  11.610
51104W        W23529  22.021   5.360  13.483
51105W        W23530  16.296   1.951   0.256
51106W        W23531  30.983  44.900  14.012
51107W        W23532  42.483   2.816  13.482
51108W        W23533  36.975   7.416   0.880
51109W        W23534  40.961  36.525   0.374
51110W        W23535   1.465  15.260  11.456
51111W        W23536  12.652  22.074   1.828
51112W        W23537   7.393  28.043  12.896
51113W        W23538   4.816   2.962  14.885
51114W        W23539  27.111  20.125  10.925
51115W        W23540  28.459  34.561   2.383
51116W        W23541   1.300  29.571   1.746
51117W        W23542  32.076   6.394   4.601
51118W        W23543  32.995  18.074   4.245
51119W        W23544  16.203   6.317  14.024
51120W        W23545  28.558  24.481   1.928
51121W        W23546  35.053  35.551   3.735
51122W        W23547   0.951  28.163  14.284
51123W        W23548  41.482  30.962   2.898
51124W        W23549  36.091  30.046   4.152
51125W        W23550  35.502   3.795  13.948
51126W        W23551   6.327  36.483   2.304
51127W        W23552   6.856  24.485   4.193
51128W        W23553  19.591  19.603  11.399
51129W        W23554   5.811  13.313   2.397
51130W        W23555   0.841   3.217   3.717
51131W        W23556  26.970  44.982  12.965
51132W        W23557  20.665  22.132   1.211
51133W        W23558  22.008  25.639  13.438
51134W        W23559  29.989  26.188   4.828
51135W        W23560  13.294   2.864  13.324
51136W        W23561   6.246  14.778   3.321
51137W        W23562  21.183  25.029   1.289
51138W        W23563  38.397  11.680  13.832
51139W        W23564  35.483   9.798   2.245
51140W        W23565  30.516  15.752  13.947
51141W        W23566  25.017  39.809   1.423
51142W        W23567   1.938   3.366  13.063
51143W        W23568  41.884  11.689  12.962
51144W        W23569  35.073  24.611   2.246
51145W        W23570  44.321   5.239   3.721
51146W        W23571   3.887  35.985  13.453
51147W        W23572  11.191  17.571   4.740
51148W        W23573  40.371  37.936   1.304
51149W        W23574   6.715   0.897   0.263
51150W        W23575  13.778  41.473  11.500
51151W        W23576   8.846  39.894  12.047
51152W        W23577  11.318  17.737  11.045
51153W        W23578  37.351  25.194  13.891
51154W        W23579  20.057   0.941   3.149
51155W        W23580  15.647   3.243   1.349
51156W        W23581  22.644  34.981  10.038
51157W        W23582  33.087   1.354  14.983
51158W        W23583  17.586  32.591   9.503
51159W        W23584  41.986  20.769   0.404
51160W        W23585   9.378  11.223   1.881
51161W        W23586  25.174   8.806   0.769
51162W        W23587  38.539   1.819   3.735
51163W        W23588  40.030   0.312   3.866
51164W        W23589  26.681  13.293  11.536
51165W        W23590   7.284  35.480  10.572
51166W        W23591  23.073  41.519   3.150
51167W        W23592  34.029  34.599  10.635
51168W        W23593   4.806  24.482   0.475
51169W        W23594   7.251  19.552  10.588
51170W        W23595   0.438  38.042   2.342
51171W        W23596   1.770  28.583  12.866
51172W        W23597  12.769  36.557  14.373
51173W        W23598  12.228  31.504  14.370
51174W        W23599  13.643  23.044  14.481
51175W        W23600  32.569  29.543  13.526
51176W        W23601  37.522  12.349   4.787
51177W        W23602  17.196  21.547   1.239
51178W        W23603  10.825  16.681   1.716
51179W        W23604  13.108  44.303  11.528
51180W        W23605  26.657   0.777   1.407
51181W        W23606   0.813  30.024  14.935
51182W        W23607   0.310  34.422   1.310
51183W        W23608  17.652  33.427  13.496
51184W        W23609  12.751   8.246  12.504
51185W        W23610   2.800  19.154   0.898
51186W        W23611  16.623   9.653   2.362
51187W        W23612   1.799  23.148   4.198
51188W        W23613  30.425  41.354   1.383
51189W        W23614  15.089  37.482  12.417
51190W        W23615  26.028  42.882   0.938
51191W        W23616   4.743  31.122   2.238
51192W        W23617   4.848  44.868  11.562
51193W        W23618   9.383  13.712   0.257
51194W        W23619  23.709  16.574   2.824
51195W        W23620  21.522  20.080  14.342
51196W        W23621  16.744  33.401   2.298
51197W        W23622   8.789  33.417   4.835
51198W        W23623  32.030  18.614   4.815
51199W        W23624  21.031   1.899   4.351
51200W        W23625  40.510   5.776  11.122
51201W        W23626  35.864  15.113   2.342
51202W        W23627  25.982   3.922  12.088
51203W        W23628   6.299  17.210  12.846
51204W        W23629   2.277   1.887   4.763
51205W        W23630  39.368  20.735  13.952
51206W        W23631  37.938  36.540   0.255
51207W        W23632  41.818  18.690   3.713
51208W        W23633  29.007  30.911   3.864
51209W        W23634  37.979  27.124   3.665
51210W        W23635  30.114  21.168   0.817
51211W        W23636  16.772   0.414  10.151
51212W        W23637  14.792  25.089  14.993
51213W        W23638  32.508  14.723  11.535
51214W        W23639   7.848  14.680   1.779
51215W        W23640  12.309  22.552  10.924
51216W        W23641  21.124  24.020  13.338
51217W        W23642   4.870  42.310   3.345
51218W        W23643  34.591  39.415  14.313
51219W        W23644  35.039  25.488  11.093
51220W        W23645  16.073   9.193   0.937
51221W        W23646  38.358  41.005   0.272
51222W        W23647  11.817  16.133   1.293
51223W        W23648  12.232  44.259   0.923
51224W        W23649  15.618  41.858   4.289
51225W        W23650   8.704  35.024   3.210
51226W        W23651  33.531  30.918  12.402
51227W        W23652  25.625   6.845  13.798
51228W        W23653  10.796  33.964   2.394
51229W        W23654  38.986  38.046  13.373
51230W        W23655  44.459  34.920  12.896
51231W        W23656  18.267  43.972  12.578
51232W        W23657  44.278  19.150  13.463
51233W        W23658  19.277   4.340  11.487
51234W        W23659  37.902  26.690  11.610
51235W        W23660  38.989  31.049   0.443
51236W        W23661  11.819  22.637  12.862
51237W        W23662  36.511  14.221  11.083
51238W        W23663  28.636   1.272   3.857
51239W        W23664  16.803   7.700   2.862
51240W        W23665   7.335   0.834  11.563
51241W        W23666  12.749  30.569  12.025
51242W        W23667  42.808  30.103   1.920
51243W        W23668  38.415  33.074   2.391
51244W        W23669  24.099   8.695  14.489
51245W        W23670  27.665   8.231   2.299
51246W        W23671   0.873  24.669   3.700
51247W        W23672  11.731  21.627  10.920
51248W        W23673  22.024  18.054  12.414
51249W        W23674  40.504   5.207   1.823
51250W        W23675  28.179  17.798   1.333
51251W        W23676  25.050  25.608   1.769
51252W        W23677  13.814  17.145   1.787
51253W        W23678  44.915  38.354   0.731
51254W        W23679   8.227  44.389  12.987
51255W        W23680   7.296  42.961   1.309
51256W        W23681  38.875   1.451   0.360
51257W        W23682  21.046  21.034   5.134
51258W        W23683  31.957   9.754  12.881
51259W        W23684  30.129   5.710   2.405
51260W        W23685  42.987  41.439  12.464
51261W        W23686   3.461  26.064   3.288
51262W        W23687  40.824   8.738   4.757
51263W        W23688  12.834   9.183   0.457
51264W        W23689  21.730  36.381   1.389
51265W        W23690  23.560  12.755  14.854
51266W        W23691   0.424  40.005   1.907
51267W        W23692  44.905  32.018  14.823
51268W        W23693  44.502   2.294  12.503
51269W        W23694  36.011  25.545   5.804
51270W        W23695   5.715  21.078   0.822
51271W        W23696  23.993  12.820  10.585
51272W        W23697  44.437  40.529   5.190
51273W        W23698  14.600  19.164  11.878
51274W        W23699  24.556  43.939   0.844
51275W        W23700  29.014  38.054  10.626
51276W        W23701  24.106  22.618   4.326
51277W        W23702  14.191  23.625  12.038
51278W        W23703  33.417  13.244  10.522
51279W        W23704  16.646  40.413   3.281
51280W        W23705  34.079  11.241   0.245
51281W        W23706  13.159  23.662  13.418
51282W        W23707   3.925  21.632  12.533
51283W        W23708  43.879  16.785  12.092
51284W        W23709  44.862  19.174  11.080
51285W        W23710   7.304  30.572   3.351
51286W        W23711  38.541  17.265   2.183
51287W        W23712  32.119   9.651  14.975
51288W        W23713  18.054   3.773   4.629
51289W        W23714  35.465   6.188   4.344
51290W        W23715  43.502  16.579  12.918
51291W        W23716  25.162  33.946   2.399
51292W        W23717  14.743   9.888   3.723
51293W        W23718  26.658  41.518   1.360
51294W        W23719  32.424  36.003   1.897
51295W        W23720  21.545  13.133   0.287
51296W        W23721   0.887  16.717  14.430
51297W        W23722  22.523  14.216   1.910
51298W        W23723  42.015  26.459  13.953
51299W        W23724  31.528  15.317  11.078
51300W        W23725  12.317  33.469   3.682
51301W        W23726  23.041  28.643  11.371
51302W        W23727  44.835  29.937  11.435
51303W        W23728  12.752   8.406   2.263
51304W        W23729  28.451  36.578   2.288
51305W        W23730   2.878   9.161  14.957
51306W        W23731  32.040  25.546   4.640
51307W        W23732  15.699  26.978   0.835
51308W        W23733  26.161  24.495  10.615
51309W        W23734  35.863   5.887  11.057
51310W        W23735  15.757  37.064  10.509
51311W        W23736  31.488  37.373   1.901
51312W        W23737  42.006  18.057  14.490
51313W        W23738  23.629  28.612   3.726
51314W        W23739  15.084  39.939   1.349
51315W        W23740  38.894   7.767  12.342
51316W        W23741   8.686  33.474  11.376
51317W        W23742  42.858  19.040   2.796
51318W        W23743  16.721   6.746   0.288
51319W        W23744  10.322  27.466  12.078
51320W        W23745   8.732  24.630  13.941
51321W        W23746  40.415  37.463  12.469
51322W        W23747   4.860  39.838   4.784
51323W        W23748   6.390  13.119  14.787
51324W        W23749  25.201  30.520   0.929
51325W        W23750   1.465  44.446   2.414
51326W        W23751  19.281   2.425  11.596
51327W        W23752  13.768  31.427  11.450
51328W        W23753   4.363  33.474   3.167
51329W        W23754   9.802  28.680  11.046
51330W        W23755  32.467   9.213  10.527
51331W        W23756  44.271  16.290   2.317
51332W        W23757  24.060  40.857   1.752
51333W        W23758  39.008  39.324   1.887
51334W        W23759  42.378  35.889  10.901
51335W        W23760  26.996  32.960  14.960
51336W        W23761  21.194  20.553  11.121
51337W        W23762  11.200  22.112   2.874
51338W        W23763  34.063   9.872  10.482
51339W        W23764  41.466  25.702   0.910
51340W        W23765  40.797  16.233  11.556
51341W        W23766  32.463  20.150  10.915
51342W        W23767   1.464   0.409  10.406
51343W        W23768  25.674   5.293  10.963
51344W        W23769  33.558  38.335  13.039
51345W        W23770  25.608   2.435   0.786
51346W        W23771   8.709  37.993  14.489
51347W        W23772   9.791   2.828  10.589
51348W        W23773   0.307  22.999   1.832
51349W        W23774  23.556  34.006   4.299
51350W        W23775   7.363   0.308   2.744
51351W        W23776  16.193  19.686  13.345
51352W        W23777   7.803   4.295  13.463
51353W        W23778  29.102  36.521  11.575
51354W        W23779  18.187  44.984  14.816
51355W        W23780  26.701  15.275   3.744
51356W        W23781  19.589  37.864  12.343
51357W        W23782  28.576  44.960   0.351
51358W        W23783  43.900  15.600  11.017
51359W        W23784  43.374  42.463   3.712
51360W        W23785  17.634  36.396  11.588
51361W        W23786  20.163  16.125  11.053
51362W        W23787  38.023  40.400  10.502
51363W        W23788  26.659  16.738   3.266
51364W        W23789  21.578  12.787  11.051
51365W        W23790  23.035  12.192  12.060
51366W        W23791  17.271  13.278   0.377
51367W        W23792   0.888  10.642   0.452
51368W        W23793   1.777   7.200  12.567
51369W        W23794  16.636  20.138   0.307
51370W        W23795  26.685  32.571   2.872
51371W        W23796  14.223  28.468   4.328
51372W        W23797  20.728  36.363  11.444
51373W        W23798  37.079   1.816   0.933
51374W        W23799  35.573  28.681   1.920
51375W        W23800  35.859   0.368  11.403
51376W        W23801  39.052  24.097   3.261
51377W        W23802  28.444  16.625  14.382
51378W        W23803  12.175  40.474   4.771
51379W        W23804   0.761  31.910  12.533
51380W        W23805  36.983  23.053  12.399
51381W        W23806  42.484  10.284  11.401
51382W        W23807  11.750  16.626  10.638
51383W        W23808   1.788   1.276  13.464
51384W        W23809  30.596  10.167   3.741
51385W        W23810  41.483  31.010   4.606
51386W        W23811  36.991  22.596  10.002
51387W        W23812   0.466  44.485  14.975
51388W        W23813  13.715   6.334   0.880
51389W        W23814  26.023  24.634   1.820
51390W        W23815  12.777  31.635  12.014
51391W        W23816   4.290  26.003   0.803
51392W        W23817  34.048  10.749   3.238
51393W        W23818   0.429  13.716   0.752
51394W        W23819  13.309  35.862  13.907
51395W        W23820  21.025  31.579   0.949
51396W        W23821  22.570  22.208   4.304
51397W        W23822  16.178  28.643   4.680
51398W        W23823  10.651  17.617  14.951
51399W        W23824   7.744  44.270  11.107
51400W        W23825  12.639  37.887   2.312
51401W        W23826  31.588  22.241   3.717
51402W        W23827  18.667  25.484   4.136
51403W        W23828  42.369  17.673   2.860
51404W        W23829  42.815  37.887   1.841
51405W        W23830  25.070  42.321  14.394
51406W        W23831  40.053   1.886   1.348
51407W        W23832  25.032  27.653   0.789
51408W        W23833  29.933  43.021   1.365
51409W        W23834  43.358  16.639   1.265
51410W        W23835  36.554   7.754   3.651
51411W        W23836  15.203  22.572  12.056
51412W        W23837  31.994  30.514   3.694
51413W        W23838  15.284   8.833  13.411
51414W        W23839  14.737   9.371   1.927
51415W        W23840  35.083  12.653   2.407
51416W        W23841  20.273  20.628   1.385
51417W        W23842  41.039  21.531   1.902
51418W        W23843  38.513  19.244  14.468
51419W        W23844  37.425  10.760   4.712
51420W        W23845  18.117  10.280   1.296
51421W        W23846  31.032  19.216   4.765
51422W        W23847  36.878  23.521   0.763
51423W        W23848  19.076  44.984   3.760
51424W        W23849  24.184  29.538   4.765
51425W        W23850  24.671  31.579   0.472
51426W        W23851  16.595  13.260   1.702
51427W        W23852   8.785  16.294  11.857
51428W        W23853  13.760  39.424  14.278
51429W        W23854  31.135   5.280  14.817
51430W        W23855  34.528  18.206  11.583
51431W        W23856  17.198  26.097   0.891
51432W        W23857  27.519   0.376  10.599
51433W        W23858   1.897  31.612  11.568
51434W        W23859   6.709  36.444  14.383
51435W        W23860  39.366  30.937   1.748
51436W        W23861  13.702  27.482   3.727
51437W        W23862  35.025  19.222   1.852
51438W        W23863  42.501  30.066   1.393
51439W        W23864  26.668  27.499  14.869
51440W        W23865  11.232  38.908   1.734
51441W        W23866  21.212   7.895  10.452
51442W        W23867  39.381  37.958   4.730
51443W        W23868  31.543  43.987   2.833
51444W        W23869   0.929  15.328   2.666
51445W        W23870  24.083  29.174   2.781
51446W        W23871  36.443  24.549  11.885
51447W        W23872   1.874   2.318   3.301
51448W        W23873  28.458  33.611  13.941
51449W        W23874  28.476   3.911   2.890
51450W        W23875  17.669  20.057   0.378
51451W        W23876  14.635  32.960  11.874
51452W        W23877  26.990  37.927   1.756
51453W        W23878  15.760  35.438   4.238
51454W        W23879   5.212  40.048   0.934
51455W        W23880  18.285  39.494  12.372
51456W        W23881  35.471  31.425  12.977
51457W        W23882   9.306  36.431   0.416
51458W        W23883  37.444  19.754  12.049
51459W        W23884  37.454  36.082   1.417
51460W        W23885   2.914  14.226   3.211
51461W        W23886  27.543  42.409  12.401
51462W        W23887  37.068  43.448   4.337
51463W        W23888  10.274  40.013  11.011
51464W        W23889  34.395   6.712  13.407
51465W        W23890  24.031  36.069   0.458
51466W        W23891   1.312  34.597  12.397
51467W        W23892  13.821   8.225  14.318
51468W        W23893  29.968   8.777  10.463
51469W        W23894  30.561  44.925  14.505
51470W        W23895  28.441  23.561   3.385
51471W        W23896  20.058  44.477  13.801
51472W        W23897  14.644   0.824  11.408
51473W        W23898   1.358   7.312   3.320
51474W        W23899  39.809  28.492  12.475
51475W        W23900  38.902  41.300  11.922
51476W        W23901  30.910  44.835  11.537
51477W        W23902  36.413  10.813  12.843
51478W        W23903  28.575  15.103   1.767
51479W        W23904  31.444  34.002   2.366
51480W        W23905  32.526   5.830   2.371
51481W        W23906   2.249  17.739   2.903
51482W        W23907  31.503  38.909   4.237
51483W        W23908  41.468  16.752  10.569
51484W        W23909  15.582   9.785   0.746
51485W        W23910  41.951  12.182  11.429
51486W        W23911   9.297  13.745  13.878
51487W        W23912   1.423  34.999  11.447
51488W        W23913  34.112  31.069   2.266
51489W        W23914  31.047  32.470  12.053
51490W        W23915  20.573   9.347   1.363
51491W        W23916   1.770   7.242  10.635
51492W        W23917  20.129  13.842   0.311
51493W        W23918   2.416   8.825  10.145
51494W        W23919   6.397  14.626   4.672
51495W        W23920  10.786   7.324  13.378
51496W        W23921  39.542  14.119   0.936
51497W        W23922  15.637   9.885   2.755
51498W        W23923  44.901  15.171  13.529
51499W        W23924  17.710  31.083   1.714
51500W        W23925  22.192  26.963  14.891
51501W        W23926  13.822   0.390  12.988
51502W        W23927  40.389  32.505  10.559
51503W        W23928  23.499   9.835  13.819
51504W        W23929  44.917   4.870   2.766
51505W        W23930   2.930  43.480  13.318
51506W        W23931  16.579  43.498  11.379
51507W        W23932  34.542  12.240   4.637
51508W        W23933  42.936  29.133  12.373
51509W        W23934   6.809  22.594   4.762
51510W        W23935   3.359  30.459   1.897
51511W        W23936  22.155  34.026  11.118
51512W        W23937   3.934  32.986  13.918
51513W        W23938  15.168  10.812   3.773
51514W        W23939  36.039   4.892  11.593
51515W        W23940  25.062  19.752  11.411
51516W        W23941  35.100  32.558   0.852
51517W        W23942  41.908  38.867  12.556
51518W        W23943  33.497  28.041   1.733
51519W        W23944  32.000   9.366   3.711
51520W        W23945  30.571   6.246   0.800
51521W        W23946  21.641  36.439  12.441
51522W        W23947  31.148  31.406   1.352
51523W        W23948   7.861  17.169   3.665
51524W        W23949  37.401  43.373   3.232
51525W        W23950   8.890  15.303  14.011
51526W        W23951  34.604  23.547   2.841
51527W        W23952  30.631  41.894   3.756
51528W        W23953  10.283   6.398   0.429
51529W        W23954  24.189  42.936   4.762
51530W        W23955  30.523  39.045   3.702
51531W        W23956  10.294  19.541   2.344
51532W        W23957  32.617   7.198   3.828
51533W        W23958  27.604  36.428  11.869
51534W        W23959   6.820  44.322   0.880
51535W        W23960  38.952  43.414  13.944
51536W        W23961  33.047   4.821  12.827
51537W        W23962  16.662  39.826  11.078
51538W        W23963  17.791  24.712   3.199
51539W        W23964  42.838  12.182  10.471
51540W        W23965  22.530  32.022   0.798
51541W        W23966   8.288  33.423  11.017
51542W        W23967  29.459   7.383  10.135
51543W        W23968   7.314   1.870   4.319
51544W        W23969  24.040   2.902  12.439
51545W        W23970   8.246  36.377   0.408
51546W        W23971  13.740  30.072   2.362
51547W        W23972  32.595  27.551  14.843
51548W        W23973  37.932   3.282  12.419
51549W        W23974   6.231   2.859   0.302
51550W        W23975  27.064  32.607  10.999
51551W        W23976  20.708  29.020   3.292
51552W        W23977  16.638  23.563  11.036
51553W        W23978  35.067  36.972  10.484
51554W        W23979  39.887  36.492  11.923
51555W        W23980  38.881  20.042  13.493
51556W        W23981   7.292  22.523  14.942
51557W        W23982  11.175  21.584  12.541
51558W        W23983  31.907  18.678  13.438
51559W        W23984  31.403  39.991  11.005
51560W        W23985   8.775  37.420  13.916
51561W        W23986  40.478  27.636  12.548
51562W        W23987  21.113  11.303  11.492
51563W        W23988   1.438  25.035   2.749
51564W        W23989  11.334  20.123  10.967
51565W        W23990  24.588  34.523   0.414
51566W        W23991  23.653  19.207   4.272
51567W        W23992   1.309  22.997  14.415
51568W        W23993  37.492  37.518   2.357
51569W        W23994  18.583  29.553   5.652
51570W        W23995  38.968  13.243  12.957
51571W        W23996   9.727  23.157  14.957
51572W        W23997  39.345   9.836   4.242
51573W        W23998  24.626  19.235  12.925
51574W        W23999  36.494  30.563  13.011
51575W        W24000  26.467  36.895   3.176
51576W        W24001   2.348  38.920  12.400
51577W        W24002  13.238  10.649   3.146
51578W        W24003  40.523  16.249  12.572
51579W        W24004  27.689   9.840   1.734
51580W        W24005  24.976  26.622  13.007
51581W        W24006  40.451  14.719  12.509
51582W        W24007  17.740  38.983   4.275
51583W        W24008  17.795  44.429  12.471
51584W        W24009  11.803  39.841  11.102
51585W        W24010  16.673  24.045   2.339
51586W        W24011   2.454  23.152  14.953
51587W        W24012  18.594   9.842  12.503
51588W        W24013  17.617   1.303   1.346
51589W        W24014  27.452   4.385   2.734
51590W        W24015   8.721   3.841  11.513
51591W        W24016  37.071  24.117   0.430
51592W        W24017   4.811  15.796  11.968
51593W        W24018  37.885  41.379   0.427
51594W        W24019  23.491  38.882   2.363
51595W        W24020  21.260  22.612   4.170
51596W        W24021   1.438  18.578  11.578
51597W        W24022  42.303  14.314  11.866
51598W        W24023  23.652  17.759   2.804
51599W        W24024  30.010  18.629  13.030
51600W        W24025  12.851  26.187   2.213
51601W        W24026  42.470  12.334  12.430
51602W        W24027  35.441  16.268  11.965
51603W        W24028  30.070   1.891   0.932
51604W        W24029  15.748  39.929   2.840
51605W        W24030   2.372  36.382   2.673
51606W        W24031  23.578  40.887  12.566
51607W        W24032  20.098   1.400  10.564
51608W        W24033  38.934   5.835   0.266
51609W        W24034  27.948  15.792  13.898
51610W        W24035   4.351  34.041  14.806
51611W        W24036  43.420  17.781  10.513
51612W        W24037  39.858  13.776   0.434
51613W        W24038   9.388  17.188   2.695
51614W        W24039  13.767  14.274   0.453
51615W        W24040  30.516   3.452   1.890
51616W        W24041  23.560  30.560   1.774
51617W        W24042  34.458  29.532   4.666
51618W        W24043  18.133  11.776   3.774
51619W        W24044  21.603  15.683  11.867
51620W        W24045   5.870   9.778  14.296
51621W        W24046  22.073  23.656  14.304
51622W        W24047   2.752  37.052   4.598
51623W        W24048  13.348  44.294  14.305
51624W        W24049  24.613  22.244  14.356
51625W        W24050  27.093  25.582  14.762
51626W        W24051  33.522  22.154  13.341
51627W        W24052  37.455  20.569  13.058
51628W        W24053  25.147  12.773  10.958
51629W        W24054   8.660  21.560  11.069
51630W        W24055  27.511  12.223   4.291
51631W        W24056  10.228  12.694  14.814
51632W        W24057  14.644  43.906  11.890
51633W        W24058  11.824  27.686  14.004
51634W        W24059  38.354  28.446   4.318
51635W        W24060  33.411  21.178   9.930
51636W        W24061  17.593  44.841   1.822
51637W        W24062  35.367   4.350  13.542
51638W        W24063  41.999  20.571  14.337
51639W        W24064   7.191   8.741   3.786
51640W        W24065   6.319   3.783  10.925
51641W        W24066  24.648   0.880   1.315
51642W        W24067  18.174  24.021   2.782
51643W        W24068  14.793   5.254  12.458
51644W        W24069  41.331  13.802   0.342
51645W        W24070  25.188   5.216   4.336
51646W        W24071  33.426   2.805  13.459
51647W        W24072  11.860  32.985  11.938
51648W        W24073  20.626  33.976  13.489
51649W        W24074  23.004  30.949   0.310
51650W        W24075  16.137  14.588  10.964
51651W        W24076   3.430   5.332  10.469
51652W        W24077  39.909  41.358  13.364
51653W        W24078   8.200   0.926  13.314
51654W        W24079   7.263  27.586  12.949
51655W        W24080  32.093  34.462   4.715
51656W        W24081  11.212  43.362   4.152
51657W        W24082  24.584  36.530  13.809
51658W        W24083  36.411  28.575  14.365
51659W        W24084  38.936  38.852   3.217
51660W        W24085   3.941  17.697  12.415
51661W        W24086  27.142   7.251   0.938
51662W        W24087  37.349   1.337   3.192
51663W        W24088  36.925  19.247   2.738
51664W        W24089  39.487   5.751  12.971
51665W        W24090  10.743   6.313  11.941
51666W        W24091   4.824  44.891   1.243
51667W        W24092   4.810  13.160   4.166
51668W        W24093   1.298  17.794   2.210
51669W        W24094  30.604  17.294  10.146
51670W        W24095  41.355   5.908   1.810
51671W        W24096  13.175  26.198  12.979
51672W        W24097  29.482   9.389   0.761
51673W        W24098  12.687  30.604  10.409
51674W        W24099  36.585   9.810   2.346
51675W        W24100  12.850   3.749   4.261
51676W        W24101  30.604   7.704  12.469
51677W        W24102  42.437  26.183  13.049
51678W        W24103  18.774   0.273  13.469
51679W        W24104   8.166  39.977   2.799
51680W        W24105  19.070  25.174  12.833
51681W        W24106   4.211  15.798  14.317
51682W        W24107  14.157  37.900  13.030
51683W        W24108   3.718  14.726  13.389
51684W        W24109  18.113  12.667   1.912
51685W        W24110  31.086  22.205   0.454
51686W        W24111  12.119  21.070  14.380
51687W        W24112  19.722  32.046   2.403
51688W        W24113  31.433  10.865   4.757
51689W        W24114  23.183  16.080  10.479
51690W        W24115  27.965  29.616   3.698
51691W        W24116  19.153  21.712  13.540
51692W        W24117  22.130   3.743  14.976
51693W        W24118  24.518  40.866   2.834
51694W        W24119   4.420  19.215   1.899
51695W        W24120  31.449  25.082   1.313
51696W        W24121  16.265   3.252   1.300
51697W        W24122  39.808  31.042   2.860
51698W        W24123  22.190  21.254   1.289
51699W        W24124   9.325  36.404   1.360
51700W        W24125  32.980  28.996   0.915
51701W        W24126  36.346  21.119   0.880
51702W        W24127  19.267  34.096  12.046
51703W        W24128   6.738   5.808   4.337
51704W        W24129  41.906   1.385   4.747
51705W        W24130  24.542  38.050   2.831
51706W        W24131   9.289   7.410   2.724
51707W        W24132  41.484  44.877   5.318
51708W        W24133  41.934  12.682   5.304
51709W        W24134  10.270  37.359  13.029
51710W        W24135   9.200   0.775   2.294
51711W        W24136  44.276   6.204  11.987
51712W        W24137   3.430  31.969   4.749
51713W        W24138  20.558  20.094  10.918
51714W        W24139  35.930  30.912   3.635
51715W        W24140  25.488  30.991   3.149
51716W        W24141   1.915  44.340   4.228
51717W        W24142  13.809  16.636  14.994
51718W        W24143  13.271  38.075  12.982
51719W        W24144   7.901   5.391  12.014
51720W        W24145  23.677  43.484   4.248
51721W        W24146   6.183  33.926   4.832
51722W        W24147  21.186  41.534  10.626
51723W        W24148  14.623  23.047  12.380
51724W        W24149  12.219  31.599   1.340
51725W        W24150   9.361   5.413   4.814
51726W        W24151  17.257  33.092  12.352
51727W        W24152  27.001  42.409   0.844
51728W        W24153   7.238  17.090  14.496
51729W        W24154  30.562  10.769   1.450
51730W        W24155   6.863  32.478  13.959
51731W        W24156  16.170  17.198  13.901
51732W        W24157  26.596  14.808   3.172
51733W        W24158  17.574  24.992   1.383
51734W        W24159  37.832  24.707  14.934
51735W        W24160  14.243  38.444  12.972
51736W        W24161   4.384  20.661   1.262
51737W        W24162  23.561  39.952   4.796
51738W        W24163  14.618   8.771  11.037
51739W        W24164  41.465  33.530   3.664
51740W        W24165  32.510   9.780  14.468
51741W        W24166  21.675  36.956   4.619
51742W        W24167  27.138   0.911  13.433
51743W        W24168  41.826  36.873   0.789
51744W        W24169   0.822  33.482   4.218
51745W        W24170  36.448  28.060   4.158
51746W        W24171  26.121  22.076   3.726
51747W        W24172   2.773  32.503   4.773
51748W        W24173   0.261  26.129   3.352
51749W        W24174  33.593   4.866   3.204
51750W        W24175  20.735  12.852   2.770
51751W        W24176  13.837  11.185  11.897
51752W        W24177  29.610   0.471  14.780
51753W        W24178  36.923  23.520  11.540
51754W        W24179  19.155  35.458  11.116
51755W        W24180  30.982   1.823   1.861
51756W        W24181  41.427  27.073   4.834
51757W        W24182  28.565   4.709  14.769
51758W        W24183  31.613  19.216  12.001
51759W        W24184  30.566  16.123  11.568
51760W        W24185  33.497  32.909  14.313
51761W        W24186  28.492  19.711   1.888
51762W        W24187  39.321  19.053  12.977
51763W        W24188  34.591  35.934  10.457
51764W        W24189   3.797  40.925  11.095
51765W        W24190  23.495  22.055  11.918
51766W        W24191   5.795  36.079   9.496
51767W        W24192  19.201  35.993  14.464
51768W        W24193  34.885   6.754  14.925
51769W        W24194  15.227  24.717   2.327
51770W        W24195  36.532   3.777  12.345
51771W        W24196  44.823  18.133   0.810
51772W        W24197  22.211  43.358  12.046
51773W        W24198  13.165   1.790  13.310
51774W        W24199  34.554   9.784   0.388
51775W        W24200   8.186  34.454  12.416
51776W        W24201  20.674   5.396   1.858
51777W        W24202  12.798  41.012   3.679
51778W        W24203  42.504  25.483   4.150
51779W        W24204   3.729  32.041   4.744
51780W        W24205  18.199   2.462   4.741
51781W        W24206  25.493  29.645   4.643
51782W        W24207  12.815  34.535  13.881
51783W        W24208  28.646  23.550   0.735
51784W        W24209  31.949  22.012  10.470
51785W        W24210  11.635   1.451   3.255
51786W        W24211  29.043  36.895  13.540
51787W        W24212   8.824  36.536  10.603
51788W        W24213  21.601  17.067  12.912
51789W        W24214  35.899  38.018   3.189
51790W        W24215  39.928  32.627  12.391
51791W        W24216  40.950  42.840   1.700
51792W        W24217  22.578  19.547   4.735
51793W        W24218  32.044  41.384  10.552
51794W        W24219   6.188  42.815   0.446
51795W        W24220   9.766  42.382   0.828
51796W        W24221  15.809  24.668   4.156
51797W        W24222   4.287   8.226   0.405
51798W        W24223  24.524  23.077  14.013
51799W        W24224  42.505  32.630   4.167
51800W        W24225   6.256  34.391  13.354
51801W        W24226  16.245  16.636   0.306
51802W        W24227  31.591  21.077  14.962
51803W        W24228  24.973  24.996   3.712
51804W        W24229  14.271  22.631  11.927
51805W        W24230  22.133  31.422   3.664
51806W        W24231  31.149  17.259   1.210
51807W        W24232  17.555  17.237  10.994
51808W        W24233  26.056  27.176  12.457
51809W        W24234   1.465   3.725   1.883
51810W        W24235  19.167  10.163  14.342
51811W        W24236  25.028  25.605   5.208
51812W        W24237   4.341  21.604  10.525
51813W        W24238  41.360   6.209  13.850
51814W        W24239   0.323  13.731   4.827
51815W        W24240  35.068  19.093  11.085
51816W        W24241  34.580  11.369  11.083
51817W        W24242  19.084  16.232  14.330
51818W        W24243  37.349  32.983  13.386
51819W        W24244  37.035   9.737  14.411
51820W        W24245  29.599  34.503   3.731
51821W        W24246  37.346  21.538   3.279
51822W        W24247   4.387   0.484   3.782
51823W        W24248  25.024   8.283   4.324
51824W        W24249  26.602   4.293   9.941
51825W        W24250  24.496  37.885   4.826
51826W        W24251  10.224  39.827  13.429
51827W        W24252  41.862  16.187  13.830
51828W        W24253   9.170  19.688   2.251
51829W        W24254  26.558   2.783   0.825
51830W        W24255  15.326   7.851  11.482
51831W        W24256  40.526  44.873   4.129
51832W        W24257   1.753  40.458   0.403
51833W        W24258  30.542  22.601  11.948
51834W        W24259  19.188  43.810   1.735
51835W        W24260  17.075  36.514   0.426
51836W        W24261   1.852  44.905   2.772
51837W        W24262  19.173   4.763   1.298
51838W        W24263   6.720  44.854  11.032
51839W        W24264  30.505  44.349  12.914
51840W        W24265  41.519  43.022   2.211
51841W        W24266  26.690  22.703  10.980
51842W        W24267  18.739   6.187  14.785
51843W        W24268  15.614  20.110   3.635
51844W        W24269  40.344  26.955   4.169
51845W        W24270  42.339  43.863   2.793
51846W        W24271  32.570  40.984  13.835
51847W        W24272  27.109   1.780  12.523
51848W        W24273  11.355  42.465  12.932
51849W        W24274  34.420  15.685   4.168
51850W        W24275  14.761  44.308   1.247
51851W        W24276   6.757  23.070   1.301
51852W        W24277  34.463  36.075  10.950
51853W        W24278  38.957  28.651  13.504
51854W        W24279  32.968  29.434   0.450
51855W        W24280  10.830  23.606  11.386
51856W        W24281  27.622  17.588  11.396
51857W        W24282  23.056   6.884   2.751
51858W        W24283   7.799  24.538   4.353
51859W        W24284  37.081  24.037   5.138
51860W        W24285  30.145   4.255  13.946
51861W        W24286  15.588  18.610   3.270
51862W        W24287  34.609   0.341  11.380
51863W        W24288  32.527  20.720   0.935
51864W        W24289  18.154  17.136   0.437
51865W        W24290  12.254  24.670   9.669
51866W        W24291  12.801  32.489  11.893
51867W        W24292  43.842  44.272  14.318
51868W        W24293  25.507  27.633   4.168
51869W        W24294  13.170  44.370   5.196
51870W        W24295  25.008  14.180  13.018
51871W        W24296  37.898  18.261  11.910
51872W        W24297  23.635  41.987   4.129
51873W        W24298  22.176  16.568  13.889
51874W        W24299   2.279  28.452   3.792
51875W        W24300  12.148  36.944   1.718
51876W        W24301   9.698   5.415  14.447
51877W        W24302  19.593  20.103  14.023
51878W        W24303  36.991   3.797  14.891
51879W        W24304  10.314  13.637   4.309
51880W        W24305  16.074  19.284   1.706
51881W        W24306  35.899  27.999  12.986
51882W        W24307   9.746  14.699   1.788
51883W        W24308  19.747   8.663   2.314
51884W        W24309  14.720   1.376  10.481
51885W        W24310  44.906  16.594  12.475
51886W        W24311  33.431   5.794   1.383
51887W        W24312  34.927  20.056  11.082
51888W        W24313  11.214   3.318   2.893
51889W        W24314   5.426  19.648   2.696
51890W        W24315  42.386  36.978   1.711
51891W        W24316  35.004   3.721  13.424
51892W        W24317   1.243  44.973   1.357
51893W        W24318   5.426  25.690  11.421
51894W        W24319  36.504  32.430  13.057
51895W        W24320  39.942  20.675  13.951
51896W        W24321  28.564  11.202   2.361
51897W        W24322   5.834   8.197  11.992
51898W        W24323  27.627   2.281  12.444
51899W        W24324  42.363   0.274   3.738
51900W        W24325   3.929  14.791   1.853
51901W        W24326   4.808  18.630  12.091
51902W        W24327  27.062  35.914   4.682
51903W        W24328  11.191  30.064  13.328
51904W        W24329  15.804  36.065   9.995
51905W        W24330  44.859   7.364  12.417
51906W        W24331  34.006  39.333  10.507
51907W        W24332  16.752   2.922   1.234
51908W        W24333   3.868  27.557  11.855
51909W        W24334  10.803  36.014  12.014
51910W        W24335  34.972  12.638   2.897
51911W        W24336  14.739   1.857  14.840
51912W        W24337  24.647   6.806  14.426
51913W        W24338  19.737  29.085   1.762
51914W        W24339  14.632  38.872   0.949
51915W        W24340  34.879  29.931   2.276
51916W        W24341  23.587  24.096   0.317
51917W        W24342  11.308  32.998   2.884
51918W        W24343  34.936  11.856   0.388
51919W        W24344  44.780  22.067   1.865
51920W        W24345   9.684  41.930   0.935
51921W        W24346  13.297  24.692   0.430
51922W        W24347  26.181  14.733   2.890
51923W        W24348  10.313  21.595  12.917
51924W        W24349  16.184   2.368  11.898
51925W        W24350   7.340  21.133  10.997
51926W        W24351  14.224  20.707   2.301
51927W        W24352   8.662  34.554   4.200
51928W        W24353  27.165   4.427   0.855
51929W        W24354  23.706  41.493  11.422
51930W        W24355  36.576   2.759  12.045
51931W        W24356  23.689  39.454  11.552
51932W        W24357  26.026  44.414   4.330
51933W        W24358  39.441  35.934   0.303
51934W        W24359   3.435  11.682  10.901
51935W        W24360  19.252  31.562   1.700
51936W        W24361  18.735  10.721   2.205
51937W        W24362   6.323  28.613  12.931
51938W        W24363   9.665  10.336  12.987
51939W        W24364  33.916  42.420   0.262
51940W        W24365  44.919   0.339  10.546
51941W        W24366   5.843  41.833   2.901
51942W        W24367  19.155  33.112  10.027
51943W        W24368  39.911   5.429  12.526
51944W        W24369  30.453   7.413   3.733
51945W        W24370  24.001  16.109  13.488
51946W        W24371  36.865   2.764   0.946
51947W        W24372  10.857   6.245  13.427
51948W        W24373  19.092  21.609   3.337
51949W        W24374  12.288  31.467  10.946
51950W        W24375  26.566  12.775  13.453
51951W        W24376  10.771  34.109  14.470
51952W        W24377  44.359  38.342  13.964
51953W        W24378  30.023  35.108   1.237
51954W        W24379  26.991  33.454   1.337
51955W        W24380  40.022  31.055   3.211
51956W        W24381  28.161  34.468  11.464
51957W        W24382  33.089  32.069   2.690
51958W        W24383  41.452   5.765   2.360
51959W        W24384  36.418  29.494  10.433
51960W        W24385   6.402  16.268   2.309
51961W        W24386  16.160   8.203   3.704
51962W        W24387   5.837  17.122  12.439
51963W        W24388  44.368  39.064  12.501
51964W        W24389  15.637  24.075  13.808
51965W        W24390  18.640  11.694   0.479
51966W        W24391   9.723   5.208   1.310
51967W        W24392   1.907  39.025  12.423
51968W        W24393  16.606   1.404  14.362
51969W        W24394  20.694  43.355  12.035
51970W        W24395  13.335   6.759  11.080
51971W        W24396  18.184  25.661  11.447
51972W        W24397  12.121  16.152  14.923
51973W        W24398  37.398   7.276  10.106
51974W        W24399   7.227  12.177   4.283
51975W        W24400  25.119   8.383  14.908
51976W        W24401  30.572  43.515   1.263
51977W        W24402  15.158  29.148  10.935
51978W        W24403  23.707  10.873  12.531
51979W        W24404  42.845  25.644  13.929
51980W        W24405   3.323  11.216   0.915
51981W        W24406  18.764   7.342   5.272
51982W        W24407  14.173  17.566  14.005
51983W        W24408  42.472  13.324   0.909
51984W        W24409  10.331  26.587  14.981
51985W        W24410  42.943  34.443  14.493
51986W        W24411  13.252   0.934   5.236
51987W        W24412  41.510  35.080   2.902
51988W        W24413  38.541  43.808  13.911
51989W        W24414  33.955  37.360  13.490
51990W        W24415  29.666  38.465   1.329
51991W        W24416  44.402   2.411  14.887
51992W        W24417  42.987  39.519   3.171
51993W        W24418  13.137  18.766   2.862
51994W        W24419  29.637  30.037   9.966
51995W        W24420  42.008  29.601   0.399
51996W        W24421  37.506  21.730   4.343
51997W        W24422  16.668   5.424  11.857
51998W        W24423   0.758  22.580   2.809
51999W        W24424  26.648  42.394  10.641
52000W        W24425  37.018  26.587   1.822
52001W        W24426  24.111   9.699   0.422
52002W        W24427  13.694  16.653   4.774
52003W        W24428  26.203  26.195  14.423
52004W        W24429  29.574  16.104  11.389
52005W        W24430   7.251  42.025   1.236
52006W        W24431  33.072  31.097  13.999
52007W        W24432  18.206  37.998   1.373
52008W        W24433   5.884  31.909   1.912
52009W        W24434   6.913  22.650  13.965
52010W        W24435  19.689  36.513   3.856
52011W        W24436   4.263  42.936  10.449
52012W        W24437  27.061   3.401   1.767
52013W        W24438  37.507   6.184  11.490
52014W        W24439  39.008  42.311  14.030
52015W        W24440  29.485  33.061  13.909
52016W        W24441  34.069  32.108  10.541
52017W        W24442  35.924  34.991   4.662
52018W        W24443  21.629  36.038   1.790
52019W        W24444  29.615   4.448   3.752
52020W        W24445  42.029  17.624  12.339
52021W        W24446  35.570  21.214   0.309
52022W        W24447   4.852  42.421  11.124
52023W        W24448  27.679  33.966   5.761
52024W        W24449   8.374  36.428  14.760
52025W        W24450  34.929   3.925  11.047
52026W        W24451  28.156   8.236  12.033
52027W        W24452  35.984  42.828   3.277
52028W        W24453  24.135  27.492   3.663
52029W        W24454   2.762  14.105   0.286
52030W        W24455  15.250  31.994  13.909
52031W        W24456  24.196  42.459  14.904
52032W        W24457   0.970  39.316  14.446
52033W        W24458   9.341  13.703  11.118
52034W        W24459  39.941   2.904   3.188
52035W        W24460  26.017  13.758   4.209
52036W        W24461  28.016  43.824   0.445
52037W        W24462  23.169  32.542   2.688
52038W        W24463  37.363  40.313   3.643
52039W        W24464  19.598  22.571   3.857
52040W        W24465   1.318  23.221  11.593
52041W        W24466  44.296  15.270  12.493
52042W        W24467   9.198  33.557   1.800
52043W        W24468  31.561   1.321  12.532
52044W        W24469   2.794   3.736  13.878
52045W        W24470   9.365  42.336  12.914
52046W        W24471  16.593   1.365  12.446
52047W        W24472   7.339  13.620  11.552
52048W        W24473   6.813  13.234   1.695
52049W        W24474  30.415   4.723   4.648
52050W        W24475  40.415  44.899  12.510
52051W        W24476  39.852  16.304  14.451
52052W        W24477  13.182  15.640  13.415
52053W        W24478  11.170   0.481  13.515
52054W        W24479  30.962  29.074   0.396
52055W        W24480  19.582   0.486   3.854
52056W        W24481  23.492  39.875   1.818
52057W        W24482  31.461  17.250   3.209
52058W        W24483  21.117  21.623   3.647
52059W        W24484  43.507  36.536  13.453
52060W        W24485   6.799  25.489  10.509
52061W        W24486  10.776  26.953  12.446
52062W        W24487  11.689  30.545  13.487
52063W        W24488  37.838  42.449   4.221
52064W        W24489  19.586   5.740   2.863
52065W        W24490  40.369  28.056   4.312
52066W        W24491  18.213   2.840   1.299
52067W        W24492   9.247   2.806  11.037
52068W        W24493  30.041  33.901   2.183
52069W        W24494   7.260   7.755   3.281
52070W        W24495  39.885  24.042   0.308
52071W        W24496  34.068  31.635   1.277
52072W        W24497   6.834  10.302   2.693
52073W        W24498  38.897  28.089  14.970
52074W        W24499  27.009  28.625  11.076
52075W        W24500  18.681  44.754  13.021
52076W        W24501   3.304  14.125   4.711
52077W        W24502  36.506  35.946   4.122
52078W        W24503  21.660  37.506   5.261
52079W        W24504   2.401  41.464   1.222
52080W        W24505  40.051  27.480   0.359
52081W        W24506  17.644  13.809   2.755
52082W        W24507  26.552  36.422  12.388
52083W        W24508  25.175   2.228  12.907
52084W        W24509  38.961  29.529   1.821
52085W        W24510  31.581  23.021   4.217
52086W        W24511  32.548  41.905  14.823
52087W        W24512   6.259   0.822   4.247
52088W        W24513  32.564   0.264   3.323
52089W        W24514  32.564  17.095  14.849
52090W        W24515  28.666  37.555   4.688
52091W        W24516  25.099  37.412  10.092
52092W        W24517   5.369   7.313   4.605
52093W        W24518  44.261  12.847  12.498
52094W        W24519  37.988  42.985  14.914
52095W        W24520  44.455  25.578  14.352
52096W        W24521  21.712  30.105   4.336
52097W        W24522  37.907  26.173   4.182
52098W        W24523  19.214   4.717   0.955
52099W        W24524  27.622   1.277  14.388
52100W        W24525  31.107  36.076  12.566
52101W        W24526  16.123  12.146  12.516
52102W        W24527  33.909  13.209  14.819
52103W        W24528  11.209  39.411  13.063
52104W        W24529  36.358  31.021  10.916
52105W        W24530  10.648  29.930   3.686
52106W        W24531  30.010   8.741   0.792
52107W        W24532  27.590   7.805  11.466
52108W        W24533   2.805  39.441   2.213
52109W        W24534  23.042  16.245  11.424
52110W        W24535   0.342   2.727   3.768
52111W        W24536  35.992  43.766  14.767
52112W        W24537  20.202  41.442  12.569
52113W        W24538  20.533  19.578   0.940
52114W        W24539   3.355   5.251  11.128
52115W        W24540  26.027   4.909  13.854
52116W        W24541   6.320  38.032  11.498
52117W        W24542  33.612  20.628  14.963
52118W        W24543  28.613  32.987   2.871
52119W        W24544  25.494  17.213   3.801
52120W        W24545  21.171  26.051   1.780
52121W        W24546  31.141  32.114   2.870
52122W        W24547  11.302  40.402   0.465
52123W        W24548   4.289  21.036  10.421
52124W        W24549  21.179  26.984  13.980
52125W        W24550  30.476   0.439   4.709
52126W        W24551  31.077  28.171  11.893
52127W        W24552  30.418  42.301   0.914
52128W        W24553  33.419  35.525  11.100
52129W        W24554  25.639  24.578  14.918
52130W        W24555  36.472  30.460   4.785
52131W        W24556  14.219  23.023   0.244
52132W        W24557  25.050  42.845  13.402
52133W        W24558  15.725  37.353   1.424
52134W        W24559  14.668  34.966   0.771
52135W        W24560   7.396  36.994  11.986
52136W        W24561   5.862  29.112   2.827
52137W        W24562  25.112  32.132   0.463
52138W        W24563  29.926  13.836  12.534
52139W        W24564   5.266  21.752   0.919
52140W        W24565  11.732  22.722  13.935
52141W        W24566  19.739  28.086  10.502
52142W        W24567  19.681  24.486  12.543
52143W        W24568  24.527  28.041   1.432
52144W        W24569  42.816   3.914   4.655
52145W        W24570   1.460  14.152   2.351
52146W        W24571  35.518  28.608   3.261
52147W        W24572   4.778  41.332   0.852
52148W        W24573  25.156  20.739  12.450
52149W        W24574  40.441  12.694  11.051
52150W        W24575   2.921   9.743   2.748
52151W        W24576  35.882  10.794   0.392
52152W        W24577  18.196  40.868   1.232
52153W        W24578   3.741  28.455   1.258
52154W        W24579   9.315  44.913  13.891
52155W        W24580  40.333  32.408  10.989
52156W        W24581  18.144   6.922  10.556
52157W        W24582  14.610  44.868  14.289
52158W        W24583   3.319  33.410  11.000
52159W        W24584   0.454  31.153  12.048
52160W        W24585   4.381  38.863   2.830
52161W        W24586  37.087  22.011   1.812
52162W        W24587  42.316  38.449   3.171
52163W        W24588  24.599  18.693   1.234
52164W        W24589  19.608   1.963   3.765
52165W        W24590  34.080  44.395   3.157
52166W        W24591  35.009   2.786  13.042
52167W        W24592   0.899  24.176   4.136
52168W        W24593  38.558  23.631  11.546
52169W        W24594   2.365  44.495  10.562
52170W        W24595   8.698  37.035   9.550
52171W        W24596  30.531  17.221  14.793
52172W        W24597  11.815  19.542  12.011
52173W        W24598   7.318  43.965  12.096
52174W        W24599  33.887  24.715  11.545
52175W        W24600  18.169  16.132   0.436
52176W        W24601  43.473   4.408  13.005
52177W        W24602  24.567  42.912  12.940
52178W        W24603  33.015  29.464   1.792
52179W        W24604  42.461  26.951   2.375
52180W        W24605  17.217  41.936  12.500
52181W        W24606  19.678  32.963  10.013
52182W        W24607  17.290  42.944   1.301
52183W        W24608  31.405   5.373   3.201
52184W        W24609   2.407  41.940  11.886
52185W        W24610   4.828  10.278  11.055
52186W        W24611   1.927   0.389  14.831
52187W        W24612  43.941  35.022   4.346
52188W        W24613  35.383  35.500   0.273
52189W        W24614  11.138  13.693  12.398
52190W        W24615  31.634  15.104  13.935
52191W        W24616  39.836  12.625  13.921
52192W        W24617  40.423  41.914  12.400
52193W        W24618  21.220  16.299   1.221
52194W        W24619  44.809  28.642   1.770
52195W        W24620  28.149   6.267   2.795
52196W        W24621  24.140  12.165   3.202
52197W        W24622  26.538  39.387  13.533
52198W        W24623  38.493   8.896  14.821
52199W        W24624  31.981  25.499   0.894
52200W        W24625  35.030  39.344   4.248
52201W        W24626  37.862   4.302  13.348
52202W        W24627  19.090  21.031  14.481
52203W        W24628  35.871  12.256   2.312
52204W        W24629  36.074  27.193   4.742
52205W        W24630  11.256   4.894  13.344
52206W        W24631  20.225   8.859   3.335
52207W        W24632  23.713  14.811   4.179
52208W        W24633  39.318  25.693   3.862
52209W        W24634   0.326   4.717  12.487
52210W        W24635  30.489  15.242   4.704
52211W        W24636  36.899  35.578   4.176
52212W        W24637  17.147  11.228  11.101
52213W        W24638  23.711  21.261   2.385
52214W        W24639  31.557  14.646   4.347
52215W        W24640  43.495  40.530  13.832
52216W        W24641   5.211  12.241  12.390
52217W        W24642   3.270  18.723   0.412
52218W        W24643  43.337  28.142  13.358
52219W        W24644   8.249  44.398   4.779
52220W        W24645  38.469   9.321   1.815
52221W        W24646  39.334  27.045  12.573
52222W        W24647  37.050  25.670  14.928
52223W        W24648  39.448  20.225   1.744
52224W        W24649  28.628  27.001   2.833
52225W        W24650  15.213  23.655   2.891
52226W        W24651   3.378  44.476   1.872
52227W        W24652  30.941  11.323   0.250
52228W        W24653   3.237   3.786   0.472
52229W        W24654  23.610  15.199   4.222
52230W        W24655  38.409  14.293   0.802
52231W        W24656  31.083  42.434  14.409
52232W        W24657  33.884   1.322   0.799
52233W        W24658  25.210  33.902   4.694
52234W        W24659  26.571  33.076   3.843
52235W        W24660  13.819  44.483   3.228
52236W        W24661   2.355  26.520  12.354
52237W        W24662  10.293  35.422  13.322
52238W        W24663  11.208  13.773  12.887
52239W        W24664  37.038  27.500  11.455
52240W        W24665  37.062  25.535   2.190
52241W        W24666   7.372  35.886   2.882
52242W        W24667  23.575  42.921   0.328
52243W        W24668  33.051  30.463   4.228
52244W        W24669  38.362  18.549   0.944
52245W        W24670  27.663  12.160   0.765
52246W        W24671  21.743   5.730   2.793
52247W        W24672  17.155  43.421  13.904
52248W        W24673   7.883  31.457  11.089
52249W        W24674   9.310  11.826  10.596
52250W        W24675  21.227  38.991   4.700
52251W        W24676  36.974  30.657  13.356
52252W        W24677  21.158  18.063  12.094
52253W        W24678   6.408  16.760   2.789
52254W        W24679  37.013  26.653  10.970
52255W        W24680   2.403  41.524  13.060
52256W        W24681  30.630  33.546   3.837
52257W        W24682  36.935  34.085  10.996
52258W        W24683  15.771  43.830   1.432
52259W        W24684  22.701  31.644  12.426
52260W        W24685   1.331  22.560  13.815
52261W        W24686  28.554   8.286  12.061
52262W        W24687  14.617  22.190  13.346
52263W        W24688  14.724  39.397  14.375
52264W        W24689   2.385   3.359   0.326
52265W        W24690   3.753   6.260  14.456
52266W        W24691  17.266  23.551   4.131
52267W        W24692  16.574  20.197  12.958
52268W        W24693  38.335  15.327   4.818
52269W        W24694  31.086  28.962  14.995
52270W        W24695  40.902  14.607   0.867
52271W        W24696  28.961  37.846   3.727
52272W        W24697  32.947   1.810  11.467
52273W        W24698  25.642  28.586  12.840
52274W        W24699  35.961  18.602   1.857
52275W        W24700  23.638  38.366  14.877
52276W        W24701  11.827   1.346  12.919
52277W        W24702   5.918  14.708  10.475
52278W        W24703  44.421  32.051   1.818
52279W        W24704  44.896  31.592   2.404
52280W        W24705  43.382  39.022   2.370
52281W        W24706   4.860  44.911   0.302
52282W        W24707  15.767  35.956  11.019
52283W        W24708  43.326  44.777  14.795
52284W        W24709  22.199  44.376   0.876
52285W        W24710  35.488  14.165   1.829
52286W        W24711  24.179  35.579   3.285
52287W        W24712  24.093  11.661  11.103
52288W        W24713  41.806   0.760  13.874
52289W        W24714  40.902  30.542   0.961
52290W        W24715  26.692  33.436   3.850
52291W        W24716  15.753  15.740  12.557
52292W        W24717  42.301   3.836   4.613
52293W        W24718   3.858  11.307   1.346
52294W        W24719  41.869  15.808  10.505
52295W        W24720  35.570  31.992   4.699
52296W        W24721  43.449  15.133  14.794
52297W        W24722  25.038  16.314   3.870
52298W        W24723  44.879   5.232  12.370
52299W        W24724   9.177  28.569   0.268
52300W        W24725  27.642  25.549  11.589
52301W        W24726   0.398  18.644  10.583
52302W        W24727   3.801  33.917  10.510
52303W        W24728  38.049  17.144   1.230
52304W        W24729  26.541  19.268   3.814
52305W        W24730  38.958  25.134  10.544
52306W        W24731  14.652   8.388  12.435
52307W        W24732  16.289  12.253   0.881
52308W        W24733  41.444  21.734   4.292
52309W        W24734  19.191   1.819  14.822
52310W        W24735   3.722  10.346   3.256
52311W        W24736  39.039  24.482  10.478
52312W        W24737  31.581  44.468  14.793
52313W        W24738  38.515  43.349  10.593
52314W        W24739  35.511  27.088   2.275
52315W        W24740  43.904  18.775   4.227
52316W        W24741   1.295  32.892  14.446
52317W        W24742  28.121  36.395   3.649
52318W        W24743  25.078  32.505  12.500
52319W        W24744  42.775  19.261   4.645
52320W        W24745  23.672  25.200  12.841
52321W        W24746   9.162  11.165   0.397
52322W        W24747  43.952  29.470   2.696
52323W        W24748  28.465   8.808  13.541
52324W        W24749  37.976  41.389   2.731
52325W        W24750  39.891  11.769   3.377
52326W        W24751  37.580  18.597  11.108
52327W        W24752   5.263  23.152  13.926
52328W        W24753  19.268  29.970   2.752
52329W        W24754  36.072   2.296  10.902
52330W        W24755  32.935   8.388   2.801
52331W        W24756   9.154  26.163   0.824
52332W        W24757  33.532  24.508   4.185
52333W        W24758  11.817  28.444   3.805
52334W        W24759  20.121  14.748  12.981
52335W        W24760  34.405  43.291   3.298
52336W        W24761  22.538  43.912  11.030
52337W        W24762  23.639  17.270   2.312
52338W        W24763  34.607  31.445   3.386
52339W        W24764  29.465  34.614  14.864
52340W        W24765  44.289   0.306  14.846
52341W        W24766  38.414  20.622  12.417
52342W        W24767  19.730   4.450   0.865
52343W        W24768   7.358  25.525  12.844
52344W        W24769   4.443  16.778   1.265
52345W        W24770  39.331  11.155   2.357
52346W        W24771  34.088  42.386   1.769
52347W        W24772  32.520  18.129  14.946
52348W        W24773  36.564  12.276  11.945
52349W        W24774  13.741  36.386  10.997
52350W        W24775  12.146  38.020  10.513
52351W        W24776  10.686  34.503  13.025
52352W        W24777  20.639  28.633  13.848
52353W        W24778  31.975   1.879  14.824
52354W        W24779  29.465  31.149  14.873
52355W        W24780   3.922  14.651   0.429
52356W        W24781   7.823  31.096  11.980
52357W        W24782  38.409  24.555   0.343
52358W        W24783  11.839  17.665   3.742
52359W        W24784  22.502  35.036  10.528
52360W        W24785   0.954  41.439   0.479
52361W        W24786  32.961  35.586   3.665
52362W        W24787  31.995  33.965  14.287
52363W        W24788  38.061   4.882   4.810
52364W        W24789  23.147  22.646   3.159
52365W        W24790  25.473  13.310   3.226
52366W        W24791  12.357  40.974   1.369
52367W        W24792   8.722  30.489   2.189
52368W        W24793  13.336  35.587  12.040
52369W        W24794   6.424   8.297   0.740
52370W        W24795   7.882   9.299   3.839
52371W        W24796   8.377   6.806   9.923
52372W        W24797  28.583  21.200  11.068
52373W        W24798  36.509  10.731  14.880
52374W        W24799  28.475  15.295  13.542
52375W        W24800  41.922  25.492  14.997
52376W        W24801  31.640  19.073  10.642
52377W        W24802  14.698  39.828  14.330
52378W        W24803  29.998  29.608   0.430
52379W        W24804  26.146  27.599   4.714
52380W        W24805  35.579  35.384  14.020
52381W        W24806  32.443  39.926   1.227
52382W        W24807  21.182  40.351  10.956
52383W        W24808  41.419  43.826   5.232
52384W        W24809  16.076  28.155  13.489
52385W        W24810  33.966  44.995  11.100
52386W        W24811   0.258  32.486   0.401
52387W        W24812  10.209  16.168  14.288
52388W        W24813  28.178  29.174   2.401
52389W        W24814  28.597  23.574   0.315
52390W        W24815  37.076  37.437  14.368
52391W        W24816  42.467  25.021   3.845
52392W        W24817  33.459  19.740  10.569
52393W        W24818  23.100  42.514  10.508
52394W        W24819  24.543   0.409   1.782
52395W        W24820  42.838  37.998  13.335
52396W        W24821   6.195  31.974   4.124
52397W        W24822  42.029   0.983   4.255
52398W        W24823  28.101  42.356  13.856
52399W        W24824  13.259   2.328  10.426
52400W        W24825   6.754  35.398  13.954
52401W        W24826  34.047  12.783   0.480
52402W        W24827  31.983   5.890  10.135
52403W        W24828  25.528  15.784   1.745
52404W        W24829  16.209  10.753  14.822
52405W        W24830  36.916  11.790  12.906
52406W        W24831   2.799  41.432   1.864
52407W        W24832  40.349  12.809  13.482
52408W        W24833  13.767  38.987   3.630
52409W        W24834  22.179  32.633   3.227
52410W        W24835  14.300  33.599  11.967
52411W        W24836  37.538  23.581  12.399
52412W        W24837  25.965   4.913   2.309
52413W        W24838  22.236   7.228  13.359
52414W        W24839   0.893  43.301   1.772
52415W        W24840   2.762  31.594   3.279
52416W        W24841  22.602  15.664   3.253
52417W        W24842  44.836  16.129  11.406
52418W        W24843  22.064  14.734  13.321
52419W        W24844   3.877  12.816  10.104
52420W        W24845  36.560   0.868   4.286
52421W        W24846  33.561  11.257   2.700
52422W        W24847  35.955  14.628   3.277
52423W        W24848  15.822  42.008   3.800
52424W        W24849   6.401  13.666   4.824
52425W        W24850   7.732  31.619  12.513
52426W        W24851  24.161  21.631   3.308
52427W        W24852   3.909   2.264   1.836
52428W        W24853  24.500  24.023   1.838
52429W        W24854  27.638   1.838   4.751
52430W        W24855  27.651  30.640  14.834
52431W        W24856  24.000  24.047  12.397
52432W        W24857  10.343  12.199   1.437
52433W        W24858  15.147  16.628   2.716
52434W        W24859  39.444  42.033  14.829
52435W        W24860  31.118  11.127   4.269
52436W        W24861  30.611  38.902   4.804
52437W        W24862  37.509  28.005  13.308
52438W        W24863  31.423  37.470  12.352
52439W        W24864  41.964  12.274  13.356
52440W        W24865   1.938  12.805   4.646
52441W        W24866   6.311  24.697  14.459
52442W        W24867  31.464  13.251   4.819
52443W        W24868  14.602   4.328  14.021
52444W        W24869  27.586  14.677   4.226
52445W        W24870  27.094  25.115   1.317
52446W        W24871  34.967  38.841   3.209
52447W        W24872  37.511  34.401  13.322
52448W        W24873   0.437   0.937  10.429
52449W        W24874   0.388  21.699  12.021
52450W        W24875  41.805  23.688  11.031
52451W        W24876  41.994  40.313  11.116
52452W        W24877   8.273  40.364  10.997
52453W        W24878  28.582  16.204  10.908
52454W        W24879  19.545   4.269   0.471
52455W        W24880  31.972   3.376   3.241
52456W        W24881  25.473  17.263   0.443
52457W        W24882  34.425   8.198   0.868
52458W        W24883  36.974  39.880  12.870
52459W        W24884  40.450   5.690  12.488
52460W        W24885  31.625  37.434   0.852
52461W        W24886  19.182  15.679   0.864
52462W        W24887  31.044  35.980   3.726
52463W        W24888  35.452  17.672   2.194
52464W        W24889  30.550  29.646  14.383
52465W        W24890  20.112  21.569  11.394
52466W        W24891  19.535  18.277   2.284
52467W        W24892  12.746  41.459   3.827
52468W        W24893   2.961  14.252   1.384
52469W        W24894  34.028  42.951  12.066
52470W        W24895  16.103  35.395   0.368
52471W        W24896  29.426  40.488   4.772
52472W        W24897  23.221  41.505   1.925
52473W        W24898  11.727  14.254  11.933
52474W        W24899  18.143  42.829   0.255
52475W        W24900  44.797  14.744  13.884
52476W        W24901  41.873  33.066   1.300
52477W        W24902   1.791  40.900  14.832
52478W        W24903  36.488  27.169   0.916
52479W        W24904   1.777  11.802   0.954
52480W        W24905   0.822  31.532  14.362
52481W        W24906  15.309  16.729  11.419
52482W        W24907  29.534  31.943  10.977
52483W        W24908   8.293  15.781  14.487
52484W        W24909  26.137  37.521  13.064
52485W        W24910  36.578  37.569   4.116
52486W        W24911  28.124   9.286  14.293
52487W        W24912  16.174  20.245  12.846
52488W        W24913  21.260  35.920   0.947
52489W        W24914   5.418  36.926  14.980
52490W        W24915  30.034  32.598   1.390
52491W        W24916   5.879  39.011   1.749
52492W        W24917   4.735   8.781  10.459
52493W        W24918  12.719   9.693  14.278
52494W        W24919  31.620  41.315   4.319
52495W        W24920  28.082  31.626  10.572
52496W        W24921   5.259  35.558   1.231
52497W        W24922  34.606  21.667  12.861
52498W        W24923  44.823  43.839   4.629
52499W        W24924  42.919   4.368   1.389
52500W        W24925  43.487  35.598   0.882
52501W        W24926  42.860  20.667  13.465
52502W        W24927  10.198   2.423  10.510
52503W        W24928  19.225  35.097  11.438
52504W        W24929   2.873   1.416   1.907
52505W        W24930  32.052   2.408   3.755
52506W        W24931  39.496   7.899   0.917
52507W        W24932  34.464  42.938  11.980
52508W        W24933  41.302  22.529   3.375
52509W        W24934   9.150   8.346   1.400
52510W        W24935  16.626   6.269   0.852
52511W        W24936   1.325  15.234  10.900
52512W        W24937   4.782  13.107   2.265
52513W        W24938  10.341  40.545   4.317
52514W        W24939  25.482  25.584   4.347
52515W        W24940  36.842  13.751  12.368
52516W        W24941   2.241   7.742   1.762
52517W        W24942  44.437  43.311   1.889
52518W        W24943  37.552  41.473   3.758
52519W        W24944  14.209   0.300   2.308
52520W        W24945  31.567  20.639  14.965
52521W        W24946  13.742   4.805  12.868
52522W        W24947  37.073  23.567   1.813
52523W        W24948  18.667  36.844  14.776
52524W        W24949   9.832  29.475  13.446
52525W        W24950   8.271   3.428   2.689
52526W        W24951   3.723  13.308   4.141
52527W        W24952   1.784   1.399   3.162
52528W        W24953  17.158  39.479   1.283
52529W        W24954  12.159  36.076  14.997
52530W        W24955   3.292  20.245  13.526
52531W        W24956   0.940  32.030  10.080
52532W        W24957   8.858  39.555  12.861
52533W        W24958  19.230  16.319   2.227
52534W        W24959  44.832  34.876  11.001
52535W        W24960   8.261  23.649  14.341
52536W        W24961  37.512  31.479  11.581
52537W        W24962  31.431   0.423   4.142
52538W        W24963  31.027  33.074   4.217
52539W        W24964   8.361  15.803   0.912
52540W        W24965  28.114  10.786   0.750
52541W        W24966   3.940  19.765  13.394
52542W        W24967   5.348  17.068   4.814
52543W        W24968  18.676   1.437   5.081
52544W        W24969   3.866   1.791  12.083
52545W        W24970   2.464  32.970  14.484
52546W        W24971  26.612  19.136  12.369
52547W        W24972  31.917  13.231   2.722
52548W        W24973  37.897  16.642  12.551
52549W        W24974  14.618  32.051  12.042
52550W        W24975  39.429  16.617   0.400
52551W        W24976   7.901  26.986  13.917
52552W        W24977  27.991  18.133   3.788
52553W        W24978  42.414  21.230   3.167
52554W        W24979   4.423  41.320   4.352
52555W        W24980  28.474  20.640   0.433
52556W        W24981   7.176  13.644   4.133
52557W        W24982  19.219  16.194  12.458
52558W        W24983   3.709  27.563  11.083
52559W        W24984  33.461  10.776   3.303
52560W        W24985  31.477   8.185   2.860
52561W        W24986   6.695  35.889   1.722
52562W        W24987  21.593   0.823   1.833
52563W        W24988  35.400  24.572  13.334
52564W        W24989  20.649  16.297  13.014
52565W        W24990  17.183  37.976   4.708
52566W        W24991  12.348  37.001  13.414
52567W        W24992  26.153  19.591  14.801
52568W        W24993   0.279  35.058  14.840
52569W        W24994   9.850   7.883   0.751
52570W        W24995  16.196   5.881   4.307
52571W        W24996  24.618  10.215   5.800
52572W        W24997  23.164  15.797  13.887
52573W        W24998  28.149   0.428   2.383
52574W        W24999  37.910  37.866  12.059
52575W        W25000  31.528  19.662  12.515
52576W        W25001  40.841  28.502   1.426
52577W        W25002  39.838   9.334  12.970
52578W        W25003   2.799  19.187  13.020
52579W        W25004  39.927  35.420  11.445
52580W        W25005  21.741  29.061  10.516
52581W        W25006  29.999  12.357  12.875
52582W        W25007  25.689  35.444  10.539
52583W        W25008  24.607  41.358   0.866
52584W        W25009  29.613  23.093  13.962
52585W        W25010   7.670  43.014  12.932
52586W        W25011   8.844  38.853  14.511
52587W        W25012   8.686  35.874  12.018
52588W        W25013  32.619  16.260   3.239
52589W        W25014  12.693   9.318   1.727
52590W        W25015  12.259  41.810  13.920
52591W        W25016  39.881   1.796  12.977
52592W        W25017  25.067  31.499   3.681
52593W        W25018  43.979   0.911  10.556
52594W        W25019  18.564  37.860   1.705
52595W        W25020  24.209   8.331  12.825
52596W        W25021  26.640  43.891  13.497
52597W        W25022  28.178   6.829   3.175
52598W        W25023  36.951  38.062   3.849
52599W        W25024  13.162  10.708   4.663
52600W        W25025  26.192  11.700   3.229
52601W        W25026  27.691  11.352   4.732
52602W        W25027  36.855  30.430   4.238
52603W        W25028  11.732   9.714  12.892
52604W        W25029   6.329   2.385  11.964
52605W        W25030  43.993  34.531  14.337
52606W        W25031  21.129  30.624  14.505
52607W        W25032   1.351   4.720  12.431
52608W        W25033   2.732   2.454   1.919
52609W        W25034  39.421  33.941   1.285
52610W        W25035   7.762  11.354  13.032
52611W        W25036   2.384   7.801   3.683
52612W        W25037  33.933   2.331  13.966
52613W        W25038  24.481  34.074  12.919
52614W        W25039  15.694  25.713  11.019
52615W        W25040  11.283  12.156   4.293
52616W        W25041  24.101   3.219   4.257
52617W        W25042   0.971  26.702   1.902
52618W        W25043  27.651  41.009  12.930
52619W        W25044  19.060  23.492  10.998
52620W        W25045  42.501   6.745   3.660
52621W        W25046  30.945   1.778  10.629
52622W        W25047   8.727  41.985  13.916
52623W        W25048  11.349   0.280   2.783
52624W        W25049   7.213  13.260   4.114
52625W        W25050   1.760  30.102   1.820
52626W        W25051   4.311  19.101  13.434
52627W        W25052  30.500   9.772  13.502
52628W        W25053   8.231   4.383   3.154
52629W        W25054   0.355  38.000  13.445
52630W        W25055  11.143  33.413   0.959
52631W        W25056  22.181  34.111   0.389
52632W        W25057   8.690   5.718   4.121
52633W        W25058  27.658  24.662  10.610
52634W        W25059  44.791  30.657  14.311
52635W        W25060   9.849  10.287   3.692
52636W        W25061  23.633  13.350   0.361
52637W        W25062   6.719   8.175  14.020
52638W        W25063  18.090  37.896  10.922
52639W        W25064  32.403  32.001   3.338
52640W        W25065  31.903  11.357  11.497
52641W        W25066  40.866  25.548  13.423
52642W        W25067   3.880  32.556   0.867
52643W        W25068  44.970  39.834   3.847
52644W        W25069  20.235  40.542   2.666
52645W        W25070   2.296  26.589   5.134
52646W        W25071  29.568  27.510  14.323
52647W        W25072   9.170  29.049  12.897
52648W        W25073   4.823  19.142  10.450
52649W        W25074   1.470   2.881  11.530
52650W        W25075   2.229  10.660  12.958
52651W        W25076  34.587  22.086  10.432
52652W        W25077  42.443   9.853  14.447
52653W        W25078   0.770  29.606  13.934
52654W        W25079  26.617   2.840   2.732
52655W        W25080  35.586  22.656   2.314
52656W        W25081   9.789  21.231  13.921
52657W        W25082  17.578  28.138  11.123
52658W        W25083  10.697  17.194   4.788
52659W        W25084  36.098  44.992   1.816
52660W        W25085  27.496  17.662   0.727
52661W        W25086  32.409  22.707  13.998
52662W        W25087  10.255  40.381  14.813
52663W        W25088  22.182  10.384  11.588
52664W        W25089   7.221  27.604   1.779
52665W        W25090   6.360   0.835   1.278
52666W        W25091  17.210  27.034  11.918
52667W        W25092  43.332  40.381   0.850
52668W        W25093  40.389   7.182   5.235
52669W        W25094  19.550  27.129  13.981
52670W        W25095  14.151  14.188  13.517
52671W        W25096   1.785  10.176   1.921
52672W        W25097  37.062  26.120  11.468
52673W        W25098  27.663  12.327  14.468
52674W        W25099  39.533  33.596  10.591
52675W        W25100   3.377  18.268   0.373
52676W        W25101  40.046   4.792   3.261
52677W        W25102   1.369  44.466   3.787
52678W        W25103   4.340  44.969  14.390
52679W        W25104  36.424  15.260   2.276
52680W        W25105  36.957  36.511   0.464
52681W        W25106   5.201   5.865   4.736
52682W        W25107  30.598  20.062  14.383
52683W        W25108  16.315  24.482  14.976
52684W        W25109  44.429  35.582  11.481
52685W        W25110  40.814  12.303  13.060
52686W        W25111  35.879  20.120   4.215
52687W        W25112  35.398  37.450   4.118
52688W        W25113  38.029  32.077  13.489
52689W        W25114  26.989   4.893   0.466
52690W        W25115   7.271  36.575   2.186
52691W        W25116  32.905  13.783   1.801
52692W        W25117  17.646  22.130   4.651
52693W        W25118  40.434   6.198   4.648
52694W        W25119  10.250  25.549  12.962
52695W        W25120   5.899  10.203  10.906
52696W        W25121  11.733  44.474   3.708
52697W        W25122  11.270  41.972   3.185
52698W        W25123  11.326  23.154   4.675
52699W        W25124  41.407  35.044  11.911
52700W        W25125  13.823  35.544   3.170
52701W        W25126   6.264  35.508   3.814
52702W        W25127  44.383  16.273  12.531
52703W        W25128  40.317  13.839   4.736
52704W        W25129   5.411  19.209  12.361
52705W        W25130  35.583   3.293  12.898
52706W        W25131  10.266  35.048  12.553
52707W        W25132  42.922  13.153   4.679
52708W        W25133  14.169  19.220  12.531
52709W        W25134  28.606  14.596  11.418
52710W        W25135   9.181   3.765  10.926
52711W        W25136  19.206   2.859   1.713
52712W        W25137  29.576  31.453  14.337
52713W        W25138  20.714  18.728  11.099
52714W        W25139  30.570   4.917  11.032
52715W        W25140  24.590  27.593   0.336
52716W        W25141   6.225  16.765   0.317
52717W        W25142   3.875  43.301   3.274
52718W        W25143   2.960  19.174   1.268
52719W        W25144  42.833  43.309  13.997
52720W        W25145  27.538  23.715   2.203
52721W        W25146  33.435   9.174   4.634
52722W        W25147   3.254   1.929  14.939
52723W        W25148   1.322   3.889  14.920
52724W        W25149   7.781   2.259  10.557
52725W        W25150  30.119  14.189   3.707
52726W        W25151   4.945  14.100  14.343
52727W        W25152  20.192  43.482  13.970
52728W        W25153  29.131  43.384   0.362
52729W        W25154  21.052  37.459   5.153
52730W        W25155  23.606  16.596   4.783
52731W        W25156  35.529  35.904   0.898
52732W        W25157  29.661  24.568   2.785
52733W        W25158   9.735  28.020  11.991
52734W        W25159  22.097   0.887   3.836
52735W        W25160  34.879   2.933  11.495
52736W        W25161  44.282   9.796  10.136
52737W        W25162   3.417  35.889   3.379
52738W        W25163  26.189  41.817   0.864
52739W        W25164   4.794   0.747  11.423
52740W        W25165  12.157  25.026  14.929
52741W        W25166  25.688  26.051  13.417
52742W        W25167   7.238  12.303   4.682
52743W        W25168  15.703   7.364   9.951
52744W        W25169  40.879   4.708   2.315
52745W        W25170   5.268  31.097  13.060
52746W        W25171   5.828  28.652   0.745
52747W        W25172  27.039  35.061  12.909
52748W        W25173   0.300  25.597   3.245
52749W        W25174  37.356  27.451   4.733
52750W        W25175  15.656  36.903  12.383
52751W        W25176   3.716  33.418  13.048
52752W        W25177   9.256  24.615   4.692
52753W        W25178  40.990  19.775   4.753
52754W        W25179  12.255  19.562   3.249
52755W        W25180  14.282  23.540  11.565
52756W        W25181  13.233  23.495   3.319
52757W        W25182  16.772  24.033   0.847
52758W        W25183   3.924  22.092   4.824
52759W        W25184   9.255  17.141  11.375
52760W        W25185   2.346  25.651  12.908
52761W        W25186  20.657  14.826   2.684
52762W        W25187  22.128  17.223   3.773
52763W        W25188  35.106  41.333   1.778
52764W        W25189  40.923  16.271   2.693
52765W        W25190  34.092  19.206  10.958
52766W        W25191  27.516  43.915  13.057
52767W        W25192  29.055   3.786  12.905
52768W        W25193   2.721  10.652   2.389
52769W        W25194  21.187  24.063   2.189
52770W        W25195  31.108  32.534  14.885
52771W        W25196  20.584   9.655  12.476
52772W        W25197   5.231  11.363  12.913
52773W        W25198   9.757  34.480   0.952
52774W        W25199  42.795  23.644  12.071
52775W        W25200  28.086   5.326  12.881
52776W        W25201  34.435  15.264  14.977
52777W        W25202  13.291   7.330   1.342
52778W        W25203  34.009  27.997   2.705
52779W        W25204  44.949  13.680   3.185
52780W        W25205  24.719  22.201  11.855
52781W        W25206   6.690   4.800   2.691
52782W        W25207  11.312   0.750  11.988
52783W        W25208   5.289  19.742   1.916
52784W        W25209  29.929  31.575  13.038
52785W        W25210  41.404  14.666  12.019
52786W        W25211  31.642   3.226   1.328
52787W        W25212  27.565  18.558   3.148
52788W        W25213  25.507   6.897  12.937
52789W        W25214  42.970   4.248   4.289
52790W        W25215  22.593  10.195  11.079
52791W        W25216  38.462  22.186  11.001
52792W        W25217  35.589  26.183   1.808
52793W        W25218  17.578  23.622   3.832
52794W        W25219  27.064  23.691  12.924
52795W        W25220   1.945  40.333  13.893
52796W        W25221  38.910  11.834   4.320
52797W        W25222  30.037  33.500   1.915
52798W        W25223  41.847  26.576   2.237
52799W        W25224  34.016  43.369   2.396
52800W        W25225  22.727  17.253   5.092
52801W        W25226  15.584  35.032  14.922
52802W        W25227  25.086   0.908   3.793
52803W        W25228  16.737  41.445  12.958
52804W        W25229   9.240  30.656  11.514
52805W        W25230  16.268  33.622   4.789
52806W        W25231  20.712  15.682  14.793
52807W        W25232  10.360  38.876  11.029
52808W        W25233  42.018  10.703   4.254
52809W        W25234   1.284  41.513  14.462
52810W        W25235  38.516   8.167   3.733
52811W        W25236  13.128  42.384   3.317
52812W        W25237   2.923  15.169   2.223
52813W        W25238  27.094  29.531  12.961
52814W        W25239  41.404  19.718  13.042
52815W        W25240  26.000  15.594  13.514
52816W        W25241  29.591  43.365   1.798
52817W        W25242  37.380  35.530  13.925
52818W        W25243  11.345  25.532   4.820
52819W        W25244   2.312  33.083  11.070
52820W        W25245  19.233   1.809   9.612
52821W        W25246  28.174  19.267  10.612
52822W        W25247   9.708  13.818   2.264
52823W        W25248   7.816  20.620   1.300
52824W        W25249  41.973  21.569   3.150
52825W        W25250  15.727  19.170   0.803
52826W        W25251  43.985  43.821  11.512
52827W        W25252  12.766  36.865   3.858
52828W        W25253  25.689  20.238   3.334
52829W        W25254  14.643  40.952  14.408
52830W        W25255  43.291  16.221   4.137
52831W        W25256  38.561  18.254  12.485
52832W        W25257  24.501   6.692   2.894
52833W        W25258  44.845  12.716   2.680
52834W        W25259   5.352  28.671  11.518
52835W        W25260  42.993   2.759  10.511
52836W        W25261  22.591  16.797   3.311
52837W        W25262  35.446  12.752  11.057
52838W        W25263  29.427  12.294  11.056
52839W        W25264  37.403  19.137   0.763
52840W        W25265  36.956  12.248   4.795
52841W        W25266  38.461   3.434  10.460
52842W        W25267  12.741  37.054   4.736
52843W        W25268  15.664  24.097   2.390
52844W        W25269  11.304  11.714  13.932
52845W        W25270  30.614  44.939  10.579
52846W        W25271  13.641  13.125   3.250
52847W        W25272  12.316  13.702   3.849
52848W        W25273   4.275  30.110   4.181
52849W        W25274  12.680  30.479   2.404
52850W        W25275  31.520  23.206  13.363
52851W        W25276  13.798  37.450  12.568
52852W        W25277  36.869  31.900   0.381
52853W        W25278  41.521  23.054  11.901
52854W        W25279   8.823   2.807  11.379
52855W        W25280  22.738  26.525  10.128
52856W        W25281  28.944  40.929  12.836
52857W        W25282  38.478  41.862  10.970
52858W        W25283   7.286  21.672  12.934
52859W        W25284  15.176   0.356   5.791
52860W        W25285  17.251  44.889  13.377
52861W        W25286  32.454   7.858   2.315
52862W        W25287  28.955  26.502   0.250
52863W        W25288  21.595  27.629  12.947
52864W        W25289   4.243  13.730   3.381
52865W        W25290  27.487  30.616   4.243
52866W        W25291   2.467  29.441   0.905
52867W        W25292  14.156  33.591   2.781
52868W        W25293  31.071  33.130   3.222
52869W        W25294   9.704  38.943   1.364
52870W        W25295  39.976  22.746  11.025
52871W        W25296  20.233  35.070   2.711
52872W        W25297   8.251  29.658   0.478
52873W        W25298  35.044   1.752   4.666
52874W        W25299  33.418   0.267   4.833
52875W        W25300  22.641  27.165  13.408
52876W        W25301  19.112  43.386   1.276
52877W        W25302  33.130  42.865  11.093
52878W        W25303  14.199  43.823   1.265
52879W        W25304  44.825   0.989  11.513
52880W        W25305  34.024  24.082  11.376
52881W        W25306  37.984  19.719   0.867
52882W        W25307  15.772  44.476  12.865
52883W        W25308  25.483   5.423  13.396
52884W        W25309  36.441  16.658   0.400
52885W        W25310  12.274  29.522   4.161
52886W        W25311  41.010  42.300   4.740
52887W        W25312  25.131  33.890  12.467
52888W        W25313  38.028  13.259  12.865
52889W        W25314  21.218   5.768   3.821
52890W        W25315  42.405  44.415  10.462
52891W        W25316   5.900  19.709   0.834
52892W        W25317  41.515  23.012  14.935
52893W        W25318  17.170  34.056  12.502
52894W        W25319   9.678   1.773   4.321
52895W        W25320   2.239  37.908   2.700
52896W        W25321  33.884   6.367   4.170
52897W        W25322  34.590   0.393   3.652
52898W        W25323  26.998  22.201  10.932
52899W        W25324  26.204  41.462  11.562
52900W        W25325   2.958  16.300  11.077
52901W        W25326  14.739  38.403  10.609
52902W        W25327  25.654  36.012  13.374
52903W        W25328  41.493  17.276   4.710
52904W        W25329  34.438  26.143  11.955
52905W        W25330  40.492  24.717  10.485
52906W        W25331  27.133  21.529  10.971
52907W        W25332  25.037   3.756  12.542
52908W        W25333   7.354  32.912   2.219
52909W        W25334   0.953  17.642   2.342
52910W        W25335  18.770  22.237  11.963
52911W        W25336  20.540  22.732  14.895
52912W        W25337  32.426   2.871  12.450
52913W        W25338  15.118   3.801  13.508
52914W        W25339  36.363  28.556  11.080
52915W        W25340   3.328  29.451  11.954
52916W        W25341  28.158  20.545   4.647
52917W        W25342  31.924  32.958  14.877
52918W        W25343  24.693  37.971   0.372
52919W        W25344   2.392  27.060   2.299
52920W        W25345  36.456  40.418   2.690
52921W        W25346  33.881  14.713  11.551
52922W        W25347   1.296  23.016  14.864
52923W        W25348  41.030   2.726  13.540
52924W        W25349  30.965  29.534  11.986
52925W        W25350  25.141  15.141   4.752
52926W        W25351   4.734  44.429  12.894
52927W        W25352  22.210  17.195   2.348
52928W        W25353  15.613  40.533   3.637
52929W        W25354   2.799  12.784   2.767
52930W        W25355  30.956  24.994   2.390
52931W        W25356   7.296  24.076   3.168
52932W        W25357  13.725  14.340   2.746
52933W        W25358  14.144  11.169   4.240
52934W        W25359  36.524  31.462   4.299
52935W        W25360  36.993  34.461  13.494
52936W        W25361  44.885   8.390   1.427
52937W        W25362  11.687  37.572   3.763
52938W        W25363  31.094  20.558  10.570
52939W        W25364  21.732  41.030   2.238
52940W        W25365   0.321  17.711   1.756
52941W        W25366   0.981  23.684  14.789
52942W        W25367   8.847  31.614  10.435
52943W        W25368  36.033   8.787  10.991
52944W        W25369   1.840  26.973   0.320
52945W        W25370  18.283  44.927   1.873
52946W        W25371  24.703  40.931  12.364
52947W        W25372   7.668  33.578   4.335
52948W        W25373  39.964  36.559  13.843
52949W        W25374  14.626  43.843   3.856
52950W        W25375   1.419  42.402   1.212
52951W        W25376   8.210  18.254   2.328
52952W        W25377  39.049  27.969   5.304
52953W        W25378  35.602   6.899  13.362
52954W        W25379   4.832  43.776  10.986
52955W        W25380   8.395  42.377  12.423
52956W        W25381  21.597   9.184   2.778
52957W        W25382  17.217  34.369   3.255
52958W        W25383  42.370  38.414  14.786
52959W        W25384   5.879   7.323  14.894
52960W        W25385  13.620  37.382   4.647
52961W        W25386  13.128  39.328   4.217
52962W        W25387   5.401  22.009  11.392
52963W        W25388  14.771  14.601   4.280
52964W        W25389  17.632  18.095  12.927
52965W        W25390  28.056  43.971  11.418
52966W        W25391  13.681   3.938   2.786
52967W        W25392  26.198  29.996  12.849
52968W        W25393  16.150  15.111  14.435
52969W        W25394   9.308  17.066   3.748
52970W        W25395  14.596   7.891  14.960
52971W        W25396  29.116  37.409  14.463
52972W        W25397  25.607  10.280  13.933
52973W        W25398  16.077  19.218  14.345
52974W        W25399  30.136  16.228  12.068
52975W        W25400  37.973  39.345  13.500
52976W        W25401  10.209  17.580  10.502
52977W        W25402   2.849  44.380   3.178
52978W        W25403  20.174  22.742  12.436
52979W        W25404  31.091  43.439  12.961
52980W        W25405  18.699   3.753   4.352
52981W        W25406   5.767   5.814  10.450
52982W        W25407  24.191  34.023   3.648
52983W        W25408  13.106  16.075  13.982
52984W        W25409  20.253   4.920  13.041
52985W        W25410  15.241  31.636  11.593
52986W        W25411  25.629  37.382  10.497
52987W        W25412  25.967  10.168  12.934
52988W        W25413   4.216  30.448   2.206
52989W        W25414   3.445  11.643   2.198
52990W        W25415  14.603  23.628  12.501
52991W        W25416  22.739  42.467   3.823
52992W        W25417  19.538  25.633  14.801
52993W        W25418  29.157  32.403   3.835
52994W        W25419  24.635  13.681  14.801
52995W        W25420  29.038  33.465  13.824
52996W        W25421  28.102  33.385   4.672
52997W        W25422  32.929  38.441   0.280
52998W        W25423  41.460  42.310   1.811
52999W        W25424  44.342   5.762   5.224
53000W        W25425   7.282   1.409   2.268
53001W        W25426  13.697  43.896   0.907
53002W        W25427   5.268   2.829  12.852
53003W        W25428   6.786   7.281  14.404
53004W        W25429   5.928  23.191   3.804
53005W        W25430  21.657   9.331   9.988
53006W        W25431   0.438   2.309  13.479
53007W        W25432  14.614  15.651   0.850
53008W        W25433   6.235  38.512  10.438
53009W        W25434   1.329   0.338   4.132
53010W        W25435  11.240  37.934  12.940
53011W        W25436  29.654   8.654   0.925
53012W        W25437  30.910  35.542  11.111
53013W        W25438   9.210  35.476   2.393
53014W        W25439  26.972  12.808  13.429
53015W        W25440   6.406  39.322   4.233
53016W        W25441  14.764  42.509   3.751
53017W        W25442  44.843   2.372   4.154
53018W        W25443  35.005  22.128  10.945
53019W        W25444   4.856  18.760  13.810
53020W        W25445  30.163  17.767  13.876
53021W        W25446   4.902  15.250   4.708
53022W        W25447   2.382  35.000  14.432
53023W        W25448  22.705  26.115  14.420
53024W        W25449  26.469  34.074   2.406
53025W        W25450  36.400   7.752   0.959
53026W        W25451  24.531  18.573   2.394
53027W        W25452  19.272  19.048  11.885
53028W        W25453  34.087   8.344  12.091
53029W        W25454  29.451  33.895   1.396
53030W        W25455   9.721  12.856  14.899
53031W        W25456  17.703  21.530  13.828
53032W        W25457  33.452  26.061  13.319
53033W        W25458  10.877  24.979  11.375
53034W        W25459  27.508  38.918   3.728
53035W        W25460  18.552  38.430  14.284
53036W        W25461  16.599  25.647  13.375
53037W        W25462  41.443  19.594  12.514
53038W        W25463   7.334   9.221  11.953
53039W        W25464  42.471  29.123  14.328
53040W        W25465   6.853  36.567   2.415
53041W        W25466  16.620   4.854  14.390
53042W        W25467  32.126  37.374  10.463
53043W        W25468  21.625  38.820  11.562
53044W        W25469   0.772  39.509   4.698
53045W        W25470  28.532  28.987   4.756
53046W        W25471  43.766  25.064   4.245
53047W        W25472  29.163  30.015   0.756
53048W        W25473  23.646   1.878  14.487
53049W        W25474   1.827   0.897   0.397
53050W        W25475   5.385  30.130   3.254
53051W        W25476  28.493  12.175   3.634
53052W        W25477   2.848  21.513  12.851
53053W        W25478  29.593  14.140   1.411
53054W        W25479  11.660   5.418   1.772
53055W        W25480  11.321   8.208   5.567
53056W        W25481  22.252  10.733   4.673
53057W        W25482  17.664  40.363  10.991
53058W        W25483   5.343  36.025  11.525
53059W        W25484  38.827  25.962   3.200
53060W        W25485   3.761   3.335   5.289
53061W        W25486  29.455  22.577   3.732
53062W        W25487  16.156   1.887   0.807
53063W        W25488   5.883  31.419  14.409
53064W        W25489  14.122   1.856  14.505
53065W        W25490   1.358   7.882   1.765
53066W        W25491  20.167   1.242   0.470
53067W        W25492  21.192  23.036  10.526
53068W        W25493  44.434  28.943  12.916
53069W        W25494  42.282   2.334   4.269
53070W        W25495  35.913  41.827  14.362
53071W        W25496  27.600  25.577   2.355
53072W        W25497   8.311  15.231   2.293
53073W        W25498   7.338  36.592   0.759
53074W        W25499  36.053   7.369   1.267
53075W        W25500  29.545  44.425   1.211
53076W        W25501   3.394  25.065   3.310
53077W        W25502   2.304  15.695   1.307
53078W        W25503  14.125   0.268   0.316
53079W        W25504  11.130   0.796  11.569
53080W        W25505  42.817  11.317  13.516
53081W        W25506  33.060  18.619   3.714
53082W        W25507   6.836  14.109   2.745
53083W        W25508  25.148  40.005   0.757
53084W        W25509  38.500  31.515  12.865
53085W        W25510  15.671  43.334   2.201
53086W        W25511  41.328  31.490   0.727
53087W        W25512  26.202  24.107   2.845
53088W        W25513  31.477  27.943  12.056
53089W        W25514  18.740  34.548   0.287
53090W        W25515   2.829  37.498   0.290
53091W        W25516   4.329   7.812   4.799
53092W        W25517  32.948   3.880  14.449
53093W        W25518  29.643  26.621  13.470
53094W        W25519  13.203  22.590   1.413
53095W        W25520  33.415  44.788   1.762
53096W        W25521  19.750  17.162  14.012
53097W        W25522  37.885  12.135   3.328
53098W        W25523  36.567  38.445  13.916
53099W        W25524  39.550  30.131  14.348
53100W        W25525  43.467  38.950  13.524
53101W        W25526  22.624  11.129   0.332
53102W        W25527  18.756   9.777   0.749
53103W        W25528   2.283  38.408  12.540
53104W        W25529  30.113  25.592  11.956
53105W        W25530  27.111  18.740   1.729
53106W        W25531  25.969  43.012  11.567
53107W        W25532  15.815   2.774   2.266
53108W        W25533  37.356  38.872  13.918
53109W        W25534  32.476  12.834  14.917
53110W        W25535  12.283  17.689   1.431
53111W        W25536   3.287  23.733  13.857
53112W        W25537  35.937  26.012  13.064
53113W        W25538  36.893   0.879   0.838
53114W        W25539  16.570  38.561  11.976
53115W        W25540  19.713  37.497   3.376
53116W        W25541   0.758  40.398  13.532
53117W        W25542  31.645  13.775  14.377
53118W        W25543  38.957  38.939  10.446
53119W        W25544  38.462  27.525  11.012
53120W        W25545  22.024  42.369  10.900
53121W        W25546   2.726  22.135  10.460
53122W        W25547  24.042  39.535   4.686
53123W        W25548  36.374  29.624   4.647
53124W        W25549  23.648  42.812  13.410
53125W        W25550  22.206   0.983  13.808
53126W        W25551   4.323  21.711   1.707
53127W        W25552  39.532  31.117  13.913
53128W        W25553  36.509  38.540  11.861
53129W        W25554  34.560  34.496   4.627
53130W        W25555  20.157  22.572  14.028
53131W        W25556   2.318  25.610  10.915
53132W        W25557  18.682  40.459   4.829
53133W        W25558  24.177  25.008  14.787
53134W        W25559  19.124  32.008   5.693
53135W        W25560   0.255  44.387   0.726
53136W        W25561  23.205  26.674   0.360
53137W        W25562   5.387   7.806   4.186
53138W        W25563  44.834  33.005  12.827
53139W        W25564  40.329  41.841  10.919
53140W        W25565  34.002   8.397  10.420
53141W        W25566  22.071  30.638  12.041
53142W        W25567   2.338   5.403  11.127
53143W        W25568  26.470  39.495  12.578
53144W        W25569   0.900   8.391   4.659
53145W        W25570  31.898  20.157   5.186
53146W        W25571  19.589   9.707  13.986
53147W        W25572  10.320  20.722  12.404
53148W        W25573  29.078  17.191  14.864
53149W        W25574   9.267  12.293   1.433
53150W        W25575  38.518  16.728   0.740
53151W        W25576  40.337  29.584   2.717
53152W        W25577  37.443   9.231   3.867
53153W        W25578  28.187  29.069   0.250
53154W        W25579  11.828   0.869   5.166
53155W        W25580  15.669  31.901  14.887
53156W        W25581  22.554   4.921   5.082
53157W        W25582  20.756  38.947   3.374
53158W        W25583   5.411  19.661  14.392
53159W        W25584  23.551  28.459  13.901
53160W        W25585  35.435  20.649  13.507
53161W        W25586  27.489  15.317   3.386
53162W        W25587  33.017  39.446   3.224
53163W        W25588   7.379  21.667   3.712
53164W        W25589  41.436  12.655   0.730
53165W        W25590  33.913  13.685   0.452
53166W        W25591  35.045   5.753  14.286
53167W        W25592  28.637  24.144   1.720
53168W        W25593  36.949  43.490   1.735
53169W        W25594  32.045  44.882   4.114
53170W        W25595  19.739   7.878   1.327
53171W        W25596  23.084   5.881   4.726
53172W        W25597   7.677  38.967  11.568
53173W        W25598   2.743   9.824  13.829
53174W        W25599   9.835  17.278   4.199
53175W        W25600  20.076  10.331   4.257
53176W        W25601  13.756  21.607  11.883
53177W        W25602   4.270  28.590   1.357
53178W        W25603  13.802  40.404   4.710
53179W        W25604  40.449  19.643  12.412
53180W        W25605   1.267  17.578  12.921
53181W        W25606  15.273  10.840  14.775
53182W        W25607  35.483  11.365  13.389
53183W        W25608  39.836   7.359   4.677
53184W        W25609  26.039  22.036   1.868
53185W        W25610  41.968  28.001   4.304
53186W        W25611  44.908  28.996  13.496
53187W        W25612  44.286  27.189   3.335
53188W        W25613  41.527  39.326  10.559
53189W        W25614  27.967   9.730   4.164
53190W        W25615  41.821  17.068   0.826
53191W        W25616  43.434   3.844   0.948
53192W        W25617  35.361  22.716  12.465
53193W        W25618  14.172  13.193  14.293
53194W        W25619   7.730  24.082   2.779
53195W        W25620  22.745  18.659  11.118
53196W        W25621  32.544   8.161   1.880
53197W        W25622   5.887  32.903   3.731
53198W        W25623  13.167   2.384   2.667
53199W        W25624  29.492  27.945   5.161
53200W        W25625  26.672   2.421  12.966
53201W        W25626  27.638   0.770   3.330
53202W        W25627   9.225  27.098   2.893
53203W        W25628  21.106  33.950  11.415
53204W        W25629   2.467  40.459  10.418
53205W        W25630  40.373  26.955  11.386
53206W        W25631  29.062   9.754  12.896
53207W        W25632  10.749   9.267  12.398
53208W        W25633  42.863  24.055   0.417
53209W        W25634  13.797  20.737   1.317
53210W        W25635  35.054   7.767   1.225
53211W        W25636  30.643  38.328   4.280
53212W        W25637  25.618   0.364   1.788
53213W        W25638  40.797  38.956   4.171
53214W        W25639  15.716   4.939   4.147
53215W        W25640  16.231  43.370  12.515
53216W        W25641  13.680  38.428  10.407
53217W        W25642  18.263  37.049  12.088
53218W        W25643  35.901   6.881  10.938
53219W        W25644  23.594   3.454  10.923
53220W        W25645  26.030  40.397  14.980
53221W        W25646  20.755   4.309  12.899
53222W        W25647  15.577  37.009   3.170
53223W        W25648   8.814   5.358   2.187
53224W        W25649  40.852  44.769   2.327
53225W        W25650  38.375  30.090   2.669
53226W        W25651  11.793  14.657   0.260
53227W        W25652  15.648  40.965  13.861
53228W        W25653  37.851  24.127  11.411
53229W        W25654  28.933  42.894   4.177
53230W        W25655  41.435  30.594  10.540
53231W        W25656   1.786  42.295   4.154
53232W        W25657  10.245  41.804   4.200
53233W        W25658   9.243  42.795   3.316
53234W        W25659  31.016  24.229  11.412
53235W        W25660   7.215  29.160   2.377
53236W        W25661  38.864  13.642  13.857
53237W        W25662  44.368  41.363  12.348
53238W        W25663  16.739   3.829   1.436
53239W        W25664  32.442   2.411  14.454
53240W        W25665  42.463   7.345   1.838
53241W        W25666  44.430  40.441  11.093
53242W        W25667  40.804  26.014   3.177
53243W        W25668  28.980  40.437  13.321
53244W        W25669   0.254   0.952   3.766
53245W        W25670  21.727  37.012   3.244
53246W        W25671  28.014  11.692   2.793
53247W        W25672  10.214  36.088   0.967
53248W        W25673   5.887  29.973   0.348
53249W        W25674  34.872  15.173   1.757
53250W        W25675  28.136   8.896   2.285
53251W        W25676  38.518   1.786   4.826
53252W        W25677  22.559   8.831  14.840
53253W        W25678  15.786  20.042  11.392
53254W        W25679  23.167   7.720   3.721
53255W        W25680  36.997   6.209  11.514
53256W        W25681   0.891  44.355   0.265
53257W        W25682   7.195   3.772  14.965
53258W        W25683   6.714  10.671   1.433
53259W        W25684  11.192  13.149  10.631
53260W        W25685  21.549  21.048  13.468
53261W        W25686   7.233  18.573   2.205
53262W        W25687  26.958  36.449  12.015
53263W        W25688  43.359  43.858  12.538
53264W        W25689  25.125   1.840   3.832
53265W        W25690  40.461  34.418   0.893
53266W        W25691  17.235  37.437   9.985
53267W        W25692   1.860  37.951  11.458
53268W        W25693  12.221  34.445  11.547
53269W        W25694  42.380  36.865   4.292
53270W        W25695  24.551   4.765  12.403
53271W        W25696  39.810  18.551   4.184
53272W        W25697  43.844  10.659   1.695
53273W        W25698  34.120   2.438   3.213
53274W        W25699  40.888  16.618  13.513
53275W        W25700   9.167  31.997  10.515
53276W        W25701  44.897  27.155  13.364
53277W        W25702  30.559  23.682   2.256
53278W        W25703   3.284  42.913  13.387
53279W        W25704  41.476  23.613   0.811
53280W        W25705   8.867   8.696  12.868
53281W        W25706  28.055   9.777  10.548
53282W        W25707  12.257  41.523  12.074
53283W        W25708  21.686  27.469  13.410
53284W        W25709  19.266   4.416  10.586
53285W        W25710  32.118  37.061   0.263
53286W        W25711  24.565  27.471   3.383
53287W        W25712  22.666  44.844  14.486
53288W        W25713  41.404   5.916   4.694
53289W        W25714  33.408  27.555   0.905
53290W        W25715  23.580  42.306  12.541
53291W        W25716  26.627   8.324   0.350
53292W        W25717  21.750   0.903   4.329
53293W        W25718  39.927  32.604   2.207
53294W        W25719  39.893  28.058   0.807
53295W        W25720  32.475   2.790  12.961
53296W        W25721  12.269  39.885   1.303
53297W        W25722  27.162  30.533  14.429
53298W        W25723   9.712   0.288  14.300
53299W        W25724  43.439   6.838   1.446
53300W        W25725   6.321  15.164  13.836
53301W        W25726   1.315   0.821  12.448
53302W        W25727  26.998   2.297  11.871
53303W        W25728   4.422  12.240   2.316
53304W        W25729  18.053   4.394  11.915
53305W        W25730  41.307  24.529   0.323
53306W        W25731  26.671  41.997   3.685
53307W        W25732  43.442  40.421   3.238
53308W        W25733   8.695  13.195  14.886
53309W        W25734  28.583  33.601   0.785
53310W        W25735  17.089  19.105   2.343
53311W        W25736  24.584  26.667   3.720
53312W        W25737   4.894  39.915   3.860
53313W        W25738  36.366   0.807   1.806
53314W        W25739  15.095  18.669   3.706
53315W        W25740   5.844   1.318   3.350
53316W        W25741  33.519   9.304   2.706
53317W        W25742   2.925   1.344   0.851
53318W        W25743   6.222  24.713   0.833
53319W        W25744  10.638  42.890  10.898
53320W        W25745   1.439  35.997  13.034
53321W        W25746  28.152  31.020   2.235
53322W        W25747  24.093  27.954  14.457
53323W        W25748  22.172   4.781  13.409
53324W        W25749  15.760  21.167   1.711
53325W        W25750  41.837  22.011  13.897
53326W        W25751  27.132  35.500  11.503
53327W        W25752  21.193  21.094  12.988
53328W        W25753   4.901  40.421   9.961
53329W        W25754  42.480  32.065   3.704
53330W        W25755  37.337  36.858   0.754
53331W        W25756   3.857  18.625  13.026
53332W        W25757   3.955   6.876  14.483
53333W        W25758   4.282  43.449   4.677
53334W        W25759  17.668  30.584  12.919
53335W        W25760   7.204  44.890   0.403
53336W        W25761  34.019  36.061  12.435
53337W        W25762  35.059   3.350  14.800
53338W        W25763  22.110   8.679  10.974
53339W        W25764  42.464  17.177   3.657
53340W        W25765   8.731  24.074   0.919
53341W        W25766  35.510  32.067  12.494
53342W        W25767  10.804  27.635   4.162
53343W        W25768  34.432   0.986   0.439
53344W        W25769  38.058  43.810   9.652
53345W        W25770  40.495  42.297  14.844
53346W        W25771  34.520  16.301  12.378
53347W        W25772  15.768  44.890   0.319
53348W        W25773  26.963  41.414  13.810
53349W        W25774  36.067  18.108  12.351
53350W        W25775  35.388  42.938   1.221
53351W        W25776  11.194   7.763  14.766
53352W        W25777  10.324  35.415   3.764
53353W        W25778  12.173  43.904   1.295
53354W        W25779  37.010  40.382   0.966
53355W        W25780   0.292   9.215  10.493
53356W        W25781   4.311  29.473   3.647
53357W        W25782  37.072  27.629   3.282
53358W        W25783  31.036  12.642  11.967
53359W        W25784  32.526  39.458   3.278
53360W        W25785   1.949  44.899   3.699
53361W        W25786  10.251  44.836  13.445
53362W        W25787  41.347  27.518  13.963
53363W        W25788  21.133  22.045   0.847
53364W        W25789   4.893  32.429  13.463
53365W        W25790  39.895  19.160  13.365
53366W        W25791  14.192  13.204  13.510
53367W        W25792   0.475  24.178  10.415
53368W        W25793  11.148  15.116   1.886
53369W        W25794  37.945  19.762   3.709
53370W        W25795   2.403  19.238   1.283
53371W        W25796  18.237   5.222  13.859
53372W        W25797  17.182  25.162  13.791
53373W        W25798  38.023  28.952   1.337
53374W        W25799  26.461   0.472   3.766
53375W        W25800  36.541   5.340   3.180
53376W        W25801  12.662  20.638   2.274
53377W        W25802  17.792  33.983   1.213
53378W        W25803  38.526  32.516  10.626
53379W        W25804  28.939   8.754  11.011
53380W        W25805   7.279  42.981  11.513
53381W        W25806   5.894  43.440  13.455
53382W        W25807  24.601  30.931   4.689
53383W        W25808  36.926   0.380   4.806
53384W        W25809  42.348  15.225   0.251
53385W        W25810   3.455  15.779  14.883
53386W        W25811  19.697   3.796   1.215
53387W        W25812  39.988  35.468  14.967
53388W        W25813  18.156   2.373  13.798
53389W        W25814  35.901  35.106  12.894
53390W        W25815   9.764  20.598  13.526
53391W        W25816  39.488  33.555  11.933
53392W        W25817  14.129  38.331   4.644
53393W        W25818  34.440  40.948  10.472
53394W        W25819  41.342  29.988   0.961
53395W        W25820  12.634  28.445  12.358
53396W        W25821  43.892  28.049   4.769
53397W        W25822  27.528  27.521  14.014
53398W        W25823  31.592   6.367   4.130
53399W        W25824   0.848  17.275  12.990
53400W        W25825  28.634  41.461   0.315
53401W        W25826  21.678  21.177   1.219
53402W        W25827  44.274  36.883  12.974
53403W        W25828  44.859  26.962  11.063
53404W        W25829   0.851   6.707   3.730
53405W        W25830  27.168   2.277   1.713
53406W        W25831   4.407  13.669   1.246
53407W        W25832  44.766  10.357   4.629
53408W        W25833  23.231  41.831   2.866
53409W        W25834  19.103  10.374   0.865
53410W        W25835  16.146   1.907   3.332
53411W        W25836  10.219   0.934   5.230
53412W        W25837  16.806   8.353  10.892
53413W        W25838   5.897  21.532   4.606
53414W        W25839  19.638  23.711  13.411
53415W        W25840  22.211   7.189   4.781
53416W        W25841  17.783  11.327   2.691
53417W        W25842   8.694   3.292  10.417
53418W        W25843  13.828  28.584  10.526
53419W        W25844  37.052   2.314  13.063
53420W        W25845  27.590  31.476   2.188
53421W        W25846  22.138  32.576  11.546
53422W        W25847  14.267  10.812  13.512
53423W        W25848  37.005   3.920  11.544
53424W        W25849  29.614  35.505  10.967
53425W        W25850  13.330  27.474  13.919
53426W        W25851   8.283  22.540   3.769
53427W        W25852  16.121  23.993  11.575
53428W        W25853  10.735  30.523  14.806
53429W        W25854   6.778  32.917  11.458
53430W        W25855  11.195  23.172  12.426
53431W        W25856  11.347  17.260   1.718
53432W        W25857  23.564  15.302  14.388
53433W        W25858  27.563  21.568   3.273
53434W        W25859  36.013   4.894   3.858
53435W        W25860  43.942  20.637  12.543
53436W        W25861  26.685  39.424   0.882
53437W        W25862  30.425  38.479  10.575
53438W        W25863  42.484  14.733  13.035
53439W        W25864   5.359  23.095   2.357
53440W        W25865  40.334   3.358   2.737
53441W        W25866  12.124  19.104   0.818
53442W        W25867  26.617  42.957   2.832
53443W        W25868   9.773  37.453  12.858
53444W        W25869  32.028  19.094  11.523
53445W        W25870   3.263  44.324   2.791
53446W        W25871  38.953  18.650  12.994
53447W        W25872  36.516   8.241  12.070
53448W        W25873  39.958  38.927   2.330
53449W        W25874  32.484  22.217  12.543
53450W        W25875   5.887   4.845  10.407
53451W        W25876  40.049  42.032  12.499
53452W        W25877  22.140   3.426   2.675
53453W        W25878  33.471  39.907   1.381
53454W        W25879  20.597  36.040   1.769
53455W        W25880  42.397   6.888  10.540
53456W        W25881   6.864   5.690   4.674
53457W        W25882  10.761   9.283   2.802
53458W        W25883  18.614  15.608   0.918
53459W        W25884  35.997  24.214   1.724
53460W        W25885  13.757   2.428  14.029
53461W        W25886  33.882   2.320  12.349
53462W        W25887  10.251   6.799   1.885
53463W        W25888  37.010  14.287  11.086
53464W        W25889  36.015  29.434   1.236
53465W        W25890   6.412  13.614  14.873
53466W        W25891   1.432   7.880   4.249
53467W        W25892  34.119  37.893  11.957
53468W        W25893  31.632   1.883   2.269
53469W        W25894  33.028  27.046   2.313
53470W        W25895  43.454  34.583  13.059
53471W        W25896   7.782  16.789  14.407
53472W        W25897  27.089  23.558  14.381
53473W        W25898  14.826   2.283  11.439
53474W        W25899  19.144  39.344   3.673
53475W        W25900  31.473  17.701  11.052
53476W        W25901  23.568  14.175   1.434
53477W        W25902  30.047  43.820   2.358
53478W        W25903   8.267  15.784  10.897
53479W        W25904  33.472  18.681   1.885
53480W        W25905  40.015  27.640  14.867
53481W        W25906   9.805  27.062   0.925
53482W        W25907   6.365  21.717  11.379
53483W        W25908   5.434  14.319   2.341
53484W        W25909  38.060  12.828  14.507
53485W        W25910  10.776  13.784   0.827
53486W        W25911  13.142  26.576  11.574
53487W        W25912  13.623   6.260   3.633
53488W        W25913  14.254  11.196   1.698
53489W        W25914  32.560  33.954   3.642
53490W        W25915   3.255  18.585  14.316
53491W        W25916  21.033  22.702   0.777
53492W        W25917  28.489  12.770   0.330
53493W        W25918   1.926  24.029   4.145
53494W        W25919  41.389  10.227  14.967
53495W        W25920  25.155  21.675   2.903
53496W        W25921   0.311  17.619   0.410
53497W        W25922  39.932   7.383   1.429
53498W        W25923   3.282  26.032  13.383
53499W        W25924  39.991  33.126   0.402
53500W        W25925  41.024  28.539   2.746
53501W        W25926  16.086  35.415  10.912
53502W        W25927   8.655   4.319   3.696
53503W        W25928  40.448  18.080  12.362
53504W        W25929   2.397   5.272   4.836
53505W        W25930  22.716   0.888  11.089
53506W        W25931  28.594   0.478   4.829
53507W        W25932  19.674  28.076  11.587
53508W        W25933  15.119   6.729   4.331
53509W        W25934   5.430  18.137   1.841
53510W        W25935   5.405  39.350  10.900
53511W        W25936  19.638  41.807  12.073
53512W        W25937  36.069  41.378  13.030
53513W        W25938  20.626  44.959   0.282
53514W        W25939  32.552  43.402  14.484
53515W        W25940  23.197  18.214  13.835
53516W        W25941  22.019  44.841   1.219
53517W        W25942  27.568  33.081  14.454
53518W        W25943  23.985  23.715   4.284
53519W        W25944  29.503  33.966  14.794
53520W        W25945  14.721  27.098   1.255
53521W        W25946  31.631  30.977  12.445
53522W        W25947   3.400  28.953  11.541
53523W        W25948  13.637  21.664   2.408
53524W        W25949  14.626   8.216   2.398
53525W        W25950   4.334  33.064   3.327
53526W        W25951   1.965  22.068  11.008
53527W        W25952   6.898   0.949   1.738
53528W        W25953  20.203  44.410  14.985
53529W        W25954  27.072  28.098   0.309
53530W        W25955   3.929  42.868  14.019
53531W        W25956  29.066  35.992  11.547
53532W        W25957  43.463   0.474  14.370
53533W        W25958  10.693  32.119  11.872
53534W        W25959  19.127  22.592  13.340
53535W        W25960   0.413   9.812   3.215
53536W        W25961  41.845  31.131  10.568
53537W        W25962  42.496   7.350  11.992
53538W        W25963  37.564  24.592  14.427
53539W        W25964  27.148  10.246  13.016
53540W        W25965  20.662   6.719   2.744
53541W        W25966  38.447  18.749  12.550
53542W        W25967   5.916   4.424  13.010
53543W        W25968   3.429   8.367   0.372
53544W        W25969   3.366  19.722   1.880
53545W        W25970  10.183  22.530  11.609
53546W        W25971   4.390  38.902   1.230
53547W        W25972  10.239  30.430   4.802
53548W        W25973  40.821  39.900  11.042
53549W        W25974  37.396  23.116   3.708
53550W        W25975  39.321   5.728  12.075
53551W        W25976   1.916  42.459  14.793
53552W        W25977  21.660   5.360  11.033
53553W        W25978  38.465  41.834   4.634
53554W        W25979  43.783  12.654   2.417
53555W        W25980  35.067  28.636   2.831
53556W        W25981   7.172  21.702  14.008
53557W        W25982  39.541  24.597  12.095
53558W        W25983  15.289  13.160   2.189
53559W        W25984  42.406   9.211   0.254
53560W        W25985  23.717  40.343  12.953
53561W        W25986  27.515  17.202  13.051
53562W        W25987  29.584   1.861  11.903
53563W        W25988   4.801  33.901   2.819
53564W        W25989  21.587  14.667  14.321
53565W        W25990  10.342  22.722  13.020
53566W        W25991  29.061  18.554   0.908
53567W        W25992   1.320  27.050   0.948
53568W        W25993  12.262  22.155  13.977
53569W        W25994  33.086   2.253  11.593
53570W        W25995  41.035  13.171   2.857
53571W        W25996  22.607   0.484  10.577
53572W        W25997  25.043  44.448   4.200
53573W        W25998  29.484  40.002   5.210
53574W        W25999  25.157  20.595   0.297
53575W        W26000  37.865  27.152   1.311
53576W        W26001  27.123  43.917  13.916
53577W        W26002  18.583   2.334  14.844
53578W        W26003  41.854   5.407  11.909
53579W        W26004  14.590  30.534  14.839
53580W        W26005  33.977  41.795   3.848
53581W        W26006  35.576   3.414   0.950
53582W        W26007  25.621  15.808  10.091
53583W        W26008  16.290   2.772  10.941
53584W        W26009  21.708   3.833   1.749
53585W        W26010   8.289  24.673  14.990
53586W        W26011  23.597   4.750   4.253
53587W        W26012  13.703  20.176   4.771
53588W        W26013   5.353  28.562   4.336
53589W        W26014   4.839  22.174   0.468
53590W        W26015  44.492   6.331  11.003
53591W        W26016  21.033  39.918  12.521
53592W        W26017   0.369  39.511  13.456
53593W        W26018  17.088  37.483  14.926
53594W        W26019   9.767  15.685   0.438
53595W        W26020  35.036   3.287  11.915
53596W        W26021  38.852  37.518   1.885
53597W        W26022  16.653  32.533  12.531
53598W        W26023  29.615  35.501  10.489
53599W        W26024   2.269  28.991   4.637
53600W        W26025  12.757   5.874  10.554
53601W        W26026  20.755  16.578  12.063
53602W        W26027  41.379  34.586  12.057
53603W        W26028  18.595   4.875  13.979
53604W        W26029  32.960  28.993  13.445
53605W        W26030  26.986   4.885  10.485
53606W        W26031  38.326  16.306  14.361
53607W        W26032   6.203  23.041   0.888
53608W        W26033  28.949  17.205   3.371
53609W        W26034   9.707   2.325  11.386
53610W        W26035   4.280   6.381  10.429
53611W        W26036  18.560   5.313   3.725
53612W        W26037  25.021  18.749  11.501
53613W        W26038  39.054  44.465   4.725
53614W        W26039  29.962  40.395   3.345
53615W        W26040  14.303  40.005  12.484
53616W        W26041  20.554  27.458   1.448
53617W        W26042  34.373  25.181   3.722
53618W        W26043  44.904  13.341   0.437
53619W        W26044  19.719   5.805   4.831
53620W        W26045  12.346  26.088   2.266
53621W        W26046   9.733  16.659   1.382
53622W        W26047  11.260  36.076  11.418
53623W        W26048  29.666  20.539  11.544
53624W        W26049  37.523  35.007   1.705
53625W        W26050  20.062  14.183   3.646
53626W        W26051   2.822  16.176  11.894
53627W        W26052   0.484   0.901   0.261
53628W        W26053   7.674  27.169   1.795
53629W        W26054  11.363  28.506   4.649
53630W        W26055  32.593  25.174  11.115
53631W        W26056  43.362  13.614  13.493
53632W        W26057  33.929  13.108   3.210
53633W        W26058  44.364  26.694  14.883
53634W        W26059   9.778  13.155   2.837
53635W        W26060   0.355  14.193   0.351
53636W        W26061  30.157   5.329   3.161
53637W        W26062  14.676  21.610  14.277
53638W        W26063   8.390  36.033  10.943
53639W        W26064  21.150  21.538  14.761
53640W        W26065  38.992  24.614  10.103
53641W        W26066  40.434  40.811  10.409
53642W        W26067  34.495  28.617  13.308
53643W        W26068  17.780  23.696   3.237
53644W        W26069   4.735   1.483   0.757
53645W        W26070  43.415  13.343   4.139
53646W        W26071  25.486  40.975  12.358
53647W        W26072  34.120  14.634  12.016
53648W        W26073   0.977  42.503   4.297
53649W        W26074  20.125  11.861  14.394
53650W        W26075   7.353  42.357  12.960
53651W        W26076  17.593  20.128   2.745
53652W        W26077   1.333  24.013  10.523
53653W        W26078  41.439   5.730  11.543
53654W        W26079  14.176  34.896   2.858
53655W        W26080  42.946  28.458  14.018
53656W        W26081   7.897   8.327   5.586
53657W        W26082   5.354  23.187  14.951
53658W        W26083  24.530   5.306  14.923
53659W        W26084   5.236   0.461   1.893
53660W        W26085  37.339   0.898  11.937
53661W        W26086  35.935  11.250  12.408
53662W        W26087  41.005  38.498  14.311
53663W        W26088  42.910   6.245   4.636
53664W        W26089   6.807   2.784   4.321
53665W        W26090   6.238   2.839  11.034
53666W        W26091  22.146  18.785   0.866
53667W        W26092  25.710   4.910  10.927
53668W        W26093   9.770  37.375   5.244
53669W        W26094  35.445   0.857   4.726
53670W        W26095  13.773   3.431  12.500
53671W        W26096  43.868  14.108   1.852
53672W        W26097   6.817  24.160   2.365
53673W        W26098  19.675  25.637  14.419
53674W        W26099  24.615  18.694   1.853
53675W        W26100  29.623   7.317  14.938
53676W        W26101  40.479  25.522   2.197
53677W        W26102  11.303   0.913   0.794
53678W        W26103  37.352   9.150  14.439
53679W        W26104  31.555   5.698   4.295
53680W        W26105  19.280  41.794   1.440
53681W        W26106   9.379   6.731  14.406
53682W        W26107  37.504  16.757   4.157
53683W        W26108  38.380  31.062   3.176
53684W        W26109   0.800   7.217   0.336
53685W        W26110  39.893  42.392   9.566
53686W        W26111  40.918  20.030   2.888
53687W        W26112  33.587  28.465  14.464
53688W        W26113  34.430   6.728   3.343
53689W        W26114  23.046  41.351  10.499
53690W        W26115   5.775  40.896  11.558
53691W        W26116  44.769  29.990  14.779
53692W        W26117   8.780  14.336   3.295
53693W        W26118  29.014  25.514   2.902
53694W        W26119  12.152  32.071  11.075
53695W        W26120  23.033  13.649   1.812
53696W        W26121   8.306  16.649  11.387
53697W        W26122  21.625   8.877   2.376
53698W        W26123  36.380  36.489  12.887
53699W        W26124  30.513  23.569   1.810
53700W        W26125  18.276   7.886   2.206
53701W        W26126   9.201  13.325  12.831
53702W        W26127  36.453  19.164  10.468
53703W        W26128  16.673  10.290   4.610
53704W        W26129  44.324  44.986   2.874
53705W        W26130   7.684  41.517   2.825
53706W        W26131  20.124  37.385  12.446
53707W        W26132  16.650  18.765  12.504
53708W        W26133  12.758  40.890   2.759
53709W        W26134  22.081   8.817  13.830
53710W        W26135  41.920   8.740  11.913
53711W        W26136  25.573  19.117  10.996
53712W        W26137  16.613   0.297   3.682
53713W        W26138   8.759   0.961  13.858
53714W        W26139  34.470  35.982   4.183
53715W        W26140  32.973  12.783  10.580
53716W        W26141   7.800   2.249  13.980
53717W        W26142  42.317   5.692  11.082
53718W        W26143  31.575   1.756  13.006
53719W        W26144  12.855  29.585  13.801
53720W        W26145   0.790  23.072  13.515
53721W        W26146   3.331  22.544  13.377
53722W        W26147  10.774  36.856   4.198
53723W        W26148  25.624   0.362  11.985
53724W        W26149  38.911  42.977  13.467
53725W        W26150   3.887  39.844  14.393
53726W        W26151  19.065   7.360  14.408
53727W        W26152   6.304   9.742  14.389
53728W        W26153  43.284  26.059  12.928
53729W        W26154  37.889   0.479   0.861
53730W        W26155   6.756  41.425  12.829
53731W        W26156  29.955  28.606   4.711
53732W        W26157  35.538  28.483  11.606
53733W        W26158   4.715  25.165   1.386
53734W        W26159  27.077   2.804   4.187
53735W        W26160  27.454  31.043   5.113
53736W        W26161  15.656  43.891  14.381
53737W        W26162   0.303   8.403   0.308
53738W        W26163  20.261  18.221   3.808
53739W        W26164   1.389  30.621  14.424
53740W        W26165  42.514  40.809   1.891
53741W        W26166  18.738  23.146  11.536
53742W        W26167  39.362   8.687   1.265
53743W        W26168  19.169  43.970  10.639
53744W        W26169  16.598  18.100   1.875
53745W        W26170  31.428  30.546  13.332
53746W        W26171  22.516  21.234   1.750
53747W        W26172  21.238  27.663  14.392
53748W        W26173  17.663   4.204   1.827
53749W        W26174  22.165  44.421   0.351
53750W        W26175  28.053  16.728   4.826
53751W        W26176  15.743  25.195  11.487
53752W        W26177  44.458  33.968  13.028
53753W        W26178  38.923   9.670   3.709
53754W        W26179  23.010  19.692  14.375
53755W        W26180  34.882  31.463   0.262
53756W        W26181  35.438  34.993  12.910
53757W        W26182  42.366  16.084   1.898
53758W        W26183   8.848  20.074  14.510
53759W        W26184  35.555  17.568   0.767
53760W        W26185  16.073   1.409   5.787
53761W        W26186  40.955  33.129  10.636
53762W        W26187  34.609  39.831  12.433
53763W        W26188  31.149  43.349   1.759
53764W        W26189   6.334  16.292   3.151
53765W        W26190  37.006   6.266   2.803
53766W        W26191  28.439  10.786  13.942
53767W        W26192  14.269  10.378   0.767
53768W        W26193  37.025  25.095  12.943
53769W        W26194  39.827  19.540   0.895
53770W        W26195  40.976   0.922   2.794
53771W        W26196   2.409  11.633   3.669
53772W        W26197  26.536  33.123  13.906
53773W        W26198  30.969   5.423  14.395
53774W        W26199  18.273  27.068   0.824
53775W        W26200  40.304   3.435  14.396
53776W        W26201  26.546   7.189  12.568
53777W        W26202  35.504  32.966   4.632
53778W        W26203   9.251   5.736  10.425
53779W        W26204  40.308  28.667  12.516
53780W        W26205  37.506  34.576  10.506
53781W        W26206  32.028  16.713  12.927
53782W        W26207  38.966  36.947   2.803
53783W        W26208  44.361  24.547  14.434
53784W        W26209   3.900  25.019  13.402
53785W        W26210  43.979  40.458   2.297
53786W        W26211  31.483  16.187   3.731
53787W        W26212   3.922  24.030   0.263
53788W        W26213  28.108  26.579   9.952
53789W        W26214  21.679  24.627  13.808
53790W        W26215  17.180   0.413   2.762
53791W        W26216   0.342  31.606  14.302
53792W        W26217  27.661  23.035  14.008
53793W        W26218  32.043   7.754  12.055
53794W        W26219  22.052  29.588   1.365
53795W        W26220  23.122  21.557   0.326
53796W        W26221  16.091  37.556   4.673
53797W        W26222  12.137  19.114   3.333
53798W        W26223  23.621  24.980  10.444
53799W        W26224  38.910   1.483   2.667
53800W        W26225  24.101   6.353  12.396
53801W        W26226  35.420  19.537   0.766
53802W        W26227   3.444  34.879   2.870
53803W        W26228  32.051  39.858  12.353
53804W        W26229  20.567  33.541   0.944
53805W        W26230  32.096  13.245   3.360
53806W        W26231  26.064  25.125  12.485
53807W        W26232  12.677  27.650  13.944
53808W        W26233  27.117  12.244   1.740
53809W        W26234  14.206  23.508   4.130
53810W        W26235  36.559  15.600  10.160
53811W        W26236  20.067   2.261   1.279
53812W        W26237  44.461  12.333  12.884
53813W        W26238  20.599   8.795   0.955
53814W        W26239  14.605   9.351   3.147
53815W        W26240   5.311  36.352   2.307
53816W        W26241  25.510  13.756   4.699
53817W        W26242   7.780  39.412   4.756
53818W        W26243   2.836   5.846  14.512
53819W        W26244  23.027  14.247  13.392
53820W        W26245  18.590  30.586  12.868
53821W        W26246  44.844   9.785   2.795
53822W        W26247  14.744  17.228  10.552
53823W        W26248  32.491  16.208   2.341
53824W        W26249  36.506  39.366   0.474
53825W        W26250  12.610  14.622   0.295
53826W        W26251   8.170  33.417   4.251
53827W        W26252  40.508   3.947   3.291
53828W        W26253  36.371  15.134  13.897
53829W        W26254  40.409  25.145   5.107
53830W        W26255   4.894  34.901  14.825
53831W        W26256  24.519  18.730   0.739
53832W        W26257  30.996  41.963   1.789
53833W        W26258  34.869   9.839   0.874
53834W        W26259  37.492  36.540  12.903
53835W        W26260  34.871  34.115   4.597
53836W        W26261  13.811  38.034   4.718
53837W        W26262  16.609   9.321  12.947
53838W        W26263  41.340  19.149   3.815
53839W        W26264  23.609  42.424  14.383
53840W        W26265  17.785  22.525  10.504
53841W        W26266  32.083   3.790   3.279
53842W        W26267  21.209  17.677   2.848
53843W        W26268  14.605  42.409   1.405
53844W        W26269  29.936   2.455   2.807
53845W        W26270  35.453  43.925   4.230
53846W        W26271   3.360  44.844  14.786
53847W        W26272  29.952  41.896   2.314
53848W        W26273  22.641  25.588  12.551
53849W        W26274  44.805  34.016  14.874
53850W        W26275   8.300  27.140   0.267
53851W        W26276   7.271  35.079   4.662
53852W        W26277  34.905  40.822   4.302
53853W        W26278  12.716   9.785  12.439
53854W        W26279  39.861   1.763   0.926
53855W        W26280  23.520  21.126  14.890
53856W        W26281  26.179  15.773  11.541
53857W        W26282   0.856  14.704  13.989
53858W        W26283  13.347  17.725  13.004
53859W        W26284   6.758  40.432   0.907
53860W        W26285  12.764  15.244  11.373
53861W        W26286  10.709  37.970   1.857
53862W        W26287   0.956  12.679  11.879
53863W        W26288  13.341  34.920  13.880
53864W        W26289  25.594  13.144   2.356
53865W        W26290  10.862  11.685  13.890
53866W        W26291  20.744  14.147  13.792
53867W        W26292  39.470   5.346  14.366
53868W        W26293  14.314  29.460  12.844
53869W        W26294  33.607  13.613  14.913
53870W        W26295  24.202  12.739  11.483
53871W        W26296   6.876  42.945   4.765
53872W        W26297  30.531  15.750   0.899
53873W        W26298  42.480  34.987  13.932
53874W        W26299  40.962   5.916  11.610
53875W        W26300  14.787   4.431  12.559
53876W        W26301  36.098  44.425   1.852
53877W        W26302  24.527  25.154   0.331
53878W        W26303  36.456  41.879   1.893
53879W        W26304  10.330  42.448  12.352
53880W        W26305  43.893  36.380   4.807
53881W        W26306  18.162  30.627   9.990
53882W        W26307   3.353  26.678   2.262
53883W        W26308  25.166  24.624   0.427
53884W        W26309  25.139  38.561  13.050
53885W        W26310  34.447  41.387  13.974
53886W        W26311  37.946  21.029   3.336
53887W        W26312  34.409   8.729   0.955
53888W        W26313  22.170  20.216   2.240
53889W        W26314  15.193  17.744   2.842
53890W        W26315  21.089   4.813   4.637
53891W        W26316  31.408  31.996   4.142
53892W        W26317  16.301  15.798  14.390
53893W        W26318  27.148  32.558   0.337
53894W        W26319  41.307  23.208  13.823
53895W        W26320  13.183  29.169  11.506
53896W        W26321  16.721  23.705  14.498
53897W        W26322  38.480   8.761   4.262
53898W        W26323   4.774  26.203  10.915
53899W        W26324   5.834  34.552   3.742
53900W        W26325  40.800   2.827   3.360
53901W        W26326  25.547  34.983  10.588
53902W        W26327  41.532  44.474   9.605
53903W        W26328  37.881  29.961   1.702
53904W        W26329  17.774   6.403   3.337
53905W        W26330  29.119  30.047   0.328
53906W        W26331   4.268  11.293  13.926
53907W        W26332  16.575  26.550   3.320
53908W        W26333  10.794  12.733   4.654
53909W        W26334  16.692  13.784  14.830
53910W        W26335  34.897   8.874  10.460
53911W        W26336  27.606  25.220  10.955
53912W        W26337  12.186  31.521   3.370
53913W        W26338  37.041   1.822   3.181
53914W        W26339  38.834   1.328   1.298
53915W        W26340   0.760  37.912  11.382
53916W        W26341  14.324  35.914  11.074
53917W        W26342   7.188  37.428  14.365
53918W        W26343  38.936   5.273  12.012
53919W        W26344  26.604  31.979  14.975
53920W        W26345  21.701   3.913   4.686
53921W        W26346   8.234  41.303   2.414
53922W        W26347   4.307  39.528   2.395
53923W        W26348   0.824  44.755  13.978
53924W        W26349  27.470  39.461   4.351
53925W        W26350  37.983  12.678   3.653
53926W        W26351  41.869  23.045   0.255
53927W        W26352  12.333  17.195   1.385
53928W        W26353  36.953  21.044   5.135
53929W        W26354  17.637   3.954   0.384
53930W        W26355  35.893  23.634   5.158
53931W        W26356  25.511   8.804   2.730
53932W        W26357   1.773  40.974   3.793
53933W        W26358  41.021  33.893  13.848
53934W        W26359  12.677  41.034  12.008
53935W        W26360  43.919  15.735   2.698
53936W        W26361  11.142  28.518   0.866
53937W        W26362  10.210  26.174  12.569
53938W        W26363  19.728  21.176  11.563
53939W        W26364  41.433  35.885   1.415
53940W        W26365  16.691  39.992  10.457
53941W        W26366  15.728  32.514  14.486
53942W        W26367  29.490  28.650   4.752
53943W        W26368  43.882  27.100   3.309
53944W        W26369  18.100  19.082  12.993
53945W        W26370  10.274  23.644  14.391
53946W        W26371  17.234  40.901  11.435
53947W        W26372   8.758  37.872  11.502
53948W        W26373  17.179  42.379   1.370
53949W        W26374  39.404   4.939  11.460
53950W        W26375  32.472   9.293   2.739
53951W        W26376   6.705   5.199   1.789
53952W        W26377  10.296  15.143   5.126
53953W        W26378  37.988  26.540   1.799
53954W        W26379  39.557  41.514  12.060
53955W        W26380  17.078  19.280   2.889
53956W        W26381   8.251  20.555  11.948
53957W        W26382  41.450   9.273   3.822
53958W        W26383  26.536   0.388  14.986
53959W        W26384  43.780  22.611   0.459
53960W        W26385  36.963  40.457   3.781
53961W        W26386  10.232  43.495  14.456
53962W        W26387  10.744  19.649  10.956
53963W        W26388  18.207  20.135   3.725
53964W        W26389  39.435   6.758   1.218
53965W        W26390  15.215   9.647   3.201
53966W        W26391  29.000   3.847  10.537
53967W        W26392   4.390  23.572   0.780
53968W        W26393  38.003  29.133   0.736
53969W        W26394  36.367  30.023   1.848
53970W        W26395  18.236  30.998  12.461
53971W        W26396  34.481  24.480   4.730
53972W        W26397  12.290  24.109  13.938
53973W        W26398  44.500  20.637  12.857
53974W        W26399  41.997  26.016  11.599
53975W        W26400   3.235  22.215   2.364
53976W        W26401  36.510   6.368   3.727
53977W        W26402  38.053  34.608  10.480
53978W        W26403  42.371  18.659  12.570
53979W        W26404  36.478   4.271  11.490
53980W        W26405  42.299  33.113   0.257
53981W        W26406  38.976  23.227   4.276
53982W        W26407   2.796  31.437  13.374
53983W        W26408  16.599  18.641  12.074
53984W        W26409  39.991   9.649  13.963
53985W        W26410  35.030  23.634  13.471
53986W        W26411   6.325   4.732   0.794
53987W        W26412  36.433  21.218  14.459
53988W        W26413  37.936   2.230  11.590
53989W        W26414  13.648  37.499   1.711
53990W        W26415  18.284  20.030   4.335
53991W        W26416  44.303  44.296  11.971
53992W        W26417  28.502   8.791   0.928
53993W        W26418  23.645  27.154  10.979
53994W        W26419  26.511  23.074   3.659
53995W        W26420  19.543  35.442  13.952
53996W        W26421  24.117  33.102  13.020
53997W        W26422  35.366   8.404  11.056
53998W        W26423  39.434  21.202   0.811
53999W        W26424   1.246  26.508   4.133
54000W        W26425  12.705  13.739  14.781
54001W        W26426   7.751   8.396   1.734
54002W        W26427   5.401  37.834  12.083
54003W        W26428   8.754  28.571  13.063
54004W        W26429  10.674  29.519  10.463
54005W        W26430  27.027  13.219  10.593
54006W        W26431  35.414  35.932   1.291
54007W        W26432  32.469  16.740   4.672
54008W        W26433  38.364   5.933  12.953
54009W        W26434  35.390  25.549   2.357
54010W        W26435  43.324  19.551  11.574
54011W        W26436  23.096  17.679   2.289
54012W        W26437   4.897  13.707  14.472
54013W        W26438   3.895  36.998  12.352
54014W        W26439   7.755  37.549  11.116
54015W        W26440  27.978  28.992   2.734
54016W        W26441  39.924  33.108  10.942
54017W        W26442  21.693  28.649   1.714
54018W        W26443  22.622  37.547  11.897
54019W        W26444  36.432  42.851   2.280
54020W        W26445  36.475  35.931  14.400
54021W        W26446  33.486  22.677  11.865
54022W        W26447  25.607  18.193   2.722
54023W        W26448  18.577  20.224   4.660
54024W        W26449   6.842  35.397   5.163
54025W        W26450  38.011  24.638  14.402
54026W        W26451  44.807  11.822  11.902
54027W        W26452  11.644   7.235   1.227
54028W        W26453  29.475  37.368   0.800
54029W        W26454  43.433  17.565   1.808
54030W        W26455   5.798   9.217   3.250
54031W        W26456  42.015  38.000  10.968
54032W        W26457   1.397  14.724  10.995
54033W        W26458  18.667  13.181   0.878
54034W        W26459  10.733  37.011  12.829
54035W        W26460  23.707  13.769   0.765
54036W        W26461   0.448  42.353   3.850
54037W        W26462  18.657  35.086   2.704
54038W        W26463  38.407  15.159  11.952
54039W        W26464  15.102  44.284  14.455
54040W        W26465  26.013  23.137   0.736
54041W        W26466   0.811   7.388   2.399
54042W        W26467   7.342  31.647  12.485
54043W        W26468   9.791  13.800  13.411
54044W        W26469   8.657  42.332  11.602
54045W        W26470  29.658  11.351  10.595
54046W        W26471  14.627  12.658  14.927
54047W        W26472   3.350  21.186  13.038
54048W        W26473  29.019   9.373  11.873
54049W        W26474  16.719   8.358   3.149
54050W        W26475  33.880  44.811   4.282
54051W        W26476  30.979  18.151   4.162
54052W        W26477  12.763   7.886   2.204
54053W        W26478  35.930  31.031   1.774
54054W        W26479  11.624  31.003  13.901
54055W        W26480  40.426  32.001  12.955
54056W        W26481  41.450  12.633   1.234
54057W        W26482  15.150  31.963   0.798
54058W        W26483   1.914  15.634  10.495
54059W        W26484   6.758  14.806  11.934
54060W        W26485  15.126  40.916   2.859
54061W        W26486  34.937   2.356   0.962
54062W        W26487  35.388   6.750   4.299
54063W        W26488   1.846  17.770   4.189
54064W        W26489   6.392  12.814   2.829
54065W        W26490  38.904  21.582   3.328
54066W        W26491  10.194   9.289   0.281
54067W        W26492  12.360  31.986  14.509
54068W        W26493  22.529  11.715  14.862
54069W        W26494   2.299  36.887  13.009
54070W        W26495  44.279  36.021  13.905
54071W        W26496  20.565  38.925  11.554
54072W        W26497  21.524  10.346   4.721
54073W        W26498   4.381  22.574  10.483
54074W        W26499  33.462  27.986  14.809
54075W        W26500  10.762  11.153   0.820
54076W        W26501  24.593  43.910   3.677
54077W        W26502   6.698  37.858  10.486
54078W        W26503  28.481  38.452   3.214
54079W        W26504   2.746  13.665   0.421
54080W        W26505  26.030  38.338   4.678
54081W        W26506  25.671  19.537   4.770
54082W        W26507  32.420  11.289   3.852
54083W        W26508   4.714  12.755  12.842
54084W        W26509  43.306  32.993  14.867
54085W        W26510  39.981  11.783   0.457
54086W        W26511   1.839  37.883  13.994
54087W        W26512  35.853  13.810   1.426
54088W        W26513  22.608  21.647  14.795
54089W        W26514   4.769  41.881   4.236
54090W        W26515  26.572  16.588   0.963
54091W        W26516   3.758  23.499  13.425
54092W        W26517   2.796  11.347   0.922
54093W        W26518  35.564  37.025  14.399
54094W        W26519  30.121  28.640  10.475
54095W        W26520  12.827  26.953  13.027
54096W        W26521   6.288  19.695   2.745
54097W        W26522  30.007  22.550   3.765
54098W        W26523  36.482  34.991  14.280
54099W        W26524   0.314  16.143  10.470
54100W        W26525  10.831  34.944   2.859
54101W        W26526  32.990  18.575  12.563
54102W        W26527  31.081   6.346  11.979
54103W        W26528  15.194  33.576   2.406
54104W        W26529   7.706  38.972   3.666
54105W        W26530   8.669  31.640   1.871
54106W        W26531  42.998  31.132  12.867
54107W        W26532  42.912   2.805   1.750
54108W        W26533  21.025  25.476  13.904
54109W        W26534  18.227  10.183  12.015
54110W        W26535   9.184   7.673  12.873
54111W        W26536  20.205  35.502  10.971
54112W        W26537   6.384  33.498  13.805
54113W        W26538  42.823  14.222  12.941
54114W        W26539  14.716  23.202  14.838
54115W        W26540  29.093   4.722  12.969
54116W        W26541  15.149  34.034   4.129
54117W        W26542  37.948  34.107  10.994
54118W        W26543  15.608  12.817  14.849
54119W        W26544  18.240   0.373  10.913
54120W        W26545  23.693  30.134  10.405
54121W        W26546  44.376  41.370   0.873
54122W        W26547   7.413  43.878  11.030
54123W        W26548   6.338  38.340   2.812
54124W        W26549  17.227  10.695  14.401
54125W        W26550   3.221  18.100  12.563
54126W        W26551  40.481   0.277  14.835
54127W        W26552  39.891  42.403   1.913
54128W        W26553   6.361  23.993   1.254
54129W        W26554  27.678  31.403  11.587
54130W        W26555  15.167   4.211   3.153
54131W        W26556  27.113   1.765  10.497
54132W        W26557  43.277  30.070  14.999
54133W        W26558  11.842  23.545  10.506
54134W        W26559  37.514  38.891   4.240
54135W        W26560  13.744  34.077  11.928
54136W        W26561  44.787  10.308   3.709
54137W        W26562  11.642  25.974   3.679
54138W        W26563  23.689  11.312  13.377
54139W        W26564  35.056  34.889   0.319
54140W        W26565  29.941  22.565  14.287
54141W        W26566   2.343   3.429  11.100
54142W        W26567  26.968  26.951  10.955
54143W        W26568  37.014  40.975   0.779
54144W        W26569  25.201   6.309  12.833
54145W        W26570  13.253  14.818  13.018
54146W        W26571  43.474  18.213   5.307
54147W        W26572  37.082   9.240   3.233
54148W        W26573  22.045  14.695   1.789
54149W        W26574  28.943  28.471  14.780
54150W        W26575  18.725   8.702   5.162
54151W        W26576   7.293  34.573  14.339
54152W        W26577  40.861  10.753   2.777
54153W        W26578  16.167  19.218   3.195
54154W        W26579  24.537   9.819   0.922
54155W        W26580   3.848  20.212  10.439
54156W        W26581  32.428  14.750  10.926
54157W        W26582  30.622  30.978   3.221
54158W        W26583  38.410  32.061  14.804
54159W        W26584   3.423  16.641  10.548
54160W        W26585  21.029  29.651   0.828
54161W        W26586  38.915  38.901  13.539
54162W        W26587  39.552   2.935   1.925
54163W        W26588  22.250  25.988   3.285
54164W        W26589  37.357  13.257   1.353
54165W        W26590   6.694  38.484  14.451
54166W        W26591   1.338   5.742  13.497
54167W        W26592   4.301   6.845  14.874
54168W        W26593  18.790  11.658   1.696
54169W        W26594   2.731  23.168   0.245
54170W        W26595   6.326  16.128   2.868
54171W        W26596  10.349  20.636   1.902
54172W        W26597  28.151   6.791  12.958
54173W        W26598  40.818   0.923   0.298
54174W        W26599  39.885  43.445   0.405
54175W        W26600  43.005  17.276  12.406
54176W        W26601  38.868   4.356  13.979
54177W        W26602  23.522  19.264  13.958
54178W        W26603  39.418   3.855  14.410
54179W        W26604  36.355  33.032  11.380
54180W        W26605  37.471  22.092  11.392
54181W        W26606  17.618  30.466  13.391
54182W        W26607  16.247  11.739   2.196
54183W        W26608  36.972  35.090   0.893
54184W        W26609  37.065   4.755   3.174
54185W        W26610  15.635   4.900   1.262
54186W        W26611  26.495  11.825   4.185
54187W        W26612  44.424  17.721  11.518
54188W        W26613  11.268  12.624   0.869
54189W        W26614   0.765   3.737  14.924
54190W        W26615  37.486  19.220  11.559
54191W        W26616  31.503  11.856   4.671
54192W        W26617  33.567  31.469  13.850
54193W        W26618  14.708  16.683   0.961
54194W        W26619  22.584  39.408   0.861
54195W        W26620   5.281   6.375  12.462
54196W        W26621  12.229   8.854   2.876
54197W        W26622  10.743  15.587   2.758
54198W        W26623  33.041  24.114   0.400
54199W        W26624   6.903  18.118  11.053
54200W        W26625  16.293   3.355   2.767
54201W        W26626  24.063   0.848   3.813
54202W        W26627  13.608  25.550  10.982
54203W        W26628  26.468  32.437   5.801
54204W        W26629  33.492  37.846   3.629
54205W        W26630  10.691  34.593  13.893
54206W        W26631  43.876  17.605   1.743
54207W        W26632  40.049  29.931  13.441
54208W        W26633  41.921  28.472   2.815
54209W        W26634   8.318  29.008   2.225
54210W        W26635  26.596  37.403  11.964
54211W        W26636  27.157  41.978  13.416
54212W        W26637   2.391  34.003   3.751
54213W        W26638  13.252  37.859  13.940
54214W        W26639  40.543  21.524   0.344
54215W        W26640  41.437  40.520   4.818
54216W        W26641   1.390  13.263  14.280
54217W        W26642   9.885  40.323   2.189
54218W        W26643  31.544   8.215  10.966
54219W        W26644  35.108  10.294  11.542
54220W        W26645  30.952  11.276  13.973
54221W        W26646  18.147  44.954   0.323
54222W        W26647   6.307  18.746   1.829
54223W        W26648  34.448  21.119   0.482
54224W        W26649  17.784   3.461  12.077
54225W        W26650  28.986  39.530   3.309
54226W        W26651  33.011  17.175   3.860
54227W        W26652  27.054  31.066  12.973
54228W        W26653  32.092  43.931   1.719
54229W        W26654  11.232  11.774  14.895
54230W        W26655  40.417  44.323  14.899
54231W        W26656  20.147   0.835   1.300
54232W        W26657  42.353  40.331   1.886
54233W        W26658  13.288  31.485   0.355
54234W        W26659  29.461  10.336   1.262
54235W        W26660  27.602   1.266  14.823
54236W        W26661  32.512  10.852   4.711
54237W        W26662  29.066  16.696   3.745
54238W        W26663  29.146  35.094   0.451
54239W        W26664   5.204  36.356  11.879
54240W        W26665  38.064  43.875   3.364
54241W        W26666  17.105  24.493  13.914
54242W        W26667  21.252  44.416   1.809
54243W        W26668   8.301  40.409  14.329
54244W        W26669  14.247  42.927  10.436
54245W        W26670  39.881  18.142  11.399
54246W        W26671   3.218   4.255  10.962
54247W        W26672   1.411   4.443  14.998
54248W        W26673  35.469  33.485  10.644
54249W        W26674   0.321  28.611  13.475
54250W        W26675  18.164  10.200   1.898
54251W        W26676   3.410  23.532   1.359
54252W        W26677  38.920   5.386  11.585
54253W        W26678  21.142  13.770  13.013
54254W        W26679   6.835  15.623   1.309
54255W        W26680  10.667  20.698   1.932
54256W        W26681  25.540  12.297   2.235
54257W        W26682  35.600  41.844  13.976
54258W        W26683  23.591  23.528   1.898
54259W        W26684  26.504  13.616  12.008
54260W        W26685   5.732  25.478  14.899
54261W        W26686  35.983  17.070  14.489
54262W        W26687   4.236   6.381   0.756
54263W        W26688  33.582  43.330   0.374
54264W        W26689  22.576  15.732  13.919
54265W        W26690  39.017  16.694   2.412
54266W        W26691  17.783  43.366   2.286
54267W        W26692  30.112  10.139   3.852
54268W        W26693   0.975  31.644   3.226
54269W        W26694   6.386  42.788   2.835
54270W        W26695  29.543  16.596   4.738
54271W        W26696  33.985  20.259   0.731
54272W        W26697  11.643  12.679  10.995
54273W        W26698  10.275  15.210   3.333
54274W        W26699  38.017   2.339  10.924
54275W        W26700  19.196  38.018   4.292
54276W        W26701  27.490  16.609  11.871
54277W        W26702  15.761  24.525  11.998
54278W        W26703  18.234   6.692   4.218
54279W        W26704   5.410  33.449  10.002
54280W        W26705  22.645  25.508  13.053
54281W        W26706  15.726  30.077  14.761
54282W        W26707  13.702  35.010   4.613
54283W        W26708   4.856  29.135   4.269
54284W        W26709  24.723   3.351  12.572
54285W        W26710  40.323  42.028   4.292
54286W        W26711  28.582  11.325   1.432
54287W        W26712   0.407  25.114  12.379
54288W        W26713  29.999  21.174  12.371
54289W        W26714  26.160   2.777  13.941
54290W        W26715  17.062   9.854   0.405
54291W        W26716  27.552  23.004   0.929
54292W        W26717  27.455  15.677  10.940
54293W        W26718   6.742  42.859  13.851
54294W        W26719   2.774  20.197   4.305
54295W        W26720   9.267  28.520   3.830
54296W        W26721   5.385   9.715   1.220
54297W        W26722  26.457  11.863   2.678
54298W        W26723  16.162  31.541  11.913
54299W        W26724  14.224  30.503   1.779
54300W        W26725  36.502  44.500  13.385
54301W        W26726  17.066   2.382   4.663
54302W        W26727  30.072  39.062  11.463
54303W        W26728  42.829  25.210   1.290
54304W        W26729  22.623  25.995   1.720
54305W        W26730  17.787  18.157   4.324
54306W        W26731  21.074  18.159  12.445
54307W        W26732  43.465  40.998  13.034
54308W        W26733  23.199  30.126  10.497
54309W        W26734  37.387   8.893  10.598
54310W        W26735  39.449   8.229   2.735
54311W        W26736  40.820  42.333   9.497
54312W        W26737  15.223  12.673   2.883
54313W        W26738  13.209  22.522  13.898
54314W        W26739  14.167  21.129  11.912
54315W        W26740  39.414  30.425   3.715
54316W        W26741  29.493   4.347  13.974
54317W        W26742  16.086   3.743   4.211
54318W        W26743  38.558   9.656  10.940
54319W        W26744   9.305  36.380   9.443
54320W        W26745  22.107  11.622  12.948
54321W        W26746  10.199  28.011  12.512
54322W        W26747  32.440  16.200   5.708
54323W        W26748  33.541  24.181   3.266
54324W        W26749  30.014  28.099  13.395
54325W        W26750  42.885  30.574   1.907
54326W        W26751   3.788   5.317  12.512
54327W        W26752  41.027  14.101  14.420
54328W        W26753   9.740   6.774   2.417
54329W        W26754  39.521  38.519   0.730
54330W        W26755  32.635   1.952  11.989
54331W        W26756  13.621  16.611   0.327
54332W        W26757  31.006  25.988   0.319
54333W        W26758  18.620   2.431   3.170
54334W        W26759  40.960  11.298   2.265
54335W        W26760  22.185  35.409   3.297
54336W        W26761  12.121   6.682  12.576
54337W        W26762  35.964  19.772  14.362
54338W        W26763  39.990  20.083  14.458
54339W        W26764  43.306   3.929  13.978
54340W        W26765  24.564  11.171   1.894
54341W        W26766  12.262  21.119  10.524
54342W        W26767  10.642  20.192  12.463
54343W        W26768  15.094  33.083  14.835
54344W        W26769   2.901  29.569   2.762
54345W        W26770   4.414  12.768   4.171
54346W        W26771   7.719  31.588   2.250
54347W        W26772  26.976  24.988   3.164
54348W        W26773  39.035  29.996   1.764
54349W        W26774  17.179  17.659   4.205
54350W        W26775  38.823  19.672   2.780
54351W        W26776  44.279  44.803  10.551
54352W        W26777   5.343  39.398  13.344
54353W        W26778  32.424   3.861  11.530
54354W        W26779  30.102  37.968  12.903
54355W        W26780   8.830  44.434  11.590
54356W        W26781  22.531  18.275  10.589
54357W        W26782  40.347   5.439  14.968
54358W        W26783  19.623  36.495   0.848
54359W        W26784  27.533  34.879   2.814
54360W        W26785  22.609  43.357  11.973
54361W        W26786  39.339  38.345   3.732
54362W        W26787   6.684  35.412   4.761
54363W        W26788   1.301  42.334  14.016
54364W        W26789   7.805  15.773  10.529
54365W        W26790  18.673  13.322  11.989
54366W        W26791  42.821   9.309   0.807
54367W        W26792  44.856   3.724   2.742
54368W        W26793  18.549  14.304   4.623
54369W        W26794  19.199  19.544  14.473
54370W        W26795  14.720  10.789   1.304
54371W        W26796  20.051   2.319  13.810
54372W        W26797  35.404   3.371   2.363
54373W        W26798  39.868   4.320  13.873
54374W        W26799  32.633   2.318  12.928
54375W        W26800  44.776  38.370  10.472
54376W        W26801   7.390  28.032  14.012
54377W        W26802   3.423  32.919   4.615
54378W        W26803   1.956   8.788   3.310
54379W        W26804  31.576  20.561   3.856
54380W        W26805  34.967  27.584   1.873
54381W        W26806  19.257  12.262   2.733
54382W        W26807  16.156  13.669  10.537
54383W        W26808  24.171  14.339   2.409
54384W        W26809   7.264  36.858   4.605
54385W        W26810   4.908  26.200   4.624
54386W        W26811  18.649   1.398   3.238
54387W        W26812  22.074  15.781  12.383
54388W        W26813  31.091  11.225  11.382
54389W        W26814   5.322   3.916   4.132
54390W        W26815  34.519  36.563   2.275
54391W        W26816  39.488  27.466   1.699
54392W        W26817  16.612  20.628  14.477
54393W        W26818  20.644  20.576   1.877
54394W        W26819  18.746   7.678   4.714
54395W        W26820  37.832  24.591  11.421
54396W        W26821  33.045  30.918  14.964
54397W        W26822  26.662   2.450   0.447
54398W        W26823  11.761  19.749  12.981
54399W        W26824  15.167  10.289   2.378
54400W        W26825  21.660  10.776   2.320
54401W        W26826  26.067  11.205   1.876
54402W        W26827  36.019  22.182   1.785
54403W        W26828  39.461  25.501  13.978
54404W        W26829  27.943  16.290  11.030
54405W        W26830  44.786  38.888   3.386
54406W        W26831   6.706  27.112  11.893
54407W        W26832  11.308  16.806  14.005
54408W        W26833  30.044  38.325   0.810
54409W        W26834  11.244  39.350   2.737
54410W        W26835   6.291  20.641   3.705
54411W        W26836   2.423  40.348  11.488
54412W        W26837  40.458  33.970  11.944
54413W        W26838   5.212  24.637  14.886
54414W        W26839  22.086   4.740   2.250
54415W        W26840  30.501  10.145  11.491
54416W        W26841   8.875  37.422   4.625
54417W        W26842  40.046  29.969  10.556
54418W        W26843  42.487  13.740   2.865
54419W        W26844  30.593  35.359   2.871
54420W        W26845  22.646  21.629   4.174
54421W        W26846  14.208   8.255  12.527
54422W        W26847  18.154  33.989  14.493
54423W        W26848  22.998  15.256  12.904
54424W        W26849  13.197  18.167  12.090
54425W        W26850  43.779  37.956  11.866
54426W        W26851   6.395   2.811   1.774
54427W        W26852  19.547  21.181  14.456
54428W        W26853   6.377  12.643  12.837
54429W        W26854   7.670  42.492   4.701
54430W        W26855  30.038  17.572  11.010
54431W        W26856   4.260  28.632  13.839
54432W        W26857   3.884  16.284   3.699
54433W        W26858   8.785  33.568   0.384
54434W        W26859  27.130  37.370  10.619
54435W        W26860  10.370   7.195  12.845
54436W        W26861  10.723   4.700  10.926
54437W        W26862  27.119  11.810  13.894
54438W        W26863  28.062  29.644   2.664
54439W        W26864   1.398  44.415   4.807
54440W        W26865  13.238  35.856   3.287
54441W        W26866  22.520  38.464  12.935
54442W        W26867  36.555  21.109  12.865
54443W        W26868  43.471  26.991  13.344
54444W        W26869  41.367  12.818  14.813
54445W        W26870   3.326  42.026   1.337
54446W        W26871  25.640  16.290  12.040
54447W        W26872   9.762  18.562  10.602
54448W        W26873  22.628  13.762   3.238
54449W        W26874  44.374  24.093   2.770
54450W        W26875  24.528  44.005  12.832
54451W        W26876   9.335   6.421  14.502
54452W        W26877   5.790  11.797   3.845
54453W        W26878  25.077  42.932  11.014
54454W        W26879  32.562  37.336   3.175
54455W        W26880  37.474  31.017   2.747
54456W        W26881  43.356  42.412  13.320
54457W        W26882  34.483  15.183  11.033
54458W        W26883  23.012  24.018  12.880
54459W        W26884  32.045  28.009   1.906
54460W        W26885   9.195  30.619   3.335
54461W        W26886  31.150  26.099   4.293
54462W        W26887  28.548  27.621  11.464
54463W        W26888  27.194  31.920   2.342
54464W        W26889  11.293   9.819  13.798
54465W        W26890  23.231  13.758  13.397
54466W        W26891   8.778   8.684  14.447
54467W        W26892  24.989   8.238  12.493
54468W        W26893  40.407  19.720  13.846
54469W        W26894   7.334   0.281   1.270
54470W        W26895  42.941  39.497   0.873
54471W        W26896  16.658  15.121  13.433
54472W        W26897  26.489  32.396  13.520
54473W        W26898  24.607  25.000   4.769
54474W        W26899  18.163  26.008   2.836
54475W        W26900  33.564   0.766  10.631
54476W        W26901  16.618  17.609   3.852
54477W        W26902  17.128  29.636   0.389
54478W        W26903   5.915  11.216  14.502
54479W        W26904  41.427   6.207   1.365
54480W        W26905  42.954  22.604   4.339
54481W        W26906  32.885  15.203   2.331
54482W        W26907   5.332  37.479  14.419
54483W        W26908  29.567  31.981   3.855
54484W        W26909   7.806  10.346   0.742
54485W        W26910  14.786  21.673  10.480
54486W        W26911   4.754  30.090  10.594
54487W        W26912  14.628  38.920  11.977
54488W        W26913  25.494  35.521   4.229
54489W        W26914  23.035  31.593  12.468
54490W        W26915   5.711   1.821   2.212
54491W        W26916  12.817  15.797  12.845
54492W        W26917  30.995   2.416   2.699
54493W        W26918  13.604  29.529  11.974
54494W        W26919  40.467  24.563  12.077
54495W        W26920  25.667  44.326   4.198
54496W        W26921  21.721  25.566  13.335
54497W        W26922  28.103  32.055  11.486
54498W        W26923  23.037   2.936   1.768
54499W        W26924  20.227  25.212   2.195
54500W        W26925  12.260  20.670  13.796
54501W        W26926  25.090  18.706   1.263
54502W        W26927  35.987  36.053   0.244
54503W        W26928  14.770  41.363  11.373
54504W        W26929   5.926  24.578   1.800
54505W        W26930  22.654  39.350   1.372
54506W        W26931  23.045   3.830  13.997
54507W        W26932   8.793  22.700   3.347
54508W        W26933  24.633  21.071  13.964
54509W        W26934  13.776  33.902  12.926
54510W        W26935  33.877  31.543   2.367
54511W        W26936  33.528   0.988  12.508
54512W        W26937   4.892  33.891   3.827
54513W        W26938  15.225  18.596   3.358
54514W        W26939  17.301  26.484  14.345
54515W        W26940  44.980  41.885   0.257
54516W        W26941  44.341  25.102   3.659
54517W        W26942  12.309  11.246   1.785
54518W        W26943  41.926  35.079   3.638
54519W        W26944  36.510  17.765   1.694
54520W        W26945  12.248   3.879  13.447
54521W        W26946   9.825  14.249  11.985
54522W        W26947  37.479   7.358  14.441
54523W        W26948  36.880  41.504  14.339
54524W        W26949  17.068   0.926   4.285
54525W        W26950  36.934  42.839   3.251
54526W        W26951  14.326  11.296  11.058
54527W        W26952  10.864  25.068  10.432
54528W        W26953  25.998  29.054  10.485
54529W        W26954   9.794  42.877  13.933
54530W        W26955  14.778  21.186   2.772
54531W        W26956  26.082  20.578  11.538
54532W        W26957  21.179  21.120   1.708
54533W        W26958   0.970  24.540  13.013
54534W        W26959  16.676  44.859  13.904
54535W        W26960  28.109  25.593  10.608
54536W        W26961   2.364  23.082   1.244
54537W        W26962  43.938   5.834   1.375
54538W        W26963   3.427  35.967   1.832
54539W        W26964  23.633   4.285  11.586
54540W        W26965  32.032  34.051   3.719
54541W        W26966  12.642   8.730  10.621
54542W        W26967  19.729   7.819  14.856
54543W        W26968  19.193  30.583   0.907
54544W        W26969  20.698  34.453  13.822
54545W        W26970  13.109  18.548   1.340
54546W        W26971   3.934  26.990  11.855
54547W        W26972  32.452   8.725  10.628
54548W        W26973  21.104  16.705  11.056
54549W        W26974  40.336  24.140   3.712
54550W        W26975  24.137  29.655  11.864
54551W        W26976  33.564  11.251  11.396
54552W        W26977  23.095  17.663  14.967
54553W        W26978  20.236  17.667   4.721
54554W        W26979  41.427  30.643   1.897
54555W        W26980   9.767  37.968  14.376
54556W        W26981  37.071  21.565  12.573
54557W        W26982  10.803   8.338   3.850
54558W        W26983  42.368  27.120   0.297
54559W        W26984  14.601  23.506   2.342
54560W        W26985  12.218  11.171  12.836
54561W        W26986  22.608  31.903   3.179
54562W        W26987  14.308  17.718   3.858
54563W        W26988  17.226  24.146  14.407
54564W        W26989   6.920  27.977   3.870
54565W        W26990  19.199  15.241   0.836
54566W        W26991  19.649  28.142   0.442
54567W        W26992  20.168  20.665  11.999
54568W        W26993   2.338   4.384  11.975
54569W        W26994  44.765  34.930   0.770
54570W        W26995  34.059  39.016   2.267
54571W        W26996  27.642  39.056   1.748
54572W        W26997  23.667  32.999  14.761
54573W        W26998   8.778  43.867   1.255
54574W        W26999  15.725  37.536   0.261
54575W        W27000   0.262   7.825   0.794
54576W        W27001  38.993  32.485   3.248
54577W        W27002  20.591  41.889   3.799
54578W        W27003   7.275  22.095  14.771
54579W        W27004  18.251  39.456  10.571
54580W        W27005  16.228  32.025   0.848
54581W        W27006  43.286  18.558   2.663
54582W        W27007  43.307  24.617   2.738
54583W        W27008   2.836  42.962  10.894
54584W        W27009  39.967   7.277   1.857
54585W        W27010  32.511  40.429  13.317
54586W        W27011  35.078  20.247   1.213
54587W        W27012   3.842   5.747  12.387
54588W        W27013  24.216  26.065   0.823
54589W        W27014   9.159  37.518  11.432
54590W        W27015   6.809  39.948  11.962
54591W        W27016  43.005  34.545  11.063
54592W        W27017  10.310  30.415   2.358
54593W        W27018  12.187  34.043  11.476
54594W        W27019  35.082  28.607   0.345
54595W        W27020  10.746  30.462  11.495
54596W        W27021  40.460  37.494  13.943
54597W        W27022  43.878   4.225   0.832
54598W        W27023  19.617  10.248  11.896
54599W        W27024  40.337   6.189  14.305
54600W        W27025   4.814  29.148   9.945
54601W        W27026  16.145  29.974   3.238
54602W        W27027  39.462   9.693   0.392
54603W        W27028  35.562  39.989  13.445
54604W        W27029  44.471  29.035  10.593
54605W        W27030  15.606  20.572   2.269
54606W        W27031  20.669   3.947  13.537
54607W        W27032   7.822  20.667  11.465
54608W        W27033  18.177  32.013   4.191
54609W        W27034  21.634   9.367  12.851
54610W        W27035   9.231  19.188   4.181
54611W        W27036  25.705  34.112  14.901
54612W        W27037  18.226  28.092   2.669
54613W        W27038  22.187  14.306   3.702
54614W        W27039  27.006  15.235  12.354
54615W        W27040  11.727  18.256   2.693
54616W        W27041  31.070  27.953  11.602
54617W        W27042  10.803  14.640   1.931
54618W        W27043  33.578   8.400   1.785
54619W        W27044  33.566  38.063  11.880
54620W        W27045  39.538  10.633  12.040
54621W        W27046  37.549  38.825   3.332
54622W        W27047  42.775  22.194  10.067
54623W        W27048   8.355  26.011  11.372
54624W        W27049  42.369   2.300   0.959
54625W        W27050  15.778  15.309  14.827
54626W        W27051  39.857  33.945   1.838
54627W        W27052  22.530  30.434   5.141
54628W        W27053  42.841   0.426  13.917
54629W        W27054   0.379   4.751   1.888
54630W        W27055   5.256   8.275  12.499
54631W        W27056   2.276  35.494   3.712
54632W        W27057  24.654  21.568  11.411
54633W        W27058   7.875  39.968   4.124
54634W        W27059   0.438  28.133  14.515
54635W        W27060  34.972  17.744  13.433
54636W        W27061  16.720  37.892   2.400
54637W        W27062  33.531   2.387  11.013
54638W        W27063  10.203  24.976   2.366
54639W        W27064  24.656  43.281  14.018
54640W        W27065  43.965  15.200  11.126
54641W        W27066  10.847  35.856  10.538
54642W        W27067  44.791  18.635  10.518
54643W        W27068  13.663  22.745   0.248
54644W        W27069   2.376   3.304  12.074
54645W        W27070  22.706  12.303   1.267
54646W        W27071  20.243  18.629   3.213
54647W        W27072   0.945  19.714  12.501
54648W        W27073  44.340   4.398  12.493
54649W        W27074  30.075   9.357  14.416
54650W        W27075  44.884  36.070  14.306
54651W        W27076  25.647  31.584   0.859
54652W        W27077  30.571  36.978  10.556
54653W        W27078  32.510  39.448   2.212
54654W        W27079  25.702  30.970  11.855
54655W        W27080  42.942   8.234  13.914
54656W        W27081  30.008  31.919   0.938
54657W        W27082   4.713   8.237  11.446
54658W        W27083   3.796   0.483  14.866
54659W        W27084  27.070  22.746  14.823
54660W        W27085  25.614  41.508   1.848
54661W        W27086  20.180  23.631  12.544
54662W        W27087  43.882  37.395  12.911
54663W        W27088  38.918  37.383   3.214
54664W        W27089  41.492  41.367   0.859
54665W        W27090  41.027  40.836  14.866
54666W        W27091  12.138  25.473   4.611
54667W        W27092  33.541   8.767  14.333
54668W        W27093  21.233  43.454  13.476
54669W        W27094  20.272  24.221   0.319
54670W        W27095  43.515  43.950  12.899
54671W        W27096  36.547   1.322   3.805
54672W        W27097   2.898  37.389  11.048
54673W        W27098  44.768  26.001   1.769
54674W        W27099  14.754  25.706  11.538
54675W        W27100  36.534  22.663  12.505
54676W        W27101  19.724  25.618  11.960
54677W        W27102  14.281  37.904   4.817
54678W        W27103  13.674   1.799   2.192
54679W        W27104  12.261  30.535  13.351
54680W        W27105  20.227  28.588  11.417
54681W        W27106  36.500  41.389   2.416
54682W        W27107  38.500  27.155   1.231
54683W        W27108  26.670  44.269   3.182
54684W        W27109  20.123   0.448   3.246
54685W        W27110   1.431  12.253   4.695
54686W        W27111   7.745   6.721  14.469
54687W        W27112  41.296  12.302   0.865
54688W        W27113   1.942  32.028  10.533
54689W        W27114  39.011  22.006  14.428
54690W        W27115  37.517  30.122  14.274
54691W        W27116  30.956  18.765   2.273
54692W        W27117   1.394   6.824  13.033
54693W        W27118   1.239  26.012   4.323
54694W        W27119  35.909  30.030  10.514
54695W        W27120  21.124   2.810  12.088
54696W        W27121  27.569   4.302  10.487
54697W        W27122   6.370  24.030   1.739
54698W        W27123   9.869  40.467  12.048
54699W        W27124  18.632   8.321  13.807
54700W        W27125  41.873  30.528  13.991
54701W        W27126  36.096  38.482  13.404
54702W        W27127  40.829   8.779   2.237
54703W        W27128   7.357  34.015   4.335
54704W        W27129  32.055   0.315  14.361
54705W        W27130   5.723  35.406   5.206
54706W        W27131  26.968   0.420   4.749
54707W        W27132  43.954  33.596   0.729
54708W        W27133  21.242  34.027  12.468
54709W        W27134  32.033  29.986   1.319
54710W        W27135  31.971   2.832   1.718
54711W        W27136  42.375  35.103  10.490
54712W        W27137  25.616  10.702  14.984
54713W        W27138  44.846  30.565   4.243
54714W        W27139  43.822   8.217   3.387
54715W        W27140  13.726  41.512   3.232
54716W        W27141  38.859  30.129   2.327
54717W        W27142  20.122  17.633  14.504
54718W        W27143  42.812  37.514   0.738
54719W        W27144  44.332  38.857  11.508
54720W        W27145   4.409   4.422   1.302
54721W        W27146  11.153   6.791   2.371
54722W        W27147  20.205  18.774   0.889
54723W        W27148  32.922  25.102  12.407
54724W        W27149  30.501  26.072  14.320
54725W        W27150   1.270  33.438  11.914
54726W        W27151  11.262   1.465   3.344
54727W        W27152  14.641  15.680   2.312
54728W        W27153  44.937  40.457   1.864
54729W        W27154  42.013  29.635  14.855
54730W        W27155  11.142  31.972  12.828
54731W        W27156  30.095  30.974  11.033
54732W        W27157  14.263  35.930   4.317
54733W        W27158   6.224  15.643   0.896
54734W        W27159  30.068  25.679   0.347
54735W        W27160  25.041   5.799  14.951
54736W        W27161   5.344  21.236   4.350
54737W        W27162  30.020   3.339  11.380
54738W        W27163   7.764  12.326   1.394
54739W        W27164  11.179   0.410   4.738
54740W        W27165   2.367   2.365  11.605
54741W        W27166  44.770   4.735   4.724
54742W        W27167   2.294  38.346  10.418
54743W        W27168   5.758  39.516  11.531
54744W        W27169  39.940  26.007  13.341
54745W        W27170  41.347  19.090   2.824
54746W        W27171   2.803   7.204   2.218
54747W        W27172   7.277  34.995   0.743
54748W        W27173  34.084   9.234   4.289
54749W        W27174  13.349  22.618  10.444
54750W        W27175  20.703  39.325   2.416
54751W        W27176  17.652  43.901   4.150
54752W        W27177  26.548  43.349   4.192
54753W        W27178   0.287   0.270  12.447
54754W        W27179   9.675  44.404   0.445
54755W        W27180  31.407  10.870   3.866
54756W        W27181  19.110  28.447  13.022
54757W        W27182  43.312  26.537  13.388
54758W        W27183  24.600  33.881   3.777
54759W        W27184  41.946  44.786   0.417
54760W        W27185  30.444  26.001  13.828
54761W        W27186  37.915  18.756  10.561
54762W        W27187  18.572  40.847  12.494
54763W        W27188  41.828   7.749   0.789
54764W        W27189  33.496  24.721  11.421
54765W        W27190  20.615  22.124   3.283
54766W        W27191   0.378  35.589  14.987
54767W        W27192  28.949  40.918   3.215
54768W        W27193  18.080  36.359  12.024
54769W        W27194  36.557  11.179  14.331
54770W        W27195  33.917   9.394   4.822
54771W        W27196  23.729  18.731  14.932
54772W        W27197  13.350  38.465   2.281
54773W        W27198   2.355  23.658  11.890
54774W        W27199  10.871  31.029  14.959
54775W        W27200   5.699  34.983  12.444
54776W        W27201   3.369  24.707   2.208
54777W        W27202  34.954  11.368   4.225
54778W        W27203  16.278  11.802  12.926
54779W        W27204  38.429  17.135  13.416
54780W        W27205  15.292  32.610   0.827
54781W        W27206  29.107  36.533  14.904
54782W        W27207  23.230  24.652  14.987
54783W        W27208  44.451  16.736  13.045
54784W        W27209  34.941  41.826   1.275
54785W        W27210   5.785  43.921  14.844
54786W        W27211  38.995   7.217   1.788
54787W        W27212  20.751   1.929   2.874
54788W        W27213   6.786  42.321   2.717
54789W        W27214  34.863  22.698   1.787
54790W        W27215  36.407  29.483   3.767
54791W        W27216  27.946  36.402  10.608
54792W        W27217  41.408  18.144  11.859
54793W        W27218  10.331  27.684  12.509
54794W        W27219  16.785  39.462  14.981
54795W        W27220  32.431  32.934   3.678
54796W        W27221  18.108  37.447  12.855
54797W        W27222  30.076  30.593   2.316
54798W        W27223   0.861   7.368  10.921
54799W        W27224  38.462   2.252   0.293
54800W        W27225  31.619  28.553   0.403
54801W        W27226  16.748  13.680   0.256
54802W        W27227  19.580  42.407  12.567
54803W        W27228  22.627  29.664  11.103
54804W        W27229  27.072  22.592  11.385
54805W        W27230  18.159  16.806  14.289
54806W        W27231  18.586  25.161  14.417
54807W        W27232  29.165   6.323   4.196
54808W        W27233  39.513  18.152   1.303
54809W        W27234  25.043  24.210  13.036
54810W        W27235  33.520   8.830   0.357
54811W        W27236  43.293  19.593   3.769
54812W        W27237  39.922  39.974   1.321
54813W        W27238  38.952  24.680  12.443
54814W        W27239  39.848  17.297   0.321
54815W        W27240   5.880  23.162  12.548
54816W        W27241  13.340  18.243   1.421
54817W        W27242  26.509  44.898  13.494
54818W        W27243   8.168   5.718  13.363
54819W        W27244  16.216  24.065   3.293
54820W        W27245  33.425  41.313  12.988
54821W        W27246  37.472   3.804   1.752
54822W        W27247  24.170   6.772   0.425
54823W        W27248  11.711   0.746   0.920
54824W        W27249  24.482  17.239  14.774
54825W        W27250  28.578  11.655  12.988
54826W        W27251  19.252   9.295   0.742
54827W        W27252  33.001  28.039   2.669
54828W        W27253  26.129  22.650   1.786
54829W        W27254  42.387  44.380   2.349
54830W        W27255  13.289  28.476  13.356
54831W        W27256  23.178  36.362   4.629
54832W        W27257  39.500   6.762   0.872
54833W        W27258  37.956   3.351   3.372
54834W        W27259  24.557  34.446   2.318
54835W        W27260  26.521  21.030  10.574
54836W        W27261  39.502   2.444  13.456
54837W        W27262  32.405  41.848  13.815
54838W        W27263  42.514  18.544  14.964
54839W        W27264  32.413   5.224   3.202
54840W        W27265   9.703  16.628   2.292
54841W        W27266  14.594  22.652   4.116
54842W        W27267  41.513  26.158  11.430
54843W        W27268  36.936  17.767   2.193
54844W        W27269  42.400  27.540   2.869
54845W        W27270  26.471  42.362   2.873
54846W        W27271  27.052  33.383   3.656
54847W        W27272   6.329  25.192   3.749
54848W        W27273  42.890  35.041  13.896
54849W        W27274  21.114  37.049   0.401
54850W        W27275   7.368  29.531  11.879
54851W        W27276   0.913  16.593   2.394
54852W        W27277  16.627  13.826   1.409
54853W        W27278  14.254  15.665  12.579
54854W        W27279  41.936  25.167  10.446
54855W        W27280   6.305  20.210  10.404
54856W        W27281  29.507  35.964   4.722
54857W        W27282   0.918  18.781   2.284
54858W        W27283  22.529  18.557  13.518
54859W        W27284   5.717  12.323  14.833
54860W        W27285  20.530  11.162   4.302
54861W        W27286   3.289  40.949   0.482
54862W        W27287  19.182  36.999  12.990
54863W        W27288  24.052  34.003  12.560
54864W        W27289  21.633  20.089   3.856
54865W        W27290  17.688  17.786  13.035
54866W        W27291  32.036  18.666   0.940
54867W        W27292  12.159  28.487  12.548
54868W        W27293  25.516  24.106  13.432
54869W        W27294  18.265   5.888   4.769
54870W        W27295  43.902   1.956   2.887
54871W        W27296  23.617  32.566   1.714
54872W        W27297  19.283  40.518  14.514
54873W        W27298  33.431  31.121  11.963
54874W        W27299   0.799   4.917   5.201
54875W        W27300  19.272  24.024  10.615
54876W        W27301  24.717  15.806   3.253
54877W        W27302  19.055  23.706   0.421
54878W        W27303   9.843  13.300   0.286
54879W        W27304  11.706  41.538  13.026
54880W        W27305   7.214  44.456   0.317
54881W        W27306  39.888  18.161  14.399
54882W        W27307  29.536   4.204  11.987
54883W        W27308  25.178  26.181   2.689
54884W        W27309  18.703  27.040   4.310
54885W        W27310  43.876  38.562   2.844
54886W        W27311  33.424  11.688  12.568
54887W        W27312  16.796   8.796  12.934
54888W        W27313  21.075   1.452   3.774
54889W        W27314  29.967   3.240   0.814
54890W        W27315   6.789  25.058  14.770
54891W        W27316   6.702  39.378  13.500
54892W        W27317   8.280   3.243  11.897
54893W        W27318  43.863  38.992  13.361
54894W        W27319  16.292  18.638  14.763
54895W        W27320  43.333  38.549  11.034
54896W        W27321  41.835  12.679   1.710
54897W        W27322  25.608  12.779  12.528
54898W        W27323   4.273  33.027   3.826
54899W        W27324  11.289   8.202  12.421
54900W        W27325  12.832  21.720   3.257
54901W        W27326   9.313  22.593   0.431
54902W        W27327  25.687  28.484   1.389
54903W        W27328  40.832  32.507  14.388
54904W        W27329  35.021  34.103  10.586
54905W        W27330  17.575  28.113  13.852
54906W        W27331   1.935  28.587   3.793
54907W        W27332   8.208  38.835   1.905
54908W        W27333  27.459   3.448   3.724
54909W        W27334  23.183  18.644   0.817
54910W        W27335  39.914  28.113  11.856
54911W        W27336  30.997  35.010  13.015
54912W        W27337  42.020   1.834   2.855
54913W        W27338  10.234  15.201   4.247
54914W        W27339   4.369  42.943   2.850
54915W        W27340  14.331  19.685  12.824
54916W        W27341  18.248  37.830   2.716
54917W        W27342   2.914  20.116  14.866
54918W        W27343  14.777  10.308  14.330
54919W        W27344  32.981  36.442  12.528
54920W        W27345  18.608  39.034   2.858
54921W        W27346  32.499  36.454   2.835
54922W        W27347   3.893  41.897   2.217
54923W        W27348  17.757  38.845  12.826
54924W        W27349  27.604  29.436  11.113
54925W        W27350   9.242   4.797   3.664
54926W        W27351  28.576  29.934   5.586
54927W        W27352   5.735  18.279  13.404
54928W        W27353   0.367  38.504   0.305
54929W        W27354  40.010  42.513  12.540
54930W        W27355   4.936  21.123  12.541
54931W        W27356  17.277  25.003   1.797
54932W        W27357  35.556   4.726   1.289
54933W        W27358  18.193   9.256   1.896
54934W        W27359   8.331  26.180   1.834
54935W        W27360  36.474   4.371   0.430
54936W        W27361  20.157  39.387  14.285
54937W        W27362  39.313  19.132  12.562
54938W        W27363  27.498  12.355  13.036
54939W        W27364  17.671  36.409  12.961
54940W        W27365  18.602   3.339   4.327
54941W        W27366  35.494  10.875   4.164
54942W        W27367   6.246   0.354   3.848
54943W        W27368   0.961  19.188   4.315
54944W        W27369  34.466  33.454  11.909
54945W        W27370  35.105  29.111  10.639
54946W        W27371   1.799   1.753   0.452
54947W        W27372   5.812   3.228   4.742
54948W        W27373  23.544  27.447  14.300
54949W        W27374  32.985  44.851   0.394
54950W        W27375   2.730  43.973   4.694
54951W        W27376  18.783  42.803   4.708
54952W        W27377  21.558  42.283   4.766
54953W        W27378  38.337  33.903   1.760
54954W        W27379  27.063   9.849  14.285
54955W        W27380  41.798  37.494   3.688
54956W        W27381  22.655   4.826  10.953
54957W        W27382  17.724  14.717   4.816
54958W        W27383   9.158  42.518  14.906
54959W        W27384  26.701  36.397  14.450
54960W        W27385   8.202   1.263  14.297
54961W        W27386  16.628   1.338   9.926
54962W        W27387   6.863  40.994   3.346
54963W        W27388  29.498  26.509  14.905
54964W        W27389  35.054  23.614   4.128
54965W        W27390   0.486  29.639   3.832
54966W        W27391  38.834  11.624  11.922
54967W        W27392   3.814  41.415   3.386
54968W        W27393   7.698  22.692   0.728
54969W        W27394  26.964  10.775  11.430
54970W        W27395  42.878  26.684  13.794
54971W        W27396   4.908   8.764  11.909
54972W        W27397  22.665  39.021  11.879
54973W        W27398  32.018  34.500   2.261
54974W        W27399  28.118  38.049  14.431
54975W        W27400  17.593  24.229   2.833
54976W        W27401  27.636   6.263  13.812
54977W        W27402  13.791   5.899   2.299
54978W        W27403  22.061  28.638   4.213
54979W        W27404   5.772  44.492   0.921
54980W        W27405  26.678  34.588   0.422
54981W        W27406  44.362  43.504  12.935
54982W        W27407  30.130  12.788   4.297
54983W        W27408   0.253   1.912  11.405
54984W        W27409  16.593  28.525   2.356
54985W        W27410  44.443  40.521  12.069
54986W        W27411  17.655  32.142   4.688
54987W        W27412  38.929  39.061   1.394
54988W        W27413  27.948  41.492  14.512
54989W        W27414  21.051  22.210   1.893
54990W        W27415   0.494  36.420  13.357
54991W        W27416   3.364  20.720   3.822
54992W        W27417  34.389  37.058  14.465
54993W        W27418   8.216  20.726  13.845
54994W        W27419  41.866   8.825  13.890
54995W        W27420  24.673  25.670  13.885
54996W        W27421  22.570   9.373   9.937
54997W        W27422   3.901  16.642  10.619
54998W        W27423  38.995  22.500  13.529
54999W        W27424  29.028  12.236   1.436
55000W        W27425  44.380  40.828  10.908
55001W        W27426  23.155  38.337   0.288
55002W        W27427  32.554  24.519   0.947
55003W        W27428  27.150  41.475  10.932
55004W        W27429  27.150  33.888   3.176
55005W        W27430  26.637  12.791  11.113
55006W        W27431  28.107  29.653  10.611
55007W        W27432   7.261  27.060   0.858
55008W        W27433  14.127  39.551  13.005
55009W        W27434  14.112  43.895  12.915
55010W        W27435   5.408  21.111   2.828
55011W        W27436   3.904  32.952   2.855
55012W        W27437  41.950  24.202  11.988
55013W        W27438  31.906  18.694  12.460
55014W        W27439   7.715  40.029   1.282
55015W        W27440  32.438  22.675   3.763
55016W        W27441  34.605  28.118   3.764
55017W        W27442   0.917   7.667   3.832
55018W        W27443  26.645  31.969   3.733
55019W        W27444  12.623  31.617   3.671
55020W        W27445   6.254  42.479  10.989
55021W        W27446  17.752  41.416  13.468
55022W        W27447  16.712  19.281  13.827
55023W        W27448  40.430  35.490  14.864
55024W        W27449  28.661  37.522   1.297
55025W        W27450  23.580  10.375  10.912
55026W        W27451   9.372  27.606  13.421
55027W        W27452  13.658  24.001  13.966
55028W        W27453  36.439  12.331  14.789
55029W        W27454  36.911  12.344   0.337
55030W        W27455  37.351  29.048  12.542
55031W        W27456  12.356  27.015  14.391
55032W        W27457  13.768  35.993   3.778
55033W        W27458  32.077  19.198  10.972
55034W        W27459  34.966  25.581  10.551
55035W        W27460  36.498  19.227   1.768
55036W        W27461  34.394  12.258  13.919
55037W        W27462   8.190  44.356   1.883
55038W        W27463  24.652  28.988   4.695
55039W        W27464  41.298  15.096   2.250
55040W        W27465   9.161   6.760   2.860
55041W        W27466  19.563   5.413   4.267
55042W        W27467  13.315  27.091   1.774
55043W        W27468  36.488  25.606   2.683
55044W        W27469   8.287   8.276   9.636
55045W        W27470  35.502   0.309   2.376
55046W        W27471   0.811  44.910   2.213
55047W        W27472  24.099  20.173  14.943
55048W        W27473  29.545  35.909  14.284
55049W        W27474  19.112  23.139  14.885
55050W        W27475  39.423  14.698   0.336
55051W        W27476  36.867  11.266  14.868
55052W        W27477   6.882  24.531  11.050
55053W        W27478  28.533  32.514   2.725
55054W        W27479  22.250  26.088   3.685
55055W        W27480  15.328  19.239  14.385
55056W        W27481  30.483   7.179  10.449
55057W        W27482   6.421  14.238   5.159
55058W        W27483  18.147   2.395  12.468
55059W        W27484  20.046  36.380   4.657
55060W        W27485  22.098   1.238   0.433
55061W        W27486  23.722  23.139   4.202
55062W        W27487  43.358  24.573  13.337
55063W        W27488  42.937  25.044  13.337
55064W        W27489  37.513   6.732   3.833
55065W        W27490   7.693   3.710  10.643
55066W        W27491  38.035  24.709   0.455
55067W        W27492   0.959  37.975  10.983
55068W        W27493  10.291   1.899  10.926
55069W        W27494  33.000  24.000   1.775
55070W        W27495  31.426  16.721  11.435
55071W        W27496  11.742   1.901   1.775
55072W        W27497  27.515  40.879  14.983
55073W        W27498   9.782  25.217  12.086
55074W        W27499  36.478  44.396   1.362
55075W        W27500   4.794  28.469  11.455
55076W        W27501  27.073   6.869   0.805
55077W        W27502  39.976  44.858   3.867
55078W        W27503   1.455   2.772   3.768
55079W        W27504   1.451  26.190   2.182
55080W        W27505   6.216  35.099   3.367
55081W        W27506   4.231  27.160  10.502
55082W        W27507  21.261   8.674  13.344
55083W        W27508  25.989  11.179  11.381
55084W        W27509   9.716   2.275  14.900
55085W        W27510  25.597  37.456   2.371
55086W        W27511   0.808  22.026  12.858
55087W        W27512  20.193   2.741   0.474
55088W        W27513  26.969  38.977  14.018
55089W        W27514  27.499  39.335  12.982
55090W        W27515   2.230  40.426   2.388
55091W        W27516  13.220  29.072   1.894
55092W        W27517  22.089  26.008   1.394
55093W        W27518  37.429  39.556   3.259
55094W        W27519  26.990  11.195  10.969
55095W        W27520  16.620  29.445   0.764
55096W        W27521  22.595  36.867  14.906
55097W        W27522  22.602  33.489  10.556
55098W        W27523   6.273  37.498  13.487
55099W        W27524  14.167  35.858   1.832
55100W        W27525  18.284  38.411   2.781
55101W        W27526  30.436   2.794  11.893
55102W        W27527   2.420  18.095   1.380
55103W        W27528   8.775  10.278  14.977
55104W        W27529  14.137  33.977  12.557
55105W        W27530  12.744  27.625  11.596
55106W        W27531  38.561   8.722   3.867
55107W        W27532   1.443  31.968   2.206
55108W        W27533  36.976  22.511   2.379
55109W        W27534  15.780  40.320  11.564
55110W        W27535  30.985  34.527   3.378
55111W        W27536  29.143  40.970  11.510
55112W        W27537  43.379   8.248   3.338
55113W        W27538  32.619  20.035   2.245
55114W        W27539   1.838  23.736  11.591
55115W        W27540   6.808  35.415   3.763
55116W        W27541  20.056  42.935   1.847
55117W        W27542  23.212  10.230   9.504
55118W        W27543  22.210  17.151   0.407
55119W        W27544  43.314   5.390   1.299
55120W        W27545  22.696  34.873   2.901
55121W        W27546  13.746  26.145   4.634
55122W        W27547  17.607  43.976   0.455
55123W        W27548  25.198   3.359  13.968
55124W        W27549  22.501  39.881   4.826
55125W        W27550  11.180  41.403  13.792
55126W        W27551  16.792  43.501   4.306
55127W        W27552  40.485  33.974  10.421
55128W        W27553   0.961  19.730  12.826
55129W        W27554  24.978  28.473  12.476
55130W        W27555  31.411  25.024   1.912
55131W        W27556  44.372  27.996   3.692
55132W        W27557  22.224  36.555   3.859
55133W        W27558  28.436  34.027   2.697
55134W        W27559   2.868  35.438  14.325
55135W        W27560  20.531  39.359   4.703
55136W        W27561  40.041  15.622   0.790
55137W        W27562   5.820  36.065  13.410
55138W        W27563  13.220  24.012  10.508
55139W        W27564  18.129   3.417   1.290
55140W        W27565  42.973  27.116   2.219
55141W        W27566  28.954   1.349   2.775
55142W        W27567  44.436  12.260   0.424
55143W        W27568  25.569  23.131   0.313
55144W        W27569  22.682  32.415   0.783
55145W        W27570  36.460  16.614  12.454
55146W        W27571   4.743  29.106   3.376
55147W        W27572   5.738  27.548   1.386
55148W        W27573  30.481  43.297  14.983
55149W        W27574   7.854   3.923   3.821
55150W        W27575   5.743  15.684  13.387
55151W        W27576  23.097   1.948  13.814
55152W        W27577  13.751  40.504   2.247
55153W        W27578  34.545  15.771  13.829
55154W        W27579   5.358  22.101   1.821
55155W        W27580  10.190  36.556   3.803
55156W        W27581   0.303  19.755  14.435
55157W        W27582  42.944   6.304   0.789
55158W        W27583  25.536  19.740  10.894
55159W        W27584  11.159  30.970   1.929
55160W        W27585   6.891  28.674  11.539
55161W        W27586  32.040  42.458  13.534
55162W        W27587   7.416  27.196  14.976
55163W        W27588  24.051  30.103   1.793
55164W        W27589   1.811  34.552  11.028
55165W        W27590  21.257   9.769  12.025
55166W        W27591  18.281  38.936   2.849
55167W        W27592  15.737  27.619  11.606
55168W        W27593  44.948   0.467  13.459
55169W        W27594  16.606  40.012   1.307
55170W        W27595  44.260  28.577  13.427
55171W        W27596  17.158  20.219   3.202
55172W        W27597  12.746  21.733  10.440
55173W        W27598  27.115  21.229  12.841
55174W        W27599   1.860  18.057  14.329
55175W        W27600  18.161  38.402   4.667
55176W        W27601   9.273  25.613  14.769
55177W        W27602  41.846  28.965   0.885
55178W        W27603   6.333  18.240   1.231
55179W        W27604   8.337  30.434   3.206
55180W        W27605  31.551  12.612   3.319
55181W        W27606  36.940  23.007   5.110
55182W        W27607  21.134   6.715   4.330
55183W        W27608  38.409  33.922   2.670
55184W        W27609  34.544   8.681  11.017
55185W        W27610   2.913  32.040   2.348
55186W        W27611  16.695  42.794  12.077
55187W        W27612  39.915   8.243   0.873
55188W        W27613  36.378  37.901  10.938
55189W        W27614  35.372   1.379   4.686
55190W        W27615  44.454  40.910  14.900
55191W        W27616  40.873  32.995  12.093
55192W        W27617  26.662  17.180  11.470
55193W        W27618  17.104  31.406   9.961
55194W        W27619  24.562  31.099   3.228
55195W        W27620  38.000   0.382   4.352
55196W        W27621  38.505   6.772  12.905
55197W        W27622  14.300   5.750  12.876
55198W        W27623  22.231  18.604   1.898
55199W        W27624  31.610  37.083  12.892
55200W        W27625  17.177  39.910   1.807
55201W        W27626   7.321  20.065  12.031
55202W        W27627  13.122  29.460  13.523
55203W        W27628  22.995  31.934  12.470
55204W        W27629  20.682   3.933  13.827
55205W        W27630  16.166  26.484   1.859
55206W        W27631  29.461  21.628  11.450
55207W        W27632  17.640  26.563  11.889
55208W        W27633  31.498   3.906  11.533
55209W        W27634   8.839  23.595  10.596
55210W        W27635  33.559  35.541   1.403
55211W        W27636  14.257  11.314   0.330
55212W        W27637   6.894  23.588   2.877
55213W        W27638  39.816  25.601  10.589
55214W        W27639   3.914  27.137   0.797
55215W        W27640  33.480  19.583  12.020
55216W        W27641  24.098  42.963  12.578
55217W        W27642  14.285  23.197   1.862
55218W        W27643   8.780   7.754   3.732
55219W        W27644  30.970  19.706   3.694
55220W        W27645  21.636  43.329  11.393
55221W        W27646  31.004  30.568  10.443
55222W        W27647  27.572  33.619  13.910
55223W        W27648  35.920  28.964  13.872
55224W        W27649  13.708  44.327  11.039
55225W        W27650  24.713  43.284   4.666
55226W        W27651   3.362  33.503   4.207
55227W        W27652  16.606  16.192   0.773
55228W        W27653   8.378  34.577   2.383
55229W        W27654  15.756  32.402   4.221
55230W        W27655  35.381  11.217   2.821
55231W        W27656  24.179  11.274   0.833
55232W        W27657  18.615  12.613  11.389
55233W        W27658   5.404  25.087   2.204
55234W        W27659  32.094  40.405  12.894
55235W        W27660   6.809  30.063   0.278
55236W        W27661  29.115  35.458   0.445
55237W        W27662   9.236   5.219   1.781
55238W        W27663  35.507  33.037  10.911
55239W        W27664  11.338  26.551   0.818
55240W        W27665  21.118  36.388  14.312
55241W        W27666  31.983   7.355  14.363
55242W        W27667  14.640   2.261   1.736
55243W        W27668  41.932  23.720  14.805
55244W        W27669  12.253  42.820   2.318
55245W        W27670  40.314  11.335   0.929
55246W        W27671   5.755  35.396  10.612
55247W        W27672  44.280  29.175   3.304
55248W        W27673  11.161  43.309   3.787
55249W        W27674  32.487  40.965   3.864
55250W        W27675  22.647   8.262  11.973
55251W        W27676  30.120  40.546   1.430
55252W        W27677  23.016  28.982   2.291
55253W        W27678   0.770  37.990  14.454
55254W        W27679  20.243  30.160  10.063
55255W        W27680  33.972  44.866   1.420
55256W        W27681  39.991  38.037  11.924
55257W        W27682  29.094   5.873   2.391
55258W        W27683  37.945   0.827  10.492
55259W        W27684  38.899   6.892  13.464
55260W        W27685   5.826  28.492   1.810
55261W        W27686   8.785  20.115   1.306
55262W        W27687  27.166  29.979   3.208
55263W        W27688  19.224  33.088   9.563
55264W        W27689   6.725  10.843  10.488
55265W        W27690  19.687  20.547   3.650
55266W        W27691  39.066  27.674  12.354
55267W        W27692  35.923  15.624   1.375
55268W        W27693   9.208   6.841   0.864
55269W        W27694  23.523  17.668   1.826
55270W        W27695  38.867  12.135   3.678
55271W        W27696  42.297  40.495   0.348
55272W        W27697  43.272  19.675  14.407
55273W        W27698  44.415  44.859  12.562
55274W        W27699  38.956  30.022   0.932
55275W        W27700  40.492  12.791  14.840
55276W        W27701   3.234  30.944  13.951
55277W        W27702   9.194   8.786  13.409
55278W        W27703  35.865  34.429  11.892
55279W        W27704  29.516   5.791   2.264
55280W        W27705   5.777  24.096   2.241
55281W        W27706  11.825  23.055  12.996
55282W        W27707  28.980  36.930  12.937
55283W        W27708  33.426  21.257   3.354
55284W        W27709  33.904  17.106  13.484
55285W        W27710   2.951   2.331   3.827
55286W        W27711  27.981  16.073   2.853
55287W        W27712  43.881  17.098  10.464
55288W        W27713   2.266   7.803   2.336
55289W        W27714  17.712  28.562  14.847
55290W        W27715  12.156  13.773  14.968
55291W        W27716  38.545  15.216   4.224
55292W        W27717  31.935  24.191  10.908
55293W        W27718  28.591  24.062  11.010
55294W        W27719  21.711  42.401   1.363
55295W        W27720  35.971  15.607  12.950
55296W        W27721  42.926  39.531  11.493
55297W        W27722  18.667  35.985   1.825
55298W        W27723  13.165  25.548   3.172
55299W        W27724  20.718  27.179   3.844
55300W        W27725  34.491   3.746   2.851
55301W        W27726  10.227  26.084   2.689
55302W        W27727  12.759  13.133   3.640
55303W        W27728  28.166  13.300   1.870
55304W        W27729  24.516  41.986  14.893
55305W        W27730  41.344  11.733   3.811
55306W        W27731  11.645  22.563  12.352
55307W        W27732  29.429  39.009   1.771
55308W        W27733  28.947  38.350  14.365
55309W        W27734  30.420  23.077   3.722
55310W        W27735  42.365   3.846  14.395
55311W        W27736  11.286   9.711  11.490
55312W        W27737   4.900  32.963   3.782
55313W        W27738  22.668  19.777  10.642
55314W        W27739   4.726   8.749  13.948
55315W        W27740   1.977   7.893   0.266
55316W        W27741   8.734  28.594  14.280
55317W        W27742  12.674  25.674  13.961
55318W        W27743   5.764  15.203   2.323
55319W        W27744   3.925   4.359  13.487
55320W        W27745  43.815  36.391  13.345
55321W        W27746  38.425  36.900  13.383
55322W        W27747  27.027  44.882  10.495
55323W        W27748  17.213   7.758   3.316
55324W        W27749   1.865  16.151   4.736
55325W        W27750  44.849  43.420  13.434
55326W        W27751  27.028  22.620  10.601
55327W        W27752  10.787  10.176   2.662
55328W        W27753  19.702   2.874   1.322
55329W        W27754  15.313  28.147  14.855
55330W        W27755  26.528  43.828  12.875
55331W        W27756  35.994  25.678  11.901
55332W        W27757  42.423   2.432  11.011
55333W        W27758  31.519  44.770   1.433
55334W        W27759  14.646  27.639  13.358
55335W        W27760  14.127   9.219   2.725
55336W        W27761   1.883  25.063  13.973
55337W        W27762  23.517  37.413  11.118
55338W        W27763   4.750  27.517  11.556
55339W        W27764   9.233  39.469  12.054
55340W        W27765  21.119  36.863  14.384
55341W        W27766   9.764  19.670   2.757
55342W        W27767  16.675   6.731   4.290
55343W        W27768  35.090  41.870  12.061
55344W        W27769   9.193  30.009   3.685
55345W        W27770  38.901  31.103   4.716
55346W        W27771  21.653  11.203  10.519
55347W        W27772  23.048  34.538  10.614
55348W        W27773  10.322  24.083  14.446
55349W        W27774   1.866  43.001   2.884
55350W        W27775  20.732  29.550  12.985
55351W        W27776  14.246   9.832   3.274
55352W        W27777  11.266   7.778   1.918
55353W        W27778  27.080  37.388  14.514
55354W        W27779  13.764  19.089   3.176
55355W        W27780  26.475  12.718   3.743
55356W        W27781  24.061  25.579  10.973
55357W        W27782  12.745  31.036  14.317
55358W        W27783  23.128  30.464   3.203
55359W        W27784  14.738  10.367   1.344
55360W        W27785  16.691  19.250   1.344
55361W        W27786  39.984  26.208  12.929
55362W        W27787  14.643   9.776  11.453
55363W        W27788  32.134   3.405   0.823
55364W        W27789  14.338  11.830   1.827
55365W        W27790  13.758  32.395   4.802
55366W        W27791  23.074   6.845   3.372
55367W        W27792  35.998   0.931  14.286
55368W        W27793  39.371  39.432  10.590
55369W        W27794   5.757  10.150  14.469
55370W        W27795   9.335   4.238  14.491
55371W        W27796  36.027  40.342  11.075
55372W        W27797  39.888  25.589  14.939
55373W        W27798  32.974  40.503   2.183
55374W        W27799  28.490  26.079  14.404
55375W        W27800  22.134  30.998  14.848
55376W        W27801  41.964   3.311  10.015
55377W        W27802  31.505  43.958   3.830
55378W        W27803  35.966  33.951   3.846
55379W        W27804  42.929  11.326  14.383
55380W        W27805  12.324   0.815  11.425
55381W        W27806   6.775  21.638  11.938
55382W        W27807  10.176  21.606  13.856
55383W        W27808  24.125   8.708  11.996
55384W        W27809  40.509   6.226  13.436
55385W        W27810  34.929  21.590  11.580
55386W        W27811  11.285  24.646   2.754
55387W        W27812  42.353  30.923  10.430
55388W        W27813  16.092   9.269   2.802
55389W        W27814  34.463  19.108   3.781
55390W        W27815  17.613  41.501   0.731
55391W        W27816  39.868  34.421   1.333
55392W        W27817  14.756  24.094  10.910
55393W        W27818  40.303  33.935  14.477
55394W        W27819  29.522  28.497  14.337
55395W        W27820  28.438  33.608  12.356
55396W        W27821  33.955  26.703   2.243
55397W        W27822  15.209  29.011  11.930
55398W        W27823  36.428   6.786  10.432
55399W        W27824  25.182  21.136  11.060
55400W        W27825  12.156  33.062   2.183
55401W        W27826  40.346  38.445  10.957
55402W        W27827  36.075  36.919  14.002
55403W        W27828   2.373  28.944  10.518
55404W        W27829  11.243  28.975  13.862
55405W        W27830  20.523   0.879  10.956
55406W        W27831   4.209  36.395   2.795
55407W        W27832  10.663  20.619   3.682
55408W        W27833  21.061  15.101  13.832
55409W        W27834  42.927  37.391   3.847
55410W        W27835   5.747  42.427   1.300
55411W        W27836  27.558  24.620  12.023
55412W        W27837  25.019  17.214  12.395
55413W        W27838  31.920  41.993   3.215
55414W        W27839  18.201  17.737   3.156
55415W        W27840  14.654  26.130  14.783
55416W        W27841  12.349   2.345   1.863
55417W        W27842  40.966  15.686  11.012
55418W        W27843  28.476  34.428  11.455
55419W        W27844  35.406  29.983   2.269
55420W        W27845  24.156  41.872  12.073
55421W        W27846  43.460  44.776  13.890
55422W        W27847  29.082  39.907  13.063
55423W        W27848  23.053  37.940   0.907
55424W        W27849  18.186  35.482   4.665
55425W        W27850   2.343  43.272   0.926
55426W        W27851   0.960  39.002  12.393
55427W        W27852  31.013  15.087  12.017
55428W        W27853  39.878  21.205   0.431
55429W        W27854  33.972  40.906  14.391
55430W        W27855  31.142  40.535  14.451
55431W        W27856  17.690  39.489  13.437
55432W        W27857  10.317  44.496   4.712
55433W        W27858   8.378  32.906   3.863
55434W        W27859  14.118  22.119  12.062
55435W        W27860  13.346  18.646   4.755
55436W        W27861   9.821  25.050   0.950
55437W        W27862   8.278   2.244   1.883
55438W        W27863  12.669  24.482   0.835
55439W        W27864   9.346  39.399   4.728
55440W        W27865  17.259  22.200  11.411
55441W        W27866  23.057   1.459   2.225
55442W        W27867   8.284  40.980   0.343
55443W        W27868   1.354  31.468   0.956
55444W        W27869   1.792  17.183   4.710
55445W        W27870   8.198  13.624  13.829
55446W        W27871   7.885  33.473  13.421
55447W        W27872  35.026  23.604  11.101
55448W        W27873  16.590  31.972   9.645
55449W        W27874  14.803  41.860  13.474
55450W        W27875   3.769   5.283  10.951
55451W        W27876  30.934   5.281   4.762
55452W        W27877  43.307   6.369  11.038
55453W        W27878  24.180  32.108  11.540
55454W        W27879   9.179   9.229  10.431
55455W        W27880  34.098  26.135  11.397
55456W        W27881  20.696  30.103  11.924
55457W        W27882  34.534  26.205   0.262
55458W        W27883  18.642  43.875  12.948
55459W        W27884  30.006  24.018  11.909
55460W        W27885  42.931  18.605  12.930
55461W        W27886   3.765  27.977  14.472
55462W        W27887  32.027  37.465   5.116
55463W        W27888   5.403  44.269   2.858
55464W        W27889  39.858  40.456   3.360
55465W        W27890  30.538  15.282   4.236
55466W        W27891  21.103  25.487   0.947
55467W        W27892   5.773   4.254  13.471
55468W        W27893  32.122   1.355   0.441
55469W        W27894   5.239   6.423  12.847
55470W        W27895   3.809  37.921   1.414
55471W        W27896   9.360  29.116  10.989
55472W        W27897  25.523   1.266  12.565
55473W        W27898  17.793   2.871   9.460
55474W        W27899  38.459  24.082  10.041
55475W        W27900   9.801  43.786   4.257
55476W        W27901  11.780  25.002   0.965
55477W        W27902  13.120  33.983  10.560
55478W        W27903  30.622  31.486  11.416
55479W        W27904  37.340  40.373  12.548
55480W        W27905  37.508  38.412  14.829
55481W        W27906  15.732  41.478  12.417
55482W        W27907  33.445  39.431   4.716
55483W        W27908   8.870  10.239   4.122
55484W        W27909  14.101  41.930  10.532
55485W        W27910  22.548  36.983  12.987
55486W        W27911   3.907  30.111  14.816
55487W        W27912  10.235  42.436  14.473
55488W        W27913  29.987   6.215  12.488
55489W        W27914  38.917  12.280  11.410
55490W        W27915   0.903   6.335   4.775
55491W        W27916  21.560  27.532   2.368
55492W        W27917  13.115  32.585   2.217
55493W        W27918  26.184   6.781   4.250
55494W        W27919  41.001  43.902  11.551
55495W        W27920  19.217   8.868  13.822
55496W        W27921  28.109  41.307  12.089
55497W        W27922   7.197  38.005   1.334
55498W        W27923   6.908  39.519  12.847
55499W        W27924   6.240  23.598   4.115
55500W        W27925   5.217  16.663   4.606
55501W        W27926  23.146  38.483  14.791
55502W        W27927  30.153  42.339  13.418
55503W        W27928   4.924  27.108  13.965
55504W        W27929  21.753  15.113   2.330
55505W        W27930  22.017  28.501   3.804
55506W        W27931  38.359  43.962   4.343
55507W        W27932  34.491  38.828  12.477
55508W        W27933   8.173  22.163   4.298
55509W        W27934  11.820  39.057   3.248
55510W        W27935  19.240  23.038  13.823
55511W        W27936  32.906   8.739  11.991
55512W        W27937  18.255   1.871  11.544
55513W        W27938   9.320  41.926  11.418
55514W        W27939  20.259  42.830  10.159
55515W        W27940   7.783  22.086  11.861
55516W        W27941  34.094  11.144  14.428
55517W        W27942  39.445  44.332  12.558
55518W        W27943  20.191  26.500  10.902
55519W        W27944   6.719  42.378  13.398
55520W        W27945  30.414  40.003   3.833
55521W        W27946  42.292  13.829   2.400
55522W        W27947  37.392   8.662  12.018
55523W        W27948  33.015  40.838  12.459
55524W        W27949  26.494  44.002  14.405
55525W        W27950  31.068  28.577  14.032
55526W        W27951   7.881  16.664   3.258
55527W        W27952  22.194   9.266   3.213
55528W        W27953  32.505  35.003  11.912
55529W        W27954  10.245  42.942   4.164
55530W        W27955  26.987  27.692  14.416
55531W        W27956  17.635  28.515  11.436
55532W        W27957  23.661  32.450  14.863
55533W        W27958   2.809   4.356   1.908
55534W        W27959  28.053  12.711   3.332
55535W        W27960  21.086  38.881  11.101
55536W        W27961   5.775  24.129  13.460
55537W        W27962  13.252  44.373  11.866
55538W        W27963   8.782  10.151   1.783
55539W        W27964  29.493  21.148  14.867
55540W        W27965  31.963  12.626   3.757
55541W        W27966  37.491  11.218  10.622
55542W        W27967   3.245  42.908   1.265
55543W        W27968  28.038   6.398   5.219
55544W        W27969  15.670   4.767   0.424
55545W        W27970  26.516  34.031  11.088
55546W        W27971  25.967  38.924  11.122
55547W        W27972   6.245  29.491   0.289
55548W        W27973  19.587  38.550   3.152
55549W        W27974  40.350  44.478  14.512
55550W        W27975  24.994  44.472   0.854
55551W        W27976  10.646  30.577  14.403
55552W        W27977  19.728  22.529   1.242
55553W        W27978  43.881   7.197  12.561
55554W        W27979   5.742  14.724  11.398
55555W        W27980  23.153  16.664  11.436
55556W        W27981  19.209  36.936  14.447
55557W        W27982  31.476   4.249   4.292
55558W        W27983  16.278  29.085   2.876
55559W        W27984  28.675  14.788   2.808
55560W        W27985  44.828  27.053   0.475
55561W        W27986  36.939  11.773   2.180
55562W        W27987  37.955  39.455   1.872
55563W        W27988  14.661  22.033   9.590
55564W        W27989  15.754  19.281   4.299
55565W        W27990  39.389  10.287   3.167
55566W        W27991  36.905   7.743  11.466
55567W        W27992  11.228   8.351   4.237
55568W        W27993   0.460   9.301   1.358
55569W        W27994  21.583  44.476   4.225
55570W        W27995  27.986  37.542  13.368
55571W        W27996  23.685   9.863  12.352
55572W        W27997   4.255  23.072   4.264
55573W        W27998  36.528  33.555  14.805
55574W        W27999  28.045  35.063  10.953
55575W        W28000  25.988  34.379  11.909
55576W        W28001   9.376   3.812   3.659
55577W        W28002  35.992  25.543  11.024
55578W        W28003  39.348  11.161   3.664
55579W        W28004  38.894  11.751  13.805
55580W        W28005  44.994  11.856   1.797
55581W        W28006  10.748  24.998   2.357
55582W        W28007  39.388  38.540  12.076
55583W        W28008  42.843   7.810  10.628
55584W        W28009  31.930  33.410  14.428
55585W        W28010   7.290   8.820   0.464
55586W        W28011  25.584  32.917  11.579
55587W        W28012   6.868  21.054  11.525
55588W        W28013  10.737   9.709  13.948
55589W        W28014  16.316   6.191   4.824
55590W        W28015  31.560  15.654  11.480
55591W        W28016  37.499   6.387  14.774
55592W        W28017  25.049  18.146  13.540
55593W        W28018   9.156  14.807  11.036
55594W        W28019  30.582   4.294  12.486
55595W        W28020  27.498  38.036   0.967
55596W        W28021  21.598  26.205  11.411
55597W        W28022  12.649  22.737  11.524
55598W        W28023  40.368   6.750  13.491
55599W        W28024  28.055  37.518  12.040
55600W        W28025   3.405   4.405  12.339
55601W        W28026  11.292  43.364  11.996
55602W        W28027   2.424  38.030   0.758
55603W        W28028  10.658  33.402  14.383
55604W        W28029  44.388  44.902   0.887
55605W        W28030  19.719  36.439  13.472
55606W        W28031  36.504  35.591   4.246
55607W        W28032  37.466  23.110  14.761
55608W        W28033   7.871   3.860   2.317
55609W        W28034  19.205  20.719   1.756
55610W        W28035  42.897  31.963  13.832
55611W        W28036  28.669  25.149  12.033
55612W        W28037  28.963  15.172  14.505
55613W        W28038  40.517  25.172   1.407
55614W        W28039   9.156   8.276  13.460
55615W        W28040  28.569  27.004  10.927
55616W        W28041  22.019   0.383  11.960
55617W        W28042  22.615  40.366  12.978
55618W        W28043  15.106  22.689   5.298
55619W        W28044  11.770  26.581  14.469
55620W        W28045  41.298  17.646   2.347
55621W        W28046  18.152   0.977  14.411
55622W        W28047  16.725  24.619   0.394
55623W        W28048   5.788  33.089  12.425
55624W        W28049  40.952   3.759   4.644
55625W        W28050  23.715  31.014   0.908
55626W        W28051  23.611  36.890  11.952
55627W        W28052  20.588   2.293  14.029
55628W        W28053  13.322  21.095   2.663
55629W        W28054  41.026  12.153  13.407
55630W        W28055  20.179  17.143  12.920
55631W        W28056  39.993  30.160  12.478
55632W        W28057  18.240  12.351   3.806
55633W        W28058  11.688   3.278  14.292
55634W        W28059  18.612  39.400  13.967
55635W        W28060  10.730   6.377   4.599
55636W        W28061  34.044  35.045   4.694
55637W        W28062   6.687  44.812  11.876
55638W        W28063   8.755  26.551  11.505
55639W        W28064  12.697   6.911   1.258
55640W        W28065  40.332  15.806  12.905
55641W        W28066  36.396  30.985  13.520
55642W        W28067  11.690  29.084  10.033
55643W        W28068  35.902  23.155  13.453
55644W        W28069  30.971  28.554   2.332
55645W        W28070   2.408  36.975   4.197
55646W        W28071  17.192  27.663   4.672
55647W        W28072  37.524   2.310   1.319
55648W        W28073   3.287   3.392   2.740
55649W        W28074  25.110   6.411   1.234
55650W        W28075  36.403  39.908   0.456
55651W        W28076  44.475  36.050   1.295
55652W        W28077  35.973  15.628  11.009
55653W        W28078  40.880  28.532  13.010
55654W        W28079   4.701  10.170  14.011
55655W        W28080  15.311  38.856  14.474
55656W        W28081  29.531  37.900  14.795
55657W        W28082   8.324  21.136   4.637
55658W        W28083  29.500  10.685  11.518
55659W        W28084   2.428  13.250   0.467
55660W        W28085  39.521  37.340   0.885
55661W        W28086   6.182  17.098   0.368
55662W        W28087   5.916  14.622   1.400
55663W        W28088  31.614   2.832  10.481
55664W        W28089  35.419   2.766  10.604
55665W        W28090  10.173  31.971  14.970
55666W        W28091   6.306  23.131  11.123
55667W        W28092  34.399   6.208  13.044
55668W        W28093  25.067  13.290  13.898
55669W        W28094   1.881  39.847   0.872
55670W        W28095  38.423  40.526  10.640
55671W        W28096   9.836  25.545   4.694
55672W        W28097  23.173  10.752  13.875
55673W        W28098  15.184  26.605   2.398
55674W        W28099   9.789  16.286  10.991
55675W        W28100  22.717  29.113   0.782
55676W        W28101  22.185  26.648  12.867
55677W        W28102  40.859  30.501   3.736
55678W        W28103  20.081  30.417  13.494
55679W        W28104  15.653  24.019   2.866
55680W        W28105   5.201   9.868   0.822
55681W        W28106  30.087  16.102  14.873
55682W        W28107  16.779  11.754   3.275
55683W        W28108  20.267  34.597   4.350
55684W        W28109   5.344  41.946   3.717
55685W        W28110  28.550  18.207  12.418
55686W        W28111  30.611  38.567   3.176
55687W        W28112   9.682  15.631   2.234
55688W        W28113   7.192  37.074   4.259
55689W        W28114  21.133  28.186  10.492
55690W        W28115  26.623   0.761  10.529
55691W        W28116   1.944  33.922  11.473
55692W        W28117  11.749  10.290   3.167
55693W        W28118  30.607  17.298   1.707
55694W        W28119   2.369  33.009   2.705
55695W        W28120  38.927  10.195   2.821
55696W        W28121  41.030  40.512   1.381
55697W        W28122   8.301  29.964   0.299
55698W        W28123   8.289  33.490  10.445
55699W        W28124  39.460  10.346  13.501
55700W        W28125   3.224  39.916  12.836
55701W        W28126  21.635   4.205  14.768
55702W        W28127  26.094  29.988  10.435
55703W        W28128  19.039  39.854   1.420
55704W        W28129  21.719  13.788   3.207
55705W        W28130  28.044  14.798  13.323
55706W        W28131  43.452  25.079  14.861
55707W        W28132  35.542  29.471  11.534
55708W        W28133  43.856  44.370   3.774
55709W        W28134  20.107  34.888  11.562
55710W        W28135  30.046  23.118  12.374
55711W        W28136  12.732  44.881  11.514
55712W        W28137  44.930  42.471   1.226
55713W        W28138   6.362  11.176   1.252
55714W        W28139  17.136  20.725   1.219
55715W        W28140   1.764  20.549   2.682
55716W        W28141  10.309  38.032  13.500
55717W        W28142  10.321  36.906   2.244
55718W        W28143  24.218  32.461  14.515
55719W        W28144  44.982  27.557  12.489
55720W        W28145  18.060   8.746  12.048
55721W        W28146   4.375  41.494   3.265
55722W        W28147  42.518  41.412  11.490
55723W        W28148  10.664  43.815  10.533
55724W        W28149   4.402   7.392  10.531
55725W        W28150  17.091  10.307  10.488
55726W        W28151   2.899   4.326   2.327
55727W        W28152   8.719  19.724   2.222
55728W        W28153   8.379  22.192  14.932
55729W        W28154   6.838   4.763  10.922
55730W        W28155  26.487   2.956   0.326
55731W        W28156  21.051  32.476  13.378
55732W        W28157  25.680  35.929  13.926
55733W        W28158  34.456  42.958  12.360
55734W        W28159  14.803  42.329  14.398
55735W        W28160   0.315  33.026   4.781
55736W        W28161  26.075   0.479   3.744
55737W        W28162  16.658  43.973   0.730
55738W        W28163  25.139  38.502   1.440
55739W        W28164   9.759  28.651   0.419
55740W        W28165  23.139  21.723  13.448
55741W        W28166  25.090  31.919  14.906
55742W        W28167  41.388  26.475  10.937
55743W        W28168  40.424  35.359   1.732
55744W        W28169   3.374   8.764  11.468
55745W        W28170  32.611  33.026   2.214
55746W        W28171   1.870  12.755   3.322
55747W        W28172  35.469  22.708  13.944
55748W        W28173   0.848  22.612  10.525
55749W        W28174  35.043   5.737  13.326
55750W        W28175  17.676  30.134   5.701
55751W        W28176  10.663   3.351  11.887
55752W        W28177   8.320  22.679  11.459
55753W        W28178  31.562  38.915  11.529
55754W        W28179  33.561  30.656   5.152
55755W        W28180  14.673   0.455   1.827
55756W        W28181  40.331  16.661  13.861
55757W        W28182  15.602  22.235  14.027
55758W        W28183  17.234  14.124  12.418
55759W        W28184  25.696  36.471   4.694
55760W        W28185  12.259  42.463  14.510
55761W        W28186   0.883  10.867  11.979
55762W        W28187  38.490  27.109   1.739
55763W        W28188  12.125   0.795   1.838
55764W        W28189   8.782  15.286   1.416
55765W        W28190  31.978  44.956   2.892
55766W        W28191  37.497  39.397  11.391
55767W        W28192  42.503  21.719  11.006
55768W        W28193   1.328  14.659   3.803
55769W        W28194  27.452   8.865   3.376
55770W        W28195  29.537  38.483   2.193
55771W        W28196  24.686  28.168   2.784
55772W        W28197  13.830  38.925  13.320
55773W        W28198  20.139  36.045   4.287
55774W        W28199  33.005  25.680   0.264
55775W        W28200  32.902  25.476  13.051
55776W        W28201  18.254  21.223  14.965
55777W        W28202  20.567  22.164   2.899
55778W        W28203  42.828  11.805   0.946
55779W        W28204   2.855  13.809   2.304
55780W        W28205  17.238   5.896  11.938
55781W        W28206  18.239   3.333   3.195
55782W        W28207  34.534   7.685   1.451
55783W        W28208  25.535  13.727  12.461
55784W        W28209   7.899   9.394   1.731
55785W        W28210  14.230  41.434   1.932
55786W        W28211  26.165  15.609  14.963
55787W        W28212  36.415  20.030   4.704
55788W        W28213  28.059  39.358   0.851
55789W        W28214  24.991  29.467  11.108
55790W        W28215  26.693  27.175   2.839
55791W        W28216  43.974  10.711  11.932
55792W        W28217  44.990  14.654  12.890
55793W        W28218   2.924  43.932   2.294
55794W        W28219  23.555  29.652   0.896
55795W        W28220  36.368  42.015   1.394
55796W        W28221   1.334  31.903   5.146
55797W        W28222  25.639  26.035   3.227
55798W        W28223   6.788  17.643   3.808
55799W        W28224  25.595  29.132  12.080
55800W        W28225   6.739  29.566  10.608
55801W        W28226  17.250  20.250   4.137
55802W        W28227  33.119  26.163   3.358
55803W        W28228  19.266   1.893  13.927
55804W        W28229   0.316  23.531  12.051
55805W        W28230  16.636  27.572  13.315
55806W        W28231   4.766  14.313   2.344
55807W        W28232   6.401  20.595  14.802
55808W        W28233  19.136  19.171   0.446
55809W        W28234   4.707   4.311  13.954
55810W        W28235   8.234  17.106  14.013
55811W        W28236   5.271  14.190   1.918
55812W        W28237   5.733   0.338  13.376
55813W        W28238  27.946  22.135  11.386
55814W        W28239  30.008  11.133   1.450
55815W        W28240  29.163  31.912   3.345
55816W        W28241  19.083  11.758   4.214
55817W        W28242  15.188  21.703  10.540
55818W        W28243  15.156  38.481  12.076
55819W        W28244  40.347  15.188  12.353
55820W        W28245  33.461  33.500  14.763
55821W        W28246   9.815  43.487  10.546
55822W        W28247  37.987   7.831   4.638
55823W        W28248  40.880  35.964  14.766
55824W        W28249  31.621  15.178  14.799
55825W        W28250  31.477  23.558   2.221
55826W        W28251  12.131  10.241   1.374
55827W        W28252  19.691  16.800  13.000
55828W        W28253  38.941  39.443  13.006
55829W        W28254   6.238   7.267  12.508
55830W        W28255  30.006   6.238   3.291
55831W        W28256  11.229  44.932   3.639
55832W        W28257   6.809  36.042  13.446
55833W        W28258  35.593   4.346  11.466
55834W        W28259  31.045  11.359   3.757
55835W        W28260  29.475  30.585   1.753
55836W        W28261  11.624  21.218  11.947
55837W        W28262  10.331  18.188   3.722
55838W        W28263   4.402  14.116  12.540
55839W        W28264  30.569  20.606  11.072
55840W        W28265   6.894  44.867   1.711
55841W        W28266   9.336  11.334  13.837
55842W        W28267  31.501  32.393   2.770
55843W        W28268  22.169  33.507   3.255
55844W        W28269  32.571  18.200   3.312
55845W        W28270  22.156  42.795   0.320
55846W        W28271   5.887  21.622  14.804
55847W        W28272  15.131  40.376  13.055
55848W        W28273  22.079  29.504  10.464
55849W        W28274  35.599  19.557  14.861
55850W        W28275  43.355  29.022   2.748
55851W        W28276  38.051  34.529   4.279
55852W        W28277   9.180  42.476   1.807
55853W        W28278   9.317  26.073  13.969
55854W        W28279  42.427   4.935  13.944
55855W        W28280  30.568  32.030   4.645
55856W        W28281  41.803   7.760  11.924
55857W        W28282  10.196  30.009  11.899
55858W        W28283  22.169  41.497   2.312
55859W        W28284  27.585  38.409   0.959
55860W        W28285  27.641  29.529   1.334
55861W        W28286  43.493  24.715   3.331
55862W        W28287  32.522  21.594   3.715
55863W        W28288  28.452  24.545   1.418
55864W        W28289  31.642  27.963   2.297
55865W        W28290  41.024   8.266   3.839
55866W        W28291  44.430  28.050  12.024
55867W        W28292  36.484  13.170   4.307
55868W        W28293  33.482  28.967   4.174
55869W        W28294  13.145  19.175  13.368
55870W        W28295  28.547  37.022   1.447
55871W        W28296  18.764  20.034   3.667
55872W        W28297  28.466  30.600   0.859
55873W        W28298  40.498  26.540  14.379
55874W        W28299  22.125  28.180  14.511
55875W        W28300  20.231   5.295  11.508
55876W        W28301  41.305  15.111  10.470
55877W        W28302  20.563   1.973   0.355
55878W        W28303  36.863  18.762   1.274
55879W        W28304  38.051  13.621  11.373
55880W        W28305   6.886  38.571  12.547
55881W        W28306  39.512   5.237  13.970
55882W        W28307  10.748   1.409   4.668
55883W        W28308  19.056  25.213   4.290
55884W        W28309   7.880  21.181   4.795
55885W        W28310  10.790  20.549  14.403
55886W        W28311  35.491   8.308   4.154
55887W        W28312  41.939  44.453  14.482
55888W        W28313  37.477  28.145   3.716
55889W        W28314  22.214  36.516   2.886
55890W        W28315  25.564  37.946  11.451
55891W        W28316  11.368  11.217  12.375
55892W        W28317  41.005  36.054   1.225
55893W        W28318   4.237  23.221  12.344
55894W        W28319  23.075  12.302  12.533
55895W        W28320   9.288  15.578  13.845
55896W        W28321  19.055  22.044   1.295
55897W        W28322   3.722  37.491  11.958
55898W        W28323  15.321   5.423  11.943
55899W        W28324  10.632  38.444  12.056
55900W        W28325  41.035  38.340  11.607
55901W        W28326  19.169  21.207  12.446
55902W        W28327   9.253  16.678   0.431
55903W        W28328  11.127  40.957  14.018
55904W        W28329  42.457  39.929   1.840
55905W        W28330  27.958  28.511  10.911
55906W        W28331  20.238  15.766   2.231
55907W        W28332  10.210   2.295   1.783
55908W        W28333  42.447   8.310  10.558
55909W        W28334   3.823  43.506  10.571
55910W        W28335  43.469  33.428  13.395
55911W        W28336  34.465   8.305  11.862
55912W        W28337  15.219  12.356   3.859
55913W        W28338   6.222  27.970   0.756
55914W        W28339  41.018  20.037   0.269
55915W        W28340  12.287  17.734   1.814
55916W        W28341  26.644  10.241  12.020
55917W        W28342  14.179   7.340   1.317
55918W        W28343  13.166  13.670  14.407
55919W        W28344  44.437  24.010   4.736
55920W        W28345   6.682  31.026  11.434
55921W        W28346  23.169  18.711  11.410
55922W        W28347  19.053  35.398  10.496
55923W        W28348  15.790   1.455  11.400
55924W        W28349  32.119   1.408   4.607
55925W        W28350  42.934  23.202  10.465
55926W        W28351  11.686  33.875   1.334
55927W        W28352  42.972  22.999   1.281
55928W        W28353  14.799  15.585  14.781
55929W        W28354  29.950  37.427  10.407
55930W        W28355   5.796  15.793  10.579
55931W        W28356  28.606  38.536  14.951
55932W        W28357  38.853  26.048  14.929
55933W        W28358  22.564  37.363   3.685
55934W        W28359  23.575  12.208  13.816
55935W        W28360   1.851  11.165  10.926
55936W        W28361  37.864  29.599   3.860
55937W        W28362  13.243   5.812  12.023
55938W        W28363   8.762  41.040   0.398
55939W        W28364  13.135  38.886   1.754
55940W        W28365  38.976  18.673  13.994
55941W        W28366  40.978  42.789  14.477
55942W        W28367  14.597  20.620  11.421
55943W        W28368  36.591  44.272  13.008
55944W        W28369  38.454  17.229   0.472
55945W        W28370  14.276   5.328   2.852
55946W        W28371  33.026  34.910   4.351
55947W        W28372  14.747  12.856   5.168
55948W        W28373  38.446  35.379  11.032
55949W        W28374  14.150  27.975  12.960
55950W        W28375  41.300   4.815   4.640
55951W        W28376  27.644  41.931   2.337
55952W        W28377  44.846  25.091   1.919
55953W        W28378  34.033  25.552   2.752
55954W        W28379  27.113  27.513   4.247
55955W        W28380  27.488   5.917  12.481
55956W        W28381  27.541   1.261  13.355
55957W        W28382  12.701   8.900  11.457
55958W        W28383  29.639  15.601   1.803
55959W        W28384  35.967  32.004   0.931
55960W        W28385  26.690  16.179   1.931
55961W        W28386  14.707   3.813   0.370
55962W        W28387   2.348  23.696   0.467
55963W        W28388   4.739  36.978   3.187
55964W        W28389  43.437  27.140  12.002
55965W        W28390  13.676  18.658  13.351
55966W        W28391   7.726  26.193   1.349
55967W        W28392  42.464  38.075  14.868
55968W        W28393  22.016  11.868   3.789
55969W        W28394  10.189  32.409  12.012
55970W        W28395   7.762  32.454  13.817
55971W        W28396  11.736  27.940   2.299
55972W        W28397  20.751  18.594   1.221
55973W        W28398  27.947   6.193   4.691
55974W        W28399   6.240  30.039   4.259
55975W        W28400  30.528  33.066  13.807
55976W        W28401  34.514  39.926  13.385
55977W        W28402  23.115  29.453  14.290
55978W        W28403  12.302   9.743  11.561
55979W        W28404   5.212   4.393   4.764
55980W        W28405  35.958   8.717  12.043
55981W        W28406  34.082   8.872  14.804
55982W        W28407   2.822  23.033  12.870
55983W        W28408  29.578  12.172   2.823
55984W        W28409   3.268  15.162   4.244
55985W        W28410  22.524  33.089   1.291
55986W        W28411  17.241  28.446   2.331
55987W        W28412  41.340  38.560   4.617
55988W        W28413  23.038  43.274  11.423
55989W        W28414  10.233  33.876   0.316
55990W        W28415  19.624  42.447  13.397
55991W        W28416   8.351  28.136   2.699
55992W        W28417  35.926  39.962   2.375
55993W        W28418  43.932   6.399  12.561
55994W        W28419  11.136  17.120  11.098
55995W        W28420  41.342  36.843   4.834
55996W        W28421  30.624  17.636   3.634
55997W        W28422   6.806   6.876   4.639
55998W        W28423  32.108  44.493   0.384
55999W        W28424   8.718  13.657   3.295
56000W        W28425  14.260  19.270   0.742
56001W        W28426   4.809   8.876  10.145
56002W        W28427  30.422  20.650   0.757
56003W        W28428  22.117  12.224   1.819
56004W        W28429  32.022  44.948   3.279
56005W        W28430  32.602  24.041   1.817
56006W        W28431  20.545  24.104   4.643
56007W        W28432  37.344  22.590   4.824
56008W        W28433  23.059   1.239  13.935
56009W        W28434  21.256   6.274   0.437
56010W        W28435  35.048  43.768  10.610
56011W        W28436   7.274  11.729   4.673
56012W        W28437  28.673   2.384   2.351
56013W        W28438   1.826  44.482   2.206
56014W        W28439   6.199  38.528  14.360
56015W        W28440  16.666   6.856  11.029
56016W        W28441  35.103   8.381  14.490
56017W        W28442   0.438  12.851   0.310
56018W        W28443  25.195  33.064   2.399
56019W        W28444  12.630  39.396  10.430
56020W        W28445  25.199  36.559   0.867
56021W        W28446   8.303  15.148   4.667
56022W        W28447  11.840  39.967   2.384
56023W        W28448  23.725   5.711   3.375
56024W        W28449  10.191   4.859  12.860
56025W        W28450  24.134   3.754   0.930
56026W        W28451  15.771  40.037   3.311
56027W        W28452  29.155   9.329   4.706
56028W        W28453  22.040  34.515   3.304
56029W        W28454  25.697  39.030  12.925
56030W        W28455  41.832  39.873   4.237
56031W        W28456  36.012  40.961   1.928
56032W        W28457  31.601   7.294   4.754
56033W        W28458  24.501   0.959  13.442
56034W        W28459  12.626  35.040   0.950
56035W        W28460  27.121  32.414   9.578
56036W        W28461  18.176  24.082   2.295
56037W        W28462  26.607  31.596  12.444
56038W        W28463  27.506  17.182   4.304
56039W        W28464   8.826   9.669  10.965
56040W        W28465  44.758  11.750   4.624
56041W        W28466   3.785  31.428   0.395
56042W        W28467  42.852   5.415  14.369
56043W        W28468  27.131  24.721   3.322
56044W        W28469   6.774   8.249   1.307
56045W        W28470  33.932   6.239   2.886
56046W        W28471   7.260   1.811  10.606
56047W        W28472   0.382   5.885  11.397
56048W        W28473  30.543  24.989  10.431
56049W        W28474   1.807   8.857   3.685
56050W        W28475  34.469  26.645  13.512
56051W        W28476  41.911  13.695   4.190
56052W        W28477   2.294   1.453   0.955
56053W        W28478  37.984  34.115   2.871
56054W        W28479   1.957  36.491   4.136
56055W        W28480  24.228  23.027   0.289
56056W        W28481  42.397  43.821   3.183
56057W        W28482  42.913  42.877  14.808
56058W        W28483   3.907   1.966   1.323
56059W        W28484  26.183  33.605   4.282
56060W        W28485   8.704   6.261  11.000
56061W        W28486  42.892  19.111   0.762
56062W        W28487  26.007  22.014  13.825
56063W        W28488  16.243  39.496   3.248
56064W        W28489  40.535   7.260  12.454
56065W        W28490  35.493  38.487  11.471
56066W        W28491   4.413  32.061   1.240
56067W        W28492  25.163  40.988   2.344
56068W        W28493  15.733   7.721   0.420
56069W        W28494   9.805  31.991  13.828
56070W        W28495   6.278  13.293  13.510
56071W        W28496   8.406  24.652  11.946
56072W        W28497   1.750  31.094   2.663
56073W        W28498  11.793   2.376  10.562
56074W        W28499  18.629  17.254   2.289
56075W        W28500   1.410  11.361  11.451
56076W        W28501  40.009  44.763   1.253
56077W        W28502   6.288   7.174   4.331
56078W        W28503  11.848   5.207   4.670
56079W        W28504  33.897  13.656   4.639
56080W        W28505  41.434  27.555   2.834
56081W        W28506  32.497   0.956  12.446
56082W        W28507  37.842  26.963  12.847
56083W        W28508   6.360  34.534  11.969
56084W        W28509   9.832  29.962   4.708
56085W        W28510   7.340  31.036   0.442
56086W        W28511  16.734  36.569   2.417
56087W        W28512  15.798  11.648   4.649
56088W        W28513  23.214  33.943  12.045
56089W        W28514   0.789  20.116  12.364
56090W        W28515  19.731  25.207   3.256
56091W        W28516  33.997  18.283   1.236
56092W        W28517  24.487  36.081  11.881
56093W        W28518  21.751  29.988  11.531
56094W        W28519  19.620  44.486   1.730
56095W        W28520  15.671   0.883   5.132
56096W        W28521  16.122  34.895  14.881
56097W        W28522  11.710  32.053  14.894
56098W        W28523  26.079  31.454   3.266
56099W        W28524  40.315   8.802   4.300
56100W        W28525   2.761  23.620   3.310
56101W        W28526  19.134  41.371  13.351
56102W        W28527  44.924  11.220  12.989
56103W        W28528  34.073  18.219   9.959
56104W        W28529  33.440   3.233   1.791
56105W        W28530   6.309   6.912  13.458
56106W        W28531  29.433  43.884  13.495
56107W        W28532  28.020  26.688  10.528
56108W        W28533  37.053   2.948  11.029
56109W        W28534   4.323  12.311   0.814
56110W        W28535  42.349   0.855  13.389
56111W        W28536  18.602  20.591  11.032
56112W        W28537  31.066  39.004  13.315
56113W        W28538  29.555  32.424  12.897
56114W        W28539  22.144  11.236   1.774
56115W        W28540  43.410  20.717  10.938
56116W        W28541  10.802  14.805   4.118
56117W        W28542  28.655   5.897   3.833
56118W        W28543  27.953  39.382   0.295
56119W        W28544  10.278  35.890   0.380
56120W        W28545   9.841  25.096  12.867
56121W        W28546   2.909  28.985   1.294
56122W        W28547  39.521  26.179   1.406
56123W        W28548   1.353   5.347  11.057
56124W        W28549  25.096  11.284  14.987
56125W        W28550  39.857  33.531   4.239
56126W        W28551  27.451   4.910   4.701
56127W        W28552  26.184  40.512  11.958
56128W        W28553  29.075   3.414  13.879
56129W        W28554   5.824  22.195   4.752
56130W        W28555  22.531  32.140  10.054
56131W        W28556  33.522  44.951   0.826
56132W        W28557  11.624  25.212   1.226
56133W        W28558   5.402  21.117   1.243
56134W        W28559  24.690  23.160  11.433
56135W        W28560  30.553  39.848   2.410
56136W        W28561   4.848   8.791  14.302
56137W        W28562  14.225  19.754  11.077
56138W        W28563  21.757  31.022   1.420
56139W        W28564   7.860  22.564  14.458
56140W        W28565   3.316  28.026  13.430
56141W        W28566  43.786   7.797   1.353
56142W        W28567   0.365   2.956   0.854
56143W        W28568  32.132  30.058  13.952
56144W        W28569  34.376  18.092  14.364
56145W        W28570  11.682  36.967   2.295
56146W        W28571  40.943  40.982  11.480
56147W        W28572  17.151  44.780  12.404
56148W        W28573  40.965   6.384   2.248
56149W        W28574  38.862  35.517   4.214
56150W        W28575  41.031  43.340   3.686
56151W        W28576  42.315   8.693   1.878
56152W        W28577  20.572  13.213  14.809
56153W        W28578  36.875  12.259   3.272
56154W        W28579  31.984  25.091   1.831
56155W        W28580  43.895   0.344   3.707
56156W        W28581  23.097  28.531  10.516
56157W        W28582  32.528  18.546   3.847
56158W        W28583   3.861  39.929   3.692
56159W        W28584  21.682  27.123  13.819
56160W        W28585  34.111   3.367   3.252
56161W        W28586  28.134  17.717  14.390
56162W        W28587   4.399   7.686  13.525
56163W        W28588  25.546  10.276  11.403
56164W        W28589  16.733  22.563  10.518
56165W        W28590   0.769  40.948  12.938
56166W        W28591   5.818  14.126   1.851
56167W        W28592   8.379   8.792   3.658
56168W        W28593  31.947   6.836   4.182
56169W        W28594  36.901  25.014   5.275
56170W        W28595  39.012  44.763  12.442
56171W        W28596  26.562  43.772  12.096
56172W        W28597  12.167  22.028   0.319
56173W        W28598  29.542   8.328   3.318
56174W        W28599   1.933  26.170   4.257
56175W        W28600  44.992  30.527   3.355
56176W        W28601   3.822  27.618  11.598
56177W        W28602  24.674   0.405  14.993
56178W        W28603   5.201  30.056   4.634
56179W        W28604  36.029  18.089   0.956
56180W        W28605  27.447  10.313  14.923
56181W        W28606  35.958  26.486  10.490
56182W        W28607  40.354  25.140   4.295
56183W        W28608  32.123  26.522   3.311
56184W        W28609  37.886   0.428   3.183
56185W        W28610  20.174  34.556  13.490
56186W        W28611  13.298  44.923   3.237
56187W        W28612  41.887   2.419  11.453
56188W        W28613  23.062  27.617  12.427
56189W        W28614  16.094  39.533   4.128
56190W        W28615  29.936  38.908  14.901
56191W        W28616  22.570  14.730   0.934
56192W        W28617  32.952  13.670  14.335
56193W        W28618  42.852  38.835   1.924
56194W        W28619  33.020  43.313  13.036
56195W        W28620  33.469  41.837  13.389
56196W        W28621   1.392  27.452   1.721
56197W        W28622  40.427  32.922  12.828
56198W        W28623  11.686   0.826   4.740
56199W        W28624  38.039  42.444   0.849
56200W        W28625  24.046  38.843  12.889
56201W        W28626  23.685  17.091   1.426
56202W        W28627  35.604  29.941   1.275
56203W        W28628  43.401   5.793  10.905
56204W        W28629   5.766  10.775  10.542
56205W        W28630  40.815  36.926  12.456
56206W        W28631  16.788   0.290   4.768
56207W        W28632   6.408  19.778  13.986
56208W        W28633   1.849  15.708  11.376
56209W        W28634  16.659   5.879   3.673
56210W        W28635   9.859  15.756   2.772
56211W        W28636  19.638  21.686   2.865
56212W        W28637  40.925  20.085  14.761
56213W        W28638   7.844   4.264   0.796
56214W        W28639  42.511   0.293   0.425
56215W        W28640  19.752  26.057   1.385
56216W        W28641   7.727  17.135  10.404
56217W        W28642  28.586  24.580  13.018
56218W        W28643  18.097  40.948  14.444
56219W        W28644  10.365  24.110  12.524
56220W        W28645  33.926  32.562   0.743
56221W        W28646  29.524   4.892   4.161
56222W        W28647  39.449   2.238  14.803
56223W        W28648  27.104   2.771  13.964
56224W        W28649  33.553  42.802   4.143
56225W        W28650  38.018  38.481   4.162
56226W        W28651   1.391  32.425   1.351
56227W        W28652  13.302  44.917   1.754
56228W        W28653  26.668  18.739   4.163
56229W        W28654   8.762   6.295   2.813
56230W        W28655   9.161  36.465  14.808
56231W        W28656  31.124  38.428  11.398
56232W        W28657  24.560  44.781  12.026
56233W        W28658  17.767  12.288   3.716
56234W        W28659  26.088  37.507   3.821
56235W        W28660   3.797  33.458   1.302
56236W        W28661   2.340  10.853  14.365
56237W        W28662  31.434   0.296   2.690
56238W        W28663   7.342  24.680   2.287
56239W        W28664  16.634  17.089   2.753
56240W        W28665  29.069  13.820  10.447
56241W        W28666  12.212  28.540  10.935
56242W        W28667  25.474  37.856  13.879
56243W        W28668   6.341  28.951   5.133
56244W        W28669   2.427   0.255  11.405
56245W        W28670  27.451  18.252  13.426
56246W        W28671  22.018  14.731  13.855
56247W        W28672  44.939  16.739  11.405
56248W        W28673  32.965  18.128  10.455
56249W        W28674  39.390   8.864  13.937
56250W        W28675  44.880  41.292   4.738
56251W        W28676   4.429  17.682   1.232
56252W        W28677  33.094  12.710   2.662
56253W        W28678  31.903   7.196  12.554
56254W        W28679   9.646   4.890  11.603
56255W        W28680  31.925   5.873  13.876
56256W        W28681  25.529  20.210   2.768
56257W        W28682  25.175  39.338  12.957
56258W        W28683  16.631  39.517   4.633
56259W        W28684   6.918  33.491  10.629
56260W        W28685  12.342  18.089   0.309
56261W        W28686   8.300  16.138   4.624
56262W        W28687   9.297  15.197  14.925
56263W        W28688  25.995  22.512  13.982
56264W        W28689  15.121  31.481  11.912
56265W        W28690   8.356  32.063  14.825
56266W        W28691  34.096  14.112   4.637
56267W        W28692  42.960   3.223  14.348
56268W        W28693  12.844  27.178   1.358
56269W        W28694   1.427  22.540   1.879
56270W        W28695  23.512   8.828   4.741
56271W        W28696  23.193  17.126   1.375
56272W        W28697  39.836  35.079   1.441
56273W        W28698  42.327  43.997  11.509
56274W        W28699  26.661  17.565   4.638
56275W        W28700  27.012  44.486   2.272
56276W        W28701  41.994  35.579  11.105
56277W        W28702  17.563  43.434   1.866
56278W        W28703   8.883  26.189   0.354
56279W        W28704  24.227   0.409   1.268
56280W        W28705  23.989   9.838   3.662
56281W        W28706  19.224   5.901   1.717
56282W        W28707   8.732  31.536   2.383
56283W        W28708  24.547   8.266   0.858
56284W        W28709   5.240  15.615   2.328
56285W        W28710   5.922  31.514   4.669
56286W        W28711  20.268  27.099  11.984
56287W        W28712  16.770  26.084   4.694
56288W        W28713  31.132  12.224  13.954
56289W        W28714  23.713   3.366   0.917
56290W        W28715  30.527  23.638  11.516
56291W        W28716  43.883  10.657  10.445
56292W        W28717  33.895  40.805   0.909
56293W        W28718  34.555  24.019   5.187
56294W        W28719  31.539  38.832   2.229
56295W        W28720  12.237  22.633   2.859
56296W        W28721  17.110  20.620   4.826
56297W        W28722  33.017  30.444  11.070
56298W        W28723   5.432  23.582   3.147
56299W        W28724  25.638  26.589   4.682
56300W        W28725  17.735  11.313  11.576
56301W        W28726   0.490  36.011  10.899
56302W        W28727  27.996  11.246   3.840
56303W        W28728  12.141  25.082   1.746
56304W        W28729  29.010  35.999  12.834
56305W        W28730  33.959   2.803   1.929
56306W        W28731  33.467  24.545   0.759
56307W        W28732   5.921   5.818   4.634
56308W        W28733  31.104  32.625  12.991
56309W        W28734  16.295  36.910  13.471
56310W        W28735  40.937  44.980  10.585
56311W        W28736   3.259   1.916   4.676
56312W        W28737   9.332  30.048   3.217
56313W        W28738  38.920   5.385  14.491
56314W        W28739  41.812  34.919  11.032
56315W        W28740  27.448  44.870  13.348
56316W        W28741  42.825  39.056  12.541
56317W        W28742  15.817   0.434   1.774
56318W        W28743  44.314   5.819   4.748
56319W        W28744   0.483  34.977   3.268
56320W        W28745  29.104   3.412  10.899
56321W        W28746  35.457  44.277  13.790
56322W        W28747   8.899  19.224  12.903
56323W        W28748  22.517  24.201   2.293
56324W        W28749  19.635  17.253   4.720
56325W        W28750  36.464  30.971   1.217
56326W        W28751  32.482  38.479   3.368
56327W        W28752  23.585   8.816   3.647
56328W        W28753  41.482  13.336  14.031
56329W        W28754  17.063   1.242   4.809
56330W        W28755  17.641  35.093  11.508
56331W        W28756   7.309   4.887  13.964
56332W        W28757  31.496  34.885  13.459
56333W        W28758  11.774   2.804  10.905
56334W        W28759  30.654  19.600   4.347
56335W        W28760   7.792  25.655  13.051
56336W        W28761  15.216   2.961   0.473
56337W        W28762   7.359   2.888   4.802
56338W        W28763   0.967  31.538   1.378
56339W        W28764  37.033  29.533   0.282
56340W        W28765  42.815   9.868  13.969
56341W        W28766  10.241  35.495  14.290
56342W        W28767  44.476  32.113  12.497
56343W        W28768  10.238  42.779   0.833
56344W        W28769   6.352  13.282   0.896
56345W        W28770  18.614  19.057  10.581
56346W        W28771  25.514   3.930  10.533
56347W        W28772   0.308   7.737   2.253
56348W        W28773  35.392   7.193  12.041
56349W        W28774  40.042  31.897   2.317
56350W        W28775  38.978   3.837   2.358
56351W        W28776  37.977   7.782  13.795
56352W        W28777  18.273  25.075   4.738
56353W        W28778  29.081  23.651   3.683
56354W        W28779  11.725  29.670  11.566
56355W        W28780  27.628   1.438   2.205
56356W        W28781  12.690   7.322   4.758
56357W        W28782  37.058  37.973   4.167
56358W        W28783  23.986  43.376  11.477
56359W        W28784  41.462  43.897  12.572
56360W        W28785  24.551  30.489   1.836
56361W        W28786  26.099  20.245   3.795
56362W        W28787  26.042  32.536  13.895
56363W        W28788  33.520  27.486  14.389
56364W        W28789   5.792  25.467   3.247
56365W        W28790  15.801  26.180   2.273
56366W        W28791  31.626   8.292   3.640
56367W        W28792  10.159   6.374   0.793
56368W        W28793   3.927  18.235  11.513
56369W        W28794   0.306  31.903   4.758
56370W        W28795  16.801   1.378  11.608
56371W        W28796  21.653   9.743  11.597
56372W        W28797   2.848  25.056   4.653
56373W        W28798   7.345   8.321  14.843
56374W        W28799  27.964  29.636   1.809
56375W        W28800   0.853  24.637  13.465
56376W        W28801   1.447  31.966   0.358
56377W        W28802   9.325   8.209   0.838
56378W        W28803  34.473   9.679  12.843
56379W        W28804  34.058  12.332   2.373
56380W        W28805  18.626  30.969  10.934
56381W        W28806  33.519  29.450  12.527
56382W        W28807   9.369  18.633  10.002
56383W        W28808  38.388  19.172  11.964
56384W        W28809   1.241  19.202  12.468
56385W        W28810  12.815  24.022  12.517
56386W        W28811  29.963  29.593   0.737
56387W        W28812  42.524  23.070   4.117
56388W        W28813  39.055   8.368   4.342
56389W        W28814   6.773  19.081   3.272
56390W        W28815  42.980  26.079   1.743
56391W        W28816  32.431  24.506  14.918
56392W        W28817  34.918  17.694  14.982
56393W        W28818  22.703  42.957   1.868
56394W        W28819   2.813  18.737  12.451
56395W        W28820  35.093  30.462   3.280
56396W        W28821  21.648   1.302   2.856
56397W        W28822  36.520  10.368  14.918
56398W        W28823  14.207   1.431   4.666
56399W        W28824  20.559  11.748   1.232
56400W        W28825   5.416   6.744   3.381
56401W        W28826   0.456  21.116   1.247
56402W        W28827  21.246  10.234  14.417
56403W        W28828   9.389  38.069   3.677
56404W        W28829  16.638   9.778   4.608
56405W        W28830  24.677  34.526   4.173
56406W        W28831   5.302   4.315  14.977
56407W        W28832  16.722  32.603   4.277
56408W        W28833  20.555  19.605  14.307
56409W        W28834  15.323  26.514   2.886
56410W        W28835  19.579   7.389   0.843
56411W        W28836   5.408  18.250   0.940
56412W        W28837   6.330  29.939  10.583
56413W        W28838  20.730  30.989   1.413
56414W        W28839   3.715  22.133  11.865
56415W        W28840  10.147   9.254  14.465
56416W        W28841  42.285  33.908  13.942
56417W        W28842  11.836  34.048   4.623
56418W        W28843  33.503  41.444   1.836
56419W        W28844   3.236   6.291  14.460
56420W        W28845  14.597  22.684  12.398
56421W        W28846  23.590  39.489   2.812
56422W        W28847   0.940  42.853   4.738
56423W        W28848  33.433   2.938  14.960
56424W        W28849  27.470  23.236  11.099
56425W        W28850  19.210   7.894  12.900
56426W        W28851  17.130  14.724   2.405
56427W        W28852  37.472  27.076   0.732
56428W        W28853  24.041  20.201   3.264
56429W        W28854   3.445   8.324   4.728
56430W        W28855  14.111  17.688  11.442
56431W        W28856   0.494  34.438  14.347
56432W        W28857  38.952  21.134   2.400
56433W        W28858  19.169  37.375   0.418
56434W        W28859  31.546   3.792  14.407
56435W        W28860  36.047  30.915  11.906
56436W        W28861  15.775  38.544  14.341
56437W        W28862  32.605  15.109   2.251
56438W        W28863   5.745  32.557  12.058
56439W        W28864  20.623  20.597  10.582
56440W        W28865  14.602  31.970  11.087
56441W        W28866  27.994  26.159  13.825
56442W        W28867  13.289  21.721  10.974
56443W        W28868  44.373   7.346   3.751
56444W        W28869  39.330  36.942   1.923
56445W        W28870  20.623  33.386   3.340
56446W        W28871   1.467   3.299   2.892
56447W        W28872   5.784  12.714  13.326
56448W        W28873  19.728   6.352   1.881
56449W        W28874  23.033  36.029   2.810
56450W        W28875  15.640  16.287   5.165
56451W        W28876  15.108  10.206  10.987
56452W        W28877   0.874  28.185   0.902
56453W        W28878   2.236  27.625   3.661
56454W        W28879   5.914  36.934  10.056
56455W        W28880  38.987  40.381  14.986
56456W        W28881   1.412  43.477  14.349
56457W        W28882  16.639  19.245   3.660
56458W        W28883  41.456  37.902  14.982
56459W        W28884   0.873  24.059  13.873
56460W        W28885   9.822  25.679  13.524
56461W        W28886   7.682  23.123   2.292
56462W        W28887   5.337  44.328  14.507
56463W        W28888   1.968  14.128   1.927
56464W        W28889  15.138  12.213   4.340
56465W        W28890  31.548  28.952   3.385
56466W        W28891   5.373  39.406  12.027
56467W        W28892  40.371   6.235  11.955
56468W        W28893  20.104  20.038   1.261
56469W        W28894  39.448   7.696  11.374
56470W        W28895  40.363  24.694  13.011
56471W        W28896  38.856  33.617   4.313
56472W        W28897  32.398  20.632  12.387
56473W        W28898  38.383  23.525   5.189
56474W        W28899   4.249  29.612   3.290
56475W        W28900  18.265   2.880   4.248
56476W        W28901   2.767   6.889  14.501
56477W        W28902  40.477  33.524   1.280
56478W        W28903  11.293  44.367  12.417
56479W        W28904  33.874  13.616  13.826
56480W        W28905   8.265   3.738   2.218
56481W        W28906   2.294  31.119   4.132
56482W        W28907  38.500  36.521   2.751
56483W        W28908  11.755  37.891  12.547
56484W        W28909  13.288  15.247   4.735
56485W        W28910  26.053  26.676   2.394
56486W        W28911   6.883  17.232  11.429
56487W        W28912  43.446  25.104   0.409
56488W        W28913  23.198  35.370   2.839
56489W        W28914   4.402   3.843   0.482
56490W        W28915   4.771  31.613  14.866
56491W        W28916  37.549   8.393  12.341
56492W        W28917   8.806  34.098  14.811
56493W        W28918   6.203  44.923   4.675
56494W        W28919  39.911  26.076  12.378
56495W        W28920  15.272   1.252   4.137
56496W        W28921   0.970  24.632   3.201
56497W        W28922  29.923  23.617  14.016
56498W        W28923  39.405  31.114   4.658
56499W        W28924   3.800   8.233  11.985
56500W        W28925  19.098  30.581   0.314
56501W        W28926  31.080  44.444  11.453
56502W        W28927  42.358  43.367  10.582
56503W        W28928  36.577   7.741  10.930
56504W        W28929   3.816  15.295  11.559
56505W        W28930  20.526  20.073  13.868
56506W        W28931  19.213  40.388   1.406
56507W        W28932   6.729  35.937  11.466
56508W        W28933  34.447  28.650   3.799
56509W        W28934  42.316  13.205   4.344
56510W        W28935  38.028   7.826   1.847
56511W        W28936  17.561   5.804   0.931
56512W        W28937  16.112  39.354   2.673
56513W        W28938  21.239   2.822  14.330
56514W        W28939   8.757  23.121  12.992
56515W        W28940  13.838  21.640   3.752
56516W        W28941   6.899  12.827  14.827
56517W        W28942  26.702  37.831  10.528
56518W        W28943  44.412  42.344   3.291
56519W        W28944   5.911  35.571   9.443
56520W        W28945   1.392   9.737   2.688
56521W        W28946   5.918  17.772  10.986
56522W        W28947  38.844  33.621  11.012
56523W        W28948   2.267  22.525  11.091
56524W        W28949   4.370  26.095  11.509
56525W        W28950  22.718   2.412  10.965
56526W        W28951  36.023  33.519  13.992
56527W        W28952   3.416   3.313   0.312
56528W        W28953  42.980  32.136   0.349
56529W        W28954  16.185  24.501   3.652
56530W        W28955   8.302  35.357  10.632
56531W        W28956  10.722  22.730  13.033
56532W        W28957  21.177  23.603   1.231
56533W        W28958  12.223  13.248  13.955
56534W        W28959  29.428  20.539   4.354
56535W        W28960  17.694  18.594   0.860
56536W        W28961  34.871  44.433   0.462
56537W        W28962   4.918  33.432   2.820
56538W        W28963  12.250  39.998  12.021
56539W        W28964  33.074  35.079   0.891
56540W        W28965  14.796  12.194  10.957
56541W        W28966  29.664   6.699   1.240
56542W        W28967  41.364   6.895   3.254
56543W        W28968   6.231  38.412   3.698
56544W        W28969  29.558  12.808   4.643
56545W        W28970  20.743  14.212  13.452
56546W        W28971  34.496  43.794  11.591
56547W        W28972  13.329  33.566  10.100
56548W        W28973  24.111  11.834   0.830
56549W        W28974  15.216  38.939   1.215
56550W        W28975  29.541  11.857   1.702
56551W        W28976   0.807  32.941  12.377
56552W        W28977  10.655  36.022   0.457
56553W        W28978   3.754   3.911   2.866
56554W        W28979  43.010  40.927  10.499
56555W        W28980  17.088  28.136  11.556
56556W        W28981  28.597  36.567  14.423
56557W        W28982   6.341   6.244  10.899
56558W        W28983  43.014  32.421  13.495
56559W        W28984  18.100   1.850   5.297
56560W        W28985  34.597   8.704  13.054
56561W        W28986  27.183  37.873  14.468
56562W        W28987  27.106  20.275  13.050
56563W        W28988  42.446   7.381   3.367
56564W        W28989  34.119  40.495  13.433
56565W        W28990   2.749   9.889  12.518
56566W        W28991  41.802  40.385   2.399
56567W        W28992   4.212  33.003   2.700
56568W        W28993   1.376  27.035  10.624
56569W        W28994  29.660  12.262  14.901
56570W        W28995  10.756   7.352   3.695
56571W        W28996  16.170  24.548   1.249
56572W        W28997  21.075   6.336   1.283
56573W        W28998  21.214  31.147   2.336
56574W        W28999  10.263  42.964  11.468
56575W        W29000  41.461  16.172   2.768
56576W        W29001  44.306  28.111   4.742
56577W        W29002  36.353  13.824   4.685
56578W        W29003  21.564   0.469   3.281
56579W        W29004  33.539  17.583  11.024
56580W        W29005  16.601   8.731  12.383
56581W        W29006  35.883   4.232  10.449
56582W        W29007   8.898   9.854   0.358
56583W        W29008  25.969  18.265   4.300
56584W        W29009   0.293  38.540   0.947
56585W        W29010  20.091  40.044   3.225
56586W        W29011  35.058   9.653  13.309
56587W        W29012   6.392  22.527   0.934
56588W        W29013   9.792  22.611   4.812
56589W        W29014  29.925  26.029   3.707
56590W        W29015   3.743  10.704   4.637
56591W        W29016   4.853  19.188   3.801
56592W        W29017  34.433   5.341  14.481
56593W        W29018  17.582   3.930   3.244
56594W        W29019   1.266   7.864  13.865
56595W        W29020  34.022  13.614   1.310
56596W        W29021  13.340   5.309  10.464
56597W        W29022  33.625  39.993   5.172
56598W        W29023  33.534  21.591   4.631
56599W        W29024  31.637   5.405  11.585
56600W        W29025   7.750  19.152   0.383
56601W        W29026  13.749  13.230   4.753
56602W        W29027  11.140  17.759   3.736
56603W        W29028  29.590  12.142  13.814
56604W        W29029   6.263  34.438   2.315
56605W        W29030  17.618  40.898   2.824
56606W        W29031  17.241   8.662   1.778
56607W        W29032  13.778  22.137  11.982
56608W        W29033  21.150  44.856   2.852
56609W        W29034  24.663  23.985   2.743
56610W        W29035  41.787  22.550   2.742
56611W        W29036  14.186  21.127   4.828
56612W        W29037  30.440  29.143  13.989
56613W        W29038  33.077   1.277  10.451
56614W        W29039  33.130  16.198   1.223
56615W        W29040  16.791  34.073  14.806
56616W        W29041  35.512  28.109   1.234
56617W        W29042   7.264   3.217   4.833
56618W        W29043   6.195  24.602  11.925
56619W        W29044  44.985  30.956  12.479
56620W        W29045  29.633  19.566  14.799
56621W        W29046  33.552  12.668   4.830
56622W        W29047  19.564  14.186  14.021
56623W        W29048  36.530  15.254  11.398
56624W        W29049  15.809  14.688   4.149
56625W        W29050  15.282  32.500   4.182
56626W        W29051  36.520  24.706  12.473
56627W        W29052  28.441  36.918  11.075
56628W        W29053  40.868  33.921   3.261
56629W        W29054  10.808   3.379   4.327
56630W        W29055  16.291   3.447   4.203
56631W        W29056  13.267  29.030   2.202
56632W        W29057   2.441  16.667   0.941
56633W        W29058  20.559  29.637   4.195
56634W        W29059  10.725   2.743  11.613
56635W        W29060  38.017   7.788   1.225
56636W        W29061   3.727   4.888   1.908
56637W        W29062  34.454   4.359   4.161
56638W        W29063   0.969  30.109  10.497
56639W        W29064  33.423  36.403   4.124
56640W        W29065   7.844   5.850   1.753
56641W        W29066  42.022  23.197   0.964
56642W        W29067  11.665   1.340   2.333
56643W        W29068  18.244   1.819   0.393
56644W        W29069  34.956  40.467   0.753
56645W        W29070   1.947  44.803   2.184
56646W        W29071  17.083   8.314  13.974
56647W        W29072   5.387  22.019  14.819
56648W        W29073  41.838  31.639  13.316
56649W        W29074   2.438  27.144  14.366
56650W        W29075  22.080  42.432  14.993
56651W        W29076  34.930   8.778   1.736
56652W        W29077   4.346  17.677   4.729
56653W        W29078  21.101  30.422   0.914
56654W        W29079  34.558   4.764   4.165
56655W        W29080  30.509   0.814   4.722
56656W        W29081  14.234  13.340   4.727
56657W        W29082  30.553  37.981  13.394
56658W        W29083   3.448  41.821  11.018
56659W        W29084  15.793  29.592  14.471
56660W        W29085   0.264   2.379  12.982
56661W        W29086  19.154   7.682   2.269
56662W        W29087  29.566  37.429  12.856
56663W        W29088   1.889  43.911  14.282
56664W        W29089   7.409  31.554   3.850
56665W        W29090  31.434  41.514   4.598
56666W        W29091  28.045  15.794   4.783
56667W        W29092   2.736  26.587   2.192
56668W        W29093  17.220  31.636   3.797
56669W        W29094  44.800  32.599  12.894
56670W        W29095   8.782   9.317  14.451
56671W        W29096   2.742  24.581   2.375
56672W        W29097   0.488   3.928  11.993
56673W        W29098  41.375  19.058  14.491
56674W        W29099  17.718   2.273   2.322
56675W        W29100  10.211   0.945  13.796
56676W        W29101  44.977  32.909  14.895
56677W        W29102  18.125  30.430  14.795
56678W        W29103  32.911  20.726   0.952
56679W        W29104  44.997  21.605   2.394
56680W        W29105  19.729  37.869   0.479
56681W        W29106  38.933  44.771  14.287
56682W        W29107  34.529   3.951   0.816
56683W        W29108   2.746  36.095  12.040
56684W        W29109  17.695  22.023   2.746
56685W        W29110  43.314   1.279   2.700
56686W        W29111  35.931  28.645   2.321
56687W        W29112  10.748  19.758   1.876
56688W        W29113  38.537  42.383   3.836
56689W        W29114   3.773  16.280   1.892
56690W        W29115   9.272  24.610   4.258
56691W        W29116  30.045   9.670  12.557
56692W        W29117  32.487   3.234   4.219
56693W        W29118  26.084  27.123   2.384
56694W        W29119  13.141  25.985   4.292
56695W        W29120   2.828   9.309  12.534
56696W        W29121  32.907  31.927  13.533
56697W        W29122  30.514  21.620   2.276
56698W        W29123  41.857  39.556   3.224
56699W        W29124  40.488  24.081   2.191
56700W        W29125  13.682  25.582   4.113
56701W        W29126  43.933  41.448  13.332
56702W        W29127  40.898  23.121  14.419
56703W        W29128  25.706  34.474  13.410
56704W        W29129  30.448  15.313  11.886
56705W        W29130  29.069  32.548  10.645
56706W        W29131   0.268  30.935  12.468
56707W        W29132  12.336  28.971   0.282
56708W        W29133  42.481   8.314  12.382
56709W        W29134   5.836  29.042  12.953
56710W        W29135   6.916   4.839  10.540
56711W        W29136  33.398  25.470  10.577
56712W        W29137  19.199  36.493  11.858
56713W        W29138  38.047   3.759   3.255
56714W        W29139  38.414  44.475   0.472
56715W        W29140  31.025  25.075   0.810
56716W        W29141   5.897  25.071   3.836
56717W        W29142  28.502   7.864  14.941
56718W        W29143  10.327   1.940   1.714
56719W        W29144  12.258  22.696   2.285
56720W        W29145  30.046  15.649  13.919
56721W        W29146  21.017  17.785   3.632
56722W        W29147   2.756  21.080  12.825
56723W        W29148  43.983  36.979  12.091
56724W        W29149   2.389  29.596   0.354
56725W        W29150  32.543   3.831   1.255
56726W        W29151   1.293  32.419   2.837
56727W        W29152   2.450   7.339  12.947
56728W        W29153  31.469  14.651  13.920
56729W        W29154   2.305  13.657  11.487
56730W        W29155  16.619   3.891  13.310
56731W        W29156  27.585  35.417   2.317
56732W        W29157  13.815   7.844  12.942
56733W        W29158   8.165   3.825  14.346
56734W        W29159  37.929  39.341   2.270
56735W        W29160   1.950   2.862  13.835
56736W        W29161  17.705  44.475  10.138
56737W        W29162   1.744   8.808   2.762
56738W        W29163  36.366   0.783  12.468
56739W        W29164  19.615   5.421   0.243
56740W        W29165  15.651  18.565   0.333
56741W        W29166  32.453  26.125  10.889
56742W        W29167  21.750  30.018   1.797
56743W        W29168   2.758   2.313   2.263
56744W        W29169  35.094   5.814   2.688
56745W        W29170   4.407  14.312   4.325
56746W        W29171  42.865  16.148  14.002
56747W        W29172   9.783  31.472  13.863
56748W        W29173  40.988  27.156  10.946
56749W        W29174  44.273   5.846   1.899
56750W        W29175   5.202   9.731   4.309
56751W        W29176  35.376  18.231   1.279
56752W        W29177  22.141  10.252   1.759
56753W        W29178  28.539  10.831  12.532
56754W        W29179  12.623  30.158   2.760
56755W        W29180  34.942  23.013  13.459
56756W        W29181  17.086  39.988  14.920
56757W        W29182   5.792   8.781   1.334
56758W        W29183  14.281  34.897   0.787
56759W        W29184  35.928  39.913   1.222
56760W        W29185  40.881  43.424  12.082
56761W        W29186   1.256  25.073  14.456
56762W        W29187   8.344  40.378   0.904
56763W        W29188  21.701  26.566   2.865
56764W        W29189  15.788   1.254   5.264
56765W        W29190  41.387  30.098   1.758
56766W        W29191  13.125  10.235  14.333
56767W        W29192  42.867   2.892   3.376
56768W        W29193  37.473  16.610   4.601
56769W        W29194  34.376  28.018  13.920
56770W        W29195  30.947  28.486  10.514
56771W        W29196  43.422  22.606   3.378
56772W        W29197  14.105  35.898   2.212
56773W        W29198   8.882   3.802  12.015
56774W        W29199  40.903  38.467  11.017
56775W        W29200  16.249  14.149   5.125
56776W        W29201  26.011  22.208   4.138
56777W        W29202   8.271   9.866   2.782
56778W        W29203  23.045  13.737   2.729
56779W        W29204  11.340  26.600   3.382
56780W        W29205   9.257  40.848  12.889
56781W        W29206   5.378   6.815   4.263
56782W        W29207  41.303  10.852   4.666
56783W        W29208  38.399   9.879  11.472
56784W        W29209  23.225  19.163   4.719
56785W        W29210   5.699  23.242  10.937
56786W        W29211  37.489  17.582   1.278
56787W        W29212   4.705  13.305   3.779
56788W        W29213  13.743  32.965   2.368
56789W        W29214  19.280   0.987  11.413
56790W        W29215  10.210   1.472   1.811
56791W        W29216  11.216  23.523   0.360
56792W        W29217  36.092   4.759  13.830
56793W        W29218  15.650   8.314   4.341
56794W        W29219  24.090  20.764   4.622
56795W        W29220  30.086  16.726   3.237
56796W        W29221  35.856  11.836   1.926
56797W        W29222   4.710  33.924   4.305
56798W        W29223  15.109  11.129   1.289
56799W        W29224   1.961  18.640   3.366
56800W        W29225  40.358  31.621  14.348
56801W        W29226   4.386   4.807  14.468
56802W        W29227  10.740  12.737   4.190
56803W        W29228  35.433  23.499   9.612
56804W        W29229  43.786  22.127  11.025
56805W        W29230   2.335  30.498   3.344
56806W        W29231   3.918  17.065  10.919
56807W        W29232   4.770  28.033   3.255
56808W        W29233  38.967   0.297   0.304
56809W        W29234  43.363  14.805   1.826
56810W        W29235  34.880   6.372   2.720
56811W        W29236  20.197  26.167  13.052
56812W        W29237  31.987  39.827   4.144
56813W        W29238  44.822  12.215   2.866
56814W        W29239  38.521  13.111  11.075
56815W        W29240  23.208  13.127  10.578
56816W        W29241  22.202   0.879  12.459
56817W        W29242  12.720   7.887  11.604
56818W        W29243  42.293  26.053   1.931
56819W        W29244  19.126  33.022  12.353
56820W        W29245  35.100  32.539   2.661
56821W        W29246  35.040  26.531   0.841
56822W        W29247  43.807  42.463   2.273
56823W        W29248  31.622  22.552  13.313
56824W        W29249   3.900   3.829   4.174
56825W        W29250   8.307  36.525   3.230
56826W        W29251  24.007   4.325   0.788
56827W        W29252   8.701   0.341   0.927
56828W        W29253  25.111   1.781  12.347
56829W        W29254   0.390  19.690   1.373
56830W        W29255  42.344  11.352  11.885
56831W        W29256  10.185  40.487   2.723
56832W        W29257  11.847  36.540   3.297
56833W        W29258  28.110  37.482   3.222
56834W        W29259  15.581  19.121  14.452
56835W        W29260  12.723  23.710  13.060
56836W        W29261  43.375  16.667   3.325
56837W        W29262  38.875  19.125  13.415
56838W        W29263  24.227  23.038   4.349
56839W        W29264  11.221  16.256   2.879
56840W        W29265  25.025   2.767  11.411
56841W        W29266  34.405  20.209   1.741
56842W        W29267  43.319  19.049  11.069
56843W        W29268  19.124   4.929  13.418
56844W        W29269  25.702  18.117   0.430
56845W        W29270  18.069  11.757   2.781
56846W        W29271  40.020  38.483  12.956
56847W        W29272  36.349  38.439  10.919
56848W        W29273  41.808  11.702  12.490
56849W        W29274  20.056   3.456   0.373
56850W        W29275  20.551  14.291   1.907
56851W        W29276  44.811   9.256   3.703
56852W        W29277  19.231  25.570  12.022
56853W        W29278   9.821  44.795  13.389
56854W        W29279  24.051   3.780  13.544
56855W        W29280   1.912  14.831   4.343
56856W        W29281  31.937  42.944  11.557
56857W        W29282  40.863  18.266  14.472
56858W        W29283   3.328  25.587   4.262
56859W        W29284  31.454  18.236  10.502
56860W        W29285  29.634  21.112  12.850
56861W        W29286   8.334  37.960   5.689
56862W        W29287  33.943   6.702  13.468
56863W        W29288  23.151  43.978   3.350
56864W        W29289   0.343  36.870   3.374
56865W        W29290  11.633  18.204  14.414
56866W        W29291  37.897   1.279   4.346
56867W        W29292   4.869  15.762  13.512
56868W        W29293  35.954  44.824  11.077
56869W        W29294  40.374  18.746  10.596
56870W        W29295   8.789  26.672  13.805
56871W        W29296  43.790  11.755   4.284
56872W        W29297  11.689   3.364  10.065
56873W        W29298   5.427  37.014   3.718
56874W        W29299  29.927   1.415   0.801
56875W        W29300  11.687   0.286  12.480
56876W        W29301  32.626  31.593  10.961
56877W        W29302  39.050  40.920  13.416
56878W        W29303   5.436  25.994   2.750
56879W        W29304  13.227  30.918   4.609
56880W        W29305  20.701  28.058  14.797
56881W        W29306  17.294  20.572  14.896
56882W        W29307  11.229  37.458  10.964
56883W        W29308  29.124  37.385  11.875
56884W        W29309  41.826  15.679  12.937
56885W        W29310  11.240  37.951   1.923
56886W        W29311   5.768  35.539   1.319
56887W        W29312  10.761  43.766  13.951
56888W        W29313  20.160  25.073   3.285
56889W        W29314   5.731  44.295  12.006
56890W        W29315  25.695  18.644  13.329
56891W        W29316  22.214  19.566   0.469
56892W        W29317  35.893  43.855  11.920
56893W        W29318   5.893  24.027   1.925
56894W        W29319  33.964  41.795   0.796
56895W        W29320  16.134  41.486  10.544
56896W        W29321  28.109  25.495   3.200
56897W        W29322   1.436   4.884  11.887
56898W        W29323  26.137  42.460  14.992
56899W        W29324   9.665  41.813   4.281
56900W        W29325  33.558  38.386   2.377
56901W        W29326  38.880   8.320  14.382
56902W        W29327  40.854  37.018  12.878
56903W        W29328  18.121  32.997   2.209
56904W        W29329   9.280  44.763  14.953
56905W        W29330  29.473  15.740  13.535
56906W        W29331  10.810   5.814   4.232
56907W        W29332  36.091  34.412   3.699
56908W        W29333   0.325  17.221  11.503
56909W        W29334  40.811  10.850  14.415
56910W        W29335  38.903  14.736  11.603
56911W        W29336  17.672  28.179   3.712
56912W        W29337  23.108  10.693   3.706
56913W        W29338  35.924  29.558   0.735
56914W        W29339  14.248   2.411  10.894
56915W        W29340  23.012  32.593  11.428
56916W        W29341   4.837  13.790  11.474
56917W        W29342  26.061  30.964   3.749
56918W        W29343  10.702  16.769  13.034
56919W        W29344  36.540  33.576   1.213
56920W        W29345  39.888  29.436  12.030
56921W        W29346  32.019  19.756  13.062
56922W        W29347   9.395   7.719   1.769
56923W        W29348  39.494  39.369  12.862
56924W        W29349  16.653  31.615   4.813
56925W        W29350  20.212  26.500   1.322
56926W        W29351  10.768   5.388   3.787
56927W        W29352  36.919  33.937   0.863
56928W        W29353  21.240  25.969  10.007
56929W        W29354  42.831  17.729  12.856
56930W        W29355  18.165  15.682  13.844
56931W        W29356   0.869   4.319  11.896
56932W        W29357  33.905  28.520   3.270
56933W        W29358  27.567   0.268  12.949
56934W        W29359  25.159  24.036   4.197
56935W        W29360  28.184  35.040   1.870
56936W        W29361  44.929  43.392   0.408
56937W        W29362  37.395  26.638  10.531
56938W        W29363  17.258  39.901   3.285
56939W        W29364  28.647  39.550   1.381
56940W        W29365  38.050   2.892  11.904
56941W        W29366  35.497  14.175   3.773
56942W        W29367   1.430  37.837   3.827
56943W        W29368  21.017  29.441  11.892
56944W        W29369  12.163   4.718   2.703
56945W        W29370  16.751   2.285   2.202
56946W        W29371   6.678  31.617   1.423
56947W        W29372  37.360  34.569  12.559
56948W        W29373  24.665  33.100   0.280
56949W        W29374  36.983   1.424  13.342
56950W        W29375   4.274  18.153   1.408
56951W        W29376  41.318  28.121  12.533
56952W        W29377  34.005  30.098  14.775
56953W        W29378  16.721   4.859  12.958
56954W        W29379   8.388  15.730   4.657
56955W        W29380  29.086  13.615   4.127
56956W        W29381  40.052   5.422  14.319
56957W        W29382  17.186  32.602   0.408
56958W        W29383  34.402  27.657  11.593
56959W        W29384  21.189  16.163  12.895
56960W        W29385  32.893  37.473   2.278
56961W        W29386  18.189  11.867   4.306
56962W        W29387  26.039  21.696  10.424
56963W        W29388  16.618   7.764  13.871
56964W        W29389  18.783  24.148  13.021
56965W        W29390  19.222  28.543   3.635
56966W        W29391   1.250  44.297  13.442
56967W        W29392   7.332  40.897   0.872
56968W        W29393  39.874  44.352  14.905
56969W        W29394  29.496  19.102   0.900
56970W        W29395  16.123  26.030   0.468
56971W        W29396   1.270  36.012   2.253
56972W        W29397  25.571   4.248  13.829
56973W        W29398  35.535  18.207  12.353
56974W        W29399  20.528  35.928  11.123
56975W        W29400  12.315  35.959  11.609
56976W        W29401  10.333   4.884   1.378
56977W        W29402  33.916  18.706   4.679
56978W        W29403  20.245  29.963   1.380
56979W        W29404  35.075   8.887  12.381
56980W        W29405  19.597   3.418  13.476
56981W        W29406  18.597  35.058  12.057
56982W        W29407  26.538   2.356   4.791
56983W        W29408   1.360  12.673  12.960
56984W        W29409  18.253   8.394  14.297
56985W        W29410   1.342  18.574   4.779
56986W        W29411  39.409  27.691   2.388
56987W        W29412  25.995  40.840  12.994
56988W        W29413  41.851   8.284  14.955
56989W        W29414  20.560  31.567   2.810
56990W        W29415  23.113  42.527   4.341
56991W        W29416  40.464  26.510  12.030
56992W        W29417  15.746  33.385  11.935
56993W        W29418  32.579   6.298   0.757
56994W        W29419  16.679  39.022  10.908
56995W        W29420  37.864  35.527  11.936
56996W        W29421  12.632  34.932   4.192
56997W        W29422  26.981  37.860  10.601
56998W        W29423  22.179   5.216  14.019
56999W        W29424  42.776  44.406   4.299
57000W        W29425   8.304   9.306  13.064
57001W        W29426  20.185  26.539  11.988
57002W        W29427  13.651  37.945  11.449
57003W        W29428  34.996  39.514  14.978
57004W        W29429  35.930  31.645  12.407
57005W        W29430  26.123  19.204   0.753
57006W        W29431  44.966  17.269  11.985
57007W        W29432   1.827   7.332  13.382
57008W        W29433  36.080  15.774  11.385
57009W        W29434  36.042  38.400   1.280
57010W        W29435  23.491  21.113   9.945
57011W        W29436  23.645  22.506   0.288
57012W        W29437  32.544   3.896  11.121
57013W        W29438  31.563   3.757  12.895
57014W        W29439  16.679   0.379   1.749
57015W        W29440  19.077   5.376  13.437
57016W        W29441  14.651  13.158   0.465
57017W        W29442   4.213  41.814  11.487
57018W        W29443   1.266   0.955  11.026
57019W        W29444  33.066   7.193  13.318
57020W        W29445  28.665  38.972   4.602
57021W        W29446   5.382  37.058   2.359
57022W        W29447  33.494  14.161  13.913
57023W        W29448  10.695  39.824  11.891
57024W        W29449  38.515  36.068  11.527
57025W        W29450  17.739  20.578  12.910
57026W        W29451  18.224  31.536   2.203
57027W        W29452  40.396  36.548  14.292
57028W        W29453  23.664  12.265   0.438
57029W        W29454  27.171  10.841  10.607
57030W        W29455  37.987  36.442  11.923
57031W        W29456  35.005   2.365   1.295
57032W        W29457  39.534  20.212  12.986
57033W        W29458  28.553  44.981   4.699
57034W        W29459  26.469  12.767   4.616
57035W        W29460  34.025  24.485  12.450
57036W        W29461   3.805  17.676   4.738
57037W        W29462  14.738  14.150  12.968
57038W        W29463  30.153   2.768  12.501
57039W        W29464  32.539  18.177  12.886
57040W        W29465  40.923  14.138  12.012
57041W        W29466  16.071  23.496   2.711
57042W        W29467  17.567  42.803  13.405
57043W        W29468  20.244  19.657   4.320
57044W        W29469  16.713  13.113   0.403
57045W        W29470  27.966  43.907  13.056
57046W        W29471  26.991   6.311   3.367
57047W        W29472  31.477  28.434   3.714
57048W        W29473   5.356  13.660   3.160
57049W        W29474   1.388   5.319  12.346
57050W        W29475  30.454  15.151  10.956
57051W        W29476  37.872   6.188   1.789
57052W        W29477  38.503  12.771  11.962
57053W        W29478  22.058  44.887  14.768
57054W        W29479  30.068  39.979   4.292
57055W        W29480  24.066  10.208  13.543
57056W        W29481  40.385   5.315   0.822
57057W        W29482   0.776  42.880   1.893
57058W        W29483   7.761  28.600   2.281
57059W        W29484  27.983  32.966  10.907
57060W        W29485   2.924  27.145   4.232
57061W        W29486   9.267  24.217   2.333
57062W        W29487  13.170   5.347   2.771
57063W        W29488   6.330  41.349   3.644
57064W        W29489  27.173  38.525   4.637
57065W        W29490  14.729  38.518   1.902
57066W        W29491  11.716   0.446   0.264
57067W        W29492  39.953   6.307   2.691
57068W        W29493  42.402  22.693  14.831
57069W        W29494  37.040  17.208   4.226
57070W        W29495  37.414  29.564   2.884
57071W        W29496  42.312   5.779  12.031
57072W        W29497  44.953  18.694   4.625
57073W        W29498  10.657  10.673  11.540
57074W        W29499   6.817  37.349   1.718
57075W        W29500  26.983  30.950  13.810
57076W        W29501  19.725  16.794   2.354
57077W        W29502  20.702  38.870   0.912
57078W        W29503  17.084  26.702  10.472
57079W        W29504  25.084  39.838   1.867
57080W        W29505   5.701  25.605   2.697
57081W        W29506  44.764  21.608  11.067
57082W        W29507  22.621  10.279  14.793
57083W        W29508  25.482  11.668   3.285
57084W        W29509   3.734  24.700  13.496
57085W        W29510  27.478   0.288  13.909
57086W        W29511  28.449  41.914  14.926
57087W        W29512  43.940  36.077   3.676
57088W        W29513  28.936   5.805   4.190
57089W        W29514  41.998  40.538  13.876
57090W        W29515  10.341  25.085  12.013
57091W        W29516  25.985  16.646   0.298
57092W        W29517  29.019  31.148  13.059
57093W        W29518  38.965  30.416  11.591
57094W        W29519  37.541  42.793   4.287
57095W        W29520   3.434  28.617   3.385
57096W        W29521   7.187  39.536  13.005
57097W        W29522  42.459  20.077  14.283
57098W        W29523  16.655  31.079   9.973
57099W        W29524  42.862   0.385   4.340
57100W        W29525  14.617  33.909  12.009
57101W        W29526  18.147  22.744  13.062
57102W        W29527  24.157   5.349   4.233
57103W        W29528  40.487  17.119   1.323
57104W        W29529  34.505  27.029   3.342
57105W        W29530  17.705  30.530   5.268
57106W        W29531  11.261  19.580   0.472
57107W        W29532   5.788  23.527  12.541
57108W        W29533   7.680   3.853   4.680
57109W        W29534  35.406   4.785   1.739
57110W        W29535  14.805  38.529   0.309
57111W        W29536  30.121   8.345   2.782
57112W        W29537  27.489  29.058  12.501
57113W        W29538   3.761  26.651  14.486
57114W        W29539   4.397  27.636  14.437
57115W        W29540  27.517   3.272   0.296
57116W        W29541  29.146  30.584  12.491
57117W        W29542   9.765  16.103  10.643
57118W        W29543  14.757  40.888   4.733
57119W        W29544   4.786  21.512  13.381
57120W        W29545  16.082  28.436   1.256
57121W        W29546  30.076  42.991   3.788
57122W        W29547  40.326  31.104  13.007
57123W        W29548  25.539  16.655  12.963
57124W        W29549  36.934  38.403   2.347
57125W        W29550  16.797  29.604   0.428
57126W        W29551  23.591  33.059   3.154
57127W        W29552  32.431  34.108  14.320
57128W        W29553  13.154  37.918   1.711
57129W        W29554   1.968   1.817   1.330
57130W        W29555  43.911   1.892   1.213
57131W        W29556  28.986   7.256  13.369
57132W        W29557  43.290  27.691   0.246
57133W        W29558  11.285  24.067  14.894
57134W        W29559   6.759  42.298   4.599
57135W        W29560  39.553   5.886  11.090
57136W        W29561  44.425   6.916   1.250
57137W        W29562  11.689  39.504  10.567
57138W        W29563   9.823  28.460   2.879
57139W        W29564   8.696  35.892   3.681
57140W        W29565   9.313   3.276  13.467
57141W        W29566   6.777  43.462   2.340
57142W        W29567  22.727  28.167  14.986
57143W        W29568  33.412  42.438   4.143
57144W        W29569  24.209  29.611  13.976
57145W        W29570  20.164  35.370   1.338
57146W        W29571  35.890  38.874   4.764
57147W        W29572  38.035  13.117   2.356
57148W        W29573   2.431  32.488  11.546
57149W        W29574  32.930  27.966  12.908
57150W        W29575  37.506  10.807  14.418
57151W        W29576  33.496   5.934  12.006
57152W        W29577  32.937   3.388  14.818
57153W        W29578  11.293   2.366  12.370
57154W        W29579  34.878  35.564   4.242
57155W        W29580  24.507  30.584  12.867
57156W        W29581   0.878  38.368   4.222
57157W        W29582  35.409  23.718  13.430
57158W        W29583  20.693  23.712   2.782
57159W        W29584  37.987  40.959   4.662
57160W        W29585  20.727  27.986  13.417
57161W        W29586  12.154  31.550  12.043
57162W        W29587  22.677   4.332   3.871
57163W        W29588   5.776   1.889  12.993
57164W        W29589  43.884  24.011   0.856
57165W        W29590   7.777  30.638   2.889
57166W        W29591  15.153  33.035   2.668
57167W        W29592  42.027  34.459   1.444
57168W        W29593  37.524  31.909   1.752
57169W        W29594  24.528  12.733  14.354
57170W        W29595   1.434  14.644   4.703
57171W        W29596  27.133   8.260   0.372
57172W        W29597  12.224  33.911  10.960
57173W        W29598  11.168  21.129   3.697
57174W        W29599  32.951  16.570  12.424
57175W        W29600  12.737   4.393   1.422
57176W        W29601   9.377  32.925   3.178
57177W        W29602   6.702  33.529  13.976
57178W        W29603  28.607  38.419   2.749
57179W        W29604  32.543   4.441  11.892
57180W        W29605  20.627  18.066   2.688
57181W        W29606  17.758  31.945   2.674
57182W        W29607   4.750   8.776  13.392
57183W        W29608  30.631  33.523   4.614
57184W        W29609  18.053  20.207  13.891
57185W        W29610  33.098  23.010   2.818
57186W        W29611  41.986  32.451  13.329
57187W        W29612  43.998  43.407   0.784
57188W        W29613  34.448  26.688   4.648
57189W        W29614  17.092   7.257  10.108
57190W        W29615  13.220  23.096  10.592
57191W        W29616  28.971   8.224  11.860
57192W        W29617   4.333  10.183   2.899
57193W        W29618  26.012  43.496  10.593
57194W        W29619  27.643   7.856  14.800
57195W        W29620  27.037   5.353  12.854
57196W        W29621  34.411   3.823  14.318
57197W        W29622  21.519   2.276   3.247
57198W        W29623   4.440   5.423   2.415
57199W        W29624  37.050   1.801  13.799
57200W        W29625  32.081  25.694   3.858
57201W        W29626  35.898  38.445  14.782
57202W        W29627  33.606  13.199   3.654
57203W        W29628  42.801  43.379   4.645
57204W        W29629  32.573  31.593  12.430
57205W        W29630  11.304  31.437  14.282
57206W        W29631   1.301  13.314   1.889
57207W        W29632   2.920  43.336   1.393
57208W        W29633  40.466  15.320  12.932
57209W        W29634  36.391  22.626   2.903
57210W        W29635  29.168  41.351   4.632
57211W        W29636  42.940   1.847  12.391
57212W        W29637   4.727   5.196  11.571
57213W        W29638   4.285  24.216  13.034
57214W        W29639  37.923  33.985   3.266
57215W        W29640  21.697  15.720   1.451
57216W        W29641  42.321  37.906  11.943
57217W        W29642  40.916  18.251  13.372
57218W        W29643  24.714  36.563   2.829
57219W        W29644  33.044  36.949  14.334
57220W        W29645   9.875   5.721   3.281
57221W        W29646  26.076   3.870   3.700
57222W        W29647  12.660  42.453   3.834
57223W        W29648  22.176  27.985  10.533
57224W        W29649  12.317   7.300   3.776
57225W        W29650  12.691  28.659   2.681
57226W        W29651  17.095  10.285   2.664
57227W        W29652   5.241   4.360   0.254
57228W        W29653  27.525  20.161  12.908
57229W        W29654   1.356  14.645   4.280
57230W        W29655  17.098  20.067  11.005
57231W        W29656  21.731   3.327   3.648
57232W        W29657  22.534  16.195  14.463
57233W        W29658  21.064  20.610   2.192
57234W        W29659  25.140  26.543   3.637
57235W        W29660  39.524  43.822   0.447
57236W        W29661  14.160   8.217   4.813
57237W        W29662  11.838  19.640   3.709
57238W        W29663  24.222  22.131   3.799
57239W        W29664  34.558  34.928   4.235
57240W        W29665  17.226   6.691   2.261
57241W        W29666  36.384   1.780   2.328
57242W        W29667  11.290  38.879   2.280
57243W        W29668   2.726   1.937  11.583
57244W        W29669  42.420   2.832   1.273
57245W        W29670  34.024  28.021  12.049
57246W        W29671  37.058  35.459   2.754
57247W        W29672  25.659   6.223  13.994
57248W        W29673  11.365  15.191   3.371
57249W        W29674  32.486  38.497  11.856
57250W        W29675   9.880  11.724   0.265
57251W        W29676  12.732  41.869   5.162
57252W        W29677  23.600  28.181  11.978
57253W        W29678  11.207  36.856  11.596
57254W        W29679  37.938  25.143  12.385
57255W        W29680  12.771  30.459   4.256
57256W        W29681  22.172  31.641   0.765
57257W        W29682  38.983  25.130   1.733
57258W        W29683   2.823  13.776   4.706
57259W        W29684  17.116  37.872  14.381
57260W        W29685  29.938  27.091  12.520
57261W        W29686  25.032   5.302  13.323
57262W        W29687  43.775  23.037   2.869
57263W        W29688  34.446   9.645   3.252
57264W        W29689  26.562   3.268  12.069
57265W        W29690   8.182  41.393  13.867
57266W        W29691  24.515  34.587   1.341
57267W        W29692  39.503  18.173  13.043
57268W        W29693  38.988  21.595  14.444
57269W        W29694  28.037  32.890   5.141
57270W        W29695  10.652  18.067  11.916
57271W        W29696  43.915  20.092   4.139
57272W        W29697  21.570  26.043   0.408
57273W        W29698  39.004  38.525   3.814
57274W        W29699  39.984  38.977  10.957
57275W        W29700  31.425  41.965   3.811
57276W        W29701  29.588   2.827  12.373
57277W        W29702  23.155  24.509  13.533
57278W        W29703  42.513  17.718  14.396
57279W        W29704   2.887  13.298  14.278
57280W        W29705   3.774  44.259  10.984
57281W        W29706   9.827  31.601  12.858
57282W        W29707  24.115  12.737   3.281
57283W        W29708  22.008  39.857   2.332
57284W        W29709  12.249  11.255   3.300
57285W        W29710  31.005  12.210   0.341
57286W        W29711  27.977   5.913   3.660
57287W        W29712  17.592   0.832  12.020
57288W        W29713  31.959  44.465  11.115
57289W        W29714   3.348  42.013   3.705
57290W        W29715   0.404  38.389   4.273
57291W        W29716  43.899  26.641  13.491
57292W        W29717   6.824  10.197  14.892
57293W        W29718  19.162  43.008   0.777
57294W        W29719  23.022  10.299  14.960
57295W        W29720  26.153  11.650  13.917
57296W        W29721   4.834  19.202   0.249
57297W        W29722  32.043   4.743  13.493
57298W        W29723   2.814  10.790  12.497
57299W        W29724  29.040   1.870  13.966
57300W        W29725  15.644  10.234  12.406
57301W        W29726  14.319  38.016   3.321
57302W        W29727   9.189   1.921   3.357
57303W        W29728  12.169  16.159   4.669
57304W        W29729  25.065  25.642  10.998
57305W        W29730  18.147   3.223  12.931
57306W        W29731  34.412   2.963  12.905
57307W        W29732  43.855  34.603   3.669
57308W        W29733  12.693  14.810  11.413
57309W        W29734  37.860  26.955  12.486
57310W        W29735  37.041  26.655  11.521
57311W        W29736  18.587   2.472  12.045
57312W        W29737  26.049  14.816   0.310
57313W        W29738  36.932  13.251   1.909
57314W        W29739   0.794  43.017  10.120
57315W        W29740  22.526  22.614   3.643
57316W        W29741   6.876  25.603   0.787
57317W        W29742   1.290  14.606   0.818
57318W        W29743  40.036  38.325   2.761
57319W        W29744  41.443  37.002   1.300
57320W        W29745  12.329  25.196  10.550
57321W        W29746  43.775  23.192  10.596
57322W        W29747  38.531   8.790   0.809
57323W        W29748  30.985  18.235  14.869
57324W        W29749  41.338  23.218   4.171
57325W        W29750  41.025  42.787  13.362
57326W        W29751  23.147   3.808   1.407
57327W        W29752   8.260  39.360  12.864
57328W        W29753  31.907   9.834   1.752
57329W        W29754  30.056  42.520   2.700
57330W        W29755  10.351  36.053  14.773
57331W        W29756  18.681  43.470  12.476
57332W        W29757  12.172  41.357   4.794
57333W        W29758  26.024  28.042   0.333
57334W        W29759   4.239  43.827   1.793
57335W        W29760  28.982  24.992  14.935
57336W        W29761   5.312  22.576   4.823
57337W        W29762  41.012   9.889   4.126
57338W        W29763  26.141   6.377  14.510
57339W        W29764  41.791  29.921   2.315
57340W        W29765  40.527  24.492  12.398
57341W        W29766   5.864  40.504  12.063
57342W        W29767  11.200  30.630   0.896
57343W        W29768   3.286  20.762  13.374
57344W        W29769  14.804   2.881   3.372
57345W        W29770  29.453   0.917   4.198
57346W        W29771  28.669   7.710  13.868
57347W        W29772  13.679   5.931   0.369
57348W        W29773  13.605   4.432  12.066
57349W        W29774   8.200   9.867  14.775
57350W        W29775  36.917  25.704   3.859
57351W        W29776  14.275  43.498   1.793
57352W        W29777   6.415   8.382  13.518
57353W        W29778  21.250  34.981   4.313
57354W        W29779  21.095   0.248  10.555
57355W        W29780   8.895  22.247   0.361
57356W        W29781  34.485  17.150   0.297
57357W        W29782   4.847  27.687   2.715
57358W        W29783  10.382  15.325   0.917
57359W        W29784  21.687  26.535  10.517
57360W        W29785  40.461  37.909   0.448
57361W        W29786  32.123  20.577   3.236
57362W        W29787   8.681  14.098  10.081
57363W        W29788  32.530  11.226   2.852
57364W        W29789  33.382  15.727   0.924
57365W        W29790  29.133   0.972  12.045
57366W        W29791  30.529  41.883  10.479
57367W        W29792  31.918  27.158   1.931
57368W        W29793  31.903  39.945  14.930
57369W        W29794  36.495  31.408   3.865
57370W        W29795  11.734  31.056  10.429
57371W        W29796   0.340  40.873   4.765
57372W        W29797  42.784  44.762   1.760
57373W        W29798  11.369   9.159   4.199
57374W        W29799   3.765  16.742   2.318
57375W        W29800  34.944  40.420  13.964
57376W        W29801  13.341  23.184  14.997
57377W        W29802  11.662   7.209  10.911
57378W        W29803  39.849  42.456   4.778
57379W        W29804   6.292   3.226  13.062
57380W        W29805  33.552  37.404   2.810
57381W        W29806  12.133   1.365  12.479
57382W        W29807  13.723  31.430   1.799
57383W        W29808  31.587  12.322  11.858
57384W        W29809  20.559  35.472  14.930
57385W        W29810  25.576   9.814   3.709
57386W        W29811  31.151   9.827  12.900
57387W        W29812  17.747  29.444   2.890
57388W        W29813  39.402  40.873  11.893
57389W        W29814  20.599  42.503   4.310
57390W        W29815  33.464  35.492  13.935
57391W        W29816  27.494  34.945  11.392
57392W        W29817  26.107   3.420   1.846
57393W        W29818   5.376   0.820  14.992
57394W        W29819  12.328  13.694   4.761
57395W        W29820  30.919  44.311   1.927
57396W        W29821  30.002   3.380  14.840
57397W        W29822   0.371  18.721   3.304
57398W        W29823  13.293   8.161  11.478
57399W        W29824  41.468   3.814  13.910
57400W        W29825  30.931  41.358  12.431
57401W        W29826  20.192  11.349  12.855
57402W        W29827  22.544  15.581   2.250
57403W        W29828  17.568  10.741   2.849
57404W        W29829  13.730  28.497   4.677
57405W        W29830  25.974  14.729  11.045
57406W        W29831   2.271  17.244  14.797
57407W        W29832   7.304  17.162  13.907
57408W        W29833  43.337  31.453  13.508
57409W        W29834  35.551   9.876   3.809
57410W        W29835  44.809  38.418   1.221
57411W        W29836  12.213  19.697   1.409
57412W        W29837  25.679  25.979   4.735
57413W        W29838  10.850  33.509   1.340
57414W        W29839  38.841  36.422  12.885
57415W        W29840   0.354   1.394   0.339
57416W        W29841  37.967  34.541  14.850
57417W        W29842  19.210  17.620   4.128
57418W        W29843  36.394   9.189  10.903
57419W        W29844   0.445  11.731   1.303
57420W        W29845  16.207  41.462   2.416
57421W        W29846  39.524  42.328   4.643
57422W        W29847  43.850   7.718   0.750
57423W        W29848  41.530  21.755  12.575
57424W        W29849   2.463   8.758   4.764
57425W        W29850  20.649  32.117   0.926
57426W        W29851  27.479  28.946   3.196
57427W        W29852   5.882  37.982   2.754
57428W        W29853  17.701  38.835  11.015
57429W        W29854   7.344  44.401   3.772
57430W        W29855   9.889  10.864   1.845
57431W        W29856  21.106  37.508   0.966
57432W        W29857  32.134  33.105   9.960
57433W        W29858  26.997  35.975  13.458
57434W        W29859  16.207  37.929  12.087
57435W        W29860  32.479  36.889   4.805
57436W        W29861  18.748  25.708   3.845
57437W        W29862  38.465  19.546   4.769
57438W        W29863   5.430  21.231  11.088
57439W        W29864  34.990  32.934   4.202
57440W        W29865   0.468  27.973  12.398
57441W        W29866  24.144   8.224   4.654
57442W        W29867  12.177  36.570  14.852
57443W        W29868   1.406   2.723  14.952
57444W        W29869  31.614  18.774  14.386
57445W        W29870  27.603  11.222   3.207
57446W        W29871  26.584  15.821  13.992
57447W        W29872   2.284  31.575  10.507
57448W        W29873  33.038  42.363  14.793
57449W        W29874  12.757  24.075   3.734
57450W        W29875  19.176  29.629   3.304
57451W        W29876  35.409  30.618   2.763
57452W        W29877  41.294   5.749  13.842
57453W        W29878   8.240  31.592  14.929
57454W        W29879  21.073  20.172   0.927
57455W        W29880   3.806  37.382   2.371
57456W        W29881  18.278  42.341  10.558
57457W        W29882  10.328  38.059  12.365
57458W        W29883  29.096   1.924  14.463
57459W        W29884  24.696  14.201   2.284
57460W        W29885  21.622  40.992  13.463
57461W        W29886  19.220   2.792   3.748
57462W        W29887  16.587   3.400   4.767
57463W        W29888  28.071  30.043   0.949
57464W        W29889   1.955  40.525  11.549
57465W        W29890   7.303   9.659   4.302
57466W        W29891   8.721  33.396  10.484
57467W        W29892   5.395  18.701   0.915
57468W        W29893  21.109  10.637  10.925
57469W        W29894  38.351  40.416  14.360
57470W        W29895  20.092  26.657   4.271
57471W        W29896   4.349  12.828   0.874
57472W        W29897  19.249   4.278   1.883
57473W        W29898  16.196  31.906   1.372
57474W        W29899  22.610  26.995  11.377
57475W        W29900  24.182  10.756   1.820
57476W        W29901  29.665  24.177  10.923
57477W        W29902  22.095  20.763  10.459
57478W        W29903  10.206  36.049  12.475
57479W        W29904  18.596  36.073   0.458
57480W        W29905  12.672   5.227   0.890
57481W        W29906  21.721  35.094  12.471
57482W        W29907  13.334  36.379  11.923
57483W        W29908  25.714  42.328   2.207
57484W        W29909  38.072  17.798   0.283
57485W        W29910  32.132  41.814  10.623
57486W        W29911  11.729  26.986   1.292
57487W        W29912   2.827  31.605   4.169
57488W        W29913  44.987  13.106  12.854
57489W        W29914  33.070  28.078   0.294
57490W        W29915  25.121  23.505  11.540
57491W        W29916  14.324  41.953  14.465
57492W        W29917  15.751  36.079   4.636
57493W        W29918  26.138  23.131  12.902
57494W        W29919   6.425  21.694   3.355
57495W        W29920  24.111   0.816  14.003
57496W        W29921  36.486  10.268   1.374
57497W        W29922  27.606   9.346  11.939
57498W        W29923  17.557  19.633   0.766
57499W        W29924   5.439  19.039   4.319
57500W        W29925   8.854  26.005   2.873
57501W        W29926   5.419  25.674   0.898
57502W        W29927  29.936  33.980   3.710
57503W        W29928   0.857  16.176   3.698
57504W        W29929  17.599  11.760   3.682
57505W        W29930  37.975  35.561   0.396
57506W        W29931  32.504  21.069   4.299
57507W        W29932   7.199  30.101   2.839
57508W        W29933   2.802  20.082   3.289
57509W        W29934  14.128  42.356  13.922
57510W        W29935  34.026   0.315  11.423
57511W        W29936  36.933  26.030   0.838
57512W        W29937   9.733  12.707   1.788
57513W        W29938   2.412  26.067  13.004
57514W        W29939   7.879  25.101   4.650
57515W        W29940  29.451  32.455   1.738
57516W        W29941  10.744   0.853   2.790
57517W        W29942  19.039  13.343  13.444
57518W        W29943  23.189   0.872  13.981
57519W        W29944  22.642  26.650   0.728
57520W        W29945   3.347   2.737   2.672
57521W        W29946  28.970  33.964   0.340
57522W        W29947  13.207  10.717  14.276
57523W        W29948  21.038  11.761  10.505
57524W        W29949  20.058  26.661   2.827
57525W        W29950  20.679  15.219  12.058
57526W        W29951  43.968  23.181   1.722
57527W        W29952   5.225  11.853   2.262
57528W        W29953  41.326  16.702   4.121
57529W        W29954  26.510  33.484  12.348
57530W        W29955  29.073   6.296  12.483
57531W        W29956  20.663  30.064  12.536
57532W        W29957   7.196   2.440   1.707
57533W        W29958   8.401  40.970   2.249
57534W        W29959  26.653  41.928   1.359
57535W        W29960  37.548  16.319  13.863
57536W        W29961   4.902  13.340  14.963
57537W        W29962  37.514  41.039   4.780
57538W        W29963   8.403  23.149   0.954
57539W        W29964  43.413  30.553   5.285
57540W        W29965  39.443  14.103   3.214
57541W        W29966  21.716  38.025   0.856
57542W        W29967  25.656  43.878  14.924
57543W        W29968   1.874  42.398   1.828
57544W        W29969  21.170  25.514   4.180
57545W        W29970  13.343  40.999   0.242
57546W        W29971   9.814  14.255   5.222
57547W        W29972  18.784  36.539   0.317
57548W        W29973  28.499   1.385  14.901
57549W        W29974  12.614  37.903   1.846
57550W        W29975   0.966  31.621  12.936
57551W        W29976  18.653  10.677  13.420
57552W        W29977  15.134  38.819   3.332
57553W        W29978  26.089  26.112   4.663
57554W        W29979  36.487  14.278  10.519
57555W        W29980  11.372  17.153  13.538
57556W        W29981  31.535  23.521   4.343
57557W        W29982  26.535  19.668   1.389
57558W        W29983   8.371  31.093  12.841
57559W        W29984  21.160  20.204  11.008
57560W        W29985  44.778   2.800  10.916
57561W        W29986  10.762  30.593  11.107
57562W        W29987   1.843  44.940  11.993
57563W        W29988   8.315  15.814  10.597
57564W        W29989   0.760  35.080  14.413
57565W        W29990  26.631  31.101  14.411
57566W        W29991  35.388  37.907   1.740
57567W        W29992   3.353  11.726   0.768
57568W        W29993  10.209  33.541   3.810
57569W        W29994  24.651   2.801  11.888
57570W        W29995  33.982  18.678  13.360
57571W        W29996  12.796  42.402  12.083
57572W        W29997  30.418  18.641  13.425
57573W        W29998  23.047  10.284  10.504
57574W        W29999  21.640  33.512  13.458
57575W        W30000  15.186  41.367   2.826
57576W        W30001  27.556  44.276   4.608
57577W        W30002   5.848  33.878   0.381
57578W        W30003  35.430  33.525   2.743
57579W        W30004  23.619   4.424   4.616
57580W        W30005   0.308  20.089  13.958
57581W        W30006  17.791  17.105   4.136
57582W        W30007  14.704  36.565  14.461
57583W        W30008  19.095   1.892   0.446
57584W        W30009  21.735   6.877   0.770
57585W        W30010  11.297  42.447  11.465
57586W        W30011  17.299  40.469  10.603
57587W        W30012  10.832  35.410  12.457
57588W        W30013  34.514  20.579  11.550
57589W        W30014  32.412  42.512  12.884
57590W        W30015   3.240  43.864  13.534
57591W        W30016  38.414  25.513   2.813
57592W        W30017  20.269   2.825  11.856
57593W        W30018   0.749  11.275   2.874
57594W        W30019  29.964  21.617   1.855
57595W        W30020  17.278   6.234   3.334
57596W        W30021  21.582   3.896  12.380
57597W        W30022  18.196  44.459   1.928
57598W        W30023  11.816  35.588  11.053
57599W        W30024  11.155  12.290   2.232
57600W        W30025  32.987  39.879   3.748
57601W        W30026  14.718  40.901  10.531
57602W        W30027  18.666  27.449  12.999
57603W        W30028  40.532  14.709  14.341
57604W        W30029  12.185  15.296  13.486
57605W        W30030  18.784  30.164   0.482
57606W        W30031  27.553  19.606   2.791
57607W        W30032  27.083  25.558  13.394
57608W        W30033  22.623  10.805  12.392
57609W        W30034  26.608  13.310   2.305
57610W        W30035  34.886  10.351   1.872
57611W        W30036  44.933  38.846  13.041
57612W        W30037  18.173  23.541   0.893
57613W        W30038  20.660  42.371   2.788
57614W        W30039  14.301  21.643  14.002
57615W        W30040  21.092   4.840  13.308
57616W        W30041  29.572  17.691   1.741
57617W        W30042  29.010  17.619  11.919
57618W        W30043   0.902  41.001  14.372
57619W        W30044  38.354  29.094  13.511
57620W        W30045  40.502  16.710  12.437
57621W        W30046  24.980  43.983  12.482
57622W        W30047  39.943  19.107   4.621
57623W        W30048  31.056  40.837  12.535
57624W        W30049   2.457  37.340  12.030
57625W        W30050  19.762  27.132  10.413
57626W        W30051   4.398  12.673   3.744
57627W        W30052  17.649  18.211  13.539
57628W        W30053  35.456   6.292  11.544
57629W        W30054  23.987  33.614  14.000
57630W        W30055  23.607  28.167  12.448
57631W        W30056  18.268  33.002   1.704
57632W        W30057   4.325  17.083   2.678
57633W        W30058  33.914   5.418  13.487
57634W        W30059  13.675  42.336   4.297
57635W        W30060  39.382  17.613  11.471
57636W        W30061  37.930   6.315  13.030
57637W        W30062   5.765  29.942   0.819
57638W        W30063  25.494  16.635   4.818
57639W        W30064  10.689   6.302  14.311
57640W        W30065  31.527  26.571   4.310
57641W        W30066  25.978   5.425  14.939
57642W        W30067  30.593  38.344   1.817
57643W        W30068   4.211   2.267   0.367
57644W        W30069  23.117  32.045   0.770
57645W        W30070   0.746   8.252   0.442
57646W        W30071  30.507  16.614   1.699
57647W        W30072  26.673  19.645  10.591
57648W        W30073  29.058  42.849  12.460
57649W        W30074  24.183  10.657   0.919
57650W        W30075  15.174   1.272   2.181
57651W        W30076   2.720  44.973   4.296
57652W        W30077  15.195  32.415  10.970
57653W        W30078   1.794  43.882  10.602
57654W        W30079  40.920  28.070  11.424
57655W        W30080   6.745   1.392  11.028
57656W        W30081  36.567   9.307   3.655
57657W        W30082  30.430  12.276   2.850
57658W        W30083  42.302  32.124   0.356
57659W        W30084  15.664  26.647  13.542
57660W        W30085  22.213  16.098   0.355
57661W        W30086  10.264   2.428  13.869
57662W        W30087  26.080  35.517   2.692
57663W        W30088  33.477   5.349   2.262
57664W        W30089   2.741  15.172  14.794
57665W        W30090  38.068  10.207   4.690
57666W        W30091  32.437   0.425   3.835
57667W        W30092  20.149   6.679   0.961
57668W        W30093  26.563  33.891   4.706
57669W        W30094   3.222   3.770  14.501
57670W        W30095  10.301  16.218  14.955
57671W        W30096  14.792  43.960   2.397
57672W        W30097  23.130   9.665   1.418
57673W        W30098  10.361  25.017   3.360
57674W        W30099  35.870  36.954  11.881
57675W        W30100  11.678  26.541  12.070
57676W        W30101  42.911  13.719   1.705
57677W        W30102  20.643  22.680  10.625
57678W        W30103  41.827  39.018   0.256
57679W        W30104  21.727  42.377  11.508
57680W        W30105   6.272  20.595   0.833
57681W        W30106   1.913  30.967  11.087
57682W        W30107  17.119  39.943  12.536
57683W        W30108  10.335   3.244   1.308
57684W        W30109  19.220  42.022  10.955
57685W        W30110  21.102  37.985   5.156
57686W        W30111  10.672  11.298  14.834
57687W        W30112  29.623  15.214   1.928
57688W        W30113  35.481  38.893   4.754
57689W        W30114  15.257   2.798   1.757
57690W        W30115  42.281   5.933   1.397
57691W        W30116  36.090  32.086   0.477
57692W        W30117  29.952   0.333  13.381
57693W        W30118  23.009   8.226  11.557
57694W        W30119   4.863  18.589  12.876
57695W        W30120  17.119   6.306   1.414
57696W        W30121  15.109   8.833  13.922
57697W        W30122  44.799  19.756   2.267
57698W        W30123   0.810  39.823   2.316
57699W        W30124  42.435   9.786   3.326
57700W        W30125  25.091  30.118   0.457
57701W        W30126  34.101   0.344  10.599
57702W        W30127   3.417  29.581  14.381
57703W        W30128  26.058   7.798   3.219
57704W        W30129  23.691   5.307  10.964
57705W        W30130   0.441   9.858   4.282
57706W        W30131  23.492   9.162   3.370
57707W        W30132  32.497   0.890  10.970
57708W        W30133  27.013  19.689  11.372
57709W        W30134  26.635  32.585   3.295
57710W        W30135  33.085  28.148   4.807
57711W        W30136   2.387  19.142   1.779
57712W        W30137  23.204  12.651   4.210
57713W        W30138  16.296   9.797   0.819
57714W        W30139  17.077  39.462   4.711
57715W        W30140  12.171  44.854  11.602
57716W        W30141   9.850  40.437   1.890
57717W        W30142   9.764  27.656  11.909
57718W        W30143  14.258   7.206   4.254
57719W        W30144   9.323  10.161   0.920
57720W        W30145   9.277  14.768  14.909
57721W        W30146  23.557   8.709   3.174
57722W        W30147  38.888  16.600   3.803
57723W        W30148   4.796   4.725   2.869
57724W        W30149  17.786  12.219   2.871
57725W        W30150  33.497  33.949  13.361
57726W        W30151  43.338  31.572   2.739
57727W        W30152  40.487  42.808  12.365
57728W        W30153  23.639   6.745   4.144
57729W        W30154  22.085   6.291   2.701
57730W        W30155   4.727  25.083  10.436
57731W        W30156   0.823   9.885  12.931
57732W        W30157  42.368   1.808   3.332
57733W        W30158   0.379  17.581   3.318
57734W        W30159  11.678   7.754   5.260
57735W        W30160  24.072   7.233   2.311
57736W        W30161  21.642   0.931   1.367
57737W        W30162   1.305  39.378   0.295
57738W        W30163  18.264  35.979   1.367
57739W        W30164   4.236  29.174  13.899
57740W        W30165   5.339  32.458  10.975
57741W        W30166  31.505  12.786  10.613
57742W        W30167  20.028   5.239   0.935
57743W        W30168   1.271  30.110   4.133
57744W        W30169  11.241   6.198  14.508
57745W        W30170  26.130  37.367  13.348
57746W        W30171  17.112  43.918  13.807
57747W        W30172   3.416  30.612  12.936
57748W        W30173  41.966   9.711  14.346
57749W        W30174  23.992  43.960   1.721
57750W        W30175  23.044   9.266   4.735
57751W        W30176   7.698  42.290  13.456
57752W        W30177  44.859  21.091  14.323
57753W        W30178  15.755  26.180   2.829
57754W        W30179   4.752  39.366   0.758
57755W        W30180  33.929   9.884  13.812
57756W        W30181   5.408  30.991   2.198
57757W        W30182  24.071  27.188   0.879
57758W        W30183   7.202  16.299  14.327
57759W        W30184  39.814  31.487   2.666
57760W        W30185  22.516  34.087  13.425
57761W        W30186  10.311  36.991  10.047
57762W        W30187   2.901   5.201   1.232
57763W        W30188   6.721  40.323  10.971
57764W        W30189  17.163  30.605   5.182
57765W        W30190  33.390   9.722  12.061
57766W        W30191  18.647  35.455  11.945
57767W        W30192   8.235  14.680  11.111
57768W        W30193  11.705  38.379  12.358
57769W        W30194   3.373  44.972   1.384
57770W        W30195  11.693   8.297  12.540
57771W        W30196   3.323  18.140  14.314
57772W        W30197  37.526   9.660   2.319
57773W        W30198  43.794  10.703   2.360
57774W        W30199  34.379   4.328  14.887
57775W        W30200  30.545  27.147   3.302
57776W        W30201  18.225  33.886   3.732
57777W        W30202   8.390   1.904  13.495
57778W        W30203  43.845  21.725   2.764
57779W        W30204  15.719  43.932  13.333
57780W        W30205  21.610  10.271  14.897
57781W        W30206   4.714  42.328  12.345
57782W        W30207   7.737  17.289  14.911
57783W        W30208   3.770  27.457   3.219
57784W        W30209  19.236  39.837  11.599
57785W        W30210   6.704  33.910  11.409
57786W        W30211   0.878   5.378   3.680
57787W        W30212  26.622  34.957  13.969
57788W        W30213  11.696  15.644   2.247
57789W        W30214  18.722  37.440  13.930
57790W        W30215  16.619   9.863  14.897
57791W        W30216  10.748  28.075   1.393
57792W        W30217  29.520  14.334   5.159
57793W        W30218  20.222   9.196   0.937
57794W        W30219   6.701   1.256   3.804
57795W        W30220  28.584  25.219   4.268
57796W        W30221  43.902  29.540   0.963
57797W        W30222   5.732  42.940   5.231
57798W        W30223  37.446  24.116  14.324
57799W        W30224  19.231  36.875   3.656
57800W        W30225  10.280  30.076   0.927
57801W        W30226  32.112  16.122   3.741
57802W        W30227  28.628  13.633  13.504
57803W        W30228  29.513  42.970   3.863
57804W        W30229  19.649  32.977  11.411
57805W        W30230   6.740   7.774  12.557
57806W        W30231  10.674  40.906  13.940
57807W        W30232  26.040  14.782   4.701
57808W        W30233  28.954  16.746  14.287
57809W        W30234   2.243  24.010  14.397
57810W        W30235  21.137  24.635   3.861
57811W        W30236  28.946  34.894  11.379
57812W        W30237  43.315   8.800  13.358
57813W        W30238  36.479   2.960   1.405
57814W        W30239  40.501  19.055   1.418
57815W        W30240  31.075   5.772  12.455
57816W        W30241  11.667   1.441   1.923
57817W        W30242  43.330  20.701   0.954
57818W        W30243  43.362  24.092   3.835
57819W        W30244  42.341   2.792  12.365
57820W        W30245  17.302  36.366  10.477
57821W        W30246  33.947  34.441  13.888
57822W        W30247  24.116  39.854   2.305
57823W        W30248  29.457  38.953   3.360
57824W        W30249  20.061  42.454  14.816
57825W        W30250  36.358  18.158  13.927
57826W        W30251  11.317  39.972   2.254
57827W        W30252  15.786  20.530  12.916
57828W        W30253  39.812  29.069  11.897
57829W        W30254  38.355   4.262   4.777
57830W        W30255  16.612  14.191   3.276
57831W        W30256  18.059  36.869   2.699
57832W        W30257  33.454  25.695  14.915
57833W        W30258   9.684  21.685  11.573
57834W        W30259  15.644  26.004  11.557
57835W        W30260  27.615  37.531   3.855
57836W        W30261  23.179  16.221  12.030
57837W        W30262  42.457  40.995  10.509
57838W        W30263  26.997  28.002  11.571
57839W        W30264   8.227  14.273  11.395
57840W        W30265  31.466  15.741   9.940
57841W        W30266   5.396  15.824   3.778
57842W        W30267   9.725  22.525   0.773
57843W        W30268  26.189  26.125   3.802
57844W        W30269  43.405  34.408  10.970
57845W        W30270  22.235  44.262  14.292
57846W        W30271   2.400  41.995  14.475
57847W        W30272  26.596  13.115   4.232
57848W        W30273  33.523   0.742  11.102
57849W        W30274  24.104  20.611   0.466
57850W        W30275  19.742  29.599  10.971
57851W        W30276  35.422  40.308   2.333
57852W        W30277  11.673   7.317   0.359
57853W        W30278  12.218  28.125   4.683
57854W        W30279  19.118  26.510   2.879
57855W        W30280  38.992  24.101   5.264
57856W        W30281   0.343  21.598  13.794
57857W        W30282   9.812  27.468   4.119
57858W        W30283  30.597   5.864  13.458
57859W        W30284  21.191  30.638   2.815
57860W        W30285   5.877  43.437   2.791
57861W        W30286   9.663   9.885  14.974
57862W        W30287  34.540  28.595  14.918
57863W        W30288  20.670   2.921  14.955
57864W        W30289  19.177  10.682   3.686
57865W        W30290  18.224  10.294   0.408
57866W        W30291  13.695  10.167   3.356
57867W        W30292   4.698  29.479   4.659
57868W        W30293   0.769  32.593   2.407
57869W        W30294  12.124  26.671  11.080
57870W        W30295  25.183  12.338   0.814
57871W        W30296  28.481   3.713  11.564
57872W        W30297  40.035  40.496  13.420
57873W        W30298  21.591  31.491   0.918
57874W        W30299  22.063   7.392   2.262
57875W        W30300  29.937  13.268   4.839
57876W        W30301  19.059  27.097  11.412
57877W        W30302  22.545  41.515   5.152
57878W        W30303  29.021  31.489  12.564
57879W        W30304   5.730  17.173  11.531
57880W        W30305   4.267   6.923   3.671
57881W        W30306  40.042  32.001   3.822
57882W        W30307  34.458  19.186  14.027
57883W        W30308  30.528  15.718   9.983
57884W        W30309  43.389  31.491   3.247
57885W        W30310  16.284   9.187  14.387
57886W        W30311  30.557  23.020  13.895
57887W        W30312  32.022   5.916  10.614
57888W        W30313   0.443   3.290  12.956
57889W        W30314  31.133  14.137   4.600
57890W        W30315  32.098  18.605  12.001
57891W        W30316  37.460  13.350  11.552
57892W        W30317  37.341   7.310   0.251
57893W        W30318  21.203  16.268   0.828
57894W        W30319  27.634   6.856  13.376
57895W        W30320  26.679   1.795  12.472
57896W        W30321  33.129  33.105  11.384
57897W        W30322   0.477  23.198   3.682
57898W        W30323  12.330  41.522   4.136
57899W        W30324  14.811  28.936   3.707
57900W        W30325   1.355  36.852   1.413
57901W        W30326  38.466  37.904  11.419
57902W        W30327   5.912  34.427   3.321
57903W        W30328   2.282  17.204   1.240
57904W        W30329  40.943   6.800  11.047
57905W        W30330   4.316  24.530  11.579
57906W        W30331  32.089  26.579  13.458
57907W        W30332  28.669  38.400  11.918
57908W        W30333  20.037  44.005   2.355
57909W        W30334  26.987  28.527  13.808
57910W        W30335  31.047  18.225  10.576
57911W        W30336  14.683  23.669  13.381
57912W        W30337  21.598  33.404  10.595
57913W        W30338  34.532  35.599  12.945
57914W        W30339   2.853  25.186   1.248
57915W        W30340  28.442  23.530  11.070
57916W        W30341  33.476  32.626  14.769
57917W        W30342   5.733  37.477  10.934
57918W        W30343  36.005  13.171  12.387
57919W        W30344   4.771  28.560  10.959
57920W        W30345  30.470   0.939   1.242
57921W        W30346  32.967  24.584  11.531
57922W        W30347  39.858  32.991   3.826
57923W        W30348  29.979   9.679   2.282
57924W        W30349   4.287   4.250  13.892
57925W        W30350  13.137   1.837   3.738
57926W        W30351  22.603   3.863  10.939
57927W        W30352  21.165  26.588  11.961
57928W        W30353  11.660   8.802  14.279
57929W        W30354  41.022  12.755   1.320
57930W        W30355  10.796  32.136  11.489
57931W        W30356  22.731  41.855  10.996
57932W        W30357  43.395  41.015   0.295
57933W        W30358   5.402  10.272   4.171
57934W        W30359  28.106  35.518  12.053
57935W        W30360  39.355   6.843  13.985
57936W        W30361  19.567  24.721  10.481
57937W        W30362   3.356  27.032   4.149
57938W        W30363   3.910  39.372  11.377
57939W        W30364   3.442  20.535  14.343
57940W        W30365  13.630  34.585   1.935
57941W        W30366   2.859  15.188   1.756
57942W        W30367  16.626  19.748  10.505
57943W        W30368   2.287  37.844   3.207
57944W        W30369  17.728  28.137  14.423
57945W        W30370  32.133  35.549  14.415
57946W        W30371  44.404  32.915   4.338
57947W        W30372   3.739  19.244   1.786
57948W        W30373   8.778  15.756   2.802
57949W        W30374  10.753  12.119   0.448
57950W        W30375  20.155  20.140  10.517
57951W        W30376  25.975  10.296  13.383
57952W        W30377   6.325  18.096   4.141
57953W        W30378  13.656  32.932   1.393
57954W        W30379  44.938  33.579   3.226
57955W        W30380  35.444   6.920  10.563
57956W        W30381  23.081  28.517   3.759
57957W        W30382   9.824  39.520   0.400
57958W        W30383   8.838  19.107   3.216
57959W        W30384  42.955   4.362  11.544
57960W        W30385  17.629  21.248   0.851
57961W        W30386  30.620  14.756  13.310
57962W        W30387  43.812  28.464  13.309
57963W        W30388  35.099  23.620   4.795
57964W        W30389   5.834  31.489  10.560
57965W        W30390  19.649  28.058   4.303
57966W        W30391   6.209  19.645   3.169
57967W        W30392  18.161  14.630  12.907
57968W        W30393  32.135  10.857  10.511
57969W        W30394  24.068  35.533   1.399
57970W        W30395  27.451  22.641   4.261
57971W        W30396  15.159  15.235   4.190
57972W        W30397  21.107  39.337   3.685
57973W        W30398  27.619  29.656  10.573
57974W        W30399  23.564  21.038   1.232
57975W        W30400  31.607   6.231   0.397
57976W        W30401  35.364  18.098  11.910
57977W        W30402   9.850  28.572  13.400
57978W        W30403   0.781  33.495  13.899
57979W        W30404  28.100  19.241   2.784
57980W        W30405  17.077   3.320   5.145
57981W        W30406  17.106  15.689  11.399
57982W        W30407   1.467  35.522  11.107
57983W        W30408   6.241  22.586  11.541
57984W        W30409  23.180   5.724   3.820
57985W        W30410  38.570  40.888  12.977
57986W        W30411  15.681  28.959  12.863
57987W        W30412  18.256  22.252  11.901
57988W        W30413  18.633  15.602  12.087
57989W        W30414  43.476   2.411   0.453
57990W        W30415  40.896   2.927   1.729
57991W        W30416  40.899  36.541  14.319
57992W        W30417  32.475  43.422   2.778
57993W        W30418  41.904  42.985  10.925
57994W        W30419  36.571   0.889   2.357
57995W        W30420  36.869  41.916  14.794
57996W        W30421   0.338  38.027  10.918
57997W        W30422  39.903   0.781   0.361
57998W        W30423  37.046   9.785   3.349
57999W        W30424  29.470  43.803  14.335
58000W        W30425   0.412   9.674   4.751
58001W        W30426  31.510  26.110   1.810
58002W        W30427  44.454  40.539   1.260
58003W        W30428  42.789  28.187   1.416
58004W        W30429   3.292  19.046   0.283
58005W        W30430  22.176  39.517   0.368
58006W        W30431  37.469  13.282  12.512
58007W        W30432  29.938  41.918   1.748
58008W        W30433   7.410   0.297  13.815
58009W        W30434  26.640  17.197   4.121
58010W        W30435  31.429   2.902   3.871
58011W        W30436  37.547  43.372  13.910
58012W        W30437  43.770  23.700  14.012
58013W        W30438  27.981  42.865  13.964
58014W        W30439  18.278   2.955  14.401
58015W        W30440  20.264   5.419  11.933
58016W        W30441  37.405  17.172  12.840
58017W        W30442  27.612   0.462  10.920
58018W        W30443  30.094  13.234   3.162
58019W        W30444  22.235  23.577   4.653
58020W        W30445  28.514   6.379  12.882
58021W        W30446  31.647   9.813   2.379
58022W        W30447   7.296  18.661   0.322
58023W        W30448   2.466  11.705  13.514
58024W        W30449  41.893  11.706   0.853
58025W        W30450  25.071  29.165   3.214
58026W        W30451  42.994  10.775  11.984
58027W        W30452  40.998  33.930   0.470
58028W        W30453  30.524  17.604   4.795
58029W        W30454  23.592  15.158  13.409
58030W        W30455  16.809  15.679  10.931
58031W        W30456  24.562  35.882   0.841
58032W        W30457  17.724  15.284  14.899
58033W        W30458  15.650  10.706   4.256
58034W        W30459  35.093  11.719  13.333
58035W        W30460  34.563   3.922   2.219
58036W        W30461   7.862  21.020  12.405
58037W        W30462  33.960  26.051  13.044
58038W        W30463  13.336  38.941   0.317
58039W        W30464  24.562   9.262  13.842
58040W        W30465   5.871   5.206  14.472
58041W        W30466  16.146  37.878   2.218
58042W        W30467   8.220  44.766  13.835
58043W        W30468  40.987  30.963   1.277
58044W        W30469  28.493   8.676   0.445
58045W        W30470  38.036  28.580   2.353
58046W        W30471  29.552  41.007  10.440
58047W        W30472   5.353  35.013  14.859
58048W        W30473  36.398  43.420   3.798
58049W        W30474  18.263  22.745  12.413
58050W        W30475   6.186  13.294  10.554
58051W        W30476  13.678   6.184   3.373
58052W        W30477  30.102  18.717   0.785
58053W        W30478  43.765   8.720   2.759
58054W        W30479  44.405  42.919   3.161
58055W        W30480  30.453  40.993  11.913
58056W        W30481  39.004   9.876  13.952
58057W        W30482  12.734  35.108  12.526
58058W        W30483  31.997  38.924  13.520
58059W        W30484  24.591  10.663   2.282
58060W        W30485  40.406  17.243   2.759
58061W        W30486   6.769  41.458  13.510
58062W        W30487  32.110  43.959   4.642
58063W        W30488   4.871  29.134  11.066
58064W        W30489  12.214  33.612  10.410
58065W        W30490  11.821   5.235  11.382
58066W        W30491   2.839  21.679   3.687
58067W        W30492  33.892  21.058   1.225
58068W        W30493  30.654  34.535  11.593
58069W        W30494  26.152  28.442  11.075
58070W        W30495   3.332  16.801   3.707
58071W        W30496  42.465  14.744   3.647
58072W        W30497  34.893  41.454  10.414
58073W        W30498   1.333  15.213  13.362
58074W        W30499  44.433  34.036  11.882
58075W        W30500   5.395  43.894   1.889
58076W        W30501  10.730  21.136   3.377
58077W        W30502   5.349  43.274   2.306
58078W        W30503  30.988  12.295  10.561
58079W        W30504   0.960  25.969  13.398
58080W        W30505  25.158  20.748  11.908
58081W        W30506  17.131  39.886  10.085
58082W        W30507  28.023   2.833  10.992
58083W        W30508   1.862  21.564   1.916
58084W        W30509  34.971  41.033  13.925
58085W        W30510  25.591  22.050   3.768
58086W        W30511  21.672  23.024   4.195
58087W        W30512  26.668  40.831  12.032
58088W        W30513  38.866   2.364   3.378
58089W        W30514  31.406   1.474   2.861
58090W        W30515  24.092   8.206   0.738
58091W        W30516  44.782  39.045   2.769
58092W        W30517  42.972  33.498  12.950
58093W        W30518  43.290  41.304  10.618
58094W        W30519  14.259  11.719  10.530
58095W        W30520  37.393  20.231  12.435
58096W        W30521  17.713  22.198   4.119
58097W        W30522  24.519  10.857   9.485
58098W        W30523  31.132  12.224   2.408
58099W        W30524  40.818   5.772  14.002
58100W        W30525  20.143  21.747  10.534
58101W        W30526   8.663  37.429   5.595
58102W        W30527  34.489  44.809  10.598
58103W        W30528  14.216  26.702   3.282
58104W        W30529  26.627  14.283  12.871
58105W        W30530  11.165   5.783   3.716
58106W        W30531   9.347  36.385  11.394
58107W        W30532  21.212   1.392  13.812
58108W        W30533  14.597   7.273  14.987
58109W        W30534  23.215   8.339   0.900
58110W        W30535  36.544  42.466  13.426
58111W        W30536  11.761   5.423   3.195
58112W        W30537  37.545   1.436  12.355
58113W        W30538   8.868  35.925   4.245
58114W        W30539  26.192  38.475  14.283
58115W        W30540  30.552  25.119   1.321
58116W        W30541   6.243  23.011   1.304
58117W        W30542  26.047  43.006  13.532
58118W        W30543   3.382  11.638  13.995
58119W        W30544  20.741  22.022   4.673
58120W        W30545  38.825  11.250   3.817
58121W        W30546  14.250   5.353   1.278
58122W        W30547   4.933  16.125  10.442
58123W        W30548   3.293  14.802  13.841
58124W        W30549  33.480  30.121   0.283
58125W        W30550  19.579   9.149  13.063
58126W        W30551   8.818  20.596   2.218
58127W        W30552  22.035  31.470   3.165
58128W        W30553  35.595  26.144   3.214
58129W        W30554   1.744  40.035  11.119
58130W        W30555   5.913  25.123  12.832
58131W        W30556  11.855  23.664  12.925
58132W        W30557  10.278  37.856   4.771
58133W        W30558  38.893  22.719   5.251
58134W        W30559  42.455   4.869  10.579
58135W        W30560   7.696  12.755   0.957
58136W        W30561  16.305  32.575  11.576
58137W        W30562   7.239   5.435   2.266
58138W        W30563  32.593  28.442  10.555
58139W        W30564  34.030  24.699  12.987
58140W        W30565   9.884   1.802  11.028
58141W        W30566   9.715  40.387  11.061
58142W        W30567  27.471  11.145   1.805
58143W        W30568  11.760  30.450   2.360
58144W        W30569  26.009  15.803  13.021
58145W        W30570   3.717  34.395  14.784
58146W        W30571  44.845  34.507  12.535
58147W        W30572  39.488   9.733   2.180
58148W        W30573  37.997  24.598  10.967
58149W        W30574  38.442  22.113   2.357
58150W        W30575  38.022  32.112   1.437
58151W        W30576  19.094   8.306   0.402
58152W        W30577  13.805  37.577  10.891
58153W        W30578   7.304  30.644  11.457
58154W        W30579   8.700  38.925   1.861
58155W        W30580  34.550   9.697   1.719
58156W        W30581  41.823  15.238  10.608
58157W        W30582  14.212  25.509  13.818
58158W        W30583  39.415  26.475   2.293
58159W        W30584  27.462   8.313  14.443
58160W        W30585   1.324  20.724  13.021
58161W        W30586  44.953   0.865  14.008
58162W        W30587  12.744  12.741   1.736
58163W        W30588   1.748   5.282   2.732
58164W        W30589   3.770   8.668  12.457
58165W        W30590  44.888   5.771  12.896
58166W        W30591   8.292  35.593  14.885
58167W        W30592  11.668  28.107  11.480
58168W        W30593  33.443  31.555   2.819
58169W        W30594  14.106  31.944   9.950
58170W        W30595  21.231  41.911  10.526
58171W        W30596  18.603  41.874  13.408
58172W        W30597   5.403  38.361  11.891
58173W        W30598  34.984  24.092  10.585
58174W        W30599  13.791  42.828   3.856
58175W        W30600  33.493  23.224  12.508
58176W        W30601  38.048  38.481   1.725
58177W        W30602   4.735  18.235  11.397
58178W        W30603  23.105  13.794  10.497
58179W        W30604  21.174  35.866  12.081
58180W        W30605   6.700  16.638   0.435
58181W        W30606  24.159  40.962  12.991
58182W        W30607  24.500   7.255  12.080
58183W        W30608  36.434  36.864   3.166
58184W        W30609  12.698   0.965  10.893
58185W        W30610   7.779  13.715  10.609
58186W        W30611  24.138  43.913  14.919
58187W        W30612   5.925  43.329  14.001
58188W        W30613  17.739  41.476   4.643
58189W        W30614  13.702  17.683   1.862
58190W        W30615  14.150  44.896   1.930
58191W        W30616   8.401   3.220  12.846
58192W        W30617   0.826   4.317  12.956
58193W        W30618  26.982   2.258   0.391
58194W        W30619   4.367  10.349   3.295
58195W        W30620  23.489  34.442  11.058
58196W        W30621  30.040  10.839  12.833
58197W        W30622  19.586  15.175  11.913
58198W        W30623   6.728  14.189  12.533
58199W        W30624  36.457   0.352  14.989
58200W        W30625  16.573   0.938   4.351
58201W        W30626  14.120  40.347   0.458
58202W        W30627  30.600  38.344  13.334
58203W        W30628  18.103  17.694  13.037
58204W        W30629  10.142  44.792   0.726
58205W        W30630  38.398  32.537  14.847
58206W        W30631   2.864   0.441  11.471
58207W        W30632  34.393  33.435  13.036
58208W        W30633  36.934  30.953   4.177
58209W        W30634  39.420   4.823   3.280
58210W        W30635  35.108  33.431  10.645
58211W        W30636   9.343   9.822  14.834
58212W        W30637  16.617  12.254  11.517
58213W        W30638  24.088   3.354   4.635
58214W        W30639  28.563   4.349  12.985
58215W        W30640  19.682  26.696  14.406
58216W        W30641  11.224  11.864  14.464
58217W        W30642   9.686  32.890  14.027
58218W        W30643   5.913  14.232  14.328
58219W        W30644  32.022  16.212   9.649
58220W        W30645  26.608   1.437  10.979
58221W        W30646  37.933  15.314   2.361
58222W        W30647   3.806  35.890   0.917
58223W        W30648  23.109   2.910  13.001
58224W        W30649   4.804  29.596  13.486
58225W        W30650   0.966  39.398  13.932
58226W        W30651  41.932  39.456   1.759
58227W        W30652  20.161  43.403  12.475
58228W        W30653  32.977  42.894  11.959
58229W        W30654  13.260  26.611   2.385
58230W        W30655  15.652  32.126  10.504
58231W        W30656  26.107  14.617  11.963
58232W        W30657  14.131  18.657  14.406
58233W        W30658  33.048   3.874  12.877
58234W        W30659   6.321  26.560  13.349
58235W        W30660   1.313  14.814  13.383
58236W        W30661   2.844  28.178   2.405
58237W        W30662   5.798  20.214  10.933
58238W        W30663  14.715  30.076   0.887
58239W        W30664  23.632  32.507   1.367
58240W        W30665  18.547  31.543  13.467
58241W        W30666   7.684  42.784   1.771
58242W        W30667  24.677  26.077  13.791
58243W        W30668  24.022   9.748  12.024
58244W        W30669   2.285   2.300  12.493
58245W        W30670  33.019  24.185  10.954
58246W        W30671  43.945  20.238  14.030
58247W        W30672  36.925  22.099  13.850
58248W        W30673   4.848  28.468  11.860
58249W        W30674  19.111  21.102  14.880
58250W        W30675  19.546  24.501   1.708
58251W        W30676  31.141  34.980   4.796
58252W        W30677  42.989  19.256  12.886
58253W        W30678   8.374  18.569   0.741
58254W        W30679   7.347  43.295  11.997
58255W        W30680  43.341  21.247   1.360
58256W        W30681   8.658  12.730  11.599
58257W        W30682  41.800   4.359  14.409
58258W        W30683  21.669  10.761  14.897
58259W        W30684  34.905   3.313  12.381
58260W        W30685   1.478  41.313   2.415
58261W        W30686  32.053  23.195  12.905
58262W        W30687  19.262  41.331  13.869
58263W        W30688   8.680  28.047  14.900
58264W        W30689  11.694  13.239   1.223
58265W        W30690  36.522  32.480  14.461
58266W        W30691  37.465  13.757  12.509
58267W        W30692   1.298   6.323  13.847
58268W        W30693  23.991  43.471   0.941
58269W        W30694   4.882  26.532  12.458
58270W        W30695  25.073  20.662  14.475
58271W        W30696  16.678   3.416   1.899
58272W        W30697  28.031  34.434   2.812
58273W        W30698  26.463  36.582  13.044
58274W        W30699   5.715   5.713   0.394
58275W        W30700  27.191  32.986  14.014
58276W        W30701  26.588  29.486   3.737
58277W        W30702  40.902  23.545  12.862
58278W        W30703  33.487  42.394   2.387
58279W        W30704  30.620  26.006  11.126
58280W        W30705  35.955  40.356   1.232
58281W        W30706  39.838  18.078   1.301
58282W        W30707   5.919  35.972  12.419
58283W        W30708  31.924  15.211  14.911
58284W        W30709  38.492  10.808  14.783
58285W        W30710  43.981  26.065   3.172
58286W        W30711  34.030  29.653  11.414
58287W        W30712  12.209  14.718   0.461
58288W        W30713  32.086  31.582   0.831
58289W        W30714   9.187  10.360   2.789
58290W        W30715  40.328  27.597  14.316
58291W        W30716  24.635  36.577   4.626
58292W        W30717  15.601  34.473  14.336
58293W        W30718  32.622  16.244   2.761
58294W        W30719  34.029   8.715   1.886
58295W        W30720   1.818  20.168   4.338
58296W        W30721  22.577  40.541   0.361
58297W        W30722   4.417  10.346  13.538
58298W        W30723  36.081   6.371  11.974
58299W        W30724   0.440  37.475   3.299
58300W        W30725  35.854  25.496  14.356
58301W        W30726   0.476  32.045   2.826
58302W        W30727  38.055  25.077  13.014
58303W        W30728  25.542  11.346  12.883
58304W        W30729  10.333  10.163   1.241
58305W        W30730   6.868  21.104  14.837
58306W        W30731  43.795  25.496  11.123
58307W        W30732  38.865  27.053  13.497
58308W        W30733  26.466  31.547  11.602
58309W        W30734  18.649  16.754   2.388
58310W        W30735  28.590  37.548  14.971
58311W        W30736   6.693  23.573  10.416
58312W        W30737  24.105  17.755   3.183
58313W        W30738   1.450  21.526   0.281
58314W        W30739  22.640  20.635   0.421
58315W        W30740  30.967  22.216   3.776
58316W        W30741  12.687   6.217   4.342
58317W        W30742  31.444  43.364   1.326
58318W        W30743  12.690  13.824   4.178
58319W        W30744   7.736  14.116   9.970
58320W        W30745  17.277   9.254  10.598
58321W        W30746  11.289  16.142  13.432
58322W        W30747  17.723  39.335  13.990
58323W        W30748  28.138   2.864  11.968
58324W        W30749  31.138  42.930  14.372
58325W        W30750   1.883  32.509   3.323
58326W        W30751  27.136  13.822  14.028
58327W        W30752  21.609  25.124   2.265
58328W        W30753   2.276   8.880  13.308
58329W        W30754  17.196  28.136   0.288
58330W        W30755  41.019  17.072   1.237
58331W        W30756  29.100  43.891  11.949
58332W        W30757  31.630   1.418  13.543
58333W        W30758   9.349  40.952  13.818
58334W        W30759  12.255  26.599   3.869
58335W        W30760  15.765  29.013   0.837
58336W        W30761  26.610  13.303  14.447
58337W        W30762  21.118   6.216   2.223
58338W        W30763  43.372  17.244  14.022
58339W        W30764  17.289  27.627   3.740
58340W        W30765  29.003  28.141   3.323
58341W        W30766   6.701   0.929  11.506
58342W        W30767  18.748  15.708   3.671
58343W        W30768  27.995  21.684  14.805
58344W        W30769   8.344   7.184   2.361
58345W        W30770  18.248  26.112  12.032
58346W        W30771  30.427  40.990  10.442
58347W        W30772  42.849  35.915  13.518
58348W        W30773   8.358  39.318   1.379
58349W        W30774  28.137  10.307   0.343
58350W        W30775  28.117  27.481   4.657
58351W        W30776  10.281  13.181  13.406
58352W        W30777  21.096   1.401  14.326
58353W        W30778  31.539  18.597   1.387
58354W        W30779   5.873  31.592  13.451
58355W        W30780   9.765  11.232  11.885
58356W        W30781  17.795  12.633  11.104
58357W        W30782  26.147   3.764   4.805
58358W        W30783  24.223  21.124  12.978
58359W        W30784   8.404   3.725   1.897
58360W        W30785  26.614  42.388   0.768
58361W        W30786   1.879  30.997   4.165
58362W        W30787  24.000   2.407  14.304
58363W        W30788  29.040   4.288   1.856
58364W        W30789  42.023  13.666   2.360
58365W        W30790  11.144  38.448  12.924
58366W        W30791  19.251  12.836   1.427
58367W        W30792  22.182  19.665   2.290
58368W        W30793  18.077  29.928  13.019
58369W        W30794  39.975  36.039  12.919
58370W        W30795  31.923   7.728   2.418
58371W        W30796  15.194  25.107  11.539
58372W        W30797  44.336  13.793  12.942
58373W        W30798  42.879   4.296  13.832
58374W        W30799  18.603  15.090  14.406
58375W        W30800  29.922  35.059  12.361
58376W        W30801  44.891  12.214   0.953
58377W        W30802  15.095  40.506  11.004
58378W        W30803  24.621   1.927   3.270
58379W        W30804  22.673  28.955  14.337
58380W        W30805  25.590  33.992   4.664
58381W        W30806  22.728   8.281  11.550
58382W        W30807  32.130  20.537  12.979
58383W        W30808  10.222  41.796  11.435
58384W        W30809  13.217  44.388  10.077
58385W        W30810  37.533  29.534   1.221
58386W        W30811  10.736   8.299   3.271
58387W        W30812   7.380  22.131  13.877
58388W        W30813  34.112   2.875  12.362
58389W        W30814  39.911  31.512   1.877
58390W        W30815   3.827   2.352  12.911
58391W        W30816   6.880   8.766   3.765
58392W        W30817  32.044  35.888   9.995
58393W        W30818  23.152  18.628   2.418
58394W        W30819  39.953  26.595  13.060
58395W        W30820  36.396  36.960  13.963
58396W        W30821   7.817  26.627  13.837
58397W        W30822   6.816   0.828   4.709
58398W        W30823   6.880  30.477   1.389
58399W        W30824   6.297  18.254   4.812
58400W        W30825   3.304  16.082   4.131
58401W        W30826  24.099  30.598  12.507
58402W        W30827  10.826  40.012   1.397
58403W        W30828   1.732   6.336   0.271
58404W        W30829  13.619  44.837   4.753
58405W        W30830  29.041  11.272   1.282
58406W        W30831   9.867   2.746  12.015
58407W        W30832  26.996  39.901   3.730
58408W        W30833  29.077   8.268   0.810
58409W        W30834   5.413  36.354  13.898
58410W        W30835   6.396  27.990   2.734
58411W        W30836  39.000  31.009  12.466
58412W        W30837   3.303  29.466   0.738
58413W        W30838  28.154  19.646  14.848
58414W        W30839  12.152  31.648  13.424
58415W        W30840  42.025   2.245   3.639
58416W        W30841  12.146  25.542   4.316
58417W        W30842  37.015  28.594  14.389
58418W        W30843   5.771  32.541   2.286
58419W        W30844   9.386  39.538  10.508
58420W        W30845  29.650  25.162   5.175
58421W        W30846  15.172  29.637   4.792
58422W        W30847  12.824  34.053  11.402
58423W        W30848  40.449  27.607  12.854
58424W        W30849  13.642  21.585  12.963
58425W        W30850  43.904   2.293   1.273
58426W        W30851   0.356   6.357  13.535
58427W        W30852  39.877  26.642  12.061
58428W        W30853  11.168  16.627  14.796
58429W        W30854  34.990  44.896  11.402
58430W        W30855  37.083   2.244   4.805
58431W        W30856  24.112  37.358   5.285
58432W        W30857  12.624  39.525   0.931
58433W        W30858   0.878   5.296  11.924
58434W        W30859  39.062  39.917  11.483
58435W        W30860  22.583  44.961   4.739
58436W        W30861  18.589  12.260   1.401
58437W        W30862  21.226   7.319  14.872
58438W        W30863  35.943   9.198  11.496
58439W        W30864  35.029  42.983   1.417
58440W        W30865   2.842   2.239  14.880
58441W        W30866  31.929  33.460  13.393
58442W        W30867  29.582   6.824   4.275
58443W        W30868   6.369  36.878   0.926
58444W        W30869  36.480  28.994  12.503
58445W        W30870   0.885  16.166   2.351
58446W        W30871  17.697  34.381   3.829
58447W        W30872  16.131  41.939  12.484
58448W        W30873  31.488  30.420   3.369
58449W        W30874  31.112  12.335   1.866
58450W        W30875  41.884  15.706   5.121
58451W        W30876  30.528  28.028   3.690
58452W        W30877  44.797  20.154  10.953
58453W        W30878   2.331  17.750  11.065
58454W        W30879  32.636  42.966   0.467
58455W        W30880  14.733  25.637  12.043
58456W        W30881  17.665  10.638   2.348
58457W        W30882   2.881  27.633   4.292
58458W        W30883  27.019   8.857  13.343
58459W        W30884   4.885  10.682  10.543
58460W        W30885  20.107  35.090  12.570
58461W        W30886  35.589  43.879   3.721
58462W        W30887  28.500  33.481   0.308
58463W        W30888   7.853  43.845   3.853
58464W        W30889  40.815  18.719   0.477
58465W        W30890  17.587  18.749   1.416
58466W        W30891  41.844   8.806   3.677
58467W        W30892   8.215  36.574   4.667
58468W        W30893  15.722   0.298  13.949
58469W        W30894   5.414   5.399   1.825
58470W        W30895  28.570   8.378  13.517
58471W        W30896  40.473  31.038   2.337
58472W        W30897  34.961  19.209   4.656
58473W        W30898  13.127  27.018  11.928
58474W        W30899  22.619  40.804  13.342
58475W        W30900  28.617   6.768  12.014
58476W        W30901  43.792  16.101   1.418
58477W        W30902  33.061  23.228  11.417
58478W        W30903  33.543  21.716  12.897
58479W        W30904  26.537  32.462  14.366
58480W        W30905  43.913  42.806  11.028
58481W        W30906  30.928  20.061  11.571
58482W        W30907  14.706  12.656  10.417
58483W        W30908  41.422   8.339   2.832
58484W        W30909   7.405  10.827  14.339
58485W        W30910  14.646   5.750  11.391
58486W        W30911   6.715  18.284  14.903
58487W        W30912  27.068  39.925  14.379
58488W        W30913  30.993  11.314  12.573
58489W        W30914  40.408   1.924   0.475
58490W        W30915  18.590  29.661   4.245
58491W        W30916   3.719  14.112   3.198
58492W        W30917  41.429  15.594  11.089
58493W        W30918   2.742  30.519   4.196
58494W        W30919  13.165  28.045  12.479
58495W        W30920  24.509  34.899   0.287
58496W        W30921  19.778  22.050   2.683
58497W        W30922  24.720  13.317  13.957
58498W        W30923   7.872  19.183   4.775
58499W        W30924   9.721  31.896   4.778
58500W        W30925  38.938  42.790  10.470
58501W        W30926   9.315  27.186   0.411
58502W        W30927   7.375   0.293  11.959
58503W        W30928   7.193   6.758   1.807
58504W        W30929  28.470   7.689  12.870
58505W        W30930  16.224   0.309  10.071
58506W        W30931  39.816   1.840  14.794
58507W        W30932  40.319  38.548  13.453
58508W        W30933  44.467  27.545  13.474
58509W        W30934  11.794   6.763  11.893
58510W        W30935  43.784  42.471  14.905
58511W        W30936   4.212  30.480  11.429
58512W        W30937  26.675  40.826   0.246
58513W        W30938   1.876  39.013  11.874
58514W        W30939   8.230   4.922  13.951
58515W        W30940  26.582   8.742  13.812
58516W        W30941   5.410  20.755   1.704
58517W        W30942  37.968  14.617  11.971
58518W        W30943  12.276  32.577   0.760
58519W        W30944  34.893  36.080  14.865
58520W        W30945  26.483  35.589  12.392
58521W        W30946  28.598  20.149   1.417
58522W        W30947   0.366  41.856   0.753
58523W        W30948   0.746   2.734   2.757
58524W        W30949   6.291  17.768  14.444
58525W        W30950  36.389  14.268   5.137
58526W        W30951  12.306  34.568   3.677
58527W        W30952  39.916  37.916   1.269
58528W        W30953  35.412  23.214   4.723
58529W        W30954  20.085   6.338  11.606
58530W        W30955  26.164  39.943   0.946
58531W        W30956  43.003  13.313   1.701
58532W        W30957  30.036  33.597  12.881
58533W        W30958  17.562  29.580  13.541
58534W        W30959  30.658  23.614  14.010
58535W        W30960  23.727   8.224  11.064
58536W        W30961  25.700  15.293  10.925
58537W        W30962  18.748  34.982  12.460
58538W        W30963  18.057  26.004   1.446
58539W        W30964  11.210  14.324   2.819
58540W        W30965  41.333   1.783  11.050
58541W        W30966  29.003  19.060  13.952
58542W        W30967  16.302  42.940  10.457
58543W        W30968  27.947   4.372   3.349
58544W        W30969   8.255  30.593   0.384
58545W        W30970   4.211   1.433   2.265
58546W        W30971   1.323  10.308   4.252
58547W        W30972  41.013   1.423   2.713
58548W        W30973  34.884  27.530  12.538
58549W        W30974  27.051   6.686  14.491
58550W        W30975  31.970  32.060   2.338
58551W        W30976  18.181  15.306   4.250
58552W        W30977  29.612  17.621  11.035
58553W        W30978  15.734   0.833  10.414
58554W        W30979  10.268  22.709   0.411
58555W        W30980  18.618   0.338   2.680
58556W        W30981  28.016  27.189  11.447
58557W        W30982   5.237  21.111  14.379
58558W        W30983  14.117  36.892   0.313
58559W        W30984  21.620  36.592   0.274
58560W        W30985  30.045  44.964  11.542
58561W        W30986   1.341  14.743  11.447
58562W        W30987  24.081  15.731  11.589
58563W        W30988  38.896   5.745   1.835
58564W        W30989  38.836  38.411   4.787
58565W        W30990  14.329  10.357   0.277
58566W        W30991  14.097  23.997  14.279
58567W        W30992   7.897  43.413  12.521
58568W        W30993  16.756  35.016  12.389
58569W        W30994  41.814  18.108  11.467
58570W        W30995  40.827  44.931  12.406
58571W        W30996  20.088   5.788  10.025
58572W        W30997  23.605  31.104   3.381
58573W        W30998  32.118   9.792  11.958
58574W        W30999  16.799  25.611   2.260
58575W        W31000  40.355  13.727   2.748
58576W        W31001  39.994  30.045  11.990
58577W        W31002  21.128   5.264  10.617
58578W        W31003  24.201  33.570   4.210
58579W        W31004   4.438  11.294   2.333
58580W        W31005  41.849  10.348  10.923
58581W        W31006  20.175   7.759   2.707
58582W        W31007  15.682  21.649  13.987
58583W        W31008  21.755  29.047   4.793
58584W        W31009  24.193  24.520  12.578
58585W        W31010  39.826   1.301  14.464
58586W        W31011  13.169  42.988  11.459
58587W        W31012  29.088  13.181  14.279
58588W        W31013  30.921  31.531   3.277
58589W        W31014  43.427  24.978   2.790
58590W        W31015  31.149  13.740   0.796
58591W        W31016  23.566  20.269   2.359
58592W        W31017   8.855  17.700  12.427
58593W        W31018  34.582  14.588   2.798
58594W        W31019  33.456   0.828   1.920
58595W        W31020  39.907  21.103  14.880
58596W        W31021  19.201  10.728   1.776
58597W        W31022  34.891  34.528  10.551
58598W        W31023  27.057  29.015  13.336
58599W        W31024  10.679  26.667  13.503
58600W        W31025  17.775  36.370   4.312
58601W        W31026  17.687  19.238  14.785
58602W        W31027  17.115  18.648  12.862
58603W        W31028  19.540  29.608  11.442
58604W        W31029   5.763  16.578  12.077
58605W        W31030   0.394   1.925   2.331
58606W        W31031  23.002  41.325   0.938
58607W        W31032  44.335  38.549   3.691
58608W        W31033  25.675  33.898  10.627
58609W        W31034   2.234   2.856   3.660
58610W        W31035   7.282   5.226  11.540
58611W        W31036   7.666  27.611   0.957
58612W        W31037  18.714  13.224  10.930
58613W        W31038  37.522  24.181   2.859
58614W        W31039   1.390  19.123  13.358
58615W        W31040  21.160  30.975  10.970
58616W        W31041  17.232  33.009   2.197
58617W        W31042  35.065  25.475   4.767
58618W        W31043  22.698  35.922   5.167
58619W        W31044  21.031  17.724   1.311
58620W        W31045  20.171  27.534   2.826
58621W        W31046  22.618   9.754   4.342
58622W        W31047  29.919  15.582  14.854
58623W        W31048  17.798   3.428  13.525
58624W        W31049  44.481  43.829  10.619
58625W        W31050   6.399   1.805   4.135
58626W        W31051  22.100  32.405   0.304
58627W        W31052  38.557  15.815   4.148
58628W        W31053  37.884  39.918   1.380
58629W        W31054  12.807  26.652   4.793
58630W        W31055  32.600  37.976   2.900
58631W        W31056   4.371  30.654   4.741
58632W        W31057  44.460  34.094   4.772
58633W        W31058   1.259  12.310  14.300
58634W        W31059  33.052   4.329   0.297
58635W        W31060  30.145  36.362  12.418
58636W        W31061   1.780  12.331   3.772
58637W        W31062  39.513  35.877  11.526
58638W        W31063  26.457  29.117   3.202
58639W        W31064  35.870  41.526  14.942
58640W        W31065  13.632   5.718  11.532
58641W        W31066   1.337  20.164  12.551
58642W        W31067  21.718  16.223  10.588
58643W        W31068   9.227  39.988   4.657
58644W        W31069   9.382  30.659  13.478
58645W        W31070  22.074  13.138  14.930
58646W        W31071  25.502  36.500  11.493
58647W        W31072   6.398   5.910  10.121
58648W        W31073  32.494  20.165   1.793
58649W        W31074  30.037  25.175   0.311
58650W        W31075  10.715  15.230   2.419
58651W        W31076  13.196  29.068  12.852
58652W        W31077  13.324  36.399  13.425
58653W        W31078  41.467  28.660  14.329
58654W        W31079  26.508  33.065  11.902
58655W        W31080  40.546  33.014  13.912
58656W        W31081  14.814   3.384  14.500
58657W        W31082  24.643  34.500  13.462
58658W        W31083   6.417  23.589   5.219
58659W        W31084  20.222  35.568  11.577
58660W        W31085  39.459  39.932  14.397
58661W        W31086  42.449   7.711   2.326
58662W        W31087   2.361  27.056  10.890
58663W        W31088  41.868  44.879  10.635
58664W        W31089  37.952  11.756  12.352
58665W        W31090  14.172   4.225  10.464
58666W        W31091  36.084  10.865   1.784
58667W        W31092   5.255  42.810  11.375
58668W        W31093   9.861  22.162   0.280
58669W        W31094  36.088  18.606  12.859
58670W        W31095  34.946  13.162  14.009
58671W        W31096  26.968  21.092   2.231
58672W        W31097  12.346  34.579   4.267
58673W        W31098  19.636  43.483   0.826
58674W        W31099  43.447  18.088  12.957
58675W        W31100  32.985  14.179  10.936
58676W        W31101  16.760  18.658   0.849
58677W        W31102  21.201  28.620  11.875
58678W        W31103  32.065  41.381   0.258
58679W        W31104  36.351   9.223   2.755
58680W        W31105  11.760   0.465   9.943
58681W        W31106  29.973  11.854  11.967
58682W        W31107   6.866  25.605  12.976
58683W        W31108  23.690  20.620   1.805
58684W        W31109  21.603  30.140  10.957
58685W        W31110  33.062  16.076   2.870
58686W        W31111  26.464  43.874  10.444
58687W        W31112   1.449  29.969  13.970
58688W        W31113  23.228  27.011  12.890
58689W        W31114  36.979   5.822  11.087
58690W        W31115  13.191  10.378  11.434
58691W        W31116  30.135   0.275  10.906
58692W        W31117  16.787  31.947  13.415
58693W        W31118  25.636  39.008   4.136
58694W        W31119   3.256   2.249  13.898
58695W        W31120  38.549  41.871   2.336
58696W        W31121  38.357   6.202   2.701
58697W        W31122  26.638  17.169  12.469
58698W        W31123   0.343  22.093  11.885
58699W        W31124  19.132  22.562  14.945
58700W        W31125  22.607  27.648  10.006
58701W        W31126  32.069  39.429   4.288
58702W        W31127  20.599   1.387  11.607
58703W        W31128   8.687  31.023   0.466
58704W        W31129  14.199  26.665  10.620
58705W        W31130  30.103  33.105   3.847
58706W        W31131   0.303  24.579   3.384
58707W        W31132  41.365  30.061  12.361
58708W        W31133  29.099  30.065   3.867
58709W        W31134  15.764  25.006   3.832
58710W        W31135  44.872  12.703   0.270
58711W        W31136  28.599  34.991   2.194
58712W        W31137  40.477  30.160   0.927
58713W        W31138  24.656  11.190  12.506
58714W        W31139  29.030  33.617   3.289
58715W        W31140  42.913   2.434  11.376
58716W        W31141  33.619   6.903   2.828
58717W        W31142  29.931  10.769  13.844
58718W        W31143  24.227  35.037   5.102
58719W        W31144  38.329   3.376   3.824
58720W        W31145  28.017  15.638   5.221
58721W        W31146  16.571  18.664   0.377
58722W        W31147   5.301   9.348  10.896
58723W        W31148  11.691   0.988  11.006
58724W        W31149  12.626   0.303   1.815
58725W        W31150  33.480  34.949   4.249
58726W        W31151  17.292  35.406   2.419
58727W        W31152  38.405   5.859   1.276
58728W        W31153   2.371   9.732  12.435
58729W        W31154   2.279  35.005   3.823
58730W        W31155   0.418   9.250   4.244
58731W        W31156  14.596  12.697   3.146
58732W        W31157  33.381  17.786  11.576
58733W        W31158  26.457  10.845  14.860
58734W        W31159  19.747  16.601   2.876
58735W        W31160  39.387  43.356  12.947
58736W        W31161   5.225  11.698  12.544
58737W        W31162  36.992  23.566   0.461
58738W        W31163  22.127  27.100   3.648
58739W        W31164  16.596   2.260  12.576
58740W        W31165  17.153  17.762   0.883
58741W        W31166  32.909  14.702  11.428
58742W        W31167  43.823  20.661   4.829
58743W        W31168  25.015  28.021  14.462
58744W        W31169  41.841  15.728   4.787
58745W        W31170  37.877  29.520  10.536
58746W        W31171   3.851  10.249   0.322
58747W        W31172   9.687   8.663  11.516
58748W        W31173  36.354  13.684   2.377
58749W        W31174  20.168   1.350   1.712
58750W        W31175  36.543  32.549   0.913
58751W        W31176  33.116  40.437  10.541
58752W        W31177  24.555  21.675   3.704
58753W        W31178  11.289   0.481   0.730
58754W        W31179  30.929  37.895   2.754
58755W        W31180   9.819  42.960   0.363
58756W        W31181  12.277   9.154  13.003
58757W        W31182  19.653   8.890   0.743
58758W        W31183  21.080  44.383   1.313
58759W        W31184  15.799  17.653  14.976
58760W        W31185  24.206  14.151  10.085
58761W        W31186   3.428  33.032  10.534
58762W        W31187   9.332  11.356  12.535
58763W        W31188  17.650   2.260   1.843
58764W        W31189  43.793  29.630   0.475
58765W        W31190  21.573  40.921  12.454
58766W        W31191  22.658  23.563  13.420
58767W        W31192  27.090  39.479   1.369
58768W        W31193  42.383  23.151   1.877
58769W        W31194  19.615  24.076  13.793
58770W        W31195  13.610  10.175  12.958
58771W        W31196  21.156  12.787   3.657
58772W        W31197  19.128  26.133  10.486
58773W        W31198  27.953  12.685   4.724
58774W        W31199  25.195  42.412  11.924
58775W        W31200  23.734   3.895   0.835
58776W        W31201  12.666  22.040  11.543
58777W        W31202  30.944  33.001  12.479
58778W        W31203  18.066  14.612   2.821
58779W        W31204  37.352  18.267  13.029
58780W        W31205  39.336  10.336  14.775
58781W        W31206  27.101  10.179  11.404
58782W        W31207   6.695  41.490   2.382
58783W        W31208  24.111  29.116  14.009
58784W        W31209   0.264  30.944   4.615
58785W        W31210  13.227   1.789   4.631
58786W        W31211  32.435  21.604   2.191
58787W        W31212  20.247   4.256   0.306
58788W        W31213  27.053  38.923   2.359
58789W        W31214  14.770  30.613   3.188
58790W        W31215  33.575  31.022  14.790
58791W        W31216  39.468  21.612  10.537
58792W        W31217  29.478  15.099   3.333
58793W        W31218  37.981   0.840   1.781
58794W        W31219  41.818  15.118   2.386
58795W        W31220  34.937  22.550   2.184
58796W        W31221  19.771  10.147   2.781
58797W        W31222  37.863  40.877   2.351
58798W        W31223  21.169   4.260   2.790
58799W        W31224  24.034  10.384  12.943
58800W        W31225  35.903  12.728   2.858
58801W        W31226  26.658  37.411   1.433
58802W        W31227  13.250  14.609   1.931
58803W        W31228  44.888  24.145  12.576
58804W        W31229  26.575  41.488   0.803
58805W        W31230  17.577  44.789   5.245
58806W        W31231  16.169  19.657   3.269
58807W        W31232   0.406  15.747   3.754
58808W        W31233  38.549  44.850   3.788
58809W        W31234   8.285   4.770   3.270
58810W        W31235  16.585  43.817  13.022
58811W        W31236  17.789  23.668  14.989
58812W        W31237  15.671  44.974   3.214
58813W        W31238   7.411  13.714  10.973
58814W        W31239   5.873  17.202   4.754
58815W        W31240  15.293  25.144  11.947
58816W        W31241  32.467   0.783   4.290
58817W        W31242  28.482  41.994   0.859
58818W        W31243  30.158  17.241  12.500
58819W        W31244   0.744  19.666  13.464
58820W        W31245  40.020  36.076   2.687
58821W        W31246  35.878  15.301  11.539
58822W        W31247   8.287  24.098  10.490
58823W        W31248   0.449  34.068  12.066
58824W        W31249  37.956  31.481   1.790
58825W        W31250  41.943  38.366   3.727
58826W        W31251   5.314   2.386  12.003
58827W        W31252  17.631   1.769   1.298
58828W        W31253  19.141   0.372  12.378
58829W        W31254   8.172   0.794  12.963
58830W        W31255  10.842   0.777   3.237
58831W        W31256  35.028   6.758   2.821
58832W        W31257  17.696  36.021  13.311
58833W        W31258   9.704  26.191  12.511
58834W        W31259   8.222  16.156  11.542
58835W        W31260  34.865  13.307  12.549
58836W        W31261  18.104  12.789   3.163
58837W        W31262  37.505   1.977  13.821
58838W        W31263  30.933   9.185   2.873
58839W        W31264   5.909   1.479  14.787
58840W        W31265  13.784  35.420  11.086
58841W        W31266   9.765  34.608  10.910
58842W        W31267  25.611  12.322  14.960
58843W        W31268  25.202   2.446   4.603
58844W        W31269  10.645  31.517  14.875
58845W        W31270  28.558   0.987  12.996
58846W        W31271  15.681   8.742   1.287
58847W        W31272  38.366  36.842   0.916
58848W        W31273  20.659  36.392   2.193
58849W        W31274  27.690   1.247  12.887
58850W        W31275   1.443  36.560   3.687
58851W        W31276  30.927  20.720   4.302
58852W        W31277  16.264   5.897  13.851
58853W        W31278   5.248   3.875  12.849
58854W        W31279  29.100  19.647  14.909
58855W        W31280   9.737  34.932  12.949
58856W        W31281  43.516  23.712   1.744
58857W        W31282  22.738  43.292   4.686
58858W        W31283  44.351  43.949   1.297
58859W        W31284  12.264   9.277   4.291
58860W        W31285  14.629  20.243   0.786
58861W        W31286  32.620  36.878  14.384
58862W        W31287  25.031   6.282   4.193
58863W        W31288   4.760  20.539   0.385
58864W        W31289  40.511  31.550   4.309
58865W        W31290  20.732  40.857   2.280
58866W        W31291  24.693  13.161   3.860
58867W        W31292  32.967  13.275  14.864
58868W        W31293  18.574  24.012   4.664
58869W        W31294  19.148  15.634  13.830
58870W        W31295  21.587  40.339   0.285
58871W        W31296  16.097   9.681   3.827
58872W        W31297   8.666   8.225   0.310
58873W        W31298  13.839  13.673  12.878
58874W        W31299  33.938  16.754   5.569
58875W        W31300  44.010  19.690  11.910
58876W        W31301  11.679   8.363  13.837
58877W        W31302  16.586  33.099   3.239
58878W        W31303  32.121  27.073  12.519
58879W        W31304  16.186  14.330   0.932
58880W        W31305  29.595   4.850   5.136
58881W        W31306   1.443  16.696  12.962
58882W        W31307  17.084   6.718  13.489
58883W        W31308  32.043  38.459  14.816
58884W        W31309  34.041  38.479  12.469
58885W        W31310   9.749  34.033   3.320
58886W        W31311   4.864  25.510   5.291
58887W        W31312   3.938  22.015   0.342
58888W        W31313  10.194  17.782  14.458
58889W        W31314  19.071  31.465  13.404
58890W        W31315  38.965  25.030   4.213
58891W        W31316  19.060  12.313  13.316
58892W        W31317  41.007  37.509   1.383
58893W        W31318  26.091   2.934  11.531
58894W        W31319  36.940  27.454   4.130
58895W        W31320   7.221  23.602  12.077
58896W        W31321  28.459  34.961  13.527
58897W        W31322  21.207  40.455  12.070
58898W        W31323  28.500  21.682   4.661
58899W        W31324  29.424  42.309  14.804
58900W        W31325  12.154  18.774   3.811
58901W        W31326   7.911  44.815  13.024
58902W        W31327  28.515  42.862  14.405
58903W        W31328  34.903  22.670  13.393
58904W        W31329   3.773  22.191   3.340
58905W        W31330   0.454  33.591  11.037
58906W        W31331  32.512  22.184  10.413
58907W        W31332  28.110  40.546  14.304
58908W        W31333   2.318  44.462   1.236
58909W        W31334  20.691  12.632   1.843
58910W        W31335  13.259   2.918  10.577
58911W        W31336  28.535  25.712  14.324
58912W        W31337  42.852  36.098   0.965
58913W        W31338   1.763  41.900   3.324
58914W        W31339  19.249  13.809   4.642
58915W        W31340  29.645  26.158   1.718
58916W        W31341  11.751  27.013   4.155
58917W        W31342  41.789   4.265  14.922
58918W        W31343  31.538   2.339   1.337
58919W        W31344  38.042  28.058   0.870
58920W        W31345  19.247  17.283   4.758
58921W        W31346  41.499  15.642  14.395
58922W        W31347  38.934  23.492   2.269
58923W        W31348   0.412   0.945   4.191
58924W        W31349   1.799  23.698   2.277
58925W        W31350  44.897  35.402  11.583
58926W        W31351  30.049  16.657  11.940
58927W        W31352  27.095  38.329  11.607
58928W        W31353  10.666  26.057  12.518
58929W        W31354  17.801  20.706   3.695
58930W        W31355   7.258  32.621   4.762
58931W        W31356   2.375  23.593   3.800
58932W        W31357  28.083  22.236   4.155
58933W        W31358   1.791  42.368   3.323
58934W        W31359  19.709  29.495   2.841
58935W        W31360  36.882  35.874   0.850
58936W        W31361  39.380   5.415   2.693
58937W        W31362   9.319  43.808   0.871
58938W        W31363  15.605  29.515  10.579
58939W        W31364   5.433  34.582   0.292
58940W        W31365  42.431  11.630   2.384
58941W        W31366   1.285  43.974  14.339
58942W        W31367   0.381  20.671  13.798
58943W        W31368   9.237  34.925   4.616
58944W        W31369  25.171  27.102   0.866
58945W        W31370  16.647  37.059   1.912
58946W        W31371   1.274  25.009  12.382
58947W        W31372  24.145  29.054   2.269
58948W        W31373   9.259  23.715   4.728
58949W        W31374  13.840   7.706   2.256
58950W        W31375  25.179  13.224   3.635
58951W        W31376  31.441  23.987   1.891
58952W        W31377  29.947  30.639   3.742
58953W        W31378   1.404  42.369   3.179
58954W        W31379  34.891  15.750  13.355
58955W        W31380  28.986   0.820  13.796
58956W        W31381  21.231  15.176  14.418
58957W        W31382  14.704  15.109  14.876
58958W        W31383  29.576  30.065   3.207
58959W        W31384   7.780   0.883  11.042
58960W        W31385   6.896  11.792   3.224
58961W        W31386  27.494  23.239   0.368
58962W        W31387  39.559  31.507  14.844
58963W        W31388   4.385   7.244  13.363
58964W        W31389  13.312   5.220  13.364
58965W        W31390   5.217  11.855   4.199
58966W        W31391  22.155  30.134  11.420
58967W        W31392  15.277   3.742   4.129
58968W        W31393   3.348  13.617   4.298
58969W        W31394  39.988  24.592   4.115
58970W        W31395  17.209  36.470   3.158
58971W        W31396  34.100  43.841   3.177
58972W        W31397  20.094  11.286   1.805
58973W        W31398   2.426   6.692   3.247
58974W        W31399   4.257  19.217  13.922
58975W        W31400  21.543   0.965   3.162
58976W        W31401   0.938  12.327  10.505
58977W        W31402  18.059  43.473  13.356
58978W        W31403  22.142   2.907   1.725
58979W        W31404  34.093  15.643   1.721
58980W        W31405  38.406  12.246  14.852
58981W        W31406  20.527  22.614  14.322
58982W        W31407  30.952  21.250  11.380
58983W        W31408  36.386   3.899   0.777
58984W        W31409  36.449  39.881  13.846
58985W        W31410  14.641  23.640  10.111
58986W        W31411  18.549  30.564  13.966
58987W        W31412  31.442  44.435  14.032
58988W        W31413  43.409   0.988   3.202
58989W        W31414  21.567  40.429   3.870
58990W        W31415  42.441  12.150  14.397
58991W        W31416   4.312  42.816   3.380
58992W        W31417  31.439  41.797  14.980
58993W        W31418  24.695  18.144   3.860
58994W        W31419  23.153  26.460  14.430
58995W        W31420   8.385  24.088  14.502
58996W        W31421   8.753  29.006  11.515
58997W        W31422   6.873  34.525   3.658
58998W        W31423   9.738  12.336   2.798
58999W        W31424  35.103   9.349  14.775
59000W        W31425  18.631  38.033  14.007
59001W        W31426  33.522  43.938   1.855
59002W        W31427   5.755  10.249   1.768
59003W        W31428   7.891  14.295  12.865
59004W        W31429  21.525   9.790  10.136
59005W        W31430   5.796  37.969  11.888
59006W        W31431  20.742  32.561  11.095
59007W        W31432  11.149  33.891   4.208
59008W        W31433   4.842   2.438  13.832
59009W        W31434  35.391   3.873  12.054
59010W        W31435  40.957  35.986  13.038
59011W        W31436  26.963   2.343  14.896
59012W        W31437   1.917  29.486   0.377
59013W        W31438  32.136  12.171  14.500
59014W        W31439  43.512  34.936  13.944
59015W        W31440  27.973  23.197  12.409
59016W        W31441  13.230  39.942  14.295
59017W        W31442  13.776  33.001   3.340
59018W        W31443  23.028   8.809   4.644
59019W        W31444  15.265  39.867  10.460
59020W        W31445   0.810  21.677  11.581
59021W        W31446   0.347  21.638  11.096
59022W        W31447  14.647  17.159  11.437
59023W        W31448  16.743  27.095   2.793
59024W        W31449  14.281   5.254  10.595
59025W        W31450  34.472  21.570   2.705
59026W        W31451   2.907  39.895   2.390
59027W        W31452  28.150  37.546  12.471
59028W        W31453  30.062  22.609   2.296
59029W        W31454  24.562   9.251  13.058
59030W        W31455  31.537  16.676  12.921
59031W        W31456  17.118   5.416   1.910
59032W        W31457  39.437  42.820   0.782
59033W        W31458  36.995  40.954   0.467
59034W        W31459  14.703  40.829  10.970
59035W        W31460  30.061  33.024   0.747
59036W        W31461  41.344   1.419   1.321
59037W        W31462  34.914  29.971  13.951
59038W        W31463  36.584  38.861  11.467
59039W        W31464   3.735  15.203  10.903
59040W        W31465  18.773  27.064  10.998
59041W        W31466  31.057  34.400  11.531
59042W        W31467  43.288  29.028  10.609
59043W        W31468   1.787  18.587  10.604
59044W        W31469  39.397   3.332  13.405
59045W        W31470   1.276   2.744   1.875
59046W        W31471  15.749  41.381   3.828
59047W        W31472  34.432  40.800   1.906
59048W        W31473  13.110   4.335  12.562
59049W        W31474  19.212  22.125  13.825
59050W        W31475  41.876   9.155  14.820
59051W        W31476   8.833  40.912  11.386
59052W        W31477  28.661  35.422   3.791
59053W        W31478  21.026  34.883  13.017
59054W        W31479  43.491  16.659   2.377
59055W        W31480  32.981  10.213  13.386
59056W        W31481  34.505  38.830  14.775
59057W        W31482  22.725  13.600   4.698
59058W        W31483   6.185  31.905   1.696
59059W        W31484  29.570  34.920   1.906
59060W        W31485   4.751  19.628   3.353
59061W        W31486  25.551  16.207   4.675
59062W        W31487  19.050  36.461   0.466
59063W        W31488  27.466  12.638  11.891
59064W        W31489  42.332  40.543  13.849
59065W        W31490  19.151  29.991  12.410
59066W        W31491  24.500  21.154   0.896
59067W        W31492  16.648   2.357   5.741
59068W        W31493  21.752  35.107  14.276
59069W        W31494  24.538  36.570   1.389
59070W        W31495  43.352  41.439   1.250
59071W        W31496  44.474  18.565  14.439
59072W        W31497  19.701  10.829   2.663
59073W        W31498  12.777  36.992   2.233
59074W        W31499  25.489   5.263   4.629
59075W        W31500   4.712  16.701   3.298
59076W        W31501  24.706   8.270   9.474
59077W        W31502   8.795  38.544   3.328
59078W        W31503  23.126  29.091  10.598
59079W        W31504  35.900   9.803  13.471
59080W        W31505  42.900  12.255   1.424
59081W        W31506  37.998  12.330  10.470
59082W        W31507  24.180  20.220   2.247
59083W        W31508  13.678  36.564   1.249
59084W        W31509  43.940   2.951   3.674
59085W        W31510   5.272  21.061   0.357
59086W        W31511  32.955  23.144   1.842
59087W        W31512  29.993  31.905   5.132
59088W        W31513   1.373  15.104   0.473
59089W        W31514  29.109  40.891  14.837
59090W        W31515   7.380   5.842   0.897
59091W        W31516  39.424  16.110  11.438
59092W        W31517  20.167  44.841  14.434
59093W        W31518  15.129   3.256  10.526
59094W        W31519  31.983  16.129   1.302
59095W        W31520  15.100   0.930   5.736
59096W        W31521  36.364  17.708   3.810
59097W        W31522  32.913   6.779  14.938
59098W        W31523   9.323  39.015  13.854
59099W        W31524  29.464   5.710  12.045
59100W        W31525  26.631   8.864   1.227
59101W        W31526  36.521  36.497  12.455
59102W        W31527  21.255  20.101  13.397
59103W        W31528  34.015   6.387   1.220
59104W        W31529  26.613  26.046   3.737
59105W        W31530  25.645  27.001   4.261
59106W        W31531  36.440  32.054   4.723
59107W        W31532  17.297  20.216  12.855
59108W        W31533  42.954  42.839  13.992
59109W        W31534  37.900  36.979  14.909
59110W        W31535  22.516  17.134   4.687
59111W        W31536  24.588   2.372   1.265
59112W        W31537  35.988   0.798   3.707
59113W        W31538  35.600  36.960  11.109
59114W        W31539  17.706  41.789  14.403
59115W        W31540  13.314  43.342   2.185
59116W        W31541  38.457  42.871  14.921
59117W        W31542  23.530   4.788   1.295
59118W        W31543  33.593  15.818  12.434
59119W        W31544  44.773  21.211   1.333
59120W        W31545  10.847  41.424   2.844
59121W        W31546  43.994  25.639   3.720
59122W        W31547  12.239   0.949   3.380
59123W        W31548  25.693   9.242   1.349
59124W        W31549  19.282  31.512   3.298
59125W        W31550  24.559   1.341   4.648
59126W        W31551  36.897   6.703  13.410
59127W        W31552   7.813   7.726   5.231
59128W        W31553   8.780  23.149  13.948
59129W        W31554  12.209   3.270   0.757
59130W        W31555   2.394  22.672  11.510
59131W        W31556  12.150   5.434  11.002
59132W        W31557  26.682  13.263  12.007
59133W        W31558  36.991  33.900   2.302
59134W        W31559  11.283  32.461  13.388
59135W        W31560  28.152  26.655   1.705
59136W        W31561   8.261  24.993  10.554
59137W        W31562  25.067   5.793   0.902
59138W        W31563  20.680  23.202  14.467
59139W        W31564   8.359   0.947   4.615
59140W        W31565  32.507  12.854  13.956
59141W        W31566  32.043  21.146   3.636
59142W        W31567  34.071  31.522  11.375
59143W        W31568  44.399  19.048  14.957
59144W        W31569  18.152   0.811   2.727
59145W        W31570  16.572  40.878   4.183
59146W        W31571  11.664  11.141   3.784
59147W        W31572  25.185  37.037  11.872
59148W        W31573  12.677  41.477   2.251
59149W        W31574   8.184  12.120   3.259
59150W        W31575  33.988  19.272  12.475
59151W        W31576  17.130  14.696  10.605
59152W        W31577   3.401  32.082   4.131
59153W        W31578  12.318   6.844   2.811
59154W        W31579  21.608  19.188  12.009
59155W        W31580  37.532  44.422  13.434
59156W        W31581  30.952  16.734   9.978
59157W        W31582  23.514  12.746   1.786
59158W        W31583  13.245  35.104   2.774
59159W        W31584   9.655  24.649  13.358
59160W        W31585  40.379  28.086  13.370
59161W        W31586  28.617  15.234  12.031
59162W        W31587  40.350  32.105   4.662
59163W        W31588  16.084  40.897  13.868
59164W        W31589  28.554  34.107   5.202
59165W        W31590  29.497  35.525  14.887
59166W        W31591   0.316   2.321  10.911
59167W        W31592  35.937  24.114  10.983
59168W        W31593   0.355  26.506  14.854
59169W        W31594   5.802   6.187  12.462
59170W        W31595  37.480  39.412  12.489
59171W        W31596  15.670  40.436   1.851
59172W        W31597  44.991  38.984  14.788
59173W        W31598   8.710   5.419  12.058
59174W        W31599   1.297  21.574  13.915
59175W        W31600   4.305   3.761  14.360
59176W        W31601  27.138  44.417  10.125
59177W        W31602  39.921  39.826   4.323
59178W        W31603  30.015  42.411  10.577
59179W        W31604  35.030   5.847   0.343
59180W        W31605   4.900   4.800  11.560
59181W        W31606  36.512  38.435   0.851
59182W        W31607   9.804   3.276  11.483
59183W        W31608  38.979  30.065  14.511
59184W        W31609  15.188  11.631   4.630
59185W        W31610  38.464  17.740  10.509
59186W        W31611  43.404  13.200  12.993
59187W        W31612  39.547   2.417   3.836
59188W        W31613  38.059  35.984   0.801
59189W        W31614  33.011  32.466  12.876
59190W        W31615   1.477  27.020  12.070
59191W        W31616  16.150  15.142   3.705
59192W        W31617   4.806  13.243   1.249
59193W        W31618  10.139   6.410   1.280
59194W        W31619  25.595   8.160  11.123
59195W        W31620   6.812  32.099   4.338
59196W        W31621  42.367   3.839   0.880
59197W        W31622  22.656  11.796  12.003
59198W        W31623  26.646  10.753  11.449
59199W        W31624  19.070  26.653  12.974
59200W        W31625   3.380  39.924   2.210
59201W        W31626   0.781  27.147  11.923
59202W        W31627  34.585  33.122   3.807
59203W        W31628  28.625  19.726   4.668
59204W        W31629  40.866  29.658  14.295
59205W        W31630   8.236  26.661  13.321
59206W        W31631   7.182  42.954  10.129
59207W        W31632  32.900  21.172   3.784
59208W        W31633  21.218  30.426  11.561
59209W        W31634  15.822  20.711  13.440
59210W        W31635  26.205  19.602  10.979
59211W        W31636   5.358  42.393  12.893
59212W        W31637  21.017  22.024  10.081
59213W        W31638  11.280  10.250   1.865
59214W        W31639  41.870  16.175   1.726
59215W        W31640  24.177  28.130  12.974
59216W        W31641  38.032  42.314   1.445
59217W        W31642  27.978  41.295  13.428
59218W        W31643  28.100  24.104   4.125
59219W        W31644  19.148  13.247   2.764
59220W        W31645  15.208  21.531  11.976
59221W        W31646  36.494  39.371  12.855
59222W        W31647   9.729   9.809   0.758
59223W        W31648  33.125  25.046   1.928
59224W        W31649  11.345   3.739  12.061
59225W        W31650  35.897  18.681   4.353
59226W        W31651  26.027  11.350   4.265
59227W        W31652  16.175   0.377  10.418
59228W        W31653  27.673  29.544  11.608
59229W        W31654   4.344  37.381   3.270
59230W        W31655   5.802  15.162   2.902
59231W        W31656   6.835  18.577  14.438
59232W        W31657  36.516  15.593  14.000
59233W        W31658  12.641  22.054  12.389
59234W        W31659   1.259   8.350   1.709
59235W        W31660  38.373  37.908  10.960
59236W        W31661  43.335  34.007  10.629
59237W        W31662  27.079  37.582   0.968
59238W        W31663   6.223   8.769  14.476
59239W        W31664  23.612  12.231  14.812
59240W        W31665  20.694  38.921  14.511
59241W        W31666   6.291  18.105  12.560
59242W        W31667  28.610  26.674   2.762
59243W        W31668  22.557  31.144  14.813
59244W        W31669  32.066  23.635   0.276
59245W        W31670  23.136   4.392   3.336
59246W        W31671  27.513   5.427   1.398
59247W        W31672   0.751  23.210   1.385
59248W        W31673   9.380  24.082   4.772
59249W        W31674  38.356  44.463  12.417
59250W        W31675  14.672  22.593  11.012
59251W        W31676  28.671  14.612   0.378
59252W        W31677  22.690  31.551   0.438
59253W        W31678  33.406  12.644  11.495
59254W        W31679   4.371   8.654  14.456
59255W        W31680  23.041  32.466  12.018
59256W        W31681  20.558  15.608   2.372
59257W        W31682  22.736  22.075   1.780
59258W        W31683  26.030  10.814  14.025
59259W        W31684  41.411   4.310  14.790
59260W        W31685   5.200   6.363  10.566
59261W        W31686  31.920  36.014   3.324
59262W        W31687   6.720  12.279  12.346
59263W        W31688  42.972  10.238   2.677
59264W        W31689  12.827   5.411  12.918
59265W        W31690  39.989  11.217  12.437
59266W        W31691  31.129   1.304   1.382
59267W        W31692  34.577   2.324  12.901
59268W        W31693   0.278  32.930  13.823
59269W        W31694  17.210  26.640  10.977
59270W        W31695  26.550  15.736   5.250
59271W        W31696  19.172  32.580  14.927
59272W        W31697   3.345   8.863   4.768
59273W        W31698  22.637  24.708   1.289
59274W        W31699  31.542  42.497   3.283
59275W        W31700  10.673  37.342   0.283
59276W        W31701  20.605  44.891  11.867
59277W        W31702  30.083  37.560  12.994
59278W        W31703   8.882  29.044   2.881
59279W        W31704  36.460  25.702   1.869
59280W        W31705  24.083  27.548  12.349
59281W        W31706   1.850   2.895  12.936
59282W        W31707  43.297   9.243   3.855
59283W        W31708  32.535  17.614  10.532
59284W        W31709   1.348  38.860  14.467
59285W        W31710  38.868   9.196   3.822
59286W        W31711  24.994  23.704   0.380
59287W        W31712  20.095   0.823  11.064
59288W        W31713  34.415  14.311  12.351
59289W        W31714  29.503  39.488   4.287
59290W        W31715   8.205   8.711   4.787
59291W        W31716  20.629  17.260   1.841
59292W        W31717   7.415   4.862  10.957
59293W        W31718  42.893  43.470   2.208
59294W        W31719  23.592   4.243  12.990
59295W        W31720   1.272  33.493  10.613
59296W        W31721   3.327  38.476  14.938
59297W        W31722  27.608  10.236  11.897
59298W        W31723  27.482   5.883   4.670
59299W        W31724  20.211  26.473   1.927
59300W        W31725  23.205  34.578   2.686
59301W        W31726  43.973  42.407   3.736
59302W        W31727  31.001   1.819  13.829
59303W        W31728  36.579  42.901  11.941
59304W        W31729   7.234  28.973   4.211
59305W        W31730  38.916  18.576   0.959
59306W        W31731  19.561   1.377  12.342
59307W        W31732  15.111  21.171   2.855
59308W        W31733  40.985  11.763  14.399
59309W        W31734  20.583  19.569  14.946
59310W        W31735  10.740  34.600  11.856
59311W        W31736   8.841  23.594   2.740
59312W        W31737  31.049  44.465   3.847
59313W        W31738  24.569   4.929  14.029
59314W        W31739  17.681  30.936  10.555
59315W        W31740  16.702  44.787   0.781
59316W        W31741  28.110  35.867   3.246
59317W        W31742   0.848   0.316   4.784
59318W        W31743  21.525  16.261   2.327
59319W        W31744  19.607  37.021  12.376
59320W        W31745  16.076   8.761  11.023
59321W        W31746  39.453  14.764   1.255
59322W        W31747  36.458  18.194   4.137
59323W        W31748  42.495  32.057   1.715
59324W        W31749  37.886  34.048   1.331
59325W        W31750  30.920   1.275  12.386
59326W        W31751  27.538   4.705   3.695
59327W        W31752  28.549  40.884   1.902
59328W        W31753  18.592  10.314  13.463
59329W        W31754  41.788  24.573   0.246
59330W        W31755  35.529  12.783   3.682
59331W        W31756   3.376   3.232  13.353
59332W        W31757  22.063   8.198   0.950
59333W        W31758   9.171  31.457  12.014
59334W        W31759  33.928  40.424   0.968
59335W        W31760   4.807  23.147  13.514
59336W        W31761   2.429  27.567  14.342
59337W        W31762  30.627  24.124  12.906
59338W        W31763   3.747  37.971   2.709
59339W        W31764  33.089  43.298   1.924
59340W        W31765  42.866  26.529   0.728
59341W        W31766  17.150  18.214  10.960
59342W        W31767  26.630  40.415  14.006
59343W        W31768  14.738   0.897  12.975
59344W        W31769  31.000  37.469  13.463
59345W        W31770  40.999  10.701   2.186
59346W        W31771   6.786  25.191  12.036
59347W        W31772   2.877   9.197  11.878
59348W        W31773  13.198  30.154   0.289
59349W        W31774   7.306   3.747  11.869
59350W        W31775  16.679   1.402  11.913
59351W        W31776  39.924   6.300   0.903
59352W        W31777  37.530  27.591  14.853
59353W        W31778   9.821  32.570  10.468
59354W        W31779  18.278   6.194  11.571
59355W        W31780  27.560  23.698  11.021
59356W        W31781  39.895  35.941   3.280
59357W        W31782  30.540  38.013  12.973
59358W        W31783  17.065  14.131  11.875
59359W        W31784  24.185  39.555   2.744
59360W        W31785   6.334  30.996   0.773
59361W        W31786   7.275  27.473   4.799
59362W        W31787   8.257  17.644   4.159
59363W        W31788  15.596  25.106   4.677
59364W        W31789  27.581  44.490   2.753
59365W        W31790  20.071  30.957  10.068
59366W        W31791   1.930  43.273  12.495
59367W        W31792   9.229  34.497  11.555
59368W        W31793  13.730  33.553  12.070
59369W        W31794  40.411   9.305  14.405
59370W        W31795  36.387  38.986   9.988
59371W        W31796  40.538  20.740   2.722
59372W        W31797   1.807   4.796  14.846
59373W        W31798  15.597  38.975   2.193
59374W        W31799   5.807  27.472   4.226
59375W        W31800  42.461   0.869  11.066
59376W        W31801  36.485  23.659  13.405
59377W        W31802   7.255  28.590   3.222
59378W        W31803  34.383  13.602  12.969
59379W        W31804   9.853  30.422   0.859
59380W        W31805   6.917  39.823   2.721
59381W        W31806   6.298   9.235  14.308
59382W        W31807   0.395  36.441   1.875
59383W        W31808  30.453  24.002   3.311
59384W        W31809  32.107  21.617   2.245
59385W        W31810   9.652   2.829   4.277
59386W        W31811  25.085  27.575   2.343
59387W        W31812  42.522  36.920   0.439
59388W        W31813  33.433  39.884  11.003
59389W        W31814  43.354  26.627  13.964
59390W        W31815  18.731   4.722   1.842
59391W        W31816  21.019  28.953  14.013
59392W        W31817  34.393  35.450  11.881
59393W        W31818  40.357  31.070  14.980
59394W        W31819  23.044  12.640  13.535
59395W        W31820   0.850  43.780   1.216
59396W        W31821  22.239  14.326   0.298
59397W        W31822  22.079  40.937   4.758
59398W        W31823  36.033   5.344  12.391
59399W        W31824  35.499  17.114  14.511
59400W        W31825  35.945  39.454  13.957
59401W        W31826  14.186  18.601   1.289
59402W        W31827  30.581  32.470   1.250
59403W        W31828  34.400   7.712  11.865
59404W        W31829  40.401   4.357   2.819
59405W        W31830  27.956  23.080   4.161
59406W        W31831  21.572  32.894   1.778
59407W        W31832  25.131  36.441   2.867
59408W        W31833  35.075  43.286   3.769
59409W        W31834  13.281  19.089  11.575
59410W        W31835   3.850  10.379  11.101
59411W        W31836   7.866  38.980  10.097
59412W        W31837  27.644  20.586  13.910
59413W        W31838  24.178   3.266   1.417
59414W        W31839  14.610   4.343   0.814
59415W        W31840  33.612  36.384  14.008
59416W        W31841  13.225  23.157   1.700
59417W        W31842  37.498  43.934  10.949
59418W        W31843  32.896  16.790   1.892
59419W        W31844  33.400  44.814  13.420
59420W        W31845  15.588  19.671  14.909
59421W        W31846   7.793  29.515   1.229
59422W        W31847  33.602  23.538   4.238
59423W        W31848  31.539  42.919  13.318
59424W        W31849  12.183  36.471   0.475
59425W        W31850  21.661  41.442   4.647
59426W        W31851  11.698  43.923  12.507
59427W        W31852   4.302  16.243   1.282
59428W        W31853  18.594  42.290  10.509
59429W        W31854  39.923   7.895   2.678
59430W        W31855  21.526  40.037   1.273
59431W        W31856  23.149  27.197  10.483
59432W        W31857  36.420  32.422  14.768
59433W        W31858  31.484  43.431  14.377
59434W        W31859   0.306   2.936  12.453
59435W        W31860  41.523  40.041   4.658
59436W        W31861  23.124  27.683  11.856
59437W        W31862  30.027  36.034  13.318
59438W        W31863  22.142  39.887  10.516
59439W        W31864  13.261   7.305   2.807
59440W        W31865  39.941  32.986  14.335
59441W        W31866   3.284  13.131   4.739
59442W        W31867  36.367  16.241  14.952
59443W        W31868  37.080   0.330   2.765
59444W        W31869   0.880  41.505   1.312
59445W        W31870   5.768  18.068   0.934
59446W        W31871   2.329  42.505   2.405
59447W        W31872   5.771  43.383  14.306
59448W        W31873  32.601   2.781   4.642
59449W        W31874  20.108   7.237  14.367
59450W        W31875  20.057  25.543  11.465
59451W        W31876  30.119   7.291  14.307
59452W        W31877  14.291  32.115   4.827
59453W        W31878  14.251  23.576   3.780
59454W        W31879  24.226  33.460  11.060
59455W        W31880  21.598  44.451   1.896
59456W        W31881  29.981  22.714   1.245
59457W        W31882  11.146  43.300   0.892
59458W        W31883  41.410  40.951   4.597
59459W        W31884  41.300   4.701  14.879
59460W        W31885   5.808  11.698  13.329
59461W        W31886   1.368  35.898  11.986
59462W        W31887  25.670   9.807   0.459
59463W        W31888  18.228   8.750  12.857
59464W        W31889  32.128   3.226  10.903
59465W        W31890  20.106  43.974  14.485
59466W        W31891  18.122  19.591  11.121
59467W        W31892  40.400  10.856   1.766
59468W        W31893  10.156  40.334   0.299
59469W        W31894  34.063  39.407  13.536
59470W        W31895  17.610  43.309   0.478
59471W        W31896  40.495   8.403   3.270
59472W        W31897  41.965  30.008  14.868
59473W        W31898  17.630  37.864   2.664
59474W        W31899   9.693  19.163  12.992
59475W        W31900  13.128   3.900  14.972
59476W        W31901  43.842  17.665   1.263
59477W        W31902   7.881  27.185   2.704
59478W        W31903  29.062  32.586   2.298
59479W        W31904  40.520  28.515  11.125
59480W        W31905  11.772   9.691  14.794
59481W        W31906  30.648  13.158   2.897
59482W        W31907  32.432  33.077  11.043
59483W        W31908  31.015   7.781  11.108
59484W        W31909  24.167  38.349  11.402
59485W        W31910  27.194  17.219   0.303
59486W        W31911   3.449  37.011  13.885
59487W        W31912  42.800   2.785  12.829
59488W        W31913   4.248  21.218   3.319
59489W        W31914  38.562   6.266   3.373
59490W        W31915  21.153   1.917   2.243
59491W        W31916   5.759  37.517  12.475
59492W        W31917  17.768  31.617   3.364
59493W        W31918  16.271  27.158   3.155
59494W        W31919  19.172  33.042   1.906
59495W        W31920  18.114  38.970  12.377
59496W        W31921  43.371  22.198  11.570
59497W        W31922  36.458   9.855   4.266
59498W        W31923  13.625  19.273   4.147
59499W        W31924  34.120  17.275   2.309
59500W        W31925  23.657  24.048   1.360
59501W        W31926  15.811   7.303  14.852
59502W        W31927  13.619   1.974   3.643
59503W        W31928  10.170   9.313  11.912
59504W        W31929  36.927  27.129  11.412
59505W        W31930  31.577  39.530   3.317
59506W        W31931  34.067   1.372   4.281
59507W        W31932  16.171  27.005   4.337
59508W        W31933  31.138   8.219   3.240
59509W        W31934  37.079  20.257  12.844
59510W        W31935  17.304   1.339   4.139
59511W        W31936  30.945  17.260   3.350
59512W        W31937  34.017  30.033   2.822
59513W        W31938  17.307   7.253   3.758
59514W        W31939  20.612  37.341   0.810
59515W        W31940  13.200  19.644  10.620
59516W        W31941  33.129   9.235   2.809
59517W        W31942  33.614  30.495   0.404
59518W        W31943  14.833  28.078   4.673
59519W        W31944  41.489   5.233  14.882
59520W        W31945   3.782   7.847  10.556
59521W        W31946  34.051  38.866  13.512
59522W        W31947  25.137  19.775  10.893
59523W        W31948  29.919   9.727  11.387
59524W        W31949  21.123  29.967  11.395
59525W        W31950  25.069   2.373   0.291
59526W        W31951  23.635  43.902   2.188
59527W        W31952  20.214  19.102  12.412
59528W        W31953  36.386  15.301  11.936
59529W        W31954  33.960  41.305  10.987
59530W        W31955  20.645  24.082   3.823
59531W        W31956  36.091   6.850  13.912
59532W        W31957  20.043  15.123  13.837
59533W        W31958   7.773  20.662  12.000
59534W        W31959  23.226  28.040  11.386
59535W        W31960  30.969  44.955   1.210
59536W        W31961  11.780  20.185   2.345
59537W        W31962   0.877  38.338  12.570
59538W        W31963   0.451  40.041   4.673
59539W        W31964  13.638  19.225  11.601
59540W        W31965  24.517  29.957  13.005
59541W        W31966  34.031  29.477   4.330
59542W        W31967  25.558  33.530   4.254
59543W        W31968  39.898  36.472  13.022
59544W        W31969  29.494  22.164   4.796
59545W        W31970   7.292   7.231  13.951
59546W        W31971  30.139  35.928   2.787
59547W        W31972  14.118  31.993   1.694
59548W        W31973   9.244   3.712  14.890
59549W        W31974  32.931   7.763   0.797
59550W        W31975  43.975  39.552   3.345
59551W        W31976  41.331  16.201  14.884
59552W        W31977   3.444  43.993   1.332
59553W        W31978  12.616   3.306   1.873
59554W        W31979  33.534  29.150   4.709
59555W        W31980  21.701  12.266  10.510
59556W        W31981  33.502  15.295  12.502
59557W        W31982  30.502  40.020  12.889
59558W        W31983  37.396  11.686  14.835
59559W        W31984  26.513   3.257   3.252
59560W        W31985   4.437   4.883   1.824
59561W        W31986  31.986  39.332  14.936
59562W        W31987   5.194  21.640   0.349
59563W        W31988  26.104   8.203  13.018
59564W        W31989  29.552  38.892   1.356
59565W        W31990   4.236  39.813  14.964
59566W        W31991  31.023  40.407  12.406
59567W        W31992   7.404  37.039  12.559
59568W        W31993  37.988  44.384   0.295
59569W        W31994  42.908  40.809   1.831
59570W        W31995   7.389  14.332   5.222
59571W        W31996  11.251   4.394  13.812
59572W        W31997  28.149   4.431  10.541
59573W        W31998  30.155  15.628  11.043
59574W        W31999  35.448  11.182  12.936
59575W        W32000  41.967   5.253  12.835
59576W        W32001  31.459  25.631   1.425
59577W        W32002  12.776  15.666   3.631
59578W        W32003   6.294  44.987  11.459
59579W        W32004  36.876  29.637  14.942
59580W        W32005   0.881   3.852  12.886
59581W        W32006  21.030   4.333   3.160
59582W        W32007  20.203  26.102  13.376
59583W        W32008  10.699  20.662   0.913
59584W        W32009  43.785   2.262  10.416
59585W        W32010  31.537   9.383   4.139
59586W        W32011  25.681  21.530   4.597
59587W        W32012  20.746  20.714   4.170
59588W        W32013  40.851  41.933  11.604
59589W        W32014  40.946  22.728  11.443
59590W        W32015   6.685  44.957   2.836
59591W        W32016  34.612   6.189  10.517
59592W        W32017  27.087  39.027  11.921
59593W        W32018  35.926   6.685   0.293
59594W        W32019  38.403  39.416  14.311
59595W        W32020   1.287   7.408   4.154
59596W        W32021  19.169   0.308   5.736
59597W        W32022  12.673   6.913  14.454
59598W        W32023  29.598  34.007  12.379
59599W        W32024  14.106   0.835  13.472
59600W        W32025  24.602   3.747   4.817
59601W        W32026  36.027  44.995   2.700
59602W        W32027  17.748  21.039  11.414
59603W        W32028  23.584  21.579  10.492
59604W        W32029  35.578  40.351  10.943
59605W        W32030   2.826  21.191  13.842
59606W        W32031  16.631  20.630   2.356
59607W        W32032   4.331  29.600   2.265
59608W        W32033   7.767  16.617  12.571
59609W        W32034  26.169  23.582  14.860
59610W        W32035  12.714  20.745   4.156
59611W        W32036  21.594   0.792  12.513
59612W        W32037  44.827  25.215   4.150
59613W        W32038  11.639  25.163   3.795
59614W        W32039  35.482  13.317  11.562
59615W        W32040  42.372  25.518   1.394
59616W        W32041  25.483   9.252  11.004
59617W        W32042  21.547  22.668   3.175
59618W        W32043   2.469   7.341  14.809
59619W        W32044  19.720   7.776  13.055
59620W        W32045  24.074  32.469  11.971
59621W        W32046  19.756  44.868   2.307
59622W        W32047  16.310   0.317   3.753
59623W        W32048  10.858  19.172   4.190
59624W        W32049  23.234   8.274   2.689
59625W        W32050  35.479  12.351  13.440
59626W        W32051  13.106   9.778   2.282
59627W        W32052  15.805  18.267  10.413
59628W        W32053  22.249  37.337   4.710
59629W        W32054   2.285  32.546   3.810
59630W        W32055  31.584   9.857  10.970
59631W        W32056  41.856   5.884   0.326
59632W        W32057  25.641  41.373   4.340
59633W        W32058  39.929  38.964  12.835
59634W        W32059  15.321   0.314  10.554
59635W        W32060   3.232  25.087  12.526
59636W        W32061  44.861   7.797   1.738
59637W        W32062  10.750  25.527   2.178
59638W        W32063  41.295  25.597   2.741
59639W        W32064  37.450   2.722  11.951
59640W        W32065  31.058  29.948  14.348
59641W        W32066  34.104  18.179   0.246
59642W        W32067   4.268   9.662   2.288
59643W        W32068  41.298  36.393   2.363
59644W        W32069  40.807  29.549  10.441
59645W        W32070   8.783  25.135  11.426
59646W        W32071   9.754   4.334   4.654
59647W        W32072  34.537  26.965  11.105
59648W        W32073  44.851  30.596   1.367
59649W        W32074   9.276  25.499   3.676
59650W        W32075   1.811  44.004  12.378
59651W        W32076   7.680  12.258  14.415
59652W        W32077  26.017   0.930   0.272
59653W        W32078  33.626  23.029   2.830
59654W        W32079  27.520  25.588  14.947
59655W        W32080  39.835   7.900  14.306
59656W        W32081  28.085  35.867   0.929
59657W        W32082  42.308  25.651  13.031
59658W        W32083  39.411  12.775   0.919
59659W        W32084  14.627  36.046  12.511
59660W        W32085  37.558  36.053  14.341
59661W        W32086  25.614  41.314  14.921
59662W        W32087  40.846  13.650  13.986
59663W        W32088   2.364  24.992   2.228
59664W        W32089  41.929  39.872  11.992
59665W        W32090  16.231  15.658  14.779
59666W        W32091  11.237  14.648   2.870
59667W        W32092  26.536  42.836  10.003
59668W        W32093  29.571   1.445  14.798
59669W        W32094  37.025   3.722  12.424
59670W        W32095  25.500   6.912  11.517
59671W        W32096  12.168  29.463  13.949
59672W        W32097   4.911  13.720   4.306
59673W        W32098  40.354   8.334   4.631
59674W        W32099  26.530  34.436   2.739
59675W        W32100   0.755  32.556  12.347
59676W        W32101  10.193   6.350  14.005
59677W        W32102  17.278  26.468   5.294
59678W        W32103  44.928  40.895   4.703
59679W        W32104  17.107   6.685   0.856
59680W        W32105  27.005  21.731   1.789
59681W        W32106  13.687  22.094   4.336
59682W        W32107  21.682   2.328  13.826
59683W        W32108   6.841  33.435  11.455
59684W        W32109  36.009   9.721   1.261
59685W        W32110  32.966   8.884  13.387
59686W        W32111  26.529   2.290   4.278
59687W        W32112  27.554  41.370   3.716
59688W        W32113   9.806  37.508  11.511
59689W        W32114   4.341  23.705  10.929
59690W        W32115  25.607  29.622  10.609
59691W        W32116   5.257  32.041   2.701
59692W        W32117  40.336  40.000   2.206
59693W        W32118  26.194  27.579   1.797
59694W        W32119   2.841  10.292  11.059
59695W        W32120  22.570   7.846  12.563
59696W        W32121  27.989  36.019  12.443
59697W        W32122  18.759   6.325   0.893
59698W        W32123  19.724   3.362  12.476
59699W        W32124  44.292  30.457   3.165
59700W        W32125  40.915  12.644   4.696
59701W        W32126  23.566  15.656  14.006
59702W        W32127   1.390  20.115   3.816
59703W        W32128   1.844  35.499   3.278
59704W        W32129  23.646  25.164   0.795
59705W        W32130  44.473  33.918   0.812
59706W        W32131  27.447  27.952   4.667
59707W        W32132   5.311  28.049   3.849
59708W        W32133   6.250  41.313  14.391
59709W        W32134  19.105   2.790   1.448
59710W        W32135  22.037  37.877   3.709
59711W        W32136  41.515  21.644  12.024
59712W        W32137  25.079  17.201   2.743
59713W        W32138   7.349  42.323   1.814
59714W        W32139   6.692  31.974  12.496
59715W        W32140  38.541  44.002   0.761
59716W        W32141   9.796  18.591  12.935
59717W        W32142  20.543  21.607   2.190
59718W        W32143   7.839  14.148  10.493
59719W        W32144  15.753   1.438  10.471
59720W        W32145  39.440   3.248   2.725
59721W        W32146  25.541  29.059   0.795
59722W        W32147  29.470  40.424  12.858
59723W        W32148  21.554   1.870   3.374
59724W        W32149  13.838  44.317  11.905
59725W        W32150   5.883  25.489   0.283
59726W        W32151  15.175   4.253  12.502
59727W        W32152   6.731  19.714   4.621
59728W        W32153  33.390   1.977  12.483
59729W        W32154  21.669  10.208   3.317
59730W        W32155  13.820  10.818  13.321
59731W        W32156  42.430  41.391  14.968
59732W        W32157  28.507  41.436   3.656
59733W        W32158  25.038  44.959   0.840
59734W        W32159  34.552  18.737  12.573
59735W        W32160  37.955  20.648   1.809
59736W        W32161  30.625  41.901  12.842
59737W        W32162  38.962  31.053  13.804
59738W        W32163   6.215   7.310   1.300
59739W        W32164   4.428  36.524  11.947
59740W        W32165   7.858  31.141   0.474
59741W        W32166   6.266  16.768  12.895
59742W        W32167   4.389  29.536   4.238
59743W        W32168   3.812  35.907   3.172
59744W        W32169  31.023  20.135   4.119
59745W        W32170   9.297  34.076   4.753
59746W        W32171  20.215  14.260   2.864
59747W        W32172  21.193   9.241   4.115
59748W        W32173  14.725   0.980  13.457
59749W        W32174  29.582  39.332   2.860
59750W        W32175  10.834  18.735   2.366
59751W        W32176  39.873  24.120   2.246
59752W        W32177  29.038  37.924  11.073
59753W        W32178   7.682   9.365   0.339
59754W        W32179  41.871  31.467   1.271
59755W        W32180  19.231  39.352  13.997
59756W        W32181   3.397  31.541  12.997
59757W        W32182  17.304   1.261  11.049
59758W        W32183  14.299   9.743   0.337
59759W        W32184   2.731  27.538  11.887
59760W        W32185  18.156  40.877   2.797
59761W        W32186  23.076   0.393  14.358
59762W        W32187  30.976  22.674   4.276
59763W        W32188  24.979  41.921   2.814
59764W        W32189  42.986   5.914   2.279
59765W        W32190  19.682   9.274  11.493
59766W        W32191  19.238   0.360   9.469
59767W        W32192   8.273  11.173   3.284
59768W        W32193  23.580  24.062   0.907
59769W        W32194   8.658  14.597   3.653
59770W        W32195  26.015  26.084  10.506
59771W        W32196  23.991  26.162   2.223
59772W        W32197  32.110  24.487  12.519
59773W        W32198  30.530  34.022   2.213
59774W        W32199  15.230  38.554   0.769
59775W        W32200  33.034  38.027   3.312
59776W        W32201  18.603  19.253   2.214
59777W        W32202  41.419  26.456   4.342
59778W        W32203  36.966  22.070  12.954
59779W        W32204  27.951  33.423   9.926
59780W        W32205  31.098  29.617   3.782
59781W        W32206  33.581   8.776  12.364
59782W        W32207  37.857  10.348  13.542
59783W        W32208   1.241  28.652  12.434
59784W        W32209   2.732  36.456  13.438
59785W        W32210  27.066  30.960  11.479
59786W        W32211  36.568  18.246   2.262
59787W        W32212  41.336   1.267  11.990
59788W        W32213  27.582  38.408   2.865
59789W        W32214  21.018   4.878   0.745
59790W        W32215  27.491  11.847  10.492
59791W        W32216  37.549   4.441  14.896
59792W        W32217  37.410  12.197  13.414
59793W        W32218   0.765   7.836   1.846
59794W        W32219  40.452  17.246   3.189
59795W        W32220  19.570  34.515  14.783
59796W        W32221  27.623  22.070   2.898
59797W        W32222  24.546  37.010  12.574
59798W        W32223  43.793  11.695  12.381
59799W        W32224   4.801   1.256  10.593
59800W        W32225  21.561  30.007   0.962
59801W        W32226  40.995  24.974  14.432
59802W        W32227  24.590  21.575   2.741
59803W        W32228  41.877  10.693  13.530
59804W        W32229  44.816  14.825  12.381
59805W        W32230   1.790  31.425   4.161
59806W        W32231  37.461  40.002  13.461
59807W        W32232  39.927  33.432   0.834
59808W        W32233  10.186  43.407   2.215
59809W        W32234  18.067  31.902   3.330
59810W        W32235   9.233  39.835  13.371
59811W        W32236   8.368  14.314  14.422
59812W        W32237   8.266   3.232   1.365
59813W        W32238  17.670   7.341  14.400
59814W        W32239  35.564  39.486  13.318
59815W        W32240  15.589   7.712  14.276
59816W        W32241  42.344  15.615  10.944
59817W        W32242  39.423   5.787  11.405
59818W        W32243  20.666  11.207   0.379
59819W        W32244   0.866  31.529   3.757
59820W        W32245  12.814  36.034   0.797
59821W        W32246  31.462  25.052  12.837
59822W        W32247  24.543  12.643  11.014
59823W        W32248  34.483  25.666  12.443
59824W        W32249  36.050   4.434  11.987
59825W        W32250  13.250   7.272  14.786
59826W        W32251   5.267  31.622  13.505
59827W        W32252  22.209  24.638   3.809
59828W        W32253  42.985   0.429   3.195
59829W        W32254  25.191  40.972   1.224
59830W        W32255  11.300  22.706   4.661
59831W        W32256  16.196  38.522   0.859
59832W        W32257  21.676  21.621   2.748
59833W        W32258  42.365  38.563   4.763
59834W        W32259  44.326  25.129   1.309
59835W        W32260  37.981  37.047   3.150
59836W        W32261  31.100  13.844   1.372
59837W        W32262   1.732  14.796  13.545
59838W        W32263   1.318  15.148   3.155
59839W        W32264   3.371  13.315   3.761
59840W        W32265  10.295  40.375   0.836
59841W        W32266   7.316   7.692  13.867
59842W        W32267  40.394   8.307  13.875
59843W        W32268  15.193  40.395  11.962
59844W        W32269  22.014  28.034  12.439
59845W        W32270   6.786   7.782  13.389
59846W        W32271  29.611  39.516  10.487
59847W        W32272  20.537   7.331   0.773
59848W        W32273  35.579  28.972   1.306
59849W        W32274  43.405  14.742   0.896
59850W        W32275  11.318  21.578   4.643
59851W        W32276  11.629  39.471  14.316
59852W        W32277  30.443  28.450   3.632
59853W        W32278   9.240  28.052  12.834
59854W        W32279  36.447  30.914   3.197
59855W        W32280  27.473  31.910   3.824
59856W        W32281  39.397  44.845  12.569
59857W        W32282  34.975   0.801  10.490
59858W        W32283   2.783   6.752  14.030
59859W        W32284  11.316   5.273   2.756
59860W        W32285   1.321   6.315   4.324
59861W        W32286  38.040   4.833   1.872
59862W        W32287  26.125  32.446  10.618
59863W        W32288  19.554  19.586   4.241
59864W        W32289  17.693   9.277   1.410
59865W        W32290  37.545  34.475  10.010
59866W        W32291  24.006  10.281   2.740
59867W        W32292  10.356  44.764  11.873
59868W        W32293  27.545   7.187  11.020
59869W        W32294  34.577  32.041  12.530
59870W        W32295  28.602  28.959   1.441
59871W        W32296  27.003   1.936   0.422
59872W        W32297   5.714  10.230   1.353
59873W        W32298   6.350  18.283  14.967
59874W        W32299  30.644   6.385   3.787
59875W        W32300  23.624  21.251  11.462
59876W        W32301  15.679  35.440  13.864
59877W        W32302  21.584  32.511  12.905
59878W        W32303  16.254   7.390   2.244
59879W        W32304  31.533   9.833   0.965
59880W        W32305   8.250  14.639  14.384
59881W        W32306  19.540  36.351  14.809
59882W        W32307  14.138  10.156   3.695
59883W        W32308  31.138  15.235  12.444
59884W        W32309  40.984   2.769   4.777
59885W        W32310  25.693  27.974   1.323
59886W        W32311  32.551   6.905   1.327
59887W        W32312  16.707  14.825   2.275
59888W        W32313  19.229  25.643   0.461
59889W        W32314  16.094  22.199  14.337
59890W        W32315  37.454  21.070   4.187
59891W        W32316   5.335  37.016  12.405
59892W        W32317  37.553  32.486  11.098
59893W        W32318  24.519  17.185   4.803
59894W        W32319   9.188  12.161  13.824
59895W        W32320  27.469  12.659   2.365
59896W        W32321   1.323  28.523  10.644
59897W        W32322  22.084  17.721   1.728
59898W        W32323  15.593  18.614   2.876
59899W        W32324  13.325  39.516  13.040
59900W        W32325   4.393  41.536   2.847
59901W        W32326  43.803  32.551  13.821
59902W        W32327   6.909  28.976  14.931
59903W        W32328   4.394  35.535  13.906
59904W        W32329   4.316  34.464  14.960
59905W        W32330  40.948  34.437   2.212
59906W        W32331  29.015  30.444   1.779
59907W        W32332  38.347  34.955   2.327
59908W        W32333   4.239  39.329  14.785
59909W        W32334  38.502   0.883  10.459
59910W        W32335  21.258  28.084   0.865
59911W        W32336  20.532  39.536   1.833
59912W        W32337  22.675  15.220  11.473
59913W        W32338  23.725  19.259   0.964
59914W        W32339  30.638  21.603   0.347
59915W        W32340   3.379  44.872  11.904
59916W        W32341   6.416   2.227  12.951
59917W        W32342  31.068   6.181  13.398
59918W        W32343   1.973  24.072   5.283
59919W        W32344  23.011  10.150   2.677
59920W        W32345  19.609   2.449  14.306
59921W        W32346  25.508  23.622   0.929
59922W        W32347  43.999  22.167   3.386
59923W        W32348  15.605  42.345   0.880
59924W        W32349  31.613  18.571   5.776
59925W        W32350  25.621  18.785  11.914
59926W        W32351  37.461  13.244  12.997
59927W        W32352  40.319  40.015   4.813
59928W        W32353  35.471  15.765   4.763
59929W        W32354  28.124   9.725  14.940
59930W        W32355   9.648  40.459  12.878
59931W        W32356  11.700  14.597  12.530
59932W        W32357  37.441  40.533  13.394
59933W        W32358   2.929  21.717   3.212
59934W        W32359   2.909  18.774  13.893
59935W        W32360   6.809  18.777   0.380
59936W        W32361  42.525  16.805  10.938
59937W        W32362  10.140   4.318   5.223
59938W        W32363  25.990  31.932  13.009
59939W        W32364  35.010  12.140   4.606
59940W        W32365  36.367   1.354   2.209
59941W        W32366  23.034  34.064   0.894
59942W        W32367  11.322  19.178   2.698
59943W        W32368  31.114  33.432  10.544
59944W        W32369  41.421  42.019  14.339
59945W        W32370  17.273  30.612  12.339
59946W        W32371  25.198   1.447   0.375
59947W        W32372  36.377  28.096  12.910
59948W        W32373  16.253   9.784   1.435
59949W        W32374  16.203  31.566  14.764
59950W        W32375  24.994  40.352  12.900
59951W        W32376  19.685   7.772  12.349
59952W        W32377   2.934  42.833  14.842
59953W        W32378  21.081   4.825  12.343
59954W        W32379  20.254  13.655   1.761
59955W        W32380   9.779  23.512   4.278
59956W        W32381  33.417  10.169   0.762
59957W        W32382  32.426  26.487   2.833
59958W        W32383  31.937  36.853   0.862
59959W        W32384  41.979  38.990   3.174
59960W        W32385  28.072  29.091  11.533
59961W        W32386   4.820  31.933  12.426
59962W        W32387   3.781  25.092  14.288
59963W        W32388   7.355  32.062  11.096
59964W        W32389  32.978  40.479   2.871
59965W        W32390  37.978  24.610  12.846
59966W        W32391   4.744  25.148  13.803
59967W        W32392   2.738  28.094   0.447
59968W        W32393  28.038  19.266   1.409
59969W        W32394  35.568  37.073   4.751
59970W        W32395  17.649   4.339  10.990
59971W        W32396   7.265  10.686   3.743
59972W        W32397  25.602  42.979   0.468
59973W        W32398  37.935   3.930   0.844
59974W        W32399  20.656  18.073  13.468
59975W        W32400  25.036  20.130  14.946
59976W        W32401   8.205  44.949   4.323
59977W        W32402  36.954  39.554   4.648
59978W        W32403  15.116  32.966  13.350
59979W        W32404  31.994  41.460  14.802
59980W        W32405  32.886   4.226   2.337
59981W        W32406  11.163  36.905  11.944
59982W        W32407  40.944  24.579   3.675
59983W        W32408  32.596  15.646  14.860
59984W        W32409  44.792  24.985  10.613
59985W        W32410  32.500   7.323   1.306
59986W        W32411  15.328  42.936  11.396
59987W        W32412  41.355  42.492   9.591
59988W        W32413   8.662  43.442  10.527
59989W        W32414  10.383  14.664   4.688
59990W        W32415  20.062  43.772   2.687
59991W        W32416  17.581  42.004  11.414
59992W        W32417  14.629  38.383   2.307
59993W        W32418  22.645  20.056  12.037
59994W        W32419  44.793  27.986   4.129
59995W        W32420  40.356   9.149  13.455
59996W        W32421  40.021  10.374  12.535
59997W        W32422   1.327  26.158  11.035
59998W        W32423  41.887  26.955   3.767
59999W        W32424  40.427   2.865   1.795
60000W        W32425   3.886   3.871  14.420
60001W        W32426  28.493   8.836  13.999
60002W        W32427  10.848   8.878  11.077
60003W        W32428  39.367   7.291  10.518
60004W        W32429  43.471  24.121  12.026
60005W        W32430  40.328  26.512  14.941
60006W        W32431  27.148  33.479  13.383
60007W        W32432  24.670  25.547  11.033
60008W        W32433  32.430  36.854  14.938
60009W        W32434  26.565  16.568  14.872
60010W        W32435   7.246  35.407   2.264
60011W        W32436  20.217  25.174  14.411
60012W        W32437   6.696  34.023   3.235
60013W        W32438   3.403  42.806   1.700
60014W        W32439  26.082  12.349   2.899
60015W        W32440  12.293  32.435   0.469
60016W        W32441  27.489  13.793   2.718
60017W        W32442  14.676  34.494   1.711
60018W        W32443  13.291   8.691   1.271
60019W        W32444  24.528  44.472  12.045
60020W        W32445   2.450  20.108  10.509
60021W        W32446  24.603  16.570   4.274
60022W        W32447   5.863  27.624   4.658
60023W        W32448   3.224  30.994   4.629
60024W        W32449   7.804  13.759  13.051
60025W        W32450  13.680   5.346   2.378
60026W        W32451   5.825   9.239  11.880
60027W        W32452  18.266  21.612  12.836
60028W        W32453  37.535  37.057  13.010
60029W        W32454   3.889  35.098  13.978
60030W        W32455   9.196   3.420  14.492
60031W        W32456  10.144  44.274  14.460
60032W        W32457  20.139   8.853  11.072
60033W        W32458  33.117  10.373  13.792
60034W        W32459   4.723  21.629   4.148
60035W        W32460  18.292  11.755  14.374
60036W        W32461  17.109  11.660  10.473
60037W        W32462  33.599  14.591  10.525
60038W        W32463  34.026  31.580   3.330
60039W        W32464  39.983  37.532  14.361
60040W        W32465   4.883  24.527  10.981
60041W        W32466   1.397  18.071   1.894
60042W        W32467   1.303  16.796   0.429
60043W        W32468  22.083   7.328   1.922
60044W        W32469   7.351  41.885  14.285
60045W        W32470  20.224  17.744   2.182
60046W        W32471  38.943   2.755   1.718
60047W        W32472   8.776  39.866   4.139
60048W        W32473   0.364  20.576   4.162
60049W        W32474  37.377  26.614   1.899
60050W        W32475  16.109  28.560  12.993
60051W        W32476   2.389  21.725   1.887
60052W        W32477  44.446  22.047   3.179
60053W        W32478  27.503  10.745   1.859
60054W        W32479  39.057  10.145  10.984
60055W        W32480  28.566  32.951   3.825
60056W        W32481   1.354  10.230  11.995
60057W        W32482  15.298  24.156   4.191
60058W        W32483  19.094  30.640   1.827
60059W        W32484  14.686  11.283   2.863
60060W        W32485  43.972  24.986  14.493
60061W        W32486  17.288  15.591  10.123
60062W        W32487  14.246  23.163  10.603
60063W        W32488   4.204  24.219   3.828
60064W        W32489  41.791   0.887  14.894
60065W        W32490  21.538  16.750  12.379
60066W        W32491  33.534  40.438   1.753
60067W        W32492  38.504  18.712  13.432
60068W        W32493   5.806   9.257  10.628
60069W        W32494   6.696   0.331  13.832
60070W        W32495  22.598  15.710   0.817
60071W        W32496   9.176  19.539   0.914
60072W        W32497  38.900   9.857   1.702
60073W        W32498  42.835  16.147  10.420
60074W        W32499  25.984  39.413  13.316
60075W        W32500  23.651   3.792  11.602
60076W        W32501  28.092   7.821  13.857
60077W        W32502  22.527  30.417  11.466
60078W        W32503   3.926   2.922   0.342
60079W        W32504  34.914  25.980  13.429
60080W        W32505   1.270  12.129   1.294
60081W        W32506  17.730  39.552  10.437
60082W        W32507  37.564  13.281   3.320
60083W        W32508   1.762   8.746  13.004
60084W        W32509  23.552  44.880   0.274
60085W        W32510  20.749  14.830  12.844
60086W        W32511  35.099   4.343  13.899
60087W        W32512  17.237  28.534   3.221
60088W        W32513  40.352  34.459   3.266
60089W        W32514  38.428  24.191   5.182
60090W        W32515  18.626  11.227  14.425
60091W        W32516   4.361  28.129  14.307
60092W        W32517  31.089  34.415  11.911
60093W        W32518  37.024  16.122   2.700
60094W        W32519  37.542  26.059  11.453
60095W        W32520  19.746  11.253  13.403
60096W        W32521   1.882  31.055   3.217
60097W        W32522  27.452  30.086  13.060
60098W        W32523  22.018  40.543  11.493
60099W        W32524  31.418  38.999   0.930
60100W        W32525  31.992  15.315   2.854
60101W        W32526  10.194  41.910   3.253
60102W        W32527  13.789  35.989   1.232
60103W        W32528   0.389  17.758   4.617
60104W        W32529  16.666  26.049   1.704
60105W        W32530   5.398  18.664   1.839
60106W        W32531  42.978  38.525   1.808
60107W        W32532  42.029   7.709  10.903
60108W        W32533  25.541  41.419  10.987
60109W        W32534  13.788  18.174  11.924
60110W        W32535  13.721  12.638   1.411
60111W        W32536  29.431  33.083  13.341
60112W        W32537  28.141  34.375   4.818
60113W        W32538   1.767  10.800  12.537
60114W        W32539  37.567  26.471  13.392
60115W        W32540  44.264   6.820  12.851
60116W        W32541  30.558  20.611  14.376
60117W        W32542  39.504  20.694   1.388
60118W        W32543  16.768  38.824   3.276
60119W        W32544  32.631   6.409  13.409
60120W        W32545   8.733   7.741  11.996
60121W        W32546   3.814   0.378  12.853
60122W        W32547  10.140  36.438  12.478
60123W        W32548  26.477  12.839  12.493
60124W        W32549  34.418   0.831  13.507
60125W        W32550   4.205  21.106  13.389
60126W        W32551  10.648   7.852   4.800
60127W        W32552  34.058  17.135   3.781
60128W        W32553  44.266  43.443   3.342
60129W        W32554   5.826  16.687   1.934
60130W        W32555  30.582  20.241   3.712
60131W        W32556  18.669  21.550  11.478
60132W        W32557  21.705  25.710  11.986
60133W        W32558  39.822   3.738  10.603
60134W        W32559  18.267  11.236   4.297
60135W        W32560  11.316  24.077  13.498
60136W        W32561   1.282   6.412  13.504
60137W        W32562  26.058  43.784   0.845
60138W        W32563  37.359  31.440   1.301
60139W        W32564  38.488  37.443   1.285
60140W        W32565   2.936  20.643   3.679
60141W        W32566   7.887  19.203   1.731
60142W        W32567  32.441   3.296   3.335
60143W        W32568  38.463  38.333  12.843
60144W        W32569  37.862  30.600   4.353
60145W        W32570   8.841   2.809  13.930
60146W        W32571  18.283   3.843   1.887
60147W        W32572  32.987   5.334  11.963
60148W        W32573  36.374  39.829  11.482
60149W        W32574  37.341  43.970  12.443
60150W        W32575  36.406  32.961   1.840
60151W        W32576  44.959  30.161   0.935
60152W        W32577   7.350   7.174  10.520
60153W        W32578  28.559  44.915  10.476
60154W        W32579  14.681  44.403   0.726
60155W        W32580  29.069   9.344  11.046
60156W        W32581  24.978  13.607   0.469
60157W        W32582  41.400  27.035   3.252
60158W        W32583  36.031   9.650  12.521
60159W        W32584  21.612  36.423  10.998
60160W        W32585  20.202   5.233   3.262
60161W        W32586  36.443  37.951   3.364
60162W        W32587  29.984  44.760   2.216
60163W        W32588  14.821  40.978  11.496
60164W        W32589   7.261  13.707   2.336
60165W        W32590  23.622  41.961   1.744
60166W        W32591  29.041  14.710   2.891
60167W        W32592  33.995  16.694   3.772
60168W        W32593  23.146  29.569   3.251
60169W        W32594   2.345  19.600   2.222
60170W        W32595   5.227  11.175   0.359
60171W        W32596  38.017  21.027  11.461
60172W        W32597   0.484  43.275  11.947
60173W        W32598  16.597  26.143  11.380
60174W        W32599   8.293  17.782  12.955
60175W        W32600   5.887   6.822   3.156
60176W        W32601   6.922  34.556  12.907
60177W        W32602  24.590  42.966   0.777
60178W        W32603  24.579  13.620  13.467
60179W        W32604  44.974  36.380  10.447
60180W        W32605   9.792  27.600  14.328
60181W        W32606  34.890  18.766   2.339
60182W        W32607  32.435   3.236  10.030
60183W        W32608  34.594  14.206  14.318
60184W        W32609  26.687  40.423   2.263
60185W        W32610  38.867   2.267   5.127
60186W        W32611  21.710   9.235   9.631
60187W        W32612   1.347  19.227  14.357
60188W        W32613  37.844   3.448   4.135
60189W        W32614  41.345  35.446  11.031
60190W        W32615   2.418  30.056  11.422
60191W        W32616  27.174  31.412  12.996
60192W        W32617  27.669  23.703  10.530
60193W        W32618   3.752   9.762   3.180
60194W        W32619   5.224  25.996  13.921
60195W        W32620  20.646  13.282   0.825
60196W        W32621   3.714  42.958  12.391
60197W        W32622   2.791   6.336  14.789
60198W        W32623   2.428  39.948  12.411
60199W        W32624  29.565  26.486  10.127
60200W        W32625  39.808  37.935  10.902
60201W        W32626  17.217  39.411  10.911
60202W        W32627   3.757  44.893   0.299
60203W        W32628  42.482  22.049   0.959
60204W        W32629  22.208   9.648  10.597
60205W        W32630  31.593  34.972   1.875
60206W        W32631  38.992  29.146  14.005
60207W        W32632  25.490   6.797   0.432
60208W        W32633  39.875  39.466   1.768
60209W        W32634   4.891  14.205   1.731
60210W        W32635  15.303  44.794  13.953
60211W        W32636  21.149   4.255  13.859
60212W        W32637  26.018  17.774   2.220
60213W        W32638  44.915  44.925  11.516
60214W        W32639  19.053  37.480  10.558
60215W        W32640  29.985   7.725   3.358
60216W        W32641  22.535  24.681   3.838
60217W        W32642  12.793  44.301   4.261
60218W        W32643   7.393  33.078   0.765
60219W        W32644  29.963  36.528  11.513
60220W        W32645   1.943   3.439   1.840
60221W        W32646   9.733  27.571  11.105
60222W        W32647  37.918   0.367  13.881
60223W        W32648  23.688  17.142   4.316
60224W        W32649  10.261  11.283  13.427
60225W        W32650  40.844  21.675  13.929
60226W        W32651  15.671  37.425   4.176
60227W        W32652  27.621   8.266  10.598
60228W        W32653  28.977  23.639   1.847
60229W        W32654  15.162   7.293   1.257
60230W        W32655  42.936  13.306  12.454
60231W        W32656  30.489  15.614  13.018
60232W        W32657  38.936  42.378  14.946
60233W        W32658   8.825  40.890  13.990
60234W        W32659   4.705  27.449   4.601
60235W        W32660   2.828  21.144  10.456
60236W        W32661  44.307  11.710   3.790
60237W        W32662  38.519  27.096   4.829
60238W        W32663  37.940  15.118   3.730
60239W        W32664  40.460   3.866  11.379
60240W        W32665  17.614  35.013   3.750
60241W        W32666  23.129  32.582   1.801
60242W        W32667   1.357  10.167  12.525
60243W        W32668  35.378  42.290   1.293
60244W        W32669  43.442  38.369   3.186
60245W        W32670  39.368  28.584   4.186
60246W        W32671   8.748  13.302   1.286
60247W        W32672  22.658  18.286  13.868
60248W        W32673  29.925  38.833   3.779
60249W        W32674  40.046  31.011  12.420
60250W        W32675  42.882  40.378  14.772
60251W        W32676  19.233  14.662   3.797
60252W        W32677  13.650  16.669  14.277
60253W        W32678  15.113  42.516  11.981
60254W        W32679  34.376  27.008  10.405
60255W        W32680  15.635  35.099  10.615
60256W        W32681  25.037  34.969   2.419
60257W        W32682  14.671  11.349   1.340
60258W        W32683  39.470   5.859   4.605
60259W        W32684  14.329  44.896  13.968
60260W        W32685  35.403  39.376   4.669
60261W        W32686  34.920  39.954  13.034
60262W        W32687  24.527  27.011   0.265
60263W        W32688  37.528  38.828   5.232
60264W        W32689  11.167  22.605   0.272
60265W        W32690  18.172  41.538  12.948
60266W        W32691  17.181  15.125   2.783
60267W        W32692  44.501  32.465  14.004
60268W        W32693  14.262  18.789  11.542
60269W        W32694  31.085  20.601  12.850
60270W        W32695  18.212  38.949  14.026
60271W        W32696  29.657  36.575  10.905
60272W        W32697  39.903  44.291   1.817
60273W        W32698  36.526  33.461   9.922
60274W        W32699  34.379  17.114  13.378
60275W        W32700  15.313  24.600  13.542
60276W        W32701  33.512  21.542  12.505
60277W        W32702  37.346  43.395   0.964
60278W        W32703  18.691  31.999  14.914
60279W        W32704  19.542  32.554   1.243
60280W        W32705  29.546  23.612   2.861
60281W        W32706  22.110   4.760   0.846
60282W        W32707   1.801   5.382  12.867
60283W        W32708  32.519  24.102   4.623
60284W        W32709  18.097  42.922  13.315
60285W        W32710  33.901  41.930  10.541
60286W        W32711  11.778  32.448  11.073
60287W        W32712  11.634  28.044  13.325
60288W        W32713  35.509  24.114   3.171
60289W        W32714  25.700  44.775  12.878
60290W        W32715  25.176  36.511   4.132
60291W        W32716  16.264  25.041  10.933
60292W        W32717   8.854  30.151   2.846
60293W        W32718  31.481  17.658   2.228
60294W        W32719  18.077  14.702   3.736
60295W        W32720  44.357  43.511   4.140
60296W        W32721  14.181  40.885   0.852
60297W        W32722  20.595  26.688   2.895
60298W        W32723  21.693  19.559  14.506
60299W        W32724   0.326  22.046   2.411
60300W        W32725  31.619  14.621   2.404
60301W        W32726   4.831  35.366  11.862
60302W        W32727  32.527  25.989  13.991
60303W        W32728  14.770  13.800  13.469
60304W        W32729  38.331  29.113   0.735
60305W        W32730  22.654   5.811   2.380
60306W        W32731  29.658  44.822   1.812
60307W        W32732  29.120  22.507  12.043
60308W        W32733  41.330  32.558   3.251
60309W        W32734  19.259  37.486   1.448
60310W        W32735  37.348   1.746  10.443
60311W        W32736  23.167  11.143   2.875
60312W        W32737  24.714  32.444   0.764
60313W        W32738  20.524  11.195  12.568
60314W        W32739   1.386  15.167   4.720
60315W        W32740  25.110  18.071  10.896
60316W        W32741  11.335  31.085   3.349
60317W        W32742  27.497  36.982  12.858
60318W        W32743  40.304  23.648  14.323
60319W        W32744  40.442  40.833   1.865
60320W        W32745  33.017   0.893  11.376
60321W        W32746  14.763  21.552   2.838
60322W        W32747   3.393  12.788  11.601
60323W        W32748   6.420   9.888   4.756
60324W        W32749  25.495  16.651  10.502
60325W        W32750  43.932   3.423  10.888
60326W        W32751  23.564   0.368  13.949
60327W        W32752  20.082  41.500   3.799
60328W        W32753  37.448   9.794   3.642
60329W        W32754   9.239  17.787   3.304
60330W        W32755  30.993  31.099  12.432
60331W        W32756  14.824  25.982  12.839
60332W        W32757  33.925  40.304   4.177
60333W        W32758   9.381  23.610   1.269
60334W        W32759  12.234  23.097  10.627
60335W        W32760   4.811  10.160   1.893
60336W        W32761   5.875  13.226   0.379
60337W        W32762  44.002  11.763   2.296
60338W        W32763  34.594  21.257  14.790
60339W        W32764   4.340   8.222  10.624
60340W        W32765  38.330  11.621   1.912
60341W        W32766  36.441  14.108  13.380
60342W        W32767  22.726  29.473   0.763
60343W        W32768  10.775  28.469   4.811
60344W        W32769  18.114  18.212  13.322
60345W        W32770   8.257  24.558  12.549
60346W        W32771  35.020  31.440   0.800
60347W        W32772  43.369  38.824   4.313
60348W        W32773  35.996  24.551  14.512
60349W        W32774  40.520  39.824  14.423
60350W        W32775   3.328  28.498   2.399
60351W        W32776  24.209  25.189   0.727
60352W        W32777  30.632   3.286  11.040
60353W        W32778  32.096  33.043   4.226
60354W        W32779  32.907   7.847  10.587
60355W        W32780  24.165  18.558  12.867
60356W        W32781  43.988  31.636  14.350
60357W        W32782  33.930  21.091   0.906
60358W        W32783  19.178  25.162  11.522
60359W        W32784  30.086  43.967   4.339
60360W        W32785  37.575  33.886  14.901
60361W        W32786  24.591   3.370  11.079
60362W        W32787  35.530  24.508  14.398
60363W        W32788  13.648  15.311   2.361
60364W        W32789  22.706  34.021  13.837
60365W        W32790   4.278  36.961  10.927
60366W        W32791  21.090  40.896   3.373
60367W        W32792  42.319   3.241  13.937
60368W        W32793  40.978  39.036   3.255
60369W        W32794  29.995  27.677   3.226
60370W        W32795  12.178  42.290  12.432
60371W        W32796   3.883   9.342  14.882
60372W        W32797   9.732  13.611   1.701
60373W        W32798  14.141  11.827  13.481
60374W        W32799  10.754  11.130   3.742
60375W        W32800  23.122  19.692  12.025
60376W        W32801  22.072   3.888  13.945
60377W        W32802  21.232  11.661  13.422
60378W        W32803  20.199  26.616  10.507
60379W        W32804   8.210   3.318  10.107
60380W        W32805  13.798  28.160  14.777
60381W        W32806  19.754  10.161  10.490
60382W        W32807  24.188  40.335  13.903
60383W        W32808  10.722   6.698   0.866
60384W        W32809  14.717  41.453   1.712
60385W        W32810  22.036  40.408   4.153
60386W        W32811   1.378  14.301  13.512
60387W        W32812  38.480   4.848  10.497
60388W        W32813  28.674  11.144  13.976
60389W        W32814  22.049  13.307   2.291
60390W        W32815  17.112   3.403  13.498
60391W        W32816   6.362  37.879  14.322
60392W        W32817  16.678  38.861   0.393
60393W        W32818  21.128  37.019  13.800
60394W        W32819  33.380  40.939   1.838
60395W        W32820   1.819   4.887   2.267
60396W        W32821  24.993  20.661   4.641
60397W        W32822  12.257  35.582   2.251
60398W        W32823  31.449   5.837  10.565
60399W        W32824  23.075  10.333  14.445
60400W        W32825  35.915  42.302  14.018
60401W        W32826  13.207  13.670   4.285
60402W        W32827  17.098  23.140  10.078
60403W        W32828  26.024  25.023   3.700
60404W        W32829  31.965  35.897   2.713
60405W        W32830  33.414  20.098   3.641
60406W        W32831  31.613  29.639   1.786
60407W        W32832  36.860  29.667  13.470
60408W        W32833  36.549  16.109   1.795
60409W        W32834   7.849   6.848   1.698
60410W        W32835  31.591  17.159   2.872
60411W        W32836  21.565  30.486  13.840
60412W        W32837  12.816  23.099  10.475
60413W        W32838  34.612  44.863  11.909
60414W        W32839   4.418  17.801   2.779
60415W        W32840  28.007  27.155  13.333
60416W        W32841  25.212  14.735   4.185
60417W        W32842  37.007  16.203  13.536
60418W        W32843  34.006  24.009   1.788
60419W        W32844   6.682  13.214   1.371
60420W        W32845   0.407  35.913  10.498
60421W        W32846  33.007  40.811   1.828
60422W        W32847  33.606  44.472   1.425
60423W        W32848   6.803   9.342   4.211
60424W        W32849  29.559  28.448   1.283
60425W        W32850  29.025  41.841   4.789
60426W        W32851  35.565  19.534   0.335
60427W        W32852  26.538  20.180   4.145
60428W        W32853  20.630  12.176  13.866
60429W        W32854  13.120  41.934  13.864
60430W        W32855  43.837  29.499   4.344
60431W        W32856  32.910   5.696   2.844
60432W        W32857  32.012  26.127   2.189
60433W        W32858  20.698  30.927  13.345
60434W        W32859  30.484  33.539   0.794
60435W        W32860  23.138  14.736  11.941
60436W        W32861  10.851  36.435  11.595
60437W        W32862  14.615   9.313   1.325
60438W        W32863  33.072   0.887  13.435
60439W        W32864  11.720   5.753   2.266
60440W        W32865  33.538  11.811  10.498
60441W        W32866  13.616  10.715  13.915
60442W        W32867  41.468  31.131   2.195
60443W        W32868   6.719  23.107   4.260
60444W        W32869  37.520  37.938   2.347
60445W        W32870  15.215  17.196   4.728
60446W        W32871   7.792  29.148  14.340
60447W        W32872   5.203  37.046  13.385
60448W        W32873  31.607  41.822  11.002
60449W        W32874   8.326  23.194   4.182
60450W        W32875  42.508  27.556  13.025
60451W        W32876  43.309  22.106   4.284
60452W        W32877  12.170  39.399   2.705
60453W        W32878  19.248  34.414   1.255
60454W        W32879  16.602   0.285  11.555
60455W        W32880  39.326  17.210  13.021
60456W        W32881  34.920  24.100   2.413
60457W        W32882  41.356  20.622  13.050
60458W        W32883  19.762  34.464  11.502
60459W        W32884  24.679  27.669   0.806
60460W        W32885   1.363  30.136  13.344
60461W        W32886   2.447  25.030   5.286
60462W        W32887   4.228   5.857   2.317
60463W        W32888  21.571  25.556   3.827
60464W        W32889  24.028  10.340   1.255
60465W        W32890   3.722   1.380   4.774
60466W        W32891  39.340   1.941   3.789
60467W        W32892   0.336  18.670   1.791
60468W        W32893  15.171  19.101  11.897
60469W        W32894  28.160  30.110  10.102
60470W        W32895  31.086   9.687  14.881
60471W        W32896  21.225  16.220  14.862
60472W        W32897  38.498  22.557  11.010
60473W        W32898  19.648  12.226   3.735
60474W        W32899   8.215  28.558  11.086
60475W        W32900   7.809  25.125   2.348
60476W        W32901  30.647  17.641  10.935
60477W        W32902  35.422  34.933   0.788
60478W        W32903   5.351  25.187   4.156
60479W        W32904  12.287  13.296   3.836
60480W        W32905  15.687  12.845   0.822
60481W        W32906  20.650  40.957   2.675
60482W        W32907  13.608  37.526  13.822
60483W        W32908   5.730  35.531   4.808
60484W        W32909   9.773   0.966   0.898
60485W        W32910  20.216  44.983  10.927
60486W        W32911  43.494   2.435  11.585
60487W        W32912  14.600   6.390   4.631
60488W        W32913  29.622   7.380   1.326
60489W        W32914  44.332  35.952  14.786
60490W        W32915  35.093  21.094  10.525
60491W        W32916  22.692  38.961   5.263
60492W        W32917   3.433  28.478   4.211
60493W        W32918  23.718   6.309   2.398
60494W        W32919  35.466  15.765   4.291
60495W        W32920  20.621  34.908   2.387
60496W        W32921  22.045   9.186   1.861
60497W        W32922  30.049  43.997  12.926
60498W        W32923  40.390  26.538  10.636
60499W        W32924   3.779   8.661  12.029
60500W        W32925  41.361  22.545   4.189
60501W        W32926   1.312  24.639  13.883
60502W        W32927  26.568  10.239   1.751
60503W        W32928  25.013  35.961   1.251
60504W        W32929  39.933  10.662   3.722
60505W        W32930  32.903  39.388  14.966
60506W        W32931  32.908  13.300  12.484
60507W        W32932  25.478  24.500   2.419
60508W        W32933  16.762  12.697  11.006
60509W        W32934  14.792  23.176  13.035
60510W        W32935  29.526  23.154   4.681
60511W        W32936  43.801  25.132   1.791
60512W        W32937  16.288  16.584  10.459
60513W        W32938  29.482  42.423  12.978
60514W        W32939  10.683  25.620  11.569
60515W        W32940  11.195  38.481  14.766
60516W        W32941  42.881  34.472  14.828
60517W        W32942  37.471   5.237   1.351
60518W        W32943  22.235  14.098  14.412
60519W        W32944   9.726   5.824  10.420
60520W        W32945  42.394  24.172  11.931
60521W        W32946  25.558  41.794  10.950
60522W        W32947  14.780  28.462   1.727
60523W        W32948  26.532  28.938   2.328
60524W        W32949   2.371  17.775   1.856
60525W        W32950  29.138  34.121  12.359
60526W        W32951  34.037  43.961  12.432
60527W        W32952   9.326   0.311  13.415
60528W        W32953  36.382  38.533   4.263
60529W        W32954  41.920  23.504  11.391
60530W        W32955   1.278   1.835  11.581
60531W        W32956  41.422  12.338   4.335
60532W        W32957  11.629  11.867   2.813
60533W        W32958  40.852  26.607  11.411
60534W        W32959  34.531  31.993   3.702
60535W        W32960  15.288  18.562   0.903
60536W        W32961  17.634  33.085   0.411
60537W        W32962  27.147  16.191   0.862
60538W        W32963  15.761   1.748   1.764
60539W        W32964  11.820  28.580  11.541
60540W        W32965   4.813  11.179   4.631
60541W        W32966  23.108  32.451  14.323
60542W        W32967  41.856  23.623  13.815
60543W        W32968  24.529  16.629  14.949
60544W        W32969  25.629   2.465  11.020
60545W        W32970  42.929  13.310   5.261
60546W        W32971   1.395   7.194   0.834
60547W        W32972  15.267  12.183  11.065
60548W        W32973  36.922   1.412   3.164
60549W        W32974  37.441   3.720   3.287
60550W        W32975  15.124   1.264   0.863
60551W        W32976  32.540  40.974   3.373
60552W        W32977  25.063  21.544  14.812
60553W        W32978  29.461  20.736  13.312
60554W        W32979  26.072  32.512   0.805
60555W        W32980  19.752  23.153  11.945
60556W        W32981   0.378  27.019   3.724
60557W        W32982   5.889  17.087   2.376
60558W        W32983  32.401  35.893  14.483
60559W        W32984   8.234  15.812  11.898
60560W        W32985  11.810  14.707   2.284
60561W        W32986  34.120  37.062  13.545
60562W        W32987  21.204  22.544  14.499
60563W        W32988  24.663  26.126  14.972
60564W        W32989   6.767  12.299   3.799
60565W        W32990  31.964  38.420  12.987
60566W        W32991   8.708   1.828  13.309
60567W        W32992  12.325  35.963  12.547
60568W        W32993  36.947  23.049   3.339
60569W        W32994  17.705  30.594  11.065
60570W        W32995  31.030   6.413  13.015
60571W        W32996  29.600  39.540   3.170
60572W        W32997  23.212  27.198  13.865
60573W        W32998  21.260  28.180  13.866
60574W        W32999  12.639  18.650   4.754
60575W        W33000  11.683  18.590  14.976
60576W        W33001  19.568  31.037  13.003
60577W        W33002  41.818  10.376   2.672
60578W        W33003   3.848  36.884   3.338
60579W        W33004  32.004  22.220  12.069
60580W        W33005  44.885  44.429   2.821
60581W        W33006  11.158  19.676   4.291
60582W        W33007  27.076  11.215   3.741
60583W        W33008  26.149  32.402   2.186
60584W        W33009  44.409   1.392   1.791
60585W        W33010  23.160  33.490   1.729
60586W        W33011  29.656  44.461  14.504
60587W        W33012  41.856  43.855  12.823
60588W        W33013  17.097  19.552  14.860
60589W        W33014   7.325  15.656  10.452
60590W        W33015  28.039   8.263   0.353
60591W        W33016  42.955  10.859   1.711
60592W        W33017  21.670  29.564   0.438
60593W        W33018  39.558   1.840  14.387
60594W        W33019   8.901  43.984  12.441
60595W        W33020  19.628  30.573   0.480
60596W        W33021  13.158  17.757  10.536
60597W        W33022   7.408   1.396   3.852
60598W        W33023   2.858  24.505  11.880
60599W        W33024  36.984  38.050  12.839
60600W        W33025  24.620   7.253  12.924
60601W        W33026  21.727  23.681   5.201
60602W        W33027  29.976  15.596  12.465
60603W        W33028  43.456  23.056   4.609
60604W        W33029  27.455  22.014  11.398
60605W        W33030   7.769  36.576   1.440
60606W        W33031  35.529  18.204   2.296
60607W        W33032  40.305  22.554   2.874
60608W        W33033  23.601  30.942   4.795
60609W        W33034  41.520  14.813   1.807
60610W        W33035  13.825   5.414   3.147
60611W        W33036  16.638  26.674   0.342
60612W        W33037  43.822  31.545  14.759
60613W        W33038   8.294  10.662  13.003
60614W        W33039   6.365   4.884   0.370
60615W        W33040   6.714  35.416   2.202
60616W        W33041   5.313  40.044  12.938
60617W        W33042   7.850  36.481   2.732
60618W        W33043   0.782  22.721  11.404
60619W        W33044  13.185   1.298   1.449
60620W        W33045  15.713  41.470  14.930
60621W        W33046  22.609  41.319  10.011
60622W        W33047   2.868  25.498  12.885
60623W        W33048  19.570  31.565   2.780
60624W        W33049  26.652  24.136  12.860
60625W        W33050  40.329  10.284  10.451
60626W        W33051  28.106  25.055  12.007
60627W        W33052  14.124   6.704   2.687
60628W        W33053  31.552  37.956  14.027
60629W        W33054   8.333  24.160  14.844
60630W        W33055  22.213  11.214  13.020
60631W        W33056  16.768   4.746   4.619
60632W        W33057  38.487   3.780  12.989
60633W        W33058  16.144  21.189   0.870
60634W        W33059   6.761   6.702  13.957
60635W        W33060  21.109  36.488   4.337
60636W        W33061  20.577   7.786  13.834
60637W        W33062   8.284  37.570   1.773
60638W        W33063  18.719  43.861  13.391
60639W        W33064  35.999  10.877  11.991
60640W        W33065  44.827   8.758  14.484
60641W        W33066  12.714   9.687  12.862
60642W        W33067  24.117   8.341   4.205
60643W        W33068  21.722  13.671  10.528
60644W        W33069  28.586  41.031  11.997
60645W        W33070  18.125  34.486   2.377
60646W        W33071  27.567   8.789  13.962
60647W        W33072  35.989  41.812  12.974
60648W        W33073  13.703  25.712   2.220
60649W        W33074  29.610  22.578  13.413
60650W        W33075  29.148  40.380   3.232
60651W        W33076  11.279  16.779   2.289
60652W        W33077  39.846  12.630  10.976
60653W        W33078   2.260   8.391   4.705
60654W        W33079  16.713  20.055  13.514
60655W        W33080  24.011  10.847   3.215
60656W        W33081  33.018  19.178  12.485
60657W        W33082  31.995  31.095   4.183
60658W        W33083  11.345  17.766   0.937
60659W        W33084  28.946  14.777   4.285
60660W        W33085  27.500  40.953  12.028
60661W        W33086  14.799  17.160  12.432
60662W        W33087  13.140   8.843   2.732
60663W        W33088  16.108  27.456  11.517
60664W        W33089  41.369  17.745   4.808
60665W        W33090  25.588  16.255  12.512
60666W        W33091   7.724   7.685  10.002
60667W        W33092  37.024  10.364   1.318
60668W        W33093  31.560  23.587  14.359
60669W        W33094  34.461  25.218  11.451
60670W        W33095  19.057  39.440   1.217
60671W        W33096   5.381   5.404   4.658
60672W        W33097  15.582  31.447   3.819
60673W        W33098  33.598  13.211  14.841
60674W        W33099  16.242   3.719   4.694
60675W        W33100  34.598  34.371  11.371
60676W        W33101  37.479  10.249  11.379
60677W        W33102  23.162  43.788  10.962
60678W        W33103  24.004   6.413  14.510
60679W        W33104  26.104  28.530  12.518
60680W        W33105   5.767  39.428  14.965
60681W        W33106  28.128   5.845  10.995
60682W        W33107  40.304  43.282  13.797
60683W        W33108  21.692  12.716  11.870
60684W        W33109   3.432  42.476  10.455
60685W        W33110  36.941  17.784  14.463
60686W        W33111  13.191  22.675   3.702
60687W        W33112  41.009  44.404   3.785
60688W        W33113   1.966  32.950  10.915
60689W        W33114  37.566  21.574  10.618
60690W        W33115   3.303  37.499  13.808
60691W        W33116  39.896  21.546  14.455
60692W        W33117   2.900  27.943   1.249
60693W        W33118   6.812  42.499  14.502
60694W        W33119   1.367  11.295  14.307
60695W        W33120  35.600  21.579   1.340
60696W        W33121   1.480  41.857  11.912
60697W        W33122  21.040   0.863  13.039
60698W        W33123   4.246  43.937  11.122
60699W        W33124  12.698  25.684   2.767
60700W        W33125   3.818   8.406  13.349
60701W        W33126  31.970  25.656  11.963
60702W        W33127   5.728  16.145  13.427
60703W        W33128  28.560  24.483  14.860
60704W        W33129   4.763  11.313  14.350
60705W        W33130  13.777  21.582   5.214
60706W        W33131  26.608  31.030  11.472
60707W        W33132   7.884  23.657   0.779
60708W        W33133   0.422  13.225   2.227
60709W        W33134  10.771  38.390   0.438
60710W        W33135   1.932  16.119  13.861
60711W        W33136  28.086  35.599  14.481
60712W        W33137   7.357  21.566  14.277
60713W        W33138   2.949  44.982   1.913
60714W        W33139  32.061  30.966  13.014
60715W        W33140  22.113   5.763   1.905
60716W        W33141  42.466  43.002  11.921
60717W        W33142   9.285  11.337   2.754
60718W        W33143   7.242  12.221  10.638
60719W        W33144   3.280  13.796   1.920
60720W        W33145   0.286  35.442   2.674
60721W        W33146  22.248   5.297  11.870
60722W        W33147  31.097  27.544  13.859
60723W        W33148  10.249  38.467  13.796
60724W        W33149  14.286  19.172  11.576
60725W        W33150  32.588   4.910  14.906
60726W        W33151  19.145  33.416  12.880
60727W        W33152   4.719  26.202  10.518
60728W        W33153   0.264  42.399   2.238
60729W        W33154  11.356  27.478   4.298
60730W        W33155   0.470  13.626   3.225
60731W        W33156  39.007  36.462   3.154
60732W        W33157   8.856  16.673   3.328
60733W        W33158  40.029   0.796   4.824
60734W        W33159  17.783   6.217   2.304
60735W        W33160  10.808  16.220  14.471
60736W        W33161  43.411  33.908   3.178
60737W        W33162  12.747  26.636   0.337
60738W        W33163  42.014  31.402  14.007
60739W        W33164  32.408  16.662   2.405
60740W        W33165  18.248  26.467   1.266
60741W        W33166  27.999  15.210  10.948
60742W        W33167   9.316   6.735   0.289
60743W        W33168  35.518  35.930  14.355
60744W        W33169  13.718   4.746  14.932
60745W        W33170  26.977   6.855   3.722
60746W        W33171  20.137  24.626   3.174
60747W        W33172   0.861  22.179  14.939
60748W        W33173   4.891  30.999   3.767
60749W        W33174   9.885  27.052  12.487
60750W        W33175  24.616   7.848  11.075
60751W        W33176  24.641   8.708   3.725
60752W        W33177   5.319   1.300  12.425
60753W        W33178  41.954  16.261   2.203
60754W        W33179   5.836  31.949   4.193
60755W        W33180  27.153  33.051   0.937
60756W        W33181  30.994  40.928  10.621
60757W        W33182  42.357  23.018  12.941
60758W        W33183  11.847  10.645  10.462
60759W        W33184   4.881  35.560  11.374
60760W        W33185  30.067   0.280   3.855
60761W        W33186  22.546   7.720  13.898
60762W        W33187  18.276  26.610   5.249
60763W        W33188  28.043  39.471  11.527
60764W        W33189  17.747  23.567   1.411
60765W        W33190  26.171  26.204   3.316
60766W        W33191  38.945   9.159  10.535
60767W        W33192  35.603   4.720  12.019
60768W        W33193  23.039  10.208  11.964
60769W        W33194   1.930  28.488   1.744
60770W        W33195  10.335   8.840  11.458
60771W        W33196  30.577  26.613  12.403
60772W        W33197   4.382  39.916   1.242
60773W        W33198   1.281  14.095  10.992
60774W        W33199  30.431  16.164  10.123
60775W        W33200  31.494  40.408  11.999
60776W        W33201   6.370  19.744   3.720
60777W        W33202  18.627  39.533   2.352
60778W        W33203  10.714   8.742   1.261
60779W        W33204  44.920  23.993   3.373
60780W        W33205  16.611  29.630   1.844
60781W        W33206   0.929  32.980  12.890
60782W        W33207  14.743   3.225  12.386
60783W        W33208   1.303  20.716   4.607
60784W        W33209  36.524  39.402   2.339
60785W        W33210  19.759  10.145  14.276
60786W        W33211  29.565  41.532  14.785
60787W        W33212  21.125  23.219   4.313
60788W        W33213  25.097  36.032   2.204
60789W        W33214  35.905   5.261  10.485
60790W        W33215   2.425  39.924   0.289
60791W        W33216  33.520  18.222   3.205
60792W        W33217  21.250  30.944   4.262
60793W        W33218  24.973   7.262   2.282
60794W        W33219  37.510  20.695  11.393
60795W        W33220  35.559  20.601   1.405
60796W        W33221  23.014   9.169  11.583
60797W        W33222   3.711  35.881   2.187
60798W        W33223  29.447  31.047  11.594
60799W        W33224  13.121  19.597  12.429
60800W        W33225   1.362  43.381  13.511
60801W        W33226  23.023   9.395   4.299
60802W        W33227  32.442  17.217  13.939
60803W        W33228  22.619  15.582  11.943
60804W        W33229  39.474  23.151  13.324
60805W        W33230  32.907   4.755  12.392
60806W        W33231   8.824  13.285  13.393
60807W        W33232  37.020  24.025  13.916
60808W        W33233  43.513  41.294  14.790
60809W        W33234   3.263  40.342  13.471
60810W        W33235  20.170  15.171  11.560
60811W        W33236   1.778  34.042  12.460
60812W        W33237  42.945  37.943  12.950
60813W        W33238  43.459  42.886   3.868
60814W        W33239  31.121   6.337  11.422
60815W        W33240   8.172   5.768  10.940
60816W        W33241   6.733  26.145  13.893
60817W        W33242   9.695   9.176   5.602
60818W        W33243  35.539  17.788   3.163
60819W        W33244  41.485  11.150  14.947
60820W        W33245  30.153  21.224  11.123
60821W        W33246  35.599  34.469  12.971
60822W        W33247  25.483  22.545   2.762
60823W        W33248  15.601  44.277  11.608
60824W        W33249  28.653  33.420  12.904
60825W        W33250  24.208  17.626  14.919
60826W        W33251  10.258  33.083   4.687
60827W        W33252   4.809  24.114   3.842
60828W        W33253  34.418  20.149   3.163
60829W        W33254   1.252   7.377  11.978
60830W        W33255   5.743  27.668   1.893
60831W        W33256  17.794  34.475  10.464
60832W        W33257  28.608  36.489   3.294
60833W        W33258  39.501  21.627  12.073
60834W        W33259  15.759   8.362  14.022
60835W        W33260  42.365  17.162   0.862
60836W        W33261  20.219  33.063  10.573
60837W        W33262  25.212  25.579  12.884
60838W        W33263  39.943  43.810  13.829
60839W        W33264  41.823  12.620   0.804
60840W        W33265  43.941  34.917  13.991
60841W        W33266  23.600  23.200  13.479
60842W        W33267  17.752  10.177  13.959
60843W        W33268  36.972   5.375  14.418
60844W        W33269  40.528  13.139  14.940
60845W        W33270  38.457  20.617   4.113
60846W        W33271  14.299  27.142   5.103
60847W        W33272  20.622  36.426  12.048
60848W        W33273  18.728  24.065  10.908
60849W        W33274  22.244  37.952   0.803
60850W        W33275   1.258   4.821   9.936
60851W        W33276  36.435  28.953   4.652
60852W        W33277  13.788  33.078   0.266
60853W        W33278  37.376  33.112  14.922
60854W        W33279  30.606  27.054  11.408
60855W        W33280  31.931   6.897   0.256
60856W        W33281  33.028  35.536   1.303
60857W        W33282  34.042  44.782  13.849
60858W        W33283  33.017  15.612   2.240
60859W        W33284  15.675  11.806   2.893
60860W        W33285  27.951  14.684  11.413
60861W        W33286  14.238  30.443   3.781
60862W        W33287  10.838  19.730  12.438
60863W        W33288  19.610  21.707  12.483
60864W        W33289  38.026  11.708  14.953
60865W        W33290  34.477   7.243   4.601
60866W        W33291  34.061  20.574   0.858
60867W        W33292  12.797   3.925   0.254
60868W        W33293  32.509  44.965   0.248
60869W        W33294  29.575  29.605   3.310
60870W        W33295  11.714  44.347  12.427
60871W        W33296  26.581   0.888   5.179
60872W        W33297  12.679  40.855   1.447
60873W        W33298   1.859  15.693  12.076
60874W        W33299  37.846  33.073  12.048
60875W        W33300  36.874  32.955  11.102
60876W        W33301  38.838  40.818  12.441
60877W        W33302  34.594  17.735  10.912
60878W        W33303  19.643  25.508   0.416
60879W        W33304  10.363  24.103  11.917
60880W        W33305  12.269   5.913  12.902
60881W        W33306  31.016  18.081  13.474
60882W        W33307   7.902   0.350   3.869
60883W        W33308   7.716   7.834   0.765
60884W        W33309  25.539  40.357  13.352
60885W        W33310  41.992  23.071   2.822
60886W        W33311   6.922  27.619   2.879
60887W        W33312  38.526  44.464  11.868
60888W        W33313  22.160  10.239  14.016
60889W        W33314  36.413  16.738   4.225
60890W        W33315   2.887  21.604  13.850
60891W        W33316  38.009  16.240   3.195
60892W        W33317  18.104  30.091   5.764
60893W        W33318  39.405  10.284  10.029
60894W        W33319  28.676  43.991  11.076
60895W        W33320   8.901  10.697   2.815
60896W        W33321  34.867  17.569   2.803
60897W        W33322  16.799  42.370   1.831
60898W        W33323   6.365  25.535  13.845
60899W        W33324  15.187  32.024   4.823
60900W        W33325  29.082  39.506  13.518
60901W        W33326   8.163  10.289  14.943
60902W        W33327  29.638  37.854  11.965
60903W        W33328  10.723  41.462   5.187
60904W        W33329  18.748  24.029   2.347
60905W        W33330  11.330  19.755   4.741
60906W        W33331  39.058  43.304   5.104
60907W        W33332  38.408   5.314   4.338
60908W        W33333  34.467  20.698  12.849
60909W        W33334  29.950  39.966  12.570
60910W        W33335   0.933  18.070   1.779
60911W        W33336  29.153  19.744   0.842
60912W        W33337   7.771  19.096   1.351
60913W        W33338  43.918  15.600   4.773
60914W        W33339  37.999  21.202   2.207
60915W        W33340  35.917  16.089  13.852
60916W        W33341  39.402  24.692   4.678
60917W        W33342  28.098  22.655   1.273
60918W        W33343  10.844  24.044   3.164
60919W        W33344  10.813  14.641  12.559
60920W        W33345  11.655  21.742  12.894
60921W        W33346  39.889  16.610   0.748
60922W        W33347  15.107  41.460   1.405
60923W        W33348  44.789  39.845  13.844
60924W        W33349  17.219  35.934  11.083
60925W        W33350  41.439  41.966   0.335
60926W        W33351  31.044   8.725   4.328
60927W        W33352  16.754   7.781  11.522
60928W        W33353  43.950  18.166   1.802
60929W        W33354  28.949  15.108   2.743
60930W        W33355   6.787  41.841   0.393
60931W        W33356  17.117  13.815  10.417
60932W        W33357   7.267  12.641  14.287
60933W        W33358  12.184   6.218   0.464
60934W        W33359  29.002   4.827   1.804
60935W        W33360  14.136   1.854   0.780
60936W        W33361  35.035  16.201  11.473
60937W        W33362  19.215  24.549   3.681
60938W        W33363  19.218  27.494  12.376
60939W        W33364  22.070   1.427  13.890
60940W        W33365   4.328  30.957   4.752
60941W        W33366  17.610  32.135   3.841
60942W        W33367  44.962  25.085   2.753
60943W        W33368  44.003  23.994   1.256
60944W        W33369   6.202   3.248  13.422
60945W        W33370  13.639  23.100  13.058
60946W        W33371  38.051  43.294   5.199
60947W        W33372  23.122  40.442   2.723
60948W        W33373  13.757  20.710  12.891
60949W        W33374   4.250   0.335  13.347
60950W        W33375  20.131  19.208  12.045
60951W        W33376  41.889  12.271   4.674
60952W        W33377  26.175   0.357  13.536
60953W        W33378   9.231  21.090  11.004
60954W        W33379  25.991  31.090  10.460
60955W        W33380   0.330  35.597   3.187
60956W        W33381  21.098   1.853   1.765
60957W        W33382   2.913   8.833   1.922
60958W        W33383  43.013   5.401   4.127
60959W        W33384  35.556  16.605  14.908
60960W        W33385  19.567  27.556  13.919
60961W        W33386  28.540  37.842  14.329
60962W        W33387  24.221  30.627  14.911
60963W        W33388  18.208   8.760   2.867
60964W        W33389  32.423   3.873   4.260
60965W        W33390  11.857  39.514  12.868
60966W        W33391  40.317   3.326   3.712
60967W        W33392  40.329   1.897  14.289
60968W        W33393  28.630  24.062  13.847
60969W        W33394  28.449   0.388   0.746
60970W        W33395  37.866   6.868  10.476
60971W        W33396  35.095  27.447  14.330
60972W        W33397  19.657   0.485   1.302
60973W        W33398   3.442  34.503   1.287
60974W        W33399  14.336  35.904  14.511
60975W        W33400  34.609   8.332  12.847
60976W        W33401  22.070  32.620   2.716
60977W        W33402  11.629   7.210  14.357
60978W        W33403  43.488  22.181   3.282
60979W        W33404  12.323   5.689   4.223
60980W        W33405  29.934  21.516  11.110
60981W        W33406  25.599  25.501  12.529
60982W        W33407   7.733  26.038   2.225
60983W        W33408  39.979  21.630  13.325
60984W        W33409  26.521  23.573  14.950
60985W        W33410  31.446  10.782  12.450
60986W        W33411   4.342   0.770  13.000
60987W        W33412  11.173  25.158  13.411
60988W        W33413  33.960  23.205   0.327
60989W        W33414  11.708   6.741   2.726
60990W        W33415  28.527  35.431  10.512
60991W        W33416   8.407  15.202   1.701
60992W        W33417  25.167   7.755   0.394
60993W        W33418  10.187  21.706   0.483
60994W        W33419   1.766  29.515   0.933
60995W        W33420  32.929  37.421  11.426
60996W        W33421   5.365  39.332   4.217
60997W        W33422  12.121   5.227  14.862
60998W        W33423  22.189  21.098   0.366
60999W        W33424  23.173  40.927  10.932
61000W        W33425  44.260  24.561  13.508
61001W        W33426  36.398  16.595   1.770
61002W        W33427  17.781  17.156  11.934
61003W        W33428  21.713  20.675   3.350
61004W        W33429  16.666  42.924  10.506
61005W        W33430  12.116   2.766  12.910
61006W        W33431  16.570  13.246   4.618
61007W        W33432  21.711  44.934   0.899
61008W        W33433  13.640  10.289  13.796
61009W        W33434  12.649  14.678   1.878
61010W        W33435  41.425   6.775  14.789
61011W        W33436  24.622  27.006  10.921
61012W        W33437  29.454   6.921   4.629
61013W        W33438  39.849  43.358  14.963
61014W        W33439  29.547  12.612   3.797
61015W        W33440  28.628  15.117  14.444
61016W        W33441  22.126  16.572   3.314
61017W        W33442  25.487  41.030  12.828
61018W        W33443  19.193  10.231   1.391
61019W        W33444  16.644  44.436   4.729
61020W        W33445   5.413  41.799  14.872
61021W        W33446   8.234  16.153   0.773
61022W        W33447  10.345  44.381   9.964
61023W        W33448  37.047  28.668   3.823
61024W        W33449  33.588  18.620  13.461
61025W        W33450  42.296  34.423  11.415
61026W        W33451  28.087  36.892  13.051
61027W        W33452   9.262  11.709   1.912
61028W        W33453  39.379  25.679  13.395
61029W        W33454  38.833  24.567   3.650
61030W        W33455  31.533   9.249  14.773
61031W        W33456   6.892   1.257  11.528
61032W        W33457  22.648  30.055  10.514
61033W        W33458  35.072  21.037  11.476
61034W        W33459  41.461  20.736  11.091
61035W        W33460  13.111  27.160  12.382
61036W        W33461  36.063  44.817  14.793
61037W        W33462  24.108  29.928  11.410
61038W        W33463   1.745  28.010   3.308
61039W        W33464  42.299  23.134  12.532
61040W        W33465   6.765  20.552   0.744
61041W        W33466  41.489  15.194   0.803
61042W        W33467  44.296   5.893   3.306
61043W        W33468  22.128  33.582  12.467
61044W        W33469  36.555  25.499  14.367
61045W        W33470  25.067  44.910  10.562
61046W        W33471  25.064  18.133  12.082
61047W        W33472  20.638  19.728   2.200
61048W        W33473  11.851  20.211   0.299
61049W        W33474  30.421   3.919   1.294
61050W        W33475  13.698  29.156  12.096
61051W        W33476  41.913  31.492   4.163
61052W        W33477  13.349   2.870   0.849
61053W        W33478   4.846  28.171   5.310
61054W        W33479   2.265  15.795  11.468
61055W        W33480  12.746  26.471   2.232
61056W        W33481  29.172  20.537   3.268
61057W        W33482  37.004  27.674  13.874
61058W        W33483  37.553  25.025   5.283
61059W        W33484  13.280  27.005  11.002
61060W        W33485  25.634  37.932   2.877
61061W        W33486  31.915  15.286   4.288
61062W        W33487  32.575  41.307   1.357
61063W        W33488   0.758  18.650   3.222
61064W        W33489  14.807  36.448   4.247
61065W        W33490  21.173   6.263  13.969
61066W        W33491  21.194   7.415  14.409
61067W        W33492  28.155   3.735   0.837
61068W        W33493  39.552  18.678   1.227
61069W        W33494  38.354   5.725  11.477
61070W        W33495  35.906  39.460  14.785
61071W        W33496  29.950  31.583  12.079
61072W        W33497   1.887  43.379  12.047
61073W        W33498  41.376  33.518   0.931
61074W        W33499  39.058  38.412  12.473
61075W        W33500  17.770  35.864  14.282
61076W        W33501   6.715   9.164  13.319
61077W        W33502  39.435  40.798  13.959
61078W        W33503  11.372  43.764   3.731
61079W        W33504  32.093  14.818  14.504
61080W        W33505  13.744  12.744  14.423
61081W        W33506  43.765  41.864   1.380
61082W        W33507  31.582   7.313  12.838
61083W        W33508  32.937   2.737  13.337
61084W        W33509  19.537   8.801  13.985
61085W        W33510   7.407  44.452   3.288
61086W        W33511   3.757   6.796  11.026
61087W        W33512  26.520  19.275   1.282
61088W        W33513  11.132  33.497   1.341
61089W        W33514  35.467  13.729  12.059
61090W        W33515   6.816  39.428   1.852
61091W        W33516  19.648  27.163   2.337
61092W        W33517  40.472  41.396  13.013
61093W        W33518  28.066  38.560   0.817
61094W        W33519  12.154  35.489  11.026
61095W        W33520  35.905  21.212   1.293
61096W        W33521  41.936  30.021   0.316
61097W        W33522  41.417  24.100   4.829
61098W        W33523  18.234  25.659  13.802
61099W        W33524  22.018  28.018   2.866
61100W        W33525  11.857  13.115   4.328
61101W        W33526  14.790  18.622  10.923
61102W        W33527  38.540  25.606   3.267
61103W        W33528   8.834  24.203  10.990
61104W        W33529  42.336  34.060  14.978
61105W        W33530  16.579  13.799   2.889
61106W        W33531  41.380  13.771   0.889
61107W        W33532  12.223  33.415  12.938
61108W        W33533  32.409  32.134   3.708
61109W        W33534  41.945  40.348   4.636
61110W        W33535   4.822  17.264   1.929
61111W        W33536   5.900  40.837   1.418
61112W        W33537  23.212   2.258   3.162
61113W        W33538  23.017  20.139  11.590
61114W        W33539  26.000  11.811   4.809
61115W        W33540  31.617  28.675   2.785
61116W        W33541  33.516  22.743   5.204
61117W        W33542  17.130  43.474   0.903
61118W        W33543  12.649   4.286   3.737
61119W        W33544  42.321  33.965  11.039
61120W        W33545   6.863  30.056   0.736
61121W        W33546  43.950  31.582   0.297
61122W        W33547  29.540   3.888   4.265
61123W        W33548  30.943  16.746   4.746
61124W        W33549  43.461  15.176   4.776
61125W        W33550  31.138  37.878  13.470
61126W        W33551  12.803   4.745  12.373
61127W        W33552  37.370  22.502   1.902
61128W        W33553   7.668  25.214  14.398
61129W        W33554  41.008  19.210  11.449
61130W        W33555  28.479   1.825  12.870
61131W        W33556  13.236  31.453  12.986
61132W        W33557   2.919   5.211  11.111
61133W        W33558   9.859   0.778  11.944
61134W        W33559  43.813  24.549   2.845
61135W        W33560   1.455  37.386  11.375
61136W        W33561  40.945  22.656  14.411
61137W        W33562   2.875  11.171   4.682
61138W        W33563  10.189  27.526  13.881
61139W        W33564  16.264  35.097   2.318
61140W        W33565  16.108  40.013  10.498
61141W        W33566  43.382  31.067  13.473
61142W        W33567  22.086  24.027  13.451
61143W        W33568  29.570  17.196  14.319
61144W        W33569  35.052  12.834   3.735
61145W        W33570  41.402  12.202  11.929
61146W        W33571  30.522   4.433  11.421
61147W        W33572  40.484  15.262   3.762
61148W        W33573  14.790   4.359   4.801
61149W        W33574  18.685  17.704  13.812
61150W        W33575  41.836  35.465   1.381
61151W        W33576  34.959   1.929   1.408
61152W        W33577  42.504  21.136  13.821
61153W        W33578  22.714  15.329  10.642
61154W        W33579  40.830  11.699  14.926
61155W        W33580  18.184   1.954  13.052
61156W        W33581  28.015  32.472  11.032
61157W        W33582  16.745  34.018   0.792
61158W        W33583  42.926  37.556  10.887
61159W        W33584  15.263  10.738  12.351
61160W        W33585  36.517  18.594  12.942
61161W        W33586  18.105  26.197   2.327
61162W        W33587   0.419   7.829  14.984
61163W        W33588  39.985   0.837   4.299
61164W        W33589  31.902   4.939  14.275
61165W        W33590  37.486  38.431   0.913
61166W        W33591   4.383  33.902  14.392
61167W        W33592  43.380   3.931  14.363
61168W        W33593  26.691  25.986   1.388
61169W        W33594  31.610  39.864  11.933
61170W        W33595  34.610  11.253  14.442
61171W        W33596  15.726  31.441   0.843
61172W        W33597   9.248  40.510   1.278
61173W        W33598  40.404  36.913  13.912
61174W        W33599  21.570  43.878  13.388
61175W        W33600   9.807  31.912  14.474
61176W        W33601  26.090  29.949   1.349
61177W        W33602   8.875  35.596  10.621
61178W        W33603  26.165   6.844  14.467
61179W        W33604  32.390  34.514   2.267
61180W        W33605  30.932  17.108   1.698
61181W        W33606  16.076  38.526  10.405
61182W        W33607  40.417   9.336  14.837
61183W        W33608  34.011  29.608   4.826
61184W        W33609  32.051   7.716  14.833
61185W        W33610  15.804  23.187  13.808
61186W        W33611  23.135  33.942  14.787
61187W        W33612  12.168  16.794  14.324
61188W        W33613  42.793  20.632  14.313
61189W        W33614  40.364  28.983  11.873
61190W        W33615  19.620  15.645   2.260
61191W        W33616  11.239  33.384  12.385
61192W        W33617  37.377   1.871   3.750
61193W        W33618   8.765   0.248   4.684
61194W        W33619  11.834  41.013   1.847
61195W        W33620  44.405  13.151  10.913
61196W        W33621   7.804  17.253   2.813
61197W        W33622  13.712  12.802   0.883
61198W        W33623  11.759  19.273   1.429
61199W        W33624   6.864   3.790  11.122
61200W        W33625  40.921   3.308  12.552
61201W        W33626  19.135  27.161  10.571
61202W        W33627  40.322  29.946  14.331
61203W        W33628  30.020   0.934  14.323
61204W        W33629  22.543   9.870   4.802
61205W        W33630   2.428  32.024   4.738
61206W        W33631  20.242  24.013  13.463
61207W        W33632  24.050  21.715   4.716
61208W        W33633  40.426  13.730   0.957
61209W        W33634  33.877  19.157   3.679
61210W        W33635  44.367  33.110   1.908
61211W        W33636  34.948   9.879   1.360
61212W        W33637  42.796  15.314   4.676
61213W        W33638  38.432   5.274  12.530
61214W        W33639  35.393  17.638   2.820
61215W        W33640  19.057   4.340  12.088
61216W        W33641   2.451   4.348  10.426
61217W        W33642  25.522  11.156  12.455
61218W        W33643  22.198  17.214  11.944
61219W        W33644  15.772  20.078  10.451
61220W        W33645   8.222   5.348  14.898
61221W        W33646  28.086  20.096   4.196
61222W        W33647   2.277  15.315  11.125
61223W        W33648  17.751  33.575   3.784
61224W        W33649  43.406  24.545  11.989
61225W        W33650  35.877  39.979  12.840
61226W        W33651   1.816  22.094   1.418
61227W        W33652  12.335  23.160  11.479
61228W        W33653   0.367  40.467   1.878
61229W        W33654   9.282   0.308   2.216
61230W        W33655   8.405  44.987   2.201
61231W        W33656  19.270  39.042  11.984
61232W        W33657   1.279  20.163  11.384
61233W        W33658  16.237   5.422  12.544
61234W        W33659   1.899  20.154   0.861
61235W        W33660  25.029  32.636   2.307
61236W        W33661  43.917  12.356   3.781
61237W        W33662  23.991  19.119  13.424
61238W        W33663  34.985  39.464   3.739
61239W        W33664   2.459  12.625   4.610
61240W        W33665  24.610  36.523  13.544
61241W        W33666  23.202  33.038   1.822
61242W        W33667  14.213  36.549  12.490
61243W        W33668  37.830  14.280   4.750
61244W        W33669   4.792  33.894   1.696
61245W        W33670   8.686  24.511   3.250
61246W        W33671  30.054  43.297  14.991
61247W        W33672  29.545  42.018   1.318
61248W        W33673  42.889  23.494  12.463
61249W        W33674   9.795   6.400   2.302
61250W        W33675   4.246  22.096  13.505
61251W        W33676  30.912   5.920   1.336
61252W        W33677  32.607  17.111   2.680
61253W        W33678  18.593  33.560  12.451
61254W        W33679   7.406  43.350  13.858
61255W        W33680   7.861  17.303  12.897
61256W        W33681  10.677  18.174   3.381
61257W        W33682  17.212   1.965   4.291
61258W        W33683   8.658  36.082   9.994
61259W        W33684  42.896  18.560  13.516
61260W        W33685  14.134  13.745  11.400
61261W        W33686  35.104  34.600  12.369
61262W        W33687   7.209  18.142  10.622
61263W        W33688  22.537  15.819   2.727
61264W        W33689   6.411  31.458   4.137
61265W        W33690   7.274  30.610   4.632
61266W        W33691   1.732  37.404   0.942
61267W        W33692  22.700  25.639  11.994
61268W        W33693  21.217  18.081   4.643
61269W        W33694  10.248  37.852   1.393
61270W        W33695   4.350  43.363   0.289
61271W        W33696  11.245  20.704  12.485
61272W        W33697  33.561   7.898   0.272
61273W        W33698  15.262  33.500   1.264
61274W        W33699  20.687  43.879   2.837
61275W        W33700  25.572   8.275  10.515
61276W        W33701  19.740  12.357   3.261
61277W        W33702  11.671  26.007  11.485
61278W        W33703  36.022   0.258   4.151
61279W        W33704  42.402   8.654  14.326
61280W        W33705  43.470  15.766   0.786
61281W        W33706  13.634  34.093  11.452
61282W        W33707  26.023  38.857  12.881
61283W        W33708  17.564  13.107  14.415
61284W        W33709  24.167  31.407   1.369
61285W        W33710  43.918  26.601   1.859
61286W        W33711  38.865  30.542  13.832
61287W        W33712   7.739   0.983  13.928
61288W        W33713  22.224   0.945  14.953
61289W        W33714   9.200  38.049  11.465
61290W        W33715  41.920   6.182  10.469
61291W        W33716  17.269  38.344   2.188
61292W        W33717  21.535  15.210  10.999
61293W        W33718  32.567  10.191  14.394
61294W        W33719  21.708  30.925   0.735
61295W        W33720  14.643  21.255  12.550
61296W        W33721  13.113  11.281   4.196
61297W        W33722  16.260  15.757  13.513
61298W        W33723  37.575  36.573  11.377
61299W        W33724  44.821  24.505   1.210
61300W        W33725   7.251  37.395  11.533
61301W        W33726  13.729  13.232  10.624
61302W        W33727  14.772  35.860  12.995
61303W        W33728  11.208  31.110   4.655
61304W        W33729  16.745  12.789  13.007
61305W        W33730  31.041   6.745  14.353
61306W        W33731  28.157  13.320  13.947
61307W        W33732  21.664  16.151  10.888
61308W        W33733  21.133   4.357  12.518
61309W        W33734  44.951  39.323  13.861
61310W        W33735   8.160  29.143  13.380
61311W        W33736  28.465  12.622   4.662
61312W        W33737  27.604  12.682  11.515
61313W        W33738  25.979  16.647   4.309
61314W        W33739  44.401  17.197  10.483
61315W        W33740  21.728   6.746  13.374
61316W        W33741  40.011  34.051  10.559
61317W        W33742  35.947   9.804   1.876
61318W        W33743  30.580  19.211   9.937
61319W        W33744   4.346  25.142   4.783
61320W        W33745   2.878   5.291   0.762
61321W        W33746   3.938   6.721   1.436
61322W        W33747  38.519  10.636   4.330
61323W        W33748  22.218   1.404   0.930
61324W        W33749   7.319  10.249   1.384
61325W        W33750  26.647   2.242   1.715
61326W        W33751  31.145  11.660  10.022
61327W        W33752  17.285  26.562   4.336
61328W        W33753  18.687  11.687   1.217
61329W        W33754  28.933  38.418   3.712
61330W        W33755   8.345  27.023   1.825
61331W        W33756  39.860  15.168  10.611
61332W        W33757  40.488  41.855   0.773
61333W        W33758  10.805  17.137   4.214
61334W        W33759  30.543  27.520  11.009
61335W        W33760  17.745  13.676  13.416
61336W        W33761  24.030  22.723  13.048
61337W        W33762  15.775   9.232  12.471
61338W        W33763  20.556  14.789   3.702
61339W        W33764  35.013   9.245  11.866
61340W        W33765  23.025  20.527  12.562
61341W        W33766  42.354  23.568  13.887
61342W        W33767  34.888  36.405   3.331
61343W        W33768  10.183  33.011   0.345
61344W        W33769   8.657  36.476   3.200
61345W        W33770   7.755  12.628   4.157
61346W        W33771  17.641  29.473  11.085
61347W        W33772  12.674  10.147  14.840
61348W        W33773  31.438  25.053  11.399
61349W        W33774  16.312  29.556   4.173
61350W        W33775  11.850  10.857   3.854
61351W        W33776  22.707  37.385   2.779
61352W        W33777   8.792  19.286  10.595
61353W        W33778   7.772  37.831   1.312
61354W        W33779   3.810  13.224  12.467
61355W        W33780  13.689  17.224  10.490
61356W        W33781  16.094  35.947  13.434
61357W        W33782  35.876  35.487  14.453
61358W        W33783  21.171  11.656   2.221
61359W        W33784  40.023  26.662  10.641
61360W        W33785  36.557  19.752  13.398
61361W        W33786  13.212  20.182  14.349
61362W        W33787  28.094  28.558   1.858
61363W        W33788  20.249  43.459  10.472
61364W        W33789  27.667   7.335  14.911
61365W        W33790  30.996  30.632  14.891
61366W        W33791  22.608   0.386   0.470
61367W        W33792  15.175  25.487  14.505
61368W        W33793  43.373  25.515   1.705
61369W        W33794  32.480   3.823   2.230
61370W        W33795  32.973  26.202  14.385
61371W        W33796  17.125  23.589   0.891
61372W        W33797  39.004  39.911  13.491
61373W        W33798  17.251  28.952  12.542
61374W        W33799   1.345  22.206   3.337
61375W        W33800  24.987  11.625   5.092
61376W        W33801   5.394  11.187   3.849
61377W        W33802  29.973   4.779   1.367
61378W        W33803  33.401  11.256   3.642
61379W        W33804   7.186  24.213   4.720
61380W        W33805  32.513   0.334   2.405
61381W        W33806   1.898   7.863  13.528
61382W        W33807  31.905   9.766   2.228
61383W        W33808  22.166   9.257   2.368
61384W        W33809  26.477  11.865  12.090
61385W        W33810  29.064  26.003   1.695
61386W        W33811  36.353  26.512  11.939
61387W        W33812  41.023  12.118  14.278
61388W        W33813  12.173   2.946   2.779
61389W        W33814  32.503   9.376  14.474
61390W        W33815  35.402  16.777  10.926
61391W        W33816  29.580  41.855  11.913
61392W        W33817  21.069  35.517  11.983
61393W        W33818  40.894  33.410  13.900
61394W        W33819  23.197   2.427  11.079
61395W        W33820  25.636  26.552  10.457
61396W        W33821  20.764  26.199  13.410
61397W        W33822  17.565  23.594   4.264
61398W        W33823  34.934  41.379   0.247
61399W        W33824  17.224  43.843  14.498
61400W        W33825  44.283  26.203   1.784
61401W        W33826   5.301   0.298  10.645
61402W        W33827  39.528  25.065   3.671
61403W        W33828   0.334  22.724   3.217
61404W        W33829  20.066  16.674   4.619
61405W        W33830   2.282   2.812   1.890
61406W        W33831  10.360  26.164  14.410
61407W        W33832   7.216  21.545   2.862
61408W        W33833   2.934  39.032   3.146
61409W        W33834  32.001  12.271   3.341
61410W        W33835  42.783   7.705   2.340
61411W        W33836   3.762  28.517  13.041
61412W        W33837  11.250   4.296  13.478
61413W        W33838  19.674  28.500   4.316
61414W        W33839  35.408  30.588   3.249
61415W        W33840  14.271   5.395   3.730
61416W        W33841   8.750  26.669   0.414
61417W        W33842  43.406   0.365   3.250
61418W        W33843   1.467  12.347  13.926
61419W        W33844  37.007  17.570  13.870
61420W        W33845  12.138   8.752   4.284
61421W        W33846  41.488   5.924   0.309
61422W        W33847   0.825  31.143   1.780
61423W        W33848  28.131  28.143  14.378
61424W        W33849   6.800  40.520   3.151
61425W        W33850  11.689   4.442   1.388
61426W        W33851  42.919  13.167  11.560
61427W        W33852  42.455  32.518   1.854
61428W        W33853  19.691  23.585  11.459
61429W        W33854  16.078  14.665   0.934
61430W        W33855  22.643   9.852   3.803
61431W        W33856  28.146  13.714   2.408
61432W        W33857  19.599   4.282  13.828
61433W        W33858   4.329  21.083   0.330
61434W        W33859  42.957  35.362   2.303
61435W        W33860  31.639  40.971   3.696
61436W        W33861  37.028  10.272  10.623
61437W        W33862  38.921  36.526  12.445
61438W        W33863  15.708   7.294   3.847
61439W        W33864  43.337  41.916  10.482
61440W        W33865  19.762   2.279  14.884
61441W        W33866  33.436  32.450  11.080
61442W        W33867  35.577  16.698   3.681
61443W        W33868  14.690  34.598   2.379
61444W        W33869   6.734  36.052   0.771
61445W        W33870  18.688  15.228  13.802
61446W        W33871   6.227  42.872  11.531
61447W        W33872  25.693  41.399  13.442
61448W        W33873   5.199  27.475  14.293
61449W        W33874  38.542  40.923  14.934
61450W        W33875  19.249  35.481   0.962
61451W        W33876  16.189  15.091  14.936
61452W        W33877  34.027  15.237  12.481
61453W        W33878   3.405  39.010  14.785
61454W        W33879  15.748  12.786   1.857
61455W        W33880  15.589   9.820  11.979
61456W        W33881   7.263   4.258   0.859
61457W        W33882   4.740  18.651   1.272
61458W        W33883  26.013  39.823   1.233
61459W        W33884  34.418  28.055  12.931
61460W        W33885  24.544   9.725   3.264
61461W        W33886  23.645  26.564  14.309
61462W        W33887  21.227   8.339   0.305
61463W        W33888  36.371  31.515  14.995
61464W        W33889  32.896  33.473  11.538
61465W        W33890   9.752  42.283   1.325
61466W        W33891  43.998  43.852  10.925
61467W        W33892  28.100  18.775  14.320
61468W        W33893  22.709   2.826  14.026
61469W        W33894   1.480   9.348   3.180
61470W        W33895  30.975  24.091   4.738
61471W        W33896  29.558  22.070  12.022
61472W        W33897  24.206  15.768  10.969
61473W        W33898  17.182  18.665  14.484
61474W        W33899   7.689  29.087   4.214
61475W        W33900  27.173   1.355   0.278
61476W        W33901  16.602   4.383  12.475
61477W        W33902  38.435  13.176  13.885
61478W        W33903  17.181  22.089   3.813
61479W        W33904  42.802   9.783  14.857
61480W        W33905  32.026  25.113  12.900
61481W        W33906  15.720  20.165   2.209
61482W        W33907  31.598  31.018   2.842
61483W        W33908  22.609   5.733  12.082
61484W        W33909  31.475  27.662   0.276
61485W        W33910  11.623  22.036  14.501
61486W        W33911  32.569  15.609   4.323
61487W        W33912  27.632  39.039  12.944
61488W        W33913   3.886  16.201   4.788
61489W        W33914  24.097  10.740   9.965
61490W        W33915  44.810  23.655  13.977
61491W        W33916  24.594  33.438  13.835
61492W        W33917  11.313  29.987   0.260
61493W        W33918  32.974  37.538  13.987
61494W        W33919  37.374  37.361   1.371
61495W        W33920  29.670  37.523   1.926
61496W        W33921  43.414  10.250   3.153
61497W        W33922  41.346  19.574  10.529
61498W        W33923   8.313   3.430   4.345
61499W        W33924  38.920  12.312  14.955
61500W        W33925   8.668  37.427   2.343
61501W        W33926  38.361   2.279   3.739
61502W        W33927   9.352   7.697   0.733
61503W        W33928  44.823  44.280   4.801
61504W        W33929  28.083  23.120  12.042
61505W        W33930  23.082  25.660   2.745
61506W        W33931  26.113  31.958  13.876
61507W        W33932   0.881  20.246  11.007
61508W        W33933  17.630  35.521   1.319
61509W        W33934  27.998  38.499   1.874
61510W        W33935  39.034   9.178   5.249
61511W        W33936   6.745   4.400  14.954
61512W        W33937  36.918   5.814  14.452
61513W        W33938   0.900  28.063  11.003
61514W        W33939  29.527  21.123  14.500
61515W        W33940  29.047   1.356  12.566
61516W        W33941  29.957   2.329   0.905
61517W        W33942  21.196  14.263  11.448
61518W        W33943  43.019   9.747   3.384
61519W        W33944  21.221   7.665  12.339
61520W        W33945   3.321  18.081  13.466
61521W        W33946  21.757  27.054  11.371
61522W        W33947  18.179  14.250   4.236
61523W        W33948  18.583  14.094  12.063
61524W        W33949  13.812  42.478  11.862
61525W        W33950  14.294  44.415  13.877
61526W        W33951   9.724   8.383   0.390
61527W        W33952  39.813  13.747  12.389
61528W        W33953  31.067  38.003  12.579
61529W        W33954  24.547   7.695   3.666
61530W        W33955  44.362  31.087  12.473
61531W        W33956  36.354  37.552   5.266
61532W        W33957  26.015   0.916   4.149
61533W        W33958  25.049  10.747   4.605
61534W        W33959  35.425  20.168  11.599
61535W        W33960  42.282   9.389  11.863
61536W        W33961   1.797   7.243   0.317
61537W        W33962  43.381  21.245  14.328
61538W        W33963  38.502  23.570   4.173
61539W        W33964  10.288  22.052   4.236
61540W        W33965  33.925  21.616   3.678
61541W        W33966  17.687  16.287   1.306
61542W        W33967  29.435  12.812   3.340
61543W        W33968   9.754  43.436   0.431
61544W        W33969  39.400  27.998  14.761
61545W        W33970   0.966  35.092  11.903
61546W        W33971   2.338  44.754   1.253
61547W        W33972  35.042   0.327  14.437
61548W        W33973   2.862  34.963  10.536
61549W        W33974   9.661   1.866  11.416
61550W        W33975   1.449  31.610  13.331
61551W        W33976  12.233  15.756   2.285
61552W        W33977  33.607  17.799   3.648
61553W        W33978   7.875  38.827   1.246
61554W        W33979  26.499  19.146  13.918
61555W        W33980  43.855  16.598   2.861
61556W        W33981  22.200  41.886   0.910
61557W        W33982  38.034  10.829   2.870
61558W        W33983  42.294  13.707   3.188
61559W        W33984   5.740  11.861  10.456
61560W        W33985  12.632   7.873  12.490
61561W        W33986  11.786   4.913  12.494
61562W        W33987  15.706  22.209   0.802
61563W        W33988   8.835  20.543   0.391
61564W        W33989  39.942  13.321   4.701
61565W        W33990  26.997  10.375  10.983
61566W        W33991  39.954  29.475   0.418
61567W        W33992  22.701  21.558  11.949
61568W        W33993  33.121  39.028  14.916
61569W        W33994  39.861  20.131   3.776
61570W        W33995  43.984   9.174  10.948
61571W        W33996   3.829  28.982  10.530
61572W        W33997  13.301   7.811  10.461
61573W        W33998  37.503  13.660   3.254
61574W        W33999  37.907  26.594  13.904
61575W        W34000  24.509  31.973  13.447
61576W        W34001  10.338  20.581  13.819
61577W        W34002  10.339  28.048   3.818
61578W        W34003  24.635  23.011  12.569
61579W        W34004  24.486   8.694  13.908
61580W        W34005  25.674  38.917   0.316
61581W        W34006  27.034  16.722   4.791
61582W        W34007  37.004   4.891  14.436
61583W        W34008  40.477  12.806   3.722
61584W        W34009  10.308  37.481   3.761
61585W        W34010  32.405  30.413   2.798
61586W        W34011   4.794  35.927  10.145
61587W        W34012   2.413  42.849   0.473
61588W        W34013  28.559  32.468   3.184
61589W        W34014  36.098   1.277   2.723
61590W        W34015  30.079  40.415   2.293
61591W        W34016  43.928  26.038   4.601
61592W        W34017  16.096  28.040  11.470
61593W        W34018  13.662  41.998  15.000
61594W        W34019  16.096  21.047   4.776
61595W        W34020  26.642   2.465  11.888
61596W        W34021  21.705  24.079   1.914
61597W        W34022  36.959  35.491   1.934
61598W        W34023  36.853  24.163  14.329
61599W        W34024  18.267  33.026  10.472
61600W        W34025  32.091   0.366  12.073
61601W        W34026  21.120   2.812  13.803
61602W        W34027  37.456  33.410   0.274
61603W        W34028  28.082   2.334  11.375
61604W        W34029  11.818  31.915  13.407
61605W        W34030  20.091  28.073   2.328
61606W        W34031  24.599  24.722   1.853
61607W        W34032   7.869  13.343   4.768
61608W        W34033  18.253  26.693  10.032
61609W        W34034  26.585  14.286   1.374
61610W        W34035  14.321   7.352   0.434
61611W        W34036  14.824  19.222  14.376
61612W        W34037  19.585  19.769   3.329
61613W        W34038  18.548  29.171   0.964
61614W        W34039  13.159  18.707  11.540
61615W        W34040  21.601  23.642   1.887
61616W        W34041  44.762  11.786  12.990
61617W        W34042  32.393   5.277   4.183
61618W        W34043  39.967  24.624  11.441
61619W        W34044   5.745  41.411   2.687
61620W        W34045  15.624  32.998  13.334
61621W        W34046  23.700  16.716  13.870
61622W        W34047   1.325  31.066  13.992
61623W        W34048  29.484  26.467   2.186
61624W        W34049  14.148   2.965   2.320
61625W        W34050  28.133  43.789  14.385
61626W        W34051   9.882  41.502  11.019
61627W        W34052  32.554  43.897   4.723
61628W        W34053  22.677  34.558   4.329
61629W        W34054  43.910  42.474  13.939
61630W        W34055   6.237  39.505  11.501
61631W        W34056  41.041  12.194  12.000
61632W        W34057   2.433  26.081   1.730
61633W        W34058  33.916   7.197   2.697
61634W        W34059  40.433   1.347  12.861
61635W        W34060  27.475   6.787   0.894
61636W        W34061  14.161  40.377  13.318
61637W        W34062   9.288  25.477   1.778
61638W        W34063  10.645   9.193   0.895
61639W        W34064  10.165  20.203  10.984
61640W        W34065  28.474  18.763  11.904
61641W        W34066  23.184  33.588   3.200
61642W        W34067  34.386  23.220  12.856
61643W        W34068  36.400  18.587  13.394
61644W        W34069   4.851  23.991   4.308
61645W        W34070   4.862  41.920   2.372
61646W        W34071  41.400   0.412  10.495
61647W        W34072   2.234   9.274   0.817
61648W        W34073  30.111  21.598   3.640
61649W        W34074  30.485  16.692   5.745
61650W        W34075   6.377  13.138   3.246
61651W        W34076  35.969  41.428  12.538
61652W        W34077  39.526  37.556  14.339
61653W        W34078  13.212  21.127   1.702
61654W        W34079  41.828   5.864  12.534
61655W        W34080  40.487  10.636   0.904
61656W        W34081  24.219   4.228  13.318
61657W        W34082  12.152  21.706   2.226
61658W        W34083  18.766  43.438   2.269
61659W        W34084   7.891  33.388  10.078
61660W        W34085  44.002  38.968   3.845
61661W        W34086  17.760  15.294  10.458
61662W        W34087  29.429  37.544  13.365
61663W        W34088  30.052  19.199  13.043
61664W        W34089  13.772   9.763  14.799
61665W        W34090   7.909  39.056   2.743
61666W        W34091   1.759  18.233   4.813
61667W        W34092  16.290  28.034   1.740
61668W        W34093  19.563  22.670  10.491
61669W        W34094  32.974   5.829   1.216
61670W        W34095  41.355  10.644   3.791
61671W        W34096  23.136   4.280  10.975
61672W        W34097  43.937  24.012   2.224
61673W        W34098  34.060  23.024   1.227
61674W        W34099  12.147   0.377   4.718
61675W        W34100   0.283  39.877  11.049
61676W        W34101  14.130   7.729   0.459
61677W        W34102   7.216  11.811   5.131
61678W        W34103  15.791   3.324  13.847
61679W        W34104  19.547  40.470  14.382
61680W        W34105  42.437  25.050   0.901
61681W        W34106   9.330  15.152  13.432
61682W        W34107  12.696  23.627   1.805
61683W        W34108  35.908   7.219  13.939
61684W        W34109  39.430   3.807   3.850
61685W        W34110  23.673   6.362  13.792
61686W        W34111  36.445   6.358   2.271
61687W        W34112  12.329   3.289   3.850
61688W        W34113  10.637  21.110   2.234
61689W        W34114  14.614  11.355  13.525
61690W        W34115  44.428  38.543  14.805
61691W        W34116   4.359   5.809  12.436
61692W        W34117  42.502  37.416  14.030
61693W        W34118  11.760  21.038  10.146
61694W        W34119   5.898  10.815   4.166
61695W        W34120  27.058  22.668   1.829
61696W        W34121   2.276  30.980  11.001
61697W        W34122  31.402   8.237   0.814
61698W        W34123   8.740   0.474  12.580
61699W        W34124   6.425  22.082  11.548
61700W        W34125  15.281  35.997  12.879
61701W        W34126  31.927  36.358  10.614
61702W        W34127  15.202   6.326  10.596
61703W        W34128  17.131   9.187   2.798
61704W        W34129  37.986  38.925  12.396
61705W        W34130  17.723  38.860   2.798
61706W        W34131  34.553  11.818   2.223
61707W        W34132   5.715   5.332  13.360
61708W        W34133  29.057  32.119   1.362
61709W        W34134  33.999  39.857  11.484
61710W        W34135   9.799  20.600   2.859
61711W        W34136  29.967  37.477   3.172
61712W        W34137  30.431  44.273   3.230
61713W        W34138  12.799  42.370  11.554
61714W        W34139  33.009  30.072  13.470
61715W        W34140  38.985  13.662  13.538
61716W        W34141  26.122  21.658   4.322
61717W        W34142  18.225   4.848  11.579
61718W        W34143  35.869  16.232   4.151
61719W        W34144  24.992  20.664   2.750
61720W        W34145   0.274   3.796   1.919
61721W        W34146  27.122  11.696  12.523
61722W        W34147  11.188  18.131  10.535
61723W        W34148  14.610  17.785   4.198
61724W        W34149  33.016  13.325  13.461
61725W        W34150  36.080   7.819  14.016
61726W        W34151  25.558  22.586  10.486
61727W        W34152   7.880  34.944   9.455
61728W        W34153  44.927  16.265  13.480
61729W        W34154  25.622  27.954   5.158
61730W        W34155  23.108  43.860  14.932
61731W        W34156  16.689  14.739  12.512
61732W        W34157  37.977  18.617   1.833
61733W        W34158  13.268  35.033  13.025
61734W        W34159   8.793  29.613   4.615
61735W        W34160  27.023   3.314   0.884
61736W        W34161  22.590   9.381   3.178
61737W        W34162  25.631  13.768   2.231
61738W        W34163  13.677   1.457   0.930
61739W        W34164  27.143  26.100  13.521
61740W        W34165  23.192   0.898  12.860
61741W        W34166  35.375  30.163   2.680
61742W        W34167  32.477  35.985   2.787
61743W        W34168  17.747   8.302  13.390
61744W        W34169  11.210  24.059   3.833
61745W        W34170  17.632  29.091  14.868
61746W        W34171  40.350  18.096  14.387
61747W        W34172  36.080  33.478  11.477
61748W        W34173  39.949  34.926  14.922
61749W        W34174  10.254  35.066  11.547
61750W        W34175  25.971   1.375  11.466
61751W        W34176   3.222  44.453   9.941
61752W        W34177  44.854   3.390   0.457
61753W        W34178  37.001  39.457  13.818
61754W        W34179  11.863  20.148   1.448
61755W        W34180   2.340   2.820  13.888
61756W        W34181   4.385   1.251  14.515
61757W        W34182  17.631   3.861   4.317
61758W        W34183  15.154  30.559   2.260
61759W        W34184  24.007  35.368   1.725
61760W        W34185   8.856  32.411   3.255
61761W        W34186  41.515  16.123  12.554
61762W        W34187  20.598  21.576  11.124
61763W        W34188  12.332  37.948  13.801
61764W        W34189  13.154  13.750   0.302
61765W        W34190  35.896  40.859   3.868
61766W        W34191  38.868  30.090   0.255
61767W        W34192  40.492  20.646   0.463
61768W        W34193  23.715  28.076  13.873
61769W        W34194  24.565  15.732   2.696
61770W        W34195  40.358  17.246  14.923
61771W        W34196  43.514  36.898   2.412
61772W        W34197  14.261  12.177   0.892
61773W        W34198   4.886  42.416   2.899
61774W        W34199  13.317  26.462  10.111
61775W        W34200  36.577  23.087   9.639
61776W        W34201  14.749  11.132  14.465
61777W        W34202  39.419  16.149   0.437
61778W        W34203  20.041  24.602   1.251
61779W        W34204  34.049  27.515  14.501
61780W        W34205  20.033  13.840  11.980
61781W        W34206  31.481   7.249   0.915
61782W        W34207   1.815  39.915   0.313
61783W        W34208  24.557  40.983  14.348
61784W        W34209   2.248  31.412  13.046
61785W        W34210  25.583   8.874   1.928
61786W        W34211  13.844  27.633  14.907
61787W        W34212  37.879  14.781  13.394
61788W        W34213  11.183   8.873  13.957
61789W        W34214  37.451  32.926  11.020
61790W        W34215  35.474  26.594   1.783
61791W        W34216  37.349  18.063  10.480
61792W        W34217  19.729  12.676   3.735
61793W        W34218  27.983  19.119  11.059
61794W        W34219  19.706  27.960   4.800
61795W        W34220  27.472   0.969  10.549
61796W        W34221  37.990   9.721   3.721
61797W        W34222  37.558  27.029   0.309
61798W        W34223  27.197  36.551   1.355
61799W        W34224  25.963  35.558  11.385
61800W        W34225   3.760  14.159  12.848
61801W        W34226   1.403  37.880   4.243
61802W        W34227  35.018  23.532  11.996
61803W        W34228  21.718   8.361   5.258
61804W        W34229  10.873   9.285   3.158
61805W        W34230   2.388  19.584   1.751
61806W        W34231  43.996  23.529   0.926
61807W        W34232  19.215  41.459   3.336
61808W        W34233  34.996  25.179   1.417
61809W        W34234  26.637  11.254  10.010
61810W        W34235  43.012  31.100  12.005
61811W        W34236  24.136   5.911  11.122
61812W        W34237  34.401  30.503  14.277
61813W        W34238  17.139   7.238  14.969
61814W        W34239   7.324  23.121  11.894
61815W        W34240  20.081  19.160  11.600
61816W        W34241  44.359  25.992  14.888
61817W        W34242   5.741  31.540  13.867
61818W        W34243  17.792  24.565  13.028
61819W        W34244  10.831  29.432  11.522
61820W        W34245  32.543  23.004  13.034
61821W        W34246  39.055  37.854  12.558
61822W        W34247   9.838  13.664  11.500
61823W        W34248  23.129  40.864  12.481
61824W        W34249  29.958  18.234  13.933
61825W        W34250  10.321  29.007   0.474
61826W        W34251  18.175  38.516  10.531
61827W        W34252  13.241  29.127   0.374
61828W        W34253  26.163  28.124   0.776
61829W        W34254  14.149  29.605  12.061
61830W        W34255  42.829   7.178  10.046
61831W        W34256   4.918  11.252  12.507
61832W        W34257  17.735  10.257   1.812
61833W        W34258   8.656   9.717  10.409
61834W        W34259   2.768  36.590   3.308
61835W        W34260  36.453  24.711   2.220
61836W        W34261  42.939  18.780  14.473
61837W        W34262  18.158   9.754   4.663
61838W        W34263  29.007   8.706  12.077
61839W        W34264  39.315  27.522   0.902
61840W        W34265  20.683   3.759   4.285
61841W        W34266   2.827  34.062  10.572
61842W        W34267   0.333  23.119  11.579
61843W        W34268  14.166   4.723  10.904
61844W        W34269  29.539  20.526  11.077
61845W        W34270  28.083  24.673  12.422
61846W        W34271  23.707  27.063   2.676
61847W        W34272  14.758  44.855  13.514
61848W        W34273  42.990   6.839  11.882
61849W        W34274  38.522   0.385   1.276
61850W        W34275  32.067  40.911  11.564
61851W        W34276  26.618  44.817   2.831
61852W        W34277  18.590   7.271   3.779
61853W        W34278  22.152  26.021  11.958
61854W        W34279  34.426   0.820  10.593
61855W        W34280  36.875  36.896  12.084
61856W        W34281   5.875  28.114   3.304
61857W        W34282  38.856  37.070  12.977
61858W        W34283  30.552   2.926   1.908
61859W        W34284  25.552  17.203  14.456
61860W        W34285  44.947   5.737  13.539
61861W        W34286   2.768   5.333  14.332
61862W        W34287  19.233  14.804   3.159
61863W        W34288  26.994   2.851   1.334
61864W        W34289   0.319  37.064   4.608
61865W        W34290  36.849  20.534  12.360
61866W        W34291   4.717   7.802  12.096
61867W        W34292  30.507  41.021   4.291
61868W        W34293  15.174  35.029   2.344
61869W        W34294  29.645   1.975  14.406
61870W        W34295  18.680  35.911  13.457
61871W        W34296  43.433  13.745   2.885
61872W        W34297   7.298  26.136   0.911
61873W        W34298  38.405  40.832  11.487
61874W        W34299  16.283   5.244   4.221
61875W        W34300   9.821  22.188   1.914
61876W        W34301   7.262  30.939  12.438
61877W        W34302   9.204  24.531  14.339
61878W        W34303  33.440  10.186  14.324
61879W        W34304  17.111  18.638   3.723
61880W        W34305  18.289   2.245   0.900
61881W        W34306  20.246  28.672   1.451
61882W        W34307  32.946  20.614   2.675
61883W        W34308  41.902   1.434  13.356
61884W        W34309   3.952  41.420   1.218
61885W        W34310  22.505   1.454  12.341
61886W        W34311  20.109  29.936  14.015
61887W        W34312  42.373  10.381   3.327
61888W        W34313  35.515  31.543   2.268
61889W        W34314  15.634   4.722  13.500
61890W        W34315  41.860  18.619   1.283
61891W        W34316  22.518  20.689  11.908
61892W        W34317  13.753   8.232  13.000
61893W        W34318  26.488  40.839  10.920
61894W        W34319  22.196   3.776   0.877
61895W        W34320  39.847  14.688  11.981
61896W        W34321  24.119   7.767  14.824
61897W        W34322   0.424   8.238   1.210
61898W        W34323  42.310  20.690   1.434
61899W        W34324  34.956  20.070   4.812
61900W        W34325  27.589  26.630   4.613
61901W        W34326   6.320   9.371  11.966
61902W        W34327  37.903  24.988   1.912
61903W        W34328  10.236   5.740   2.395
61904W        W34329  25.655   9.747  11.507
61905W        W34330  34.524  20.254  11.894
61906W        W34331  22.166   9.288   5.223
61907W        W34332  43.499  10.720  11.098
61908W        W34333  22.565  34.917   2.358
61909W        W34334  14.286  18.559  13.363
61910W        W34335  12.710   1.841  13.535
61911W        W34336  38.422  25.034  11.422
61912W        W34337  35.446  42.796  11.546
61913W        W34338  39.930   2.409   2.317
61914W        W34339  42.360   5.396  14.959
61915W        W34340  31.432   5.293  13.330
61916W        W34341  25.601  31.433   4.219
61917W        W34342  21.661  33.623  12.998
61918W        W34343  34.023  15.782  14.481
61919W        W34344  29.918  29.448  11.499
61920W        W34345  15.782  15.229  10.510
61921W        W34346  19.039  11.250   1.844
61922W        W34347  38.880  22.239   1.788
61923W        W34348  32.903  24.025   4.200
61924W        W34349  21.564   3.848  13.315
61925W        W34350   8.206   8.885   5.701
61926W        W34351  19.271  32.470   1.750
61927W        W34352  21.598  35.023   4.199
61928W        W34353  36.437  20.706   2.307
61929W        W34354  35.104  17.261   5.202
61930W        W34355  30.623  30.557  10.574
61931W        W34356  12.819  30.969   5.156
61932W        W34357  30.012  40.982  12.928
61933W        W34358  23.196  26.112   0.301
61934W        W34359   1.246   8.372  12.017
61935W        W34360  42.342  29.995   4.794
61936W        W34361   0.389  23.539   0.469
61937W        W34362  44.779  21.108  11.506
61938W        W34363   1.850  26.095  12.386
61939W        W34364  32.923   7.377   3.167
61940W        W34365  29.983  25.677  10.521
61941W        W34366   9.384  30.649   0.286
61942W        W34367  34.412  36.975   1.701
61943W        W34368   7.203  26.585   3.835
61944W        W34369  22.062  11.158  12.482
61945W        W34370  14.228  30.644  13.989
61946W        W34371  13.123  18.628   0.326
61947W        W34372  15.314  30.621  12.384
61948W        W34373  23.036  18.068   2.178
61949W        W34374  25.143  13.275   3.285
61950W        W34375  25.161  18.751   1.823
61951W        W34376  10.633  10.723   3.783
61952W        W34377   3.216  36.526   4.237
61953W        W34378   8.181  34.111   2.748
61954W        W34379  10.319   7.242   4.346
61955W        W34380   8.686  37.427   3.638
61956W        W34381  13.836  19.210   1.717
61957W        W34382   3.376  19.210  11.523
61958W        W34383   6.302  41.465   1.301
61959W        W34384  24.088  13.781  12.948
61960W        W34385  28.490  38.057   1.778
61961W        W34386  25.477  16.282   4.295
61962W        W34387  42.852  17.737   3.217
61963W        W34388   7.831   5.412  14.366
61964W        W34389  26.951  31.940   0.440
61965W        W34390  43.000   6.732  12.343
61966W        W34391  22.012  32.612  13.840
61967W        W34392   9.646  14.214   1.431
61968W        W34393  28.015  13.622   1.873
61969W        W34394  35.489   9.253   4.296
61970W        W34395  43.941  36.522  14.337
61971W        W34396   8.778  41.817   2.689
61972W        W34397  15.180  22.528   4.164
61973W        W34398   3.875  18.591   3.694
61974W        W34399  32.128  20.193   2.880
61975W        W34400  20.228  15.242  13.474
61976W        W34401   1.976  44.352  13.995
61977W        W34402  29.553  43.472  11.577
61978W        W34403  10.355  44.891   1.304
61979W        W34404  38.884   9.776   0.339
61980W        W34405  30.110  27.468  11.085
61981W        W34406  17.243  35.917   2.769
61982W        W34407  18.641  11.789  10.986
61983W        W34408  12.727   5.388  12.531
61984W        W34409  16.233  23.049  11.887
61985W        W34410  18.139  40.026  11.375
61986W        W34411   2.728   0.344  14.336
61987W        W34412  31.075  16.298   1.885
61988W        W34413   6.189  16.206  13.046
61989W        W34414  35.429   9.268   0.760
61990W        W34415  37.490  42.427   3.838
61991W        W34416   1.968  38.962   1.234
61992W        W34417  23.152  37.404  10.484
61993W        W34418  35.866   4.832  12.415
61994W        W34419  22.747  27.446  14.762
61995W        W34420  39.983  15.610  11.992
61996W        W34421  32.103  15.297  12.569
61997W        W34422   6.215  37.350   1.779
61998W        W34423  39.007  33.984  13.063
61999W        W34424   0.282   7.190  13.869
62000W        W34425  30.425  16.251   0.846
62001W        W34426  22.046  20.764   0.304
62002W        W34427  39.891  15.240   4.187
62003W        W34428  31.922  14.256   0.904
62004W        W34429  40.858  19.665  12.919
62005W        W34430  37.480  27.049  10.632
62006W        W34431   5.872  19.566  10.644
62007W        W34432  41.033  33.927  11.418
62008W        W34433  12.333  30.975  11.581
62009W        W34434  16.573   9.184   4.220
62010W        W34435  23.195   8.856  14.017
62011W        W34436  24.534  20.253   4.340
62012W        W34437  16.612  24.174  12.958
62013W        W34438  29.968  35.438   0.780
62014W        W34439  33.952  22.060  10.961
62015W        W34440  16.199  20.609   0.334
62016W        W34441   7.247  42.992   5.117
62017W        W34442  39.330  31.433   1.370
62018W        W34443  11.340  14.104  13.929
62019W        W34444   7.259   6.404  14.793
62020W        W34445  35.965   8.268   4.654
62021W        W34446  28.977  14.729   4.610
62022W        W34447   1.744  43.832  13.861
62023W        W34448   6.227  40.365  14.008
62024W        W34449  22.237  37.940   1.353
62025W        W34450   4.266  15.786  12.368
62026W        W34451  21.138  12.763   3.167
62027W        W34452  40.820  29.116  12.086
62028W        W34453  21.042  17.759   2.345
62029W        W34454  35.070   7.416   3.181
62030W        W34455  10.839   4.778  12.437
62031W        W34456  38.560  41.303   3.762
62032W        W34457  32.022  40.355  10.644
62033W        W34458   7.684  17.122  11.049
62034W        W34459  44.427  13.294   0.797
62035W        W34460  42.940  38.463   2.238
62036W        W34461  16.286  33.989   0.873
62037W        W34462  19.694  20.214   1.280
62038W        W34463  38.392  12.789  14.379
62039W        W34464  37.502  17.571   1.921
62040W        W34465  25.068  11.130   2.412
62041W        W34466  15.765   1.391   0.365
62042W        W34467  19.768  23.555  11.874
62043W        W34468   4.919  13.304  13.546
62044W        W34469  11.688  15.106   1.434
62045W        W34470  29.539  39.995   4.294
62046W        W34471  20.524  18.085   1.314
62047W        W34472  20.267  25.513   1.875
62048W        W34473  22.622  21.197  10.929
62049W        W34474  29.640  31.967   4.315
62050W        W34475   5.732  42.413   2.751
62051W        W34476  24.504   6.868   0.908
62052W        W34477  18.597  24.563  14.901
62053W        W34478   6.758  11.172   3.762
62054W        W34479   3.747  38.404   0.770
62055W        W34480  14.755  42.999   1.701
62056W        W34481   5.249   1.267  10.622
62057W        W34482  31.931  19.645  11.866
62058W        W34483   6.375  35.380  11.543
62059W        W34484   0.965  28.508  11.109
62060W        W34485  22.164  22.222  13.885
62061W        W34486  22.520  14.828   4.266
62062W        W34487   4.259  20.121  10.591
62063W        W34488  20.158  17.299  14.815
62064W        W34489  18.265  25.040   3.701
62065W        W34490   6.353  11.633   0.966
62066W        W34491  31.609  27.161  12.537
62067W        W34492   2.878  41.354   4.739
62068W        W34493   2.807  21.252   4.734
62069W        W34494   1.250  28.966   4.278
62070W        W34495  22.704  14.259  12.443
62071W        W34496   8.696  10.171   0.758
62072W        W34497  17.132  21.153   1.917
62073W        W34498  24.221  38.001   4.242
62074W        W34499   7.755  29.442   4.627
62075W        W34500   8.345  43.290  14.289
62076W        W34501  14.795  12.645  13.927
62077W        W34502  27.026  27.512   2.402
62078W        W34503  30.451  29.928  11.373
62079W        W34504  28.054  23.022  12.823
62080W        W34505  29.669  33.491  10.561
62081W        W34506  15.330  35.589  14.505
62082W        W34507  35.409  14.755  12.094
62083W        W34508   1.446  28.540   3.643
62084W        W34509  38.031  12.270  10.912
62085W        W34510  29.955  42.472  13.839
62086W        W34511  16.629  22.554   1.238
62087W        W34512  20.231   0.318   0.306
62088W        W34513  28.516   5.424  12.485
62089W        W34514  38.332  24.186   9.536
62090W        W34515  10.264  13.633   4.610
62091W        W34516   9.710  40.489  12.499
62092W        W34517  41.821  18.264   2.880
62093W        W34518   2.908  33.567  11.025
62094W        W34519  13.293  38.983   4.218
62095W        W34520  23.212  19.062  12.083
62096W        W34521   2.250  36.475  10.636
62097W        W34522  39.978  38.057  11.511
62098W        W34523  33.874  41.509  12.923
62099W        W34524  29.600  33.516   1.363
62100W        W34525  22.706  38.975   4.762
62101W        W34526  34.972  18.545  13.529
62102W        W34527  40.963  31.046   2.887
62103W        W34528  12.334  37.941  13.329
62104W        W34529  36.402  42.452   0.336
62105W        W34530  36.910   5.918  10.549
62106W        W34531  13.726  24.984   0.771
62107W        W34532  44.857  38.430  10.889
62108W        W34533  34.050  17.143   9.953
62109W        W34534   5.282  44.310  14.032
62110W        W34535  40.537  40.823   2.326
62111W        W34536  13.330  34.898   3.715
62112W        W34537  28.642  41.915  11.906
62113W        W34538  43.315   3.366   2.678
62114W        W34539  15.587  30.161   4.615
62115W        W34540  38.054  10.737  11.599
62116W        W34541  17.741  32.399   3.768
62117W        W34542   7.365  17.740   1.373
62118W        W34543  37.869  14.781   2.249
62119W        W34544  19.548  28.079   3.828
62120W        W34545  12.774  34.491   4.153
62121W        W34546  18.553   2.727  13.392
62122W        W34547   3.843   2.879   0.794
62123W        W34548   1.780  23.521  14.382
62124W        W34549   3.794   0.803  12.389
62125W        W34550  44.341  22.033  13.442
62126W        W34551   4.788  33.433  13.319
62127W        W34552  27.589  28.160  13.487
62128W        W34553   8.199  15.230   3.163
62129W        W34554  24.693  24.980  12.411
62130W        W34555  33.092   9.778   2.219
62131W        W34556  20.048   1.945   0.450
62132W        W34557  38.070   3.732  13.393
62133W        W34558  11.369  14.733  13.855
62134W        W34559  32.886  24.077   2.197
62135W        W34560  44.282  18.694  14.021
62136W        W34561   3.740  28.159   1.353
62137W        W34562  42.804  36.436   0.341
62138W        W34563  43.348  34.002   4.739
62139W        W34564  40.349  10.370  11.552
62140W        W34565  36.587   1.303   2.761
62141W        W34566   2.826  40.820  13.801
62142W        W34567  29.997   2.809  14.479
62143W        W34568  33.114  35.006   1.313
62144W        W34569   1.813  39.935   2.409
62145W        W34570  28.490  43.269  13.421
62146W        W34571  39.913   4.793  11.092
62147W        W34572   3.452  12.649   2.818
62148W        W34573  23.073  40.327   1.399
62149W        W34574  38.038  39.319  14.462
62150W        W34575  17.610  25.095  11.052
62151W        W34576   8.306  17.213   3.640
62152W        W34577  14.713  29.024  12.914
62153W        W34578   1.371  29.495  13.539
62154W        W34579  23.017  14.688  11.034
62155W        W34580   9.823   6.923  10.458
62156W        W34581   5.396   8.722   1.842
62157W        W34582  19.236   1.773  11.463
62158W        W34583  25.985  25.108  12.895
62159W        W34584  25.206   9.180  11.075
62160W        W34585  26.518  17.772   0.415
62161W        W34586   9.369  38.442   1.757
62162W        W34587   9.244   8.260   4.287
62163W        W34588  41.026  39.814   4.625
62164W        W34589   8.218  37.879   5.152
62165W        W34590  37.885  30.513  11.862
62166W        W34591  25.652  37.038   2.221
62167W        W34592  44.332  31.581  14.386
62168W        W34593  14.320  38.936  12.895
62169W        W34594  17.771  17.264   0.384
62170W        W34595  33.457  19.235  12.402
62171W        W34596   0.374   8.871   3.655
62172W        W34597  21.691   3.330  12.966
62173W        W34598  10.659  16.703   0.252
62174W        W34599  20.554  19.117  11.068
62175W        W34600   7.764  24.505   3.632
62176W        W34601  29.452  39.958  14.442
62177W        W34602   3.757  39.842   4.749
62178W        W34603  21.204  23.695  11.922
62179W        W34604   5.311  40.323  14.497
62180W        W34605   2.721   9.202  13.808
62181W        W34606   4.831   1.912   2.802
62182W        W34607  22.622   0.329   1.312
62183W        W34608  19.602  43.345  13.895
62184W        W34609  43.353  44.450   3.233
62185W        W34610  32.584  29.045   0.324
62186W        W34611  40.308  38.022  14.775
62187W        W34612  27.163   7.214  13.882
62188W        W34613  29.605  11.643  10.152
62189W        W34614   8.818  14.821  12.568
62190W        W34615  13.342  14.740  14.911
62191W        W34616  30.521  19.148   5.131
62192W        W34617   4.841   8.234   1.745
62193W        W34618  33.096  18.687   0.385
62194W        W34619  17.592  35.977   1.838
62195W        W34620  14.113  44.870  11.882
62196W        W34621   4.355  23.711  12.477
62197W        W34622  11.757   9.289   1.331
62198W        W34623   9.664  37.472  12.527
62199W        W34624  40.040  31.115   0.838
62200W        W34625  14.832  19.722  10.410
62201W        W34626  11.652  35.412  13.463
62202W        W34627  34.921  12.351  11.001
62203W        W34628   5.291  32.065   0.942
62204W        W34629   0.333  44.957  11.534
62205W        W34630  11.238  13.701  14.396
62206W        W34631  43.881   2.778   1.881
62207W        W34632  31.404  37.566   3.237
62208W        W34633  23.017  36.374  12.845
62209W        W34634  15.176  21.577  14.873
62210W        W34635  34.519  41.488  10.999
62211W        W34636  43.286  20.127  10.515
62212W        W34637  19.675   8.264  11.026
62213W        W34638  24.027  44.311   5.154
62214W        W34639  43.018  21.077  11.887
62215W        W34640  26.665  13.641   0.300
62216W        W34641   5.726  16.242  14.314
62217W        W34642  42.882   8.379  14.906
62218W        W34643  29.922  36.912  10.982
62219W        W34644   9.188   4.792  10.083
62220W        W34645   0.417  19.629  10.895
62221W        W34646  40.381  32.599   2.892
62222W        W34647  40.347  26.602  11.538
62223W        W34648  14.116  13.259   0.863
62224W        W34649  18.727  41.001   0.272
62225W        W34650   0.937   2.274  10.471
62226W        W34651  28.462  10.642   1.935
62227W        W34652  25.128  15.720  10.433
62228W        W34653  25.604   8.255  12.085
62229W        W34654  30.045  44.989  12.390
62230W        W34655  36.514  13.219  14.305
62231W        W34656  25.497  26.636  12.428
62232W        W34657   5.808  43.816   4.271
62233W        W34658  35.554   3.345   5.094
62234W        W34659   4.818   4.836  12.042
62235W        W34660  21.523  37.843  10.615
62236W        W34661  26.049   6.299   4.831
62237W        W34662  15.108  30.979   1.695
62238W        W34663  40.516  39.353  14.356
62239W        W34664  34.893  35.917   4.601
62240W        W34665  29.470   1.874  12.566
62241W        W34666  35.985   0.478  10.507
62242W        W34667  28.980  27.636  12.416
62243W        W34668  30.536  31.540  11.994
62244W        W34669  18.261   7.218   0.266
62245W        W34670  10.205  26.126   1.792
62246W        W34671  43.770  14.163  12.478
62247W        W34672  40.311  42.809  13.330
62248W        W34673  17.076   3.888   2.311
62249W        W34674  25.572   8.714   0.828
62250W        W34675   2.889   3.378  14.981
62251W        W34676  34.578  37.387  14.919
62252W        W34677  33.391  32.888   0.424
62253W        W34678  22.576  10.866  14.782
62254W        W34679  23.684  41.300  12.392
62255W        W34680  27.674  16.603   3.805
62256W        W34681  28.010   7.371   3.702
62257W        W34682   5.378  35.539   1.742
62258W        W34683  14.138  17.616  10.509
62259W        W34684  27.651  33.558  12.403
62260W        W34685  12.655  18.287   3.254
62261W        W34686  11.261  36.844   4.656
62262W        W34687  27.549  30.922   0.817
62263W        W34688  19.055   6.764   4.184
62264W        W34689  34.970  26.958  10.507
62265W        W34690  30.497  32.617   0.964
62266W        W34691  10.268  12.121  10.451
62267W        W34692  40.980  28.574   3.758
62268W        W34693  27.518  41.923  14.975
62269W        W34694  23.568  31.919   1.878
62270W        W34695   0.896  22.611   4.343
62271W        W34696  33.384  32.439   4.205
62272W        W34697  28.461  40.041   3.708
62273W        W34698  24.706  23.225   4.632
62274W        W34699  44.875  17.722   4.673
62275W        W34700   4.803  40.326   1.257
62276W        W34701   9.821  37.451   1.825
62277W        W34702  21.731   8.400   1.236
62278W        W34703   2.470  25.532  12.540
62279W        W34704  32.139  19.575  14.856
62280W        W34705  35.371  30.463  10.645
62281W        W34706  16.198  10.263   0.286
62282W        W34707  13.699  30.060   1.834
62283W        W34708  44.502  33.403   0.753
62284W        W34709   4.925  34.407   9.958
62285W        W34710   7.302  40.952   1.782
62286W        W34711  25.612  34.457   0.377
62287W        W34712  25.114   0.276  10.990
62288W        W34713   2.728  38.894  10.611
62289W        W34714  24.672  22.682  11.581
62290W        W34715  33.412  29.442  14.811
62291W        W34716  20.652  29.101  13.037
62292W        W34717  28.532  44.825  13.509
62293W        W34718   0.485  18.740  13.422
62294W        W34719  18.665  39.551  12.383
62295W        W34720  19.145  17.577   0.963
62296W        W34721  24.125   8.855  10.916
62297W        W34722  25.485  15.189   0.320
62298W        W34723  19.690   2.920   3.688
62299W        W34724  43.964  41.385   1.828
62300W        W34725  18.769  26.523  12.957
62301W        W34726   4.234   0.834   4.335
62302W        W34727  35.584  27.638   3.313
62303W        W34728  10.310  15.111  13.848
62304W        W34729  44.328   8.309   1.860
62305W        W34730  33.516  23.024   2.309
62306W        W34731  32.990  34.407  11.436
62307W        W34732  25.120  22.686  11.001
62308W        W34733   6.833  29.076  11.425
62309W        W34734  20.571  39.065   4.264
62310W        W34735   0.798   4.763  12.545
62311W        W34736  30.123  44.304   4.252
62312W        W34737  21.566  44.977   4.146
62313W        W34738  22.110  39.980  11.888
62314W        W34739  42.486   7.728   1.931
62315W        W34740  11.146  10.710  14.899
62316W        W34741  26.513   0.433  11.957
62317W        W34742  36.349  26.583   2.671
62318W        W34743  31.496   3.223   2.401
62319W        W34744  13.217  37.854  12.515
62320W        W34745  38.862   8.727  14.938
62321W        W34746  23.722   8.182  10.464
62322W        W34747   4.740  19.633   3.844
62323W        W34748  36.037  34.996  13.945
62324W        W34749  44.005  21.238  14.316
62325W        W34750  33.991  12.615  11.076
62326W        W34751   5.238  32.055   1.830
62327W        W34752   4.249  30.096  13.843
62328W        W34753  10.207  15.309  11.468
62329W        W34754  33.099  20.098  10.585
62330W        W34755  32.005  29.007   0.246
62331W        W34756  16.268  41.961   1.855
62332W        W34757  34.074  35.880  10.464
62333W        W34758   9.780   9.675   4.231
62334W        W34759  13.351  34.876  14.383
62335W        W34760  23.004  36.891   3.245
62336W        W34761  27.142  10.151   3.688
62337W        W34762  33.037   3.339   4.608
62338W        W34763   9.654  42.291  14.413
62339W        W34764  36.009  13.765   4.339
62340W        W34765  15.100  18.081   2.249
62341W        W34766  27.575  30.597   5.163
62342W        W34767  17.761   1.884   0.945
62343W        W34768  21.747  42.455   0.247
62344W        W34769  10.276  32.470   4.699
62345W        W34770  30.523  37.066  10.967
62346W        W34771  25.002  35.576  10.978
62347W        W34772  14.639  18.621  12.366
62348W        W34773  41.993   3.353  10.575
62349W        W34774  16.247  19.135  13.925
62350W        W34775  39.329  35.445  12.028
62351W        W34776  36.011  24.144  11.915
62352W        W34777  34.440  19.644   3.698
62353W        W34778  30.111   2.727  12.885
62354W        W34779  26.124  10.311  12.504
62355W        W34780  34.097  18.621   1.419
62356W        W34781  35.505  44.439  13.369
62357W        W34782   8.889  31.434  11.020
62358W        W34783  38.437   9.853   0.420
62359W        W34784  22.146  21.199   4.776
62360W        W34785  35.084   1.470  10.496
62361W        W34786  43.487   0.864  13.813
62362W        W34787  22.079   9.826   1.435
62363W        W34788   5.708  28.158   2.777
62364W        W34789  26.476  32.997   4.604
62365W        W34790  39.010  14.692  13.410
62366W        W34791   6.318  24.561   1.445
62367W        W34792  34.896  31.906  10.939
62368W        W34793   6.736  14.767   0.750
62369W        W34794  12.126  33.523   0.468
62370W        W34795  20.768  14.809   1.722
62371W        W34796   1.470  24.560   3.233
62372W        W34797  14.833  31.642   0.881
62373W        W34798  28.448   5.431  11.952
62374W        W34799   9.272   4.848  13.994
62375W        W34800   9.761  10.817  10.436
62376W        W34801  34.608  43.341   1.805
62377W        W34802  44.329  25.601   1.300
62378W        W34803  32.887   9.249  12.382
62379W        W34804  29.652  34.106   2.369
62380W        W34805  23.532  24.639   1.368
62381W        W34806  39.842  25.110   1.335
62382W        W34807  18.699  32.431  13.975
62383W        W34808  41.975   1.815   0.844
62384W        W34809   2.471  29.066  14.415
62385W        W34810  21.048  24.061   1.905
62386W        W34811  14.218  23.631  12.980
62387W        W34812  39.534   1.811   2.324
62388W        W34813  25.542  32.032  10.102
62389W        W34814   2.835  22.548   1.820
62390W        W34815   7.329   5.362   3.667
62391W        W34816  36.937   0.755   1.246
62392W        W34817  38.025   9.742  10.589
62393W        W34818  25.147  29.086  12.863
62394W        W34819  26.083  17.669  13.418
62395W        W34820   7.242   7.181   3.682
62396W        W34821   7.684   1.794   3.199
62397W        W34822  17.592  41.961   3.165
62398W        W34823  16.179  23.016   2.399
62399W        W34824  15.305  43.922  12.516
62400W        W34825  26.567  43.358  13.892
62401W        W34826  32.576  34.387  11.036
62402W        W34827  42.991  30.616   4.210
62403W        W34828  32.522  34.945  13.819
62404W        W34829  34.612  42.952   1.279
62405W        W34830  15.188  28.039   2.286
62406W        W34831  44.881  32.469  12.398
62407W        W34832  28.152  18.228  12.461
62408W        W34833  13.352  33.114  10.623
62409W        W34834  14.146  40.824   3.185
62410W        W34835   1.919  18.653  13.034
62411W        W34836  33.574   0.480  13.017
62412W        W34837  23.131  18.568  10.542
62413W        W34838  37.476  13.624  10.954
62414W        W34839  35.935   8.384   1.831
62415W        W34840  41.822  38.350  11.476
62416W        W34841  44.483   8.856   3.869
62417W        W34842  17.086  33.107   3.695
62418W        W34843   3.893   1.360   0.379
62419W        W34844  20.243  31.568   4.715
62420W        W34845  40.485  37.379   9.947
62421W        W34846   8.745  23.638  12.860
62422W        W34847  31.414  17.181   0.949
62423W        W34848  26.616   5.932   4.353
62424W        W34849  43.776  21.600   4.194
62425W        W34850  28.469  33.882  10.991
62426W        W34851  41.394   1.357  11.461
62427W        W34852  39.471  30.650  12.493
62428W        W34853  32.082  44.801  12.536
62429W        W34854  26.150   7.830   0.297
62430W        W34855   4.213  42.895  10.911
62431W        W34856  14.234  35.364   0.297
62432W        W34857  20.033  26.663   0.801
62433W        W34858   1.796  42.447   0.465
62434W        W34859  26.575  14.715  10.922
62435W        W34860  11.354  15.220  13.035
62436W        W34861  17.700  26.701  13.404
62437W        W34862  22.047  27.054   1.289
62438W        W34863  18.791  17.290  11.913
62439W        W34864  32.123  37.005   4.652
62440W        W34865  40.368   7.684   2.671
62441W        W34866  19.652  37.573   4.730
62442W        W34867  31.044   1.806   2.181
62443W        W34868  27.037   3.946  14.995
62444W        W34869  38.557  12.758  13.476
62445W        W34870   7.263  28.623   3.824
62446W        W34871  20.037   8.387  14.301
62447W        W34872  29.651  40.043   3.340
62448W        W34873   4.801  43.379   3.731
62449W        W34874  28.975  19.584   4.793
62450W        W34875   7.876   1.294  12.537
62451W        W34876  28.025   8.712  12.517
62452W        W34877   5.748  36.903  14.984
62453W        W34878  12.808   9.804  10.564
62454W        W34879   2.899  31.581  12.551
62455W        W34880  42.453  31.624   1.387
62456W        W34881  25.999  17.073   0.858
62457W        W34882  24.550  21.586   3.306
62458W        W34883   1.754  30.559   0.246
62459W        W34884   7.881  31.588  10.566
62460W        W34885   2.442  42.327   1.407
62461W        W34886  20.695  12.158   0.743
62462W        W34887  26.563  44.359   4.227
62463W        W34888  12.664  39.853  13.444
62464W        W34889  12.736  19.559   4.141
62465W        W34890  29.647  42.972  10.465
62466W        W34891  30.113  34.602   4.700
62467W        W34892  24.523   5.374  10.482
62468W        W34893   3.401  41.943  13.827
62469W        W34894  29.107   1.259   3.153
62470W        W34895  18.582  19.622  10.471
62471W        W34896  35.951  39.975   3.155
62472W        W34897   9.291  22.612  14.319
62473W        W34898   4.323   7.762   1.412
62474W        W34899  43.825   1.939  14.862
62475W        W34900  26.475  32.003   1.761
62476W        W34901  11.212  27.572  14.837
62477W        W34902  30.595  43.389  10.455
62478W        W34903  38.964   1.385   5.156
62479W        W34904  35.905  28.978  12.544
62480W        W34905  19.575  34.413   3.699
62481W        W34906   8.758   8.160   3.199
62482W        W34907  24.081  16.291   1.824
62483W        W34908  31.006   4.750   2.189
62484W        W34909  36.860  42.958   1.337
62485W        W34910  16.080   5.338   3.343
62486W        W34911   7.826  42.804   4.623
62487W        W34912  33.102  26.529   3.717
62488W        W34913   0.978  18.106   0.889
62489W        W34914  31.582  15.088   2.386
62490W        W34915  16.111  28.461   0.773
62491W        W34916  12.356  35.577  13.388
62492W        W34917   9.281  37.966   1.384
62493W        W34918  41.826   2.440   4.802
62494W        W34919  39.915  11.156  10.532
62495W        W34920  40.457  29.957   2.296
62496W        W34921   5.783   6.404   3.229
62497W        W34922  13.148  10.234  10.966
62498W        W34923   2.765  22.669  11.917
62499W        W34924  20.575  37.483   4.222
62500W        W34925   9.763   8.836  13.427
62501W        W34926  37.833  36.057   1.725
62502W        W34927  21.634  19.595  12.002
62503W        W34928  33.981  12.152  14.512
62504W        W34929  21.754  24.498  11.053
62505W        W34930   3.256  40.371  12.916
62506W        W34931  25.968  13.794   2.204
62507W        W34932  25.096   4.925  14.925
62508W        W34933  19.216  16.315   0.347
62509W        W34934  21.723  38.395   1.439
62510W        W34935  41.976  42.928  13.894
62511W        W34936  13.829   5.409  10.457
62512W        W34937  11.288   3.291  12.071
62513W        W34938  37.853  33.549   2.820
62514W        W34939   6.273   4.219  10.933
62515W        W34940  26.152  26.148   1.875
62516W        W34941  43.824  21.065   2.221
62517W        W34942  26.555  41.958   4.183
62518W        W34943  11.267  29.637   4.323
62519W        W34944  18.227  17.162  11.047
62520W        W34945  10.693  43.479  11.493
62521W        W34946  33.029   2.393  13.454
62522W        W34947  36.024   1.766   2.805
62523W        W34948  28.109  22.729  14.013
62524W        W34949  41.531  44.827   2.389
62525W        W34950  16.603  42.791   3.322
62526W        W34951  14.336  21.630   2.700
62527W        W34952  37.512  31.563  12.089
62528W        W34953  27.679  35.434  11.390
62529W        W34954  18.231  10.381  10.426
62530W        W34955   7.411  41.519  11.081
62531W        W34956  19.164  24.666   4.238
62532W        W34957  10.147  25.035  14.318
62533W        W34958  24.153   7.704   2.178
62534W        W34959   0.921  42.325   3.694
62535W        W34960  44.323  25.979  12.936
62536W        W34961  37.957  32.134  11.071
62537W        W34962   4.362   4.866   0.451
62538W        W34963  32.599  38.967   4.602
62539W        W34964  23.604  30.521  13.447
62540W        W34965  39.896  25.146  13.913
62541W        W34966   7.223  34.510   1.849
62542W        W34967  12.626  22.528   4.179
62543W        W34968  12.169  31.522  14.943
62544W        W34969  42.973  15.669   5.240
62545W        W34970  16.810  25.684  11.858
62546W        W34971  12.135   8.747   0.863
62547W        W34972   6.691  39.021  14.939
62548W        W34973  37.376  35.084   2.783
62549W        W34974  14.704  17.727  13.533
62550W        W34975  37.556  11.759   2.323
62551W        W34976  25.005  40.993  13.800
62552W        W34977  34.567  42.027  12.511
62553W        W34978  37.860  11.276   0.408
62554W        W34979  40.354  21.580  14.818
62555W        W34980   0.316  39.491   4.216
62556W        W34981  24.123  26.096   1.790
62557W        W34982  14.259  26.072   2.800
62558W        W34983  43.003  28.540   2.332
62559W        W34984  14.184  36.904  11.984
62560W        W34985   7.912   7.214   5.777
62561W        W34986  25.036   3.739   3.692
62562W        W34987  31.019  13.753   0.418
62563W        W34988  20.632  34.542   2.251
62564W        W34989   2.260  41.326   0.347
62565W        W34990   5.893  20.702   2.815
62566W        W34991  19.608  36.997   4.749
62567W        W34992  22.650  43.375   2.843
62568W        W34993  19.549  33.930  11.889
62569W        W34994  10.334  21.176  11.891
62570W        W34995  14.237   8.212   0.439
62571W        W34996   2.404  16.256   1.366
62572W        W34997  37.542   0.400  12.498
62573W        W34998  18.172  19.563   4.740
62574W        W34999  20.524  34.120  14.900
62575W        W35000   3.393  28.552   0.918
62576W        W35001  23.576  20.540   2.862
62577W        W35002  12.756  11.207   3.704
62578W        W35003   6.809   6.841  12.040
62579W        W35004  26.953  14.742  10.456
62580W        W35005  19.230  11.649  13.497
62581W        W35006  13.797  26.994  12.876
62582W        W35007  37.442  44.467   2.706
62583W        W35008  21.081  42.987   2.200
62584W        W35009  33.964  25.985  10.948
62585W        W35010   4.340  24.510   3.246
62586W        W35011   6.714  17.619   1.864
62587W        W35012   1.413  31.963   1.217
62588W        W35013   9.668  17.798  13.377
62589W        W35014  20.581  25.976  13.949
62590W        W35015  29.541  22.226   0.351
62591W        W35016  41.494  37.022   1.741
62592W        W35017  39.326  28.020   4.680
62593W        W35018  18.180  39.937   0.320
62594W        W35019  26.687  32.081   0.252
62595W        W35020  24.725  11.301   5.261
62596W        W35021  22.733  36.906  13.414
62597W        W35022  17.249  36.009   1.343
62598W        W35023  11.640  17.613  12.445
62599W        W35024  27.042  39.464   3.318
62600W        W35025  28.185  34.895  12.054
62601W        W35026  42.361  41.025   3.237
62602W        W35027  26.181   7.879  12.044
62603W        W35028   6.697   5.804  13.036
62604W        W35029  38.881   9.773   2.294
62605W        W35030  12.238  24.586   5.315
62606W        W35031  12.843  35.971   4.142
62607W        W35032  11.159  33.009  13.484
62608W        W35033  36.419  13.648   3.831
62609W        W35034  15.800   0.273   1.221
62610W        W35035  38.440   5.866   1.737
62611W        W35036  42.916  12.727   4.750
62612W        W35037   0.792   0.820   1.733
62613W        W35038  29.048  44.794   2.225
62614W        W35039  36.389   5.847   1.339
62615W        W35040  31.437  21.111   3.675
62616W        W35041  16.289  25.194   2.365
62617W        W35042  20.569  18.229  14.792
62618W        W35043  30.582  34.459   2.850
62619W        W35044  44.331   5.281   0.381
62620W        W35045  24.603  20.086   1.247
62621W        W35046  19.742  42.941  13.362
62622W        W35047  13.152  31.151   0.884
62623W        W35048   7.396  40.475   0.852
62624W        W35049   8.186   0.849   0.321
62625W        W35050  12.292  42.922  12.910
62626W        W35051  26.568   2.850  10.997
62627W        W35052   2.809  42.431   3.172
62628W        W35053  39.517   5.752  10.631
62629W        W35054  28.011   0.769  12.874
62630W        W35055  17.133  31.941   0.888
62631W        W35056  30.969  23.209  12.375
62632W        W35057  42.851  22.091  13.011
62633W        W35058   8.236   1.845  14.793
62634W        W35059   4.260  34.609   4.783
62635W        W35060  10.823   0.747   2.338
62636W        W35061  16.725  41.798  10.597
62637W        W35062   4.784   0.275  11.024
62638W        W35063   9.193  19.229   2.857
62639W        W35064  35.032  38.500   3.643
62640W        W35065   8.317  36.378  12.060
62641W        W35066  28.567  16.251   3.222
62642W        W35067  26.024   2.721   0.348
62643W        W35068  22.081   0.757   4.758
62644W        W35069  42.816  15.289  12.878
62645W        W35070  14.299  31.413   1.328
62646W        W35071  32.901  35.478  14.765
62647W        W35072   9.727   7.714   2.748
62648W        W35073   8.382  28.476   4.245
62649W        W35074  15.252  12.809   2.244
62650W        W35075  12.619  26.562   0.912
62651W        W35076   0.945   9.249   1.874
62652W        W35077  21.519  42.459  12.942
62653W        W35078  21.244  31.989   2.775
62654W        W35079  40.427  23.672   2.380
62655W        W35080  17.222   1.394   1.301
62656W        W35081  24.200  25.176   3.249
62657W        W35082  24.704  31.457   4.220
62658W        W35083  15.097  10.349  12.840
62659W        W35084  28.129  10.774   3.227
62660W        W35085  14.661  22.542  14.312
62661W        W35086  19.730  16.131   4.761
62662W        W35087  20.272  15.125   4.717
62663W        W35088  15.135  16.750  12.478
62664W        W35089   9.661  40.895   2.729
62665W        W35090  12.745   6.791   4.747
62666W        W35091   7.260   3.413  14.781
62667W        W35092  20.184  24.980  12.981
62668W        W35093  27.626   6.231  14.432
62669W        W35094  22.730  27.599   2.693
62670W        W35095  12.178  26.200   4.162
62671W        W35096  19.746   0.404   4.793
62672W        W35097  23.698  24.077  12.831
62673W        W35098  35.549  14.749   1.400
62674W        W35099  19.054   2.832  12.075
62675W        W35100   0.858  39.501  14.883
62676W        W35101  31.138  16.126  11.460
62677W        W35102  33.604  17.305  14.458
62678W        W35103  20.155  31.117   1.275
62679W        W35104   6.226   9.335  14.988
62680W        W35105   8.183  23.718  11.912
62681W        W35106  13.269  16.707  14.010
62682W        W35107   6.281  31.052  12.356
62683W        W35108  10.252  12.825  13.864
62684W        W35109  14.656  41.329  10.047
62685W        W35110  42.890  42.846   0.340
62686W        W35111   9.327  16.104   1.446
62687W        W35112  15.682  35.538  14.894
62688W        W35113   1.773  18.241   2.347
62689W        W35114  42.415  28.029   3.669
62690W        W35115  27.193  40.007   0.378
62691W        W35116  38.421  34.090   3.833
62692W        W35117  19.090   1.858  13.535
62693W        W35118  19.780  13.107   4.641
62694W        W35119   8.295  25.700  12.422
62695W        W35120  34.030  30.577   3.350
62696W        W35121  15.784  26.157   0.278
62697W        W35122  37.052  28.981   4.299
62698W        W35123  22.717  35.058  12.398
62699W        W35124  31.507  13.329  11.093
62700W        W35125  44.497  35.060   1.302
62701W        W35126  39.979  27.997  13.853
62702W        W35127  10.844  28.559   4.234
62703W        W35128  14.271  14.184   2.759
62704W        W35129   3.890  19.250  13.798
62705W        W35130  26.484   9.808   3.849
62706W        W35131   1.802   7.206   4.776
62707W        W35132  41.330  27.062   4.146
62708W        W35133  20.258   8.328   3.164
62709W        W35134  39.029  31.056  11.584
62710W        W35135  32.094  32.024  11.026
62711W        W35136  26.624  37.372  13.046
62712W        W35137  23.632  27.028   0.443
62713W        W35138  11.150  18.204   4.210
62714W        W35139  14.285   0.331  12.340
62715W        W35140  23.070  36.863  12.862
62716W        W35141  25.026  31.486   4.672
62717W        W35142  12.766  43.872  11.957
62718W        W35143  43.291  34.060  11.961
62719W        W35144   3.450  38.488   4.302
62720W        W35145  39.399  33.130  13.047
62721W        W35146  29.032  39.488  10.899
62722W        W35147  33.463  22.682   0.259
62723W        W35148  22.671   1.797   3.866
62724W        W35149  27.475  13.164  12.359
62725W        W35150  11.737   5.839   1.908
62726W        W35151  23.202   3.343  14.012
62727W        W35152   4.255  24.537  14.808
62728W        W35153  24.195   8.222  10.513
62729W        W35154  25.097  19.239   3.644
62730W        W35155   5.750  22.715   4.818
62731W        W35156  35.502  19.755  14.510
62732W        W35157   2.743  16.767   1.869
62733W        W35158  30.480   6.694   2.679
62734W        W35159  21.652  13.310   0.846
62735W        W35160  28.072  12.776  13.912
62736W        W35161  30.106  36.057  11.970
62737W        W35162  25.639  18.703  11.570
62738W        W35163  18.169  33.914  11.499
62739W        W35164  23.240  23.530   2.281
62740W        W35165  34.877   9.369   1.358
62741W        W35166  30.423  33.954   3.370
62742W        W35167  12.790  15.247  12.037
62743W        W35168  24.007  24.152  11.858
62744W        W35169   2.265   1.482   0.357
62745W        W35170  20.064  22.071  11.589
62746W        W35171  29.142  18.098   2.393
62747W        W35172   4.756  27.067   1.263
62748W        W35173  44.842  17.740  13.431
62749W        W35174  41.819  37.056  11.924
62750W        W35175  16.588  11.847   0.828
62751W        W35176  32.442  14.142   3.795
62752W        W35177  25.052  37.402  12.390
62753W        W35178  20.628  24.635   3.161
62754W        W35179   4.898   3.730   1.901
62755W        W35180  41.496   2.339   0.776
62756W        W35181  23.662  10.314   1.269
62757W        W35182   7.699  36.511   0.768
62758W        W35183  31.605   3.282  11.433
62759W        W35184   2.836   5.929  12.838
62760W        W35185   7.752  33.569  11.550
62761W        W35186   8.801   7.729   1.887
62762W        W35187  13.783   6.699  11.959
62763W        W35188  25.156  11.712   4.169
62764W        W35189  42.817   4.739   4.131
62765W        W35190  39.036  14.218  10.609
62766W        W35191   9.165  11.257  11.008
62767W        W35192  30.029   8.890   4.829
62768W        W35193  25.610  35.907  10.575
62769W        W35194  18.684  18.218   4.733
62770W        W35195  14.675  30.932   4.234
62771W        W35196  37.338  23.183   5.093
62772W        W35197  25.548  32.396  11.531
62773W        W35198  25.050  39.027  11.410
62774W        W35199  36.357  21.211  13.471
62775W        W35200  34.409  33.919  14.489
62776W        W35201  38.327  16.181  13.992
62777W        W35202  11.184  31.608   2.747
62778W        W35203  36.573   2.431   0.733
62779W        W35204  22.110  38.546   0.814
62780W        W35205  12.120   8.166  14.392
62781W        W35206  25.589  24.206   3.767
62782W        W35207  29.052  38.380   2.235
62783W        W35208  24.652  25.504   3.305
62784W        W35209  27.133  24.066  11.465
62785W        W35210   7.275  30.591  10.938
62786W        W35211   2.240  15.118  10.630
62787W        W35212  35.475  10.183   0.288
62788W        W35213  31.114  26.140  13.924
62789W        W35214  40.953  42.315  11.864
62790W        W35215  34.540   5.791  10.995
62791W        W35216   7.225  18.557  10.472
62792W        W35217  26.580   1.277   1.878
62793W        W35218  36.554  28.662   4.145
62794W        W35219  10.823   9.851   3.369
62795W        W35220  34.520  22.613  10.622
62796W        W35221   0.449  18.559  12.471
62797W        W35222  21.511   0.429   1.210
62798W        W35223  20.047   6.335  12.858
62799W        W35224   1.314  39.529   1.892
62800W        W35225  33.030   5.327   1.410
62801W        W35226  18.278  13.127  13.843
62802W        W35227  15.679  14.705   0.903
62803W        W35228   2.910   9.215   3.323
62804W        W35229  36.513  23.630  12.467
62805W        W35230   0.422  10.353   3.329
62806W        W35231  13.214   7.296   3.242
62807W        W35232  24.007  23.172  11.104
62808W        W35233  25.169  17.621  12.392
62809W        W35234   8.868  14.120   0.804
62810W        W35235   9.171  11.184   3.248
62811W        W35236   9.879   4.408  10.462
62812W        W35237   2.855  13.289   3.655
62813W        W35238   1.480  41.338   3.358
62814W        W35239  31.066  22.510   4.653
62815W        W35240   1.389   1.284  12.507
62816W        W35241   9.836  35.373  10.076
62817W        W35242  42.374   0.335  12.537
62818W        W35243  31.070  26.466   3.362
62819W        W35244  34.389  29.603  11.429
62820W        W35245  33.058   3.266  13.899
62821W        W35246  31.647   5.248   0.317
62822W        W35247  15.597  11.130  13.848
62823W        W35248  36.091  13.326   0.890
62824W        W35249   4.261  15.121   3.795
62825W        W35250  18.089  19.550  12.093
62826W        W35251  21.056   5.219  13.341
62827W        W35252  43.499  34.090   2.417
62828W        W35253  32.100   5.347  14.930
62829W        W35254  26.580   7.385  11.048
62830W        W35255  12.129  25.985  13.023
62831W        W35256   9.361   0.762  12.497
62832W        W35257  23.127  28.963   4.145
62833W        W35258  10.759  22.669   4.776
62834W        W35259  19.091  15.679  10.906
62835W        W35260  20.275  30.539   4.655
62836W        W35261  44.459  42.412   2.418
62837W        W35262  34.016   9.164   3.257
62838W        W35263   8.730   9.860   3.846
62839W        W35264  18.754  11.733   3.148
62840W        W35265   6.272   8.336  12.503
62841W        W35266   8.168  38.028   1.234
62842W        W35267  25.993  43.408  11.475
62843W        W35268  17.801  34.463  13.047
62844W        W35269   7.784  32.981  14.864
62845W        W35270  35.016  41.502  11.571
62846W        W35271   3.874  10.720  13.511
62847W        W35272  31.898  34.961  12.082
62848W        W35273   6.685  34.379  14.461
62849W        W35274  14.227  22.674   2.766
62850W        W35275  20.700  32.955  14.306
62851W        W35276  24.484  18.548   4.787
62852W        W35277  24.109  11.691   1.696
62853W        W35278  29.480   7.358   1.804
62854W        W35279  42.413  21.214   2.364
62855W        W35280  21.146  16.669  11.610
62856W        W35281  36.927  19.227  11.997
62857W        W35282  18.544  32.042   3.741
62858W        W35283  36.947  44.892   1.324
62859W        W35284  11.203  38.888  11.039
62860W        W35285   8.848   4.417  12.083
62861W        W35286  36.507   1.361  12.902
62862W        W35287  33.104   4.447  11.427
62863W        W35288   3.291  39.388  14.356
62864W        W35289  36.099  42.474   4.197
62865W        W35290  19.780   9.710   2.696
62866W        W35291   2.800   5.420  12.066
62867W        W35292   5.857  22.141   0.472
62868W        W35293  43.381  38.473   2.880
62869W        W35294  39.026   1.849  11.389
62870W        W35295  34.106  25.527   4.620
62871W        W35296  28.613  39.492   1.815
62872W        W35297  15.251  29.170   1.830
62873W        W35298  12.177  13.841  10.558
62874W        W35299  25.183  11.668   4.720
62875W        W35300  39.554  12.334   3.150
62876W        W35301  24.067  21.593   2.760
62877W        W35302  28.078  20.560   3.222
62878W        W35303   3.399  35.097  11.002
62879W        W35304  35.449  13.116   1.426
62880W        W35305  14.290  36.066  11.937
62881W        W35306  37.003   0.474  11.116
62882W        W35307  40.549   1.962  14.027
62883W        W35308  36.892  40.444  11.055
62884W        W35309  32.445  28.065  10.893
62885W        W35310  25.216   8.700   2.814
62886W        W35311  30.159  31.625  14.411
62887W        W35312  37.942  38.521  14.415
62888W        W35313  44.965  10.228   4.245
62889W        W35314  20.739  22.744   3.857
62890W        W35315  13.740   2.821  11.385
62891W        W35316  37.020  29.075  12.360
62892W        W35317  41.413  22.646  13.527
62893W        W35318  13.327  41.365   2.413
62894W        W35319  29.133  11.359  12.010
62895W        W35320  31.579   7.763  14.873
62896W        W35321  26.650  42.020  13.987
62897W        W35322  14.754  20.633   0.770
62898W        W35323  33.404   3.819  12.942
62899W        W35324  35.531   1.733   0.935
62900W        W35325  27.058   9.196  14.937
62901W        W35326  23.552  26.014  10.621
62902W        W35327  33.576  18.133   2.262
62903W        W35328  37.976  28.958   3.762
62904W        W35329  24.081  26.547  13.973
62905W        W35330  21.518  36.875   4.140
62906W        W35331  40.364  29.647  14.020
62907W        W35332  41.311   7.417   0.795
62908W        W35333   9.758   6.419  10.549
62909W        W35334  42.459  26.194  10.570
62910W        W35335  13.650   4.299   0.251
62911W        W35336  20.139  44.312   1.426
62912W        W35337   6.368  30.971   2.223
62913W        W35338  35.097  37.054   2.870
62914W        W35339   2.894   4.386  13.365
62915W        W35340  44.282  22.250   4.716
62916W        W35341  33.964  26.997   4.115
62917W        W35342  25.128  23.724  12.958
62918W        W35343  32.954  34.374   0.245
62919W        W35344   4.879  27.611  14.506
62920W        W35345  34.921  20.197  10.590
62921W        W35346  38.912  37.878   1.852
62922W        W35347   7.848  30.121   2.302
62923W        W35348  44.817  34.953   1.370
62924W        W35349  37.558  26.108   1.256
62925W        W35350  19.154  11.296   3.633
62926W        W35351   4.840  23.184   0.408
62927W        W35352   0.436  13.633  13.355
62928W        W35353  26.533  33.580   3.219
62929W        W35354  18.234  27.547  11.489
62930W        W35355  29.436  44.841  13.840
62931W        W35356  44.788  11.822   4.126
62932W        W35357  28.180  10.337   1.869
62933W        W35358  22.050  44.485  11.466
62934W        W35359  31.938   3.283  10.539
62935W        W35360  42.989  39.838  13.947
62936W        W35361  24.036  31.416  11.091
62937W        W35362   9.181   6.263  11.922
62938W        W35363   5.751  42.781  14.996
62939W        W35364  40.994  33.423   2.666
62940W        W35365   8.377  37.007  10.643
62941W        W35366  33.129  14.645   1.801
62942W        W35367   0.886  38.567  10.081
62943W        W35368  16.577  14.710   0.345
62944W        W35369  29.529  29.537  13.530
62945W        W35370  16.697   6.887  14.861
62946W        W35371  30.607   3.759   1.788
62947W        W35372  32.932  34.455  13.322
62948W        W35373   2.846  44.298  10.641
62949W        W35374  15.313  23.058   0.479
62950W        W35375   9.363  22.546   0.828
62951W        W35376  15.187  27.114   1.764
62952W        W35377  41.411   6.818  10.566
62953W        W35378  28.600  33.052   3.294
62954W        W35379  21.682  41.923  14.390
62955W        W35380   4.930   3.903  13.447
62956W        W35381  42.875  33.936  11.124
62957W        W35382  26.063  32.465   5.154
62958W        W35383   8.280  42.776  12.995
62959W        W35384   8.787  39.824  14.893
62960W        W35385  43.461  43.504  10.956
62961W        W35386   3.439   0.365  13.818
62962W        W35387  11.346  42.395  12.457
62963W        W35388  28.155   7.743  12.406
62964W        W35389  35.486  38.009  14.870
62965W        W35390  16.721  34.097   2.868
62966W        W35391  35.069  30.560   1.406
62967W        W35392  38.055  11.638  13.919
62968W        W35393  27.155  40.838  12.987
62969W        W35394   0.909   0.889   3.708
62970W        W35395  17.721  27.634  14.375
62971W        W35396  35.370  26.518   0.322
62972W        W35397  17.196  14.596   0.372
62973W        W35398  14.740   9.180  14.840
62974W        W35399   5.839  11.705   2.290
62975W        W35400  41.949   9.829   0.322
62976W        W35401  33.497  39.017   1.891
62977W        W35402   1.375  11.731  11.413
62978W        W35403  44.271   8.786  13.010
62979W        W35404  19.075   9.160  14.850
62980W        W35405  21.084  35.534   3.858
62981W        W35406  28.115   0.408  13.320
62982W        W35407   3.846  15.663   2.854
62983W        W35408  12.306  21.710   0.928
62984W        W35409  27.059  24.230   2.254
62985W        W35410  32.526  14.221  12.532
62986W        W35411  37.353  29.637   5.191
62987W        W35412  18.719  32.564  14.427
62988W        W35413  41.494  43.378  10.128
62989W        W35414  15.737  33.963  13.513
62990W        W35415   3.908   8.343  13.875
62991W        W35416  15.267  15.691   2.322
62992W        W35417   9.681  17.701  10.909
62993W        W35418  37.976  12.801   1.748
62994W        W35419   7.371  11.358  11.582
62995W        W35420  16.141  16.683  13.406
62996W        W35421  18.149  26.583   2.229
62997W        W35422  43.484  42.453   1.222
62998W        W35423  26.469   1.956   2.826
62999W        W35424  41.403  18.675  10.432
63000W        W35425  37.876  32.139  12.083
63001W        W35426  28.001   6.211   1.438
63002W        W35427   7.850  38.510   1.399
63003W        W35428   6.873   1.427   2.894
63004W        W35429  40.814  10.251   4.115
63005W        W35430  31.064  24.030   0.727
63006W        W35431  38.977  11.192   4.241
63007W        W35432  32.094  41.018   0.879
63008W        W35433  22.251  39.953   0.412
63009W        W35434  23.036   0.388  12.425
63010W        W35435  11.232  24.619   1.785
63011W        W35436  21.599  17.707  14.988
63012W        W35437  36.970  37.577   3.674
63013W        W35438   7.717  25.175  13.801
63014W        W35439   9.870  13.351  10.616
63015W        W35440  44.504  23.549   0.926
63016W        W35441  27.139  40.800   1.905
63017W        W35442  41.352   3.239   0.285
63018W        W35443  44.362  14.121  14.348
63019W        W35444  43.006  33.894  13.042
63020W        W35445  12.826  11.208  13.474
63021W        W35446  20.268   0.286  10.901
63022W        W35447  13.767  25.643   3.259
63023W        W35448  16.796  43.972   3.215
63024W        W35449   1.750  27.197  12.406
63025W        W35450  27.676  16.089   4.191
63026W        W35451  37.034  14.802   2.801
63027W        W35452  14.308  21.705  14.854
63028W        W35453  21.667  15.662   3.201
63029W        W35454  21.101  24.612   3.220
63030W        W35455   5.395  32.530  12.940
63031W        W35456  29.065  35.019   2.879
63032W        W35457  10.823  14.104   0.282
63033W        W35458   4.902  14.797  12.056
63034W        W35459  27.604  17.098  13.350
63035W        W35460  16.154   9.298   1.857
63036W        W35461  16.266  13.292   3.292
63037W        W35462  19.090  33.903  14.923
63038W        W35463   3.741  38.511  14.911
63039W        W35464  34.953   0.426   1.924
63040W        W35465  11.852  41.490   0.445
63041W        W35466   5.376  29.153   0.410
63042W        W35467   4.831  35.380  14.778
63043W        W35468  17.729  31.634   4.622
63044W        W35469  12.641  35.381   4.818
63045W        W35470  31.951  27.692   0.897
63046W        W35471   0.396  16.694   4.276
63047W        W35472  14.645  10.718  11.049
63048W        W35473   1.819  14.170   3.298
63049W        W35474  41.312   4.928  13.492
63050W        W35475   5.437   6.779  13.372
63051W        W35476   4.249  40.937  13.040
63052W        W35477  31.588  39.428   4.786
63053W        W35478   4.941  32.938  12.904
63054W        W35479   3.272  36.474  14.896
63055W        W35480  26.534  16.808   4.687
63056W        W35481  44.911  37.503   2.289
63057W        W35482  29.094  15.635   0.955
63058W        W35483  35.378  34.103  13.874
63059W        W35484  20.044  29.528  12.094
63060W        W35485  10.803  24.579  13.038
63061W        W35486   2.752  36.850  14.346
63062W        W35487  40.938   7.275  13.831
63063W        W35488  30.948   0.899   0.744
63064W        W35489  21.170  15.156   4.635
63065W        W35490  39.953  36.559   4.830
63066W        W35491  38.546  21.716   2.367
63067W        W35492  23.163  37.450   4.645
63068W        W35493   1.908  44.873  12.461
63069W        W35494  15.155   3.378  10.067
63070W        W35495  27.490  40.523  14.497
63071W        W35496  43.487  33.386   2.668
63072W        W35497  21.081  26.198  12.065
63073W        W35498  25.991  43.509  14.514
63074W        W35499  30.111  24.196   4.654
63075W        W35500  30.078   9.199   1.900
63076W        W35501  19.267  12.840  14.928
63077W        W35502  32.066   8.295  14.464
63078W        W35503  17.202  30.414  11.559
63079W        W35504  40.919   0.828   1.767
63080W        W35505  24.632  26.593  13.388
63081W        W35506  24.590  26.991  13.828
63082W        W35507  24.486   1.364  13.892
63083W        W35508  25.645  40.961   3.768
63084W        W35509  41.518  30.540  13.465
63085W        W35510   9.834  41.483  14.369
63086W        W35511  30.095  44.758  14.462
63087W        W35512  31.426  21.071   4.201
63088W        W35513  14.777   8.309   4.276
63089W        W35514   8.715   9.203   0.364
63090W        W35515  27.664   7.208  13.840
63091W        W35516   4.884  14.768  12.367
63092W        W35517   0.251  37.942   1.299
63093W        W35518   1.857   3.808   4.771
63094W        W35519  32.507   5.931   3.307
63095W        W35520  10.340  37.878  10.560
63096W        W35521   5.415   0.473  13.968
63097W        W35522  44.865  17.789  14.003
63098W        W35523   5.411  29.072   2.303
63099W        W35524  27.527  36.913  13.501
63100W        W35525  23.067  43.924   1.716
63101W        W35526  25.134  33.573  11.375
63102W        W35527   9.270  29.080   2.804
63103W        W35528  19.169  37.915   4.665
63104W        W35529  30.528  42.386  12.945
63105W        W35530  24.103  31.060  11.601
63106W        W35531  37.035   5.838  12.512
63107W        W35532  29.569   1.956   0.967
63108W        W35533   9.205  31.032  11.511
63109W        W35534  33.379  12.628   2.667
63110W        W35535   4.344   1.314   0.849
63111W        W35536  27.654  34.076  12.553
63112W        W35537  15.757  40.463   0.346
63113W        W35538  27.668  41.832  14.312
63114W        W35539   5.701  37.460  14.405
63115W        W35540  17.279  16.575   1.378
63116W        W35541  17.220  16.079   4.155
63117W        W35542   2.794  41.959   1.330
63118W        W35543  44.378   6.187   0.768
63119W        W35544  43.348   1.922   5.219
63120W        W35545  24.640   0.480  11.465
63121W        W35546  17.107   8.247  12.929
63122W        W35547   1.303  35.984  10.629
63123W        W35548  29.150   6.701  14.996
63124W        W35549   1.927  38.329  13.877
63125W        W35550   6.329   0.315   1.286
63126W        W35551  19.673  11.827  14.937
63127W        W35552  12.697  16.567  14.295
63128W        W35553   5.774  28.025  13.805
63129W        W35554  20.245  33.045  13.412
63130W        W35555   1.824  12.779  10.888
63131W        W35556   6.746   3.239   0.758
63132W        W35557  44.454  39.409   3.280
63133W        W35558  20.209  43.485   3.346
63134W        W35559   6.677  37.355   3.736
63135W        W35560  13.290  14.281   4.344
63136W        W35561  11.199  28.067   3.315
63137W        W35562  15.090  18.751   2.259
63138W        W35563  34.418  25.184   2.351
63139W        W35564  41.460   2.446  11.115
63140W        W35565  44.963   9.293   2.354
63141W        W35566  22.505   4.807  12.576
63142W        W35567   4.726  19.580   4.626
63143W        W35568  35.537  34.890  11.041
63144W        W35569  27.194  42.339   1.763
63145W        W35570   7.327   8.320   1.228
63146W        W35571  19.238  39.953   1.891
63147W        W35572  25.987  40.855   1.884
63148W        W35573  12.662  14.275  12.381
63149W        W35574  17.702  30.990  14.405
63150W        W35575  30.639  20.636   0.446
63151W        W35576  41.007  27.629  11.919
63152W        W35577  23.155   3.787  11.512
63153W        W35578  17.612  31.568   0.365
63154W        W35579  12.654  20.660  11.105
63155W        W35580  20.645  34.970   1.917
63156W        W35581  15.184  44.389   1.808
63157W        W35582  22.593  33.982  10.964
63158W        W35583  34.466  21.083  13.043
63159W        W35584  11.657  32.936  13.485
63160W        W35585  33.500  26.120   3.179
63161W        W35586   8.274   6.702   2.872
63162W        W35587  31.552  18.630  14.991
63163W        W35588   1.812  15.121  14.412
63164W        W35589  11.725  11.629  13.037
63165W        W35590  14.717  13.303   1.851
63166W        W35591  23.597  17.148   2.735
63167W        W35592  35.498   2.378  12.981
63168W        W35593   8.243  40.872  13.444
63169W        W35594  43.485   3.237  12.932
63170W        W35595   0.833  17.103   2.328
63171W        W35596   9.175  15.650  12.345
63172W        W35597  38.927  10.839  11.412
63173W        W35598  15.683  23.131  13.535
63174W        W35599  23.020  26.569   0.751
63175W        W35600  34.032  19.746  12.027
63176W        W35601   3.321   9.258  12.867
63177W        W35602  35.436  17.762   1.258
63178W        W35603  20.523  37.087  12.541
63179W        W35604  43.484   7.264   4.619
63180W        W35605  12.741  41.406  13.830
63181W        W35606   2.863   7.729   2.825
63182W        W35607  27.480  43.862   0.244
63183W        W35608  36.042  25.054   0.272
63184W        W35609  38.386   2.956   3.350
63185W        W35610  15.790   2.359   3.705
63186W        W35611  40.955   0.894   0.845
63187W        W35612  23.670  43.476  14.770
63188W        W35613  26.520   1.308   2.358
63189W        W35614  16.795  14.771  10.534
63190W        W35615  19.729  34.513  12.357
63191W        W35616   2.949  26.658  12.958
63192W        W35617  19.103  22.690   4.127
63193W        W35618   5.199   1.353  11.397
63194W        W35619  20.719  30.160   1.385
63195W        W35620  23.597  42.823  14.840
63196W        W35621  29.992  16.114   3.293
63197W        W35622  18.628  30.593   3.358
63198W        W35623  42.914  28.933  14.955
63199W        W35624   3.859  39.832  13.049
63200W        W35625  35.446  38.351   2.316
63201W        W35626  14.179  33.553  12.566
63202W        W35627  37.860   7.302   4.657
63203W        W35628  38.325  29.453   2.830
63204W        W35629  14.167   6.886  13.897
63205W        W35630  27.454  39.987   3.253
63206W        W35631   0.780  18.646   4.753
63207W        W35632  27.531   3.239   1.774
63208W        W35633  33.558  36.374   3.822
63209W        W35634  19.272  32.893   0.919
63210W        W35635  17.591  35.090  12.360
63211W        W35636  20.743   0.756  10.473
63212W        W35637  32.941  21.660  10.908
63213W        W35638  29.581  24.609   3.800
63214W        W35639  14.730  32.012   3.703
63215W        W35640  17.225  22.152   0.959
63216W        W35641  15.598   5.736  13.990
63217W        W35642  10.813  43.363   4.627
63218W        W35643   5.778  36.443   1.783
63219W        W35644  11.712   6.369   1.877
63220W        W35645  30.074  14.760   0.789
63221W        W35646  20.600  41.399   0.778
63222W        W35647  20.030  41.852   2.296
63223W        W35648  32.022   1.814  12.089
63224W        W35649  20.187  15.726   3.656
63225W        W35650  40.543  23.041   0.409
63226W        W35651   8.252   7.738  13.401
63227W        W35652  29.581  15.110  12.414
63228W        W35653  29.477   4.884   3.771
63229W        W35654  39.359  43.384   4.634
63230W        W35655  13.171  30.462  12.072
63231W        W35656  13.621  36.908  11.985
63232W        W35657  13.248  14.603  11.125
63233W        W35658  11.836   2.327   4.262
63234W        W35659   3.401  26.098  10.531
63235W        W35660  12.297  15.107   4.665
63236W        W35661  19.266  31.607  14.796
63237W        W35662   1.450  16.613  14.485
63238W        W35663  21.190  42.946   4.212
63239W        W35664   1.827  29.065   2.662
63240W        W35665  17.221  33.972  12.916
63241W        W35666  37.059  36.470  10.994
63242W        W35667  36.055  39.314   3.843
63243W        W35668   1.288  35.581   4.613
63244W        W35669   3.849  31.899   2.323
63245W        W35670  17.266  33.536   3.837
63246W        W35671  14.808  14.177   0.776
63247W        W35672  18.106  21.126  12.085
63248W        W35673  30.638  16.251  14.386
63249W        W35674  13.760  41.935   2.664
63250W        W35675  27.481  36.576   0.815
63251W        W35676  17.167  44.310  12.528
63252W        W35677  30.151  28.060   3.858
63253W        W35678  39.869  23.675  11.445
63254W        W35679  15.652  38.366  13.377
63255W        W35680  35.555  32.447  13.491
63256W        W35681  40.549   3.235  11.595
63257W        W35682  31.510  36.975  13.542
63258W        W35683  16.797  37.479  13.397
63259W        W35684  21.670  41.873   2.769
63260W        W35685  40.008  28.529   1.856
63261W        W35686  22.699  28.479  11.581
63262W        W35687  37.028  38.868  10.512
63263W        W35688  35.577  32.402   2.188
63264W        W35689  27.655   0.868  13.029
63265W        W35690  35.935  31.496  11.425
63266W        W35691  40.308   7.192   3.149
63267W        W35692  13.254  21.586   4.778
63268W        W35693  11.364  11.670   3.263
63269W        W35694   6.291  37.977  13.389
63270W        W35695  12.695  29.650  13.335
63271W        W35696  14.339  17.583   1.306
63272W        W35697  26.146  16.189   4.699
63273W        W35698  38.889  31.935  14.335
63274W        W35699  10.261  44.460   5.269
63275W        W35700  18.137  40.334  13.998
63276W        W35701  28.157   4.444  14.284
63277W        W35702  22.511  27.526   3.826
63278W        W35703  39.533  31.517  14.471
63279W        W35704  13.661  12.677   1.845
63280W        W35705  20.215  35.918  14.819
63281W        W35706  29.085  43.294  13.874
63282W        W35707  22.703   5.915  12.498
63283W        W35708  24.564   9.669   3.738
63284W        W35709  31.647  30.574   1.340
63285W        W35710  34.117  40.979  11.387
63286W        W35711  17.612  44.434   0.267
63287W        W35712  38.513  42.999  12.897
63288W        W35713  10.245  18.053  12.412
63289W        W35714  26.963  32.086  12.458
63290W        W35715   8.207   1.778   4.672
63291W        W35716  26.535   6.826   1.228
63292W        W35717   3.771  11.813   4.221
63293W        W35718  11.710   5.366  12.891
63294W        W35719  33.874  29.632   1.344
63295W        W35720  28.132   4.884  13.487
63296W        W35721  18.117  39.480  11.538
63297W        W35722   3.394   3.354  11.572
63298W        W35723  10.246  35.375   2.730
63299W        W35724  43.407  37.547  13.339
63300W        W35725  36.884  20.622   2.230
63301W        W35726  24.579  24.206  12.022
63302W        W35727   5.851  12.848   3.819
63303W        W35728  12.784   5.439  12.024
63304W        W35729   0.943  31.002   4.157
63305W        W35730  44.841   3.849  14.762
63306W        W35731  32.618  39.981   1.932
63307W        W35732  31.520  31.899   3.865
63308W        W35733   7.906   5.435   1.353
63309W        W35734   4.314  18.096  10.567
63310W        W35735  43.276  23.233   1.883
63311W        W35736  18.224   5.861  10.408
63312W        W35737  34.057  28.449   2.377
63313W        W35738   0.796  19.048  14.487
63314W        W35739   9.306  36.489   4.264
63315W        W35740  15.232  39.818  13.347
63316W        W35741  18.749  31.107  14.929
63317W        W35742  42.977  35.863  12.912
63318W        W35743  21.558  41.919   4.250
63319W        W35744  12.738  13.143   1.236
63320W        W35745  15.631   0.774  11.580
63321W        W35746  15.263   0.921   0.768
63322W        W35747  40.927  23.662  10.624
63323W        W35748  13.742   0.888  14.362
63324W        W35749  40.545  41.502   0.905
63325W        W35750  30.052   1.754  12.841
63326W        W35751  13.332  26.545  14.276
63327W        W35752  23.214   0.758  12.499
63328W        W35753  14.635  11.843  12.554
63329W        W35754  17.121  41.509  12.578
63330W        W35755  29.454  39.945   0.397
63331W        W35756  10.329  43.413   2.744
63332W        W35757  11.647   9.653   0.477
63333W        W35758   3.861  21.242  11.891
63334W        W35759  30.437  18.101   5.670
63335W        W35760  40.970   7.404  13.520
63336W        W35761   3.222  11.868  13.048
63337W        W35762  33.993  27.069   1.722
63338W        W35763  27.448  39.019  10.532
63339W        W35764   4.743  39.006   2.771
63340W        W35765   9.775  39.469  11.868
63341W        W35766  10.203  36.994  11.033
63342W        W35767  35.083  43.453   3.288
63343W        W35768  25.582   1.408   4.299
63344W        W35769   2.946  11.235   2.378
63345W        W35770  44.382  25.012   3.364
63346W        W35771  26.954   5.869   4.807
63347W        W35772  27.485   7.281   3.797
63348W        W35773   5.743  10.363   4.639
63349W        W35774  41.499   6.790  10.923
63350W        W35775  40.950   7.253  12.061
63351W        W35776  15.812  13.627  11.025
63352W        W35777   0.455   2.277  11.996
63353W        W35778  31.415  42.878  14.990
63354W        W35779  39.008   5.737  13.861
63355W        W35780  17.269  10.257  13.870
63356W        W35781  24.715   0.294  10.623
63357W        W35782  18.692  27.602  10.896
63358W        W35783   4.904  39.443   3.729
63359W        W35784  38.953  18.670   2.829
63360W        W35785  21.057   3.767  12.024
63361W        W35786  39.524  20.624  13.540
63362W        W35787  11.757  23.104   4.195
63363W        W35788  28.049  34.947   1.301
63364W        W35789  18.745  32.911  13.963
63365W        W35790  12.685  18.652   1.342
63366W        W35791  32.585  15.821  12.503
63367W        W35792   1.291  20.154  13.345
63368W        W35793   7.743  22.103  10.967
63369W        W35794   6.763  25.556  14.933
63370W        W35795  25.664  16.122   3.641
63371W        W35796   2.452  14.275  14.437
63372W        W35797   1.292  38.504   1.363
63373W        W35798  23.101  27.195   2.271
63374W        W35799  17.603  14.793   0.769
63375W        W35800   2.936   4.755  13.482
63376W        W35801  16.684  22.667  11.088
63377W        W35802  26.602  25.164   4.333
63378W        W35803  12.679   4.716  11.458
63379W        W35804  27.134   5.295  10.515
63380W        W35805  39.380  39.508  14.988
63381W        W35806  26.501  29.967   2.872
63382W        W35807  30.977  12.622   1.404
63383W        W35808  21.134  41.904   2.211
63384W        W35809  32.429  41.342   2.699
63385W        W35810  43.376  21.549  14.423
63386W        W35811  40.434  31.630   1.382
63387W        W35812  16.302  10.226  13.374
63388W        W35813  42.784  35.500  13.885
63389W        W35814   2.463  35.892   2.811
63390W        W35815  37.925  27.073  11.449
63391W        W35816  16.590  25.651   0.481
63392W        W35817  40.399   3.459   1.368
63393W        W35818  22.638  20.640  13.046
63394W        W35819  37.024  27.608  12.396
63395W        W35820  10.176  35.957  12.062
63396W        W35821  30.590  28.977   3.326
63397W        W35822   7.240  33.961   2.671
63398W        W35823  24.188  41.509  11.999
63399W        W35824  36.931  10.262  11.469
63400W        W35825   7.846  35.362  12.853
63401W        W35826  22.602   8.347   4.273
63402W        W35827  11.368   7.753  13.482
63403W        W35828  26.475  19.226  10.944
63404W        W35829   8.364  20.669  14.984
63405W        W35830  21.214  14.268   0.409
63406W        W35831  37.537   5.889   0.900
63407W        W35832  11.263  32.637   3.783
63408W        W35833  16.111  27.136  14.286
63409W        W35834  16.121  27.004  11.121
63410W        W35835  39.326  39.936  11.510
63411W        W35836   5.283  25.162  14.906
63412W        W35837  40.006  36.371  10.454
63413W        W35838  33.506  20.641  13.010
63414W        W35839   4.908  10.345   0.895
63415W        W35840  39.450  19.211  12.008
63416W        W35841   6.820  19.636  12.018
63417W        W35842  14.094   1.317   1.741
63418W        W35843  17.121  26.589  14.779
63419W        W35844  22.126  27.159   4.148
63420W        W35845  15.178  21.207   3.817
63421W        W35846  34.061  14.774   1.212
63422W        W35847  40.809  17.651  12.059
63423W        W35848  34.593   7.217   3.362
63424W        W35849  16.152  11.293  10.951
63425W        W35850  11.738  33.476   3.149
63426W        W35851  33.906  38.009  14.346
63427W        W35852   9.246   1.293  12.458
63428W        W35853  14.687  14.646  14.967
63429W        W35854  41.950  29.461   1.214
63430W        W35855  10.260  37.961  11.585
63431W        W35856   1.356  39.408  11.503
63432W        W35857   6.912  10.801   3.159
63433W        W35858   7.857  21.074   0.430
63434W        W35859  22.530  10.237   4.711
63435W        W35860  41.823  44.775   1.300
63436W        W35861  35.068  21.630  11.031
63437W        W35862   4.799  21.203   0.417
63438W        W35863  34.489  44.274  14.287
63439W        W35864  31.143  24.184   2.771
63440W        W35865  32.897  32.415  14.330
63441W        W35866  25.030  38.451   4.695
63442W        W35867  23.214  33.575   2.798
63443W        W35868  37.855  29.020  11.935
63444W        W35869  23.722  36.914   4.205
63445W        W35870  34.041  32.444   0.302
63446W        W35871  16.143  11.173  11.589
63447W        W35872  42.429   9.351  10.512
63448W        W35873  26.011  24.997   4.159
63449W        W35874  39.434  12.139  14.439
63450W        W35875   6.832  38.339  10.992
63451W        W35876  27.053  10.833  13.928
63452W        W35877  39.024  32.035   4.219
63453W        W35878  13.110  31.054   2.871
63454W        W35879  41.849  27.526  10.896
63455W        W35880  25.171  27.179  14.028
63456W        W35881  38.329   6.714   0.965
63457W        W35882  22.580  19.261   3.193
63458W        W35883   6.379  14.787   1.226
63459W        W35884  38.387  11.266  11.461
63460W        W35885   2.298  20.168   1.307
63461W        W35886   3.889   2.823  14.364
63462W        W35887  36.064  27.966  12.441
63463W        W35888  12.205  15.201  14.816
63464W        W35889  23.583   7.359  11.922
63465W        W35890   7.884   7.823   0.256
63466W        W35891  17.280  12.277   1.748
63467W        W35892  43.361  36.383   2.230
63468W        W35893  15.807   3.332   2.768
63469W        W35894   3.429  40.326   2.342
63470W        W35895   4.917  33.437   3.635
63471W        W35896  31.049   7.711   3.675
63472W        W35897  29.470   8.679  13.497
63473W        W35898  43.364   6.399  11.873
63474W        W35899  28.185  38.933   2.202
63475W        W35900   5.800   5.438  11.489
63476W        W35901  42.378  33.129  14.275
63477W        W35902  17.287  19.536   3.671
63478W        W35903  27.186  36.560   3.634
63479W        W35904  10.365   3.942  11.422
63480W        W35905  22.250  40.033  11.597
63481W        W35906  24.689  43.465   4.254
63482W        W35907  12.217  42.877   4.136
63483W        W35908   4.306  22.529   0.354
63484W        W35909  22.723  37.071  10.501
63485W        W35910   0.312  41.872   2.689
63486W        W35911  39.863  28.127   3.858
63487W        W35912   5.279   2.401  14.844
63488W        W35913  11.700   8.303   3.867
63489W        W35914   9.239  40.459   2.410
63490W        W35915  15.227   5.357  13.925
63491W        W35916  27.064  12.330  13.428
63492W        W35917  40.851  44.323  10.611
63493W        W35918   4.938   9.843   0.900
63494W        W35919  35.435  22.704   0.319
63495W        W35920  29.616   0.842  13.360
63496W        W35921  19.711  34.429   2.757
63497W        W35922   8.787   3.385   3.751
63498W        W35923  26.162  28.478  11.998
63499W        W35924  34.595   5.424   0.733
63500W        W35925  32.937   5.253  11.006
63501W        W35926   4.893  36.406  10.457
63502W        W35927  22.666  12.209   9.972
63503W        W35928  21.603  34.094   2.671
63504W        W35929  43.017  36.951   0.751
63505W        W35930  22.624  21.243   0.942
63506W        W35931  18.076  28.940   1.782
63507W        W35932  24.156  36.546   3.765
63508W        W35933   0.885   7.724  12.088
63509W        W35934  34.493  41.973   4.634
63510W        W35935  30.152   3.354  10.554
63511W        W35936  24.656  30.495  10.970
63512W        W35937  20.525  18.069  12.034
63513W        W35938  28.442  36.465  13.451
63514W        W35939  26.678  24.133  10.542
63515W        W35940  32.115  19.742  13.851
63516W        W35941  27.582  44.473  11.584
63517W        W35942   4.848  19.190   2.676
63518W        W35943   1.957  33.593  14.291
63519W        W35944  34.027  10.854  11.051
63520W        W35945  29.124  17.190  14.326
63521W        W35946  39.950  11.681   1.364
63522W        W35947  37.024   2.275   1.382
63523W        W35948  17.246  16.573   4.613
63524W        W35949   6.711  41.394   3.218
63525W        W35950  17.617   1.743  13.869
63526W        W35951  40.007  18.263   1.882
63527W        W35952  30.536  40.981   3.702
63528W        W35953   4.790  44.767  12.447
63529W        W35954   2.398  20.069  11.383
63530W        W35955  43.327   2.731  12.385
63531W        W35956  10.635  36.349  14.882
63532W        W35957  43.451  33.450  14.030
63533W        W35958  32.427  35.872   4.773
63534W        W35959  14.822   1.808  14.505
63535W        W35960  12.775  18.232   3.693
63536W        W35961  16.109   9.244   0.427
63537W        W35962  42.952  13.619  14.441
63538W        W35963  11.192   6.881  14.790
63539W        W35964   1.336  18.116  11.450
63540W        W35965  40.440  32.143  14.921
63541W        W35966  15.768  29.049   1.332
63542W        W35967  15.797   0.844  14.005
63543W        W35968  42.935  39.030  13.459
63544W        W35969  16.294  27.536  14.916
63545W        W35970  38.920  11.181  13.500
63546W        W35971  22.545   6.869   2.662
63547W        W35972  33.057   1.806   0.729
63548W        W35973  30.115  18.118  13.543
63549W        W35974  15.216  39.891   0.921
63550W        W35975   0.796  14.227  10.115
63551W        W35976  12.359   9.227   4.833
63552W        W35977   7.906  40.469   0.430
63553W        W35978  18.755  25.556  12.947
63554W        W35979  39.968   7.197  12.397
63555W        W35980  10.653  17.171   0.466
63556W        W35981  44.992   0.331  12.384
63557W        W35982  30.649  19.085  10.943
63558W        W35983   7.833   1.739   1.793
63559W        W35984  29.142  21.747  10.965
63560W        W35985   9.258  44.293  12.043
63561W        W35986   4.208  44.309   0.832
63562W        W35987   0.294  34.957  10.904
63563W        W35988  39.835  34.477  12.884
63564W        W35989   0.420  23.508  14.479
63565W        W35990   5.218  20.268   0.477
63566W        W35991   3.733  26.196   0.270
63567W        W35992  41.819  17.787  13.864
63568W        W35993  24.580  38.005  11.052
63569W        W35994   7.891  44.351   4.689
63570W        W35995   8.805  39.365  14.495
63571W        W35996  29.958   9.768  10.470
63572W        W35997  27.954  12.338  14.995
63573W        W35998  16.142   4.881  11.975
63574W        W35999   2.266  10.687   3.199
63575W        W36000  42.378  25.090  13.363
63576W        W36001  26.086   9.376   0.359
63577W        W36002  24.066  34.118   0.922
63578W        W36003   8.214  28.644  11.866
63579W        W36004  37.082   0.919  11.049
63580W        W36005  14.183   9.813  14.789
63581W        W36006  40.838  35.464  10.531
63582W        W36007  44.777  35.068  12.485
63583W        W36008   2.787  22.638  10.612
63584W        W36009  23.099  15.602  10.576
63585W        W36010  39.455  34.486  13.037
63586W        W36011   3.255  30.542  14.927
63587W        W36012  41.819  26.059  10.625
63588W        W36013  33.057  17.746  10.624
63589W        W36014  30.081  16.200  10.973
63590W        W36015   9.683  36.002  10.538
63591W        W36016  40.964   3.762  13.329
63592W        W36017  41.963  10.860  11.920
63593W        W36018  11.355  25.572   2.828
63594W        W36019   7.875  15.757   0.742
63595W        W36020  33.568  41.344   5.153
63596W        W36021  36.489  10.301  13.812
63597W        W36022  40.980  35.417   4.698
63598W        W36023   7.337  42.356  11.959
63599W        W36024   7.367  44.497   4.703
63600W        W36025  28.022   4.307   1.828
63601W        W36026  44.430   2.259  10.582
63602W        W36027  33.008  27.971  10.966
63603W        W36028  12.277  13.168   0.337
63604W        W36029  10.738  17.219  14.313
63605W        W36030  31.578  36.562   0.256
63606W        W36031  31.462  40.364   1.930
63607W        W36032   0.927   4.241   4.122
63608W        W36033  29.939  31.553  14.819
63609W        W36034  29.161  33.018  11.469
63610W        W36035  20.627   9.760  10.406
63611W        W36036  27.623  34.020  12.916
63612W        W36037  13.334  15.643  12.075
63613W        W36038  35.369  23.732   2.404
63614W        W36039   9.377   7.182   3.214
63615W        W36040  40.984  43.009  11.066
63616W        W36041  39.055  17.686   2.352
63617W        W36042   9.207  16.648   1.729
63618W        W36043  44.811  21.236  11.064
63619W        W36044  30.163  39.515   0.737
63620W        W36045   6.417  27.966   2.275
63621W        W36046  36.390   6.878   3.313
63622W        W36047  37.503  29.135  10.419
63623W        W36048  29.090  43.409  11.477
63624W        W36049  13.767  14.638   1.262
63625W        W36050  16.705   6.793  12.872
63626W        W36051   6.221  23.511   1.837
63627W        W36052  21.677  37.083  14.866
63628W        W36053  11.363  24.980   0.415
63629W        W36054  25.962  43.409   0.362
63630W        W36055   8.711   0.338  14.987
63631W        W36056   9.759   2.244   1.871
63632W        W36057  23.214  30.453  12.078
63633W        W36058  18.722  43.816  11.479
63634W        W36059  11.701  26.696   3.796
63635W        W36060  40.452   7.398   1.325
63636W        W36061  31.094   3.340   1.760
63637W        W36062  36.060   8.689   5.179
63638W        W36063  33.538  27.120   4.258
63639W        W36064  11.855  25.552   4.715
63640W        W36065   1.418  42.959   4.837
63641W        W36066  22.031   9.217  12.538
63642W        W36067   1.803  33.074   3.271
63643W        W36068  32.630  25.694  10.506
63644W        W36069   7.351  30.032   1.243
63645W        W36070  32.573   0.785  13.031
63646W        W36071  21.158  11.804   1.826
63647W        W36072  18.763  12.666   3.234
63648W        W36073  10.156  28.626  13.932
63649W        W36074   8.248   7.186   0.962
63650W        W36075   4.705  30.513  11.108
63651W        W36076  20.042  17.087  10.536
63652W        W36077   8.866  39.356  11.559
63653W        W36078  42.502  11.775   1.450
63654W        W36079  10.215   3.826  13.897
63655W        W36080  43.300  35.521  13.876
63656W        W36081  44.936   1.808   4.636
63657W        W36082  12.230  24.181   1.918
63658W        W36083  39.376  18.573   3.232
63659W        W36084  20.142   1.283  13.522
63660W        W36085  37.975   6.428  14.029
63661W        W36086  39.827  29.002  13.427
63662W        W36087  22.227  40.516   4.705
63663W        W36088  22.129  15.803  11.868
63664W        W36089  11.225  37.861   0.904
63665W        W36090  43.972  30.099   4.726
63666W        W36091  44.359  16.750  12.475
63667W        W36092   2.250  18.732   0.868
63668W        W36093  15.658  11.338   0.441
63669W        W36094  21.137   1.281   2.221
63670W        W36095   4.412  29.092  10.507
63671W        W36096   4.875  33.497  11.977
63672W        W36097  27.492  32.996   3.157
63673W        W36098  40.027  10.201   0.298
63674W        W36099  28.027  31.009  14.838
63675W        W36100  17.676  20.182  11.083
63676W        W36101  27.498   9.769   4.763
63677W        W36102   8.723  32.982  10.594
63678W        W36103   4.207  34.393   2.693
63679W        W36104  40.329  26.130  13.410
63680W        W36105  25.623  14.300   0.333
63681W        W36106  39.890  13.183  12.496
63682W        W36107  35.014   5.260  11.956
63683W        W36108   3.299  14.647  13.402
63684W        W36109  34.480  27.033   2.688
63685W        W36110   5.316  20.535   3.712
63686W        W36111  13.344  20.035   2.207
63687W        W36112  29.545  32.511  10.474
63688W        W36113  10.190  44.292  11.886
63689W        W36114  40.854  12.821  14.809
63690W        W36115  22.576   7.867  12.948
63691W        W36116  37.031  23.236   2.334
63692W        W36117   4.265   9.220  12.356
63693W        W36118  11.721  34.429  12.976
63694W        W36119   9.691  25.178   1.399
63695W        W36120   5.357  11.843  10.621
63696W        W36121  25.118  17.663   2.696
63697W        W36122   3.348  37.844  12.944
63698W        W36123   9.362  26.662  10.985
63699W        W36124   2.818  28.573   4.282
63700W        W36125  38.542  27.996   3.163
63701W        W36126  10.351  37.881  13.013
63702W        W36127  15.594  37.877   1.761
63703W        W36128  23.515  16.740  11.918
63704W        W36129  15.110  34.928   1.927
63705W        W36130  27.195  40.818  11.518
63706W        W36131  31.055  16.212   2.669
63707W        W36132  21.031   6.886   4.652
63708W        W36133  33.593   2.885  13.908
63709W        W36134  35.906  30.032  12.889
63710W        W36135  44.453  34.969  10.601
63711W        W36136   4.924  42.305   1.308
63712W        W36137  43.289   7.895   0.437
63713W        W36138  20.266  27.951   1.808
63714W        W36139  19.718  14.209  11.466
63715W        W36140  16.679  10.384  13.473
63716W        W36141  18.737  42.320   1.445
63717W        W36142  33.878  27.669   2.189
63718W        W36143  18.077  25.056  13.943
63719W        W36144  23.183  19.718   1.786
63720W        W36145  35.447  34.074  14.886
63721W        W36146   0.435  33.879  14.962
63722W        W36147  32.025   6.906  12.032
63723W        W36148  14.721  36.086   1.255
63724W        W36149   0.957  10.183   1.766
63725W        W36150  11.242  23.701   2.854
63726W        W36151  27.179   4.751  11.888
63727W        W36152  26.600  26.011   1.930
63728W        W36153   1.362  11.835  12.429
63729W        W36154   4.816  41.916  11.951
63730W        W36155   5.226  19.744  13.035
63731W        W36156   9.313  41.903   0.798
63732W        W36157  15.194   0.305  13.835
63733W        W36158   8.656  18.659   0.317
63734W        W36159  40.983  26.983  13.062
63735W        W36160  44.364  11.331   2.356
63736W        W36161   3.313   2.443  12.511
63737W        W36162  14.226  26.968  12.450
63738W        W36163   4.353   5.211   0.326
63739W        W36164  42.002  18.746   2.204
63740W        W36165  36.871  13.810  14.879
63741W        W36166  43.928  29.481  14.275
63742W        W36167  13.268  21.747   2.367
63743W        W36168  40.415  28.137   3.699
63744W        W36169  34.601  23.547   4.714
63745W        W36170   7.828   7.276   9.927
63746W        W36171   5.785  30.440  12.525
63747W        W36172  18.198   0.748   3.239
63748W        W36173  15.100   0.752   0.458
63749W        W36174   1.478  41.413   4.649
63750W        W36175  30.064  17.789   4.787
63751W        W36176   5.832  28.561   2.747
63752W        W36177  16.687  30.616   4.644
63753W        W36178   3.903   5.729  11.391
63754W        W36179  18.613   6.738   1.699
63755W        W36180  18.207   6.228   1.697
63756W        W36181  18.160  37.860  13.432
63757W        W36182  19.112   7.796  12.529
63758W        W36183  15.656  23.988  12.432
63759W        W36184  12.301  31.989  10.442
63760W        W36185  41.292  27.156  13.836
63761W        W36186  11.623   7.274   1.841
63762W        W36187  35.864  12.769   0.343
63763W        W36188  33.469  12.624   0.438
63764W        W36189  22.137  23.066  14.412
63765W        W36190  11.751  39.821   4.242
63766W        W36191  28.101  42.816  14.914
63767W        W36192  35.601   0.408  13.423
63768W        W36193  18.681   4.294   2.278
63769W        W36194  18.787   6.279   1.374
63770W        W36195  21.141  44.933  13.926
63771W        W36196  42.889   1.432  10.444
63772W        W36197  38.865  15.809  12.869
63773W        W36198   8.716  19.673  12.580
63774W        W36199  44.471  40.037   4.174
63775W        W36200  44.993  43.281   1.740
63776W        W36201  37.456  27.087  13.476
63777W        W36202  28.185  43.503  10.598
63778W        W36203  18.651   5.232   0.785
63779W        W36204  44.411  14.205  13.339
63780W        W36205  10.805   4.770   0.471
63781W        W36206   8.294  20.707   4.688
63782W        W36207   6.247  10.846   4.835
63783W        W36208  15.097  25.045   4.266
63784W        W36209  41.450   5.435   1.784
63785W        W36210  14.735   5.900   1.258
63786W        W36211   5.767  41.994  11.549
63787W        W36212  34.017  12.741   3.758
63788W        W36213   5.871  26.125   0.886
63789W        W36214  11.362  40.485   3.329
63790W        W36215  34.026  28.544   0.916
63791W        W36216  18.644  34.396  13.064
63792W        W36217  10.781  44.280  13.486
63793W        W36218  14.659  23.235   3.340
63794W        W36219  16.600   3.424   2.740
63795W        W36220  29.115  28.090  14.886
63796W        W36221  10.272  21.515  11.122
63797W        W36222  21.085  19.084  13.810
63798W        W36223  39.907  31.555  11.385
63799W        W36224  17.285   6.770  13.814
63800W        W36225  11.845  26.145  13.431
63801W        W36226  32.992  42.782   9.985
63802W        W36227  10.803  29.479  14.371
63803W        W36228   1.941  39.498  14.365
63804W        W36229  27.983  27.649  11.068
63805W        W36230  25.048  31.615  14.870
63806W        W36231   9.802  42.811   3.713
63807W        W36232  16.639  37.988  10.895
63808W        W36233  29.666  31.641  13.862
63809W        W36234  16.218   0.786  12.362
63810W        W36235  27.523   6.201   3.646
63811W        W36236   1.293  20.706   0.768
63812W        W36237  39.494   4.265   2.772
63813W        W36238  26.564  10.241  14.995
63814W        W36239  24.587  27.949  12.534
63815W        W36240   6.412  32.000   1.397
63816W        W36241  22.158  24.188  12.003
63817W        W36242  12.216  27.491  13.802
63818W        W36243  31.635  17.081  13.525
63819W        W36244  26.116  22.564  14.990
63820W        W36245  36.871  23.162   0.736
63821W        W36246  18.562  31.067   4.775
63822W        W36247   4.359  15.119  12.972
63823W        W36248  18.657   5.925   0.914
63824W        W36249  40.959  32.992  13.336
63825W        W36250  21.262  21.076   2.707
63826W        W36251  31.578  20.220   4.254
63827W        W36252  29.016  20.675   2.322
63828W        W36253  38.940  21.079   5.148
63829W        W36254  14.256  17.558  12.049
63830W        W36255  18.694   8.370  14.349
63831W        W36256  23.216  40.406   0.770
63832W        W36257  27.595  30.545   9.981
63833W        W36258  41.835  27.669  11.479
63834W        W36259  29.028  42.862  11.128
63835W        W36260   0.919  30.144   1.295
63836W        W36261  25.518  25.215  14.419
63837W        W36262  22.172  21.561  11.058
63838W        W36263   2.427  40.914  14.413
63839W        W36264   7.692   6.222  13.326
63840W        W36265  29.547  14.130   0.821
63841W        W36266  21.082  39.461   3.297
63842W        W36267  12.677  18.094  14.843
63843W        W36268  12.708  41.805   2.209
63844W        W36269   5.934  36.588   3.849
63845W        W36270  24.678  34.120  12.489
63846W        W36271  31.603  27.595  10.938
63847W        W36272  12.218  31.474   4.288
63848W        W36273  18.546  22.140   1.353
63849W        W36274  12.743  27.104  10.972
63850W        W36275   5.386  38.888   3.243
63851W        W36276  20.701  17.716  13.985
63852W        W36277  27.954  24.978   4.183
63853W        W36278   0.793  12.188  13.319
63854W        W36279  19.557  26.996   4.742
63855W        W36280  30.620  34.446   2.247
63856W        W36281  27.948  23.012  13.340
63857W        W36282  42.382   8.813  12.482
63858W        W36283   1.307  31.059  11.439
63859W        W36284  29.655   1.854  11.062
63860W        W36285  39.371   1.862   0.847
63861W        W36286   8.273   6.896   3.632
63862W        W36287  32.394  29.665   0.396
63863W        W36288  23.716  30.138  11.391
63864W        W36289  16.718  41.494  14.442
63865W        W36290  20.646  25.150  10.426
63866W        W36291  43.416  14.803   4.688
63867W        W36292  39.030   5.790   4.719
63868W        W36293   6.419  13.830  12.831
63869W        W36294  18.594   9.336  11.440
63870W        W36295  36.466  24.561  13.917
63871W        W36296  33.094  10.778  12.960
63872W        W36297  20.551  25.091  13.824
63873W        W36298  20.058  27.675   0.911
63874W        W36299  20.710  12.689  11.402
63875W        W36300  40.455   4.434  10.601
63876W        W36301  41.341  16.745  13.797
63877W        W36302  10.210  15.730  12.353
63878W        W36303  12.164  28.969  12.910
63879W        W36304  33.913  12.672   0.863
63880W        W36305  19.113  14.296   1.831
63881W        W36306  39.001  18.575   1.858
63882W        W36307  42.295  18.698  13.992
63883W        W36308  33.419  34.020  11.457
63884W        W36309  32.626   8.877   2.406
63885W        W36310   1.362   7.722  14.438
63886W        W36311   0.821  37.422   3.247
63887W        W36312  33.408  14.819  11.872
63888W        W36313   7.191   6.808  12.914
63889W        W36314  11.226  21.642  10.899
63890W        W36315  41.928  44.005  10.539
63891W        W36316  39.484  28.591  10.520
63892W        W36317  30.027  28.466   2.385
63893W        W36318  37.086   5.688   2.844
63894W        W36319  44.766  12.243   3.721
63895W        W36320  33.038   9.837  10.606
63896W        W36321   6.185  17.197  12.068
63897W        W36322  33.453   9.381   1.729
63898W        W36323  15.721  22.670  11.938
63899W        W36324  43.906  44.807   1.227
63900W        W36325  19.271  29.564   3.815
63901W        W36326  31.433  21.083  12.933
63902W        W36327  30.040  11.757  13.802
63903W        W36328  14.097   9.275  14.436
63904W        W36329   8.751  28.110  14.415
63905W        W36330  12.618   9.875  11.959
63906W        W36331  25.628  10.263  14.958
63907W        W36332  14.297  29.654   1.806
63908W        W36333  24.700   5.834   2.288
63909W        W36334  17.213  26.555   2.862
63910W        W36335   6.835  24.193   4.787
63911W        W36336  20.055  23.233   0.323
63912W        W36337  29.494  36.349  14.940
63913W        W36338  10.640  41.395  11.394
63914W        W36339  43.320  26.658   3.737
63915W        W36340   0.470  11.178   0.784
63916W        W36341  26.954   9.840   1.442
63917W        W36342  43.871  42.413   3.300
63918W        W36343  42.527  38.023  11.413
63919W        W36344   1.291  32.997   4.653
63920W        W36345  31.913  21.612   0.777
63921W        W36346  28.636  38.008  11.406
63922W        W36347  17.074  44.319  11.967
63923W        W36348  35.453  25.004  11.934
63924W        W36349  38.843  40.017  13.855
63925W        W36350  36.055  19.646   1.356
63926W        W36351  22.998  42.403   0.362
63927W        W36352   0.413  26.979  13.883
63928W        W36353   8.848  29.634   3.719
63929W        W36354  17.174   5.437  13.469
63930W        W36355  22.608  26.521  12.833
63931W        W36356  18.595  35.565   4.599
63932W        W36357  18.740  12.246  14.795
63933W        W36358  25.533  19.625  13.011
63934W        W36359  32.101  15.814  12.508
63935W        W36360   9.327  40.938   2.674
63936W        W36361   8.233  31.977  14.283
63937W        W36362  17.711   2.748  13.427
63938W        W36363   3.955  30.923  11.399
63939W        W36364  11.730  42.458   3.816
63940W        W36365   6.339  23.517   2.348
63941W        W36366   2.269  11.661  14.489
63942W        W36367  24.522  28.148  14.879
63943W        W36368  28.128  40.817   0.255
63944W        W36369   9.737   5.415  13.346
63945W        W36370   4.218  16.677  12.980
63946W        W36371  35.076  36.873   4.703
63947W        W36372  42.409  14.144  10.455
63948W        W36373  11.762  29.918  11.908
63949W        W36374  27.603  31.912   3.194
63950W        W36375  20.043   3.419  13.435
63951W        W36376  27.483  44.348   0.802
63952W        W36377  20.190  41.952   4.182
63953W        W36378  25.052   0.282  14.371
63954W        W36379  35.557  43.925  13.353
63955W        W36380  39.504  19.082   4.704
63956W        W36381  18.055  28.674  10.439
63957W        W36382  20.268  23.550  10.446
63958W        W36383  41.460   7.730  14.872
63959W        W36384  16.778  19.070  10.567
63960W        W36385  19.697   7.799  12.002
63961W        W36386  36.534  21.198   1.222
63962W        W36387  37.566  40.329   1.413
63963W        W36388   5.872  36.460  12.984
63964W        W36389   7.220  33.521  11.870
63965W        W36390  14.129  39.816  10.502
63966W        W36391   7.412  44.839   0.888
63967W        W36392  24.577  18.278  11.955
63968W        W36393  35.572  42.918  12.523
63969W        W36394  24.131  40.454   4.656
63970W        W36395  10.669   2.405   4.818
63971W        W36396   9.728  14.111  10.509
63972W        W36397  44.842  32.978  14.341
63973W        W36398   4.783  33.984   3.262
63974W        W36399  14.263  42.415   0.384
63975W        W36400  32.054  33.947   0.482
63976W        W36401   1.735   6.377   0.938
63977W        W36402  33.064  40.855   1.325
63978W        W36403  39.926  19.753  14.392
63979W        W36404  41.973  31.496  14.364
63980W        W36405  32.527  24.674   3.176
63981W        W36406  19.596   8.162  13.939
63982W        W36407   7.716  12.124  11.412
63983W        W36408  31.933  34.513  12.436
63984W        W36409  23.679  27.492   0.751
63985W        W36410  23.166  20.244  14.900
63986W        W36411   5.354   1.438  14.478
63987W        W36412  17.796  41.515  11.960
63988W        W36413  34.003   0.816  12.059
63989W        W36414  33.577  43.419   4.296
63990W        W36415  37.442  23.655  14.413
63991W        W36416  26.043  22.228  11.907
63992W        W36417  37.402   0.386   2.755
63993W        W36418  36.013  14.621   5.208
63994W        W36419  19.765  25.210   4.686
63995W        W36420   9.685   0.305  11.442
63996W        W36421  36.863   9.168  13.968
63997W        W36422  27.548  38.964   1.350
63998W        W36423  42.504   5.830  12.558
63999W        W36424   0.282  42.506  10.931
64000W        W36425  22.206  25.188  11.029
64001W        W36426  12.159   6.895   1.307
64002W        W36427   5.385  30.090   3.734
64003W        W36428  33.006  13.249  12.976
64004W        W36429  24.222  32.613  10.957
64005W        W36430  44.456  41.826  14.941
64006W        W36431  20.567   1.374  14.343
64007W        W36432  37.526   9.259  10.542
64008W        W36433  11.846  27.581   2.242
64009W        W36434   7.261  30.417  13.515
64010W        W36435  40.837  19.184   1.312
64011W        W36436   8.803   4.925  14.786
64012W        W36437  25.191  31.630   0.289
64013W        W36438  42.783  43.317   4.119
64014W        W36439  15.102  38.848   2.784
64015W        W36440  29.982  40.926   3.183
64016W        W36441  38.326  21.683  13.482
64017W        W36442  41.946  26.642  10.025
64018W        W36443  40.523  26.695   3.665
64019W        W36444   7.386   6.353  12.034
64020W        W36445   9.731  12.173  10.584
64021W        W36446  22.998  11.779  14.934
64022W        W36447  21.559  39.503   1.275
64023W        W36448  27.146  25.120  14.989
64024W        W36449  11.344   8.686  13.426
64025W        W36450  18.099  21.067   3.292
64026W        W36451   7.331  34.457   3.643
64027W        W36452   8.358  25.973   4.651
64028W        W36453  29.083  19.079  13.547
64029W        W36454  26.164  16.798   3.640
64030W        W36455   4.766  41.513  10.045
64031W        W36456   2.761  22.705   4.705
64032W        W36457  27.032  32.540  11.969
64033W        W36458  11.347  30.617   4.276
64034W        W36459  41.494  20.048  11.115
64035W        W36460  33.471  37.847   0.868
64036W        W36461  39.990   2.285   3.701
64037W        W36462  40.451  34.589  13.849
64038W        W36463  23.041   2.264  10.547
64039W        W36464  37.022  26.147  14.872
64040W        W36465   5.276   9.299  14.806
64041W        W36466  15.098  40.365  11.612
64042W        W36467  10.858  24.591  11.034
64043W        W36468  10.233  31.992  11.412
64044W        W36469  21.585   4.903  10.410
64045W        W36470  40.340   6.855   1.216
64046W        W36471  20.169  19.763   1.387
64047W        W36472  44.953   9.179  13.376
64048W        W36473  24.579  24.195  11.512
64049W        W36474  19.273  23.645   2.781
64050W        W36475  21.517  20.211   4.205
64051W        W36476  27.637  35.863   3.329
64052W        W36477  24.026  19.639   1.848
64053W        W36478   0.257  43.856  11.957
64054W        W36479  28.021  12.698  10.063
64055W        W36480  44.918  43.499  14.830
64056W        W36481  17.189  36.009   3.750
64057W        W36482  32.083  17.087  12.579
64058W        W36483  32.563  44.498   2.803
64059W        W36484  27.622  44.417  11.964
64060W        W36485  28.513  38.403  11.420
64061W        W36486   6.216  18.079   0.901
64062W        W36487   0.907  11.275   0.334
64063W        W36488  17.577   8.173   4.117
64064W        W36489  34.868  39.894   3.237
64065W        W36490  13.209  31.460   2.856
64066W        W36491  34.437  17.727  14.955
64067W        W36492  42.856  25.564   3.701
64068W        W36493  21.530  44.500  10.502
64069W        W36494  21.578  25.655  14.904
64070W        W36495  42.824  41.448  14.323
64071W        W36496  28.604  31.467  12.385
64072W        W36497   3.864  24.978   4.320
64073W        W36498  35.057  44.382  13.819
64074W        W36499   0.297  27.944  10.643
64075W        W36500   2.867  28.671   3.816
64076W        W36501   7.245  35.057   1.303
64077W        W36502  16.764  11.740  10.511
64078W        W36503  16.121   5.434  12.977
64079W        W36504  35.410  17.733  12.499
64080W        W36505  13.105  31.606   1.698
64081W        W36506  29.568  17.671   1.331
64082W        W36507   4.409   3.859   0.778
64083W        W36508  11.309  23.140   9.671
64084W        W36509  41.421   2.811  12.576
64085W        W36510  26.148  38.464  12.007
64086W        W36511  37.916  34.060  12.354
64087W        W36512  43.470  19.152  13.324
64088W        W36513   1.734  24.599   4.759
64089W        W36514  16.251  26.206   2.375
64090W        W36515  23.104  15.183   2.380
64091W        W36516  11.214  40.525  11.089
64092W        W36517  22.598  31.562  10.517
64093W        W36518  33.006   6.791   1.896
64094W        W36519  32.585  22.016   4.623
64095W        W36520  27.144  13.303   0.967
64096W        W36521   4.255  34.901  11.101
64097W        W36522   6.861  37.036   2.214
64098W        W36523  33.467  37.479  14.473
64099W        W36524  20.615  13.115   1.882
64100W        W36525  22.997   0.488   3.837
64101W        W36526  30.073  17.679   3.748
64102W        W36527  25.578   0.895   3.720
64103W        W36528  43.368  36.015  13.978
64104W        W36529  15.819  29.493  12.478
64105W        W36530  38.905  15.150  14.392
64106W        W36531  32.012   9.834  11.577
64107W        W36532  12.623   7.817  14.023
64108W        W36533  43.289   2.228  13.530
64109W        W36534  43.999  43.857  14.435
64110W        W36535   9.213  23.233   1.336
64111W        W36536   2.882  27.093  13.968
64112W        W36537  40.047  24.016  14.309
64113W        W36538  27.556  17.120   1.238
64114W        W36539  42.360  16.093  13.376
64115W        W36540  23.055   8.816   0.808
64116W        W36541   5.911   8.899  10.542
64117W        W36542  11.781  29.003  14.330
64118W        W36543  11.193  35.031   2.787
64119W        W36544  11.340  20.677   4.200
64120W        W36545   5.401  43.973   4.626
64121W        W36546  11.205  34.370  10.545
64122W        W36547  33.530   3.888   0.869
64123W        W36548  26.163  28.002  11.001
64124W        W36549  29.553   6.890  12.998
64125W        W36550  29.608  41.027  11.862
64126W        W36551  33.620  37.431  11.378
64127W        W36552   6.238  36.477   1.819
64128W        W36553  25.184   7.307  10.473
64129W        W36554  13.299  36.054  13.487
64130W        W36555  31.983   4.937  12.398
64131W        W36556   8.757  13.687  11.075
64132W        W36557  42.978  41.452   1.750
64133W        W36558  13.696   9.259   0.347
64134W        W36559   2.387  25.181  14.916
64135W        W36560  35.527   6.333  12.867
64136W        W36561  20.552   0.486  14.409
64137W        W36562  12.842  36.540   1.902
64138W        W36563  37.940   1.839  11.918
64139W        W36564  13.808  41.851  13.371
64140W        W36565  21.215  27.943   3.246
64141W        W36566  29.571  13.219   0.729
64142W        W36567   2.433  39.055   4.340
64143W        W36568  33.944  40.864  10.889
64144W        W36569   6.203   6.309   0.258
64145W        W36570  15.585  40.970  14.386
64146W        W36571  15.662  31.417   4.285
64147W        W36572  26.126  37.532   4.804
64148W        W36573  17.611  28.610  13.419
64149W        W36574  39.047  23.562  14.895
64150W        W36575   1.352  43.507  11.954
64151W        W36576  31.521  30.655   4.266
64152W        W36577  31.962  26.477  11.908
64153W        W36578  26.989   6.260   4.690
64154W        W36579  27.493  25.196  13.042
64155W        W36580   8.372  24.629   2.729
64156W        W36581   1.348   5.732  13.991
64157W        W36582  10.353  38.520   1.792
64158W        W36583  14.218   0.764   2.373
64159W        W36584  34.921  25.106   2.408
64160W        W36585  36.519  28.472   0.380
64161W        W36586  14.712   8.710  13.865
64162W        W36587  13.713   1.849   1.747
64163W        W36588   3.348  28.093   3.284
64164W        W36589  20.141  21.168  12.515
64165W        W36590   5.416  34.985   3.248
64166W        W36591  18.551   7.371  14.800
64167W        W36592  38.946   8.714  12.945
64168W        W36593   6.795  19.734  10.561
64169W        W36594  25.022  33.950  12.831
64170W        W36595  14.245  20.137   2.244
64171W        W36596   2.777  16.783   3.730
64172W        W36597  30.479  19.102   0.282
64173W        W36598  15.734  44.475   0.375
64174W        W36599  20.271  28.435  13.006
64175W        W36600  33.514  28.531  12.934
64176W        W36601  44.799   6.225  12.081
64177W        W36602  18.712  24.107   0.399
64178W        W36603  25.645  27.117  11.026
64179W        W36604   5.838  22.080  14.886
64180W        W36605  33.877  41.790  11.604
64181W        W36606  13.299  10.638   3.799
64182W        W36607   9.761   4.370  13.833
64183W        W36608   2.432   5.897  13.364
64184W        W36609  14.323  13.327  14.985
64185W        W36610  26.973  27.536  12.355
64186W        W36611  41.812   6.764   2.368
64187W        W36612   6.354  14.287  11.036
64188W        W36613  27.133  22.234  12.033
64189W        W36614   6.835   8.655  14.899
64190W        W36615  15.728  14.336   2.808
64191W        W36616  41.981  36.552  13.984
64192W        W36617  20.057  41.480   5.308
64193W        W36618  26.541  28.990  12.555
64194W        W36619  31.407  38.899  11.977
64195W        W36620   1.389   6.362  11.871
64196W        W36621  41.798  24.016  11.443
64197W        W36622  37.932  22.597   4.631
64198W        W36623  35.524  35.500  14.447
64199W        W36624   3.753   7.343   0.781
64200W        W36625  31.558  16.617  11.903
64201W        W36626  33.545  16.236   0.734
64202W        W36627   1.877   3.333   9.944
64203W        W36628  14.643  44.403   4.288
64204W        W36629  23.151  36.870  11.409
64205W        W36630  22.637  23.636   0.428
64206W        W36631  34.528  11.815   1.836
64207W        W36632  27.159  43.778   3.803
64208W        W36633  10.684  16.135  13.820
64209W        W36634   1.362  30.604   0.805
64210W        W36635  16.084  28.004  14.767
64211W        W36636   3.253   4.831  12.956
64212W        W36637  33.903  19.203  13.406
64213W        W36638  12.269  22.132  11.093
64214W        W36639  39.997  24.141   3.725
64215W        W36640  15.671  14.696   3.200
64216W        W36641  26.697  40.412   5.289
64217W        W36642  23.657  37.854   4.157
64218W        W36643  44.853  23.692   1.783
64219W        W36644  42.452  24.096   1.805
64220W        W36645  44.975  17.165   1.793
64221W        W36646  44.802   7.851   0.243
64222W        W36647  18.121  40.941  11.991
64223W        W36648  17.281  31.055   5.256
64224W        W36649  41.403   1.458  14.930
64225W        W36650   8.834   4.341  10.425
64226W        W36651   4.298  41.035  13.899
64227W        W36652  29.147   2.754   2.257
64228W        W36653   1.338  38.865  10.551
64229W        W36654  17.646  34.528   4.828
64230W        W36655   1.342  31.047   3.861
64231W        W36656  44.401   8.684  11.600
64232W        W36657  21.185  30.145   0.939
64233W        W36658   8.192  21.211  12.952
64234W        W36659  27.630  31.969  11.044
64235W        W36660   9.394  22.248  14.363
64236W        W36661  40.434  17.685  11.914
64237W        W36662  33.972  13.823  14.842
64238W        W36663  39.864   8.186  12.939
64239W        W36664  25.634   7.363   2.888
64240W        W36665  15.167  33.036   1.905
64241W        W36666  28.494   3.248   3.365
64242W        W36667  18.115  30.451   4.830
64243W        W36668  42.823  32.405  11.036
64244W        W36669   9.261  29.435   4.759
64245W        W36670  26.121  20.615  13.346
64246W        W36671  20.761  14.718  11.889
64247W        W36672   7.774  20.564   0.403
64248W        W36673  19.257  37.410   3.836
64249W        W36674   1.783  18.055   0.266
64250W        W36675   8.741   5.237  13.867
64251W        W36676  30.477  41.012  14.330
64252W        W36677   1.423  20.196   2.281
64253W        W36678  10.292  40.464  11.120
64254W        W36679  41.034  17.192   3.292
64255W        W36680  20.660  39.459  14.920
64256W        W36681  39.931  30.455   0.379
64257W        W36682  30.611   8.257   2.219
64258W        W36683   2.356  38.327  12.968
64259W        W36684  34.542   6.187  11.530
64260W        W36685  44.979  11.130   4.169
64261W        W36686  23.497  25.574  10.579
64262W        W36687  14.154  26.137  13.425
64263W        W36688   8.274  40.349   2.365
64264W        W36689  44.275  14.295   0.474
64265W        W36690  37.015  19.254   3.769
64266W        W36691  25.171  39.859  11.601
64267W        W36692   2.375  31.092   0.434
64268W        W36693  32.892  31.918   0.921
64269W        W36694  30.546  23.547   0.387
64270W        W36695  13.808   9.336   3.802
64271W        W36696  11.816  21.574  11.603
64272W        W36697   8.303   4.290  11.026
64273W        W36698  39.000   1.243   4.803
64274W        W36699  12.692   4.781   3.729
64275W        W36700  36.381  36.428   4.340
64276W        W36701   4.797   7.350  13.532
64277W        W36702  41.487  15.668   3.204
64278W        W36703  17.768  21.705  10.535
64279W        W36704  40.017  21.142   1.813
64280W        W36705  31.584  28.101   4.604
64281W        W36706  19.114  37.877   0.244
64282W        W36707   6.364   2.410   1.392
64283W        W36708  29.150  15.775  13.063
64284W        W36709   3.236  15.753   4.756
64285W        W36710  34.435  34.584   4.235
64286W        W36711   7.205  43.467  13.340
64287W        W36712  31.019   2.410   5.087
64288W        W36713  14.301  37.441   3.366
64289W        W36714  39.028  26.195  10.510
64290W        W36715   1.410  18.639   1.313
64291W        W36716   9.663  22.214  12.030
64292W        W36717  27.998   2.284  13.052
64293W        W36718  12.168  23.719   1.433
64294W        W36719   1.964  17.299  12.388
64295W        W36720   7.341  24.538  13.388
64296W        W36721  28.668  15.765  12.523
64297W        W36722  43.017  23.546   0.946
64298W        W36723  13.644  20.566   4.710
64299W        W36724   5.693  32.946   2.346
64300W        W36725  22.170   9.700  12.408
64301W        W36726   3.949  27.635  14.845
64302W        W36727  24.697  31.904   0.766
64303W        W36728  32.904   0.923  11.112
64304W        W36729  10.274  42.961   1.429
64305W        W36730  33.538  12.137   2.376
64306W        W36731  33.607  43.860  13.890
64307W        W36732  40.053  22.602  12.937
64308W        W36733   1.967   9.301   3.237
64309W        W36734  37.412  23.133  13.380
64310W        W36735  27.628  37.439  10.980
64311W        W36736  14.626  33.550  11.606
64312W        W36737  27.110  30.585   1.359
64313W        W36738  40.921  19.063  14.010
64314W        W36739  42.939   7.797  14.926
64315W        W36740   9.722  36.455  12.432
64316W        W36741  12.817   8.224   4.816
64317W        W36742  34.041  16.590  14.789
64318W        W36743  13.213  29.582   4.351
64319W        W36744  20.676  27.484   3.833
64320W        W36745   0.371  38.493  14.450
64321W        W36746  33.613  15.124  13.316
64322W        W36747  24.539   3.889  11.908
64323W        W36748  24.725  28.064  14.009
64324W        W36749  17.281  13.200  11.965
64325W        W36750   6.761  37.943  11.440
64326W        W36751   4.845   7.216   5.101
64327W        W36752   9.656  14.270   0.433
64328W        W36753  16.805  42.420  14.965
64329W        W36754  11.279  32.084   2.774
64330W        W36755   5.890  38.450  13.968
64331W        W36756  15.652   6.264   3.686
64332W        W36757  26.466  12.700   0.453
64333W        W36758  22.598  17.592   0.734
64334W        W36759  22.179  44.403   4.610
64335W        W36760  12.188  30.428   1.745
64336W        W36761  37.945   6.343   4.335
64337W        W36762  37.004   3.228   4.607
64338W        W36763   5.298  42.346  12.539
64339W        W36764  12.253  32.998   1.718
64340W        W36765  17.180  41.931  13.932
64341W        W36766  25.135   8.262  13.960
64342W        W36767  17.065   6.790  12.452
64343W        W36768  40.461  32.576   3.384
64344W        W36769  23.606   4.890  13.350
64345W        W36770  24.539  28.934  14.012
64346W        W36771  34.579   6.340   0.928
64347W        W36772  19.195  10.680  12.997
64348W        W36773   4.300  10.775  11.596
64349W        W36774  22.166  42.414   3.732
64350W        W36775  43.015  25.181   4.823
64351W        W36776  27.598  19.630  11.971
64352W        W36777  26.558   1.415  14.019
64353W        W36778  23.187  21.723  13.995
64354W        W36779  16.759  14.733   2.668
64355W        W36780  22.131   7.228  14.880
64356W        W36781  33.490  30.162  12.863
64357W        W36782  12.804  17.084   2.831
64358W        W36783   8.232  20.096   1.327
64359W        W36784  42.023  14.097  14.420
64360W        W36785  44.935  11.822  10.514
64361W        W36786  31.632  21.583   3.679
64362W        W36787   5.695  20.210   3.688
64363W        W36788  12.621  37.557   4.285
64364W        W36789  13.191  17.696  14.787
64365W        W36790  44.379   2.358   0.450
64366W        W36791  10.853  29.433   3.304
64367W        W36792   2.782  43.853   4.156
64368W        W36793   9.319  14.673   3.212
64369W        W36794  21.194   0.383  12.946
64370W        W36795  37.938  31.600  11.597
64371W        W36796  19.092   8.868   0.813
64372W        W36797  25.511  34.547  10.600
64373W        W36798   6.765  43.916   4.838
64374W        W36799  17.579  25.068   4.225
64375W        W36800  33.571  16.250  12.886
64376W        W36801  12.728  41.908  12.934
64377W        W36802   7.266   3.726  13.466
64378W        W36803  12.682  35.891  11.026
64379W        W36804  27.990  33.596   2.806
64380W        W36805  31.585  16.798  10.147
64381W        W36806  23.528   5.724  10.920
64382W        W36807  30.005  21.622  14.318
64383W        W36808  21.135  42.322   3.811
64384W        W36809   1.261  28.650  14.294
64385W        W36810  40.468  40.870   3.675
64386W        W36811  36.959  13.242   0.736
64387W        W36812  32.026  20.587   3.667
64388W        W36813   2.289   7.314   2.411
64389W        W36814   0.803  24.724  14.400
64390W        W36815   7.179  36.589   0.355
64391W        W36816  30.530  41.413   2.801
64392W        W36817  35.852  21.544  10.498
64393W        W36818  32.122  28.520  12.399
64394W        W36819  43.975   8.349   1.884
64395W        W36820  32.475  29.142  11.872
64396W        W36821  38.045  23.045  10.978
64397W        W36822   4.745  22.582   4.831
64398W        W36823  33.957   7.880   2.878
64399W        W36824  11.361  32.971  11.398
64400W        W36825  36.060   2.967  11.574
64401W        W36826  13.675  36.841  14.802
64402W        W36827  28.991  15.716   5.307
64403W        W36828  40.997   3.435  12.861
64404W        W36829  15.126  40.370   0.888
64405W        W36830   8.253  16.659  12.095
64406W        W36831  33.427   7.776  11.116
64407W        W36832  12.619  23.141  12.853
64408W        W36833   3.288  34.398  14.994
64409W        W36834  21.116   5.814   0.794
64410W        W36835   9.889  16.124   0.949
64411W        W36836  19.777   5.754   3.261
64412W        W36837  37.468  22.163  12.514
64413W        W36838   2.946  32.923   3.855
64414W        W36839  30.145  16.294  13.006
64415W        W36840   8.192  17.275   1.234
64416W        W36841  30.933  10.646  13.794
64417W        W36842   0.438  35.563   2.187
64418W        W36843  12.805  15.639   0.793
64419W        W36844  14.141   0.441   3.783
64420W        W36845  29.109  28.441  11.998
64421W        W36846  26.168  12.302   0.812
64422W        W36847   5.203  17.157  11.990
64423W        W36848  32.055  44.426   4.188
64424W        W36849  29.630  14.600   3.229
64425W        W36850  44.777  30.528   0.414
64426W        W36851  42.415   3.322   5.095
64427W        W36852  40.412  21.688  10.450
64428W        W36853   0.799   8.396   1.282
64429W        W36854  43.353   6.276   1.896
64430W        W36855  35.547  34.454  14.315
64431W        W36856  14.754  28.135   0.338
64432W        W36857  33.958  16.265  14.509
64433W        W36858  41.023  14.732  10.919
64434W        W36859  40.544  16.270   0.478
64435W        W36860   8.731   6.287   4.282
64436W        W36861  13.257  21.722  12.993
64437W        W36862   7.666  24.157   3.673
64438W        W36863  42.461  27.506  13.458
64439W        W36864  27.135  42.456  13.956
64440W        W36865   1.339  34.423  10.469
64441W        W36866  14.782   7.312  13.529
64442W        W36867  20.249  37.059  14.419
64443W        W36868   8.248  41.348  14.286
64444W        W36869  41.358  36.087   3.382
64445W        W36870   2.443  27.674   1.722
64446W        W36871  44.962   0.363   4.299
64447W        W36872  26.523   3.932  11.589
64448W        W36873  15.759  10.683   1.378
64449W        W36874  43.434  28.639   1.695
64450W        W36875  25.112  23.228  13.807
64451W        W36876  31.507  19.562  12.060
64452W        W36877  11.777   8.278   1.725
64453W        W36878   5.864  41.440  10.926
64454W        W36879  29.918  42.417  14.816
64455W        W36880  11.183  25.986  10.457
64456W        W36881  16.301  20.275  14.425
64457W        W36882  22.153   1.945   0.868
64458W        W36883  26.181  29.070   4.737
64459W        W36884  38.507  22.599   2.223
64460W        W36885   2.918  37.377  13.858
64461W        W36886  10.157  27.197   1.214
64462W        W36887   8.221  26.172  12.993
64463W        W36888  44.820  25.672   0.435
64464W        W36889  29.053  26.516  11.870
64465W        W36890   4.752  19.116   4.640
64466W        W36891  42.337  25.648  13.332
64467W        W36892  37.846  35.492  12.938
64468W        W36893  14.099  25.205   1.420
64469W        W36894  12.126   8.890  14.308
64470W        W36895  25.002   2.784   2.903
64471W        W36896  13.830  27.197   2.700
64472W        W36897  43.421  18.204  11.463
64473W        W36898  26.640  20.764   4.200
64474W        W36899  35.012   5.256   2.262
64475W        W36900  13.212  36.984   4.616
64476W        W36901  31.993   1.455   3.855
64477W        W36902  12.288  44.968   2.231
64478W        W36903  31.446  40.423  12.494
64479W        W36904  29.969   6.269  10.606
64480W        W36905   1.863  15.269   3.177
64481W        W36906   1.789  30.460  10.486
64482W        W36907  25.518   8.179  12.824
64483W        W36908  28.480  22.721   3.715
64484W        W36909   3.434  26.120  12.356
64485W        W36910   6.366  27.635   3.733
64486W        W36911   7.749  15.743  11.952
64487W        W36912  15.211   5.900   0.876
64488W        W36913  11.659  42.462  10.570
64489W        W36914  34.440  20.573   4.681
64490W        W36915  20.041  10.195   4.633
64491W        W36916  25.101   8.347  11.970
64492W        W36917  37.373   0.784  14.456
64493W        W36918  39.387  21.754   2.213
64494W        W36919  39.814   1.905  11.524
64495W        W36920  22.504  33.424   0.853
64496W        W36921  19.192   2.390  10.639
64497W        W36922   6.213   1.383  12.498
64498W        W36923  18.244  11.138  12.483
64499W        W36924  41.386   6.212   0.736
64500W        W36925  37.885   2.428  13.326
64501W        W36926  24.157  43.345   4.253
64502W        W36927  27.057  24.136   4.615
64503W        W36928   0.796  33.093   2.706
64504W        W36929  12.271  22.540  11.381
64505W        W36930  18.638  15.762  13.445
64506W        W36931   7.901  20.741   4.604
64507W        W36932  28.579  26.499   3.860
64508W        W36933   7.218  25.103  13.893
64509W        W36934   2.826   8.681  14.832
64510W        W36935   8.771  39.024   0.947
64511W        W36936  41.452  10.247  12.864
64512W        W36937  26.974  34.984   0.866
64513W        W36938  12.752  27.634   2.292
64514W        W36939   8.390  21.624   2.375
64515W        W36940  26.657  22.071  13.817
64516W        W36941  24.090  44.823  10.947
64517W        W36942  34.979   8.213  12.071
64518W        W36943  29.507  36.390  12.463
64519W        W36944  42.931  22.172   3.766
64520W        W36945   1.441  29.970  12.856
64521W        W36946  43.967   7.751   4.340
64522W        W36947  40.330  16.149   4.217
64523W        W36948   8.747  11.851  10.590
64524W        W36949  23.133  22.157   3.755
64525W        W36950  14.653  27.985  14.006
64526W        W36951  15.819  13.350   2.759
64527W        W36952  34.599  39.014   4.236
64528W        W36953  15.155  26.065  13.357
64529W        W36954   9.847  42.432   3.276
64530W        W36955  32.430  16.167   1.727
64531W        W36956  42.447  12.832   0.781
64532W        W36957  30.417  28.956  11.382
64533W        W36958   3.749  41.342  13.996
64534W        W36959  37.031  39.330   2.281
64535W        W36960  39.414  29.652   4.791
64536W        W36961  29.003  44.883  13.356
64537W        W36962  36.413   4.918  10.007
64538W        W36963   1.454  29.956  12.385
64539W        W36964  25.697  40.487  14.316
64540W        W36965  41.392  39.401   1.234
64541W        W36966  38.914  33.601  12.479
64542W        W36967   7.693  41.396  11.857
64543W        W36968  41.414  31.048   1.286
64544W        W36969  30.967   4.398   1.304
64545W        W36970   6.776  37.436  10.933
64546W        W36971  11.840   0.749   0.434
64547W        W36972  10.140   3.857  13.346
64548W        W36973  30.077  23.219  13.465
64549W        W36974  30.087  33.981   1.440
64550W        W36975   8.298  19.115   0.372
64551W        W36976  30.602  42.888   4.717
64552W        W36977  11.304  31.044  11.873
64553W        W36978  44.468  38.004   1.378
64554W        W36979  16.200  19.284   2.878
64555W        W36980   4.747  14.335   3.283
64556W        W36981   6.732   4.424  13.518
64557W        W36982   6.759  11.657  14.900
64558W        W36983   2.839  38.870   4.733
64559W        W36984  29.951   4.390  14.843
64560W        W36985  10.806  31.412  10.986
64561W        W36986  30.929  35.545   4.683
64562W        W36987  36.351   1.396  12.051
64563W        W36988  34.573  29.045   1.359
64564W        W36989   4.776  40.381  11.960
64565W        W36990  36.577  31.936  12.061
64566W        W36991  41.943  13.311  12.972
64567W        W36992  24.661  40.458  14.891
64568W        W36993  42.983  37.021   1.368
64569W        W36994   0.484  39.388   2.896
64570W        W36995  33.897  23.694  12.434
64571W        W36996  41.799   2.246  12.896
64572W        W36997  15.739  24.164  12.083
64573W        W36998  33.558   9.236   0.417
64574W        W36999  17.098  34.043  14.448
64575W        W37000  31.944  19.540   4.660
64576W        W37001  23.083  30.574   4.730
64577W        W37002  37.864  44.419   3.802
64578W        W37003   2.343  13.677  13.500
64579W        W37004  42.377   3.248  11.581
64580W        W37005  28.120  20.123   3.336
64581W        W37006  18.691  22.571   4.265
64582W        W37007  33.497  22.158   1.397
64583W        W37008  31.457  31.137  13.976
64584W        W37009   9.149  18.271   0.418
64585W        W37010   6.320   5.307  12.378
64586W        W37011  35.081   1.263   0.734
64587W        W37012  15.667  11.648   1.723
64588W        W37013   5.229  39.045  13.914
64589W        W37014  16.214   4.260  14.989
64590W        W37015  18.290  43.510  10.904
64591W        W37016  30.545  38.335  11.570
64592W        W37017   9.659  17.288   2.302
64593W        W37018   9.304  29.151  13.947
64594W        W37019  36.554   1.866   1.845
64595W        W37020  10.681  27.576   1.424
64596W        W37021  28.634  25.131  14.306
64597W        W37022  32.039  25.608  12.341
64598W        W37023  22.678  38.853  12.956
64599W        W37024  12.167  21.115  14.933
64600W        W37025  15.799  30.025  12.475
64601W        W37026  23.146  11.141   3.729
64602W        W37027  40.425  44.447  13.027
64603W        W37028   8.786   3.382   2.216
64604W        W37029  36.494  20.675  14.962
64605W        W37030  40.813   8.857  11.079
64606W        W37031  34.899  17.208  10.899
64607W        W37032  33.084  15.115   4.808
64608W        W37033  17.567  38.044   1.786
64609W        W37034  15.666  23.569  10.437
64610W        W37035  23.563  27.007  14.498
64611W        W37036  33.004   1.461   0.443
64612W        W37037  15.773  34.440   1.318
64613W        W37038  23.510  37.986  13.436
64614W        W37039  10.805   2.462   2.753
64615W        W37040  33.425  11.279  14.984
64616W        W37041  16.573  22.158  14.344
64617W        W37042  21.043  25.178  13.507
64618W        W37043  12.330   4.821   1.775
64619W        W37044  13.673  19.139  11.023
64620W        W37045  38.532   0.823  14.376
64621W        W37046  20.724  20.182   2.838
64622W        W37047  26.179  13.223   3.754
64623W        W37048  20.573  13.658  14.822
64624W        W37049  26.635  34.471   1.299
64625W        W37050  41.351  22.207   0.926
64626W        W37051  11.286  34.089  14.980
64627W        W37052  37.026  16.182   2.184
64628W        W37053  15.591  32.090  14.007
64629W        W37054  16.633  34.474   0.779
64630W        W37055  42.522   6.322   0.461
64631W        W37056  32.106   7.835   0.393
64632W        W37057  44.276  43.953   0.285
64633W        W37058  20.045  30.927  13.407
64634W        W37059  36.973  42.302  11.396
64635W        W37060  28.048  16.244   0.729
64636W        W37061  25.159  26.560   4.215
64637W        W37062   9.807  16.703  12.072
64638W        W37063  42.409   7.368   1.318
64639W        W37064  39.843  15.625  12.471
64640W        W37065   7.299  11.847   1.400
64641W        W37066  35.420  19.621   3.235
64642W        W37067   9.381  36.992   1.811
64643W        W37068  44.806  41.924   4.344
64644W        W37069  28.942  29.940  11.491
64645W        W37070  10.201  13.273  10.946
64646W        W37071  39.465  34.603  12.358
64647W        W37072  32.918  30.123  11.941
64648W        W37073  12.634  21.618  11.938
64649W        W37074  16.576  25.014   1.764
64650W        W37075  17.655   3.329  12.980
64651W        W37076   8.809  14.337  14.493
64652W        W37077  29.446  19.626  10.950
64653W        W37078  31.556   3.838   2.725
64654W        W37079  42.329  14.168   0.938
64655W        W37080  28.477  19.064   0.906
64656W        W37081  13.760  23.018  13.537
64657W        W37082  41.857   3.297  11.492
64658W        W37083   8.842  14.826  13.425
64659W        W37084  23.678  14.270  14.418
64660W        W37085  26.684  43.379  14.413
64661W        W37086  43.398  22.700   4.197
64662W        W37087  29.451  33.079  12.525
64663W        W37088   3.290  31.613  14.968
64664W        W37089  42.993  44.300  10.629
64665W        W37090  37.839   5.434   0.732
64666W        W37091   6.891  34.910   1.238
64667W        W37092   2.229   5.781  11.016
64668W        W37093  44.332  14.280  12.425
64669W        W37094  29.505  25.201   0.923
64670W        W37095  21.123  25.997  13.941
64671W        W37096  23.026  17.779   3.672
64672W        W37097   4.417  27.676  12.566
64673W        W37098  12.689  23.984   5.587
64674W        W37099  13.631   6.377   1.705
64675W        W37100  18.631   5.732  13.377
64676W        W37101  22.742   8.798  12.842
64677W        W37102  39.002  27.630  14.022
64678W        W37103  31.490   7.896  12.488
64679W        W37104  38.514  19.671   4.121
64680W        W37105  28.140  21.734   1.745
64681W        W37106  38.881  19.190  11.884
64682W        W37107  44.945   4.360  10.596
64683W        W37108  43.379  32.121  10.439
64684W        W37109  22.038  34.028  11.458
64685W        W37110   9.256   9.218   2.672
64686W        W37111  36.461  33.602   3.328
64687W        W37112  35.074  25.024   3.238
64688W        W37113  43.002  16.592  14.328
64689W        W37114  21.048  41.381   0.958
64690W        W37115  19.729  21.117  14.894
64691W        W37116  38.000  34.096   3.681
64692W        W37117  17.673  22.109   1.276
64693W        W37118  28.592  20.047   1.806
64694W        W37119  41.867  37.876   1.934
64695W        W37120  21.263  13.745   2.332
64696W        W37121   9.878   2.828   0.263
64697W        W37122  30.007  19.696  13.329
64698W        W37123  18.197  44.457  10.963
64699W        W37124  44.828  36.579  14.952
64700W        W37125  16.764  19.078   2.888
64701W        W37126  16.656  14.657   1.750
64702W        W37127   0.285  11.830  10.459
64703W        W37128  12.348   4.363   3.801
64704W        W37129   2.865   6.688  10.456
64705W        W37130  17.750  40.920  14.414
64706W        W37131  15.212   4.725  14.501
64707W        W37132   0.810   2.746   4.166
64708W        W37133  35.555   6.194  13.942
64709W        W37134   5.872  32.098  14.463
64710W        W37135  11.687  17.673  10.524
64711W        W37136  19.749   8.825   1.766
64712W        W37137  35.914  21.056   0.259
64713W        W37138  25.029   7.406  14.287
64714W        W37139  26.023  33.907   2.757
64715W        W37140  30.543  34.607  10.897
64716W        W37141  31.634  18.139  13.932
64717W        W37142  36.355  35.928   5.289
64718W        W37143   2.237  11.138  12.371
64719W        W37144   1.440  11.259   3.643
64720W        W37145  36.403  41.426  11.583
64721W        W37146  24.226   9.186   1.412
64722W        W37147   8.802   0.842   4.610
64723W        W37148  18.706  34.987  11.516
64724W        W37149   9.780   9.847  11.053
64725W        W37150  23.047   3.385  12.951
64726W        W37151  40.828  13.319  14.369
64727W        W37152  28.668  18.242   3.717
64728W        W37153  34.094  43.909   0.790
64729W        W37154   7.888  27.668  11.488
64730W        W37155  41.928  27.462  12.359
64731W        W37156  35.077  42.005   3.813
64732W        W37157   7.866  30.031  14.380
64733W        W37158  37.537  31.520   4.306
64734W        W37159  41.032  13.606  10.949
64735W        W37160  32.441  17.247   1.449
64736W        W37161  19.552  28.457   2.259
64737W        W37162  18.099  13.207   0.388
64738W        W37163  40.304   0.266   3.707
64739W        W37164  41.998  36.488   4.157
64740W        W37165   4.884  35.435  12.431
64741W        W37166  37.061  19.192  13.385
64742W        W37167   6.779  19.155  13.859
64743W        W37168  23.693  15.604  12.521
64744W        W37169  27.955  37.053  13.395
64745W        W37170  34.962  21.208  13.848
64746W        W37171  35.553  23.724   2.730
64747W        W37172   8.823  35.363  13.384
64748W        W37173   2.450  42.892  13.934
64749W        W37174  26.108   3.217  12.388
64750W        W37175  38.362   7.290   2.304
64751W        W37176  16.594  27.107   1.211
64752W        W37177  36.037  12.656   3.826
64753W        W37178  37.915  38.821   0.940
64754W        W37179  18.184  41.949  11.113
64755W        W37180  32.918  32.900  11.945
64756W        W37181  30.413  42.359   0.292
64757W        W37182   5.803  31.491   1.893
64758W        W37183  19.638   8.233  13.357
64759W        W37184  23.533  12.789   4.812
64760W        W37185  14.779  34.410   3.220
64761W        W37186   6.237  32.896  14.476
64762W        W37187  43.472  14.206   1.263
64763W        W37188   5.217  21.199   5.162
64764W        W37189  31.914   9.218  12.827
64765W        W37190   0.453  38.941   2.835
64766W        W37191   5.712   6.209   1.435
64767W        W37192  33.038   9.647   3.783
64768W        W37193  20.105  41.498   1.697
64769W        W37194   5.203  27.680   4.336
64770W        W37195  25.104  24.223  14.921
64771W        W37196  42.398  14.756   1.269
64772W        W37197   4.386   5.263  14.376
64773W        W37198  14.323  44.390   0.885
64774W        W37199  21.590  24.005   0.456
64775W        W37200  38.568   3.882   1.304
64776W        W37201  42.884   6.903   4.249
64777W        W37202  13.177  28.169  12.978
64778W        W37203  31.972  14.246   3.815
64779W        W37204   4.210  32.559  12.509
64780W        W37205  22.621  35.958   0.452
64781W        W37206  44.375  10.777  12.399
64782W        W37207  38.054  15.185   0.840
64783W        W37208  16.724  24.633   4.289
64784W        W37209  16.756  30.442   5.181
64785W        W37210  42.494   8.779   0.742
64786W        W37211  20.557  14.606   3.159
64787W        W37212   7.253  35.977   4.750
64788W        W37213   8.862   1.877  10.623
64789W        W37214  37.506   4.725  12.893
64790W        W37215  35.979  24.659  12.541
64791W        W37216  24.671   2.808   4.610
64792W        W37217  23.580  44.834  10.944
64793W        W37218   5.232  23.154  11.557
64794W        W37219   5.324  33.538   3.235
64795W        W37220  37.879  23.699   2.854
64796W        W37221  22.165  43.993  11.419
64797W        W37222  39.019  35.558   0.350
64798W        W37223  11.806  31.490  14.783
64799W        W37224  40.817   1.383   4.198
64800W        W37225  23.489  29.626   1.850
64801W        W37226   3.440  23.128  11.924
64802W        W37227  11.646  11.866   3.699
64803W        W37228  37.909  18.709  14.828
64804W        W37229  31.638  34.392  12.342
64805W        W37230  19.076   3.260  11.453
64806W        W37231   6.231   7.213   2.269
64807W        W37232  23.012  16.210  14.759
64808W        W37233  28.127  32.023  13.519
64809W        W37234  22.156  32.549  12.450
64810W        W37235   2.799   1.739   2.793
64811W        W37236  11.177  26.072   1.389
64812W        W37237  29.553  32.545   4.284
64813W        W37238  20.749  11.654  10.422
64814W        W37239  13.676  26.494  11.127
64815W        W37240   0.356  38.468  12.546
64816W        W37241   4.358  41.986   0.346
64817W        W37242  14.277   7.754   1.886
64818W        W37243   6.284  25.979   1.408
64819W        W37244  43.826  29.440  13.367
64820W        W37245  28.024  14.257   1.433
64821W        W37246  31.018  13.325  11.046
64822W        W37247  38.047  29.986   4.295
64823W        W37248  17.619  42.976   9.936
64824W        W37249  36.850  15.638  12.425
64825W        W37250  26.657  27.540  10.891
64826W        W37251  40.873   8.837  12.450
64827W        W37252  39.349  20.609  14.958
64828W        W37253   6.315  44.792  10.947
64829W        W37254   6.420  12.665   3.213
64830W        W37255  10.293   5.304  11.094
64831W        W37256  31.034  26.650   2.316
64832W        W37257  43.778  34.412  10.948
64833W        W37258  39.423  24.668   2.699
64834W        W37259   1.272   2.919   0.325
64835W        W37260   8.663  10.737  14.486
64836W        W37261   7.236   2.915  12.552
64837W        W37262  28.622  10.227   2.786
64838W        W37263   7.402  33.068  10.631
64839W        W37264  12.344  23.043  14.808
64840W        W37265  17.596  33.414  13.809
64841W        W37266  14.716  27.518  11.063
64842W        W37267  43.271  42.968  13.312
64843W        W37268  22.127   1.320   2.864
64844W        W37269  20.213  34.910   0.805
64845W        W37270   9.689  41.862  10.512
64846W        W37271  16.613   4.289   2.262
64847W        W37272   0.362   9.219  13.879
64848W        W37273  40.923  29.167  10.413
64849W        W37274  40.878  14.296   4.176
64850W        W37275  25.981   6.300  12.830
64851W        W37276  43.362  33.599  11.486
64852W        W37277  40.828  26.684   1.291
64853W        W37278  18.248  29.123   2.895
64854W        W37279  22.564  22.998   0.434
64855W        W37280  32.633   8.824   0.841
64856W        W37281   1.261  30.033  14.340
64857W        W37282  20.136   4.826  13.872
64858W        W37283   9.253  40.392  14.989
64859W        W37284   4.224  40.419   0.256
64860W        W37285   4.228  38.381   3.287
64861W        W37286  42.483  16.208   3.285
64862W        W37287  39.444   8.277  14.433
64863W        W37288  16.627  14.725   0.965
64864W        W37289   9.309  13.312   2.677
64865W        W37290  32.489   1.467   3.804
64866W        W37291   4.926  39.345   3.277
64867W        W37292  25.047  43.389   2.801
64868W        W37293  26.623  30.952  11.868
64869W        W37294   1.280  26.134   0.467
64870W        W37295   9.310  21.052   3.381
64871W        W37296  18.173   1.401   1.371
64872W        W37297  35.046   2.438  12.024
64873W        W37298   6.694   3.778  14.364
64874W        W37299  44.375  42.792  14.946
64875W        W37300  18.073  14.194   1.885
64876W        W37301  35.435  17.175   3.326
64877W        W37302  44.289   3.342   0.258
64878W        W37303  37.864  17.206  12.959
64879W        W37304  15.735  40.839   2.822
64880W        W37305  39.432  35.947  12.009
64881W        W37306  13.760  40.055   0.470
64882W        W37307  31.640   3.783  13.464
64883W        W37308  32.463  39.956  12.071
64884W        W37309  44.457  25.673  10.407
64885W        W37310  15.637  17.107  14.359
64886W        W37311   6.826   5.239  10.584
64887W        W37312   8.322  18.778   1.916
64888W        W37313  18.161   6.895   2.346
64889W        W37314  28.670  13.235  14.420
64890W        W37315  27.662  11.267   2.712
64891W        W37316  10.854  25.973   4.628
64892W        W37317  20.183  16.651  14.794
64893W        W37318   4.307  17.141  13.449
64894W        W37319  16.167  34.560  13.479
64895W        W37320   8.657  28.049   0.827
64896W        W37321  37.005  41.985   1.297
64897W        W37322  21.674  40.952   4.197
64898W        W37323  20.623  43.359  12.383
64899W        W37324  16.186   7.911  12.449
64900W        W37325  15.762  15.629   1.225
64901W        W37326   8.253   3.787  11.022
64902W        W37327  11.800  27.482   2.854
64903W        W37328   5.302  17.712   4.194
64904W        W37329  22.110  34.054   1.825
64905W        W37330  39.549   3.350   1.381
64906W        W37331  38.054  25.975   0.257
64907W        W37332  14.622   0.442   3.825
64908W        W37333  17.174  18.702  10.611
64909W        W37334  15.293  41.374  10.938
64910W        W37335  27.463  26.471  14.275
64911W        W37336  30.562  36.065  14.856
64912W        W37337  39.555   8.403  11.553
64913W        W37338  26.614  30.110  10.560
64914W        W37339  35.427  40.549   2.810
64915W        W37340   6.790  24.094   2.747
64916W        W37341  20.197  31.544   1.835
64917W        W37342  33.523  35.478   1.724
64918W        W37343   6.280   7.334   3.709
64919W        W37344   2.308  37.396   9.937
64920W        W37345  29.146  21.114  13.309
64921W        W37346  10.243   5.222   3.386
64922W        W37347  28.475   7.754   0.801
64923W        W37348  35.365   2.827   0.398
64924W        W37349  19.701   7.273  12.554
64925W        W37350  22.023  39.038   1.430
64926W        W37351  39.048  34.962   4.743
64927W        W37352  35.459  37.538  10.432
64928W        W37353  10.243   9.685   2.866
64929W        W37354  41.929  44.909  13.873
64930W        W37355   9.392  43.003   3.737
64931W        W37356  16.774  14.771  13.833
64932W        W37357  26.006  23.565  10.902
64933W        W37358  30.943  30.011  12.085
64934W        W37359   2.265   0.336  14.937
64935W        W37360  10.866  30.996  13.949
64936W        W37361  11.339   7.237   4.665
64937W        W37362   0.805  15.255  10.411
64938W        W37363   3.942  18.130  11.869
64939W        W37364   0.354  19.196   0.401
64940W        W37365  40.320  30.089  10.929
64941W        W37366  29.566   0.888  13.903
64942W        W37367  29.921   4.289  11.598
64943W        W37368  20.581  14.193  14.994
64944W        W37369  34.046  34.091   0.332
64945W        W37370  15.325  35.899  14.911
64946W        W37371  14.185  39.346  13.875
64947W        W37372  26.596  17.609   2.860
64948W        W37373  19.088  20.732   3.854
64949W        W37374  28.659  37.436   4.156
64950W        W37375   5.778  38.849  10.965
64951W        W37376  14.130   9.816   1.383
64952W        W37377  11.700  12.315  11.925
64953W        W37378  19.575   7.857  14.311
64954W        W37379  27.136  44.944   2.787
64955W        W37380  13.280  38.333  12.063
64956W        W37381   1.890  40.482  12.570
64957W        W37382  36.405   4.729   3.195
64958W        W37383  22.157   2.381  14.338
64959W        W37384  21.709   3.941  11.475
64960W        W37385   3.846  36.935   3.793
64961W        W37386  19.046  15.242   4.233
64962W        W37387  13.630  26.467   3.689
64963W        W37388  12.711   2.760  12.520
64964W        W37389   2.895  12.169  14.813
64965W        W37390  38.977  11.187  11.101
64966W        W37391  40.352  28.601  11.545
64967W        W37392  35.541  36.848  13.860
64968W        W37393  28.120  27.058   2.834
64969W        W37394  22.161   6.865   1.870
64970W        W37395  33.489   9.224  12.030
64971W        W37396  42.356  41.814   1.908
64972W        W37397  24.656  25.603  10.463
64973W        W37398  15.662   3.945  14.405
64974W        W37399  29.137  16.077  12.349
64975W        W37400   0.406   4.354   4.171
64976W        W37401   0.943  39.818  10.093
64977W        W37402  21.630  21.674   3.345
64978W        W37403  12.196  28.035  14.899
64979W        W37404  21.608   5.690   0.419
64980W        W37405  41.980   4.785  12.566
64981W        W37406  19.567  38.508  11.942
64982W        W37407  22.221   6.873  10.503
64983W        W37408  28.930   0.746   0.780
64984W        W37409   2.228  14.624  12.010
64985W        W37410  34.871  33.005   3.689
64986W        W37411  19.051  37.367  10.933
64987W        W37412  26.647  42.371   4.597
64988W        W37413   8.880   1.281  14.769
64989W        W37414  19.541   3.872   0.366
64990W        W37415  14.668   6.413  10.545
64991W        W37416  17.071   1.954   3.731
64992W        W37417  34.937  37.916  11.015
64993W        W37418   5.200  30.564   0.884
64994W        W37419  23.694  17.593  13.411
64995W        W37420  24.589  23.116   0.966
64996W        W37421  12.793   3.799  12.488
64997W        W37422  19.086   1.439  12.544
64998W        W37423  33.439  27.527  13.014
64999W        W37424  14.696  43.292   0.773
65000W        W37425  20.094  33.567  11.434
65001W        W37426   8.191   5.345   3.700
65002W        W37427  32.025  44.376   0.731
65003W        W37428  24.225   4.375  11.583
65004W        W37429  31.130  23.697   4.758
65005W        W37430   6.791   1.447  12.495
65006W        W37431  17.301  41.458  13.872
65007W        W37432   0.875  28.587   2.873
65008W        W37433  18.137   2.882   0.265
65009W        W37434  37.984  20.189   3.307
65010W        W37435  20.037  23.179   1.860
65011W        W37436   8.170  33.495   1.719
65012W        W37437  38.855   8.246  14.797
65013W        W37438  14.781  40.878   3.199
65014W        W37439  40.957  35.019  12.862
65015W        W37440  28.662  31.588  13.422
65016W        W37441  27.992  37.985   2.260
65017W        W37442  12.647   3.360  10.640
65018W        W37443   0.876   2.457  13.522
65019W        W37444   2.962   1.756  10.597
65020W        W37445  26.609  23.633  13.005
65021W        W37446  31.950  16.666  12.455
65022W        W37447  32.560  33.041   0.806
65023W        W37448  16.810  41.398   2.272
65024W        W37449   3.397   1.855  11.565
65025W        W37450  39.866  40.420  11.110
65026W        W37451  34.574  11.765  13.833
65027W        W37452  26.553  12.663  11.609
65028W        W37453  21.019  27.075  10.429
65029W        W37454  41.368  27.967   0.755
65030W        W37455  34.461   4.232  12.845
65031W        W37456  24.184  12.324   4.282
65032W        W37457  41.854  27.684  14.325
65033W        W37458  27.684  15.101   0.387
65034W        W37459  42.831  32.504   4.661
65035W        W37460  14.711  14.130   2.184
65036W        W37461  36.922  25.974  11.882
65037W        W37462  41.298  29.108  11.896
65038W        W37463  17.592   7.396  14.941
65039W        W37464  11.790  31.899  14.346
65040W        W37465  35.980  18.772   2.791
65041W        W37466  14.705  42.818   2.724
65042W        W37467  38.358  14.287  10.563
65043W        W37468  33.939  24.689   0.477
65044W        W37469  14.220  41.501  14.007
65045W        W37470  36.061  38.882  12.876
65046W        W37471  36.039  40.399   2.266
65047W        W37472  30.156  20.151  10.631
65048W        W37473   9.727   7.360   0.827
65049W        W37474  11.710  32.892  11.073
65050W        W37475  37.569   5.924   4.731
65051W        W37476  33.124   7.837  14.324
65052W        W37477  34.903  22.022  14.841
65053W        W37478  40.477   0.920  10.619
65054W        W37479  37.345  17.173  10.519
65055W        W37480  22.073   4.944   4.164
65056W        W37481  36.921   5.378   0.389
65057W        W37482  40.499  38.851  10.922
65058W        W37483  33.395   9.649   4.697
65059W        W37484  14.119  43.913   0.732
65060W        W37485  21.525  26.700   1.413
65061W        W37486  23.122  41.903   1.848
65062W        W37487  29.587  19.170  11.896
65063W        W37488   0.368  29.967   4.198
65064W        W37489  21.511  44.411   4.767
65065W        W37490  23.622   7.412  12.494
65066W        W37491  39.533  19.552   1.893
65067W        W37492   5.821  43.295  10.421
65068W        W37493  43.796   1.946  11.931
65069W        W37494  29.008  30.504   3.784
65070W        W37495  15.245  24.587  11.916
65071W        W37496  30.539  23.157  14.513
65072W        W37497  26.116  34.438  13.951
65073W        W37498  41.298  43.903   3.259
65074W        W37499   2.401  28.141  11.379
65075W        W37500  12.302  20.064  12.445
65076W        W37501  17.214  17.747  14.405
65077W        W37502  24.194  42.839  12.855
65078W        W37503  36.916  40.393   1.242
65079W        W37504  40.352  17.207   3.767
65080W        W37505  30.925  42.012   3.769
65081W        W37506   6.734   7.253   3.813
65082W        W37507  19.101   2.914  14.812
65083W        W37508  42.318   3.782  14.957
65084W        W37509  32.597  18.054  13.872
65085W        W37510  10.162  13.756   0.354
65086W        W37511  16.659  30.611  10.912
65087W        W37512   6.825  26.054   3.374
65088W        W37513  11.250   7.776   1.404
65089W        W37514  11.786  37.545   2.272
65090W        W37515  40.407  25.479  11.986
65091W        W37516   6.405  11.193  12.006
65092W        W37517  11.690   5.269   0.802
65093W        W37518  25.613  36.392  12.910
65094W        W37519  11.832  14.174   3.273
65095W        W37520  10.824  14.207  14.510
65096W        W37521  15.270  39.393   2.201
65097W        W37522  37.441  39.335  11.001
65098W        W37523  33.050  20.269  11.548
65099W        W37524  33.952   7.392   4.127
65100W        W37525  41.525  11.233  13.965
65101W        W37526  40.923  24.199  12.976
65102W        W37527  21.203  29.939  12.989
65103W        W37528  29.986  41.969  14.366
65104W        W37529  24.627  21.197  12.095
65105W        W37530  12.163   9.831   3.195
65106W        W37531  25.599  21.586  13.994
65107W        W37532   1.413  27.672   0.243
65108W        W37533  29.565  35.491  13.464
65109W        W37534  40.908   2.434  14.334
65110W        W37535  32.501   6.428  12.936
65111W        W37536  33.893  29.951  14.497
65112W        W37537  23.993  21.096   4.602
65113W        W37538  21.074  23.515   2.866
65114W        W37539  37.922   6.386   2.758
65115W        W37540  32.592  33.434   1.833
65116W        W37541  36.369  11.757  12.547
65117W        W37542  42.999  21.158  10.953
65118W        W37543  40.514  24.001  13.000
65119W        W37544  15.649  18.290   0.889
65120W        W37545  38.877  39.824   0.895
65121W        W37546   0.384   4.724   2.725
65122W        W37547   2.379   5.278   3.196
65123W        W37548  40.538  13.238  10.577
65124W        W37549  24.231  27.185   1.210
65125W        W37550   4.763  32.457  12.999
65126W        W37551  42.501  27.599   1.914
65127W        W37552   8.234  25.156  13.889
65128W        W37553   6.278  38.363   0.825
65129W        W37554  42.005  31.950   4.286
65130W        W37555  15.606  44.347  14.435
65131W        W37556  44.366  25.499   4.695
65132W        W37557  40.975  20.569   1.840
65133W        W37558  34.433  25.513   1.762
65134W        W37559   1.929  41.973  12.548
65135W        W37560  25.152  25.688   0.811
65136W        W37561  16.153  21.748   3.149
65137W        W37562   3.458  12.196  10.502
65138W        W37563  38.983  31.932  12.850
65139W        W37564  25.173  43.794  11.552
65140W        W37565  37.564  23.214   9.546
65141W        W37566  18.066   6.775  11.088
65142W        W37567  28.022  36.038  12.039
65143W        W37568  43.473  30.538   2.314
65144W        W37569  44.285  39.012  13.547
65145W        W37570  29.965  31.112   9.651
65146W        W37571   5.381  44.792  12.464
65147W        W37572  23.724  42.347   1.352
65148W        W37573  35.980  36.987   2.832
65149W        W37574  36.847  37.516   1.261
65150W        W37575  25.472  18.611  10.581
65151W        W37576  26.559  16.074  12.532
65152W        W37577  23.163  39.506   4.325
65153W        W37578  44.854  20.075   1.908
65154W        W37579   2.367  23.510  14.458
65155W        W37580  23.691   1.809   1.931
65156W        W37581  11.137  13.828  13.430
65157W        W37582   7.180   4.338   4.800
65158W        W37583   5.798  10.381  10.554
65159W        W37584  11.146  15.782  14.924
65160W        W37585  43.970  12.839   0.809
65161W        W37586  25.509  29.058  12.882
65162W        W37587   0.951   1.852   4.329
65163W        W37588  15.156   6.846   4.684
65164W        W37589  10.865  25.009  13.883
65165W        W37590  42.027  26.552   0.382
65166W        W37591  20.077  24.130  14.317
65167W        W37592  26.490  25.998   4.205
65168W        W37593  34.114  22.091  12.832
65169W        W37594  30.618  43.816   4.143
65170W        W37595  19.625  34.527   1.918
65171W        W37596  16.280  36.472  12.893
65172W        W37597  43.979   2.757  13.057
65173W        W37598  27.146  42.909   1.343
65174W        W37599  41.309   8.801   0.880
65175W        W37600  40.325  17.199  11.489
65176W        W37601  23.578  32.131   3.757
65177W        W37602  27.050  37.417  11.972
65178W        W37603  34.038  39.385   0.732
65179W        W37604  26.649  40.802   2.817
65180W        W37605  21.524  12.737   2.772
65181W        W37606  34.533  28.103  11.064
65182W        W37607  37.507  31.601   2.864
65183W        W37608   1.861  16.271  14.513
65184W        W37609   0.751  22.635   3.740
65185W        W37610  29.476  17.631   2.370
65186W        W37611  22.722  15.792  13.041
65187W        W37612  44.372  40.400   0.861
65188W        W37613  15.717  13.270  11.087
65189W        W37614  40.904  36.522  10.418
65190W        W37615   2.881  18.753   3.709
65191W        W37616   9.233  20.126  12.843
65192W        W37617   0.752  41.792  10.528
65193W        W37618   8.353   9.325   3.342
65194W        W37619  23.620  34.028  12.454
65195W        W37620   1.880   1.792  12.986
65196W        W37621  25.198  40.413   2.774
65197W        W37622  26.060  32.132  14.937
65198W        W37623  28.619   8.264   4.142
65199W        W37624   7.779  17.761  11.410
65200W        W37625   4.381   2.924  12.365
65201W        W37626  40.428  37.970  10.973
65202W        W37627  22.522  19.545   2.885
65203W        W37628  32.910   3.285  10.506
65204W        W37629  13.156   1.908  11.127
65205W        W37630  26.637  32.064   4.214
65206W        W37631  20.666  12.775  12.075
65207W        W37632  19.762  18.778   3.723
65208W        W37633  17.277  37.899   2.757
65209W        W37634   4.725  32.504  12.544
65210W        W37635  41.975  34.526  13.500
65211W        W37636  28.537  43.287  13.982
65212W        W37637   4.290  41.914  10.504
65213W        W37638  41.455  34.437   3.196
65214W        W37639  11.180  39.335  11.607
65215W        W37640  13.675  35.081   2.714
65216W        W37641  12.792  16.117  14.484
65217W        W37642   1.385   0.304   3.634
65218W        W37643  41.296  21.688   3.366
65219W        W37644   5.377  13.678  12.091
65220W        W37645  33.054  27.552   1.741
65221W        W37646   2.905  34.873  13.531
65222W        W37647  34.876  14.328  14.794
65223W        W37648  12.263  34.575  12.399
65224W        W37649  44.818  22.725  12.960
65225W        W37650  35.425   7.672   1.243
65226W        W37651  19.681   0.962   1.793
65227W        W37652   1.901  32.926  13.520
65228W        W37653  28.945  14.293  13.957
65229W        W37654  11.704  19.757  11.584
65230W        W37655  21.093  31.642   4.173
65231W        W37656   7.719  20.557  11.067
65232W        W37657  19.275   9.837  10.889
65233W        W37658  15.695  34.368  13.971
65234W        W37659   4.363   0.987  11.572
65235W        W37660  39.499  34.885   2.374
65236W        W37661  29.104   6.325  13.309
65237W        W37662  41.835  26.575  11.919
65238W        W37663  21.617  20.579  13.813
65239W        W37664   8.392  11.789  11.497
65240W        W37665  21.114  29.514   1.307
65241W        W37666  31.492  25.139  10.629
65242W        W37667  17.156  10.295   5.234
65243W        W37668  34.002  20.712   2.375
65244W        W37669  18.275   0.834  12.404
65245W        W37670  20.644  24.034  11.384
65246W        W37671  14.605   7.245   2.351
65247W        W37672  15.284   7.380  14.866
65248W        W37673  12.846  38.044  12.077
65249W        W37674  14.214  15.210  10.956
65250W        W37675  33.562  25.470   3.147
65251W        W37676  35.485  37.580   4.642
65252W        W37677  30.055  19.049  12.061
65253W        W37678  25.188  16.080  13.965
65254W        W37679   8.812   7.263   2.861
65255W        W37680   7.857   7.802   5.592
65256W        W37681  37.425  14.279  11.068
65257W        W37682  30.977  24.064  11.993
65258W        W37683  44.007  15.809  12.040
65259W        W37684  24.205  10.263  12.343
65260W        W37685  10.828  37.457  11.958
65261W        W37686  24.519  11.212   2.897
65262W        W37687  29.493  23.228  14.995
65263W        W37688  38.925  42.976   5.278
65264W        W37689  11.320   1.422  11.926
65265W        W37690  42.865   6.200   2.721
65266W        W37691  40.039  26.695   1.871
65267W        W37692   7.840  24.102   1.744
65268W        W37693  23.698   8.852  10.156
65269W        W37694  22.702   7.241  11.464
65270W        W37695  19.073  20.605   4.803
65271W        W37696  36.859  23.145  11.915
65272W        W37697  23.732   4.432   1.713
65273W        W37698  27.185   5.270  11.519
65274W        W37699  34.070  35.099   1.717
65275W        W37700  36.399  35.911  13.866
65276W        W37701  31.951  33.470   0.369
65277W        W37702  39.044  36.012   1.799
65278W        W37703  35.995  21.152  10.916
65279W        W37704  43.011  11.703  13.977
65280W        W37705  21.740  26.179  12.074
65281W        W37706  17.661   0.962  11.383
65282W        W37707  14.224  16.241   0.321
65283W        W37708   8.293  13.721   4.186
65284W        W37709  35.435  26.066  13.848
65285W        W37710  37.059   5.279   1.283
65286W        W37711  39.329   0.297   9.636
65287W        W37712  27.595  34.872  10.527
65288W        W37713  38.878   8.169   0.966
65289W        W37714  17.209  26.063   2.667
65290W        W37715  41.965  12.335   3.740
65291W        W37716  41.918  12.189   3.365
65292W        W37717  34.597  35.561  13.974
65293W        W37718  32.637  18.116   4.690
65294W        W37719  18.062  19.124  10.600
65295W        W37720  25.052  35.910  12.904
65296W        W37721  21.526  32.633   0.276
65297W        W37722  14.163   3.889   4.279
65298W        W37723  29.512  41.304   1.874
65299W        W37724  12.357  14.598  11.008
65300W        W37725  17.245  36.929  14.279
65301W        W37726   5.266  42.512   1.358
65302W        W37727  28.446  12.854  13.795
65303W        W37728  15.136  41.521  11.395
65304W        W37729  38.353  44.996  10.939
65305W        W37730  27.617   7.361   1.324
65306W        W37731  29.965  12.216   0.457
65307W        W37732  27.044  23.597  12.397
65308W        W37733  22.188  22.214   3.783
65309W        W37734  41.524  37.516   2.389
65310W        W37735  30.470   5.192   3.647
65311W        W37736  26.698  28.081  12.547
65312W        W37737  21.622  32.463  11.945
65313W        W37738  29.050  36.931  14.393
65314W        W37739   4.939  12.667  13.525
65315W        W37740  16.731  24.681   2.887
65316W        W37741  42.419  40.871  11.948
65317W        W37742  15.253  16.221   2.735
65318W        W37743  31.620  41.843  10.640
65319W        W37744  15.095   3.856  12.833
65320W        W37745   0.306  11.183   3.375
65321W        W37746   2.259  15.318   1.814
65322W        W37747  40.911  25.218  12.972
65323W        W37748  12.632  36.443   0.960
65324W        W37749   5.203  36.477  10.903
65325W        W37750  40.421  31.995  11.508
65326W        W37751   7.683  44.959  10.521
65327W        W37752  38.481  28.002   1.931
65328W        W37753  30.510   8.808  13.351
65329W        W37754  20.549  33.572  10.999
65330W        W37755  10.708  39.927  11.453
65331W        W37756  21.542  29.503  13.843
65332W        W37757  33.610  10.799  11.405
65333W        W37758  25.992  38.974   0.748
65334W        W37759  31.099  33.414  11.112
65335W        W37760  24.504  17.601  14.771
65336W        W37761   3.862   7.265   0.351
65337W        W37762   7.380  38.524  14.379
65338W        W37763  26.606  19.056   2.895
65339W        W37764   4.824  28.489   0.834
65340W        W37765  13.234  11.839   1.844
65341W        W37766  30.986  41.371  12.051
65342W        W37767   9.261  19.613   5.308
65343W        W37768  38.346  35.543  11.499
65344W        W37769  18.270   8.233   1.904
65345W        W37770  40.320  30.055  11.991
65346W        W37771  10.654  28.946   4.310
65347W        W37772  19.692  11.157  11.050
65348W        W37773  15.757  12.613  14.463
65349W        W37774  31.897  38.913  14.389
65350W        W37775  33.420   6.231   3.359
65351W        W37776   9.336  22.535   4.276
65352W        W37777  29.662   7.227   3.304
65353W        W37778  14.593   0.254  10.422
65354W        W37779  34.085   7.215   0.864
65355W        W37780  41.986  32.493  14.365
65356W        W37781  25.649  30.599   0.769
65357W        W37782  20.179  36.937  11.379
65358W        W37783   9.767  44.966  11.511
65359W        W37784  11.635  12.197   4.836
65360W        W37785  15.122  32.943   3.685
65361W        W37786  15.582  29.633   1.892
65362W        W37787  37.515  40.540  14.298
65363W        W37788  25.019  20.732  14.909
65364W        W37789  42.516  32.441   2.226
65365W        W37790  29.970  30.136   2.835
65366W        W37791  40.843  22.038   4.737
65367W        W37792  34.920   6.260  10.424
65368W        W37793  24.487  19.216   1.284
65369W        W37794  10.829  13.752   2.249
65370W        W37795   0.446  26.512  13.536
65371W        W37796  12.233  28.473  13.432
65372W        W37797   0.796   6.713   4.644
65373W        W37798  17.086  28.561  12.016
65374W        W37799  19.671  40.478  12.487
65375W        W37800  22.636  19.056   2.379
65376W        W37801  26.647  11.347  12.908
65377W        W37802  37.533  31.104  14.461
65378W        W37803  42.519  30.987   2.410
65379W        W37804  41.013  28.014   0.245
65380W        W37805  34.598   4.213  11.043
65381W        W37806  34.475  16.269  13.908
65382W        W37807  11.128  35.871   4.124
65383W        W37808  20.146  33.085   3.631
65384W        W37809  10.654  24.529  12.008
65385W        W37810  37.895   7.242  11.428
65386W        W37811  22.074  26.966  12.916
65387W        W37812  25.516   6.855  14.298
65388W        W37813  17.096  13.781  11.899
65389W        W37814  43.799   0.839   3.775
65390W        W37815  10.170  25.496  11.943
65391W        W37816  11.339  44.967   4.818
65392W        W37817  38.362  14.253  13.946
65393W        W37818  14.142  30.964   2.820
65394W        W37819   1.468   5.689   4.185
65395W        W37820  21.678  10.869  13.423
65396W        W37821  25.668  30.423  12.086
65397W        W37822  12.647  16.193  14.975
65398W        W37823  34.930  36.939   0.916
65399W        W37824  37.441  23.550  13.826
65400W        W37825   3.888  19.731   5.156
65401W        W37826  23.078  42.300  14.867
65402W        W37827   0.748  12.324  11.079
65403W        W37828  43.821   2.269   3.365
65404W        W37829  36.455  33.498   4.209
65405W        W37830  15.660   4.321   0.284
65406W        W37831  18.171   8.242   4.299
65407W        W37832   9.744  14.308   2.271
65408W        W37833  43.378  37.006  11.967
65409W        W37834  10.285   7.293   0.889
65410W        W37835   0.885  26.525   0.899
65411W        W37836  13.288  35.549   4.827
65412W        W37837   7.901  25.099   3.196
65413W        W37838  39.373   1.756   2.816
65414W        W37839  43.346  11.868   3.771
65415W        W37840  22.582  23.111   1.283
65416W        W37841  13.267  29.562  12.021
65417W        W37842  37.403  22.166  13.307
65418W        W37843  16.620  11.652  12.921
65419W        W37844  22.059   7.304  13.944
65420W        W37845  19.709  33.490   1.223
65421W        W37846  23.656  42.980   4.755
65422W        W37847  19.563   1.313   2.853
65423W        W37848  42.497  35.582  11.511
65424W        W37849  43.880  39.957  10.993
65425W        W37850  14.211  34.088   1.404
65426W        W37851  42.325   3.244  14.344
65427W        W37852   8.311  26.479   1.244
65428W        W37853  25.165  44.363   1.323
65429W        W37854  39.861  39.359   1.252
65430W        W37855  12.797  28.948  10.409
65431W        W37856  20.079  29.501   3.373
65432W        W37857  37.081   4.405  14.838
65433W        W37858  25.627  10.849  10.127
65434W        W37859  27.459  15.222  12.882
65435W        W37860  34.411  28.439   2.865
65436W        W37861  36.848  32.121  14.309
65437W        W37862   2.813  32.422   3.281
65438W        W37863  19.100  41.035   0.358
65439W        W37864  37.923  43.449   3.290
65440W        W37865  33.511  18.579  11.917
65441W        W37866  16.131  19.205  14.972
65442W        W37867  35.457  22.131   4.305
65443W        W37868   7.700  32.995  11.440
65444W        W37869   8.720  12.832  10.066
65445W        W37870  31.006  12.715  10.411
65446W        W37871  21.247  22.218  12.407
65447W        W37872  21.094   0.420   2.786
65448W        W37873  35.972  32.042   4.272
65449W        W37874  35.468  18.124  14.306
65450W        W37875  43.489  24.125   1.808
65451W        W37876  22.746  11.157   4.212
65452W        W37877  40.434  18.060   1.782
65453W        W37878  34.019  34.402  11.914
65454W        W37879  41.361  31.432  14.284
65455W        W37880  28.136  10.634  14.917
65456W        W37881  12.674   8.730   0.263
65457W        W37882  18.078  31.428   5.092
65458W        W37883  43.338  29.426   1.393
65459W        W37884  22.035  36.096   2.305
65460W        W37885  42.788   1.746  10.589
65461W        W37886  15.163  36.358  11.878
65462W        W37887  22.014   0.931  13.526
65463W        W37888  12.671  12.297   3.373
65464W        W37889  23.187  29.638  12.531
65465W        W37890  41.369  37.034   3.313
65466W        W37891  37.479  21.561  12.428
65467W        W37892  15.796  39.350  11.433
65468W        W37893   1.791  26.132  13.446
65469W        W37894  41.436   2.364  12.848
65470W        W37895   2.468   8.277  13.062
65471W        W37896  35.997  37.020   1.901
65472W        W37897  15.736  10.789  12.566
65473W        W37898  11.178   9.827   4.664
65474W        W37899   0.400  23.654  13.390
65475W        W37900  12.339  19.242   1.437
65476W        W37901  41.449  10.733  14.356
65477W        W37902  20.763  17.269  11.454
65478W        W37903  39.538   5.287   1.701
65479W        W37904  43.279  18.591  14.864
65480W        W37905  38.453  32.981   0.825
65481W        W37906  34.950  17.062   3.630
65482W        W37907  14.275  30.479  12.953
65483W        W37908  14.181  29.553  13.916
65484W        W37909   0.429  18.229   0.351
65485W        W37910   4.290  28.458   4.624
65486W        W37911  22.622   8.717   2.252
65487W        W37912  30.468  42.306   3.167
65488W        W37913  12.250  28.480  12.076
65489W        W37914   6.676  35.526  13.407
65490W        W37915  14.638  38.860   4.673
65491W        W37916  13.651  12.348  11.394
65492W        W37917  14.788  41.012  13.016
65493W        W37918  31.493  10.761   0.362
65494W        W37919  18.576  20.557   0.941
65495W        W37920  20.642  36.903   2.178
65496W        W37921   5.852  11.822  10.908
65497W        W37922  20.698  39.415  13.819
65498W        W37923  43.488  21.563   4.347
65499W        W37924  38.359  20.140  14.372
65500W        W37925   1.965   0.980   1.794
65501W        W37926   6.194   7.911   4.224
65502W        W37927   3.217  25.083  11.056
65503W        W37928  22.561  44.009   0.826
65504W        W37929  13.151   4.378   0.437
65505W        W37930  12.316   3.331   2.795
65506W        W37931  23.698  10.716  10.563
65507W        W37932  33.613  42.883  11.505
65508W        W37933  12.709  36.495   0.379
65509W        W37934  11.827  35.939   2.742
65510W        W37935  13.836  26.652  12.399
65511W        W37936  36.487   9.245  11.538
65512W        W37937   0.326  37.450   2.868
65513W        W37938  20.264  34.545   1.381
65514W        W37939  29.637   9.345  12.453
65515W        W37940  43.337  16.277  12.448
65516W        W37941  12.226  17.150  12.485
65517W        W37942  22.180   9.340  10.125
65518W        W37943  16.699  26.996  12.940
65519W        W37944  19.572  38.363   4.191
65520W        W37945   5.407  11.164  12.545
65521W        W37946  10.785  40.512  12.450
65522W        W37947  39.818  29.599   4.254
65523W        W37948  41.871  17.090   3.301
65524W        W37949  27.946  21.138  10.629
65525W        W37950  21.636   4.249   4.304
65526W        W37951  39.343   3.947   2.747
65527W        W37952  26.010  26.016  11.890
65528W        W37953  33.875  39.392   1.315
65529W        W37954  26.142  43.912  13.378
65530W        W37955  15.661  21.127   3.276
65531W        W37956  38.361  42.288  11.997
65532W        W37957   2.252   0.458  13.445
65533W        W37958  37.419   8.390   2.205
65534W        W37959   0.432  27.555   0.762
65535W        W37960   9.274  21.580  14.431
65536W        W37961  32.473  11.264  10.471
65537W        W37962  14.678   4.427  13.385
65538W        W37963  36.502  26.612  10.014
65539W        W37964   8.795  35.603   1.252
65540W        W37965  12.819   6.682  13.037
65541W        W37966   0.286  19.150   4.240
65542W        W37967  38.879  40.810   3.764
65543W        W37968  23.700  10.275   0.794
65544W        W37969  26.005  36.013  13.476
65545W        W37970  15.101  41.452   4.301
65546W        W37971  24.669  26.546  12.459
65547W        W37972  16.783   5.293   3.846
65548W        W37973  27.188  37.444   0.463
65549W        W37974  31.612  38.555   1.404
65550W        W37975  44.332  41.022  11.415
65551W        W37976   1.356  16.193  13.886
65552W        W37977  20.106  41.976  12.950
65553W        W37978  37.849  30.139   3.265
65554W        W37979   4.220  36.446   4.835
65555W        W37980  44.997  22.664   2.415
65556W        W37981  24.071  24.026   4.621
65557W        W37982  34.417   2.262  12.475
65558W        W37983   9.383   3.321   3.310
65559W        W37984   1.456  33.972  13.049
65560W        W37985  28.937  27.526   3.858
65561W        W37986   2.747  35.043   3.744
65562W        W37987  10.238  36.355  11.544
65563W        W37988   5.275  19.726   1.279
65564W        W37989  28.447  40.971   1.419
65565W        W37990  28.178  38.926   5.283
65566W        W37991  24.644   4.835  13.426
65567W        W37992  10.658  43.510   3.199
65568W        W37993   4.427  39.999   1.730
65569W        W37994   3.329  15.676   5.107
65570W        W37995   2.836  26.587  12.458
65571W        W37996  23.625  13.815   3.708
65572W        W37997  21.128  19.216  14.327
65573W        W37998  15.286  37.523  14.458
65574W        W37999   6.906  19.656  14.377
65575W        W38000  11.833  19.597   1.754
65576W        W38001  43.353   9.750  12.994
65577W        W38002   9.352   1.959   4.314
65578W        W38003   4.933  19.098   1.745
65579W        W38004  40.504  40.474  10.006
65580W        W38005  23.234  17.118  12.835
65581W        W38006  39.938  43.985   3.708
65582W        W38007  10.364  28.581  12.956
65583W        W38008  30.429  10.657  13.415
65584W        W38009  19.563   0.294  11.416
65585W        W38010   1.978  25.962  14.305
65586W        W38011  44.494  15.779  12.357
65587W        W38012  35.064  35.909  13.964
65588W        W38013   0.378   3.263   4.344
65589W        W38014   1.324  17.278  12.929
65590W        W38015  30.459  42.834   0.308
65591W        W38016  17.603  42.480  14.764
65592W        W38017   4.206   7.695   2.260
65593W        W38018  21.618  16.790  12.933
65594W        W38019  15.737  16.081  14.871
65595W        W38020  13.686  43.786  11.898
65596W        W38021  19.163  19.264   3.759
65597W        W38022  17.108   2.762  11.064
65598W        W38023   7.258  12.231   3.163
65599W        W38024  25.981   5.311  14.401
65600W        W38025  15.619  14.804  14.787
65601W        W38026  33.901  25.149   3.850
65602W        W38027  10.193   2.726  10.636
65603W        W38028   4.388  30.640  12.348
65604W        W38029   1.322   7.247   1.826
65605W        W38030   2.444   4.232  14.939
65606W        W38031  38.492  28.661  13.532
65607W        W38032  42.939  12.736   3.763
65608W        W38033  32.013  37.972  12.051
65609W        W38034   7.737  24.626   2.228
65610W        W38035  33.432  19.557   0.770
65611W        W38036  24.106  22.056  11.402
65612W        W38037   3.418  21.049   0.477
65613W        W38038   0.270  30.470   2.419
65614W        W38039   3.872  11.191  13.457
65615W        W38040   2.404  17.616   4.697
65616W        W38041  13.619   6.893  13.467
65617W        W38042  27.536  12.763   1.714
65618W        W38043   0.798  10.259  14.763
65619W        W38044  31.904   1.310   0.945
65620W        W38045  34.507  21.756   0.295
65621W        W38046  20.655   8.802   2.694
65622W        W38047  36.499  23.066  14.841
65623W        W38048  23.029  14.816   0.942
65624W        W38049  30.989   2.415   0.852
65625W        W38050  43.325  20.575   4.182
65626W        W38051   5.412  14.231  11.025
65627W        W38052   3.873  43.412   0.811
65628W        W38053   3.887  17.783   2.237
65629W        W38054  34.904  22.131   2.287
65630W        W38055  32.614  26.645  11.512
65631W        W38056  32.557  17.640   4.169
65632W        W38057  41.358  43.960   2.377
65633W        W38058  26.628   0.320  12.448
65634W        W38059  38.490   5.241  13.931
65635W        W38060  18.767  25.011  12.540
65636W        W38061   3.749  39.044  10.097
65637W        W38062  16.645   0.744   0.427
65638W        W38063   7.852  22.137   4.334
65639W        W38064  39.833  15.676   0.362
65640W        W38065  10.210  34.880  11.981
65641W        W38066  34.946  34.599   2.750
65642W        W38067  15.715  18.216  14.862
65643W        W38068  23.535  35.943  12.342
65644W        W38069   8.177  24.090  12.865
65645W        W38070  16.734  30.994   3.271
65646W        W38071  29.935  11.126  14.780
65647W        W38072  42.390  21.720  10.641
65648W        W38073   8.716  42.286  13.483
65649W        W38074   8.327  40.385  13.527
65650W        W38075  23.106   3.215  14.500
65651W        W38076   8.797  13.167  10.440
65652W        W38077  34.898  19.734   5.167
65653W        W38078   2.885  27.957   4.632
65654W        W38079  15.592  18.786   4.807
65655W        W38080  10.204  43.389  13.812
65656W        W38081  14.767  17.104  14.003
65657W        W38082  19.160  23.557  12.083
65658W        W38083  29.595  39.834   1.896
65659W        W38084  28.510  23.023   4.190
65660W        W38085  22.151  18.660  12.016
65661W        W38086  10.261  29.523   4.140
65662W        W38087   6.742   3.850   3.345
65663W        W38088   4.814  29.474   2.302
65664W        W38089  40.893  13.225   4.251
65665W        W38090  39.047   8.839  11.125
65666W        W38091  30.650  36.374  12.451
65667W        W38092  42.032   6.388  14.834
65668W        W38093  33.017   6.298  12.378
65669W        W38094  10.721  41.373   0.839
65670W        W38095  38.554  15.285   2.760
65671W        W38096   2.956  15.638   2.308
65672W        W38097  34.511  24.596   2.244
65673W        W38098  20.698  10.663  14.842
65674W        W38099   7.820  10.862   4.134
65675W        W38100  41.892   4.210   1.377
65676W        W38101  25.521  20.716  11.495
65677W        W38102  12.679  12.233   4.687
65678W        W38103  29.171  19.608   1.729
65679W        W38104  41.020  15.704  12.452
65680W        W38105  44.428  14.701   4.627
65681W        W38106  27.581  37.954   3.155
65682W        W38107  30.492  17.172   2.673
65683W        W38108  20.737   9.727  14.883
65684W        W38109  17.711  12.265  13.376
65685W        W38110  31.997  42.357  14.022
65686W        W38111  14.121  41.307  11.099
65687W        W38112  44.406  13.765  13.989
65688W        W38113  13.334  34.483  14.953
65689W        W38114  10.146   4.293  13.349
65690W        W38115  17.195  35.861  12.092
65691W        W38116  17.689  38.452  14.846
65692W        W38117   4.401  10.850   1.904
65693W        W38118  24.097  37.345  13.348
65694W        W38119  22.585   9.791   0.799
65695W        W38120  26.067   9.738   2.678
65696W        W38121  41.395  23.011   3.711
65697W        W38122  19.149  44.773   1.403
65698W        W38123  10.273  10.740   4.778
65699W        W38124  36.587  40.453  11.956
65700W        W38125  21.033  40.336   3.385
65701W        W38126  13.233   3.275  11.411
65702W        W38127  11.181   1.904   2.679
65703W        W38128  22.220  18.683   2.765
65704W        W38129  29.155  13.172  10.932
65705W        W38130   8.220  15.666   2.194
65706W        W38131  40.894  32.961   2.387
65707W        W38132  32.390  36.041  10.930
65708W        W38133  27.123   1.736  14.027
65709W        W38134   4.795   6.383   3.282
65710W        W38135   9.392  17.145  13.538
65711W        W38136  25.169  27.185   1.892
65712W        W38137  25.681  41.871   2.317
65713W        W38138   6.401  17.572   4.269
65714W        W38139   6.372  16.803  10.550
65715W        W38140  11.275  43.485  12.392
65716W        W38141  37.983  34.564  12.445
65717W        W38142  16.751   9.845   4.307
65718W        W38143  42.396  27.195   4.736
65719W        W38144  36.584  15.688   0.314
65720W        W38145   7.411  39.497   3.663
65721W        W38146   8.692  14.300  13.392
65722W        W38147   3.712  14.297  14.781
65723W        W38148  28.524   2.245  10.453
65724W        W38149  44.338  39.417   4.340
65725W        W38150  21.224   3.910  14.773
65726W        W38151  36.382  17.302   0.797
65727W        W38152  20.712  37.067   2.714
65728W        W38153  11.634  14.793   2.788
65729W        W38154  36.431  39.952  12.443
65730W        W38155  36.397  29.023   0.447
65731W        W38156  13.126  17.201   1.358
65732W        W38157  28.003  29.575  12.366
65733W        W38158  23.206  19.566  11.604
65734W        W38159  30.632  26.537   1.775
65735W        W38160  43.013  39.997  12.916
65736W        W38161  10.669  19.583   3.818
65737W        W38162  33.605   6.350   4.202
65738W        W38163  10.253   0.388  14.487
65739W        W38164   6.183  40.455   1.398
65740W        W38165  21.599  13.620   0.954
65741W        W38166   5.248  24.622   4.636
65742W        W38167  43.308  12.711  12.467
65743W        W38168  40.845  33.589  11.933
65744W        W38169  30.946  24.129   3.291
65745W        W38170  25.142  30.020  11.938
65746W        W38171  26.169  13.289  14.483
65747W        W38172  30.130  36.918  14.807
65748W        W38173  42.994   0.882   3.709
65749W        W38174   9.377   4.448  10.467
65750W        W38175  30.997  25.175  14.334
65751W        W38176   9.775  39.059   3.267
65752W        W38177  39.993  30.072   1.916
65753W        W38178  33.473  16.707   3.161
65754W        W38179  38.014  44.854  11.433
65755W        W38180  36.511  36.364  14.289
65756W        W38181  38.447  44.929   4.139
65757W        W38182  12.283  14.234  10.617
65758W        W38183  33.423   4.916   0.325
65759W        W38184  37.543  24.593   9.933
65760W        W38185  34.868   3.254   3.651
65761W        W38186  36.505  32.434  11.092
65762W        W38187   8.892  18.752   1.392
65763W        W38188  25.526   2.453   3.829
65764W        W38189  35.036  20.754   0.453
65765W        W38190   6.715   4.370   3.156
65766W        W38191  24.646   7.237   4.212
65767W        W38192  37.538  14.228   2.788
65768W        W38193  38.856  29.472  11.562
65769W        W38194  44.364  24.547  10.149
65770W        W38195  36.008   2.761   3.777
65771W        W38196  28.516  44.919   2.778
65772W        W38197  34.921  42.525  12.431
65773W        W38198  14.641  28.941   4.666
65774W        W38199  20.245  42.974  12.387
65775W        W38200  26.015  25.574  12.935
65776W        W38201   4.242  16.707   4.180
65777W        W38202   5.377  30.475  13.524
65778W        W38203  36.581  44.293  14.014
65779W        W38204   8.897   5.208   1.791
65780W        W38205  24.665  44.317  11.463
65781W        W38206  43.877  44.972   0.340
65782W        W38207  42.296  25.608  12.473
65783W        W38208  40.519  28.964  10.489
65784W        W38209  23.530   5.425   2.334
65785W        W38210  25.527  21.191  14.778
65786W        W38211  42.953   2.340   1.704
65787W        W38212  23.667  23.021  10.921
65788W        W38213  12.157  34.543   4.633
65789W        W38214  23.555  43.383   2.878
65790W        W38215  32.093  11.328   4.235
65791W        W38216  29.977  27.642   1.410
65792W        W38217  16.222  35.370  13.539
65793W        W38218  10.697  39.964  12.948
65794W        W38219  27.948  11.839  14.818
65795W        W38220  25.597  14.162   4.633
65796W        W38221  38.354  23.537  12.437
65797W        W38222   2.260  27.953  14.444
65798W        W38223  28.955  28.608   3.365
65799W        W38224  16.755  35.393   1.711
65800W        W38225  32.889  26.650  13.523
65801W        W38226  29.502   6.894   2.810
65802W        W38227   8.771  37.056  13.835
65803W        W38228  12.788  13.187   3.379
65804W        W38229   7.389   4.903  13.430
65805W        W38230   2.290   1.934   0.827
65806W        W38231  32.392  14.793   4.654
65807W        W38232  29.169  39.005  11.488
65808W        W38233  33.430  10.701  12.964
65809W        W38234   3.296  40.857  14.856
65810W        W38235  23.134  10.802  10.915
65811W        W38236  24.185   6.190   3.329
65812W        W38237  15.708  17.579  10.459
65813W        W38238  37.372  22.695  10.935
65814W        W38239  32.583  27.953   2.395
65815W        W38240  17.680  22.562   4.634
65816W        W38241  36.914  26.697   4.327
65817W        W38242  20.125  36.970   2.285
65818W        W38243  34.034  11.790  10.147
65819W        W38244  37.963  12.727   0.840
65820W        W38245  24.128  31.058   4.220
65821W        W38246  26.086  37.357   2.698
65822W        W38247  15.091  35.600  10.533
65823W        W38248   7.228   2.245   0.959
65824W        W38249   0.897   7.815   4.622
65825W        W38250  22.194  26.951  11.450
65826W        W38251  31.938   1.439  13.959
65827W        W38252  28.169   1.752   0.878
65828W        W38253  24.619  24.575   3.342
65829W        W38254  18.739  44.977  12.051
65830W        W38255  21.757  30.077   0.380
65831W        W38256  25.470  33.082   3.650
65832W        W38257  19.190   4.258  13.889
65833W        W38258  29.664  19.204   2.204
65834W        W38259  36.531  35.525  10.629
65835W        W38260  44.473  21.730  11.115
65836W        W38261  38.330  15.157   3.339
65837W        W38262  25.981  20.149  11.545
65838W        W38263  19.159  30.126   0.432
65839W        W38264  28.156  31.973   9.987
65840W        W38265  30.160   0.450   1.343
65841W        W38266  16.618  11.822   2.817
65842W        W38267  25.030  41.389   1.851
65843W        W38268  41.331   0.908   4.805
65844W        W38269  28.585  18.285  14.326
65845W        W38270  11.636   6.800  13.532
65846W        W38271  34.066  29.646   0.361
65847W        W38272  34.027  10.186   4.265
65848W        W38273  31.594  14.596   3.299
65849W        W38274  20.589  19.762  11.938
65850W        W38275  17.665  36.524   2.298
65851W        W38276  21.203  44.334  11.886
65852W        W38277   7.698  36.498  13.371
65853W        W38278  26.627  34.011   0.726
65854W        W38279  18.563  36.922   4.191
65855W        W38280   0.790  18.569  12.545
65856W        W38281  32.454   7.686   0.864
65857W        W38282  41.967  40.854  14.861
65858W        W38283  14.286  21.596   1.384
65859W        W38284  38.547  31.414   3.304
65860W        W38285   6.297  12.225   0.455
65861W        W38286  23.605  42.946  11.022
65862W        W38287  24.713  23.611  10.504
65863W        W38288  23.576   6.787   0.844
65864W        W38289  37.890   9.341  10.954
65865W        W38290  27.059  43.863  12.999
65866W        W38291   6.808  19.145   0.938
65867W        W38292  37.064  17.298  12.374
65868W        W38293  14.331  22.540  10.958
65869W        W38294  22.581  40.537  14.807
65870W        W38295  15.126  36.441  13.507
65871W        W38296  25.048  19.769   2.684
65872W        W38297  10.792  10.166   3.375
65873W        W38298  38.000   3.777  10.416
65874W        W38299  43.435   1.855   2.792
65875W        W38300  20.683  10.327   0.935
65876W        W38301  32.572  16.752   0.914
65877W        W38302  15.261  24.169  14.417
65878W        W38303  31.009  12.129   3.321
65879W        W38304   7.695  22.024  11.565
65880W        W38305  14.791  34.930  12.984
65881W        W38306   7.821  21.139  14.424
65882W        W38307  22.053  15.269  11.956
65883W        W38308  23.517  12.688  12.019
65884W        W38309   2.935  41.429  13.004
65885W        W38310  28.123   0.809   2.415
65886W        W38311  32.418  27.005   2.228
65887W        W38312  13.232  27.643   4.309
65888W        W38313  15.584  32.101  13.373
65889W        W38314   7.811  21.115  11.062
65890W        W38315  13.350  16.611   3.348
65891W        W38316  12.714  27.085   0.960
65892W        W38317  29.641   3.405   5.104
65893W        W38318  44.767  43.413   3.638
65894W        W38319  18.053   7.380  14.011
65895W        W38320  16.197   3.296  12.488
65896W        W38321  11.630  23.685  14.507
65897W        W38322  40.822  15.603   0.727
65898W        W38323   7.254   4.716  14.820
65899W        W38324  23.063  42.020   3.840
65900W        W38325  12.133  14.752  13.968
65901W        W38326  29.040  24.995  13.539
65902W        W38327  38.494  13.754   2.321
65903W        W38328   4.722  37.978  13.442
65904W        W38329  32.548  38.068   3.687
65905W        W38330  28.032  41.886   0.809
65906W        W38331  16.283  22.616  13.932
65907W        W38332  16.759  40.025   3.715
65908W        W38333  40.430  44.468   1.365
65909W        W38334  36.960  39.838   1.375
65910W        W38335  38.878   9.198   4.644
65911W        W38336  32.046  30.558   4.145
65912W        W38337  22.119   1.874  13.814
65913W        W38338  10.720  34.956  10.639
65914W        W38339  34.604  41.953   3.839
65915W        W38340  14.761   1.320   4.707
65916W        W38341  35.955   1.935   3.632
65917W        W38342  30.107   3.384   4.321
65918W        W38343  21.103   4.734   3.282
65919W        W38344  36.959  30.131  13.838
65920W        W38345  11.149  39.461   4.749
65921W        W38346  22.047  32.940   4.755
65922W        W38347  27.560  19.259  11.978
65923W        W38348  36.525  10.687   2.310
65924W        W38349  14.694   7.895   3.266
65925W        W38350  40.485  39.415  12.426
65926W        W38351  13.752  43.468  11.573
65927W        W38352  10.721  39.895  13.428
65928W        W38353   4.788  40.811   4.165
65929W        W38354  21.689   2.734  12.919
65930W        W38355  16.308  30.067   1.262
65931W        W38356  36.872  19.209  12.961
65932W        W38357  13.105   5.919   2.889
65933W        W38358  38.059  29.589  12.490
65934W        W38359   4.889  30.646  13.941
65935W        W38360  36.519  32.941   1.293
65936W        W38361  19.268  36.510  14.372
65937W        W38362   8.795  17.278   0.467
65938W        W38363   5.263  23.992  11.890
65939W        W38364  37.543   6.391   3.283
65940W        W38365  32.421  31.003   1.425
65941W        W38366   8.184  14.666   2.742
65942W        W38367  40.872  26.512  12.476
65943W        W38368  38.387  18.732  13.909
65944W        W38369   8.671  16.626   0.876
65945W        W38370   5.788  43.879  11.556
65946W        W38371  27.447   5.921  14.369
65947W        W38372  15.678   8.877  13.012
65948W        W38373  24.507  34.083  13.521
65949W        W38374   0.423   6.772  14.446
65950W        W38375  28.606  27.686  10.950
65951W        W38376  15.086   8.163  11.444
65952W        W38377  19.094  18.092   4.738
65953W        W38378  36.378  42.501  11.033
65954W        W38379  25.552  26.613  11.896
65955W        W38380  25.991  11.205  10.558
65956W        W38381   5.691  13.601  14.382
65957W        W38382   0.394   2.732   0.453
65958W        W38383  38.524  18.651   2.309
65959W        W38384  43.952  17.224   0.948
65960W        W38385  16.631  32.038   3.819
65961W        W38386  10.830  44.871   3.207
65962W        W38387  33.921  40.898  13.431
65963W        W38388   1.395  29.066  13.444
65964W        W38389  23.179  23.570  13.447
65965W        W38390  11.287  42.373  13.799
65966W        W38391  15.752  40.462  13.338
65967W        W38392  37.947  26.618   3.219
65968W        W38393   0.850  17.245  11.077
65969W        W38394  12.298   1.259  14.897
65970W        W38395   1.388   5.848  11.446
65971W        W38396  43.435  36.044  11.009
65972W        W38397  38.074   8.777   4.260
65973W        W38398   7.671  27.538  12.522
65974W        W38399  27.497  35.566   0.474
65975W        W38400  13.605  28.580   2.194
65976W        W38401  29.076  25.129   2.867
65977W        W38402  36.375   9.712   1.367
65978W        W38403  18.682  31.917  13.823
65979W        W38404  18.238  16.780   3.217
65980W        W38405  15.099  19.258   3.332
65981W        W38406   3.936  40.318   3.160
65982W        W38407  40.925  31.573   1.399
65983W        W38408   6.836   5.792  14.929
65984W        W38409  24.525  40.527  10.898
65985W        W38410   6.409  36.925   4.114
65986W        W38411  30.418  29.011   2.699
65987W        W38412   8.376   0.445  10.618
65988W        W38413  26.200   1.393  10.431
65989W        W38414  37.082  18.641   4.662
65990W        W38415  29.937  13.772   0.267
65991W        W38416  30.525  36.502   2.814
65992W        W38417   4.812  10.294  13.409
65993W        W38418  28.606  34.490   0.307
65994W        W38419  43.969  20.661  14.858
65995W        W38420  41.357  30.919   0.761
65996W        W38421  20.071  31.467   0.457
65997W        W38422  33.599  15.797  10.595
65998W        W38423   2.774  40.320  10.459
65999W        W38424   5.846  21.667  14.440
66000W        W38425   1.302  37.406   0.253
66001W        W38426  25.565  36.014   5.181
66002W        W38427  35.428  36.983  12.351
66003W        W38428   0.373   4.732   3.749
66004W        W38429  43.019  35.904  14.814
66005W        W38430  29.986  41.453  12.463
66006W        W38431  40.506  15.823  11.988
66007W        W38432  23.113  42.360   2.340
66008W        W38433  35.484   2.890   0.808
66009W        W38434  10.687  44.789   0.455
66010W        W38435   1.453   3.248  13.823
66011W        W38436  40.842  34.579   4.617
66012W        W38437   7.314  14.686  12.019
66013W        W38438  17.142  42.780   1.830
66014W        W38439  20.600   4.731  10.574
66015W        W38440   8.686  43.460   3.689
66016W        W38441   9.695  26.047  13.963
66017W        W38442  33.502  35.599  12.002
66018W        W38443  27.469  19.582  10.575
66019W        W38444  35.892  41.299   4.743
66020W        W38445  29.431  17.791  12.887
66021W        W38446   1.817  20.674   3.814
66022W        W38447  14.165  28.021   3.236
66023W        W38448  35.932  28.436  12.952
66024W        W38449  35.532   2.333  12.061
66025W        W38450  34.009  13.188  14.362
66026W        W38451  10.676  44.832  10.940
66027W        W38452   9.796   1.808   2.730
66028W        W38453  44.931   6.342  13.389
66029W        W38454   1.281  39.879  12.572
66030W        W38455  42.496  44.892  11.118
66031W        W38456  29.470  36.052  11.011
66032W        W38457   6.254  43.020   4.303
66033W        W38458   3.824  25.108  11.034
66034W        W38459  32.042  38.355   2.889
66035W        W38460  41.440   8.781   3.230
66036W        W38461   4.251   2.914  14.987
66037W        W38462  39.345  37.965  14.336
66038W        W38463  44.360  41.985   3.860
66039W        W38464  31.010  43.365   0.826
66040W        W38465  37.929   9.678   0.907
66041W        W38466  44.890  14.225   2.665
66042W        W38467   1.738  17.073  11.611
66043W        W38468  30.926  15.252  13.420
66044W        W38469  13.727  10.787   1.846
66045W        W38470  26.018  16.126   3.854
66046W        W38471  11.347   7.325  11.904
66047W        W38472  39.820   6.222   2.378
66048W        W38473  15.323  28.039  11.019
66049W        W38474  28.005  19.640  13.447
66050W        W38475  24.719  10.262  12.950
66051W        W38476  25.040  18.783  13.378
66052W        W38477  10.854  20.743   0.433
66053W        W38478   9.312  28.963   4.702
66054W        W38479   0.344   8.182  14.483
66055W        W38480  32.930  30.443  12.393
66056W        W38481  11.688  11.249   4.616
66057W        W38482  41.810  21.587  12.052
66058W        W38483  35.381   5.796   3.370
66059W        W38484   4.392  24.187  13.888
66060W        W38485   1.746  35.419  12.828
66061W        W38486   4.223  13.251   1.211
66062W        W38487   0.903  26.004   4.281
66063W        W38488  44.259  29.541   4.820
66064W        W38489  10.742  13.225   1.915
66065W        W38490  28.606  10.684   3.657
66066W        W38491  41.442  14.266   2.408
66067W        W38492  21.136  10.255  13.454
66068W        W38493   4.392   1.242  12.875
66069W        W38494  20.763  34.007   0.803
66070W        W38495  25.677  30.648  14.399
66071W        W38496  31.624  36.471   1.361
66072W        W38497  43.925  29.630   3.799
66073W        W38498  31.498  20.270  13.001
66074W        W38499  10.170  42.443  11.563
66075W        W38500   9.872  14.695  13.504
66076W        W38501  32.069   6.716   2.828
66077W        W38502  13.627  40.384  11.432
66078W        W38503  37.922  33.590  12.878
66079W        W38504  18.167  11.683  13.505
66080W        W38505   2.288  12.733  14.979
66081W        W38506  29.978  31.982   3.202
66082W        W38507  31.571  10.642  14.981
66083W        W38508  24.541  23.189   0.342
66084W        W38509  34.008  41.340   4.646
66085W        W38510  14.799  12.332  10.525
66086W        W38511  32.530  30.440   1.225
66087W        W38512  11.301   9.733  13.481
66088W        W38513  11.700  19.568  12.552
66089W        W38514  17.779  10.182   3.632
66090W        W38515  31.517  11.720   4.250
66091W        W38516   1.265   2.885   2.293
66092W        W38517  10.720  42.448   1.824
66093W        W38518  42.953   9.351  10.533
66094W        W38519  34.959   5.251  13.821
66095W        W38520  37.853  41.003   4.245
66096W        W38521  33.435  14.657   4.294
66097W        W38522   5.382  30.558  13.892
66098W        W38523  18.256   1.290  14.398
66099W        W38524  35.451  27.059   1.756
66100W        W38525   4.217  10.841  14.452
66101W        W38526  35.956  19.696   3.643
66102W        W38527  21.551   9.764  12.970
66103W        W38528  30.960  26.556   0.303
66104W        W38529  13.155  36.961  13.354
66105W        W38530  29.669  34.478  13.962
66106W        W38531  11.672  34.544  13.420
66107W        W38532   5.351  40.384  10.573
66108W        W38533  12.356   0.361   3.854
66109W        W38534  19.129   4.921  14.464
66110W        W38535  10.675  20.752  13.039
66111W        W38536  44.377  36.895   3.226
66112W        W38537  27.160  27.156   0.432
66113W        W38538  44.805  37.983  12.991
66114W        W38539  14.288  24.987  13.425
66115W        W38540  31.601  36.911   0.308
66116W        W38541  13.622  34.117   0.767
66117W        W38542  14.827  18.136   0.437
66118W        W38543  44.262  17.671   4.661
66119W        W38544  22.743  42.816  11.421
66120W        W38545  38.013  10.647   3.193
66121W        W38546  12.705  21.724  11.513
66122W        W38547  31.597  12.758   0.837
66123W        W38548  26.637  40.414   3.224
66124W        W38549  10.661   6.371  12.437
66125W        W38550  43.321  26.614  11.074
66126W        W38551  19.634  37.448  10.469
66127W        W38552  30.516  17.140  13.539
66128W        W38553  14.231  16.129  11.001
66129W        W38554  42.912  41.978  14.974
66130W        W38555  22.675  38.934  12.431
66131W        W38556  41.810   9.368  13.944
66132W        W38557  35.001  33.535  13.451
66133W        W38558  25.624  18.593   2.869
66134W        W38559  11.737  39.061  13.335
66135W        W38560   1.363  27.115   4.782
66136W        W38561  19.761   1.931   4.697
66137W        W38562  12.255   4.916   3.317
66138W        W38563  24.201  35.065   2.419
66139W        W38564  15.176  13.833   4.654
66140W        W38565  25.557  26.028   1.289
66141W        W38566  44.787  16.191   4.179
66142W        W38567  29.645  32.937   3.185
66143W        W38568  41.336  29.515   3.683
66144W        W38569  35.026   4.445   1.242
66145W        W38570  22.637  21.216   9.989
66146W        W38571   8.686  12.211   1.904
66147W        W38572  20.749  10.159   2.769
66148W        W38573  38.059  43.905  10.046
66149W        W38574   9.384  37.945   0.464
66150W        W38575  29.471   2.464  11.962
66151W        W38576  14.137  43.415  11.543
66152W        W38577  14.190  34.397  11.604
66153W        W38578  12.695  18.634   2.780
66154W        W38579  38.377  37.357   4.224
66155W        W38580  34.889   7.863   4.147
66156W        W38581  16.591  44.463  12.992
66157W        W38582   8.162  41.980   1.736
66158W        W38583  39.446  43.344   0.390
66159W        W38584  42.293  42.512  13.050
66160W        W38585  43.498  19.778   1.394
66161W        W38586  29.652  10.226   0.308
66162W        W38587  41.433  11.711   4.158
66163W        W38588   8.192  31.929  12.466
66164W        W38589  43.356  24.691  11.561
66165W        W38590  34.033  13.111  12.838
66166W        W38591  11.166   2.310   1.915
66167W        W38592  31.046  28.934   4.609
66168W        W38593  37.008  21.185   3.749
66169W        W38594  32.913  17.126  13.002
66170W        W38595  32.452   7.805  12.911
66171W        W38596  31.927  41.353  11.948
66172W        W38597  16.228  21.208   1.231
66173W        W38598  22.736  31.084  10.433
66174W        W38599  13.309  35.083  10.444
66175W        W38600  20.074   3.763   1.213
66176W        W38601  40.036  39.957  14.993
66177W        W38602  26.694  14.289   3.679
66178W        W38603  19.166  42.479  14.825
66179W        W38604  41.372  29.482  10.621
66180W        W38605  38.007  38.863   2.193
66181W        W38606  29.604   3.401  13.483
66182W        W38607  15.731   3.933  14.901
66183W        W38608  35.395  18.610   3.864
66184W        W38609  16.798   4.842  11.473
66185W        W38610  22.647   7.835   0.317
66186W        W38611  37.036  40.853   2.775
66187W        W38612  21.673  32.118  14.023
66188W        W38613  38.825  20.071  11.943
66189W        W38614  32.615  30.438   1.710
66190W        W38615  27.062  19.753  10.927
66191W        W38616  27.679  41.369   2.217
66192W        W38617  14.292  17.613  14.980
66193W        W38618  39.352   4.411   1.302
66194W        W38619  22.031  37.438   3.667
66195W        W38620  29.451  37.842  12.403
66196W        W38621   3.446   0.815   5.131
66197W        W38622  43.480   3.900  11.886
66198W        W38623   8.387  39.463   3.742
66199W        W38624  21.097  12.664  13.022
66200W        W38625  37.574  31.609   0.735
66201W        W38626  30.425  43.498   2.824
66202W        W38627  43.952  16.595  11.050
66203W        W38628  34.030   9.666   1.286
66204W        W38629  14.294  33.982  12.952
66205W        W38630   4.336   1.779   1.879
66206W        W38631  40.962  34.541  12.847
66207W        W38632  29.476  23.148   1.240
66208W        W38633  23.649  26.198   0.465
66209W        W38634   0.851  37.518  13.927
66210W        W38635  22.165  37.868  11.953
66211W        W38636   2.792   4.835  11.936
66212W        W38637  25.067  18.078  11.588
66213W        W38638  43.492  38.538  11.487
66214W        W38639  17.612   7.819  11.554
66215W        W38640  10.143  22.603   5.219
66216W        W38641  26.672  28.675   4.743
66217W        W38642  27.599  19.727  14.990
66218W        W38643  19.114  16.787   4.769
66219W        W38644  14.277   4.818  14.766
66220W        W38645  41.520  41.817   2.688
66221W        W38646  22.050  41.920   1.872
66222W        W38647  26.606  25.215  13.003
66223W        W38648  13.332  32.130  14.014
66224W        W38649  18.082  13.784  11.475
66225W        W38650  12.191  42.463   4.683
66226W        W38651  10.278  24.595  14.948
66227W        W38652  26.959   3.868  11.027
66228W        W38653  26.683  37.067   5.219
66229W        W38654  22.588  20.144   4.167
66230W        W38655   6.393   5.696  10.511
66231W        W38656  36.541  40.855   4.746
66232W        W38657  29.536   6.420   2.759
66233W        W38658  23.166  39.981   3.242
66234W        W38659  21.257  43.470  13.805
66235W        W38660  22.196  23.113   3.158
66236W        W38661   6.833  38.044  12.047
66237W        W38662  17.604  11.813   0.885
66238W        W38663  17.119  25.501  12.435
66239W        W38664  24.560  25.672   4.307
66240W        W38665  20.658  32.485  13.880
66241W        W38666   3.370  34.049   1.721
66242W        W38667  39.859  26.574   3.684
66243W        W38668  30.455  18.684  13.922
66244W        W38669   7.800   0.963   4.632
66245W        W38670   2.254  25.078   2.710
66246W        W38671   4.423   6.396  13.049
66247W        W38672   5.739  28.161   1.818
66248W        W38673  37.968   2.859   4.729
66249W        W38674  25.071  32.463  13.983
66250W        W38675  42.527  40.372   2.673
66251W        W38676  37.571  36.577   2.863
66252W        W38677  41.836  37.979  13.326
66253W        W38678  33.418  31.080  11.018
66254W        W38679  23.211  23.068  12.916
66255W        W38680   5.207  26.640   1.888
66256W        W38681  33.995  28.045  14.853
66257W        W38682  29.010  43.929   3.869
66258W        W38683  33.012   8.877   2.692
66259W        W38684  23.239  16.578  14.490
66260W        W38685   2.858  34.906  13.972
66261W        W38686   3.405  20.612   2.255
66262W        W38687  32.953  41.903  13.862
66263W        W38688  28.609  17.259  14.905
66264W        W38689  26.483  31.150  12.510
66265W        W38690  19.743  14.669  14.370
66266W        W38691  31.541  36.021   4.283
66267W        W38692  13.326  11.358  14.452
66268W        W38693  16.733  35.961   4.695
66269W        W38694  14.600  29.549   1.337
66270W        W38695  15.241  18.590   2.695
66271W        W38696  13.709   3.379  14.845
66272W        W38697  29.071  12.654   2.417
66273W        W38698  21.237   3.875   4.180
66274W        W38699   7.887  37.853  14.903
66275W        W38700  44.001  25.000   1.272
66276W        W38701  26.964   6.205   4.256
66277W        W38702   2.864  18.287  13.430
66278W        W38703  29.156  25.635   1.812
66279W        W38704  20.702  34.109   3.225
66280W        W38705  23.573  19.548   0.348
66281W        W38706  34.470   3.437   0.757
66282W        W38707  17.756   9.692  12.028
66283W        W38708  41.987   9.733  11.928
66284W        W38709  37.903  35.043  11.527
66285W        W38710  31.555  37.953   0.398
66286W        W38711  26.595  44.907  10.610
66287W        W38712  11.199  21.633  11.914
66288W        W38713   4.851   1.869   0.298
66289W        W38714  44.459  43.986  13.492
66290W        W38715   9.217   9.390  13.999
66291W        W38716  42.296   7.669  12.952
66292W        W38717  25.704   9.328   4.692
66293W        W38718   8.899   0.751   5.272
66294W        W38719  17.229   3.318  12.495
66295W        W38720  18.199  28.552  13.844
66296W        W38721  13.192   7.668  13.373
66297W        W38722  23.143  38.511   3.649
66298W        W38723   2.345  19.624  14.414
66299W        W38724  19.067  19.705   4.296
66300W        W38725  34.521   5.692  13.439
66301W        W38726  29.639  42.886  13.887
66302W        W38727  26.533  37.366  14.434
66303W        W38728  12.672  11.861   1.425
66304W        W38729  10.205  33.590  11.917
66305W        W38730  24.513  44.827   2.265
66306W        W38731  28.536  39.044   2.741
66307W        W38732  27.105  41.367   4.809
66308W        W38733   6.809  14.683  14.904
66309W        W38734   9.305  29.101   1.242
66310W        W38735  31.104  20.085   2.288
66311W        W38736  17.654  33.611  10.961
66312W        W38737  10.367  18.567  13.026
66313W        W38738   0.263   5.770  12.916
66314W        W38739  27.083  15.265  11.127
66315W        W38740  38.408  11.349   2.753
66316W        W38741  21.202  24.659  10.973
66317W        W38742   9.226   1.790  13.952
66318W        W38743  24.156  17.163  12.029
66319W        W38744  21.109  11.780   0.825
66320W        W38745  14.825   2.432   0.395
66321W        W38746  28.172  39.510   3.817
66322W        W38747  33.421   8.172   4.731
66323W        W38748  14.711  28.592   0.245
66324W        W38749  39.049  35.051   0.475
66325W        W38750  22.675  10.278   2.286
66326W        W38751  42.432   8.814  12.863
66327W        W38752  43.776  27.188  14.359
66328W        W38753  33.053  19.181   2.677
66329W        W38754  44.870  36.575   3.788
66330W        W38755  16.127   6.828  13.409
66331W        W38756  44.469  39.365   0.729
66332W        W38757   5.707   7.248  10.455
66333W        W38758  34.953  23.581   2.667
66334W        W38759  42.496  26.612   3.633
66335W        W38760  34.499  40.538  13.915
66336W        W38761  35.472  43.336  12.840
66337W        W38762   3.344  34.480   3.153
66338W        W38763  26.539  34.566   9.956
66339W        W38764  20.126  12.630   0.387
66340W        W38765  38.893   4.726  11.063
66341W        W38766  40.975   7.808   3.218
66342W        W38767  24.482  10.861  14.338
66343W        W38768  35.005  41.844  14.995
66344W        W38769   5.328  23.697   2.265
66345W        W38770   8.656  24.608   4.191
66346W        W38771  34.410  36.884   4.203
66347W        W38772  32.902   2.759  12.850
66348W        W38773  35.889  41.525  11.085
66349W        W38774  15.685   2.894   4.321
66350W        W38775  41.499  29.992  11.040
66351W        W38776  28.109  39.470   1.753
66352W        W38777  21.524  29.944   4.647
66353W        W38778   0.360  14.803  13.042
66354W        W38779   2.385  15.258   1.277
66355W        W38780  17.181  44.910  11.597
66356W        W38781   8.770  12.256  11.463
66357W        W38782  40.310  28.520   0.837
66358W        W38783  21.598  25.532  14.376
66359W        W38784  23.147  14.615   4.113
66360W        W38785  26.664  43.990   3.846
66361W        W38786  25.966  33.956  14.495
66362W        W38787  25.641  22.651   0.796
66363W        W38788  12.650  43.840   4.799
66364W        W38789  36.859  40.955  14.984
66365W        W38790  14.783  27.194  11.862
66366W        W38791   2.755  26.630   3.663
66367W        W38792   9.223  24.507   0.967
66368W        W38793  19.092  25.654   3.385
66369W        W38794  11.770  10.334  11.934
66370W        W38795   9.297   6.188  13.519
66371W        W38796  16.099  15.169  13.053
66372W        W38797  13.605  17.234  13.034
66373W        W38798  22.077   2.402  14.758
66374W        W38799  16.153  27.109   0.362
66375W        W38800  32.138  11.747   3.378
66376W        W38801   7.726  22.239   3.316
66377W        W38802  26.465  31.051   0.728
66378W        W38803   3.939  10.777  11.877
66379W        W38804  20.070   5.847  11.899
66380W        W38805  17.264  40.843   1.339
66381W        W38806   6.792   8.663   2.325
66382W        W38807   5.200  14.261  13.909
66383W        W38808  34.384  26.058  12.514
66384W        W38809  20.689  26.995  10.924
66385W        W38810  34.477  24.122  10.963
66386W        W38811  22.167  23.621   1.315
66387W        W38812  29.968   6.274  13.380
66388W        W38813  10.735  43.936   3.321
66389W        W38814  30.477   1.399   1.732
66390W        W38815  24.675  40.389   2.830
66391W        W38816   1.441   7.783   1.401
66392W        W38817  28.036   9.684  12.051
66393W        W38818   5.395   2.853  11.461
66394W        W38819  29.967  17.272   4.171
66395W        W38820  31.997  34.519   1.385
66396W        W38821  35.586  18.571  13.917
66397W        W38822  20.740  43.883   4.598
66398W        W38823  26.083   9.317  11.527
66399W        W38824  25.675  29.006   3.386
66400W        W38825   8.316  18.061  14.375
66401W        W38826   8.711  30.463   4.189
66402W        W38827  13.647  17.067  14.484
66403W        W38828  26.121  30.980   1.417
66404W        W38829   8.859   6.699  12.516
66405W        W38830  31.426  14.792  10.454
66406W        W38831   8.707   5.822  14.967
66407W        W38832  22.062  42.350   3.192
66408W        W38833   4.901  38.021  11.117
66409W        W38834   7.845  37.020   1.433
66410W        W38835  27.980  34.885  10.019
66411W        W38836  34.963  30.992  11.496
66412W        W38837  15.617  42.985  11.517
66413W        W38838  38.995  16.650  13.846
66414W        W38839  31.906   6.892   1.214
66415W        W38840   6.379  25.578  14.958
66416W        W38841  21.159  18.077  10.060
66417W        W38842  33.520  27.551   3.720
66418W        W38843   2.743  31.538   2.676
66419W        W38844   4.729  36.450   2.285
66420W        W38845  25.111  35.498  13.474
66421W        W38846  13.844  29.545   0.803
66422W        W38847   4.323  19.235  14.346
66423W        W38848  22.689  19.127  10.144
66424W        W38849   4.717  27.487   1.218
66425W        W38850  34.973   8.210   3.368
66426W        W38851  22.525  13.341  10.519
66427W        W38852  23.620   0.939  12.443
66428W        W38853   9.323  32.471   0.946
66429W        W38854  34.001   9.770   0.765
66430W        W38855  35.395   2.334  14.292
66431W        W38856   0.796  12.771   4.722
66432W        W38857  11.719  26.510  13.842
66433W        W38858  36.551  14.136   0.958
66434W        W38859  11.705  40.898   2.369
66435W        W38860   7.690  38.037  14.282
66436W        W38861  35.942  44.332  13.430
66437W        W38862  29.637  37.507   3.629
66438W        W38863   3.294  42.943   0.471
66439W        W38864  38.049  31.641   1.370
66440W        W38865  15.665  37.851  14.976
66441W        W38866  25.528   6.186  12.427
66442W        W38867  40.476  25.690   0.303
66443W        W38868  36.974  16.655  14.948
66444W        W38869  17.737   7.809  14.878
66445W        W38870   3.932  29.958  13.474
66446W        W38871  12.712  26.043  11.486
66447W        W38872  42.789  27.600   1.345
66448W        W38873  44.952  39.922   4.678
66449W        W38874  12.835  12.676   0.429
66450W        W38875  19.644  42.375  14.983
66451W        W38876  34.476  40.474  11.903
66452W        W38877  27.071  32.125  11.582
66453W        W38878  21.157  18.165  13.869
66454W        W38879  25.602  38.525  12.957
66455W        W38880   6.348  26.696  10.900
66456W        W38881  23.087  14.678   3.642
66457W        W38882  31.071  27.165  12.447
66458W        W38883  34.977   8.845  13.540
66459W        W38884   7.909  28.560   0.956
66460W        W38885  12.187  13.283   1.235
66461W        W38886  10.706  12.767   3.775
66462W        W38887  25.598  38.414   1.832
66463W        W38888   3.294  16.220   4.650
66464W        W38889  42.819  25.056  12.481
66465W        W38890  43.952  29.100  12.082
66466W        W38891  22.187   5.887   0.738
66467W        W38892  33.562  31.435  12.525
66468W        W38893   3.939  25.702  10.469
66469W        W38894  35.931  28.031  14.773
66470W        W38895  34.947  24.042   4.149
66471W        W38896  26.951   5.897   1.930
66472W        W38897  21.143  12.337  12.935
66473W        W38898  39.531  17.178   4.273
66474W        W38899  25.492  25.704   4.627
66475W        W38900  36.377  42.417  10.565
66476W        W38901   6.227  31.061  14.419
66477W        W38902  33.875   7.737   1.410
66478W        W38903  33.401  21.243   5.267
66479W        W38904  19.126   5.870  12.538
66480W        W38905  16.137  19.578  12.834
66481W        W38906  25.565   2.888  12.527
66482W        W38907  25.192  23.593  10.550
66483W        W38908  42.312  12.807  13.903
66484W        W38909   8.226  19.155   3.220
66485W        W38910   8.181  19.634   3.762
66486W        W38911  23.490  44.358   4.186
66487W        W38912  18.692   6.758  14.427
66488W        W38913  22.525  25.571   2.195
66489W        W38914  35.908  24.537  10.410
66490W        W38915   3.233  13.673  11.965
66491W        W38916  19.119  31.570   0.327
66492W        W38917  14.338  34.979   3.349
66493W        W38918   8.819  35.002   5.293
66494W        W38919  20.523  25.712  11.029
66495W        W38920  23.140  25.984  12.555
66496W        W38921   2.811   5.889   2.858
66497W        W38922  12.289  11.839  11.113
66498W        W38923  19.652  44.924  13.005
66499W        W38924  41.402  22.008   4.133
66500W        W38925   8.355   3.393  11.500
66501W        W38926  35.449  28.046  12.845
66502W        W38927  11.208  10.635  14.314
66503W        W38928  16.157  39.932   0.879
66504W        W38929  13.114  16.678  14.386
66505W        W38930  18.260  41.354   3.778
66506W        W38931  42.802  19.775   2.690
66507W        W38932  42.341  15.124  13.971
66508W        W38933  25.191  10.830   3.691
66509W        W38934  30.065  34.017   4.208
66510W        W38935  15.327  10.260  11.918
66511W        W38936  11.829   4.264   3.150
66512W        W38937  43.824   8.248  13.989
66513W        W38938   2.879  18.125   1.861
66514W        W38939  18.217  42.435   4.824
66515W        W38940  24.557  21.202   3.175
66516W        W38941  38.403  16.303   2.833
66517W        W38942  22.599  23.080  10.595
66518W        W38943  38.389  33.498  14.282
66519W        W38944  17.800  33.435  11.513
66520W        W38945   8.191   5.371  13.842
66521W        W38946  33.571   4.733   4.261
66522W        W38947  40.426  42.910   2.714
66523W        W38948   0.806  13.244   4.688
66524W        W38949  23.028  12.274  10.132
66525W        W38950  16.566  16.166  11.986
66526W        W38951  13.278  35.445   3.740
66527W        W38952  15.815  35.373   2.230
66528W        W38953  22.045  40.368  10.447
66529W        W38954  15.584  11.673   0.821
66530W        W38955  16.666  14.717   4.123
66531W        W38956   5.699  38.902  14.399
66532W        W38957   3.798  20.048   1.315
66533W        W38958  17.647  30.412   0.910
66534W        W38959  16.125  35.513  12.863
66535W        W38960  21.717  37.859   2.386
66536W        W38961  19.762   2.469  10.480
66537W        W38962  17.307  38.966  10.047
66538W        W38963  26.582   7.296  12.866
66539W        W38964  17.185  37.336  13.894
66540W        W38965  41.910  30.629   0.281
66541W        W38966  40.385  19.717  10.500
66542W        W38967  44.319   0.941   3.674
66543W        W38968   8.897  20.650  10.125
66544W        W38969  37.514  29.063   1.450
66545W        W38970  16.191  21.680  12.835
66546W        W38971  25.034  25.127  14.768
66547W        W38972  22.685  36.452  14.275
66548W        W38973  19.281  26.601  14.954
66549W        W38974  20.055  39.927   2.761
66550W        W38975   1.308  19.684   3.770
66551W        W38976  26.645  41.904   0.929
66552W        W38977  38.328  36.575   4.820
66553W        W38978  20.542  39.475  13.400
66554W        W38979  43.302  17.305   1.791
66555W        W38980   6.691  16.264   0.310
66556W        W38981   8.381   7.302   4.258
66557W        W38982  32.126  41.496  13.461
66558W        W38983  10.677  15.757  12.917
66559W        W38984  27.963  16.792  12.070
66560W        W38985   8.354  19.775   1.293
66561W        W38986  42.496  42.866   2.332
66562W        W38987   4.876  28.568   3.739
66563W        W38988  17.697  13.213   0.392
66564W        W38989   2.442   5.845   2.771
66565W        W38990  44.919  40.453  13.856
66566W        W38991  14.620   6.776  10.573
66567W        W38992  32.554  36.507  10.962
66568W        W38993  39.987  22.130  14.984
66569W        W38994  10.702  13.301  12.964
66570W        W38995  39.405  14.116  13.054
66571W        W38996  27.144  44.904   1.870
66572W        W38997  22.574  25.591   3.158
66573W        W38998  14.621  35.905   0.778
66574W        W38999   6.833  29.596   3.779
66575W        W39000  10.222  33.500   0.414
66576W        W39001  25.071   7.851   4.655
66577W        W39002  23.586  20.171   2.803
66578W        W39003  26.572  22.034   4.202
66579W        W39004  40.037  19.102  10.996
66580W        W39005  42.437  13.702  10.508
66581W        W39006   0.360  25.548   1.322
66582W        W39007   4.221  35.018   3.303
66583W        W39008  29.568  35.443   3.839
66584W        W39009  10.687  23.095  14.299
66585W        W39010  18.760  13.305   4.710
66586W        W39011  41.338  20.536  12.559
66587W        W39012  15.281  19.091  11.392
66588W        W39013  31.498  21.201  12.434
66589W        W39014  44.436  10.845  11.064
66590W        W39015  38.368   0.468   1.792
66591W        W39016  16.751  12.245   2.237
66592W        W39017   4.299  19.599   4.244
66593W        W39018  31.026  36.493   0.901
66594W        W39019  20.632  44.958  11.014
66595W        W39020   7.732   7.383   9.669
66596W        W39021  35.972  28.650  13.353
66597W        W39022   8.804   6.694   2.705
66598W        W39023   4.810  27.477   4.155
66599W        W39024  40.359  38.506  14.898
66600W        W39025   9.393   8.166  12.372
66601W        W39026  14.132   0.849   2.718
66602W        W39027  36.468  20.759  14.005
66603W        W39028  29.506   3.338  13.880
66604W        W39029   9.691  44.926  11.991
66605W        W39030  27.185  22.700   1.419
66606W        W39031  28.091  28.530   4.310
66607W        W39032  13.161  31.558  12.394
66608W        W39033  21.061  11.802   5.310
66609W        W39034   0.361  10.164  14.829
66610W        W39035  41.346   6.361   2.715
66611W        W39036  19.040  21.704   0.829
66612W        W39037  26.121  34.604  10.434
66613W        W39038  27.029  35.885  13.055
66614W        W39039  17.220  18.608   4.326
66615W        W39040  12.733  18.636  10.980
66616W        W39041  14.670  32.585  11.995
66617W        W39042  25.183  20.599   1.913
66618W        W39043  29.119  31.449   0.815
66619W        W39044  40.814  38.036  13.014
66620W        W39045   0.931  38.891  12.986
66621W        W39046   7.724  33.579  12.571
66622W        W39047  37.928  43.352   1.830
66623W        W39048  20.094  29.489   4.738
66624W        W39049   9.229  37.866   4.205
66625W        W39050   4.256  21.165   4.167
66626W        W39051  29.996  25.021  11.585
66627W        W39052   8.165   9.873  11.572
66628W        W39053  33.974  16.092  13.472
66629W        W39054   6.393  36.913  14.279
66630W        W39055  35.103  24.613  11.396
66631W        W39056  15.768   1.378   4.293
66632W        W39057  12.712  39.051   4.815
66633W        W39058  35.463  32.625  12.497
66634W        W39059   1.398  37.563   2.315
66635W        W39060   6.744  13.719   2.364
66636W        W39061  33.458  34.113   3.376
66637W        W39062  37.519   8.173   0.454
66638W        W39063  29.963  44.903   4.269
66639W        W39064  17.255  23.179   0.461
66640W        W39065   0.326  23.084  11.077
66641W        W39066  42.383  31.502   2.739
66642W        W39067  22.559  17.759   2.893
66643W        W39068  28.613   7.355  12.393
66644W        W39069  17.196   3.442   1.885
66645W        W39070  37.052  11.337   4.747
66646W        W39071  30.424  18.624   5.608
66647W        W39072  21.224  39.478  14.394
66648W        W39073  26.008  36.573   3.292
66649W        W39074  27.564  42.017  11.965
66650W        W39075  24.682  28.123  14.425
66651W        W39076  35.374  11.353  14.293
66652W        W39077   0.387  16.116  11.885
66653W        W39078   1.903  18.757   3.632
66654W        W39079  27.455  28.529   0.461
66655W        W39080  29.973  38.570   3.196
66656W        W39081   4.307  11.154  14.463
66657W        W39082   2.922  33.875  14.364
66658W        W39083   3.409  39.948   3.855
66659W        W39084   7.374  39.950  11.536
66660W        W39085  17.147  15.809   3.170
66661W        W39086  23.686   1.892   4.686
66662W        W39087  30.543   3.215   3.664
66663W        W39088  28.680  12.232  14.507
66664W        W39089  44.436  10.333  10.505
66665W        W39090  44.490  32.407   1.789
66666W        W39091  10.265  18.184   1.233
66667W        W39092  14.113  18.152  13.906
66668W        W39093  39.467  22.054  13.967
66669W        W39094  11.173  30.005   2.704
66670W        W39095  21.679  37.521  12.053
66671W        W39096  27.093  28.501  12.993
66672W        W39097   8.702  35.093  12.378
66673W        W39098  25.043  34.586   3.738
66674W        W39099  19.229  41.911  12.876
66675W        W39100  21.182  42.477   1.739
66676W        W39101  30.910  13.745   2.894
66677W        W39102  30.421  27.047   0.787
66678W        W39103  40.547  20.768  13.448
66679W        W39104  39.379  25.677   4.727
66680W        W39105  14.308  17.563   2.781
66681W        W39106  28.609  12.744   3.859
66682W        W39107  25.484  25.199   3.195
66683W        W39108   8.845  13.151   3.672
66684W        W39109  43.841  40.322   1.720
66685W        W39110  35.913  40.966   4.273
66686W        W39111   0.316  42.841   3.375
66687W        W39112  15.161   6.686  12.345
66688W        W39113  32.436  35.865  11.972
66689W        W39114  25.532  41.467  11.384
66690W        W39115  18.260   4.912  13.888
66691W        W39116  15.117  38.990  13.362
66692W        W39117  14.772   8.691   4.328
66693W        W39118  34.112  37.087  10.584
66694W        W39119   8.822   9.384   9.964
66695W        W39120   6.400   4.854  14.448
66696W        W39121  41.829  43.378   5.715
66697W        W39122   1.338  14.111  14.902
66698W        W39123  14.635  22.008   4.273
66699W        W39124   4.425  12.128   2.730
66700W        W39125   2.353  35.986   5.277
66701W        W39126   3.381   2.347   4.218
66702W        W39127   4.402  34.044  11.096
66703W        W39128   3.751   4.266   0.803
66704W        W39129  12.723   5.282   0.282
66705W        W39130  28.934  42.898   3.747
66706W        W39131  22.548  20.100  12.356
66707W        W39132   9.644  37.456   2.807
66708W        W39133   8.816  16.581  13.814
66709W        W39134  14.618   1.320   0.436
66710W        W39135   5.782  38.330   1.747
66711W        W39136  19.068   0.851   0.887
66712W        W39137  18.176   4.435   3.359
66713W        W39138  32.632   3.342  11.527
66714W        W39139  34.105  37.455   3.286
66715W        W39140   2.841   3.819  12.911
66716W        W39141  12.290   5.694  14.432
66717W        W39142  38.936  37.995   3.643
66718W        W39143  19.759   1.403  14.296
66719W        W39144  28.630  38.922   0.375
66720W        W39145  42.953  42.380  12.942
66721W        W39146  38.927  22.050   9.944
66722W        W39147  23.155  17.762   4.130
66723W        W39148  26.654  32.129  11.521
66724W        W39149  12.741   7.269   2.359
66725W        W39150   9.322  26.201  12.075
66726W        W39151  18.682  20.691  14.975
66727W        W39152  40.851  27.464   4.221
66728W        W39153   2.768  20.612  14.395
66729W        W39154  42.866  40.333   5.162
66730W        W39155  12.342  36.536   1.250
66731W        W39156  40.020  40.861   0.410
66732W        W39157  35.542  15.127   2.856
66733W        W39158  26.172  41.423   4.618
66734W        W39159  22.606  44.398   1.834
66735W        W39160  17.771  10.830   4.288
66736W        W39161   6.701  31.078  14.966
66737W        W39162  26.161  22.070   2.199
66738W        W39163  25.590   0.492   4.785
66739W        W39164  28.117   0.267   0.459
66740W        W39165  26.667  44.452   0.810
66741W        W39166  21.700  43.882  14.883
66742W        W39167  25.502  26.035  11.431
66743W        W39168   7.334   2.765   1.699
66744W        W39169   9.783  14.720   1.449
66745W        W39170  24.070  18.785  14.478
66746W        W39171  14.754  30.099  10.570
66747W        W39172   5.825  33.007  14.872
66748W        W39173  14.791  32.581   3.778
66749W        W39174  31.947  22.668   4.703
66750W        W39175   9.301  18.284  10.494
66751W        W39176  17.649  27.965  13.489
66752W        W39177   8.256  14.600   0.887
66753W        W39178   8.861  18.064  14.793
66754W        W39179  39.923  22.098   3.651
66755W        W39180   6.291  24.136  13.062
66756W        W39181  20.151  14.114   5.149
66757W        W39182  26.638  10.216  14.324
66758W        W39183  28.533  42.836   5.083
66759W        W39184  42.373  10.683  13.488
66760W        W39185  27.647  32.007   4.646
66761W        W39186  33.611  26.673   3.632
66762W        W39187   8.722  41.349  13.854
66763W        W39188  18.734  44.422   1.724
66764W        W39189  23.992  15.713   0.816
66765W        W39190  27.094  26.683   0.848
66766W        W39191   9.779  29.450   2.351
66767W        W39192  17.767  37.346  14.910
66768W        W39193  12.674  34.883  14.870
66769W        W39194  26.150   9.773   2.401
66770W        W39195   8.893  13.218   4.812
66771W        W39196  42.309  28.646   1.251
66772W        W39197   1.448  19.614  13.002
66773W        W39198   9.156   5.865   4.224
66774W        W39199  17.709  40.853  13.492
66775W        W39200   1.891   8.793  14.957
66776W        W39201  37.413  13.348   2.349
66777W        W39202  31.007  15.774  11.115
66778W        W39203  38.959  28.579   2.872
66779W        W39204  18.262   6.257   3.791
66780W        W39205  16.727   7.360  12.349
66781W        W39206  28.088  27.518   3.200
66782W        W39207  14.245  25.066   2.260
66783W        W39208   1.962  26.615   2.816
66784W        W39209  31.613  33.906  11.902
66785W        W39210  11.845  18.683   2.331
66786W        W39211  44.773  32.496   2.699
66787W        W39212  32.024  24.100   2.210
66788W        W39213   2.948  39.361   1.295
66789W        W39214  14.321  35.361   4.293
66790W        W39215  19.736  14.589   1.794
66791W        W39216  31.595  11.703  14.509
66792W        W39217  21.627  42.813   2.289
66793W        W39218  29.149  19.754   2.753
66794W        W39219  39.407  28.528  12.868
66795W        W39220  11.834   2.879  12.086
66796W        W39221   6.239   7.823   1.239
66797W        W39222  40.523  23.593  13.480
66798W        W39223  27.631  41.421   4.219
66799W        W39224  25.002  37.501  11.861
66800W        W39225  20.602  40.833  12.852
66801W        W39226  34.990  29.089  13.511
66802W        W39227  25.007  42.966   5.173
66803W        W39228  10.315  30.961   2.722
66804W        W39229   1.739  14.597  14.942
66805W        W39230  20.538  24.148  11.025
66806W        W39231  19.611  19.241  11.440
66807W        W39232  34.549  41.312   1.748
66808W        W39233   1.750  11.699  14.353
66809W        W39234  24.561   3.281  14.875
66810W        W39235  14.235   2.412  13.535
66811W        W39236  10.749  27.950  14.013
66812W        W39237  13.656  13.745   4.731
66813W        W39238   6.332   0.268   4.605
66814W        W39239  37.970  43.462  14.873
66815W        W39240  31.523  11.136  13.799
66816W        W39241  24.059  34.470  12.401
66817W        W39242   7.214  33.510  11.011
66818W        W39243  30.461  33.036   3.206
66819W        W39244   0.800  13.291   0.966
66820W        W39245  44.949   5.902   4.300
66821W        W39246  25.038  14.775  12.918
66822W        W39247  40.459  20.086  14.507
66823W        W39248   7.336   7.297  12.008
66824W        W39249  43.998   8.694  12.875
66825W        W39250   7.907  35.492   0.950
66826W        W39251  33.053  35.548  13.059
66827W        W39252  34.873  25.514  13.042
66828W        W39253   7.892  19.276   3.229
66829W        W39254  33.028  17.282   0.763
66830W        W39255  29.145  31.533   5.273
66831W        W39256  16.169  12.132  13.315
66832W        W39257  10.196   8.386   1.375
66833W        W39258   3.229  32.437  13.005
66834W        W39259  43.384   0.448   0.290
66835W        W39260  35.469  24.213   2.694
66836W        W39261  36.917  13.645  13.985
66837W        W39262  23.697  16.605  10.460
66838W        W39263   2.798  14.322  12.418
66839W        W39264  40.335  44.269   4.768
66840W        W39265  42.975   5.776   1.898
66841W        W39266  29.084  38.410   3.157
66842W        W39267  11.182   4.399  14.926
66843W        W39268   8.222  42.439   0.401
66844W        W39269  32.023  40.036   9.954
66845W        W39270  18.160  23.539   1.779
66846W        W39271  30.055   5.405   0.461
66847W        W39272  37.029   3.712   3.718
66848W        W39273  24.711  33.470   2.879
66849W        W39274   0.911  21.042  11.933
66850W        W39275   4.933  15.587   0.782
66851W        W39276  14.742   4.329   2.219
66852W        W39277  34.947  19.072   3.217
66853W        W39278  42.445  22.660   2.356
66854W        W39279   3.719   0.838  13.347
66855W        W39280  21.172  43.479   1.698
66856W        W39281  27.493  33.417  10.980
66857W        W39282   5.307  14.230   4.643
66858W        W39283  17.150  16.602   2.828
66859W        W39284  27.053  26.503   2.690
66860W        W39285  10.374  20.652   4.289
66861W        W39286  14.659  34.891   3.641
66862W        W39287  13.686  43.495  14.387
66863W        W39288  34.034  18.607  11.936
66864W        W39289  37.010  30.936  10.904
66865W        W39290  44.953  35.978  11.065
66866W        W39291  30.129  13.694   0.735
66867W        W39292  44.290   7.341  14.424
66868W        W39293   9.664  15.645   1.759
66869W        W39294  11.194   8.837   1.253
66870W        W39295   1.749  24.108   1.248
66871W        W39296  11.152  28.101   1.889
66872W        W39297  11.239  33.393  10.459
66873W        W39298  42.510   1.911   4.165
66874W        W39299  15.213  40.528   2.382
66875W        W39300  23.059  44.461  14.979
66876W        W39301  29.942  10.765   4.800
66877W        W39302   5.209  36.855   4.792
66878W        W39303  11.856  15.695   1.759
66879W        W39304  11.674   2.804   2.764
66880W        W39305  40.910  40.866   3.643
66881W        W39306   0.420   5.698   4.131
66882W        W39307  26.989   3.873  12.022
66883W        W39308  17.646  41.494   4.179
66884W        W39309  40.025  10.171  13.009
66885W        W39310  38.000  36.016  11.489
66886W        W39311  39.467  16.231   2.262
66887W        W39312  26.009   3.460   2.215
66888W        W39313  11.319  12.269  10.552
66889W        W39314  33.913  28.634  11.384
66890W        W39315  43.889  44.483   3.250
66891W        W39316  36.372   8.377   0.442
66892W        W39317  21.152  40.914  12.491
66893W        W39318   2.460  12.702   1.235
66894W        W39319  40.528  11.866   4.776
66895W        W39320  19.754  39.442  10.566
66896W        W39321  19.567  27.134   1.343
66897W        W39322  20.523   9.697   0.295
66898W        W39323  36.477  19.766   1.421
66899W        W39324  22.556   3.446   0.336
66900W        W39325  40.432  21.663   1.327
66901W        W39326   5.818  34.960  10.996
66902W        W39327   0.435  43.299   0.358
66903W        W39328  28.108  34.053   3.832
66904W        W39329  20.105  22.574   5.256
66905W        W39330  29.076  27.598   0.412
66906W        W39331   9.166  26.462   0.475
66907W        W39332  17.114  33.947   1.894
66908W        W39333  11.671   3.441  11.457
66909W        W39334  25.073  42.426  10.921
66910W        W39335  22.725  32.089  14.483
66911W        W39336  16.167  10.682   1.327
66912W        W39337  28.171  21.026   5.135
66913W        W39338  28.600  22.521   2.226
66914W        W39339  15.809  33.997   4.132
66915W        W39340  34.026  24.227  12.906
66916W        W39341  37.078  34.441   1.737
66917W        W39342   6.386  25.992  13.904
66918W        W39343  13.220  12.804   3.273
66919W        W39344  27.490  29.074  11.425
66920W        W39345  23.137  40.415  14.999
66921W        W39346  38.475   8.873   4.792
66922W        W39347  38.820  26.511  11.894
66923W        W39348  13.718  25.002   0.372
66924W        W39349  35.960  20.679  13.917
66925W        W39350  14.203  12.336   3.355
66926W        W39351  34.937  39.542   0.904
66927W        W39352  18.607  10.798   1.721
66928W        W39353  11.854  25.035  12.551
66929W        W39354  44.828  30.139   0.361
66930W        W39355  20.731   4.311   0.766
66931W        W39356  43.850  11.360   3.266
66932W        W39357  28.679   1.396  10.507
66933W        W39358  30.939   5.840   3.378
66934W        W39359  17.781  20.688  14.869
66935W        W39360  32.532  31.537  14.333
66936W        W39361   0.809  28.627   2.360
66937W        W39362  20.666  33.080   2.393
66938W        W39363   2.328  38.372  11.564
66939W        W39364  33.541  13.611  13.522
66940W        W39365  12.340  23.565   3.190
66941W        W39366   6.709  33.550   0.879
66942W        W39367  17.212  27.491  11.868
66943W        W39368  23.024  21.571  11.514
66944W        W39369  29.136  36.998  11.950
66945W        W39370  30.041  21.597  13.437
66946W        W39371   5.247   4.894   2.241
66947W        W39372  37.016  11.820  11.860
66948W        W39373  16.642  40.952  13.908
66949W        W39374  29.158  38.526   2.708
66950W        W39375   4.412  40.459  14.458
66951W        W39376  34.494  14.826  13.348
66952W        W39377   7.865  12.203   4.776
66953W        W39378  29.049  17.692   4.747
66954W        W39379  43.827   1.383   4.699
66955W        W39380  33.022  14.671  10.563
66956W        W39381   1.840  10.815  12.022
66957W        W39382  21.149  44.893  12.448
66958W        W39383  21.078  29.087  12.477
66959W        W39384   6.920   5.261   4.199
66960W        W39385  41.430  37.496  13.528
66961W        W39386  16.696  34.955   1.244
66962W        W39387   1.291  24.179   1.829
66963W        W39388  19.671  31.637  14.390
66964W        W39389  14.702   4.885   2.312
66965W        W39390  37.998  44.794  14.797
66966W        W39391  17.292  27.568   2.902
66967W        W39392  44.784  11.681  14.829
66968W        W39393  26.116   1.467  14.376
66969W        W39394  34.952  31.088   2.876
66970W        W39395  13.225  22.235  13.404
66971W        W39396   5.381  10.861  13.516
66972W        W39397  33.959  37.380   0.873
66973W        W39398   8.682  25.626   0.827
66974W        W39399  15.730   3.251  14.901
66975W        W39400  14.798  35.099  14.764
66976W        W39401  39.489  37.949   0.293
66977W        W39402  12.687  42.514  10.957
66978W        W39403  17.114  31.474  14.856
66979W        W39404  25.985   7.392  12.054
66980W        W39405  42.290  19.067  12.358
66981W        W39406  39.461  16.218   3.809
66982W        W39407  10.305  14.750   2.328
66983W        W39408   8.224   6.242  12.062
66984W        W39409  38.821  42.474   5.786
66985W        W39410  23.527  39.512   1.806
66986W        W39411   9.199  18.288  13.346
66987W        W39412  21.114  34.990   0.307
66988W        W39413  33.928  15.665   3.848
66989W        W39414  41.503  14.785  13.506
66990W        W39415   3.390  24.092   4.687
66991W        W39416  12.180   6.805  14.320
66992W        W39417  21.703  42.905  13.505
66993W        W39418  38.063  14.291  11.924
66994W        W39419  28.176  38.036   2.895
66995W        W39420  16.583  19.597  10.919
66996W        W39421   5.267  22.681  12.407
66997W        W39422  14.683  41.364  14.818
66998W        W39423   4.723  13.316  10.420
66999W        W39424  31.910  28.132  14.468
67000W        W39425  40.441  19.039   2.855
67001W        W39426  23.641  22.742   2.272
67002W        W39427   7.401  16.682  12.458
67003W        W39428   9.736  12.762  11.061
67004W        W39429  41.408  36.982  12.076
67005W        W39430  18.697   4.405  13.534
67006W        W39431  31.475  16.095  11.517
67007W        W39432  21.717  14.622   4.782
67008W        W39433   7.821  12.798   2.883
67009W        W39434   4.843  31.944   3.190
67010W        W39435   8.392  43.384   1.274
67011W        W39436  19.594   5.325  13.978
67012W        W39437  14.657  15.306   4.278
67013W        W39438  44.363   7.340   2.670
67014W        W39439  21.625  38.852   3.818
67015W        W39440  39.398  23.237   1.277
67016W        W39441  16.691   7.904   2.288
67017W        W39442  13.336  33.990   4.691
67018W        W39443  44.293  28.465  11.950
67019W        W39444  15.713  25.477   0.419
67020W        W39445   9.333  34.375  13.439
67021W        W39446  22.716  43.861   2.359
67022W        W39447  25.002  39.856  11.990
67023W        W39448  34.534  44.916  13.479
67024W        W39449  40.349   9.806  14.836
67025W        W39450   1.776  37.890   4.144
67026W        W39451  42.451  31.505   3.264
67027W        W39452  19.267  33.074  14.341
67028W        W39453  44.347  41.499   3.279
67029W        W39454  24.134  22.996   1.403
67030W        W39455   2.844   0.837  13.418
67031W        W39456   9.388   3.227  14.956
67032W        W39457  25.497  19.565  14.846
67033W        W39458  31.509  44.440  11.090
67034W        W39459   9.184   6.795  10.105
67035W        W39460  25.214   3.895   0.915
67036W        W39461   9.647  15.271   0.861
67037W        W39462  25.679  11.668  12.547
67038W        W39463  35.448   8.341  13.517
67039W        W39464  24.088  44.894  11.915
67040W        W39465   0.264  21.701   3.826
67041W        W39466   6.272  32.409  10.016
67042W        W39467  43.783  42.484   2.748
67043W        W39468  10.373  18.221  14.322
67044W        W39469  15.274  18.097  10.641
67045W        W39470  31.089  18.689   0.281
67046W        W39471  25.199  19.601   1.292
67047W        W39472   2.924  33.132  13.880
67048W        W39473  29.162  39.875  13.810
67049W        W39474  34.982  29.930  11.610
67050W        W39475  26.609  13.165  14.829
67051W        W39476   6.298   0.984   2.735
67052W        W39477  40.354   1.269   2.823
67053W        W39478  35.042   8.816  13.898
67054W        W39479  43.016  44.965  12.511
67055W        W39480   2.787  29.040  11.464
67056W        W39481  33.571  25.634  14.326
67057W        W39482  11.140  10.219  10.513
67058W        W39483   8.289  13.728  11.983
67059W        W39484   1.252   6.704  10.408
67060W        W39485  20.672  37.028   3.870
67061W        W39486   1.946  19.744   3.734
67062W        W39487  29.616   5.729  14.291
67063W        W39488  35.009  27.666  10.919
67064W        W39489  36.365  44.814  14.002
67065W        W39490  15.092  12.295  14.279
67066W        W39491  21.723  33.540   3.297
67067W        W39492   8.302  30.978   4.816
67068W        W39493  44.376   1.959   2.374
67069W        W39494   9.709  23.105   2.227
67070W        W39495   0.356  40.910   1.906
67071W        W39496   5.817   6.240   4.634
67072W        W39497  14.821   6.681   0.307
67073W        W39498  40.851  24.112   1.925
67074W        W39499  19.609  23.692   2.227
67075W        W39500  31.020  15.120   2.249
67076W        W39501  25.700  37.500   1.233
67077W        W39502  36.085  19.257   1.758
67078W        W39503  28.938  21.158   2.689
67079W        W39504  16.240  32.632   1.232
67080W        W39505   4.943   9.195   1.445
67081W        W39506  19.645   8.350   2.204
67082W        W39507  21.700   8.338  11.510
67083W        W39508  15.660  12.641  13.524
67084W        W39509   9.162  15.744  11.466
67085W        W39510  28.060  33.507   3.844
67086W        W39511  23.018  17.649  12.914
67087W        W39512   4.243  38.922   3.657
67088W        W39513  22.680  34.557   4.682
67089W        W39514  23.095  10.859   1.401
67090W        W39515  15.746  31.925  12.395
67091W        W39516  33.995  37.407  13.901
67092W        W39517   6.699   6.778   0.760
67093W        W39518  44.853  33.563  13.996
67094W        W39519  40.019   7.738   4.675
67095W        W39520  35.516   7.691   1.802
67096W        W39521   0.754   1.844   1.325
67097W        W39522  16.184  22.087   0.372
67098W        W39523  35.886  27.033   5.267
67099W        W39524   9.333  20.627   1.351
67100W        W39525   0.396  36.957   3.871
67101W        W39526   8.220  25.191   1.805
67102W        W39527   9.163  28.630  11.925
67103W        W39528  14.785  44.865   3.276
67104W        W39529   2.738   7.222   1.925
67105W        W39530  15.772  13.728   1.830
67106W        W39531   8.258  10.361  13.821
67107W        W39532  12.165  25.094  11.883
67108W        W39533  37.050   5.228   3.148
67109W        W39534  22.201   3.387   0.339
67110W        W39535  15.224   2.373   1.437
67111W        W39536   1.746   1.815   2.776
67112W        W39537  28.492  19.721  13.346
67113W        W39538  11.635   8.199   0.908
67114W        W39539  44.835  13.229  14.020
67115W        W39540   3.811  10.361  11.513
67116W        W39541  20.053  24.181  11.089
67117W        W39542  20.726  22.588  13.493
67118W        W39543   8.222   6.850  12.062
67119W        W39544  24.046  20.711   0.880
67120W        W39545  21.574   2.899   1.863
67121W        W39546   0.818  16.159   3.150
67122W        W39547  24.116   0.879  10.511
67123W        W39548  13.840  13.739   2.796
67124W        W39549  22.231  27.961  13.985
67125W        W39550  26.659   2.725  11.999
67126W        W39551   7.335  21.023  13.472
67127W        W39552   2.262   5.917  14.935
67128W        W39553   1.373  23.574  10.912
67129W        W39554   6.250  35.491   3.246
67130W        W39555  41.998  36.037  11.531
67131W        W39556  41.863  41.463  11.919
67132W        W39557  36.509  22.727   3.336
67133W        W39558   5.789  19.280   2.731
67134W        W39559   2.438  36.005  13.865
67135W        W39560   1.965  20.618   0.787
67136W        W39561  43.804  36.373   2.203
67137W        W39562  41.466  39.333  12.403
67138W        W39563  19.160   7.328   0.340
67139W        W39564  43.434  40.525  10.900
67140W        W39565  36.534  14.606  11.409
67141W        W39566  29.032  44.451   0.734
67142W        W39567  30.977  13.781   3.814
67143W        W39568  33.519   7.720  14.771
67144W        W39569  17.585   1.247  11.604
67145W        W39570   3.315  42.976  14.402
67146W        W39571  43.847  39.816  12.004
67147W        W39572   0.454  36.063  12.493
67148W        W39573  12.844  35.986  14.989
67149W        W39574  38.034   0.337   1.752
67150W        W39575  15.296  14.641  13.911
67151W        W39576  44.968  23.236   3.287
67152W        W39577  22.116  26.671  13.420
67153W        W39578  44.355   6.829   0.393
67154W        W39579  20.691   5.392   3.711
67155W        W39580  28.018  32.400   4.742
67156W        W39581  37.479  38.384   4.694
67157W        W39582  28.534  17.082   3.149
67158W        W39583  42.871  38.993  10.561
67159W        W39584  24.181  21.199   0.333
67160W        W39585  25.691  23.557  14.853
67161W        W39586  39.012   1.880   4.611
67162W        W39587  20.139  29.627   2.400
67163W        W39588  44.402  14.663  13.004
67164W        W39589  28.451   1.378  11.030
67165W        W39590  10.235  21.021   4.604
67166W        W39591  12.776  42.318   1.330
67167W        W39592  33.625   6.705   3.386
67168W        W39593  25.094  35.041   4.307
67169W        W39594   6.895  31.937   4.604
67170W        W39595  38.926   2.453   4.745
67171W        W39596  16.786  43.374   1.859
67172W        W39597  14.756   1.741   3.681
67173W        W39598   9.284   7.900  11.930
67174W        W39599  15.287  43.782  12.930
67175W        W39600   7.821  40.414   9.968
67176W        W39601   1.875  41.026   2.828
67177W        W39602   8.308  43.483   1.887
67178W        W39603   8.324  31.032   1.771
67179W        W39604   4.428  37.017   1.783
67180W        W39605  27.633  25.150   0.480
67181W        W39606  11.220  18.235   2.248
67182W        W39607  18.581  38.889  13.014
67183W        W39608  34.069   5.692   3.258
67184W        W39609   6.696   4.898  13.486
67185W        W39610  39.519  24.984  12.470
67186W        W39611  38.467  19.613  13.015
67187W        W39612  27.188  14.646   3.359
67188W        W39613   1.266  22.210   0.252
67189W        W39614  41.322  40.376  13.886
67190W        W39615  38.879  10.673   0.963
67191W        W39616  32.514  28.494  13.845
67192W        W39617   3.401  13.750   3.845
67193W        W39618  29.520  37.981   3.844
67194W        W39619  38.820  39.417  11.430
67195W        W39620  41.991  38.999   3.803
67196W        W39621  19.216  13.599  12.446
67197W        W39622   7.862  37.850   9.659
67198W        W39623   9.662  10.228   2.403
67199W        W39624   2.818  44.453   3.815
67200W        W39625  38.361  32.520   1.756
67201W        W39626   5.295  44.501  13.401
67202W        W39627  16.224  16.080  11.469
67203W        W39628  35.853  22.614   1.372
67204W        W39629  19.714  37.952  12.059
67205W        W39630  39.876   7.198  13.321
67206W        W39631   0.374  13.113   1.862
67207W        W39632  37.564  15.138  11.984
67208W        W39633  26.574  24.692   4.602
67209W        W39634  31.616  16.643  13.394
67210W        W39635   7.342  37.464  14.813
67211W        W39636   7.388   8.301   1.794
67212W        W39637  11.677  20.649   2.871
67213W        W39638  14.740  37.938  11.931
67214W        W39639  18.558  43.489  10.469
67215W        W39640  17.770  35.023   3.331
67216W        W39641   1.463  38.387   0.823
67217W        W39642  30.629   3.398   2.264
67218W        W39643  31.069   0.761  14.835
67219W        W39644  23.620  29.122  10.574
67220W        W39645   2.786  18.099   2.298
67221W        W39646  25.043   6.187  11.025
67222W        W39647  24.991   2.912  13.397
67223W        W39648  13.846  27.457   0.815
67224W        W39649   5.790   0.828   0.845
67225W        W39650   9.300  40.422  10.501
67226W        W39651  38.048  17.627   3.232
67227W        W39652   2.784   1.414   0.430
67228W        W39653  32.392  37.581   1.749
67229W        W39654  33.462  18.776   0.815
67230W        W39655  29.131  44.973  10.989
67231W        W39656  36.568   7.257   0.357
67232W        W39657  39.847   5.410   1.299
67233W        W39658  41.865  42.960   2.769
67234W        W39659  22.546  20.698  12.440
67235W        W39660  23.189  24.121  11.484
67236W        W39661  10.839   6.867   2.691
67237W        W39662  22.684  14.605   0.266
67238W        W39663   3.910   0.828  14.878
67239W        W39664  39.852  38.839   3.304
67240W        W39665  28.007  27.947  10.909
67241W        W39666  40.010  17.603  12.979
67242W        W39667  22.041  36.366  10.536
67243W        W39668  17.067  22.703   2.283
67244W        W39669  24.712  18.229  13.001
67245W        W39670  29.994  33.966   1.852
67246W        W39671  34.471  20.631  12.388
67247W        W39672  19.649  19.589  12.827
67248W        W39673  20.712   0.377  13.342
67249W        W39674   9.207  21.257  13.906
67250W        W39675   4.903  36.525   1.822
67251W        W39676   1.396  19.193   2.689
67252W        W39677  35.970   7.293  10.407
67253W        W39678  35.097   4.810  11.543
67254W        W39679   8.346   6.224  13.315
67255W        W39680  29.041  31.153   5.153
67256W        W39681  33.608   1.309  12.404
67257W        W39682  29.594  23.000   2.878
67258W        W39683  33.990  10.713  12.067
67259W        W39684  28.034   0.807   4.298
67260W        W39685  28.451  31.414   1.212
67261W        W39686  41.924   0.968   5.288
67262W        W39687  40.546  33.063  13.382
67263W        W39688  38.072   6.767   3.816
67264W        W39689   7.294   9.777  10.456
67265W        W39690   5.837   3.940  13.403
67266W        W39691   0.310  44.356   2.866
67267W        W39692  40.464  37.891   3.257
67268W        W39693  12.318  27.130  13.053
67269W        W39694  11.850   9.669  10.939
67270W        W39695  28.172  23.012   2.179
67271W        W39696  38.011  12.291  14.334
67272W        W39697  27.019   7.212   4.606
67273W        W39698  10.739  36.075  11.382
67274W        W39699   7.723   2.383  11.392
67275W        W39700  19.216   7.789  13.526
67276W        W39701  15.157  38.065  13.524
67277W        W39702  25.677  23.066   2.680
67278W        W39703  16.685  26.550   3.819
67279W        W39704  26.983   3.767  13.454
67280W        W39705  18.780  13.604  12.483
67281W        W39706  30.515  31.992  14.009
67282W        W39707  36.454  16.702  12.850
67283W        W39708  19.767  41.043   1.254
67284W        W39709  27.036   1.373   4.811
67285W        W39710  41.962  34.606  11.009
67286W        W39711  17.237  24.671  12.898
67287W        W39712  24.208  16.175   3.673
67288W        W39713  38.998  17.083   1.788
67289W        W39714   0.354  20.266   2.751
67290W        W39715   8.823  19.756  14.511
67291W        W39716   3.760   0.815  11.950
67292W        W39717  15.628  37.446   0.790
67293W        W39718  10.138   5.264  12.998
67294W        W39719  10.672  34.962  11.111
67295W        W39720  19.071  32.014  14.283
67296W        W39721  36.947  26.197   1.743
67297W        W39722  16.260  30.514   2.803
67298W        W39723  20.732  37.853  10.520
67299W        W39724  37.423  41.852  14.450
67300W        W39725  15.599  11.794  12.928
67301W        W39726  27.120  20.585   0.931
67302W        W39727  43.974  11.364  12.889
67303W        W39728  21.215  43.934   4.684
67304W        W39729   0.280  15.123  12.441
67305W        W39730  38.392  13.148  13.050
67306W        W39731  16.662  25.179  11.002
67307W        W39732   5.797  44.404  10.497
67308W        W39733  11.827   3.758  14.345
67309W        W39734  14.188  14.315  14.470
67310W        W39735  41.957  23.539   3.278
67311W        W39736  34.548  20.075  13.356
67312W        W39737  30.446  24.563  11.871
67313W        W39738  36.900  41.464   1.414
67314W        W39739  13.667  22.516  12.895
67315W        W39740  21.248  23.702  12.468
67316W        W39741  44.810  10.188   3.154
67317W        W39742   7.670  26.166  11.975
67318W        W39743   3.796  20.645  13.521
67319W        W39744  29.654  20.184   1.812
67320W        W39745  28.045   2.954   4.610
67321W        W39746  24.708  24.633   0.927
67322W        W39747  19.093  21.526  12.851
67323W        W39748  14.298  18.700   2.400
67324W        W39749  10.736  42.494  14.319
67325W        W39750  38.876  11.303   0.246
67326W        W39751  35.556  32.398  13.859
67327W        W39752  27.196  28.131  12.833
67328W        W39753   2.409  29.532  12.012
67329W        W39754  27.039   0.943  12.902
67330W        W39755   2.388  12.667   0.481
67331W        W39756  12.804  33.945   3.285
67332W        W39757  14.336  27.044  10.621
67333W        W39758   8.295  29.018   1.284
67334W        W39759   1.345  31.033   4.270
67335W        W39760   6.698  30.989  11.060
67336W        W39761  34.964  13.347   0.336
67337W        W39762  24.013   9.873   4.146
67338W        W39763  22.996   3.772   4.706
67339W        W39764  27.627  10.783  10.428
67340W        W39765  39.518  32.552   3.723
67341W        W39766  35.982  26.540   0.825
67342W        W39767  43.898  36.531   3.195
67343W        W39768  19.650   5.888  13.540
67344W        W39769  16.157   3.322  13.061
67345W        W39770  17.710  15.695  13.411
67346W        W39771  10.832  40.525  13.385
67347W        W39772  13.799  37.009  11.004
67348W        W39773  11.687   8.703  11.877
67349W        W39774  29.508  41.349  10.102
67350W        W39775  26.968  23.620   1.436
67351W        W39776  35.994  33.599   2.835
67352W        W39777  35.586  12.715   0.388
67353W        W39778  21.033   1.749   1.443
67354W        W39779  11.241   3.946   1.894
67355W        W39780  28.133  26.096   2.864
67356W        W39781   2.814   1.970   3.717
67357W        W39782   0.477   3.407  10.973
67358W        W39783   2.328  42.372   4.673
67359W        W39784  21.148  36.984   1.317
67360W        W39785  32.540   1.246  14.365
67361W        W39786   0.324  36.928   4.198
67362W        W39787   7.749   7.868   1.905
67363W        W39788  18.274  19.648   4.187
67364W        W39789  36.953   8.750  12.526
67365W        W39790   4.206   9.847  13.451
67366W        W39791  11.292  24.018   4.158
67367W        W39792  32.537   7.189   0.800
67368W        W39793  12.716  10.662  11.003
67369W        W39794  43.875  15.198   0.382
67370W        W39795  12.699  25.515  11.977
67371W        W39796  14.155   6.743   1.299
67372W        W39797  12.300  36.443   2.865
67373W        W39798  42.299   6.404   3.870
67374W        W39799   3.386   1.328  14.877
67375W        W39800  11.693   3.867  13.532
67376W        W39801  21.216  24.192   4.246
67377W        W39802  21.046  42.377  13.963
67378W        W39803  10.141  34.408   2.863
67379W        W39804   7.705  13.779  14.436
67380W        W39805  21.610  27.152   0.359
67381W        W39806   6.318  40.876  14.330
67382W        W39807  33.905  34.068   4.597
67383W        W39808  30.966  10.698   4.205
67384W        W39809  22.654  20.221   3.166
67385W        W39810  24.167  39.940  12.524
67386W        W39811  43.279   4.848   9.952
67387W        W39812   2.274  22.216   2.727
67388W        W39813  30.643  26.660  14.335
67389W        W39814   5.728  20.743   4.163
67390W        W39815   0.364   1.464   4.326
67391W        W39816  36.508  10.262  14.438
67392W        W39817  32.891  27.534  12.504
67393W        W39818   8.722  39.549  12.558
67394W        W39819  30.646  24.183   1.868
67395W        W39820   8.885  25.611  11.560
67396W        W39821   1.785  22.998   3.734
67397W        W39822  23.027  13.616  12.078
67398W        W39823   7.719  29.547   0.955
67399W        W39824  34.486  40.852  12.359
67400W        W39825  40.827   5.921   0.292
67401W        W39826  20.738  33.922  12.926
67402W        W39827  43.323  31.119  12.839
67403W        W39828  41.502  42.430  13.939
67404W        W39829  26.098  10.263   3.671
67405W        W39830  22.673   4.883   2.408
67406W        W39831  43.790  36.923  11.528
67407W        W39832  34.993   3.248   1.344
67408W        W39833  39.334  24.583   5.673
67409W        W39834  11.629  14.755  14.414
67410W        W39835  43.019  12.327  14.377
67411W        W39836  15.681  43.379  13.891
67412W        W39837  22.018  17.588  13.375
67413W        W39838   2.303  40.302  11.894
67414W        W39839   3.285  11.207   4.635
67415W        W39840  31.007  12.652  13.376
67416W        W39841  30.918  17.099  11.505
67417W        W39842  32.591   9.343   1.262
67418W        W39843  10.337   3.348  14.380
67419W        W39844  17.652  26.186   2.790
67420W        W39845   9.791  10.763  14.380
67421W        W39846  39.338  44.340  13.333
67422W        W39847  23.695   5.827  12.841
67423W        W39848  27.501  29.639   4.281
67424W        W39849  40.903  14.687   2.712
67425W        W39850  44.930  21.529   4.763
67426W        W39851  15.661  42.009   1.427
67427W        W39852  25.197  26.979  12.902
67428W        W39853   3.245  27.542  10.931
67429W        W39854  43.314  19.738   4.805
67430W        W39855  40.916   3.436  11.484
67431W        W39856  42.965  39.517  14.281
67432W        W39857  14.149  26.091  13.955
67433W        W39858  18.088   3.823  10.986
67434W        W39859  37.495   4.418   1.814
67435W        W39860  38.956  12.826   1.447
67436W        W39861  42.807  36.357  14.847
67437W        W39862  24.515   9.369  14.339
67438W        W39863  13.809  31.606   1.329
67439W        W39864  19.268   8.248  13.862
67440W        W39865  29.164  13.135   2.792
67441W        W39866  32.911  27.517  10.455
67442W        W39867  36.562  20.700   3.196
67443W        W39868  10.321  14.256   3.331
67444W        W39869  16.600   0.742  11.545
67445W        W39870  29.024  35.948   2.790
67446W        W39871  43.290  34.085   0.742
67447W        W39872  24.088  36.978   3.191
67448W        W39873  25.032  29.135   2.739
67449W        W39874  19.196  15.235  13.798
67450W        W39875   6.314   5.813  11.976
67451W        W39876  42.858  37.518   2.895
67452W        W39877  27.985  11.859   2.356
67453W        W39878  12.701  30.134   0.877
67454W        W39879   5.798  20.056   4.174
67455W        W39880  39.319  14.199  12.089
67456W        W39881   7.291  39.999  11.909
67457W        W39882  44.430  18.597  14.992
67458W        W39883  35.578  26.958  13.033
67459W        W39884  21.185  30.454   1.242
67460W        W39885  40.827  38.380   1.797
67461W        W39886  35.537  14.273   2.230
67462W        W39887  20.176  27.019   1.914
67463W        W39888  15.236  39.344   4.607
67464W        W39889  30.952  44.326   1.291
67465W        W39890  15.319  41.485  12.051
67466W        W39891  16.707  31.036  13.448
67467W        W39892  42.948  33.885   4.226
67468W        W39893   1.263  29.633   3.368
67469W        W39894  15.757  33.624   2.741
67470W        W39895   7.700  13.185   5.107
67471W        W39896  23.044  12.630   1.261
67472W        W39897  34.933  37.529   3.738
67473W        W39898  29.561  11.664   5.183
67474W        W39899  10.139  34.413  12.832
67475W        W39900  26.162   6.722   2.690
67476W        W39901  25.053  16.579   1.864
67477W        W39902  30.017  11.746   2.317
67478W        W39903  23.725  44.792  14.378
67479W        W39904  30.450  42.977   2.809
67480W        W39905  25.609  19.170   0.255
67481W        W39906  20.581   3.386   3.199
67482W        W39907  14.172  31.531   3.306
67483W        W39908   8.222   6.360  14.941
67484W        W39909  12.182   0.494  13.416
67485W        W39910  13.342  40.952  14.775
67486W        W39911  40.847  39.503  10.931
67487W        W39912   2.376  13.314   2.669
67488W        W39913  40.443   8.876   0.298
67489W        W39914  14.170  27.453   4.216
67490W        W39915  34.069  18.276  11.937
67491W        W39916  33.912  19.130   0.269
67492W        W39917  19.774  21.201  11.033
67493W        W39918  20.759  29.497  14.313
67494W        W39919  40.038  23.110   0.468
67495W        W39920  12.236  36.378  13.525
67496W        W39921   1.379  34.493  14.960
67497W        W39922  41.990   3.424   1.278
67498W        W39923  28.614  43.432   4.330
67499W        W39924   2.311  30.048  14.997
67500W        W39925  40.035   7.306  12.057
67501W        W39926  12.676  39.933   0.340
67502W        W39927  11.673  33.541  11.966
67503W        W39928  35.396  21.115  11.542
67504W        W39929  32.130   4.841   0.406
67505W        W39930  11.705  35.931  13.954
67506W        W39931  27.998  22.241   0.832
67507W        W39932   8.280  29.540   0.778
67508W        W39933  16.788  44.835   1.383
67509W        W39934  44.802  37.079   3.248
67510W        W39935  37.462   9.374   0.959
67511W        W39936  38.956   5.376  10.914
67512W        W39937  13.656  34.383   2.354
67513W        W39938   2.746  42.400  10.643
67514W        W39939  40.318  14.721   3.235
67515W        W39940  31.522  10.331  13.310
67516W        W39941  17.743  15.736   0.910
67517W        W39942  40.804  24.614   0.838
67518W        W39943  15.157   6.410  13.494
67519W        W39944  28.624   3.851   4.637
67520W        W39945  29.623  32.450  11.895
67521W        W39946   5.848  12.773  14.337
67522W        W39947   0.861  24.010   3.240
67523W        W39948  11.140  39.843   0.799
67524W        W39949  14.790  43.477   4.326
67525W        W39950   0.899  13.786   0.446
67526W        W39951   0.793  11.149  11.441
67527W        W39952   0.749  31.535  13.331
67528W        W39953  16.169  14.189  14.299
67529W        W39954  15.718  34.117   2.815
67530W        W39955   1.426  38.918  11.558
67531W        W39956  10.795   8.713  14.422
67532W        W39957  28.024  44.915   3.383
67533W        W39958  43.383  37.373   4.686
67534W        W39959  13.684  31.089   4.804
67535W        W39960  18.742  19.139  12.505
67536W        W39961   7.850  41.790  11.024
67537W        W39962  36.062  17.139  13.315
67538W        W39963  43.350  17.079  10.046
67539W        W39964  36.413  27.469   0.397
67540W        W39965  32.562  25.965   3.637
67541W        W39966   8.763  22.645   0.956
67542W        W39967  25.479  33.900  12.897
67543W        W39968   9.230   8.867   1.829
67544W        W39969   0.307  28.183   3.646
67545W        W39970  40.549  42.012  11.405
67546W        W39971  15.187  10.873   4.789
67547W        W39972  35.544  41.877   2.661
67548W        W39973  44.282  29.056   1.306
67549W        W39974  29.981  20.068   3.270
67550W        W39975  20.731  40.871   0.272
67551W        W39976   3.884  38.513  13.325
67552W        W39977  29.638  22.537   1.933
67553W        W39978   1.774  38.441  10.973
67554W        W39979  19.278  34.004   0.778
67555W        W39980   0.475   4.292  11.384
67556W        W39981   3.862  16.234  12.392
67557W        W39982  13.265  35.001   4.349
67558W        W39983   2.887   7.347   0.754
67559W        W39984  21.194  12.799   5.220
67560W        W39985   4.904  29.149  10.483
67561W        W39986   7.184  20.596  14.505
67562W        W39987  12.334  17.578   0.777
67563W        W39988   0.282  19.779  14.965
67564W        W39989   5.715  24.202  10.614
67565W        W39990  26.153  42.518  14.026
67566W        W39991  29.622  21.512  14.416
67567W        W39992   4.407  43.302  12.010
67568W        W39993  38.072  17.574   0.845
67569W        W39994   6.394  24.554  11.508
67570W        W39995  12.141  24.480  14.482
67571W        W39996  39.814  37.377  11.079
67572W        W39997  14.138  18.181   2.893
67573W        W39998  30.449   8.268  13.047
67574W        W39999  37.070   8.861   0.444
67575W        W40000   1.270  36.507  12.022
67576W        W40001  31.545  18.721   5.321
67577W        W40002  42.456  40.546   0.897
67578W        W40003  21.250  27.452   0.423
67579W        W40004  27.061  27.635  12.897
67580W        W40005  15.187  23.147   3.247
67581W        W40006   5.430   3.860   1.861
67582W        W40007  19.079  44.884   2.319
67583W        W40008  19.120  32.444  11.588
67584W        W40009  30.493  26.188  12.560
67585W        W40010  44.887  43.785  14.804
67586W        W40011  42.880  44.815  14.779
67587W        W40012   6.919  26.525   0.368
67588W        W40013   9.756  20.076  10.958
67589W        W40014   8.361  31.979   0.327
67590W        W40015  24.546  26.192  12.906
67591W        W40016   2.773   4.340   0.871
67592W        W40017  19.070  34.076   4.810
67593W        W40018  31.025  14.167   0.255
67594W        W40019   8.667   4.898   4.640
67595W        W40020  38.523  23.633  13.389
67596W        W40021  25.065   7.852   4.167
67597W        W40022   2.781  36.971   2.397
67598W        W40023   3.748   5.894   0.942
67599W        W40024  25.990  23.617  10.571
67600W        W40025  18.706  38.025   4.835
67601W        W40026   9.652   7.208  13.438
67602W        W40027  38.833  36.988   2.359
67603W        W40028  20.031  39.515   1.293
67604W        W40029   9.188   2.796  13.347
67605W        W40030  37.962  21.113  10.096
67606W        W40031  16.309  32.917  10.577
67607W        W40032  35.866  29.495   3.711
67608W        W40033  35.489   7.812   0.262
67609W        W40034  27.573   9.722  14.873
67610W        W40035  12.265  18.548   0.761
67611W        W40036  21.185  30.459   2.212
67612W        W40037  20.535  34.984  11.405
67613W        W40038  39.899  44.856   2.400
67614W        W40039  31.067  29.470   2.240
67615W        W40040  29.652  29.439   4.694
67616W        W40041  35.872   3.379  10.535
67617W        W40042  30.636   5.918   0.407
67618W        W40043  22.022  32.581  13.432
67619W        W40044   6.779  11.175  10.522
67620W        W40045  41.816  30.467  10.631
67621W        W40046  25.088  35.053   5.277
67622W        W40047   2.919  19.058  12.348
67623W        W40048  22.054   8.330   3.754
67624W        W40049  11.727   9.157   3.269
67625W        W40050  39.014  35.084   1.300
67626W        W40051  43.420  40.970  13.953
67627W        W40052  15.690  30.565   3.869
67628W        W40053   5.776   7.798   4.830
67629W        W40054   2.472  19.075   2.275
67630W        W40055   1.970  16.688   0.827
67631W        W40056  14.274  26.689  11.567
67632W        W40057  22.724  20.083  13.030
67633W        W40058  26.116  44.316   3.810
67634W        W40059  10.373  18.735  10.571
67635W        W40060  28.180  16.233   4.760
67636W        W40061  39.058  24.145   4.214
67637W        W40062  35.437  18.220   1.918
67638W        W40063  28.022  18.579   5.227
67639W        W40064  23.720  16.726   3.805
67640W        W40065   7.868   1.444  11.980
67641W        W40066   2.246  32.430   3.244
67642W        W40067  32.995  33.588  14.960
67643W        W40068  30.922   4.382   0.914
67644W        W40069  32.102  29.116   4.624
67645W        W40070  18.559   4.423   1.238
67646W        W40071   1.975  13.825   4.306
67647W        W40072  44.764  37.054  13.488
67648W        W40073   4.773  43.355  13.443
67649W        W40074  15.090  42.302  12.356
67650W        W40075  16.200  25.641   2.898
67651W        W40076   2.832  33.493  14.815
67652W        W40077  17.568  15.818  12.888
67653W        W40078  18.216  37.906   3.870
67654W        W40079   6.191  12.699  10.501
67655W        W40080  31.136  43.429  14.852
67656W        W40081  31.999   9.838  14.007
67657W        W40082  12.764   6.405   3.767
67658W        W40083  36.082  42.911   2.708
67659W        W40084   0.475  18.119  11.519
67660W        W40085  25.063   9.801  10.592
67661W        W40086  34.439  20.619  14.349
67662W        W40087  27.667  32.104   0.825
67663W        W40088  24.135  30.655  13.851
67664W        W40089  31.962   9.198  10.602
67665W        W40090  18.155  36.419  13.399
67666W        W40091   9.858  42.837  12.079
67667W        W40092  18.709  11.134  12.912
67668W        W40093  12.673  25.653   1.369
67669W        W40094  38.534   0.796   2.361
67670W        W40095  34.514  21.045  11.054
67671W        W40096  38.958  36.851  10.447
67672W        W40097  37.948   5.424   1.406
67673W        W40098  21.022  11.137   4.812
67674W        W40099  21.171   2.447   3.731
67675W        W40100   3.809   4.246  12.925
67676W        W40101  10.772   2.763  12.852
67677W        W40102   2.916  21.520  13.380
67678W        W40103  39.921  36.948   3.280
67679W        W40104  40.329  17.085   0.471
67680W        W40105  38.849  31.440   0.436
67681W        W40106   4.799   3.721  13.016
67682W        W40107   4.268  38.524  13.043
67683W        W40108  29.567  39.522  12.569
67684W        W40109   7.208  27.976   0.386
67685W        W40110   4.362   6.812   1.830
67686W        W40111   1.917  21.260  10.061
67687W        W40112   9.864   9.210   2.237
67688W        W40113  18.078  33.455  11.931
67689W        W40114  32.925   8.301  12.960
67690W        W40115  19.062  27.690  10.917
67691W        W40116  42.940   2.345  14.483
67692W        W40117  22.149  21.091  12.541
67693W        W40118  29.059  40.981  12.022
67694W        W40119  40.499  28.502   2.702
67695W        W40120   7.755  14.308  12.443
67696W        W40121  18.545  25.636  13.446
67697W        W40122  34.008  28.970   2.279
67698W        W40123  39.815  14.791   0.242
67699W        W40124   8.771  38.379   2.737
67700W        W40125  11.371  43.773  12.035
67701W        W40126  21.187  23.612  13.503
67702W        W40127  44.839  33.454   9.943
67703W        W40128  12.675   2.869   1.924
67704W        W40129  39.012  44.992   5.578
67705W        W40130  33.934   2.763   2.188
67706W        W40131   5.796  25.036   1.288
67707W        W40132  26.032  26.122   1.362
67708W        W40133   3.364  22.574  14.502
67709W        W40134  15.095  39.498  14.781
67710W        W40135  33.072  11.199   3.173
67711W        W40136  26.117  20.147   1.338
67712W        W40137  11.800   3.743   1.275
67713W        W40138  39.363  15.710   0.791
67714W        W40139  16.586  33.096   0.948
67715W        W40140  30.992   9.873  13.527
67716W        W40141   0.397  31.949   2.185
67717W        W40142  35.596  19.167  13.838
67718W        W40143  28.519  16.693  13.519
67719W        W40144  20.221   2.945  11.410
67720W        W40145  15.184  12.357   0.747
67721W        W40146  27.510   2.895   0.957
67722W        W40147  38.001  42.794   3.169
67723W        W40148   3.438  35.950  12.896
67724W        W40149   2.762   2.309  12.425
67725W        W40150  32.468  38.416   1.845
67726W        W40151  30.560  39.960  13.856
67727W        W40152  18.627   9.683   1.926
67728W        W40153  21.072  33.518  10.940
67729W        W40154  18.563  33.606  15.000
67730W        W40155  24.542  35.911  14.790
67731W        W40156  34.867  12.674  11.605
67732W        W40157   3.952  15.803  13.315
67733W        W40158   1.391   4.929   3.648
67734W        W40159  33.014  11.301  14.890
67735W        W40160  12.260  31.931  13.459
67736W        W40161  33.071  32.969  11.063
67737W        W40162  38.046  25.987  12.439
67738W        W40163   4.815  15.803   3.205
67739W        W40164  35.997  22.214  14.314
67740W        W40165  40.499  34.445  14.963
67741W        W40166  28.076  24.529  13.954
67742W        W40167  29.037   9.323  12.507
67743W        W40168   9.205  39.860   3.824
67744W        W40169  38.954   0.851  11.477
67745W        W40170  26.701  11.372  11.924
67746W        W40171  10.375  22.722  10.462
67747W        W40172  23.120  28.541   4.276
67748W        W40173  17.723  34.506   1.430
67749W        W40174  28.479  38.564   0.273
67750W        W40175  38.048  22.570   5.668
67751W        W40176  25.491   3.812   2.343
67752W        W40177  16.235  32.058  11.965
67753W        W40178  41.378  13.350  13.025
67754W        W40179  19.234  43.343  11.904
67755W        W40180  15.085  44.365  10.938
67756W        W40181  13.701  17.103  12.368
67757W        W40182  42.379  35.604  12.000
67758W        W40183  41.005  32.025   4.167
67759W        W40184  29.484  31.998   2.255
67760W        W40185  23.609  11.204   3.858
67761W        W40186   2.449  42.309   0.277
67762W        W40187  15.255  10.289   1.280
67763W        W40188   0.312  16.594  12.576
67764W        W40189  16.073  37.951   4.334
67765W        W40190  41.821  21.591   2.836
67766W        W40191  40.034   2.745   2.712
67767W        W40192  19.597  17.290   0.959
67768W        W40193  29.648  31.410  10.106
67769W        W40194  16.768  44.757   2.668
67770W        W40195  42.788   3.262   1.395
67771W        W40196  29.607  39.871   3.820
67772W        W40197  35.557  17.653  10.445
67773W        W40198   0.416  36.470   1.289
67774W        W40199  42.957  14.281  10.417
67775W        W40200  28.009  23.010   4.780
67776W        W40201   4.853  12.728   9.920
67777W        W40202  20.186  10.641   3.254
67778W        W40203   2.335  24.077   1.432
67779W        W40204  18.088  43.767  10.479
67780W        W40205   3.393  11.711   2.785
67781W        W40206  23.625  27.585  11.398
67782W        W40207   0.428  14.731  10.890
67783W        W40208  32.556   7.367  11.012
67784W        W40209  12.277  20.593   2.290
67785W        W40210  20.167  38.544  13.041
67786W        W40211  13.822  44.447   0.297
67787W        W40212  18.782  40.358   1.374
67788W        W40213  20.248   9.393   4.310
67789W        W40214   8.694   8.768  12.501
67790W        W40215   4.774   0.269  14.823
67791W        W40216  21.095  17.132  14.972
67792W        W40217  19.113  25.963  13.370
67793W        W40218  31.037  30.615  13.412
67794W        W40219  11.669   6.342   3.666
67795W        W40220  41.534  24.072   5.152
67796W        W40221  31.915   5.321   1.385
67797W        W40222   2.794  41.892   3.253
67798W        W40223  11.866  23.189   1.925
67799W        W40224  37.990   1.483   1.776
67800W        W40225  25.978  39.368   1.921
67801W        W40226  19.191  39.362   4.691
67802W        W40227  16.622  14.282   3.807
67803W        W40228  13.249  30.015  13.448
67804W        W40229  26.483  18.739   0.763
67805W        W40230  32.575  23.586   0.343
67806W        W40231  35.877  19.592  13.940
67807W        W40232  25.676   9.781  12.553
67808W        W40233  43.937   3.731   1.793
67809W        W40234  15.608  38.887   2.897
67810W        W40235   4.791  18.157   9.978
67811W        W40236  20.236  16.195   2.803
67812W        W40237  44.830  18.580   0.754
67813W        W40238  37.522  44.370   0.377
67814W        W40239  10.666  26.015  12.085
67815W        W40240  39.424  11.714  13.443
67816W        W40241   2.291  16.082   2.804
67817W        W40242  18.756  25.971   2.824
67818W        W40243  32.518  35.365  12.081
67819W        W40244  44.450  13.331   4.346
67820W        W40245  41.866  39.386  13.514
67821W        W40246  17.256  26.634   3.707
67822W        W40247  34.018  42.506   3.749
67823W        W40248  27.174  16.232  14.013
67824W        W40249  16.660  38.870   1.247
67825W        W40250  19.625  12.690   1.876
67826W        W40251  17.687  35.939  10.969
67827W        W40252  17.257  44.900   1.370
67828W        W40253  16.219   7.291  14.867
67829W        W40254   7.735  42.963  12.481
67830W        W40255  36.842  22.565  13.376
67831W        W40256   2.284  25.117  13.338
67832W        W40257  12.256  30.562   2.698
67833W        W40258  38.960  35.931   3.864
67834W        W40259   0.827   0.761  11.547
67835W        W40260  17.686  43.806   3.326
67836W        W40261  25.011  20.201   3.147
67837W        W40262  30.158  34.021  12.519
67838W        W40263  25.119  27.647  11.992
67839W        W40264  33.015  16.143   2.411
67840W        W40265  10.208   7.790   4.166
67841W        W40266  32.114  32.136  14.025
67842W        W40267  39.012  10.236   1.822
67843W        W40268  12.785  19.246   3.769
67844W        W40269  19.773  15.118  11.069
67845W        W40270   9.318  43.279  12.456
67846W        W40271  37.338  21.729  12.896
67847W        W40272  17.200   4.360  12.573
67848W        W40273  32.014   1.924  13.536
67849W        W40274  44.756  44.471  14.874
67850W        W40275   0.760  37.893  13.829
67851W        W40276  25.098   7.353  11.415
67852W        W40277  36.380  29.522  14.022
67853W        W40278  12.766  31.910   4.174
67854W        W40279  39.063  18.274   9.998
67855W        W40280  40.485  27.962  10.419
67856W        W40281   6.747  30.061  12.902
67857W        W40282  42.921  13.769  13.033
67858W        W40283  38.396   6.335  13.864
67859W        W40284  27.091  39.336  10.415
67860W        W40285  10.677  10.742   4.725
67861W        W40286  42.877  18.701  10.574
67862W        W40287  38.905  10.149  13.051
67863W        W40288  24.488  26.528   0.334
67864W        W40289  42.843  17.264  11.990
67865W        W40290  30.503   3.709  14.009
67866W        W40291  41.373   6.280  13.459
67867W        W40292   0.416  11.232   2.327
67868W        W40293  30.533  29.929  12.447
67869W        W40294  36.489  36.522   0.954
67870W        W40295  21.074   6.358  14.320
67871W        W40296  33.943  38.475   4.116
67872W        W40297   2.726  17.731   0.310
67873W        W40298  36.358  12.719   3.866
67874W        W40299  38.464  17.238   0.804
67875W        W40300  14.806  19.093   2.689
67876W        W40301  40.317  19.067   0.343
67877W        W40302  42.933  43.840   3.380
67878W        W40303  29.640  12.192   0.918
67879W        W40304  42.834  27.501  14.955
67880W        W40305  44.274  15.784  11.542
67881W        W40306  28.497  31.134   2.397
67882W        W40307   0.358   2.883   2.314
67883W        W40308   7.805  23.561   4.351
67884W        W40309  42.913  22.123  12.094
67885W        W40310  14.743  37.058  14.882
67886W        W40311  21.719  25.678   0.444
67887W        W40312   4.720  27.034   0.278
67888W        W40313  25.148   8.850   3.632
67889W        W40314  16.749  19.662  12.526
67890W        W40315  10.659  21.660  13.435
67891W        W40316  30.413  22.735  10.892
67892W        W40317  16.299  12.733  11.417
67893W        W40318  32.052  26.117  14.418
67894W        W40319  24.499  16.291   2.276
67895W        W40320  18.711  27.138  13.862
67896W        W40321  21.066  16.750  11.943
67897W        W40322  16.206  32.117   1.840
67898W        W40323   0.322  29.993   3.219
67899W        W40324  17.156  36.913  13.052
67900W        W40325  24.021   0.956  11.406
67901W        W40326   7.351  31.417  13.912
67902W        W40327  14.155  32.601  11.561
67903W        W40328  32.051  42.797   3.810
67904W        W40329   6.193  19.597  13.061
67905W        W40330  42.887  16.723   1.760
67906W        W40331  16.109   8.229  13.317
67907W        W40332  41.934  31.537  14.961
67908W        W40333  14.763   7.266   2.679
67909W        W40334  35.602  34.048   4.165
67910W        W40335  31.067  39.932  12.572
67911W        W40336  19.708  18.628  12.996
67912W        W40337   0.454  37.346  11.062
67913W        W40338  12.353  21.132  12.380
67914W        W40339  13.166  19.662   0.474
67915W        W40340   3.267  23.007   1.269
67916W        W40341  37.387   4.776   0.428
67917W        W40342  10.328  25.657  11.585
67918W        W40343  26.538  17.725  10.992
67919W        W40344  19.587   2.937  10.984
67920W        W40345  29.095  37.866   1.251
67921W        W40346  11.728  29.447   0.412
67922W        W40347  13.230  33.093   4.714
67923W        W40348  28.147  16.715  14.855
67924W        W40349  28.064  37.354   0.769
67925W        W40350  40.027  19.564   2.207
67926W        W40351  33.532  39.973  14.326
67927W        W40352  44.929  28.018  11.004
67928W        W40353  30.019  18.140   1.416
67929W        W40354  11.151  22.238  13.413
67930W        W40355  25.131  43.955   0.255
67931W        W40356  42.820  36.405   1.219
67932W        W40357  44.877  22.663   4.658
67933W        W40358  12.343   4.338  12.529
67934W        W40359  12.620  16.082  10.632
67935W        W40360  27.452  24.127  11.444
67936W        W40361  15.780   8.373  13.477
67937W        W40362  40.395   4.709  14.352
67938W        W40363   7.290  30.942   4.122
67939W        W40364  37.409  42.298  13.799
67940W        W40365  37.888   8.776  10.893
67941W        W40366  39.875  40.989   0.887
67942W        W40367   2.270  11.816  12.485
67943W        W40368  14.128   2.876   2.886
67944W        W40369  42.304  29.465   0.911
67945W        W40370  43.846  41.393   2.299
67946W        W40371  38.979   3.215   0.294
67947W        W40372  18.673  29.137  11.497
67948W        W40373  31.474  23.564   0.444
67949W        W40374   5.803  10.686  11.015
67950W        W40375  11.826  43.292   4.210
67951W        W40376  12.244   9.720  10.466
67952W        W40377  14.733  20.711  11.114
67953W        W40378  27.162  42.890  13.860
67954W        W40379  17.789  11.285   3.800
67955W        W40380  31.456  39.997  14.406
67956W        W40381  23.551  41.297  13.870
67957W        W40382  19.130  22.678  14.002
67958W        W40383   8.206   9.846  11.092
67959W        W40384   6.313  26.172  11.964
67960W        W40385  27.633  41.803   1.217
67961W        W40386  10.673   7.296  13.048
67962W        W40387  43.789  14.651  14.908
67963W        W40388  11.338  34.022  14.400
67964W        W40389  10.330  39.949  11.514
67965W        W40390  18.221  18.588   4.275
67966W        W40391  28.156  21.682   0.360
67967W        W40392   9.391  37.547  12.825
67968W        W40393  25.610  44.882  13.925
67969W        W40394  13.146  26.994   2.770
67970W        W40395   1.964  35.390  14.977
67971W        W40396  33.913  13.200   0.441
67972W        W40397  37.980  19.142  14.511
67973W        W40398   5.350  42.473  14.805
67974W        W40399  30.476  10.343   0.454
67975W        W40400  43.938  36.980   0.331
67976W        W40401  42.978   6.881   3.202
67977W        W40402  25.071  12.229  13.495
67978W        W40403  36.423  29.656   1.810
67979W        W40404  24.680  44.368  14.768
67980W        W40405  15.715  34.583  10.471
67981W        W40406  14.817  24.072   5.195
67982W        W40407  43.408   1.781  11.126
67983W        W40408  18.709  40.415  13.411
67984W        W40409  20.133  16.601   3.324
67985W        W40410  40.897   2.231   0.262
67986W        W40411  38.530  35.473  10.576
67987W        W40412  19.136  26.457  11.594
67988W        W40413  24.685   9.178  10.137
67989W        W40414   5.711   7.188  13.016
67990W        W40415  17.232   7.911   0.806
67991W        W40416  28.159  41.994   0.383
67992W        W40417   4.799  10.693  13.841
67993W        W40418  16.662  37.904  13.014
67994W        W40419  13.305  24.027   2.783
67995W        W40420  12.717  35.584  12.869
67996W        W40421  33.957  31.901   4.687
67997W        W40422  34.608  15.195   1.827
67998W        W40423  40.886  41.961  11.046
67999W        W40424  25.577  17.800  11.537
68000W        W40425  37.546   2.954   4.141
68001W        W40426  36.011  41.949   0.875
68002W        W40427   7.705  25.646   2.366
68003W        W40428  25.012  43.364   4.655
68004W        W40429  32.124  44.310  12.402
68005W        W40430   5.897  31.496   3.277
68006W        W40431  38.026  21.654   3.383
68007W        W40432  27.569  12.161   1.338
68008W        W40433  19.617  14.163   4.124
68009W        W40434   3.762  38.994   3.161
68010W        W40435  19.117  19.049  14.951
68011W        W40436  11.200  21.626  14.318
68012W        W40437  36.087  25.123  14.318
68013W        W40438   8.400  32.624   0.366
68014W        W40439  28.018  21.117   1.415
68015W        W40440   5.325  23.635  12.997
68016W        W40441  22.191  39.883   2.767
68017W        W40442  38.424  19.063   2.217
68018W        W40443  10.304  39.043  14.853
68019W        W40444   3.837  10.719   3.176
68020W        W40445  17.666  43.325  12.025
68021W        W40446  38.566  26.085  13.466
68022W        W40447  33.008  14.706  11.018
68023W        W40448   7.872  42.892   2.764
68024W        W40449  25.973  25.479  10.439
68025W        W40450  17.246   0.361   9.924
68026W        W40451   3.259  37.897  12.095
68027W        W40452   9.321  25.022   2.833
68028W        W40453  36.410  41.340   1.314
68029W        W40454   4.942  24.086  13.320
68030W        W40455   6.921   1.269   4.334
68031W        W40456  21.109  18.237  14.780
68032W        W40457  19.124  19.762   1.803
68033W        W40458  25.992  36.088   0.479
68034W        W40459   2.449  34.515  12.850
68035W        W40460  22.731  44.874   9.929
68036W        W40461  42.286  28.518  10.607
68037W        W40462  24.104  16.797  14.963
68038W        W40463  18.691   3.935   1.392
68039W        W40464   8.660  38.071   1.260
68040W        W40465  20.724   6.309  12.491
68041W        W40466  10.833  13.821   3.162
68042W        W40467   2.354  23.051   4.835
68043W        W40468  38.469  14.712  14.307
68044W        W40469  44.309  27.643  10.024
68045W        W40470  35.563  33.569  10.928
68046W        W40471  40.039  30.540   1.902
68047W        W40472  39.315  29.135  11.992
68048W        W40473   1.876  42.432   0.954
68049W        W40474   5.815  15.157   1.704
68050W        W40475   3.750   0.941   2.374
68051W        W40476  29.450  28.506  11.985
68052W        W40477  14.592   0.834  10.030
68053W        W40478  27.008  38.965   0.871
68054W        W40479  42.862  16.173  10.935
68055W        W40480  35.031  15.797   1.296
68056W        W40481   6.756  32.424  13.543
68057W        W40482  26.084  34.430  11.118
68058W        W40483  31.532  40.812   2.255
68059W        W40484  32.413   2.244   3.177
68060W        W40485  39.373   9.350  13.810
68061W        W40486  22.124   7.262   0.762
68062W        W40487  21.258  11.683   2.806
68063W        W40488  32.409  27.179   0.824
68064W        W40489  41.816  29.017  14.860
68065W        W40490  27.040  18.119  13.316
68066W        W40491  39.475  32.578   0.313
68067W        W40492  31.104  41.973  13.058
68068W        W40493   3.746  20.577  11.067
68069W        W40494   9.178   5.795   1.825
68070W        W40495  43.356  36.868  14.360
68071W        W40496  42.476  27.955   1.283
68072W        W40497   5.309   9.148   3.798
68073W        W40498  42.300  14.611  11.866
68074W        W40499   2.315   0.773   3.368
68075W        W40500  41.358  20.245   1.436
68076W        W40501  31.082  22.541   2.253
68077W        W40502   6.739  25.488  10.997
68078W        W40503  28.961  23.050   4.818
68079W        W40504  35.553   1.314  14.761
68080W        W40505   7.329  41.848   4.273
68081W        W40506  36.362   7.855   2.876
68082W        W40507  45.000  41.374   3.665
68083W        W40508  18.630  26.973   2.792
68084W        W40509  34.947  14.786   4.138
68085W        W40510   9.225  33.467   2.885
68086W        W40511  35.061  20.608   1.910
68087W        W40512  40.020   0.878  11.010
68088W        W40513  35.505  21.106  11.900
68089W        W40514  13.791  10.280  11.495
68090W        W40515  13.162   3.933   3.785
68091W        W40516  35.949  16.241  14.857
68092W        W40517  40.525  31.634   0.904
68093W        W40518  18.171   3.778  14.759
68094W        W40519  17.218   6.316   0.859
68095W        W40520  19.046  39.486  12.352
68096W        W40521   8.346  32.981  13.535
68097W        W40522  16.699  18.154  14.461
68098W        W40523   1.798  29.978  12.970
68099W        W40524  20.531  13.671   1.909
68100W        W40525  30.594  22.141   3.375
68101W        W40526  28.148   3.215   5.112
68102W        W40527  16.801  35.878  13.352
68103W        W40528  24.522   9.186  11.510
68104W        W40529   9.354  44.415  10.511
68105W        W40530  34.047  19.079  13.051
68106W        W40531  23.668  26.676   3.767
68107W        W40532  13.247  19.683   4.309
68108W        W40533   8.379  21.599  10.953
68109W        W40534  18.787   3.850   3.148
68110W        W40535  20.756  26.494  10.030
68111W        W40536   7.693  10.666  13.398
68112W        W40537  17.758  41.815  14.850
68113W        W40538  35.442  21.185   1.335
68114W        W40539  35.537  23.104   9.518
68115W        W40540  31.580  29.122   4.615
68116W        W40541  41.839  40.880  11.573
68117W        W40542  17.174   3.395  11.947
68118W        W40543   7.230  31.595   4.827
68119W        W40544  32.620  43.937   0.841
68120W        W40545  37.358  21.041  14.819
68121W        W40546  29.949   9.306  13.358
68122W        W40547   0.869  25.112  14.804
68123W        W40548  35.053  11.646  10.618
68124W        W40549   0.434  41.981   1.371
68125W        W40550   4.254   4.410  10.495
68126W        W40551  40.522   6.874   3.691
68127W        W40552  28.638  26.995   3.167
68128W        W40553  44.454   4.370   0.454
68129W        W40554  16.648   0.285   2.254
68130W        W40555  16.228  16.286   3.297
68131W        W40556  21.595  23.680   0.727
68132W        W40557  18.181  28.952   2.235
68133W        W40558  43.513   3.359  10.914
68134W        W40559  11.640  32.516  14.972
68135W        W40560  10.799  38.393  12.857
68136W        W40561  30.124  23.177  13.870
68137W        W40562  34.998   3.805   2.685
68138W        W40563  13.350  41.882   0.262
68139W        W40564  29.939  29.967  12.946
68140W        W40565  12.181   8.665  11.004
68141W        W40566  27.147  27.507   3.776
68142W        W40567   1.424   7.823  13.423
68143W        W40568  30.485   3.285  10.438
68144W        W40569  28.105  18.101  10.547
68145W        W40570  15.813  29.513   0.842
68146W        W40571  32.438  35.889  12.967
68147W        W40572  16.765  43.403   2.270
68148W        W40573  34.440  15.257   2.298
68149W        W40574  26.545  23.508   0.762
68150W        W40575  27.013  32.027   0.737
68151W        W40576  12.292  17.606   2.725
68152W        W40577   8.371  38.493   4.685
68153W        W40578  40.409  27.004   1.760
68154W        W40579  23.987   4.747  12.066
68155W        W40580  15.704   5.826  14.952
68156W        W40581  38.049   8.705   2.799
68157W        W40582  21.127  24.509  14.906
68158W        W40583  23.598  28.616  12.516
68159W        W40584  36.573  28.487   4.680
68160W        W40585  10.275  31.957   4.755
68161W        W40586   5.805  10.294   2.672
68162W        W40587  12.694   8.788   0.750
68163W        W40588  22.615  28.068   0.764
68164W        W40589  18.770  14.703  11.429
68165W        W40590  33.917  20.766  10.495
68166W        W40591  29.053  41.416  11.914
68167W        W40592  21.589   3.354  13.358
68168W        W40593  17.198  29.027   1.434
68169W        W40594  10.226   2.249   1.400
68170W        W40595  36.874  41.843   2.683
68171W        W40596   3.261  44.395  12.384
68172W        W40597  36.943  28.547   2.678
68173W        W40598  33.068  17.122   2.368
68174W        W40599   7.755  31.948   0.371
68175W        W40600  23.701  41.011  11.116
68176W        W40601  11.148  25.171  11.875
68177W        W40602   4.938  30.652  13.321
68178W        W40603  32.090  17.667  10.552
68179W        W40604  41.811  16.683  12.576
68180W        W40605  35.377   7.830   3.243
68181W        W40606  35.499   1.896   4.239
68182W        W40607  33.918   4.232  14.845
68183W        W40608  34.590  29.946  12.970
68184W        W40609  10.817  26.665  12.936
68185W        W40610  13.263  44.953   3.738
68186W        W40611   1.928  21.630   2.409
68187W        W40612  18.791  24.037   3.173
68188W        W40613  28.067   7.737  11.490
68189W        W40614  15.732  41.018   4.337
68190W        W40615  16.617   3.424  13.038
68191W        W40616  16.252   5.925  11.978
68192W        W40617  26.101  27.023   4.286
68193W        W40618   8.370  14.610   1.397
68194W        W40619  20.674  22.050  10.413
68195W        W40620   2.414   0.933  10.605
68196W        W40621  14.154  12.155   4.304
68197W        W40622  11.851  30.536   0.734
68198W        W40623   9.644  12.826  10.437
68199W        W40624  28.034  18.656  14.782
68200W        W40625  18.695  30.063   1.739
68201W        W40626   1.249  41.906  14.910
68202W        W40627  42.334   6.286  14.842
68203W        W40628  29.670   6.332  12.499
68204W        W40629  38.490  42.882  11.407
68205W        W40630   7.301   1.756   3.819
68206W        W40631  19.546  14.153   3.218
68207W        W40632   4.841  34.472   3.662
68208W        W40633  18.602  14.255   4.270
68209W        W40634  25.599  39.329   3.773
68210W        W40635  16.300  16.156   3.646
68211W        W40636   0.759  10.213   0.432
68212W        W40637  40.879  16.199  14.886
68213W        W40638   4.345  31.047  13.487
68214W        W40639  12.121  23.636   1.694
68215W        W40640   4.405   0.928  14.912
68216W        W40641  44.493   8.199  10.574
68217W        W40642  36.449  13.747  13.061
68218W        W40643  32.447  41.293  11.999
68219W        W40644  18.788  41.945  10.994
68220W        W40645  42.449   4.359   2.884
68221W        W40646  19.192  17.743  14.392
68222W        W40647   0.368   3.809  12.823
68223W        W40648   1.377  22.080  13.949
68224W        W40649   2.799  17.656  14.301
68225W        W40650  37.872  42.476  10.969
68226W        W40651   6.810  37.961  14.766
68227W        W40652   8.686   9.768  14.428
68228W        W40653  15.799  11.785   1.391
68229W        W40654  30.619  44.427  10.054
68230W        W40655  12.840  44.981  14.003
68231W        W40656  39.849   3.228  14.352
68232W        W40657  44.908  10.275  10.984
68233W        W40658  13.316  40.861  11.495
68234W        W40659  13.335  40.414  11.475
68235W        W40660   9.150  40.459   0.279
68236W        W40661  29.512  43.278   4.340
68237W        W40662  36.515  31.955  14.774
68238W        W40663   5.730  27.123  13.422
68239W        W40664   2.853   7.905  14.840
68240W        W40665   4.350  27.091  11.039
68241W        W40666  40.423  11.795   1.300
68242W        W40667   8.716  38.829  12.022
68243W        W40668  24.120  14.681  14.330
68244W        W40669   7.323  18.645   2.742
68245W        W40670  18.668  29.990  13.510
68246W        W40671  15.580  17.229   3.839
68247W        W40672  41.899   1.949   3.751
68248W        W40673  42.032  22.620  14.473
68249W        W40674  36.016  44.827  13.435
68250W        W40675  15.654   8.825   2.841
68251W        W40676  42.371  29.923  14.386
68252W        W40677  11.692  24.491   2.897
68253W        W40678  36.566  34.903   1.445
68254W        W40679   3.333  30.531  12.373
68255W        W40680  29.544  29.077   3.272
68256W        W40681  44.350   9.887  13.476
68257W        W40682  33.556  27.110  14.288
68258W        W40683   3.397   4.880  10.565
68259W        W40684  13.118  12.698   0.887
68260W        W40685  27.624  40.457   2.723
68261W        W40686  14.188  22.133   9.545
68262W        W40687  21.144  39.831  13.403
68263W        W40688  39.542  18.277   3.727
68264W        W40689   2.301   0.315  11.868
68265W        W40690   9.863  33.448  11.406
68266W        W40691  23.194  38.515  13.954
68267W        W40692  36.348  30.508   3.843
68268W        W40693  27.189  14.767  11.046
68269W        W40694  44.820  39.952   0.405
68270W        W40695  41.462  26.541   2.419
68271W        W40696   8.190  16.585   3.238
68272W        W40697  11.865  37.911  14.297
68273W        W40698   6.191  14.617   2.769
68274W        W40699  15.087  14.105   3.698
68275W        W40700  38.476  21.546  12.475
68276W        W40701  19.701  19.123  14.918
68277W        W40702  32.443  21.018  11.597
68278W        W40703   5.816   0.753  10.572
68279W        W40704  19.250  44.777   4.836
68280W        W40705  34.614  43.910   4.647
68281W        W40706  15.603  19.141  10.457
68282W        W40707  12.199  17.774   4.215
68283W        W40708   3.758   4.412  14.026
68284W        W40709  37.335   5.433   0.244
68285W        W40710   1.474   5.377  14.964
68286W        W40711   3.239  18.560   5.166
68287W        W40712  34.409  16.666   4.213
68288W        W40713   0.397  27.636   3.859
68289W        W40714  23.147  28.112  10.019
68290W        W40715  15.170  33.467  14.353
68291W        W40716  11.284  22.501  11.045
68292W        W40717  36.992  28.476   0.757
68293W        W40718   3.885  19.558   3.247
68294W        W40719   6.266   7.274  11.941
68295W        W40720  30.952   4.795  13.899
68296W        W40721   8.239  22.133  11.566
68297W        W40722  12.124  11.766  11.499
68298W        W40723   7.821  28.569  14.435
68299W        W40724  17.136  16.801  12.095
68300W        W40725  18.756  26.088   4.811
68301W        W40726  34.013  14.770   1.781
68302W        W40727  38.485  24.167  14.838
68303W        W40728  23.066   2.843   2.320
68304W        W40729   2.279   9.666   1.694
68305W        W40730   4.370   2.748  14.406
68306W        W40731   5.891  44.856  13.317
68307W        W40732  19.537  20.590   1.760
68308W        W40733  35.433  40.815   0.806
68309W        W40734  17.745  14.298   1.893
68310W        W40735   1.401  12.718  10.408
68311W        W40736  34.933  11.690  14.366
68312W        W40737  21.758  10.218  10.040
68313W        W40738  43.820  32.980   2.796
68314W        W40739  43.790  35.512   0.788
68315W        W40740  25.548  37.428  13.509
68316W        W40741  32.452  22.665   3.150
68317W        W40742  13.694  34.438   0.406
68318W        W40743   1.361  39.526   1.259
68319W        W40744   5.789  20.174   0.891
68320W        W40745  21.569  34.598   1.731
68321W        W40746   3.298  20.090   1.434
68322W        W40747  28.128  20.124  11.983
68323W        W40748  35.992   4.283  14.983
68324W        W40749  31.607  13.761   0.272
68325W        W40750   9.223   2.883   0.765
68326W        W40751  19.050  18.242   3.252
68327W        W40752   5.210  31.091  12.015
68328W        W40753   5.756  18.277   4.821
68329W        W40754  39.810   7.172  14.829
68330W        W40755  26.487  16.111  10.572
68331W        W40756   2.828  12.798   3.331
68332W        W40757  21.592  40.992   3.288
68333W        W40758   4.773  39.818  14.415
68334W        W40759   7.732  26.517  11.959
68335W        W40760   1.860  11.306  10.419
68336W        W40761  19.093  11.754  11.977
68337W        W40762  33.897   1.368  11.882
68338W        W40763  21.090   9.206  13.930
68339W        W40764  41.426  32.500   0.787
68340W        W40765  20.061  40.471  11.918
68341W        W40766  44.946  33.499   1.748
68342W        W40767  41.453  16.293  13.392
68343W        W40768  20.228   3.436  14.809
68344W        W40769  36.022  25.502   5.265
68345W        W40770  32.632  32.992  12.072
68346W        W40771  33.994   4.755   0.424
68347W        W40772  39.833  28.034   1.293
68348W        W40773   0.751  10.158  11.453
68349W        W40774  15.109  16.613   0.742
68350W        W40775  17.758   7.176  13.846
68351W        W40776  20.598   5.850  11.585
68352W        W40777  14.784  10.228   0.904
68353W        W40778  35.403  10.704  11.125
68354W        W40779  36.048  12.221   4.143
68355W        W40780  11.267  36.477  12.503
68356W        W40781   9.237  19.106  14.487
68357W        W40782   2.862  10.819   2.677
68358W        W40783  10.357  31.455  13.791
68359W        W40784  10.185  13.764  12.420
68360W        W40785   5.837   9.193   1.253
68361W        W40786   9.835  17.082  13.865
68362W        W40787  40.356   9.651  10.639
68363W        W40788  16.796  38.446  10.951
68364W        W40789  35.533  28.130   2.321
68365W        W40790  35.108   5.721  14.885
68366W        W40791  10.302  11.367   2.686
68367W        W40792  43.442  21.691  11.034
68368W        W40793  16.617  28.951  12.013
68369W        W40794  15.627  44.473   1.758
68370W        W40795  28.939  15.632  12.029
68371W        W40796  21.066  33.129  11.507
68372W        W40797  11.160   9.252   4.733
68373W        W40798   2.335  19.180  14.883
68374W        W40799  25.470  26.464   3.707
68375W        W40800  35.506  27.677  12.996
68376W        W40801  28.966  40.917   0.298
68377W        W40802  43.809  15.712   0.927
68378W        W40803  41.326  18.727  14.005
68379W        W40804  39.467  19.592   0.845
68380W        W40805  17.669  37.496   1.794
68381W        W40806  43.331  42.527  13.949
68382W        W40807   4.223  31.145  10.549
68383W        W40808  29.038  36.977  12.378
68384W        W40809  38.068   7.350   3.368
68385W        W40810   7.366   5.908  12.023
68386W        W40811  14.124   3.395   0.839
68387W        W40812  34.600  40.948   3.308
68388W        W40813  43.011  21.514   3.208
68389W        W40814   4.856  32.083   2.707
68390W        W40815  12.158   1.455   4.807
68391W        W40816  10.162   9.333  12.946
68392W        W40817   2.328  14.147  13.062
68393W        W40818   3.897  19.048   0.878
68394W        W40819  42.488  44.292   3.356
68395W        W40820   5.857  35.051   0.244
68396W        W40821  31.152  34.523  10.448
68397W        W40822  24.659  42.777  10.913
68398W        W40823  32.535  21.109   4.678
68399W        W40824   6.234   1.287  14.515
68400W        W40825  12.682  19.043   1.791
68401W        W40826  37.524  36.955   3.372
68402W        W40827  17.205   1.416   1.734
68403W        W40828  44.004  19.627   0.789
68404W        W40829  31.480  43.363   2.321
68405W        W40830  32.599  22.541   1.246
68406W        W40831  13.240  11.235   3.721
68407W        W40832  23.626  22.563   3.165
68408W        W40833  39.906  36.964   0.791
68409W        W40834   3.297  43.004   4.117
68410W        W40835  40.908   8.751  13.036
68411W        W40836  17.696  38.426   3.642
68412W        W40837  31.126  24.196  13.955
68413W        W40838   8.293  15.654   1.273
68414W        W40839  40.505   2.761  13.918
68415W        W40840  25.155  43.473  14.354
68416W        W40841  30.064  33.432   1.440
68417W        W40842   1.352  12.692  14.760
68418W        W40843  18.751   1.403   9.953
68419W        W40844  14.817  36.398   0.431
68420W        W40845  36.571   3.924   3.378
68421W        W40846   3.310  26.047   4.173
68422W        W40847   8.321   9.377   1.235
68423W        W40848  17.729  29.174  12.832
68424W        W40849  16.632  32.473   5.238
68425W        W40850   3.722  17.609   1.880
68426W        W40851  10.632  29.442   0.321
68427W        W40852  14.821  13.222   4.332
68428W        W40853  28.992  10.717   1.850
68429W        W40854  10.346  36.530   4.720
68430W        W40855  23.626  27.536  12.353
68431W        W40856  44.999  37.530   1.222
68432W        W40857  37.497  10.238  11.020
68433W        W40858  26.201  12.145   2.236
68434W        W40859  12.126  42.438   2.834
68435W        W40860  38.389  11.814  11.892
68436W        W40861   1.367   3.877   3.181
68437W        W40862  25.661  18.623   1.839
68438W        W40863  23.528  44.835   0.730
68439W        W40864  14.736   6.887   2.297
68440W        W40865  15.733  15.230  11.609
68441W        W40866   5.408  36.884  14.377
68442W        W40867  16.149   1.851  10.609
68443W        W40868  26.074  10.689   0.853
68444W        W40869   6.337  25.632  13.400
68445W        W40870  43.936  19.548  11.477
68446W        W40871  25.583  30.577  11.089
68447W        W40872  28.040  17.164   4.763
68448W        W40873  37.370   4.867  12.501
68449W        W40874  32.451  12.645   3.311
68450W        W40875  14.183  42.880  11.960
68451W        W40876  43.401   4.375   0.967
68452W        W40877  11.292  37.017   0.288
68453W        W40878  30.529  33.481   2.238
68454W        W40879   2.296   5.805   4.646
68455W        W40880  14.173  16.270   3.823
68456W        W40881  40.455  43.897   0.350
68457W        W40882   6.920  40.428   4.190
68458W        W40883  15.283   0.478  14.353
68459W        W40884  17.282  11.694  12.825
68460W        W40885  28.036  43.429   4.723
68461W        W40886  36.366  12.335   0.850
68462W        W40887  39.845   3.888   1.896
68463W        W40888  32.010  40.832   3.680
68464W        W40889  33.085  26.468   4.691
68465W        W40890  35.561  27.551  11.953
68466W        W40891  26.624   8.716   4.757
68467W        W40892  29.040   0.834  14.509
68468W        W40893   9.674  35.446   4.122
68469W        W40894  16.262  29.021   3.271
68470W        W40895  18.653  13.705  13.426
68471W        W40896  36.494  39.902   4.215
68472W        W40897  30.046   4.447   4.817
68473W        W40898  16.651  18.641   2.802
68474W        W40899  33.977  14.615  10.469
68475W        W40900  23.080  11.651  11.445
68476W        W40901  42.479  10.639   4.346
68477W        W40902  17.084  22.504  13.417
68478W        W40903  13.701   5.194  11.941
68479W        W40904  36.391  37.366  11.453
68480W        W40905   9.644  22.085  14.361
68481W        W40906  12.228  24.489   2.344
68482W        W40907  13.661  10.699   2.196
68483W        W40908  30.947   7.295  11.556
68484W        W40909  23.640  21.740   0.432
68485W        W40910  34.059  19.124  11.446
68486W        W40911  17.759  16.087   3.278
68487W        W40912  27.602  31.150  13.527
68488W        W40913  21.086  26.626  14.453
68489W        W40914  20.197  41.480  10.160
68490W        W40915  27.085  21.148   0.853
68491W        W40916  19.770   6.299  12.977
68492W        W40917   1.306   0.862  14.954
68493W        W40918  29.640  16.757  14.863
68494W        W40919  25.572  27.036  14.322
68495W        W40920   9.160  38.037   5.249
68496W        W40921   5.387  43.411  13.843
68497W        W40922  37.862  43.821   4.117
68498W        W40923  19.216  13.695   4.270
68499W        W40924  29.458  41.016   0.835
68500W        W40925  41.386  10.182  11.035
68501W        W40926   2.364  22.048   4.652
68502W        W40927   1.259  32.472   1.860
68503W        W40928   8.763  12.217   1.255
68504W        W40929  20.077   7.338   1.881
68505W        W40930  26.510  10.298   1.278
68506W        W40931  18.215   9.252   2.301
68507W        W40932  40.859  35.572  14.946
68508W        W40933  10.701  33.910   0.438
68509W        W40934  35.539  12.270   4.758
68510W        W40935  31.592   7.890   0.880
68511W        W40936   4.331  18.111  14.939
68512W        W40937   4.218  26.693  14.294
68513W        W40938  35.403  44.500   2.310
68514W        W40939   8.189  39.504   0.428
68515W        W40940  22.731  39.445  14.933
68516W        W40941  22.552  15.286   1.317
68517W        W40942  16.137  37.497  11.015
68518W        W40943  15.585   4.827  12.408
68519W        W40944  21.546   4.449  11.113
68520W        W40945   6.834  32.032  14.005
68521W        W40946  14.713  33.108  11.048
68522W        W40947  42.409  21.080  13.001
68523W        W40948   8.402  31.591  12.989
68524W        W40949  36.530  26.022  14.394
68525W        W40950   1.806  39.449  13.385
68526W        W40951  29.061   8.697  14.360
68527W        W40952   2.822  12.705   2.214
68528W        W40953  29.620  37.039   2.272
68529W        W40954   6.771  20.223   3.299
68530W        W40955  29.966  38.923   2.877
68531W        W40956  30.438  14.636  14.024
68532W        W40957  39.869  18.714   2.346
68533W        W40958  20.167  35.544  14.024
68534W        W40959  23.687  40.312   1.356
68535W        W40960  42.982   9.745   1.712
68536W        W40961  12.267  42.353  11.529
68537W        W40962  10.756  27.586   2.346
68538W        W40963  21.129  30.107  11.918
68539W        W40964  17.613  10.799  11.911
68540W        W40965  41.374  36.420  11.872
68541W        W40966  11.231  36.918  12.393
68542W        W40967  43.440  25.038   0.893
68543W        W40968   0.821  16.641  11.044
68544W        W40969   2.731  14.337  14.385
68545W        W40970  17.144  26.025  11.566
68546W        W40971  27.188  39.034  12.846
68547W        W40972  25.661  29.581  12.489
68548W        W40973  44.919  44.768   4.195
68549W        W40974  29.611   8.241   0.274
68550W        W40975  41.536  18.612  11.097
68551W        W40976  39.823  19.167   4.283
68552W        W40977   1.878  16.682  11.858
68553W        W40978   4.856  40.424   2.695
68554W        W40979  39.381  26.208  13.457
68555W        W40980  26.200  10.661   3.260
68556W        W40981  30.116   5.857   4.764
68557W        W40982  35.524  25.128   4.757
68558W        W40983  42.960  39.000  14.875
68559W        W40984   1.316  32.998  14.790
68560W        W40985   2.934  43.308  14.901
68561W        W40986  35.964  32.592   2.273
68562W        W40987  30.003  30.452   5.135
68563W        W40988  37.018  12.637   1.885
68564W        W40989   5.362  30.529   4.614
68565W        W40990  21.138   9.651  11.014
68566W        W40991  33.468  20.254  11.104
68567W        W40992  18.198  17.176  13.319
68568W        W40993  44.264  15.161  13.333
68569W        W40994   0.306  12.344   1.738
68570W        W40995  41.960  25.021   9.979
68571W        W40996  35.408  31.552  14.873
68572W        W40997  20.274  29.434  13.413
68573W        W40998  22.711  20.707   3.709
68574W        W40999  24.625  44.852   4.343
68575W        W41000  38.427  44.358   5.170
68576W        W41001  38.427  38.074   4.791
68577W        W41002   3.774  41.372  14.488
68578W        W41003  21.088  19.780  13.391
68579W        W41004  42.419  10.223   2.872
68580W        W41005  18.120   8.889  13.360
68581W        W41006  22.247  23.566  12.351
68582W        W41007  24.010  23.161   3.173
68583W        W41008   6.389  21.669  13.967
68584W        W41009  19.750  31.628  10.038
68585W        W41010  36.858  40.454  12.957
68586W        W41011   1.401  34.898  12.471
68587W        W41012  16.106  19.621  10.500
68588W        W41013  44.503  23.992   2.228
68589W        W41014   6.778   8.817  12.849
68590W        W41015  27.037  39.819   0.736
68591W        W41016  10.815  25.604   4.254
68592W        W41017  20.135  32.073   2.682
68593W        W41018  20.546   6.313   2.393
68594W        W41019  36.510   3.886  11.991
68595W        W41020   1.481  35.522   0.911
68596W        W41021  28.609   8.829  12.551
68597W        W41022   0.957  15.635   4.807
68598W        W41023   5.791   9.807   3.233
68599W        W41024  38.053  14.190  11.040
68600W        W41025   1.407   1.282  10.500
68601W        W41026  38.947  29.965   2.729
68602W        W41027  33.462  41.917   4.339
68603W        W41028   9.241  35.589  11.555
68604W        W41029   9.737   9.239   0.841
68605W        W41030  38.447  23.038   2.852
68606W        W41031  12.708  31.950  14.458
68607W        W41032   5.803  32.425   2.897
68608W        W41033  33.429   1.977  13.360
68609W        W41034   3.289  24.006  12.960
68610W        W41035  30.496  28.992  12.442
68611W        W41036  13.625  20.714   1.810
68612W        W41037  43.955  35.966  11.907
68613W        W41038  15.316  28.093  11.422
68614W        W41039   0.427   2.280   3.769
68615W        W41040  17.781   6.318  13.916
68616W        W41041  32.461  25.665   4.619
68617W        W41042  11.151   0.464  11.527
68618W        W41043  30.112  36.430  12.994
68619W        W41044  20.690  34.053   4.609
68620W        W41045  38.456  14.661   4.609
68621W        W41046   6.257  26.989   1.900
68622W        W41047  13.789  40.929  13.861
68623W        W41048  11.333  34.541   2.369
68624W        W41049  17.070  27.506   2.377
68625W        W41050  28.446  10.151   1.732
68626W        W41051  27.619  32.967   1.835
68627W        W41052  13.167  18.064  12.459
68628W        W41053  22.245  44.330  11.123
68629W        W41054  31.068  33.471  13.371
68630W        W41055   8.391   2.420   4.812
68631W        W41056  28.650  26.123   4.681
68632W        W41057  22.654  29.012  11.032
68633W        W41058  37.400   9.243   4.313
68634W        W41059  26.973  40.005  13.446
68635W        W41060  35.600   7.193   1.270
68636W        W41061  42.416  35.025  14.942
68637W        W41062  11.694  11.266   4.144
68638W        W41063   6.287  38.065  14.023
68639W        W41064  15.320  39.487  10.543
68640W        W41065  18.690   8.235  11.547
68641W        W41066   0.960  39.953   0.856
68642W        W41067   6.808  10.695   2.405
68643W        W41068  15.172  11.134   3.284
68644W        W41069  44.889  30.512   2.193
68645W        W41070  22.088   3.910  11.381
68646W        W41071  12.633   1.861   3.292
68647W        W41072   8.169  25.652  10.608
68648W        W41073   8.202  23.176  12.883
68649W        W41074  34.559  13.600  12.565
68650W        W41075  20.035  13.668  11.388
68651W        W41076   7.266  18.228   0.465
68652W        W41077  24.999  10.204  11.097
68653W        W41078  44.405   7.273   4.263
68654W        W41079   5.431   3.228  11.098
68655W        W41080   4.864   3.848   3.383
68656W        W41081   9.800  36.079  14.811
68657W        W41082   8.382   1.419   0.845
68658W        W41083  29.624  33.995   0.936
68659W        W41084  17.681  17.663   0.788
68660W        W41085  37.395  26.542   0.254
68661W        W41086  27.062  28.467  11.461
68662W        W41087  29.125  23.049   2.699
68663W        W41088   1.275  33.937  11.865
68664W        W41089  21.217  16.813   3.179
68665W        W41090  15.718  42.458  10.539
68666W        W41091   2.430  29.597   2.302
68667W        W41092  15.096  40.802  11.061
68668W        W41093  37.396  43.964  10.602
68669W        W41094  22.669   4.813  14.358
68670W        W41095  23.113  25.653   4.746
68671W        W41096  32.965  14.715   4.202
68672W        W41097  25.506  36.939  10.409
68673W        W41098   8.375  11.726   0.731
68674W        W41099  38.980  13.258   4.764
68675W        W41100  36.052  28.027  13.470
68676W        W41101  25.014  27.992  12.931
68677W        W41102  21.236  16.283  14.023
68678W        W41103   6.771  27.530  11.496
68679W        W41104  34.039  32.618  11.937
68680W        W41105  20.248  25.185   0.889
68681W        W41106  41.330  17.584  13.437
68682W        W41107   2.291  11.335  13.828
68683W        W41108  28.119  20.642  14.945
68684W        W41109  23.495  30.967  10.435
68685W        W41110  38.025  31.487  13.524
68686W        W41111  26.503  42.935   0.479
68687W        W41112  20.553  10.317   5.121
68688W        W41113  26.642   0.849   0.945
68689W        W41114  28.584  30.000   4.244
68690W        W41115  44.322  12.845   2.315
68691W        W41116  21.757   0.355  11.440
68692W        W41117  29.174  23.171  14.882
68693W        W41118  38.434  32.598   4.801
68694W        W41119  11.163   9.186   3.816
68695W        W41120  40.851   3.723  12.930
68696W        W41121  41.406  34.593  12.390
68697W        W41122  11.163   6.411   3.285
68698W        W41123  26.522  28.448   2.199
68699W        W41124  22.138  44.875  14.000
68700W        W41125   9.831  39.370  13.516
68701W        W41126  39.538  33.059   3.178
68702W        W41127  27.496  42.455   4.132
68703W        W41128  28.641  26.107  11.375
68704W        W41129  16.174   6.357   3.276
68705W        W41130  40.846  12.356   2.417
68706W        W41131  19.704  16.143  11.393
68707W        W41132  17.588   4.828   1.313
68708W        W41133  44.479   8.269   2.196
68709W        W41134   9.167  24.625  12.356
68710W        W41135  42.894  30.519   0.313
68711W        W41136   4.886  37.557  13.914
68712W        W41137  26.463   4.434   2.823
68713W        W41138  16.102  34.908  12.446
68714W        W41139  43.013  36.885   3.671
68715W        W41140   7.357  40.382  11.892
68716W        W41141  43.873  30.063  14.901
68717W        W41142   8.283  25.552   2.855
68718W        W41143  17.745  28.522  14.015
68719W        W41144  31.927  27.454  14.991
68720W        W41145  44.957  16.097  11.027
68721W        W41146  24.154  15.666  14.791
68722W        W41147  40.991  33.431   4.310
68723W        W41148  25.097  15.608   2.337
68724W        W41149  28.118  35.096  14.475
68725W        W41150   4.409   3.231  13.847
68726W        W41151  21.681  42.472  12.369
68727W        W41152  28.502  18.686   1.828
68728W        W41153   0.300  17.194  11.028
68729W        W41154  15.642  42.843   3.687
68730W        W41155  22.528   7.868   3.700
68731W        W41156  25.477   0.315   9.931
68732W        W41157   5.359  38.031  10.535
68733W        W41158  35.477  20.581  14.927
68734W        W41159  17.729  43.845   3.679
68735W        W41160  41.508  19.654   4.153
68736W        W41161   7.204  44.350  13.025
68737W        W41162  24.200  27.684   1.281
68738W        W41163  21.253   7.408  12.446
68739W        W41164   8.248  14.183  12.500
68740W        W41165  19.701   9.806  14.375
68741W        W41166  20.571  38.386  14.486
68742W        W41167   6.284  17.200   3.697
68743W        W41168  15.722  27.044   2.241
68744W        W41169  14.312   9.685  12.978
68745W        W41170  35.426  20.538  12.567
68746W        W41171  12.242  17.072   4.323
68747W        W41172  12.206  29.606   0.314
68748W        W41173   1.313  43.887   0.953
68749W        W41174   3.860  43.796  11.451
68750W        W41175  30.601   8.270   4.823
68751W        W41176  28.159   1.339  13.063
68752W        W41177  23.577  33.082   1.298
68753W        W41178  16.287   9.376  12.870
68754W        W41179  29.919  34.067  10.608
68755W        W41180  25.140  39.824   3.663
68756W        W41181  17.596  38.553  12.949
68757W        W41182  15.736  38.562   2.277
68758W        W41183  35.437  40.317   1.805
68759W        W41184   3.763  31.913  13.462
68760W        W41185  35.862  26.973  12.075
68761W        W41186  24.159  16.646   4.208
68762W        W41187  14.705   1.479  13.545
68763W        W41188  20.677  25.605   4.715
68764W        W41189  34.992  39.845   3.868
68765W        W41190  42.527  22.560  11.452
68766W        W41191  40.376  23.014  13.934
68767W        W41192  16.312  15.224  12.500
68768W        W41193  36.426   1.326  13.370
68769W        W41194  38.458  30.602  13.972
68770W        W41195  11.847   7.272  11.426
68771W        W41196  28.965  31.914  11.918
68772W        W41197  33.025  13.105  13.903
68773W        W41198  10.212   2.746  12.490
68774W        W41199   2.255  43.896   0.963
68775W        W41200  32.439  36.409   3.185
68776W        W41201  38.462   8.271  13.492
68777W        W41202  18.227  38.889  11.443
68778W        W41203   5.258  12.354  10.525
68779W        W41204  39.885   3.222   2.753
68780W        W41205  24.174   7.249   5.152
68781W        W41206  30.491   1.449   2.765
68782W        W41207  14.651   5.264   2.810
68783W        W41208  35.983  42.412   0.955
68784W        W41209  14.828  43.441  10.985
68785W        W41210  26.464  39.342  14.946
68786W        W41211  40.003   1.971   3.797
68787W        W41212   4.311  26.087   0.251
68788W        W41213  23.646  42.283   0.481
68789W        W41214   3.864  14.290   0.792
68790W        W41215  42.348  37.932  13.845
68791W        W41216   5.210  33.626  14.408
68792W        W41217   4.881   7.291   3.283
68793W        W41218  17.293  32.562   5.094
68794W        W41219  28.091  18.146   2.890
68795W        W41220   0.419  21.139   3.769
68796W        W41221  11.711  25.137  14.956
68797W        W41222  35.429  18.111  11.444
68798W        W41223  20.054  40.828   3.782
68799W        W41224  15.196   2.266  12.067
68800W        W41225  44.788  23.526   2.867
68801W        W41226   4.285  43.383   4.251
68802W        W41227  15.203   6.235   1.343
68803W        W41228  44.792  32.431  12.008
68804W        W41229  31.076   1.971   0.889
68805W        W41230  12.180   9.334  13.387
68806W        W41231   3.829  16.578  13.334
68807W        W41232   8.843   0.265   0.285
68808W        W41233   6.883  30.917   4.786
68809W        W41234  42.993  41.814  12.044
68810W        W41235   3.287  13.831   2.243
68811W        W41236  29.646  18.272  14.989
68812W        W41237  30.133  31.112   1.836
68813W        W41238  25.551   0.808   4.682
68814W        W41239  28.660   5.284   0.346
68815W        W41240  43.286  33.462   1.884
68816W        W41241  39.327  20.074   0.734
68817W        W41242   8.311  19.780   2.410
68818W        W41243  29.462  39.030   0.951
68819W        W41244  31.064  15.602  10.149
68820W        W41245  36.422  20.244   0.961
68821W        W41246   2.313  43.963  14.436
68822W        W41247  13.154  39.981  10.561
68823W        W41248  15.586  42.324  11.521
68824W        W41249  35.494  11.696  12.412
68825W        W41250  42.848  20.563   0.781
68826W        W41251   3.377  32.020   0.800
68827W        W41252   6.825   0.294   3.195
68828W        W41253  14.764  24.115   2.255
68829W        W41254  30.653  28.014   2.358
68830W        W41255   6.733   4.814  14.377
68831W        W41256  20.110  16.607  12.452
68832W        W41257   9.242   2.729   1.364
68833W        W41258  42.419  28.513   2.771
68834W        W41259  24.216  10.806   3.793
68835W        W41260   3.397  19.272  10.940
68836W        W41261   2.330  26.974  11.435
68837W        W41262   4.302  34.037   0.307
68838W        W41263  39.834  16.123   3.286
68839W        W41264   5.265  27.596   1.338
68840W        W41265  41.442  19.177   3.161
68841W        W41266  40.450  18.106  11.521
68842W        W41267  21.231   4.819   2.828
68843W        W41268  18.147   9.207   1.364
68844W        W41269  33.592  44.872  12.904
68845W        W41270  20.553  14.330  14.431
68846W        W41271  14.330  35.870  10.526
68847W        W41272  23.611  42.020  13.027
68848W        W41273  16.128  10.664   3.847
68849W        W41274  44.429  31.918  14.469
68850W        W41275   8.400  31.425  11.002
68851W        W41276  27.119  28.964  10.891
68852W        W41277  31.545   3.709  11.976
68853W        W41278  26.997  33.050   1.694
68854W        W41279  17.256  23.709   0.259
68855W        W41280  39.878  18.684   0.482
68856W        W41281  10.290  16.592  13.045
68857W        W41282  27.099  26.064   4.819
68858W        W41283  38.509  38.937   3.668
68859W        W41284  38.533  15.258  13.997
68860W        W41285  31.100  23.077   0.291
68861W        W41286  34.469  13.777  13.512
68862W        W41287  24.630  35.445   2.684
68863W        W41288  27.150   5.892  14.381
68864W        W41289  39.906   0.790  14.010
68865W        W41290  44.897  23.512  11.582
68866W        W41291  42.837  17.167   3.805
68867W        W41292  23.020   8.297  12.964
68868W        W41293  12.629  41.032  14.922
68869W        W41294   2.404   0.882  11.916
68870W        W41295  43.506  37.074  14.014
68871W        W41296  29.585  39.042   3.653
68872W        W41297  20.177   2.833   2.709
68873W        W41298  37.423  31.967  11.611
68874W        W41299  26.988  24.005   0.295
68875W        W41300   8.396   6.784  14.434
68876W        W41301  12.676   2.784  13.465
68877W        W41302  40.017  36.403   2.411
68878W        W41303   0.968  30.413   5.162
68879W        W41304  20.232  37.427  14.472
68880W        W41305   7.231  25.618  10.433
68881W        W41306   6.768  37.076   2.801
68882W        W41307  13.208  14.181   3.866
68883W        W41308  29.559  20.103   0.920
68884W        W41309  21.246  22.555  14.896
68885W        W41310   3.409  13.624   4.741
68886W        W41311   0.919  34.422  14.358
68887W        W41312  10.195  43.823   4.782
68888W        W41313   0.979  36.097   1.772
68889W        W41314   3.381  39.895   3.305
68890W        W41315  32.444  40.010   3.701
68891W        W41316  42.399   6.736   0.792
68892W        W41317  10.648  27.960  11.025
68893W        W41318   8.894  23.024  12.451
68894W        W41319  43.000  26.055   0.412
68895W        W41320  17.124  33.604   1.432
68896W        W41321  43.338  32.889  12.513
68897W        W41322  30.983  26.058  10.513
68898W        W41323  26.592  23.598   3.264
68899W        W41324  36.968   9.364   1.859
68900W        W41325  10.328  32.505  11.458
68901W        W41326   3.366  12.847   3.154
68902W        W41327  28.949  20.560   4.199
68903W        W41328   3.738  38.958   3.861
68904W        W41329  21.044  21.552   1.767
68905W        W41330   5.713  39.033   3.362
68906W        W41331  31.905  19.565   4.235
68907W        W41332   8.775  16.720  11.118
68908W        W41333   1.935  13.299   4.766
68909W        W41334  34.555  39.349   4.269
68910W        W41335  38.434  24.156   3.687
68911W        W41336  44.778  41.312  14.834
68912W        W41337  15.213  34.602   3.231
68913W        W41338  29.974  22.064  12.395
68914W        W41339  17.281  27.108   2.390
68915W        W41340  28.947   6.766  12.406
68916W        W41341   9.787  28.015  14.374
68917W        W41342   6.746  36.071  14.016
68918W        W41343   8.741  34.041  13.872
68919W        W41344  11.622   7.672  12.564
68920W        W41345   1.737  40.919   4.817
68921W        W41346  16.739   6.420   4.345
68922W        W41347  25.710   9.341  14.356
68923W        W41348  24.148   3.878  12.869
68924W        W41349   2.419  23.053  14.434
68925W        W41350  14.591  38.379  12.906
68926W        W41351  12.315  24.992   0.824
68927W        W41352  18.786  26.186  12.044
68928W        W41353   3.897  10.153   1.832
68929W        W41354   6.868  11.346  13.048
68930W        W41355  33.447   3.840  14.413
68931W        W41356  34.590  38.914  11.470
68932W        W41357  30.954  28.080   3.735
68933W        W41358   0.444   7.724   1.896
68934W        W41359  37.354  35.863   4.710
68935W        W41360   5.747  23.057   2.754
68936W        W41361  27.097   0.282  13.062
68937W        W41362   3.796  23.047   1.330
68938W        W41363  18.762  27.662  13.389
68939W        W41364   6.715  25.142   4.718
68940W        W41365  22.015  39.372  11.577
68941W        W41366  39.912  10.157  10.614
68942W        W41367  33.991  18.077  10.470
68943W        W41368  27.176  20.135  10.493
68944W        W41369  44.451  42.476   1.892
68945W        W41370  31.905   6.743   3.244
68946W        W41371  38.424  19.127   4.168
68947W        W41372   3.229   0.948   4.193
68948W        W41373  31.004   1.389  11.554
68949W        W41374  20.550  31.611   5.594
68950W        W41375  26.658  12.751  12.059
68951W        W41376  40.033  29.657  10.898
68952W        W41377   6.221  27.997   3.318
68953W        W41378  25.171  20.102   4.326
68954W        W41379  37.364   8.762   2.803
68955W        W41380  38.413  34.586  12.499
68956W        W41381  20.675  41.043  13.853
68957W        W41382  11.733  19.714   2.232
68958W        W41383   9.781   2.757   1.714
68959W        W41384  26.096  29.536   0.838
68960W        W41385  19.203  14.705   1.745
68961W        W41386  29.172  11.239   3.351
68962W        W41387  29.164  44.913   0.735
68963W        W41388   1.299  32.991   3.775
68964W        W41389  43.885  43.992   3.223
68965W        W41390  43.339   6.712  11.129
68966W        W41391  10.777   0.808  13.987
68967W        W41392  18.769   4.832   3.265
68968W        W41393   8.370  17.163  12.350
68969W        W41394  24.611  17.652   4.346
68970W        W41395   2.932  12.192   4.167
68971W        W41396  10.346  15.258   3.817
68972W        W41397  32.448  17.712   3.205
68973W        W41398  41.523   7.347  11.968
68974W        W41399  35.504  40.857   1.863
68975W        W41400  40.470   7.321   4.660
68976W        W41401  39.408  11.654  12.374
68977W        W41402  19.164  19.193  12.906
68978W        W41403  34.079  44.805  14.777
68979W        W41404  33.502   6.347   2.259
68980W        W41405  34.102  31.978  12.943
68981W        W41406  27.508  19.618   2.257
68982W        W41407  13.147  44.391  12.345
68983W        W41408  11.837  34.899  12.412
68984W        W41409  25.629   3.842  14.437
68985W        W41410  17.111   4.703  10.066
68986W        W41411  31.427   5.899  11.002
68987W        W41412  20.767  24.974  11.507
68988W        W41413  14.656  34.117  10.563
68989W        W41414   9.661  42.934   1.279
68990W        W41415  13.659  43.302  12.857
68991W        W41416  36.073  26.999   1.303
68992W        W41417  15.236  35.377  13.048
68993W        W41418   6.427   4.376   1.431
68994W        W41419  31.904   3.728  12.036
68995W        W41420  27.036  16.127  14.988
68996W        W41421  32.583  19.579  12.488
68997W        W41422  39.318  25.608   3.161
68998W        W41423  32.142   9.149  13.998
68999W        W41424   3.729  14.831   4.304
69000W        W41425  20.160  14.163  10.964
69001W        W41426  38.823  27.612  13.419
69002W        W41427  23.632  17.791  10.439
69003W        W41428  40.415  40.980  13.801
69004W        W41429  24.980  34.540   0.363
69005W        W41430   8.841  35.015  12.067
69006W        W41431  39.959  14.334  12.437
69007W        W41432   0.445   0.978  10.986
69008W        W41433  20.215  38.453  11.501
69009W        W41434  42.981   8.658   2.813
69010W        W41435  39.988  20.693   1.759
69011W        W41436   4.208  36.372  12.373
69012W        W41437  37.376  15.667   0.926
69013W        W41438  25.610   9.819  10.420
69014W        W41439  15.180  30.996   0.777
69015W        W41440  31.976   0.771  13.965
69016W        W41441   3.955   8.171   0.916
69017W        W41442   2.867  25.533   3.239
69018W        W41443  12.251  24.584   5.777
69019W        W41444  37.362  30.554   4.716
69020W        W41445  38.482   0.911   4.119
69021W        W41446  11.743  34.402  11.049
69022W        W41447  20.143  43.495   3.766
69023W        W41448  33.440   6.845  14.334
69024W        W41449  21.209  20.229  11.381
69025W        W41450  21.046  28.033   1.282
69026W        W41451  28.940  19.277  14.785
69027W        W41452  22.083  30.646  11.600
69028W        W41453  11.261  34.389   3.208
69029W        W41454   3.393  11.286  12.031
69030W        W41455  17.673  17.595   4.704
69031W        W41456  21.100  13.309  14.390
69032W        W41457   2.863   1.824   1.845
69033W        W41458  20.547  34.587   1.737
69034W        W41459  34.424  10.727  11.462
69035W        W41460   0.762   5.714  11.414
69036W        W41461  20.092  33.527   4.767
69037W        W41462  12.281  42.001   2.783
69038W        W41463  11.771  41.945  11.544
69039W        W41464  33.894  11.355  10.891
69040W        W41465   2.785   9.663  13.499
69041W        W41466  32.897  36.021   3.822
69042W        W41467   4.440  29.059   2.774
69043W        W41468   4.922  20.034  14.478
69044W        W41469  37.049   5.776  13.402
69045W        W41470  13.121   0.444  12.862
69046W        W41471  30.068  42.018   1.339
69047W        W41472   4.228  43.983  13.415
69048W        W41473  12.716  14.765  12.059
69049W        W41474  35.949  30.556   3.255
69050W        W41475  27.955  44.468   4.296
69051W        W41476  21.042  20.765   0.886
69052W        W41477  33.877  26.527  10.966
69053W        W41478  11.373  24.608  13.008
69054W        W41479  37.024   8.673  11.556
69055W        W41480  37.550  36.557  10.922
69056W        W41481  20.216  21.596  10.979
69057W        W41482  21.557   5.209  12.989
69058W        W41483   3.350   1.451   4.724
69059W        W41484  28.627  22.139  10.907
69060W        W41485   8.265  33.540   0.919
69061W        W41486  28.564  19.540  12.073
69062W        W41487  29.476  30.079  10.570
69063W        W41488  31.966  27.194   1.445
69064W        W41489  20.184  41.490  10.625
69065W        W41490   5.413  32.886  14.008
69066W        W41491  37.351  40.430   2.897
69067W        W41492  16.167  23.033   4.194
69068W        W41493  34.107  44.979   3.158
69069W        W41494  33.960  38.994   4.661
69070W        W41495  21.135  28.639   0.825
69071W        W41496  21.575  12.614  12.886
69072W        W41497  14.721  40.462   2.195
69073W        W41498  22.996  23.088   1.757
69074W        W41499  40.481  37.852  12.354
69075W        W41500  13.269  12.656   4.237
69076W        W41501  13.311  27.488   0.911
69077W        W41502  25.563  22.122  14.780
69078W        W41503  34.531  21.518   1.710
69079W        W41504  32.037   7.238   4.778
69080W        W41505  22.063  14.820  14.953
69081W        W41506  34.890  24.093  11.924
69082W        W41507  21.198  37.493  11.542
69083W        W41508   1.424  24.102  12.837
69084W        W41509  24.107  10.181  14.899
69085W        W41510  20.227  44.009   1.839
69086W        W41511  41.406  43.396   5.647
69087W        W41512  14.262  44.268  14.285
69088W        W41513  23.198   6.847   2.216
69089W        W41514   3.857  23.596  14.335
69090W        W41515   4.410  20.120  13.815
69091W        W41516   1.396  26.593  13.329
69092W        W41517  43.854   3.380  13.905
69093W        W41518  23.508   4.403   1.408
69094W        W41519   2.380   0.398  14.004
69095W        W41520  19.573  30.948   2.785
69096W        W41521   9.691  26.112  11.515
69097W        W41522  16.167  25.512  12.953
69098W        W41523   5.332  36.870  11.393
69099W        W41524  27.485  32.470  13.461
69100W        W41525  21.529  14.623   2.326
69101W        W41526  21.086  42.994   3.804
69102W        W41527  17.594   1.739   0.468
69103W        W41528  32.414  18.255   4.174
69104W        W41529   3.316  15.720   9.985
69105W        W41530  31.906  27.110  14.352
69106W        W41531  19.106  20.169   2.675
69107W        W41532  11.785  25.489   3.784
69108W        W41533   4.209  40.376  12.389
69109W        W41534  31.606  32.997   0.780
69110W        W41535  19.722   0.273  12.051
69111W        W41536  23.006  37.488  11.077
69112W        W41537  33.083  38.387   2.874
69113W        W41538  29.974  21.246  14.838
69114W        W41539  39.428  10.342  13.931
69115W        W41540   6.259   9.188  13.979
69116W        W41541   1.475  42.334   0.348
69117W        W41542  26.208  20.725  14.840
69118W        W41543  32.623  39.335  14.507
69119W        W41544   6.825  44.942  14.275
69120W        W41545  15.604   2.768  14.453
69121W        W41546  39.506   1.294  10.464
69122W        W41547   9.202  36.078  14.018
69123W        W41548  33.065  27.063   2.841
69124W        W41549   8.173  44.827   2.708
69125W        W41550   3.425  26.658   4.680
69126W        W41551  12.175  23.217   3.240
69127W        W41552  31.576  17.129   1.235
69128W        W41553  43.415  37.460  10.101
69129W        W41554  26.520   4.420   0.410
69130W        W41555  32.478  27.664  12.956
69131W        W41556  34.866  12.756  11.112
69132W        W41557   8.265  44.391  10.949
69133W        W41558  39.931  16.770   2.202
69134W        W41559  19.283  26.558   4.226
69135W        W41560  24.504  24.719  10.990
69136W        W41561   5.860  17.254   3.383
69137W        W41562  42.960   3.304   2.779
69138W        W41563  27.475  37.984   0.332
69139W        W41564  25.983  43.357  12.918
69140W        W41565  31.911  24.555   2.737
69141W        W41566   5.410  15.736  13.498
69142W        W41567  37.361  33.557   0.959
69143W        W41568  27.007   9.187   2.773
69144W        W41569  12.822   0.490  11.591
69145W        W41570  36.986  17.178  14.452
69146W        W41571   2.742  31.993  11.530
69147W        W41572  28.581  25.699   3.379
69148W        W41573   0.797  28.465  11.522
69149W        W41574  25.570  23.006   3.211
69150W        W41575  15.680   0.344  14.469
69151W        W41576  27.155   8.390  13.835
69152W        W41577  27.990  13.153   0.947
69153W        W41578  38.038  11.301  12.526
69154W        W41579  30.106   5.236   1.858
69155W        W41580  36.372  24.551  13.511
69156W        W41581  19.723  31.940   5.300
69157W        W41582  18.226  23.985   3.834
69158W        W41583  16.164  12.647   0.384
69159W        W41584  29.106   0.936  12.444
69160W        W41585  30.446  11.781   1.294
69161W        W41586  40.007  22.649   4.791
69162W        W41587  44.433   4.708   0.416
69163W        W41588  38.475  14.145  11.070
69164W        W41589  23.504  13.149  14.993
69165W        W41590   1.793   2.906  10.913
69166W        W41591  19.221  28.179   4.793
69167W        W41592  21.634  33.060   3.215
69168W        W41593  22.504  26.067  12.557
69169W        W41594  33.531  13.257   2.384
69170W        W41595  20.228  10.196  14.917
69171W        W41596  12.790  16.088   2.815
69172W        W41597  33.080  40.928   3.693
69173W        W41598  35.549  44.496  14.343
69174W        W41599   9.781  32.429   3.643
69175W        W41600  40.953  10.263  12.414
69176W        W41601  14.099  19.179   4.653
69177W        W41602  28.528  26.569  13.323
69178W        W41603  24.090   6.182   2.340
69179W        W41604  15.639  37.467   9.979
69180W        W41605   6.818   5.874   1.271
69181W        W41606   8.298  15.207  13.523
69182W        W41607  25.607  27.072   4.743
69183W        W41608   3.238  10.290   4.342
69184W        W41609  21.126   8.173  14.876
69185W        W41610  10.178  33.924   1.825
69186W        W41611  26.029  37.343   0.942
69187W        W41612  36.483  41.356   4.730
69188W        W41613   3.833  24.639   2.758
69189W        W41614  25.582  42.979   3.707
69190W        W41615   5.809   3.777  12.339
69191W        W41616  10.858  17.215   2.202
69192W        W41617  39.006   3.735   9.985
69193W        W41618  36.556  22.190   4.728
69194W        W41619  37.406  10.847  11.568
69195W        W41620   6.877  10.829  14.342
69196W        W41621  38.414  19.090   0.820
69197W        W41622   4.843  35.954   1.403
69198W        W41623  30.443  18.552   1.924
69199W        W41624   5.767  39.054   3.686
69200W        W41625  38.819   2.349  14.983
69201W        W41626  32.997   7.769   1.403
69202W        W41627   7.748  32.402  12.848
69203W        W41628  13.106  42.291  10.973
69204W        W41629   7.391   6.814  14.805
69205W        W41630  25.087  29.044   0.730
69206W        W41631   9.187  11.670   3.256
69207W        W41632  35.079  17.669   4.835
69208W        W41633  20.054  34.385   2.816
69209W        W41634   3.898   7.326  13.816
69210W        W41635  20.094  28.125   3.686
69211W        W41636  15.180   2.379  11.094
69212W        W41637  42.886  40.935   1.265
69213W        W41638  27.478  25.611  12.363
69214W        W41639  25.695  10.231   3.727
69215W        W41640   7.819  22.141   1.379
69216W        W41641  18.580  40.897   2.198
69217W        W41642  23.658   7.340  10.433
69218W        W41643   9.184  35.022  10.103
69219W        W41644  16.802  36.975  14.854
69220W        W41645  31.632   0.471   2.414
69221W        W41646   7.352  37.539   1.703
69222W        W41647  16.591  14.275   4.251
69223W        W41648  10.786  28.595   0.406
69224W        W41649  35.419  35.543  12.430
69225W        W41650  42.925   7.666  11.499
69226W        W41651  36.415  10.648   3.235
69227W        W41652   2.301   0.399  10.434
69228W        W41653   4.387  30.432  14.400
69229W        W41654  11.343   6.276  12.050
69230W        W41655   1.867  23.623   0.299
69231W        W41656   0.980  13.198  14.275
69232W        W41657  23.035  18.073  12.832
69233W        W41658  26.691  33.918   1.357
69234W        W41659  18.736  35.475  14.789
69235W        W41660   6.742  26.205   0.884
69236W        W41661   6.793  40.422  12.855
69237W        W41662  38.938   4.352  14.409
69238W        W41663  23.723  28.142   3.235
69239W        W41664  13.630  28.107   4.263
69240W        W41665   4.429  43.016  11.524
69241W        W41666  34.591  41.505   2.342
69242W        W41667  33.409   9.748  14.953
69243W        W41668  35.095  41.529   0.825
69244W        W41669  22.186  13.814  13.381
69245W        W41670  27.166  31.041   5.085
69246W        W41671  35.360   3.313   4.731
69247W        W41672  44.978  24.615  11.004
69248W        W41673  32.005  20.674  12.026
69249W        W41674   6.822  34.606   2.805
69250W        W41675  24.975  32.457   0.730
69251W        W41676  28.438   5.327  11.420
69252W        W41677  10.233   4.728   2.183
69253W        W41678  21.713  40.864  11.610
69254W        W41679  13.262  29.946   3.266
69255W        W41680  13.754   6.371   2.253
69256W        W41681  36.093  22.623  11.540
69257W        W41682   7.691   7.697  13.546
69258W        W41683  18.612  38.850   2.252
69259W        W41684  11.245  22.244  12.421
69260W        W41685  32.585  15.814  10.077
69261W        W41686   1.397  21.167  14.884
69262W        W41687   5.808   8.324   1.865
69263W        W41688   6.916  18.577   4.278
69264W        W41689   7.309  38.438  11.923
69265W        W41690   0.308  12.266  12.909
69266W        W41691  21.186  15.204   3.351
69267W        W41692  30.023  37.942   0.336
69268W        W41693  37.449  12.831   2.305
69269W        W41694  41.467   2.779   2.338
69270W        W41695  18.224   2.464  14.459
69271W        W41696   8.861  34.380  10.451
69272W        W41697   9.357   8.310   2.409
69273W        W41698  44.491   8.260  14.794
69274W        W41699   2.881  11.711  10.976
69275W        W41700  42.930  41.935  12.832
69276W        W41701   6.845  12.118   2.823
69277W        W41702  14.739  32.449  10.442
69278W        W41703  21.101  33.011  13.479
69279W        W41704   1.893  34.422  13.489
69280W        W41705  21.560  14.123  11.408
69281W        W41706  19.279   6.898   1.228
69282W        W41707  44.325   9.168  10.923
69283W        W41708  17.281  12.130   3.757
69284W        W41709  31.459   4.378   1.796
69285W        W41710  37.019  15.230  14.924
69286W        W41711  23.180  10.268   0.901
69287W        W41712   7.299  43.328   4.657
69288W        W41713  21.253   0.308   3.802
69289W        W41714   8.889  41.947   3.736
69290W        W41715  11.735  14.304   2.721
69291W        W41716  36.364  17.642  12.522
69292W        W41717   4.318  20.141   0.480
69293W        W41718  16.766   5.739   2.306
69294W        W41719   4.391  39.863   0.273
69295W        W41720  13.204  22.249   3.767
69296W        W41721  36.350  19.219  11.590
69297W        W41722  24.643  35.431  12.520
69298W        W41723  13.218  33.926  13.397
69299W        W41724  35.444   4.873  10.066
69300W        W41725  25.693   1.277   4.676
69301W        W41726  11.333  14.330  11.420
69302W        W41727  32.095  30.970  11.020
69303W        W41728  33.110   1.828   0.462
69304W        W41729  13.239  44.345  14.788
69305W        W41730  20.048   4.207  11.016
69306W        W41731  32.142  12.656   1.874
69307W        W41732  23.986  39.007   1.870
69308W        W41733   4.387  27.975   3.259
69309W        W41734  44.839  29.118   4.172
69310W        W41735   2.413  24.526   4.228
69311W        W41736  28.479  11.242  10.557
69312W        W41737   2.853  20.544  11.561
69313W        W41738   0.753  26.052   0.868
69314W        W41739   8.751   9.884   3.258
69315W        W41740  27.942  10.813   2.383
69316W        W41741  41.006  22.226   3.158
69317W        W41742  44.258  21.237  12.874
69318W        W41743  44.421  27.992  14.501
69319W        W41744  22.633   2.272  14.443
69320W        W41745  18.131  25.986  14.807
69321W        W41746  10.762  14.281  12.018
69322W        W41747  33.596  29.564   1.297
69323W        W41748  35.500  31.639  13.368
69324W        W41749  24.649   9.357   1.762
69325W        W41750  44.447  38.010   0.727
69326W        W41751  37.057  33.583   2.398
69327W        W41752  39.374  23.565   0.803
69328W        W41753  31.939  22.058   1.766
69329W        W41754  44.947  27.671  11.870
69330W        W41755  43.421  22.632   4.640
69331W        W41756   1.802  29.115  14.348
69332W        W41757   2.753  13.315  11.008
69333W        W41758  22.698  37.068   2.327
69334W        W41759   1.813  24.717   2.274
69335W        W41760  22.173  15.579  10.551
69336W        W41761  21.134  24.689   4.789
69337W        W41762  33.526  28.099  13.479
69338W        W41763  15.665   8.781  13.489
69339W        W41764  37.557  40.840   2.677
69340W        W41765  38.473  15.232  14.282
69341W        W41766   4.268  41.352   0.311
69342W        W41767   6.736  19.752   3.685
69343W        W41768   1.963  29.174  11.451
69344W        W41769  29.123   5.399  12.993
69345W        W41770  40.445  10.861  12.541
69346W        W41771   7.839  14.326   4.232
69347W        W41772  26.963  32.448  13.841
69348W        W41773  23.191   0.839   3.349
69349W        W41774  18.152  28.609  14.403
69350W        W41775   4.214  26.117   2.733
69351W        W41776  32.012   2.441   2.248
69352W        W41777  27.124  28.044  13.530
69353W        W41778  19.143  36.071  11.529
69354W        W41779  39.968  30.981  13.319
69355W        W41780  42.469  31.517  14.893
69356W        W41781  42.977  22.180   2.764
69357W        W41782  30.924  23.589   2.382
69358W        W41783  34.887  40.435  12.861
69359W        W41784  18.666  15.650  10.919
69360W        W41785   5.813  24.980  11.561
69361W        W41786  30.053  39.972  10.625
69362W        W41787  16.759  44.304  10.997
69363W        W41788  11.226  17.595  13.948
69364W        W41789  30.584  30.111  14.324
69365W        W41790  24.707  11.201  10.582
69366W        W41791  40.820   1.856   3.675
69367W        W41792  41.499  33.543   1.379
69368W        W41793   9.811  29.102   4.761
69369W        W41794  19.651  40.873   4.335
69370W        W41795   7.722  19.141  13.349
69371W        W41796  17.137  24.511   4.684
69372W        W41797  37.881  11.254  14.979
69373W        W41798  13.624  41.888   3.667
69374W        W41799  42.487  31.498   3.698
69375W        W41800  28.639  40.363   1.895
69376W        W41801  16.700  31.405   9.594
69377W        W41802  22.654  29.143  12.566
69378W        W41803  16.800  31.508  10.564
69379W        W41804  34.041  30.606   0.789
69380W        W41805  44.984   4.425   4.604
69381W        W41806  27.662  40.312   4.322
69382W        W41807  11.717  23.229  13.917
69383W        W41808   5.842  20.254   1.820
69384W        W41809  31.631  41.512   0.751
69385W        W41810   6.847  43.892  14.029
69386W        W41811  25.963  38.360  11.581
69387W        W41812  36.484  40.841   2.261
69388W        W41813  25.532  17.703   0.248
69389W        W41814   7.850  41.495   5.285
69390W        W41815  13.334  25.216   4.697
69391W        W41816  26.070  41.003   2.279
69392W        W41817  13.655   9.734  12.434
69393W        W41818   5.418  10.184   9.928
69394W        W41819   4.314  19.775   3.368
69395W        W41820  42.483  44.764  14.421
69396W        W41821  43.467  30.963   1.256
69397W        W41822  21.575  33.063   3.792
69398W        W41823   1.732  30.422   1.848
69399W        W41824  33.933  12.150  10.513
69400W        W41825  35.099  38.042   1.922
69401W        W41826  18.192  15.310   3.340
69402W        W41827  22.645   0.951   0.254
69403W        W41828   7.702  35.600   3.317
69404W        W41829  27.571  16.603   4.614
69405W        W41830  42.821  25.705  12.492
69406W        W41831   4.405  26.002  10.528
69407W        W41832  26.642  27.605   2.237
69408W        W41833  36.059  25.176  13.899
69409W        W41834  17.189  13.803   3.231
69410W        W41835  32.131  30.501  12.023
69411W        W41836  44.385  18.175  11.476
69412W        W41837  11.649   2.934   1.270
69413W        W41838  21.678   2.881   3.820
69414W        W41839  10.650  24.178  14.439
69415W        W41840  34.997   5.748  10.409
69416W        W41841  19.174  36.363  13.064
69417W        W41842  15.096   7.721   4.726
69418W        W41843  22.050  39.489   2.751
69419W        W41844  19.570  42.360   4.335
69420W        W41845  36.492  37.538   4.706
69421W        W41846   7.811  19.634  10.088
69422W        W41847  38.374  39.030   0.294
69423W        W41848   5.439  14.803   4.763
69424W        W41849  32.942  19.173  10.629
69425W        W41850  37.830  31.464  14.978
69426W        W41851   3.383   9.269  11.892
69427W        W41852  32.399   4.361  11.071
69428W        W41853  20.686   2.903   0.932
69429W        W41854  14.290  22.616  14.327
69430W        W41855  16.256   0.393   3.184
69431W        W41856  23.014  24.511  11.083
69432W        W41857  24.030  12.245  13.839
69433W        W41858  19.584  24.189  12.381
69434W        W41859  12.144  14.184  14.973
69435W        W41860  11.702  39.025  13.024
69436W        W41861   1.792   5.712   3.283
69437W        W41862  42.024  41.806   0.292
69438W        W41863  40.956  22.173   3.775
69439W        W41864  11.157  19.682   2.205
69440W        W41865  30.136  10.209  11.470
69441W        W41866  22.705  28.965   4.695
69442W        W41867   8.294  38.870  13.379
69443W        W41868  26.642  27.639  12.898
69444W        W41869  32.405  25.707   0.458
69445W        W41870  34.436  34.527   2.335
69446W        W41871  27.482  11.177  11.916
69447W        W41872   9.819  40.890   3.706
69448W        W41873  11.788  16.707  10.972
69449W        W41874   0.916  14.201  13.337
69450W        W41875  22.584  25.173   3.775
69451W        W41876   1.887  43.008   1.696
69452W        W41877  36.845  21.089  14.511
69453W        W41878  21.710   1.755   4.822
69454W        W41879   0.867  19.694   0.246
69455W        W41880  14.801   0.759   4.178
69456W        W41881  22.625   8.817   1.335
69457W        W41882  36.440  16.771  13.905
69458W        W41883  27.035  17.188  12.923
69459W        W41884  20.594  15.623  11.515
69460W        W41885  41.401  36.034   3.793
69461W        W41886   5.872   2.900  13.345
69462W        W41887  35.882  10.284  13.450
69463W        W41888  38.334   8.710  14.383
69464W        W41889   3.750  34.118  11.421
69465W        W41890   4.449   5.854  11.410
69466W        W41891  28.581  19.273  14.973
69467W        W41892   0.429  24.480   0.767
69468W        W41893  30.482  39.837   0.845
69469W        W41894   0.824  39.359  10.565
69470W        W41895   1.877  40.512   4.239
69471W        W41896  36.488  16.718  14.950
69472W        W41897  15.311  27.647  12.377
69473W        W41898   8.846  35.571   3.178
69474W        W41899   8.823  42.281   1.430
69475W        W41900  20.535  19.732   3.317
69476W        W41901  37.559   9.791  14.015
69477W        W41902  19.149  26.990   3.300
69478W        W41903  37.931   3.747   0.375
69479W        W41904  29.064  42.401  14.886
69480W        W41905  36.407   2.755  10.470
69481W        W41906  10.244  42.985  13.334
69482W        W41907  12.191   9.385   3.770
69483W        W41908  32.994  20.724   1.437
69484W        W41909  20.555  36.045  14.843
69485W        W41910   9.773  27.120  11.606
69486W        W41911  25.596  15.127   4.757
69487W        W41912  18.622  31.647   2.872
69488W        W41913  14.107   6.839  14.501
69489W        W41914  31.102  40.356   1.427
69490W        W41915   5.416  27.114  10.948
69491W        W41916   8.677  19.073  14.808
69492W        W41917   7.703  35.993   2.881
69493W        W41918  34.944  44.368  11.901
69494W        W41919  17.125  42.412  11.506
69495W        W41920  13.660   5.386  12.888
69496W        W41921  23.220  38.007  14.293
69497W        W41922   8.345  23.507  14.983
69498W        W41923   1.733  41.975   4.735
69499W        W41924   1.416  42.380  12.067
69500W        W41925  22.569  21.653  13.329
69501W        W41926  40.303  10.760  11.982
69502W        W41927  34.895  41.829  11.398
69503W        W41928   2.290   5.780  11.925
69504W        W41929  14.135  18.763  12.472
69505W        W41930  17.748  34.060  12.038
69506W        W41931  32.079  25.070  11.521
69507W        W41932  14.752   1.974   1.218
69508W        W41933   0.813  29.653  10.622
69509W        W41934  17.596  17.093  13.873
69510W        W41935  10.233  15.680   4.769
69511W        W41936  36.466  19.087  11.920
69512W        W41937  20.240   1.739   4.792
69513W        W41938  28.022  27.114   3.360
69514W        W41939  35.026   7.869   3.649
69515W        W41940  33.998   0.973   2.889
69516W        W41941  13.759  34.437  12.391
69517W        W41942  17.200  28.587   0.962
69518W        W41943  10.143  38.027   1.846
69519W        W41944  10.287  23.560   2.792
69520W        W41945  24.654  29.059   1.228
69521W        W41946  36.402   3.798   4.222
69522W        W41947  11.816   8.222  10.477
69523W        W41948   6.191   0.897   2.192
69524W        W41949  10.764   2.931  10.462
69525W        W41950  23.544  20.163   3.332
69526W        W41951  44.413  25.593   4.331
69527W        W41952  12.729  15.708   3.337
69528W        W41953  19.061   4.357   2.725
69529W        W41954   2.287  39.342  11.993
69530W        W41955  33.549   7.701   3.203
69531W        W41956  14.167  40.549  14.798
69532W        W41957  24.988  25.598  14.768
69533W        W41958  25.669  33.527   4.695
69534W        W41959  15.733   4.431  14.029
69535W        W41960   0.745  28.129  10.434
69536W        W41961  40.544   7.882  12.398
69537W        W41962  22.220  12.344   1.310
69538W        W41963   9.155  18.683  12.904
69539W        W41964  28.960  27.581  13.362
69540W        W41965  25.550  19.543   0.882
69541W        W41966  33.014   4.352   1.860
69542W        W41967   8.720  12.703  10.997
69543W        W41968   0.425  27.614  14.903
69544W        W41969   7.272  43.441  11.008
69545W        W41970  24.644  41.486  13.315
69546W        W41971  23.118  18.789   0.420
69547W        W41972   3.887  26.123   4.776
69548W        W41973  33.460  18.767  10.140
69549W        W41974   2.728  15.723  13.830
69550W        W41975   3.937  11.862   2.755
69551W        W41976  32.992  16.316   4.202
69552W        W41977  24.002  23.207   0.876
69553W        W41978  39.547  32.927   2.822
69554W        W41979  20.549  29.616  14.006
69555W        W41980  24.005  11.282  10.636
69556W        W41981  41.423  31.511  13.477
69557W        W41982   4.732  16.097  11.601
69558W        W41983  25.988  44.346  13.855
69559W        W41984   4.751  30.562  14.936
69560W        W41985  40.046  26.074  11.599
69561W        W41986  38.917   5.198   2.378
69562W        W41987  33.399   5.795  13.377
69563W        W41988  37.425  39.874   1.270
69564W        W41989  12.262  44.837  14.427
69565W        W41990   3.388  41.974   0.349
69566W        W41991  31.480  20.109  14.391
69567W        W41992  29.051  40.800   2.773
69568W        W41993   8.238  42.469   2.235
69569W        W41994  15.743  13.774  14.895
69570W        W41995  19.178   8.300   4.130
69571W        W41996  16.122   4.376   0.742
69572W        W41997  19.163  10.165  12.530
69573W        W41998  32.119  35.570   2.721
69574W        W41999  36.464  28.077   2.679
69575W        W42000  31.510   5.320  12.424
69576W        W42001  23.674  16.231  12.048
69577W        W42002  40.018  10.684  11.543
69578W        W42003  20.120  39.411  11.862
69579W        W42004  38.066  10.786   4.783
69580W        W42005  40.371  29.067  12.347
69581W        W42006  23.589  14.725  14.340
69582W        W42007  42.398  23.522   3.663
69583W        W42008  18.064  12.217  11.913
69584W        W42009   6.323   9.743   2.793
69585W        W42010  39.977  19.638   4.259
69586W        W42011  33.621  40.315   3.842
69587W        W42012  20.181  35.924  11.478
69588W        W42013  42.352  14.668   4.652
69589W        W42014  17.141  14.168   1.918
69590W        W42015   2.956  31.412   1.902
69591W        W42016  43.327  11.219  12.963
69592W        W42017   2.778  34.599  12.846
69593W        W42018  43.826  40.903  11.899
69594W        W42019   5.399  44.325  11.601
69595W        W42020  34.450  31.629   4.299
69596W        W42021   2.462  12.336  14.805
69597W        W42022  43.849  41.421   4.276
69598W        W42023  21.533   9.762  12.088
69599W        W42024  31.513  30.475   0.482
69600W        W42025   6.751  43.799   2.804
69601W        W42026  19.256   9.288  10.909
69602W        W42027   6.678  18.199   2.217
69603W        W42028   3.309  19.139   3.793
69604W        W42029  44.414  44.940  13.827
69605W        W42030   3.394  43.008  10.989
69606W        W42031  15.250  24.712   0.311
69607W        W42032  41.897  30.121  12.339
69608W        W42033   9.774  23.215  14.434
69609W        W42034  12.157  41.803  12.381
69610W        W42035  40.020   8.815   1.448
69611W        W42036   5.753  22.513  12.951
69612W        W42037   2.828  21.737   2.881
69613W        W42038  42.846  32.005   2.686
69614W        W42039   9.164   2.893   4.261
69615W        W42040  36.386  26.978  13.494
69616W        W42041   3.399   5.874  10.113
69617W        W42042  31.965  13.196  12.448
69618W        W42043  31.919   3.825   4.745
69619W        W42044  43.925  35.583  11.038
69620W        W42045  30.431  15.121   2.690
69621W        W42046  21.164  14.125   3.746
69622W        W42047  17.246  44.974   0.363
69623W        W42048  16.278  15.792   4.795
69624W        W42049   3.386  26.108  14.291
69625W        W42050  41.830  34.393   5.091
69626W        W42051  10.705  16.234   1.788
69627W        W42052  38.936  17.585   1.918
69628W        W42053  42.417  16.691   0.889
69629W        W42054   6.196   2.459  10.540
69630W        W42055   6.228  23.156  10.475
69631W        W42056  43.902   8.291  11.376
69632W        W42057  41.997  35.370   3.274
69633W        W42058  23.728   6.729  12.952
69634W        W42059  19.226  11.195   3.305
69635W        W42060   8.400   0.755   1.782
69636W        W42061   9.668  40.038  11.889
69637W        W42062  11.776  17.106   0.330
69638W        W42063  30.548  12.625   3.318
69639W        W42064  29.105  32.958   0.351
69640W        W42065   4.404  29.639   0.472
69641W        W42066  13.339   3.926  11.518
69642W        W42067  35.038   3.751  12.396
69643W        W42068   8.305   8.389   4.666
69644W        W42069   8.712  24.571   2.853
69645W        W42070   2.383  12.354   1.359
69646W        W42071  25.630  34.434  11.039
69647W        W42072  21.674  16.208   4.833
69648W        W42073   7.256   0.887   2.201
69649W        W42074  28.602  12.661   4.245
69650W        W42075  24.665  35.457  13.438
69651W        W42076  14.729  30.115   0.478
69652W        W42077  42.407  18.158  14.827
69653W        W42078  40.019  16.122  11.936
69654W        W42079  15.143  30.124  13.805
69655W        W42080  21.018  20.556   3.810
69656W        W42081   2.379  22.595   4.343
69657W        W42082  15.192  35.439   4.243
69658W        W42083  16.728   9.226   2.356
69659W        W42084   2.794  22.636   4.137
69660W        W42085  16.275  27.038  13.359
69661W        W42086  41.036  24.594   2.407
69662W        W42087   8.302  31.139  14.500
69663W        W42088  40.866  14.598  13.860
69664W        W42089  25.663  28.009  13.985
69665W        W42090  10.363  23.158  10.984
69666W        W42091  13.664  26.101   1.407
69667W        W42092   9.720  43.286  12.851
69668W        W42093  10.208   8.204   0.367
69669W        W42094  37.861  40.945   3.158
69670W        W42095  16.184   6.234   1.898
69671W        W42096  15.610  25.582   3.276
69672W        W42097  13.234  13.187   0.347
69673W        W42098  41.515  42.979   1.823
69674W        W42099  10.653  10.704   0.818
69675W        W42100  25.146  36.520  14.510
69676W        W42101  20.241  21.521  14.433
69677W        W42102  37.988   8.324   0.448
69678W        W42103  32.136  26.196  12.517
69679W        W42104  24.159  35.593   2.691
69680W        W42105   3.251  19.651   2.260
69681W        W42106   8.173  30.630  10.955
69682W        W42107  14.594  19.586   2.391
69683W        W42108  16.730   5.874   0.308
69684W        W42109  10.287   5.344  14.355
69685W        W42110  37.852  13.675  10.922
69686W        W42111  40.030  25.025  14.318
69687W        W42112   5.223  31.535   4.181
69688W        W42113  16.267  43.404  10.413
69689W        W42114  13.668   0.488   1.307
69690W        W42115  32.630   9.283   2.240
69691W        W42116  40.487   5.860   3.747
69692W        W42117  13.811  28.633  14.789
69693W        W42118  30.997  41.437   2.877
69694W        W42119  22.065  40.379  14.397
69695W        W42120  44.304  44.396  10.514
69696W        W42121  32.445  41.832   2.197
69697W        W42122  41.364  28.679   3.802
69698W        W42123  41.426  44.965  11.125
69699W        W42124  23.113  10.669   3.374
69700W        W42125  44.454   3.426   4.735
69701W        W42126   9.206  19.091  13.975
69702W        W42127  29.035  44.294  13.343
69703W        W42128   2.758  17.153   0.338
69704W        W42129  23.698  30.139  10.916
69705W        W42130  38.405  42.511   4.310
69706W        W42131   1.885  21.195  10.405
69707W        W42132  12.197  40.843   3.652
69708W        W42133  34.883  43.931  12.378
69709W        W42134   5.371  33.561  10.914
69710W        W42135  12.190  34.560   1.723
69711W        W42136  40.985  40.968   4.781
69712W        W42137  30.051   1.954   3.680
69713W        W42138   4.757  30.092   4.228
69714W        W42139  17.747  43.838  13.395
69715W        W42140  37.490   7.745   1.330
69716W        W42141  23.083  35.907  11.879
69717W        W42142  28.586  42.839   0.924
69718W        W42143  44.919  18.124   3.315
69719W        W42144  20.243  11.273   4.226
69720W        W42145  33.397  19.219   2.819
69721W        W42146  26.545  10.862   2.702
69722W        W42147  36.476   0.771   1.424
69723W        W42148  34.924   5.805  11.590
69724W        W42149  39.023  39.869   4.612
69725W        W42150  37.388  36.913   1.866
69726W        W42151  10.369  22.007   3.661
69727W        W42152  19.604  37.947  14.451
69728W        W42153  15.233  30.044   1.901
69729W        W42154  14.682  35.947   3.168
69730W        W42155  25.971  13.233  10.624
69731W        W42156  26.556  44.900  11.413
69732W        W42157  39.335   0.934   2.853
69733W        W42158  26.698   1.404  12.357
69734W        W42159  27.976  34.115  13.508
69735W        W42160  29.658  11.795   0.331
69736W        W42161   8.875  18.126  12.088
69737W        W42162  44.486   6.211   4.346
69738W        W42163  16.783  19.250  11.124
69739W        W42164  11.692  19.110   1.883
69740W        W42165  14.733  29.997  10.984
69741W        W42166  41.955  39.334  14.894
69742W        W42167  29.489  33.965   2.777
69743W        W42168  42.451   2.400   2.302
69744W        W42169   0.928   5.362  12.368
69745W        W42170  37.851  38.440   2.389
69746W        W42171   7.798  32.951  10.997
69747W        W42172  33.441  42.899   5.310
69748W        W42173   7.303  39.375   2.768
69749W        W42174   7.866  44.501  13.049
69750W        W42175  11.173  25.014  14.027
69751W        W42176  43.785   6.388   2.873
69752W        W42177   8.674  24.181   1.714
69753W        W42178  40.047  34.383   3.758
69754W        W42179   3.823  21.568   3.699
69755W        W42180  26.162  39.375  12.391
69756W        W42181  19.773  14.774  12.831
69757W        W42182   2.350  42.848   3.208
69758W        W42183  30.577  22.505   0.815
69759W        W42184  25.476  33.008  14.511
69760W        W42185  14.625  29.577  13.332
69761W        W42186  38.335   8.669  13.358
69762W        W42187  18.614  32.483  12.027
69763W        W42188  35.516  24.993   1.333
69764W        W42189  28.626  34.929   0.303
69765W        W42190  36.917   4.870  13.949
69766W        W42191  36.903  24.649   4.258
69767W        W42192  17.796  35.926   0.924
69768W        W42193  39.885  24.006  13.885
69769W        W42194  29.444   4.807  14.500
69770W        W42195  42.953  41.813   4.340
69771W        W42196  38.039  19.776  13.007
69772W        W42197   5.301  31.517   3.320
69773W        W42198  39.387  25.476  12.535
69774W        W42199   8.237  43.344  11.111
69775W        W42200  13.734   3.443   3.314
69776W        W42201   9.759  42.830   1.822
69777W        W42202  14.780  36.590  13.801
69778W        W42203  33.626  33.097  13.545
69779W        W42204   0.422  39.947   1.398
69780W        W42205  23.575  29.635  12.967
69781W        W42206  29.663   8.165   1.760
69782W        W42207  10.358  37.847  14.973
69783W        W42208   5.782  11.182   4.325
69784W        W42209  28.653  42.456  14.875
69785W        W42210   6.246  28.139  10.460
69786W        W42211  12.739  29.997   4.641
69787W        W42212  33.876  41.959  14.286
69788W        W42213  11.159  33.879   1.854
69789W        W42214  18.134  40.034   1.882
69790W        W42215   0.840  27.592   3.354
69791W        W42216  18.295  44.365  13.313
69792W        W42217  36.058  36.502  13.837
69793W        W42218  28.538  13.684   1.867
69794W        W42219  15.617  43.921   3.149
69795W        W42220   7.185  42.033  12.535
69796W        W42221   2.408   8.754   1.888
69797W        W42222  42.877   1.873  13.418
69798W        W42223  29.608  19.261  14.440
69799W        W42224   9.689  36.858   9.468
69800W        W42225  27.499   1.962  11.106
69801W        W42226   4.785  23.134   3.339
69802W        W42227  42.364  26.959  10.507
69803W        W42228   8.779  30.057   1.921
69804W        W42229  11.698  30.004  14.505
69805W        W42230   0.436  30.001   2.385
69806W        W42231  37.434  19.643  10.998
69807W        W42232  39.354   5.860  12.519
69808W        W42233  34.110  16.073  13.836
69809W        W42234  11.637  23.068   0.912
69810W        W42235   6.370  12.775  11.999
69811W        W42236  42.877  10.377   4.237
69812W        W42237   8.247   8.256   4.326
69813W        W42238  31.434  15.788   0.247
69814W        W42239  30.457  10.859   2.718
69815W        W42240  28.666   9.316   4.212
69816W        W42241   7.369  35.027   3.829
69817W        W42242  10.841  41.829   0.284
69818W        W42243  25.570   5.871   1.869
69819W        W42244  24.986  40.872  14.349
69820W        W42245  25.607   2.881   4.306
69821W        W42246  26.619  24.689  13.880
69822W        W42247  39.401   7.191   3.719
69823W        W42248   4.741   3.912  12.434
69824W        W42249   4.357  19.065   1.314
69825W        W42250   0.982  27.106  13.907
69826W        W42251  29.024  31.467  11.911
69827W        W42252  43.334  29.457  12.024
69828W        W42253  37.980   1.857   3.387
69829W        W42254  42.849  36.904   1.864
69830W        W42255  14.635   1.271   2.342
69831W        W42256  28.514   7.728   4.200
69832W        W42257   9.703   0.325   3.629
69833W        W42258  21.708  12.754  14.502
69834W        W42259   9.369  31.913  11.444
69835W        W42260   6.405  19.602   5.255
69836W        W42261  39.918  17.153  12.345
69837W        W42262  33.996  23.049   3.278
69838W        W42263  22.138   7.726   2.237
69839W        W42264  18.165  33.944   0.875
69840W        W42265  37.427  37.346   1.694
69841W        W42266  21.695  23.134  13.394
69842W        W42267  11.819  28.033   0.751
69843W        W42268   5.843  37.889  11.611
69844W        W42269   7.853  10.862   1.844
69845W        W42270  25.499  22.676   3.661
69846W        W42271  40.032   7.349  11.611
69847W        W42272  15.771  36.359  12.439
69848W        W42273  23.998  40.799   4.193
69849W        W42274  10.369  39.469  13.392
69850W        W42275   2.367  29.637   1.818
69851W        W42276  22.018  24.668  11.099
69852W        W42277  43.963  39.432  14.841
69853W        W42278  27.953   5.264  14.339
69854W        W42279  32.484  27.043   4.778
69855W        W42280  13.338  35.985   1.728
69856W        W42281  35.870  28.578  13.973
69857W        W42282  16.767  31.581  13.960
69858W        W42283  36.963  16.621  12.849
69859W        W42284   5.410  10.372  14.344
69860W        W42285  10.139  11.355   0.390
69861W        W42286   6.216  14.308  14.302
69862W        W42287  25.203   4.362   2.705
69863W        W42288  28.981  10.273  13.907
69864W        W42289  16.605   2.870   4.264
69865W        W42290  27.163   4.872   2.704
69866W        W42291  13.152   5.929  14.335
69867W        W42292   0.855  16.264   4.155
69868W        W42293  11.211  44.433  11.073
69869W        W42294  29.052  38.420  11.475
69870W        W42295  37.453  38.477  13.507
69871W        W42296  24.696   6.862  14.971
69872W        W42297  13.829   3.862  12.400
69873W        W42298  37.908  22.504   1.266
69874W        W42299  21.255  33.533  13.956
69875W        W42300  22.234  12.226  11.856
69876W        W42301  28.572  39.403   3.832
69877W        W42302  41.789  11.345  11.392
69878W        W42303  38.049  16.718   2.216
69879W        W42304  15.242  20.032  10.493
69880W        W42305  35.869  14.112   1.402
69881W        W42306   9.786  41.000  11.011
69882W        W42307  34.973  44.308  11.546
69883W        W42308  30.122   5.688   3.183
69884W        W42309  16.171  44.429  14.993
69885W        W42310  36.970  22.163   9.648
69886W        W42311  17.140  37.551  14.371
69887W        W42312  22.158  44.861  11.428
69888W        W42313  12.316  27.037   3.326
69889W        W42314  27.503  28.488   0.897
69890W        W42315  11.275  22.202   0.824
69891W        W42316  39.981  33.109   0.877
69892W        W42317  15.299  25.579  11.055
69893W        W42318  23.644  21.547   2.745
69894W        W42319  17.719  34.996   4.202
69895W        W42320  11.786  24.513   0.848
69896W        W42321  37.005  15.137   4.735
69897W        W42322  12.207  43.467  11.088
69898W        W42323   6.207  21.578   4.667
69899W        W42324  35.455  23.023   0.369
69900W        W42325   3.784  19.751   0.371
69901W        W42326  30.543  34.864  14.337
69902W        W42327  38.370  39.453  12.358
69903W        W42328  44.301  14.816   2.868
69904W        W42329  15.220  21.557   1.386
69905W        W42330  42.511  23.994  13.856
69906W        W42331  26.968  29.659   4.748
69907W        W42332   2.824   2.893   0.373
69908W        W42333  13.626  20.614   2.885
69909W        W42334  32.457   8.802   2.739
69910W        W42335   5.829   4.270   2.375
69911W        W42336  25.030  25.106   1.351
69912W        W42337  19.612  16.187   2.793
69913W        W42338  30.917  30.463  13.959
69914W        W42339  20.244  27.685   0.364
69915W        W42340  11.788  40.809  10.641
69916W        W42341  27.180   5.894  10.583
69917W        W42342  12.309  13.613  13.034
69918W        W42343   4.747  11.371  11.947
69919W        W42344  41.890  24.024   1.431
69920W        W42345  23.536  18.742   0.813
69921W        W42346   2.301   6.247   1.361
69922W        W42347  44.457   8.777  14.863
69923W        W42348  38.557  11.712   2.738
69924W        W42349  19.570  39.547   0.767
69925W        W42350  26.661  44.862  12.853
69926W        W42351  23.160  37.830   4.806
69927W        W42352  26.111  23.103   4.203
69928W        W42353  31.505  18.218   4.832
69929W        W42354  31.003  43.458   4.256
69930W        W42355  15.120  18.082  13.315
69931W        W42356   7.226  39.487  14.942
69932W        W42357  15.766  16.795   4.349
69933W        W42358  28.964  12.342  14.372
69934W        W42359  16.648  28.975   0.435
69935W        W42360  42.325  13.279  13.516
69936W        W42361  13.660  11.214   0.333
69937W        W42362  21.752   8.875  10.897
69938W        W42363  43.962  42.949   0.456
69939W        W42364  25.029  28.519   0.832
69940W        W42365   4.755  22.026   1.312
69941W        W42366  28.495   6.922  11.012
69942W        W42367  33.075   0.820  13.791
69943W        W42368  23.057  19.214  14.857
69944W        W42369   3.928  39.907   2.900
69945W        W42370  44.445  13.250   3.186
69946W        W42371  24.518  44.277   4.772
69947W        W42372  26.987  10.852   4.812
69948W        W42373  33.008  20.672  11.902
69949W        W42374  16.617  40.307  13.938
69950W        W42375  22.705  29.114   3.715
69951W        W42376  43.379  13.738  14.820
69952W        W42377  19.275   3.776  10.992
69953W        W42378   0.265   8.887  10.992
69954W        W42379  42.888  11.636   1.234
69955W        W42380   6.316  17.217  11.591
69956W        W42381  10.669  14.282  13.009
69957W        W42382  11.641  44.929  14.511
69958W        W42383   9.210   1.848   2.231
69959W        W42384  31.902  43.488  11.527
69960W        W42385  30.590  40.034  14.458
69961W        W42386  17.298  18.742   1.343
69962W        W42387   9.175  31.026   1.743
69963W        W42388   3.713  44.952  10.447
69964W        W42389  40.878   4.448   1.249
69965W        W42390  43.480  33.129   4.201
69966W        W42391  25.203  35.887  13.931
69967W        W42392  43.408  34.044  13.998
69968W        W42393  30.443  18.626  12.520
69969W        W42394  11.163   6.242   2.191
69970W        W42395  12.693  24.690  11.919
69971W        W42396  35.907  29.603   5.240
69972W        W42397  21.226   0.262  12.538
69973W        W42398  29.052   8.264   1.358
69974W        W42399  17.568  39.902  11.977
69975W        W42400  28.640  23.630  12.903
69976W        W42401  13.730   2.341  11.972
69977W        W42402  16.797  27.007  13.390
69978W        W42403  41.980  10.749   0.434
69979W        W42404   8.861  31.953   4.616
69980W        W42405  24.125   3.220  11.457
69981W        W42406  33.529  19.107  13.039
69982W        W42407  42.430  11.632   2.862
69983W        W42408  20.600   3.753   2.355
69984W        W42409   9.838  13.709  10.941
69985W        W42410  26.204   2.452  11.053
69986W        W42411  39.856  21.702  11.543
69987W        W42412  20.682  13.350   4.694
69988W        W42413  43.389   7.299  14.825
69989W        W42414  15.812  27.988   0.422
69990W        W42415   7.798  40.911   0.746
69991W        W42416   1.359   2.801   0.874
69992W        W42417   4.738  31.442  13.029
69993W        W42418  26.989  17.214  14.894
69994W        W42419  22.243  15.209   1.415
69995W        W42420  30.567  20.146   3.178
69996W        W42421  43.322  14.151  13.511
69997W        W42422  35.853   3.946   1.324
69998W        W42423   3.328  15.215  13.325
69999W        W42424  37.025  13.281   4.222
70000W        W42425   5.369  21.037  12.094
70001W        W42426  27.683  43.302  13.038
70002W        W42427  41.465  15.252   1.935
70003W        W42428  42.002  12.337  11.883
70004W        W42429  11.196  14.128  14.978
70005W        W42430   4.445   9.783   3.245
70006W        W42431  21.092   8.319  14.029
70007W        W42432  36.364  14.770  14.333
70008W        W42433  41.465  42.910   5.148
70009W        W42434  17.712  32.991  10.623
70010W        W42435  23.633  35.856  14.858
70011W        W42436  36.975  14.104   3.800
70012W        W42437   4.929   0.883   3.370
70013W        W42438  33.381  31.416  11.510
70014W        W42439   0.253  41.823  12.923
70015W        W42440  11.265  20.251   0.903
70016W        W42441  11.292  10.677   1.349
70017W        W42442  37.992  43.387  13.023
70018W        W42443  37.390  42.450  11.597
70019W        W42444  35.531  31.579   1.225
70020W        W42445   6.302  38.371  14.785
70021W        W42446  18.556  38.879  11.392
70022W        W42447   3.387   7.722   1.735
70023W        W42448  32.028  42.937   4.767
70024W        W42449   2.232  24.976   0.775
70025W        W42450  42.480  41.353  13.982
70026W        W42451  17.801  36.508   0.914
70027W        W42452  32.545  37.923  11.607
70028W        W42453  21.170  24.055  10.972
70029W        W42454  18.269  15.328   1.882
70030W        W42455  44.437  15.696  12.977
70031W        W42456  34.481   6.841  13.063
70032W        W42457  12.738   6.327  14.858
70033W        W42458  32.061   6.349  13.512
70034W        W42459  44.307  37.928   0.422
70035W        W42460  20.729  34.424   4.627
70036W        W42461  18.601  31.082  13.895
70037W        W42462  41.481   4.426  13.889
70038W        W42463  15.329   6.874   0.902
70039W        W42464  20.051  31.596  12.865
70040W        W42465   0.947  41.494  13.981
70041W        W42466  26.123  23.507  12.060
70042W        W42467  34.553   8.786   3.778
70043W        W42468  26.985  19.585   0.410
70044W        W42469  28.510  37.454   2.739
70045W        W42470   7.261  31.629   1.809
70046W        W42471  10.355  18.606  14.784
70047W        W42472  10.242  30.524   3.169
70048W        W42473  33.449  18.548  12.548
70049W        W42474  17.601   2.386  13.871
70050W        W42475  41.358  17.575   0.321
70051W        W42476  34.049  28.458  11.990
70052W        W42477  24.024   4.847   0.379
70053W        W42478  14.133   6.425  10.485
70054W        W42479  41.339  25.476   1.816
70055W        W42480  17.718  13.234   4.795
70056W        W42481  22.717   2.743  14.300
70057W        W42482  15.305  28.550  13.446
70058W        W42483  17.297  29.019   3.841
70059W        W42484  11.371  35.954  14.903
70060W        W42485  23.502  31.969   4.291
70061W        W42486  27.093  41.827   4.783
70062W        W42487   9.818  36.563  13.476
70063W        W42488  33.005  22.654  11.026
70064W        W42489  23.550  21.054  13.002
70065W        W42490  31.096  20.590  13.469
70066W        W42491  10.780   3.397   3.256
70067W        W42492   6.292  40.344  12.476
70068W        W42493  43.913   5.377  13.832
70069W        W42494  19.643  18.124  14.447
70070W        W42495   4.315  38.469  14.379
70071W        W42496  35.481  29.093   2.819
70072W        W42497  13.247  27.507   2.899
70073W        W42498   7.226  26.500   2.874
70074W        W42499  18.638  19.714   1.219
70075W        W42500  40.837  35.373  10.970
70076W        W42501  22.538  20.186   1.819
70077W        W42502  37.948  10.801   0.968
70078W        W42503   4.891  25.086  14.448
70079W        W42504   2.862  28.936   2.341
70080W        W42505   2.423  35.418  13.921
70081W        W42506  43.774  19.709  12.342
70082W        W42507  31.612   2.276   0.789
70083W        W42508   3.382  30.051   1.241
70084W        W42509  31.526  28.057   1.842
70085W        W42510  10.227  10.191  10.005
70086W        W42511  33.617  30.090   3.818
70087W        W42512   8.735  44.774   4.679
70088W        W42513  41.437  11.662   1.424
70089W        W42514  16.702  39.323   0.410
70090W        W42515  18.706  17.215   3.277
70091W        W42516   8.655  32.514   5.151
70092W        W42517  44.451  10.650  11.969
70093W        W42518  19.634  37.388  12.918
70094W        W42519  36.495   1.396  14.275
70095W        W42520  18.670  31.967   1.913
70096W        W42521  16.274  20.191   1.886
70097W        W42522  15.720   6.333   0.442
70098W        W42523  13.687  42.785   0.848
70099W        W42524  41.376  10.184   4.821
70100W        W42525  22.230   3.853   3.177
70101W        W42526  24.520  44.393   0.805
70102W        W42527  19.275  38.041   2.838
70103W        W42528   7.711  42.303   1.828
70104W        W42529  20.141  20.523   0.271
70105W        W42530   7.397  15.685  14.292
70106W        W42531  44.263  18.181  13.309
70107W        W42532  19.239  37.836  10.900
70108W        W42533  36.549  12.347  12.935
70109W        W42534  31.469  25.989   2.864
70110W        W42535  25.603  23.599   3.160
70111W        W42536  17.230  44.491   1.378
70112W        W42537  30.116   2.367   0.284
70113W        W42538  16.747  21.127  14.951
70114W        W42539  39.321  19.233   2.196
70115W        W42540   1.427   1.453  12.908
70116W        W42541  42.434  27.683  11.579
70117W        W42542  37.532  23.654  10.448
70118W        W42543  32.515  11.312   3.313
70119W        W42544  24.602  24.593  12.477
70120W        W42545  20.744  25.665   2.333
70121W        W42546  32.564  26.984  11.415
70122W        W42547  30.966  43.513   2.799
70123W        W42548  10.718  41.292   4.688
70124W        W42549  31.905   9.746  10.899
70125W        W42550  21.560  39.404   0.303
70126W        W42551   9.717  37.007  13.999
70127W        W42552  35.105  13.301  13.038
70128W        W42553  14.817  17.654  14.896
70129W        W42554  34.570  42.979   2.289
70130W        W42555  30.961  35.461  13.960
70131W        W42556  28.089   8.756  14.827
70132W        W42557   1.255  16.221   3.214
70133W        W42558   0.744  15.645   1.355
70134W        W42559  22.599  24.989  14.028
70135W        W42560   9.182   0.253   4.344
70136W        W42561  43.818  26.482  12.971
70137W        W42562  13.324  38.521  12.907
70138W        W42563  36.530  23.638  14.839
70139W        W42564  32.110  10.234  14.483
70140W        W42565  18.596  44.845   3.711
70141W        W42566  18.245  16.607  12.424
70142W        W42567  24.659   5.200  13.461
70143W        W42568  20.124  15.228  14.774
70144W        W42569  23.679  11.303   2.898
70145W        W42570   2.780  35.968  11.488
70146W        W42571   4.259  21.585   4.762
70147W        W42572   1.319  15.319  12.562
70148W        W42573   0.380  42.909  10.962
70149W        W42574   9.668   4.811   0.471
70150W        W42575  24.986  10.243   5.303
70151W        W42576  27.059  38.970  11.113
70152W        W42577  44.301  43.365   0.903
70153W        W42578  36.436  34.524  10.435
70154W        W42579  42.801  14.780   5.117
70155W        W42580   6.274  21.034   1.379
70156W        W42581  38.384   0.425  14.766
70157W        W42582  20.139  20.662  13.969
70158W        W42583  32.065   1.383  12.028
70159W        W42584  32.013  38.069   2.378
70160W        W42585  38.379   7.694  14.759
70161W        W42586  42.900   9.803  13.037
70162W        W42587  32.433   0.458   4.745
70163W        W42588  26.148  12.292  11.016
70164W        W42589  24.021  34.613   1.417
70165W        W42590  29.986  40.528  12.365
70166W        W42591  40.845  30.027   1.329
70167W        W42592  43.452  42.781   2.202
70168W        W42593  35.006  16.116  14.979
70169W        W42594   2.353   9.887   1.311
70170W        W42595  21.077   8.214  10.947
70171W        W42596   8.310  31.454   3.803
70172W        W42597  25.474   9.795   2.865
70173W        W42598  33.908  31.449  13.532
70174W        W42599  35.919  14.757   1.391
70175W        W42600  13.193   3.819  10.416
70176W        W42601  10.161  18.650   5.176
70177W        W42602   5.857  17.603  13.862
70178W        W42603   5.424  36.516   4.244
70179W        W42604  14.152   5.737   3.328
70180W        W42605  22.234  36.923   4.203
70181W        W42606   2.346  36.482  14.441
70182W        W42607  33.564  20.172   3.357
70183W        W42608  44.474  12.288  12.487
70184W        W42609  29.090  15.594   1.743
70185W        W42610  26.658   1.437   1.356
70186W        W42611  44.900  16.634  10.922
70187W        W42612  39.028  28.470  14.775
70188W        W42613  25.105  31.477   4.148
70189W        W42614  34.003  29.015   1.213
70190W        W42615  31.969  26.611   0.400
70191W        W42616  15.179  24.567   5.160
70192W        W42617  28.066  31.491  13.318
70193W        W42618  17.269  32.926   4.813
70194W        W42619  29.168  38.559  10.440
70195W        W42620  14.688  44.925   2.318
70196W        W42621   3.936  10.846  13.953
70197W        W42622  42.859  40.980   0.366
70198W        W42623  23.061  10.299  10.071
70199W        W42624  29.633   5.371   0.933
70200W        W42625  36.906  23.722   1.252
70201W        W42626   2.839  34.373   0.469
70202W        W42627  30.063   9.351   3.246
70203W        W42628  44.435  40.975   0.324
70204W        W42629  21.540  10.196   5.119
70205W        W42630  20.083  18.260   1.260
70206W        W42631   7.696  36.044  14.811
70207W        W42632   9.709  38.910  10.506
70208W        W42633  34.599  13.617   3.670
70209W        W42634  17.767  29.980   3.812
70210W        W42635  27.603  29.007   0.940
70211W        W42636  32.120  14.824  10.438
70212W        W42637   7.670  38.450   1.698
70213W        W42638  41.905  15.611   2.836
70214W        W42639  32.031  43.898   0.763
70215W        W42640   6.415  20.631  12.390
70216W        W42641  35.036  18.222  12.946
70217W        W42642  22.159  11.221   4.126
70218W        W42643   5.744  42.422  11.870
70219W        W42644   7.274  32.590   1.874
70220W        W42645  20.552  10.779  11.002
70221W        W42646  23.522   2.273  12.540
70222W        W42647  30.488  22.669  11.591
70223W        W42648   0.893  26.468   4.638
70224W        W42649   0.364  23.064  14.452
70225W        W42650  33.020  17.759  12.835
70226W        W42651  12.211  41.851  13.386
70227W        W42652  34.048  16.646   4.823
70228W        W42653  12.240  21.731   3.840
70229W        W42654   0.420   1.751   3.183
70230W        W42655  23.012   8.691   4.291
70231W        W42656  44.426  13.783   5.154
70232W        W42657  28.674  30.073   3.677
70233W        W42658  43.329   5.338  14.968
70234W        W42659  11.631  10.310  10.462
70235W        W42660  10.155   0.324   3.380
70236W        W42661  24.695  17.071  11.101
70237W        W42662   1.967  40.018  14.765
70238W        W42663  13.212  34.612  11.880
70239W        W42664  20.724   3.396  13.435
70240W        W42665  29.145  32.536  13.796
70241W        W42666  27.632  43.380  10.531
70242W        W42667  12.173  17.180  11.954
70243W        W42668   3.384  31.959  12.979
70244W        W42669   9.803   6.416  11.957
70245W        W42670  10.677  39.447   3.258
70246W        W42671  33.381  17.233   2.801
70247W        W42672  22.597  32.087   4.323
70248W        W42673  15.749  14.661  12.543
70249W        W42674  40.958   5.360   0.844
70250W        W42675   6.684  24.978  14.505
70251W        W42676  10.823  24.647   2.286
70252W        W42677  37.916  38.544   3.360
70253W        W42678   4.417  10.748   0.929
70254W        W42679  43.423  14.791   3.295
70255W        W42680  25.120   6.713  11.458
70256W        W42681  13.814   0.900  10.536
70257W        W42682  24.638   3.290   2.232
70258W        W42683  15.209  28.997   3.275
70259W        W42684   1.830  31.515  13.490
70260W        W42685  18.649  33.996   0.387
70261W        W42686  10.836   5.196   4.329
70262W        W42687  26.196   3.870   1.294
70263W        W42688  37.948  24.189   2.302
70264W        W42689  37.524   4.431   9.931
70265W        W42690   2.339  39.528  13.324
70266W        W42691  34.872  21.548   4.600
70267W        W42692  38.032  13.133   3.308
70268W        W42693  37.403  21.112   2.676
70269W        W42694  29.114  17.123   0.727
70270W        W42695  23.992  40.331   5.115
70271W        W42696  18.265  24.655   0.373
70272W        W42697  30.560   5.859  11.509
70273W        W42698   0.762  16.582   4.310
70274W        W42699  42.794  23.239   0.383
70275W        W42700  18.578   2.334  14.400
70276W        W42701  43.984  14.667   3.314
70277W        W42702  32.412  22.252   1.856
70278W        W42703  20.662  16.747   2.764
70279W        W42704  18.718  10.869  12.992
70280W        W42705   8.178  43.831  13.962
70281W        W42706  30.978  17.303  12.393
70282W        W42707  36.893  38.956  12.504
70283W        W42708  42.010  26.667   3.377
70284W        W42709  10.649   8.831  13.945
70285W        W42710  14.302  43.921  12.492
70286W        W42711  40.316  12.839   2.833
70287W        W42712  33.005   8.855  12.460
70288W        W42713   3.234   8.767  14.940
70289W        W42714  28.598  26.687  14.300
70290W        W42715   9.306   4.723   3.276
70291W        W42716  32.895  25.560   3.802
70292W        W42717  29.553  18.149  12.374
70293W        W42718  44.836  12.302  10.550
70294W        W42719  33.122  13.722  11.423
70295W        W42720  23.222  25.038  14.886
70296W        W42721  28.184  35.552   4.635
70297W        W42722  44.343  25.064   1.857
70298W        W42723  39.824  12.683  10.479
70299W        W42724  13.695   0.777   1.336
70300W        W42725  42.785  33.036  13.952
70301W        W42726  35.069  40.498  12.428
70302W        W42727  21.674  44.911  10.607
70303W        W42728  38.900  44.271   4.197
70304W        W42729   4.709  34.922  10.969
70305W        W42730  44.435  18.096   0.290
70306W        W42731  32.572  27.004   3.191
70307W        W42732  28.669  31.073  14.324
70308W        W42733  24.515   1.477  11.106
70309W        W42734  25.179  26.612   2.888
70310W        W42735   7.785  41.501   2.267
70311W        W42736   0.952  34.460  13.062
70312W        W42737  35.079   2.408  11.570
70313W        W42738  15.792  14.676   2.289
70314W        W42739  20.131   8.365  11.462
70315W        W42740  35.061  29.472   2.682
70316W        W42741  30.088  39.855  13.003
70317W        W42742   0.864  42.842  12.046
70318W        W42743  34.609  22.563  12.384
70319W        W42744  23.554  16.722   4.329
70320W        W42745  40.509  11.850  13.478
70321W        W42746   2.864   0.485   3.776
70322W        W42747  33.572  35.458  12.853
70323W        W42748  11.667  15.294   2.804
70324W        W42749  15.806   8.747  10.484
70325W        W42750  15.265  30.524  11.869
70326W        W42751  19.718  44.375   4.786
70327W        W42752   3.251  38.984  14.294
70328W        W42753   7.747  36.980  14.815
70329W        W42754  35.939  30.923  13.816
70330W        W42755  23.195  30.988  11.583
70331W        W42756  16.186  21.753  11.472
70332W        W42757  19.628  24.481   3.750
70333W        W42758   9.151  39.473   4.228
70334W        W42759  11.748  42.859   0.305
70335W        W42760  22.604  24.567  11.936
70336W        W42761  34.486  42.379   4.168
70337W        W42762  35.967   6.780  12.049
70338W        W42763  14.114   0.407   1.274
70339W        W42764  27.982   8.731  11.949
70340W        W42765  28.570  43.315  14.362
70341W        W42766   2.790  17.200   1.267
70342W        W42767   1.760  23.676   4.239
70343W        W42768  28.978  11.740   4.339
70344W        W42769   7.728   6.414  12.887
70345W        W42770  44.361  36.469   1.387
70346W        W42771  32.043  15.230  13.497
70347W        W42772  33.609  41.365   1.220
70348W        W42773   9.274  42.426   0.469
70349W        W42774   4.763  41.905  14.459
70350W        W42775  11.262   1.296  12.523
70351W        W42776  32.098  14.807   1.397
70352W        W42777  34.615  36.564   3.687
70353W        W42778  15.324  29.438  11.373
70354W        W42779  34.062  36.583   2.835
70355W        W42780  12.237  31.122  14.883
70356W        W42781  35.474  32.938   0.438
70357W        W42782  29.960  42.430   2.413
70358W        W42783  20.660  24.567   0.393
70359W        W42784  19.750  42.932   0.964
70360W        W42785  24.219  14.798   0.478
70361W        W42786  25.994  25.041  10.990
70362W        W42787  11.195  42.832  12.081
70363W        W42788  11.350  23.636  11.067
70364W        W42789  17.675  18.161  12.426
70365W        W42790  42.947  20.730   1.324
70366W        W42791  42.881  26.504  11.111
70367W        W42792  25.098  18.638   4.805
70368W        W42793   9.155   0.344  11.959
70369W        W42794  15.727  30.526  12.948
70370W        W42795   8.744  36.874   2.417
70371W        W42796   5.421  13.274  13.517
70372W        W42797  26.100  40.468   1.326
70373W        W42798  34.372  22.646  13.415
70374W        W42799  22.733  10.746  13.877
70375W        W42800  36.435  43.878  11.093
70376W        W42801   9.787   7.333   4.305
70377W        W42802   9.755   5.286  14.895
70378W        W42803   5.909   0.907  12.425
70379W        W42804  12.787  29.985   0.439
70380W        W42805  19.603  40.475  13.438
70381W        W42806  11.858  39.917  11.443
70382W        W42807  23.721   0.421  14.888
70383W        W42808  17.696   9.348   2.205
70384W        W42809   2.230  13.294   0.919
70385W        W42810  18.686   7.297  10.105
70386W        W42811   1.237  20.563   2.419
70387W        W42812  24.026  19.044  14.759
70388W        W42813  26.507  12.119  13.455
70389W        W42814  30.455  20.527   3.651
70390W        W42815  26.070  40.975   4.598
70391W        W42816  12.302  22.123  12.962
70392W        W42817  43.275  22.521  11.427
70393W        W42818   9.732  33.064  12.920
70394W        W42819   0.948  24.072  11.527
70395W        W42820  27.942  40.410   2.667
70396W        W42821  29.045  23.506  10.543
70397W        W42822  26.585   8.668  10.637
70398W        W42823  26.490   5.929  12.398
70399W        W42824  30.039  38.035   0.764
70400W        W42825  27.646  42.822  10.990
70401W        W42826   1.868   9.374  13.978
70402W        W42827  18.627  33.419   2.807
70403W        W42828  37.936  19.713  13.409
70404W        W42829   3.882  37.454  10.428
70405W        W42830  20.219  35.067   4.325
70406W        W42831  28.980  37.036   3.847
70407W        W42832  18.290  11.296  10.486
70408W        W42833  26.157   8.869   1.229
70409W        W42834  18.200  25.539   2.290
70410W        W42835  40.352   1.253   2.279
70411W        W42836  41.394  16.670   3.209
70412W        W42837  25.678  42.847   1.402
70413W        W42838  21.239  14.657  14.324
70414W        W42839  23.513  13.642  13.410
70415W        W42840  31.136  39.896   3.213
70416W        W42841  19.754  15.730   3.694
70417W        W42842  27.964  17.769   4.701
70418W        W42843  19.103  29.921  14.446
70419W        W42844   0.424  19.173  11.514
70420W        W42845  25.557  23.196  10.529
70421W        W42846  21.559   2.449  14.436
70422W        W42847   1.376  33.007   1.920
70423W        W42848  19.160  35.497  13.462
70424W        W42849  28.661  10.757   2.892
70425W        W42850  33.984  27.536  12.951
70426W        W42851  43.386  24.517   0.809
70427W        W42852  41.405  36.581  10.626
70428W        W42853  42.325  23.105   2.900
70429W        W42854  20.061  30.567  14.401
70430W        W42855  29.011  32.619   0.794
70431W        W42856  32.931  14.718  12.064
70432W        W42857   4.770  33.085  13.355
70433W        W42858  42.458  30.435   2.299
70434W        W42859  24.606   0.411  11.031
70435W        W42860  14.212  40.978  14.378
70436W        W42861  43.499   5.401  12.542
70437W        W42862  20.224  30.956   9.450
70438W        W42863  17.063  38.832   2.358
70439W        W42864  23.084  35.019   4.724
70440W        W42865  23.987  39.028   3.784
70441W        W42866  17.063   9.860   3.197
70442W        W42867  15.135  14.613  13.539
70443W        W42868  16.234   6.799  11.960
70444W        W42869  20.192  23.113   2.863
70445W        W42870   8.875  24.722  10.943
70446W        W42871   0.813  31.460   0.364
70447W        W42872   3.409   0.397  10.622
70448W        W42873   6.311  18.791   0.260
70449W        W42874  34.003  43.401  13.956
70450W        W42875  14.327  39.379  10.623
70451W        W42876   5.204   2.323   4.758
70452W        W42877   1.250  41.461   2.838
70453W        W42878  38.416  15.661  10.921
70454W        W42879   1.284   7.883  10.547
70455W        W42880   6.319   5.817   4.645
70456W        W42881   1.236  11.238  10.889
70457W        W42882  26.997  41.531   5.219
70458W        W42883  30.630  11.857  14.340
70459W        W42884   2.437  19.600  14.790
70460W        W42885  27.523   3.799   1.769
70461W        W42886  34.106   2.742  14.436
70462W        W42887  41.020  18.706  12.054
70463W        W42888  36.855   9.732   1.758
70464W        W42889   3.345  35.856  10.457
70465W        W42890  40.305  37.412   5.083
70466W        W42891  37.417  18.767   0.414
70467W        W42892  13.291  18.678   0.883
70468W        W42893   1.973  35.894   4.118
70469W        W42894  20.033  44.792  10.480
70470W        W42895  10.658  41.005   4.301
70471W        W42896  24.127  11.369   2.817
70472W        W42897   3.738  31.593  12.067
70473W        W42898   7.706  21.617  10.409
70474W        W42899   1.299  41.001   3.191
70475W        W42900   4.297  30.080   4.630
70476W        W42901  16.299  41.861   2.899
70477W        W42902  21.541  44.996   0.436
70478W        W42903   5.880  21.519  10.572
70479W        W42904  11.157  29.655  14.494
70480W        W42905  17.216  13.760  11.524
70481W        W42906  23.500  14.267  11.591
70482W        W42907  17.153  12.136   1.396
70483W        W42908   4.286  11.241   4.660
70484W        W42909  25.693  15.185  10.546
70485W        W42910  17.285   3.754   1.421
70486W        W42911  30.606   6.815   1.375
70487W        W42912  29.038   9.369  11.533
70488W        W42913   1.339  13.601   1.231
70489W        W42914  44.902   2.335   4.723
70490W        W42915   8.161   6.206  14.493
70491W        W42916  16.083  35.953  10.412
70492W        W42917  29.484  11.340  14.877
70493W        W42918  44.300  14.674   4.184
70494W        W42919   6.904   3.263  13.420
70495W        W42920  41.960  12.703   3.732
70496W        W42921  39.321  14.787  10.903
70497W        W42922  24.595  17.183  13.900
70498W        W42923  37.977  14.641  12.481
70499W        W42924   4.268   6.732   2.682
70500W        W42925  17.090  31.952  11.518
70501W        W42926   6.788  25.161   3.652
70502W        W42927  28.676  36.876   4.686
70503W        W42928   2.354  11.238  12.907
70504W        W42929  32.908  28.592  14.766
70505W        W42930  15.613  18.144  12.000
70506W        W42931  27.629  41.870   4.825
70507W        W42932   4.743  19.540  13.515
70508W        W42933   1.289  44.835  10.991
70509W        W42934  30.002  38.335  11.567
70510W        W42935  10.785  34.974  11.866
70511W        W42936  23.126  11.250  14.989
70512W        W42937  32.035  23.075   3.868
70513W        W42938   4.303   0.879  11.865
70514W        W42939  18.584   3.258  12.457
70515W        W42940  24.725  19.682   3.770
70516W        W42941  27.036  14.714  11.584
70517W        W42942  43.910  15.630   2.411
70518W        W42943   5.256   5.431  14.416
70519W        W42944  40.334  24.626   4.615
70520W        W42945  24.492  34.939   2.893
70521W        W42946  31.495  40.464   2.286
70522W        W42947  43.945  39.014  13.992
70523W        W42948  18.786  19.252   4.201
70524W        W42949  29.021  38.980   4.604
70525W        W42950  17.206   6.762  11.457
70526W        W42951  44.296  17.173  14.883
70527W        W42952  19.147  20.722   0.806
70528W        W42953  15.093  10.378   3.324
70529W        W42954  30.464   4.442   3.206
70530W        W42955  26.497   5.256  14.349
70531W        W42956   8.657  31.525   4.216
70532W        W42957  42.490  17.156   4.827
70533W        W42958  29.599   9.270  12.047
70534W        W42959   5.260  41.424  12.563
70535W        W42960  17.139  24.977  12.976
70536W        W42961  18.131   8.719   4.170
70537W        W42962  34.439  22.229   0.390
70538W        W42963  41.926   3.236   1.740
70539W        W42964  39.392   0.257  14.816
70540W        W42965  25.489  39.940  10.556
70541W        W42966  42.325   9.799   0.471
70542W        W42967  33.110   8.683  13.027
70543W        W42968  38.054  29.649  14.835
70544W        W42969  11.302  11.129  11.050
70545W        W42970  10.314   9.791  12.521
70546W        W42971  22.170   3.346  14.861
70547W        W42972  35.453  19.701   2.812
70548W        W42973   4.785  29.471   2.790
70549W        W42974  18.769   0.765   4.277
70550W        W42975  16.291  18.762   3.285
70551W        W42976   6.414   0.924  11.508
70552W        W42977   2.456  37.018   3.785
70553W        W42978  14.805  17.605   0.368
70554W        W42979   0.282  10.138   0.794
70555W        W42980  26.094   4.243  13.489
70556W        W42981  38.022  25.644  10.584
70557W        W42982  25.107  27.164   1.275
70558W        W42983  41.410   4.699   1.814
70559W        W42984  27.125  32.891  11.939
70560W        W42985  37.529  13.611  12.043
70561W        W42986  22.107  30.914   1.915
70562W        W42987  31.630  44.977   0.913
70563W        W42988  21.664  24.145  14.285
70564W        W42989  26.699  36.556   4.258
70565W        W42990  40.448   7.766   3.192
70566W        W42991   3.459  12.121   3.232
70567W        W42992   1.958  27.980  10.627
70568W        W42993  14.097   1.399  14.328
70569W        W42994  38.501   5.916   0.267
70570W        W42995  22.531   1.852  14.386
70571W        W42996  33.509   8.288   3.191
70572W        W42997  25.105  28.160   2.708
70573W        W42998  13.655   3.297   3.822
70574W        W42999  20.256  24.504  13.444
70575W        W43000  17.607  36.483  13.833
70576W        W43001  19.204  28.675   0.300
70577W        W43002  38.527  14.294   0.365
70578W        W43003  11.739  16.129  10.570
70579W        W43004   5.689  37.982   1.370
70580W        W43005  22.634  44.313  14.781
70581W        W43006  34.081  18.570   4.265
70582W        W43007  43.909  32.951  12.419
70583W        W43008  13.147  12.819   2.276
70584W        W43009  22.012  25.711   3.193
70585W        W43010  18.559   2.355  10.500
70586W        W43011   3.944  36.465   2.874
70587W        W43012   6.246  25.167   0.311
70588W        W43013  20.536  20.230   1.802
70589W        W43014  27.095   0.466   0.848
70590W        W43015   4.702   3.265   4.646
70591W        W43016  26.526  14.676  14.477
70592W        W43017  13.769   6.870  10.973
70593W        W43018   3.220  28.166   4.630
70594W        W43019  13.293  10.742   0.247
70595W        W43020   0.744   9.234   1.427
70596W        W43021  15.739  20.696   1.230
70597W        W43022   7.774  13.108   2.261
70598W        W43023  43.479  44.787   3.677
70599W        W43024  30.494  21.070  12.037
70600W        W43025  19.759  28.076   0.786
70601W        W43026  12.207  44.879  13.417
70602W        W43027  12.296   5.728   4.620
70603W        W43028  23.520  15.779  11.893
70604W        W43029  25.505  33.046  11.089
70605W        W43030   6.890  23.030   1.697
70606W        W43031  25.024   5.402  11.508
70607W        W43032  11.653  33.904   2.824
70608W        W43033  36.904  17.132   2.797
70609W        W43034  40.373  29.530   5.263
70610W        W43035   5.399  29.983   0.268
70611W        W43036  37.882  39.921   3.666
70612W        W43037   4.298  36.911   0.482
70613W        W43038   2.816  38.959  10.983
70614W        W43039  10.285  33.064   4.293
70615W        W43040  34.012  12.793  10.529
70616W        W43041   0.428   2.323   0.368
70617W        W43042  29.502  27.607   0.479
70618W        W43043  40.418   1.927  11.984
70619W        W43044   4.856  22.040   4.227
70620W        W43045  16.287  44.778   2.345
70621W        W43046   4.901  39.013  12.560
70622W        W43047   8.286   5.907   3.725
70623W        W43048   2.926  36.903   0.381
70624W        W43049  41.980  25.194  12.418
70625W        W43050  13.688  26.086  14.800
70626W        W43051   9.748  15.729  12.556
70627W        W43052  12.619  14.330   1.776
70628W        W43053  29.577  39.033   0.289
70629W        W43054   4.269  17.638  13.964
70630W        W43055  10.677  12.805   0.429
70631W        W43056  21.637  38.534   3.243
70632W        W43057   4.283  42.027   4.284
70633W        W43058  38.987  20.189   2.816
70634W        W43059  22.618  43.780  13.415
70635W        W43060  29.470  11.742  14.889
70636W        W43061  37.912   0.772  11.861
70637W        W43062   8.251  21.246  12.358
70638W        W43063  38.985  28.033   3.151
70639W        W43064   4.404  31.067  14.899
70640W        W43065  37.906  39.015  12.091
70641W        W43066   6.906   0.375  11.385
70642W        W43067   9.774  42.462   2.378
70643W        W43068  43.987  25.163   0.761
70644W        W43069   2.800   6.313   3.826
70645W        W43070  29.501  36.038  13.384
70646W        W43071   8.741   1.472   0.258
70647W        W43072  38.873  40.910  12.049
70648W        W43073  29.586  23.724  10.555
70649W        W43074  38.490  19.082   1.332
70650W        W43075  19.219  13.285  12.434
70651W        W43076  18.694   2.368  11.411
70652W        W43077  26.122  10.169  13.854
70653W        W43078  19.662  24.127  13.459
70654W        W43079  33.996  34.037   0.860
70655W        W43080  35.006  17.574  14.433
70656W        W43081  17.578  14.253   3.316
70657W        W43082  42.368  37.519   2.672
70658W        W43083  12.638  27.031   2.211
70659W        W43084  27.989   2.881   3.206
70660W        W43085  13.169  32.635  12.501
70661W        W43086  37.569  33.087   1.718
70662W        W43087  14.750  25.499   1.934
70663W        W43088  34.456  16.653   0.870
70664W        W43089   3.712  18.683  11.951
70665W        W43090  28.104  22.021  14.389
70666W        W43091  42.944  28.971  13.453
70667W        W43092  39.004  27.003  11.427
70668W        W43093   9.652   4.265   2.710
70669W        W43094  28.104  17.607   0.733
70670W        W43095  11.269  32.414  13.956
70671W        W43096   7.782  37.480  11.426
70672W        W43097   1.871  28.606  10.957
70673W        W43098  24.006  40.954   2.255
70674W        W43099  25.217  37.004   2.725
70675W        W43100  34.912   4.267   2.261
70676W        W43101  27.025   5.377   0.744
70677W        W43102  33.584  19.250   0.286
70678W        W43103  35.933   3.891   1.934
70679W        W43104  32.997  26.040   0.267
70680W        W43105  34.962  38.070  11.967
70681W        W43106   0.828  34.514  14.878
70682W        W43107  11.654  18.567   3.281
70683W        W43108  13.245  16.292   1.393
70684W        W43109  11.765  21.626   2.881
70685W        W43110  22.699   8.194  14.845
70686W        W43111  34.868  28.933  12.393
70687W        W43112  14.171  44.823   4.707
70688W        W43113  31.912   4.416  14.473
70689W        W43114  24.544   9.153   2.721
70690W        W43115   6.359  33.009  12.879
70691W        W43116  41.393  33.874   2.354
70692W        W43117  15.760  43.979   2.856
70693W        W43118  38.543  18.054  10.415
70694W        W43119   1.430  25.638   2.762
70695W        W43120  20.742  11.861  11.571
70696W        W43121  38.994   9.370   2.326
70697W        W43122   5.687  37.554   1.908
70698W        W43123  33.875  32.570  13.056
70699W        W43124  41.434   0.872   2.786
70700W        W43125  11.212  16.648  13.322
70701W        W43126  36.937   0.956  11.991
70702W        W43127  26.025   2.439   2.896
70703W        W43128  11.804   4.410  13.843
70704W        W43129  30.090  10.664  11.044
70705W        W43130  20.059   1.828  12.968
70706W        W43131  32.397  38.450  10.629
70707W        W43132  12.172  25.587  13.833
70708W        W43133   6.855   0.948  11.024
70709W        W43134   1.251  40.934   1.799
70710W        W43135  32.104  12.326   0.280
70711W        W43136  22.250  10.259  12.401
70712W        W43137  26.011  24.194   3.260
70713W        W43138  17.093   3.344  10.478
70714W        W43139  16.177  22.071  11.433
70715W        W43140  28.466  38.968  13.389
70716W        W43141  16.674  32.595  14.394
70717W        W43142  30.471  19.196  13.314
70718W        W43143  28.449  36.896  13.523
70719W        W43144  25.090  21.253  11.612
70720W        W43145  28.626   3.775  11.859
70721W        W43146  16.222  32.987   3.226
70722W        W43147   7.677   5.694  11.371
70723W        W43148  29.097  34.590   3.636
70724W        W43149   6.300  15.149   3.725
70725W        W43150  14.222   0.819  12.055
70726W        W43151  10.689  29.015  11.055
70727W        W43152  17.784  39.501  14.923
70728W        W43153  18.716  13.227  13.927
70729W        W43154   2.786  16.626  12.393
70730W        W43155  39.555  36.425   2.671
70731W        W43156  31.514  27.193  11.580
70732W        W43157  44.918  10.308   0.353
70733W        W43158  17.275  12.676  14.385
70734W        W43159   6.802  34.395  12.428
70735W        W43160  29.987   7.845   1.780
70736W        W43161  18.697  28.092  12.925
70737W        W43162  35.072  41.469   4.812
70738W        W43163   7.727  44.372  11.375
70739W        W43164  26.483   9.356  14.405
70740W        W43165  39.419  40.429   1.760
70741W        W43166  10.740  17.739  13.018
70742W        W43167  39.900   3.887  13.406
70743W        W43168  41.804   3.911  13.371
70744W        W43169  25.629   4.901   4.116
70745W        W43170  31.450  12.786  11.978
70746W        W43171  15.782  37.341   4.689
70747W        W43172  16.774   4.701  12.566
70748W        W43173  39.389  18.118  10.504
70749W        W43174   4.932  36.350   0.800
70750W        W43175  15.704  15.791  11.576
70751W        W43176  17.680   6.327   4.196
70752W        W43177  18.197  27.559  12.048
70753W        W43178   2.844  42.416   4.682
70754W        W43179  29.445  10.791   1.840
70755W        W43180  24.126   5.871  14.800
70756W        W43181   4.334  26.103  14.896
70757W        W43182  44.290  26.626   4.640
70758W        W43183  29.132  25.605   4.140
70759W        W43184  17.647   1.445   2.827
70760W        W43185  16.181  22.528   1.772
70761W        W43186  42.030   5.763   4.706
70762W        W43187  38.556  35.510  12.443
70763W        W43188  32.503  29.530  11.025
70764W        W43189  13.659  34.414  10.955
70765W        W43190   9.280   8.747   5.772
70766W        W43191   9.744  20.137   2.869
70767W        W43192  24.524  36.911  11.588
70768W        W43193  25.107   6.842  13.802
70769W        W43194  31.415  42.937   2.887
70770W        W43195  10.663  35.929   3.191
70771W        W43196   4.273   7.778   3.850
70772W        W43197  43.791  16.300  13.869
70773W        W43198  20.580   0.826  14.858
70774W        W43199  17.797   2.418  11.119
70775W        W43200  22.044  35.426   1.783
70776W        W43201   6.394  43.828   2.723
70777W        W43202  15.630   9.812   3.387
70778W        W43203   7.380   6.294   3.216
70779W        W43204   3.869   2.727  13.907
70780W        W43205  20.219  20.669  10.999
70781W        W43206  15.735  38.844  12.488
70782W        W43207  14.194  23.076  14.441
70783W        W43208  32.399   3.368  12.439
70784W        W43209  35.008  35.564  12.865
70785W        W43210  38.939  27.151   1.788
70786W        W43211  23.625   9.327  13.042
70787W        W43212  27.659   0.891  13.472
70788W        W43213  33.576  44.926  14.947
70789W        W43214  26.066  40.504  14.381
70790W        W43215  42.844  21.164   3.859
70791W        W43216  25.973  10.749  11.072
70792W        W43217  39.019  27.096  14.893
70793W        W43218   9.227  33.000  14.899
70794W        W43219  21.544  27.462   1.741
70795W        W43220   4.771  32.080  10.014
70796W        W43221  41.355  17.725  12.842
70797W        W43222  28.619   6.182  13.853
70798W        W43223  33.990  40.530   3.178
70799W        W43224  20.057  32.475  12.909
70800W        W43225  17.724  43.777  14.030
70801W        W43226   4.434  36.994  14.471
70802W        W43227  10.688  26.531   4.230
70803W        W43228  39.510  34.409   2.397
70804W        W43229   5.422   2.251  12.409
70805W        W43230  13.635   3.845  12.004
70806W        W43231  31.095   4.893  13.504
70807W        W43232  43.955  33.975   1.410
70808W        W43233  33.483  42.296  12.901
70809W        W43234  23.065  43.860   4.833
70810W        W43235  16.106   1.295  12.393
70811W        W43236  26.666  38.331   3.789
70812W        W43237  12.356  15.181   2.225
70813W        W43238  36.593   6.836   1.782
70814W        W43239  12.258   9.796  14.364
70815W        W43240  11.767  18.112   3.717
70816W        W43241  19.733   1.914   2.866
70817W        W43242  36.026  36.969  14.288
70818W        W43243  17.128  29.454  14.921
70819W        W43244   2.443  14.333   2.200
70820W        W43245  17.657  21.238  11.075
70821W        W43246  13.176  32.069   2.743
70822W        W43247  35.428   1.931  13.810
70823W        W43248  21.515  24.208   1.250
70824W        W43249   9.756  20.096   3.672
70825W        W43250  32.553  27.955  12.991
70826W        W43251  22.174   2.799  11.966
70827W        W43252  26.069  16.125  11.027
70828W        W43253  43.419  39.972  13.953
70829W        W43254  20.617  25.703   1.319
70830W        W43255   4.734  20.636  14.482
70831W        W43256  33.502  34.890  14.926
70832W        W43257   3.358  17.602  11.025
70833W        W43258  29.092   9.652   1.749
70834W        W43259  13.260  23.986   3.699
70835W        W43260  41.353  26.475   4.728
70836W        W43261  29.563  27.951  10.472
70837W        W43262  30.940   1.409   3.738
70838W        W43263   1.254  38.003  14.448
70839W        W43264  40.001  30.531  13.985
70840W        W43265   9.333  14.672   4.336
70841W        W43266  34.110  31.556  14.435
70842W        W43267   0.883  38.504  13.838
70843W        W43268  23.129   5.876  13.851
70844W        W43269   6.409   7.886  12.380
70845W        W43270  36.961  27.662  14.799
70846W        W43271  27.513  13.342  14.030
70847W        W43272  39.895   4.320  12.862
70848W        W43273   2.941  37.346  12.076
70849W        W43274  34.940  21.057   2.762
70850W        W43275   8.850   5.696   0.890
70851W        W43276  17.798  32.548  10.968
70852W        W43277  24.219  38.436   0.327
70853W        W43278  44.910  20.069   2.702
70854W        W43279  10.730   2.389  11.029
70855W        W43280  43.800  43.934  13.411
70856W        W43281  27.448   0.257   1.742
70857W        W43282  18.565   5.879  14.974
70858W        W43283   6.866   9.733  14.846
70859W        W43284  35.942   2.376   0.473
70860W        W43285   3.308  32.592   0.261
70861W        W43286   6.228  43.785   4.685
70862W        W43287  13.191  40.302   2.781
70863W        W43288  24.109  10.678   5.641
70864W        W43289  26.684  40.940   3.662
70865W        W43290   6.902  25.699   4.699
70866W        W43291  36.867  14.786   0.250
70867W        W43292  38.570   3.775  11.909
70868W        W43293  33.131  22.537  11.424
70869W        W43294   1.476  42.806  11.477
70870W        W43295  24.143  16.240  14.499
70871W        W43296  14.120  26.180  11.024
70872W        W43297  35.897  43.884  13.040
70873W        W43298  30.558  26.986  14.316
70874W        W43299  18.734  11.650   5.145
70875W        W43300  42.413  41.483  13.374
70876W        W43301  23.694  40.542   1.698
70877W        W43302  10.756  37.908   2.210
70878W        W43303  21.178  38.902  13.800
70879W        W43304   4.270  38.380  12.382
70880W        W43305  16.657  33.049  12.364
70881W        W43306  35.570   8.756  11.120
70882W        W43307  19.273  25.202   2.846
70883W        W43308  28.012   7.740  14.954
70884W        W43309  41.836  12.257   1.263
70885W        W43310  12.123  30.589  11.396
70886W        W43311  28.179  29.576   3.355
70887W        W43312   8.655  37.467   3.353
70888W        W43313  42.912  20.217  11.066
70889W        W43314   7.335  42.984  12.830
70890W        W43315  37.903   8.386  13.315
70891W        W43316  24.567  12.356   2.847
70892W        W43317   6.210  31.896  12.876
70893W        W43318   7.253  34.904   9.610
70894W        W43319  30.473   6.311  11.435
70895W        W43320  14.246  29.013   4.280
70896W        W43321  20.725  21.139  14.001
70897W        W43322   5.328  15.119  12.475
70898W        W43323   0.331  42.817   4.181
70899W        W43324   7.177  30.118  14.015
70900W        W43325  35.110  17.131   3.251
70901W        W43326  44.413  37.066  13.967
70902W        W43327  39.366  36.424  11.518
70903W        W43328  16.217  16.141   0.733
70904W        W43329  23.161  22.522   1.753
70905W        W43330  14.640  39.367   1.402
70906W        W43331   8.794  10.659   3.806
70907W        W43332  28.022   8.865  13.534
70908W        W43333  19.241  11.724  14.804
70909W        W43334  26.544   6.704   4.761
70910W        W43335   6.186  15.581   0.463
70911W        W43336  22.734  27.016   3.170
70912W        W43337  27.482  11.853   2.868
70913W        W43338  23.189  40.832  11.531
70914W        W43339   3.219  20.615   0.811
70915W        W43340  19.689  34.595   4.341
70916W        W43341  28.949  35.869  14.418
70917W        W43342  27.036   4.717   4.762
70918W        W43343  10.230   6.357   9.637
70919W        W43344  31.410  25.601  12.940
70920W        W43345  39.923  28.568  14.961
70921W        W43346  10.763  21.028  12.029
70922W        W43347  38.534  37.582   1.935
70923W        W43348  31.942  37.970  13.950
70924W        W43349   8.837   7.273   0.731
70925W        W43350   6.809   1.836   0.930
70926W        W43351  15.222  11.146  13.857
70927W        W43352  20.683   3.449   4.601
70928W        W43353  18.589   4.768  12.510
70929W        W43354  28.448  30.551  11.448
70930W        W43355  32.444   5.218  13.881
70931W        W43356  24.219  44.473  12.092
70932W        W43357   8.848   5.756   4.634
70933W        W43358  28.001   3.242   4.277
70934W        W43359   5.352  27.009  14.796
70935W        W43360  38.851   8.399   4.675
70936W        W43361  20.121  31.997   3.725
70937W        W43362  26.683  41.792  12.832
70938W        W43363   2.765  39.967  12.528
70939W        W43364  24.216  12.208   2.308
70940W        W43365  29.020  43.369   3.650
70941W        W43366  42.371  42.839   0.253
70942W        W43367  37.892  11.263   0.771
70943W        W43368  18.171  15.700   0.734
70944W        W43369  10.275  29.925  14.946
70945W        W43370   8.288  19.067  11.904
70946W        W43371  27.951  25.629  13.910
70947W        W43372  26.086  31.129   0.462
70948W        W43373  16.309  17.184   3.823
70949W        W43374   3.363  40.383   1.898
70950W        W43375   4.744  21.091  11.044
70951W        W43376  32.554  42.378   4.723
70952W        W43377   3.954  40.511   1.319
70953W        W43378   3.358  19.713   0.458
70954W        W43379  40.846  15.815   1.305
70955W        W43380  20.667  19.273  13.876
70956W        W43381  15.603   9.723   1.893
70957W        W43382  30.939  19.245   3.666
70958W        W43383  11.780  42.512   1.935
70959W        W43384   9.376  24.542  13.022
70960W        W43385  16.138   8.779   0.283
70961W        W43386  31.023   3.244   2.316
70962W        W43387  43.937   0.806   1.262
70963W        W43388  36.346   5.394   0.462
70964W        W43389  12.619   0.866  13.378
70965W        W43390  12.273  28.095  11.126
70966W        W43391  28.159  14.217   5.174
70967W        W43392  39.352  34.076  12.907
70968W        W43393  25.585  34.990   3.371
70969W        W43394   2.746  28.084  12.561
70970W        W43395  43.979  27.107  13.889
70971W        W43396  30.004   3.297  13.320
70972W        W43397   3.380  22.023  12.391
70973W        W43398  14.176  25.151  10.015
70974W        W43399  43.347  40.997   1.437
70975W        W43400  18.068  44.990   3.659
70976W        W43401  32.585  18.615   1.714
70977W        W43402  27.612   8.392  11.924
70978W        W43403  38.418  20.041   3.270
70979W        W43404  15.742  20.046  11.892
70980W        W43405   5.896   7.201   4.669
70981W        W43406  35.017  35.520  13.337
70982W        W43407  16.649   7.823  11.957
70983W        W43408   7.877  37.053   0.735
70984W        W43409  18.156   7.850   4.635
70985W        W43410  17.610  11.756   2.280
70986W        W43411  44.999  26.162  13.537
70987W        W43412  16.799  22.649   2.718
70988W        W43413  21.531   7.184   0.789
70989W        W43414  15.183   8.278   0.360
70990W        W43415  31.926  38.380   0.389
70991W        W43416  16.124  36.928  14.426
70992W        W43417  11.665  19.109  14.314
70993W        W43418  30.633   9.166  13.519
70994W        W43419  10.726   4.264  12.361
70995W        W43420  38.998   1.821  10.926
70996W        W43421  10.188   0.835   3.857
70997W        W43422  35.073   7.314   9.991
70998W        W43423  29.935  34.602   3.717
70999W        W43424  43.766  34.587   2.216
71000W        W43425   0.462  11.820   1.889
71001W        W43426  21.211  28.994   3.633
71002W        W43427  30.021  32.492   2.783
71003W        W43428   7.840  20.702  12.875
71004W        W43429  18.582  42.917  11.022
71005W        W43430  37.076  23.157   1.362
71006W        W43431  39.543  34.571   2.773
71007W        W43432  15.130  11.652   3.212
71008W        W43433   9.761  21.605  13.503
71009W        W43434  26.076  32.062  11.015
71010W        W43435  41.359  39.829   0.299
71011W        W43436  23.182  10.275  11.058
71012W        W43437  13.617   6.207   4.306
71013W        W43438  33.124  14.641   2.292
71014W        W43439  31.950  26.969   3.283
71015W        W43440  41.896  12.831  13.043
71016W        W43441  42.515   1.946   1.744
71017W        W43442  14.114   2.776  14.484
71018W        W43443  30.489  10.791   1.734
71019W        W43444  31.506  36.364  14.993
71020W        W43445  27.999   3.322   4.627
71021W        W43446   7.745  24.481  14.310
71022W        W43447   9.295  39.827  12.506
71023W        W43448  13.632  40.802  13.327
71024W        W43449  30.913  38.979  14.353
71025W        W43450  14.310  37.364   0.962
71026W        W43451  41.902  19.559   3.377
71027W        W43452  14.238  29.019  12.076
71028W        W43453  23.703  26.015   0.855
71029W        W43454  22.160  21.175   4.120
71030W        W43455  10.290  20.251   3.707
71031W        W43456  42.945  12.741  11.427
71032W        W43457   6.761  43.360   1.931
71033W        W43458  38.860  11.213  14.874
71034W        W43459  13.740  20.241  11.959
71035W        W43460  13.619  18.567  10.440
71036W        W43461  30.988   3.844  14.318
71037W        W43462  12.192  11.151  11.561
71038W        W43463  38.512   6.752  13.357
71039W        W43464  16.725  28.075   1.279
71040W        W43465  34.003  16.702   2.349
71041W        W43466  12.272  18.745  10.538
71042W        W43467  28.108   0.348   4.706
71043W        W43468  44.777  34.970   4.597
71044W        W43469  12.255  34.915  14.866
71045W        W43470   5.430  22.243   3.828
71046W        W43471  15.753   1.242  14.362
71047W        W43472  14.799  29.614  14.849
71048W        W43473  20.059  20.625   2.186
71049W        W43474  34.537  36.481  11.595
71050W        W43475  12.148  17.117  14.482
71051W        W43476  21.188  41.395   3.677
71052W        W43477  43.277  42.381  12.450
71053W        W43478  38.343  17.791   0.886
71054W        W43479  25.492  28.116  10.149
71055W        W43480  31.496  42.301   0.747
71056W        W43481  24.015  24.179  10.601
71057W        W43482  20.220  28.930   1.793
71058W        W43483  33.497  32.594  12.870
71059W        W43484   7.404  23.537  13.472
71060W        W43485  25.137   9.205  13.054
71061W        W43486  13.820  30.005  14.449
71062W        W43487  42.781  44.914  14.432
71063W        W43488  36.385  22.502   3.654
71064W        W43489  44.316  43.827  12.365
71065W        W43490   1.865   5.404   4.345
71066W        W43491   4.225  16.767   2.664
71067W        W43492  12.614  33.502  12.875
71068W        W43493  15.745   9.383   0.419
71069W        W43494  34.877   8.869   4.808
71070W        W43495  38.059  36.854  10.938
71071W        W43496  18.737  35.452  12.460
71072W        W43497  19.157  44.979   3.344
71073W        W43498  21.047  14.787   5.185
71074W        W43499  22.744  25.107  14.928
71075W        W43500  43.005  22.732   2.318
71076W        W43501  40.382  36.868   4.714
71077W        W43502  20.028  44.971   3.275
71078W        W43503  43.776   6.424   3.708
71079W        W43504   4.224  35.503  11.014
71080W        W43505   2.367   2.266   4.693
71081W        W43506  38.544  21.045  11.512
71082W        W43507   6.304   0.865   5.191
71083W        W43508  20.539  13.253  13.506
71084W        W43509  21.605  30.497   0.875
71085W        W43510  19.605  44.767   3.289
71086W        W43511   7.194   5.746  11.612
71087W        W43512  28.530  29.601   1.265
71088W        W43513  21.625   1.280  11.027
71089W        W43514  23.729  43.022   1.845
71090W        W43515  18.242  26.987  11.607
71091W        W43516   1.850  37.974  10.913
71092W        W43517  37.478  35.403   3.159
71093W        W43518  22.212  40.046   0.863
71094W        W43519  26.045  33.572   1.447
71095W        W43520   8.301  12.706   0.369
71096W        W43521  37.088  34.878   1.292
71097W        W43522   8.768  28.572   1.376
71098W        W43523   3.234  10.738   0.399
71099W        W43524  41.334  43.299   4.314
71100W        W43525  40.008  37.849  14.780
71101W        W43526   5.694  10.375  11.487
71102W        W43527   1.915  17.631   2.770
71103W        W43528  26.081  42.450   4.823
71104W        W43529  39.335   2.374   1.719
71105W        W43530   0.271   1.848   1.695
71106W        W43531  27.017  43.888  10.938
71107W        W43532  42.883   5.369   3.293
71108W        W43533  19.609  20.210   4.199
71109W        W43534   1.461  40.531   0.750
71110W        W43535  23.053  26.688  11.990
71111W        W43536  33.031   2.304  14.956
71112W        W43537   6.334  17.281   0.756
71113W        W43538  40.911  18.693   2.835
71114W        W43539  36.474  32.463  10.446
71115W        W43540  22.064   2.807  12.981
71116W        W43541  23.147  39.392   0.829
71117W        W43542  23.648  10.847  13.050
71118W        W43543  22.050  40.938   2.409
71119W        W43544  43.824   1.306  11.443
71120W        W43545  27.476  11.683  12.503
71121W        W43546  14.270  41.932   1.437
71122W        W43547  38.423   1.895   3.191
71123W        W43548  18.592   7.374  11.087
71124W        W43549  30.040  18.218  10.460
71125W        W43550  35.029   4.394  14.311
71126W        W43551  27.625  43.927  14.889
71127W        W43552  33.128  17.086  14.444
71128W        W43553   1.863   8.825  13.503
71129W        W43554  34.449  20.582   2.339
71130W        W43555  43.444   8.324   0.750
71131W        W43556  13.161  21.019  11.028
71132W        W43557  33.072  33.969  10.568
71133W        W43558  17.158  24.048  11.898
71134W        W43559  34.446  34.017   1.221
71135W        W43560   8.703  40.483   1.734
71136W        W43561  12.289  10.854  12.010
71137W        W43562  13.643   9.647  13.513
71138W        W43563  22.661  33.998  11.490
71139W        W43564  30.468  35.544  11.972
71140W        W43565  26.518  32.459  10.638
71141W        W43566  14.284  10.156   2.828
71142W        W43567  13.802  12.125   1.850
71143W        W43568  24.515  19.586   0.279
71144W        W43569  18.753  28.158   4.175
71145W        W43570  22.098  32.008  10.992
71146W        W43571  31.416   0.787  11.943
71147W        W43572  41.518  25.490   0.312
71148W        W43573   8.380  18.248   2.776
71149W        W43574  25.525  32.958   0.772
71150W        W43575  35.426  21.149  13.470
71151W        W43576   2.894  41.309  13.976
71152W        W43577  16.096  37.547  13.870
71153W        W43578  27.650  10.199  12.886
71154W        W43579  17.572  33.986  13.889
71155W        W43580  31.530  25.687   1.768
71156W        W43581   6.352  29.925  13.413
71157W        W43582  22.603  12.324  13.794
71158W        W43583  22.048   9.761  12.898
71159W        W43584  21.047   5.724   2.886
71160W        W43585  30.462   4.792   0.408
71161W        W43586  19.767   7.353  10.448
71162W        W43587  24.628  15.619  11.560
71163W        W43588  22.675  11.802   0.334
71164W        W43589  10.721  14.212  10.639
71165W        W43590  36.995  43.360  10.530
71166W        W43591  29.080  42.285   4.796
71167W        W43592  31.939  27.034   3.786
71168W        W43593  14.191   0.757   0.880
71169W        W43594  22.552  40.012   1.923
71170W        W43595   9.289  25.165   2.285
71171W        W43596  28.965  11.128  10.910
71172W        W43597  17.227  42.407  10.454
71173W        W43598  32.964  18.732  14.966
71174W        W43599  36.075  13.790  11.391
71175W        W43600  31.438  43.293  13.984
71176W        W43601  34.040  37.472   4.354
71177W        W43602  15.329  31.982   0.255
71178W        W43603  23.557  42.881  12.879
71179W        W43604  29.471  37.573  14.813
71180W        W43605  15.640  19.613  13.527
71181W        W43606  38.838  29.664  12.964
71182W        W43607   6.227  30.053  11.023
71183W        W43608  11.781  10.376  10.946
71184W        W43609  40.043  38.009  14.501
71185W        W43610   3.444  44.259   0.896
71186W        W43611  23.239  31.415  13.973
71187W        W43612   9.647  37.039  10.536
71188W        W43613  20.576  43.789   0.746
71189W        W43614   4.805  22.527   2.196
71190W        W43615  42.907   0.804   4.724
71191W        W43616  14.644  16.734   3.685
71192W        W43617  28.626  37.520  11.909
71193W        W43618  17.600   1.379  10.939
71194W        W43619   8.313  25.525  12.926
71195W        W43620  18.683  21.043  12.858
71196W        W43621  23.206  28.993  11.986
71197W        W43622  41.792  26.032  11.078
71198W        W43623  21.575  36.863  10.512
71199W        W43624  23.193   8.291  14.896
71200W        W43625  39.424  11.685  11.544
71201W        W43626  36.559   3.342   2.783
71202W        W43627  28.984   9.284   2.208
71203W        W43628  13.345  19.079  14.463
71204W        W43629   7.679   7.796   2.250
71205W        W43630  33.605  24.649  14.858
71206W        W43631  36.365  14.723  12.467
71207W        W43632  15.164  29.509   0.774
71208W        W43633  22.062  13.705  11.105
71209W        W43634  26.149  13.791  10.575
71210W        W43635  16.201  30.051  11.417
71211W        W43636  43.294  20.089   1.331
71212W        W43637  17.162  29.948  14.819
71213W        W43638  22.239  28.599   2.666
71214W        W43639  33.518  28.047  11.057
71215W        W43640   3.790  24.107   0.768
71216W        W43641  33.058  23.122  14.833
71217W        W43642  26.550  28.131  14.507
71218W        W43643   4.296  22.047   3.836
71219W        W43644  25.505  16.659   1.294
71220W        W43645   6.224  15.684  11.012
71221W        W43646   5.717  41.318   4.322
71222W        W43647  20.735  19.711   2.748
71223W        W43648  23.645  20.559  13.955
71224W        W43649  21.255   5.824   2.231
71225W        W43650  39.857  21.564   1.723
71226W        W43651  14.094  39.949  11.605
71227W        W43652  38.380  40.313  14.837
71228W        W43653   8.685  12.117   0.862
71229W        W43654   9.724  39.507  12.388
71230W        W43655  19.230  32.904   3.796
71231W        W43656   0.743  38.439   3.302
71232W        W43657  40.429  36.566  10.949
71233W        W43658  36.935  34.113  10.424
71234W        W43659  11.676  35.597  14.998
71235W        W43660  18.054   6.225  11.098
71236W        W43661  25.705  17.600  13.498
71237W        W43662  11.698  40.314  12.015
71238W        W43663  33.886  42.008  13.936
71239W        W43664  43.434   7.229   3.381
71240W        W43665  13.621   8.753   3.771
71241W        W43666   8.876   1.411   1.292
71242W        W43667  22.046  21.699   0.898
71243W        W43668  13.802   6.852   1.223
71244W        W43669  25.025  38.441   3.295
71245W        W43670  42.003  25.522  10.423
71246W        W43671  41.978  39.913   2.861
71247W        W43672  40.924  11.687  13.979
71248W        W43673   7.897  33.500   2.685
71249W        W43674  22.214  32.954  11.386
71250W        W43675   5.327  42.840   0.351
71251W        W43676  27.121   2.751  11.969
71252W        W43677   9.197  19.552   1.237
71253W        W43678  26.666   4.943  12.857
71254W        W43679   2.726   4.383   1.216
71255W        W43680  33.012  26.673  10.434
71256W        W43681  12.740  14.331   1.391
71257W        W43682  39.938  13.785  13.904
71258W        W43683  15.094   3.866   1.443
71259W        W43684  30.563   3.260   4.607
71260W        W43685  30.444  35.852   3.331
71261W        W43686  16.264  10.665   0.346
71262W        W43687  17.712  16.269  14.432
71263W        W43688  26.129  43.478   2.304
71264W        W43689  13.136  32.924   1.335
71265W        W43690  33.877   7.742  10.505
71266W        W43691  31.962  12.167   0.807
71267W        W43692  32.441   4.224   0.896
71268W        W43693  34.927  17.197   0.866
71269W        W43694  38.361   4.379  12.362
71270W        W43695  43.980  25.199  13.447
71271W        W43696  42.425  32.628   4.834
71272W        W43697  38.867  11.649   2.702
71273W        W43698   1.464  32.952   2.282
71274W        W43699  38.007  43.436  11.879
71275W        W43700  19.574   5.406  14.361
71276W        W43701  14.599   6.204  11.858
71277W        W43702  20.218  16.200  10.526
71278W        W43703   3.429  17.658   3.147
71279W        W43704   3.406  36.377   2.341
71280W        W43705  33.970  30.936  10.437
71281W        W43706  40.984  18.194   1.225
71282W        W43707   1.903  35.921  11.855
71283W        W43708   5.845   1.298   2.268
71284W        W43709   4.722  21.518   3.189
71285W        W43710  31.079  31.008  10.943
71286W        W43711  44.271   2.816   1.827
71287W        W43712  15.199  19.535  12.019
71288W        W43713  20.085  38.900  12.878
71289W        W43714  16.604  41.961  14.336
71290W        W43715  41.425  38.405   4.336
71291W        W43716  29.019   8.729  10.624
71292W        W43717  23.519  10.367  13.892
71293W        W43718  26.105  10.650   4.729
71294W        W43719  11.181   3.273  14.926
71295W        W43720   0.482   6.833  11.001
71296W        W43721  23.987  16.603  14.418
71297W        W43722   8.668  27.029   3.711
71298W        W43723   1.936  43.978   1.255
71299W        W43724  37.493  21.236   3.360
71300W        W43725  34.891  37.931   3.153
71301W        W43726  34.046   6.795   0.374
71302W        W43727   4.886  34.460   3.366
71303W        W43728  17.077  11.151   2.760
71304W        W43729  11.856  28.044  12.917
71305W        W43730  17.684  22.171  13.338
71306W        W43731  14.666   1.295  14.327
71307W        W43732  23.538   8.336   4.308
71308W        W43733  20.242   2.910   2.272
71309W        W43734  33.508  32.510  13.842
71310W        W43735   9.319   8.775  11.468
71311W        W43736  32.040  31.514   1.381
71312W        W43737  40.508  35.965  11.528
71313W        W43738   5.331  17.632  13.543
71314W        W43739  24.079  40.525   2.368
71315W        W43740  19.133  30.542  11.558
71316W        W43741  43.785  12.657  13.397
71317W        W43742  42.347  36.916   3.290
71318W        W43743  23.042  25.578   2.345
71319W        W43744  29.920   5.232  11.439
71320W        W43745  14.105  23.214   4.834
71321W        W43746   9.233  32.940  13.007
71322W        W43747  14.810   5.816   3.207
71323W        W43748   6.218  13.196   0.364
71324W        W43749  42.956  13.661   4.785
71325W        W43750  31.521  40.371  12.929
71326W        W43751  36.392  43.005  13.986
71327W        W43752  19.171  42.977  10.529
71328W        W43753  30.920  37.567  11.489
71329W        W43754  11.646  28.504  13.011
71330W        W43755  11.244  32.100  13.866
71331W        W43756   2.792  18.263   3.325
71332W        W43757  38.971   0.304   2.819
71333W        W43758  43.378  38.432  14.360
71334W        W43759  44.951  35.523   4.194
71335W        W43760  30.150  12.319   0.912
71336W        W43761  38.859   9.379  14.999
71337W        W43762   0.283  20.552   0.749
71338W        W43763  29.983  30.117   4.793
71339W        W43764   8.666   8.324   4.294
71340W        W43765  30.481   5.384  14.443
71341W        W43766  18.218   8.370  10.997
71342W        W43767  10.329  16.657   4.291
71343W        W43768  13.732  33.937   1.713
71344W        W43769  41.511  42.882  13.411
71345W        W43770   8.662  26.566  14.852
71346W        W43771  19.285  18.131  10.907
71347W        W43772   8.764  36.048   0.396
71348W        W43773  35.886  33.484  12.504
71349W        W43774   0.451  29.625  13.461
71350W        W43775  26.067  43.421   4.772
71351W        W43776  23.169  15.154   0.413
71352W        W43777  38.396  30.433  11.443
71353W        W43778  41.799  28.037  11.540
71354W        W43779  20.625   6.298   3.167
71355W        W43780  44.419  35.949  11.882
71356W        W43781  21.026   8.886   3.384
71357W        W43782  20.189  35.531  12.379
71358W        W43783   1.975   2.446  13.358
71359W        W43784  19.674  38.853   0.873
71360W        W43785  22.017  43.807   1.805
71361W        W43786  35.473   9.203   2.684
71362W        W43787  19.182  35.107  14.761
71363W        W43788  18.086   9.696  13.027
71364W        W43789  31.448  30.510  11.127
71365W        W43790  21.577   9.201  14.807
71366W        W43791  15.125  26.546   0.299
71367W        W43792   9.245   7.354   4.825
71368W        W43793   6.221  24.714  12.553
71369W        W43794  44.968   1.733   4.215
71370W        W43795  38.907  18.051  12.909
71371W        W43796  11.232   9.739   2.895
71372W        W43797   0.805  42.352   4.609
71373W        W43798  40.361   6.300   1.935
71374W        W43799  42.444  26.050  14.878
71375W        W43800  10.696  13.798  13.497
71376W        W43801  32.627   7.190   2.230
71377W        W43802   9.365  21.100  12.509
71378W        W43803  40.488  29.610  14.491
71379W        W43804  10.141  17.759  11.024
71380W        W43805  41.922   5.889   1.703
71381W        W43806  44.993  29.652  14.840
71382W        W43807  20.155   1.272   2.370
71383W        W43808  20.060  15.613   4.646
71384W        W43809  17.267  11.754   5.141
71385W        W43810   3.855  19.219   2.750
71386W        W43811   7.891   1.850   4.600
71387W        W43812  44.500  12.192   9.922
71388W        W43813  13.721  25.637   3.669
71389W        W43814  41.885  32.624   1.322
71390W        W43815  30.484   0.858   2.804
71391W        W43816  39.497  40.040   4.685
71392W        W43817  13.157  10.202   4.347
71393W        W43818  23.706   1.839  14.913
71394W        W43819  19.573   6.723   1.221
71395W        W43820  44.267  26.190  11.994
71396W        W43821  39.009  34.405   1.284
71397W        W43822  25.178  34.484   2.752
71398W        W43823   3.291  10.295   2.734
71399W        W43824  40.970  31.434  14.817
71400W        W43825  34.916  13.345  10.910
71401W        W43826  41.880   7.238   2.855
71402W        W43827  40.944  24.702   1.747
71403W        W43828  41.342  25.116   3.274
71404W        W43829  26.482  40.338  10.967
71405W        W43830  39.537  15.692  13.351
71406W        W43831  37.484  37.853  11.039
71407W        W43832   9.710   5.197   9.973
71408W        W43833  27.064  29.469  13.522
71409W        W43834  18.210   7.905   4.232
71410W        W43835   6.810   0.850  14.390
71411W        W43836  26.015  12.127  13.534
71412W        W43837   3.438  44.891  11.061
71413W        W43838  12.180   7.188  12.389
71414W        W43839  18.209  27.465   3.234
71415W        W43840  12.305  21.752   1.283
71416W        W43841  14.661  12.286   1.372
71417W        W43842  24.010  44.283   2.891
71418W        W43843  28.513  13.714   1.229
71419W        W43844  13.329   9.706  10.908
71420W        W43845  44.895  27.109   4.728
71421W        W43846   0.301   6.263   0.838
71422W        W43847  24.587  43.849   2.728
71423W        W43848  25.530  18.546  11.061
71424W        W43849  39.935  11.816   3.730
71425W        W43850  44.922  17.162   2.295
71426W        W43851  25.605  39.447  13.400
71427W        W43852  20.034  25.131  14.902
71428W        W43853  42.963  37.040  12.389
71429W        W43854  19.734  14.280   1.829
71430W        W43855  10.814  20.538   1.391
71431W        W43856  16.713   9.733  11.594
71432W        W43857  23.666  39.464   1.441
71433W        W43858   9.820  36.978  10.983
71434W        W43859  35.579  34.926   4.340
71435W        W43860  29.150   9.703  11.594
71436W        W43861   1.458  15.182   0.807
71437W        W43862  14.772   3.843  11.995
71438W        W43863  36.043  22.666   0.767
71439W        W43864   1.435  28.069  13.929
71440W        W43865  33.074   0.857   0.301
71441W        W43866   4.930  19.137   1.414
71442W        W43867  24.059  23.130   2.319
71443W        W43868  38.473   7.771  13.516
71444W        W43869  42.834  34.603   2.402
71445W        W43870  24.221  14.164   1.849
71446W        W43871  22.613  36.979   1.790
71447W        W43872   9.701  24.030   0.889
71448W        W43873  43.468  34.545   2.868
71449W        W43874  27.549  32.946  12.389
71450W        W43875   7.792  23.226   0.821
71451W        W43876  16.796  29.017  11.094
71452W        W43877  18.746   8.267  13.040
71453W        W43878  35.543  43.826  13.904
71454W        W43879   7.734  43.006   2.304
71455W        W43880  42.330  22.515  10.949
71456W        W43881  16.568   8.752   0.814
71457W        W43882  28.572  36.511   0.373
71458W        W43883   8.327  44.501  14.918
71459W        W43884   9.225  12.323   0.741
71460W        W43885   3.288  43.465  12.097
71461W        W43886  29.463  30.640  12.974
71462W        W43887   6.836  34.455   4.264
71463W        W43888  17.206  39.823  10.989
71464W        W43889  23.148  19.607  12.530
71465W        W43890  43.340  37.087   3.261
71466W        W43891  20.614  24.684  13.317
71467W        W43892  13.801  33.047  13.897
71468W        W43893  10.193  23.696  14.829
71469W        W43894   5.410  42.980   3.717
71470W        W43895  31.533  44.499   2.751
71471W        W43896  18.761  37.472   2.261
71472W        W43897  34.904  39.965  14.900
71473W        W43898  29.170   6.815   0.313
71474W        W43899  13.791  16.726  12.952
71475W        W43900  29.919  27.663  10.616
71476W        W43901  23.533  42.986  12.048
71477W        W43902  10.276   5.401   0.359
71478W        W43903   7.367  35.017  13.819
71479W        W43904  36.368  20.209   1.820
71480W        W43905  34.892  26.571   2.380
71481W        W43906   8.870  41.535   1.343
71482W        W43907   2.246  33.093   1.704
71483W        W43908  22.062  29.940  12.384
71484W        W43909  10.749   0.773   1.859
71485W        W43910   9.325  29.457   0.773
71486W        W43911   5.260   3.234   4.139
71487W        W43912  43.911  34.888   4.790
71488W        W43913  22.041  25.666  14.425
71489W        W43914  44.882  10.785  12.848
71490W        W43915  24.493  18.230  11.049
71491W        W43916  29.159  22.066   3.316
71492W        W43917   3.842   8.879   1.345
71493W        W43918  28.459   5.337  14.781
71494W        W43919   3.844   6.330  13.398
71495W        W43920  34.388  44.978  11.504
71496W        W43921  18.174  10.322  12.575
71497W        W43922  17.151  34.405  10.587
71498W        W43923  30.507  24.213   0.799
71499W        W43924  37.855  44.310   4.698
71500W        W43925  18.096  34.002  14.787
71501W        W43926  17.254   9.291  11.998
71502W        W43927  18.184   3.747  14.504
71503W        W43928  38.403  37.068   1.699
71504W        W43929   7.210  36.558  10.509
71505W        W43930  39.442  19.711  10.905
71506W        W43931  38.053  24.094  10.902
71507W        W43932  28.000   7.392  14.772
71508W        W43933  35.943  43.307  13.001
71509W        W43934  14.111  13.270   1.233
71510W        W43935  20.554   7.228  12.993
71511W        W43936  29.539  21.112   5.081
71512W        W43937  11.811  16.273  13.403
71513W        W43938  15.085  40.394  14.846
71514W        W43939  15.263  32.605   2.783
71515W        W43940  37.543  20.596   0.931
71516W        W43941  28.039  24.007  10.475
71517W        W43942  25.505  36.416   0.962
71518W        W43943   9.751  28.985  14.031
71519W        W43944  39.548  19.069   0.396
71520W        W43945  29.460  24.077   4.324
71521W        W43946  40.968  42.512   3.338
71522W        W43947   5.218  28.143   3.346
71523W        W43948  37.881  23.189  13.908
71524W        W43949  36.414  23.016   5.767
71525W        W43950  17.136  35.974  14.361
71526W        W43951  23.165  42.349  11.372
71527W        W43952  26.554  42.869  11.079
71528W        W43953  34.888  26.143  12.577
71529W        W43954  23.040  15.619   2.695
71530W        W43955  30.538   5.206   1.782
71531W        W43956  42.792  44.779   0.790
71532W        W43957  40.513  42.326  11.103
71533W        W43958  22.650   5.211  11.861
71534W        W43959   8.246   0.749  12.362
71535W        W43960   0.463   2.832   4.318
71536W        W43961  31.456  31.923   0.773
71537W        W43962  20.083  35.886   3.384
71538W        W43963   2.250  27.460  10.534
71539W        W43964   5.204  35.106  10.628
71540W        W43965   7.296  25.176   0.883
71541W        W43966  21.561  11.656   3.201
71542W        W43967  22.045  13.304  12.400
71543W        W43968  10.289   3.435  13.498
71544W        W43969   6.842  18.057   1.799
71545W        W43970  23.722  38.929  11.914
71546W        W43971  38.339  32.521  11.612
71547W        W43972  39.905  21.613  10.531
71548W        W43973  41.351   9.711  13.468
71549W        W43974  41.790  13.777  14.806
71550W        W43975  34.110  23.693  11.082
71551W        W43976  10.259  29.615   3.165
71552W        W43977  38.363  34.954   0.910
71553W        W43978  33.626  29.503   9.976
71554W        W43979   6.355   8.245  12.001
71555W        W43980  29.027  12.673  12.974
71556W        W43981  25.488   7.310   3.235
71557W        W43982   0.421  41.474   3.375
71558W        W43983  30.945  24.565  10.474
71559W        W43984  34.084  23.533   0.831
71560W        W43985  35.535   0.772   1.873
71561W        W43986   6.190  18.226   1.806
71562W        W43987  18.290  19.082  12.344
71563W        W43988  21.205  37.394  12.096
71564W        W43989  40.815  39.021   0.812
71565W        W43990  29.612  24.165   0.754
71566W        W43991  35.489  40.870   3.159
71567W        W43992  16.744   0.414  10.568
71568W        W43993  39.832   1.298   1.220
71569W        W43994  20.191   5.786  11.122
71570W        W43995   5.797  33.020  13.329
71571W        W43996  28.487  14.755   4.208
71572W        W43997  32.016  32.891   0.840
71573W        W43998  14.768   4.734   4.799
71574W        W43999  19.126  32.496  12.504
71575W        W44000  23.680   4.899  12.542
71576W        W44001  39.554   3.789  13.954
71577W        W44002   9.728  10.156  11.020
71578W        W44003  23.029  21.552   4.726
71579W        W44004  30.587  16.227  12.571
71580W        W44005  18.219   0.409   2.226
71581W        W44006  31.150  30.955   1.367
71582W        W44007  40.970  21.138   4.620
71583W        W44008   5.241  39.340   1.274
71584W        W44009   8.238  16.157   0.328
71585W        W44010  40.421   5.391   4.820
71586W        W44011  21.619   1.289   2.193
71587W        W44012  19.203   0.791  13.989
71588W        W44013  29.495  20.218   2.345
71589W        W44014  25.573  30.454   3.263
71590W        W44015  33.462  23.069  11.001
71591W        W44016  37.933  38.053   1.847
71592W        W44017   5.360   2.773  12.549
71593W        W44018  24.140  40.010  11.871
71594W        W44019  38.474  16.574  10.412
71595W        W44020  13.187  44.797  10.927
71596W        W44021  19.113  29.438  10.943
71597W        W44022  27.679   0.797  14.975
71598W        W44023  16.693  26.541  11.908
71599W        W44024  38.465  41.291  13.801
71600W        W44025   1.297  27.984   4.637
71601W        W44026  36.477  42.883  10.465
71602W        W44027   5.883  17.116  11.864
71603W        W44028  23.496  32.414   3.329
71604W        W44029  28.059  19.733  10.607
71605W        W44030  42.817  36.503   4.267
71606W        W44031  25.484  35.031  14.351
71607W        W44032  23.225  11.373   5.568
71608W        W44033   4.857  43.515   2.387
71609W        W44034  32.996  33.045   4.674
71610W        W44035  33.942  38.979  10.536
71611W        W44036  34.914  35.537  11.519
71612W        W44037  34.089   3.346  12.567
71613W        W44038  27.069  18.124   0.763
71614W        W44039  16.779  18.239  11.962
71615W        W44040  33.496   0.754  10.041
71616W        W44041   3.370  39.857  13.496
71617W        W44042  41.821   9.195   1.799
71618W        W44043  24.073  39.996  13.440
71619W        W44044   7.356   6.704   2.201
71620W        W44045  21.150  29.941  14.896
71621W        W44046  44.387  26.141  12.480
71622W        W44047  33.938  34.039  14.384
71623W        W44048  31.135  39.920   4.218
71624W        W44049   4.432  15.318   2.776
71625W        W44050  40.368  19.558   9.935
71626W        W44051  34.471  36.387  14.835
71627W        W44052  17.120  27.686  12.862
71628W        W44053  44.855   9.164  11.383
71629W        W44054  29.129  10.870  14.841
71630W        W44055  40.935  44.892   0.375
71631W        W44056  26.699  28.008   4.653
71632W        W44057  23.547  11.275  12.042
71633W        W44058  34.944   7.189  13.062
71634W        W44059  36.937  10.366  11.897
71635W        W44060  43.004  15.725   0.753
71636W        W44061  40.402  10.840   4.798
71637W        W44062  23.635  13.758  13.940
71638W        W44063  27.178   6.841   1.259
71639W        W44064  40.895  16.276  10.404
71640W        W44065  35.864  13.178   4.767
71641W        W44066  39.029  18.238   0.905
71642W        W44067  19.567  21.648   3.646
71643W        W44068  28.989  15.790  14.398
71644W        W44069  43.881  21.551   3.148
71645W        W44070  31.632  20.143   4.693
71646W        W44071   4.409   1.779  10.417
71647W        W44072  34.481  32.475  14.358
71648W        W44073   4.911  29.053  12.034
71649W        W44074  41.989  23.544   2.306
71650W        W44075  10.281  12.352  12.824
71651W        W44076  22.134  24.984  14.479
71652W        W44077  31.577  22.553   4.773
71653W        W44078  31.908  41.369  12.389
71654W        W44079  29.032   8.679  12.505
71655W        W44080  27.541  38.930  14.962
71656W        W44081  16.643  27.537  12.003
71657W        W44082   1.805  40.484  14.497
71658W        W44083  35.100   9.266  13.053
71659W        W44084  14.163  41.298   3.847
71660W        W44085  34.083  18.277  13.459
71661W        W44086  37.392  37.443   0.959
71662W        W44087  24.122  18.771   2.789
71663W        W44088  16.310  11.215  14.379
71664W        W44089  16.786  21.608   3.653
71665W        W44090  13.195  29.975   2.304
71666W        W44091  43.488  21.058   4.799
71667W        W44092  17.068  18.157   4.788
71668W        W44093  30.433  14.220  10.639
71669W        W44094  21.574  11.296   1.361
71670W        W44095  12.240  44.972   0.855
71671W        W44096  25.714   3.219  12.852
71672W        W44097  36.413   4.429  14.875
71673W        W44098   6.804  26.110  10.586
71674W        W44099  17.200  37.577   5.310
71675W        W44100  38.861  15.272   1.308
71676W        W44101  17.184   6.353  12.041
71677W        W44102   3.836   9.757  11.555
71678W        W44103  17.582  32.026   0.244
71679W        W44104   1.903  42.388  11.477
71680W        W44105  25.089   1.923  11.052
71681W        W44106  22.530   0.868   1.730
71682W        W44107   9.308   4.735   2.188
71683W        W44108  44.893  40.476  10.939
71684W        W44109  11.228  19.249  14.463
71685W        W44110  15.174  15.089   2.335
71686W        W44111  41.411  34.897  12.501
71687W        W44112  44.907  35.974  13.884
71688W        W44113  16.251  13.839  12.074
71689W        W44114   8.778  24.560  11.989
71690W        W44115  41.915  22.603  12.380
71691W        W44116   7.332  43.840   3.217
71692W        W44117   7.254   7.751   0.946
71693W        W44118   9.209  35.569   9.574
71694W        W44119  18.698  32.425   5.789
71695W        W44120   7.691  27.129   0.428
71696W        W44121  35.907  35.415   0.398
71697W        W44122  42.857  14.125  14.760
71698W        W44123  35.929   8.299   1.427
71699W        W44124  16.613  26.966  11.026
71700W        W44125  40.994   5.227  14.844
71701W        W44126  44.264  12.119   0.891
71702W        W44127   6.381  27.161   3.172
71703W        W44128  21.227  32.629   0.853
71704W        W44129  28.483  16.683  11.533
71705W        W44130   1.935  20.119  12.534
71706W        W44131  43.477  16.689   4.297
71707W        W44132  25.146  31.950  14.326
71708W        W44133  37.878  40.389  12.574
71709W        W44134  38.377   9.265  12.566
71710W        W44135  41.318  26.513  12.909
71711W        W44136  38.349  18.663  11.883
71712W        W44137  18.067   6.383   0.824
71713W        W44138  12.817  16.643   3.770
71714W        W44139  37.454   9.277  14.826
71715W        W44140  14.807   5.874   2.275
71716W        W44141  27.629  44.442  13.029
71717W        W44142  25.993   3.444  11.467
71718W        W44143  26.555  32.437  11.129
71719W        W44144  22.104  11.830   4.116
71720W        W44145  29.534  38.928  13.826
71721W        W44146  16.661  39.947   0.248
71722W        W44147  33.537  39.914  11.527
71723W        W44148  40.391  34.962   3.155
71724W        W44149  43.325  12.352   2.268
71725W        W44150  15.812  33.495  11.077
71726W        W44151  17.082  14.785  12.929
71727W        W44152  10.706  18.214   1.376
71728W        W44153  26.965  16.195  12.915
71729W        W44154  16.178  31.631  10.496
71730W        W44155  38.901  36.391  10.507
71731W        W44156   1.827  36.946  13.329
71732W        W44157  37.420  27.984   0.292
71733W        W44158  41.297  13.289   0.435
71734W        W44159  39.344  18.161   0.771
71735W        W44160  14.834  31.483   0.262
71736W        W44161  17.566  27.118   0.298
71737W        W44162  20.534  17.293  12.534
71738W        W44163  27.046   9.769  10.960
71739W        W44164   8.403   9.872   3.765
71740W        W44165  39.454  29.006  13.346
71741W        W44166   4.212  26.605   1.769
71742W        W44167  10.302  44.914   3.344
71743W        W44168  33.591  34.112   4.206
71744W        W44169  38.016  14.216   5.162
71745W        W44170  23.218   8.773   2.846
71746W        W44171  19.137   1.838   0.811
71747W        W44172  40.910  32.397   3.333
71748W        W44173  23.238  27.683  14.457
71749W        W44174  41.355  21.705   4.742
71750W        W44175  22.622  43.431  10.963
71751W        W44176  26.693  10.775  14.327
71752W        W44177  43.310  39.480   0.305
71753W        W44178  13.748   1.460   1.894
71754W        W44179   7.685  43.864  12.928
71755W        W44180  29.096  36.087   4.313
71756W        W44181  41.481   4.300   0.425
71757W        W44182   1.959  22.565  11.402
71758W        W44183  44.788   1.901  11.607
71759W        W44184  44.833  35.494   1.247
71760W        W44185  19.572  21.710  13.902
71761W        W44186  21.045  30.515   0.304
71762W        W44187  14.114  42.319   1.404
71763W        W44188   1.975  22.650  14.372
71764W        W44189  39.546  24.187  13.923
71765W        W44190  36.384  14.282  11.574
71766W        W44191  33.115   8.253  11.401
71767W        W44192   1.358  40.850   4.775
71768W        W44193  19.261  43.845   0.923
71769W        W44194  27.035  10.202   2.223
71770W        W44195  11.823   8.339   2.794
71771W        W44196  19.259  36.893   2.753
71772W        W44197   4.903  43.859   4.767
71773W        W44198  39.865  23.066   2.396
71774W        W44199   5.303  39.326  12.949
71775W        W44200   5.762  22.604   2.272
71776W        W44201  17.116  24.032   0.780
71777W        W44202  21.655   8.339   5.745
71778W        W44203  20.080  36.419  11.970
71779W        W44204   0.274   4.237   2.370
71780W        W44205  37.429  13.298   5.205
71781W        W44206  30.495  25.548   3.323
71782W        W44207  36.076   0.834   1.725
71783W        W44208  13.287  33.406   2.402
71784W        W44209   7.399   2.801  10.535
71785W        W44210  20.643  42.365   3.695
71786W        W44211  43.963  31.623   4.188
71787W        W44212  24.193  41.370   4.349
71788W        W44213  10.660  38.933   3.148
71789W        W44214  11.757   4.709   1.698
71790W        W44215  30.029   5.850   0.865
71791W        W44216  37.024   9.158  10.444
71792W        W44217  39.859   2.824  10.633
71793W        W44218  10.784   6.677   4.165
71794W        W44219  33.575   7.389  13.385
71795W        W44220  35.575   4.744  14.353
71796W        W44221  30.124  30.954  11.432
71797W        W44222  30.057   5.902   4.235
71798W        W44223  35.545  22.561  14.465
71799W        W44224  22.593  35.603  14.000
71800W        W44225  38.352   4.909  14.412
71801W        W44226  13.290  36.971   4.306
71802W        W44227  43.990  21.621  13.523
71803W        W44228  15.621  22.516  14.275
71804W        W44229   8.717  40.944  10.476
71805W        W44230  22.517  43.359   3.381
71806W        W44231  27.032   3.876   0.917
71807W        W44232  37.407  37.966  12.522
71808W        W44233  17.771  19.638   3.677
71809W        W44234  18.776  43.359  12.898
71810W        W44235  19.081   8.291   1.930
71811W        W44236  33.097   3.934   2.288
71812W        W44237  27.174  25.562  11.917
71813W        W44238   1.822  10.699   2.198
71814W        W44239  30.158   8.248   4.165
71815W        W44240  18.169  28.182  13.869
71816W        W44241   2.282  36.903  13.366
71817W        W44242  21.216  29.666   2.387
71818W        W44243  11.750   6.889   2.416
71819W        W44244   5.883  24.144  13.893
71820W        W44245  20.530   0.931   2.842
71821W        W44246  22.655  30.132  11.001
71822W        W44247  24.185   5.758  12.995
71823W        W44248  22.236  23.197  14.997
71824W        W44249  24.193  39.879   2.821
71825W        W44250  24.536  42.796   3.704
71826W        W44251  19.127  20.630  11.924
71827W        W44252  30.615   6.345  14.011
71828W        W44253  40.323  15.157   0.875
71829W        W44254  17.589  41.947   2.734
71830W        W44255   8.782  12.358  13.989
71831W        W44256  32.624  11.176  13.533
71832W        W44257  19.767  32.405   2.203
71833W        W44258  23.044  44.357  10.987
71834W        W44259   9.365  22.730  10.921
71835W        W44260   5.338   7.743   2.337
71836W        W44261  30.479  23.238  12.880
71837W        W44262   1.410  17.728  13.812
71838W        W44263  12.291  19.704   0.808
71839W        W44264  33.596   5.748   0.833
71840W        W44265  38.951   8.774   4.650
71841W        W44266  39.483  41.871   2.296
71842W        W44267  29.463  28.014  13.346
71843W        W44268  15.620  44.331  10.038
71844W        W44269  41.860  23.037   1.911
71845W        W44270  39.537  27.148  11.557
71846W        W44271  10.293  25.097  13.846
71847W        W44272  10.846  38.028  12.860
71848W        W44273   3.709   6.236  10.467
71849W        W44274   5.425  34.434  11.028
71850W        W44275   0.774  44.764   0.784
71851W        W44276  20.749  22.121   3.686
71852W        W44277  44.884  13.109  13.320
71853W        W44278  23.091   3.794   2.756
71854W        W44279  16.306  21.195  11.986
71855W        W44280  30.084  39.015   0.833
71856W        W44281  36.895   9.718   0.795
71857W        W44282  25.493  41.418  14.316
71858W        W44283  30.145   5.436  14.343
71859W        W44284  27.615  20.749  11.871
71860W        W44285  40.540  23.531  12.523
71861W        W44286   0.833   3.932  14.432
71862W        W44287   4.842  18.115   2.678
71863W        W44288  16.177   6.864   4.173
71864W        W44289  26.541   1.289   4.715
71865W        W44290   0.271   2.826   2.896
71866W        W44291  33.883   3.381   4.773
71867W        W44292  41.986   4.363   0.281
71868W        W44293  19.770   4.741  10.560
71869W        W44294  13.829   2.468  14.296
71870W        W44295  24.125  40.348  11.066
71871W        W44296  14.746  44.918  13.007
71872W        W44297  11.835  13.259  11.902
71873W        W44298   0.747  36.572  11.929
71874W        W44299   3.390  24.028  14.404
71875W        W44300  21.614  24.174  11.548
71876W        W44301  17.691  34.053   0.876
71877W        W44302  25.006  44.441  13.028
71878W        W44303  28.466  12.251  11.474
71879W        W44304   4.812  29.091   1.276
71880W        W44305   2.349  32.423   4.288
71881W        W44306  31.477  26.616   5.228
71882W        W44307  14.774  41.338   2.727
71883W        W44308   0.420  12.677   1.429
71884W        W44309   4.879  38.461   4.794
71885W        W44310  28.528  30.123   0.771
71886W        W44311   8.163   3.757   3.863
71887W        W44312  20.269   0.299  12.517
71888W        W44313  15.635  35.578  11.003
71889W        W44314   0.890   7.289   0.788
71890W        W44315  35.941  18.169  13.898
71891W        W44316   0.493   7.891   3.801
71892W        W44317  11.138  43.499   3.296
71893W        W44318  33.431  29.484  13.453
71894W        W44319  10.707   5.726   4.726
71895W        W44320   0.918  35.885   2.796
71896W        W44321  36.847  19.603   3.326
71897W        W44322   0.928   6.698   1.298
71898W        W44323   1.238  18.283  10.599
71899W        W44324   9.836   5.780   5.630
71900W        W44325  41.490  35.366  11.495
71901W        W44326  18.706   3.424   0.793
71902W        W44327  36.353  40.949   1.244
71903W        W44328  11.148  30.574  10.509
71904W        W44329  16.645  42.423  14.340
71905W        W44330  24.533  41.456  12.432
71906W        W44331  43.777  24.578  13.964
71907W        W44332  44.496  27.152  10.531
71908W        W44333  12.311  44.312   1.267
71909W        W44334  36.967  36.914  10.902
71910W        W44335  13.604  44.311  13.862
71911W        W44336  15.113  16.577   0.461
71912W        W44337  30.138  19.656   2.861
71913W        W44338  14.694  21.071   0.751
71914W        W44339  36.508   3.297  11.864
71915W        W44340  15.249  43.371   1.421
71916W        W44341  29.516  14.651  14.774
71917W        W44342  19.054  31.581  11.494
71918W        W44343   2.770   4.429  14.309
71919W        W44344  25.598  16.648   3.646
71920W        W44345  29.120  22.743  14.984
71921W        W44346   7.748  17.280  14.489
71922W        W44347  34.923  13.729   1.817
71923W        W44348  13.243  43.484  11.064
71924W        W44349  13.135  41.491  12.909
71925W        W44350  10.348   5.799  11.576
71926W        W44351  44.310  38.511  14.368
71927W        W44352  11.660  22.227   1.214
71928W        W44353  39.345  22.012   3.692
71929W        W44354   1.734   3.884  10.984
71930W        W44355  22.680  16.635  11.016
71931W        W44356  44.436   1.444  13.446
71932W        W44357  35.593   8.885  14.313
71933W        W44358   1.757  11.676  12.884
71934W        W44359   9.386  36.942  10.480
71935W        W44360  30.440  16.715   5.231
71936W        W44361  24.187  32.123   4.275
71937W        W44362  29.112  42.003   1.710
71938W        W44363  12.227  10.230   4.341
71939W        W44364  28.624  11.831   2.304
71940W        W44365  12.212  17.561  10.933
71941W        W44366  44.385   9.880   2.371
71942W        W44367  29.523  32.113  14.817
71943W        W44368  21.692   7.689   0.739
71944W        W44369  11.800  44.440   4.782
71945W        W44370   8.738  14.158  10.442
71946W        W44371  26.510   8.307  12.575
71947W        W44372   1.381   7.369  14.883
71948W        W44373   8.832  34.548   4.712
71949W        W44374  11.741  10.858  14.887
71950W        W44375  24.588  26.080  11.042
71951W        W44376  22.089  28.670  11.430
71952W        W44377   9.251  13.729  14.873
71953W        W44378  43.907  27.143  11.970
71954W        W44379  13.656  26.687  13.982
71955W        W44380  19.545  25.553   5.174
71956W        W44381  30.907   3.846  11.046
71957W        W44382   9.283  31.463   3.382
71958W        W44383  15.195  21.248   4.822
71959W        W44384  26.674  17.577  11.881
71960W        W44385  43.332   6.746   3.757
71961W        W44386  29.646  10.654   0.473
71962W        W44387   2.920  15.173  13.492
71963W        W44388   0.870   0.450   4.246
71964W        W44389  38.424  14.639   2.669
71965W        W44390  15.236  28.585  14.850
71966W        W44391   4.834  11.629  13.911
71967W        W44392  11.835  10.148  14.483
71968W        W44393  19.762   2.467   1.211
71969W        W44394  22.627  10.301   0.290
71970W        W44395  34.914  38.831  10.433
71971W        W44396  43.845  44.308   2.288
71972W        W44397   0.276  30.035  11.580
71973W        W44398  35.086  21.754  10.582
71974W        W44399  20.538   4.229  12.363
71975W        W44400  44.897   0.987  14.492
71976W        W44401  30.539  12.628  13.410
71977W        W44402   4.727   7.810  10.448
71978W        W44403  39.978  13.797   3.821
71979W        W44404  39.967  20.186   4.771
71980W        W44405  13.259  16.609   4.249
71981W        W44406  24.991  38.551  14.503
71982W        W44407  30.633  43.772   1.424
71983W        W44408  25.069  39.811  11.097
71984W        W44409   3.271  18.567  10.505
71985W        W44410  11.184   5.436   3.234
71986W        W44411  33.574   0.363   1.744
71987W        W44412  22.643  22.690   0.747
71988W        W44413   4.925  41.487  11.009
71989W        W44414  27.197  13.110   3.743
71990W        W44415  25.636  42.800  13.856
71991W        W44416  23.580  28.060   4.765
71992W        W44417  11.634  10.144  13.490
71993W        W44418  41.305  15.746   1.278
71994W        W44419  36.485  44.419  11.890
71995W        W44420  29.622  13.629   4.827
71996W        W44421  22.088  23.492  12.896
71997W        W44422  38.046  41.805   2.308
71998W        W44423  29.148  32.594  14.994
71999W        W44424  14.809  41.811  11.941
72000W        W44425  32.963  42.828   3.338
72001W        W44426  19.084  12.707   2.324
72002W        W44427  25.016  24.141  10.945
72003W        W44428  38.339  31.410   3.806
72004W        W44429   3.301  15.700   0.312
72005W        W44430  41.001   2.361  10.508
72006W        W44431  35.469   9.286   2.386
72007W        W44432  12.769  25.984  12.005
72008W        W44433  16.275  31.021   0.249
72009W        W44434  10.838  29.981   2.734
72010W        W44435  10.324  16.766  14.385
72011W        W44436  21.056  13.238   3.324
72012W        W44437  41.448   4.731  12.463
72013W        W44438  10.818  43.318   1.736
72014W        W44439  26.203  33.454   3.189
72015W        W44440  34.565   6.189   2.375
72016W        W44441  12.639   0.390  12.476
72017W        W44442  15.582   7.341   2.793
72018W        W44443  42.848   1.437   3.327
72019W        W44444   9.768  18.555   4.306
72020W        W44445  28.066  38.055   4.775
72021W        W44446  30.015   2.328   3.222
72022W        W44447  11.183   2.276  13.003
72023W        W44448  32.982   6.847   0.314
72024W        W44449  44.963  25.515   1.702
72025W        W44450  37.888  25.528  14.408
72026W        W44451  39.815  23.644  13.524
72027W        W44452  32.894   3.226  12.529
72028W        W44453   3.436  11.783  11.864
72029W        W44454  34.060  25.202   0.331
72030W        W44455  41.369  28.038  14.454
72031W        W44456  31.934  26.548   3.720
72032W        W44457  13.615  35.381   2.294
72033W        W44458  32.484  36.587   4.830
72034W        W44459  30.437   8.223  11.583
72035W        W44460  24.480   0.957  12.467
72036W        W44461  34.929  21.202   9.983
72037W        W44462  42.340  30.619   3.871
72038W        W44463  24.222   4.259   4.768
72039W        W44464  23.560   9.859   0.821
72040W        W44465  42.303  36.451  12.873
72041W        W44466  35.014  41.929  10.497
72042W        W44467  39.817  28.006  14.968
72043W        W44468  27.183  22.152  13.327
72044W        W44469   1.305  43.780   2.407
72045W        W44470  17.290  23.632   5.213
72046W        W44471  42.860  20.108  11.519
72047W        W44472  25.011   7.290  10.987
72048W        W44473   0.836   3.263   1.215
72049W        W44474  14.810  19.769  12.478
72050W        W44475  16.726  31.421  13.479
72051W        W44476  16.798   5.295   4.742
72052W        W44477  11.357  14.638   1.863
72053W        W44478  35.860  41.316   3.229
72054W        W44479  18.276  20.675   0.451
72055W        W44480   6.258  36.972  12.875
72056W        W44481  26.494  23.007  13.390
72057W        W44482  28.662   1.970  11.024
72058W        W44483  33.128  20.644   0.324
72059W        W44484   5.719  26.132  12.016
72060W        W44485  40.412  22.118  13.889
72061W        W44486   9.196  22.015  11.860
72062W        W44487  28.549  43.368  14.978
72063W        W44488  20.671  38.415   3.242
72064W        W44489  26.565  31.551   0.893
72065W        W44490   5.336  35.882   1.901
72066W        W44491  36.927  12.145   4.232
72067W        W44492  21.023  29.614   1.917
72068W        W44493   2.360  36.896  14.765
72069W        W44494  42.969   1.738  11.547
72070W        W44495  40.435  40.457   1.375
72071W        W44496   3.815  43.483   2.751
72072W        W44497  30.647  28.512  11.046
72073W        W44498  41.866   1.303  14.027
72074W        W44499  21.153  19.644   3.813
72075W        W44500  29.540  25.590  13.929
72076W        W44501  10.772  25.141  14.381
72077W        W44502   4.817  22.634   5.250
72078W        W44503  10.724  29.529  11.878
72079W        W44504   1.754  42.352  11.902
72080W        W44505  20.691  14.695   4.754
72081W        W44506  12.624  34.896  12.061
72082W        W44507  11.369  14.334   0.769
72083W        W44508  30.139  21.024  10.120
72084W        W44509  16.595   0.465  12.904
72085W        W44510  25.471  29.079  13.363
72086W        W44511  26.494  41.530   0.382
72087W        W44512  29.657  37.863  12.962
72088W        W44513   7.376  22.520   0.730
72089W        W44514  15.681  40.926  12.401
72090W        W44515  23.668  12.217  11.386
72091W        W44516  43.780  44.487   4.305
72092W        W44517  43.905   7.845  11.045
72093W        W44518  19.718  13.838  13.974
72094W        W44519  36.467  35.389  11.384
72095W        W44520  39.810   9.354  10.636
72096W        W44521  16.258  25.113  12.495
72097W        W44522  11.266  33.617   2.372
72098W        W44523  37.569  39.880   0.423
72099W        W44524   7.665   9.717  13.425
72100W        W44525  15.215  22.244   0.869
72101W        W44526  16.577  32.112   2.689
72102W        W44527  43.973  43.917   0.908
72103W        W44528  26.114   1.258   3.291
72104W        W44529   0.979  21.592  13.426
72105W        W44530  10.214  40.975   4.769
72106W        W44531  40.328   0.358  13.439
72107W        W44532  37.893  21.204   4.791
72108W        W44533   9.209  37.844  11.024
72109W        W44534  10.196  23.598   2.283
72110W        W44535  28.932  18.079   4.227
72111W        W44536   6.255  42.906  14.478
72112W        W44537  25.698  33.575  12.965
72113W        W44538  21.677  10.776   4.291
72114W        W44539  41.368   0.359  14.002
72115W        W44540  26.670  23.201  10.535
72116W        W44541  29.657   3.840  13.902
72117W        W44542   6.680   4.904   1.911
72118W        W44543   5.730  33.029  11.917
72119W        W44544  25.025  15.106  12.463
72120W        W44545  33.107  34.035   2.257
72121W        W44546   2.866  30.616   3.154
72122W        W44547  35.965  26.968   4.225
72123W        W44548  35.453  25.602  14.312
72124W        W44549  34.423  12.351   0.253
72125W        W44550  28.662  18.256   0.264
72126W        W44551  44.897  36.576   2.346
72127W        W44552   4.912  20.659   4.797
72128W        W44553  44.861  42.977  11.434
72129W        W44554  36.868   1.975   2.214
72130W        W44555  13.719  33.907   4.255
72131W        W44556  14.687   4.738  11.605
72132W        W44557  38.484  24.191  12.446
72133W        W44558  12.201  36.457  12.349
72134W        W44559   1.844   4.905  12.377
72135W        W44560  32.535  29.547  14.764
72136W        W44561  44.282  37.007  11.514
72137W        W44562   8.782  41.942  10.979
72138W        W44563   5.301   4.272  13.813
72139W        W44564   5.867  23.068   4.241
72140W        W44565  30.530  22.703  12.941
72141W        W44566  11.366  17.073   3.650
72142W        W44567  35.877  32.592   2.867
72143W        W44568  42.471  16.217  14.850
72144W        W44569  26.120  39.992  14.462
72145W        W44570  14.652  19.755   4.633
72146W        W44571  12.633  39.961   3.781
72147W        W44572  22.512  22.036  13.826
72148W        W44573  40.869   0.923   4.612
72149W        W44574   8.285  10.752   2.198
72150W        W44575  21.095  36.017   4.707
72151W        W44576  33.501  27.036  13.486
72152W        W44577  23.056  19.635   2.375
72153W        W44578  12.782   5.813  14.509
72154W        W44579  40.903   1.909   1.391
72155W        W44580  23.145  14.620   2.373
72156W        W44581  15.161  23.124  13.393
72157W        W44582  33.408  11.189   0.919
72158W        W44583  41.533  41.901   1.300
72159W        W44584  20.644   4.368   3.662
72160W        W44585   4.784  42.005  14.760
72161W        W44586  35.972  14.780  11.422
72162W        W44587  24.634  11.664  14.976
72163W        W44588   1.478  38.864   3.221
72164W        W44589  35.028  10.166  12.425
72165W        W44590   4.784  15.175  13.399
72166W        W44591  20.191  23.138  12.490
72167W        W44592  32.084  42.939  11.925
72168W        W44593   7.385  21.237  10.514
72169W        W44594  42.965  33.471   4.762
72170W        W44595  18.116  25.508   4.613
72171W        W44596  34.902   5.929   4.184
72172W        W44597   5.435   9.365  14.003
72173W        W44598  44.289  31.955   4.346
72174W        W44599  36.899  24.205   2.279
72175W        W44600  13.739  42.433  10.967
72176W        W44601  38.446   8.758   1.704
72177W        W44602  20.592  39.350  14.328
72178W        W44603  44.910  38.539  12.477
72179W        W44604  31.588  20.646  13.979
72180W        W44605   5.781  11.722   1.321
72181W        W44606  36.396  44.881  14.414
72182W        W44607  22.164  35.092  13.052
72183W        W44608   8.852  33.075  14.287
72184W        W44609  35.575   0.797   2.762
72185W        W44610   7.866  16.683   4.791
72186W        W44611  37.006  25.098   9.468
72187W        W44612  22.231   4.354  12.883
72188W        W44613  37.538  30.553  11.432
72189W        W44614   4.848  26.480   4.139
72190W        W44615  21.219   3.217  12.091
72191W        W44616  25.499  19.150  14.965
72192W        W44617  38.559  37.025   4.826
72193W        W44618  17.161  11.279  11.961
72194W        W44619   7.179  41.296   0.870
72195W        W44620  34.386   4.294   0.885
72196W        W44621   4.384  27.000  11.430
72197W        W44622  15.221  36.386   2.254
72198W        W44623  22.031   4.828  10.889
72199W        W44624  16.670  16.660  13.539
72200W        W44625  21.698  38.451   3.850
72201W        W44626  42.826  41.008  11.522
72202W        W44627  34.002  15.314  10.580
72203W        W44628   7.876  27.192  11.971
72204W        W44629  30.582  19.659   3.361
72205W        W44630  17.303  40.950  10.516
72206W        W44631  28.976  29.941  10.090
72207W        W44632  11.841  43.821   4.187
72208W        W44633  16.612  31.436   4.237
72209W        W44634  43.000  34.037   3.266
72210W        W44635  38.464   0.487   2.225
72211W        W44636   8.285   9.352   2.676
72212W        W44637  20.766  10.726   4.658
72213W        W44638  23.110  27.053  11.447
72214W        W44639  15.589  40.425  11.870
72215W        W44640  35.551  39.340   4.169
72216W        W44641   6.198  11.200  12.437
72217W        W44642  24.118   8.759   5.194
72218W        W44643  17.795  35.403   2.838
72219W        W44644  38.445  36.914   2.400
72220W        W44645  38.017  26.580  12.510
72221W        W44646  41.917  23.727  12.364
72222W        W44647  39.887  36.858  14.758
72223W        W44648  41.967  19.631   4.702
72224W        W44649  43.843  13.233  11.564
72225W        W44650  17.684  14.667  11.543
72226W        W44651  28.974   2.816  10.589
72227W        W44652  11.740   1.353  10.552
72228W        W44653  30.105  43.300   0.927
72229W        W44654   9.788  24.547  14.287
72230W        W44655   7.672  40.882  12.372
72231W        W44656  43.387  28.461   2.384
72232W        W44657  42.909  39.850   2.835
72233W        W44658  37.868  21.120  12.897
72234W        W44659  37.573  37.532   3.804
72235W        W44660  40.453  42.893   4.631
72236W        W44661  11.278  25.070   2.303
72237W        W44662  25.979  22.201   2.703
72238W        W44663  12.675  17.559   1.890
72239W        W44664  14.095   8.727   4.232
72240W        W44665  39.857   6.887  12.875
72241W        W44666  26.034   7.371   0.441
72242W        W44667  44.334   4.715   2.696
72243W        W44668  32.919  17.219  11.027
72244W        W44669  40.907  11.753  10.951
72245W        W44670  30.947  19.281  10.636
72246W        W44671   0.292  17.600  14.979
72247W        W44672  35.854   3.812  11.104
72248W        W44673  44.853   8.747   5.125
72249W        W44674  42.368  22.580  14.308
72250W        W44675  26.560  31.476  10.404
72251W        W44676   8.857  11.247   9.987
72252W        W44677  27.469  30.108   3.221
72253W        W44678   8.683  21.189  12.444
72254W        W44679  25.967  32.071   5.674
72255W        W44680  19.177  41.443  13.051
72256W        W44681  20.139   3.365  12.949
72257W        W44682  32.450   4.870   0.449
72258W        W44683  25.631  24.546  10.925
72259W        W44684  17.612  26.581  14.934
72260W        W44685   5.379  18.070  12.033
72261W        W44686   1.398   7.276   3.750
72262W        W44687   7.245  25.577  12.541
72263W        W44688   0.292  43.901  12.906
72264W        W44689   5.366   3.772  14.891
72265W        W44690  20.689  28.937   4.819
72266W        W44691  15.096  25.651  11.503
72267W        W44692  42.880  42.485  14.304
72268W        W44693  22.243  33.073  12.429
72269W        W44694  15.777  41.932  11.380
72270W        W44695  36.929   8.861  14.402
72271W        W44696  37.365  32.952   1.448
72272W        W44697  16.227   6.369  12.386
72273W        W44698  13.230  25.671   1.756
72274W        W44699  43.910  16.186  13.387
72275W        W44700   3.316   6.216   0.473
72276W        W44701  29.530  32.976  11.855
72277W        W44702  38.848   4.853  13.317
72278W        W44703  17.598  29.932   0.456
72279W        W44704  32.127  14.268  13.481
72280W        W44705  16.682  25.625   1.215
72281W        W44706  36.380  30.527  11.591
72282W        W44707  26.635  36.387   2.860
72283W        W44708  43.290  23.127  12.071
72284W        W44709  10.728  26.634   3.215
72285W        W44710   8.382  21.750   1.723
72286W        W44711  40.896  44.352  12.469
72287W        W44712  23.616  26.680  12.476
72288W        W44713  11.253  22.058  11.512
72289W        W44714   9.677  16.213  14.995
72290W        W44715   7.887  10.714  12.920
72291W        W44716  26.146  36.502  12.090
72292W        W44717  10.317  20.528  11.894
72293W        W44718  39.487   8.295   0.342
72294W        W44719  27.085   0.807   4.282
72295W        W44720  23.059   2.457  11.454
72296W        W44721  43.281  29.450  12.924
72297W        W44722  25.505   0.401  14.015
72298W        W44723   1.375  25.095   2.234
72299W        W44724  22.206   2.398   1.804
72300W        W44725   6.232  27.198   1.352
72301W        W44726   8.299  32.986  10.432
72302W        W44727   9.815  39.408  10.458
72303W        W44728  19.157  17.693   4.630
72304W        W44729  10.834  44.467   0.927
72305W        W44730  29.923  26.627   2.737
72306W        W44731  17.621   4.908   4.225
72307W        W44732   8.686   6.857  14.893
72308W        W44733  20.090   5.797   4.806
72309W        W44734  21.233  12.252  12.042
72310W        W44735  29.133  21.554  11.964
72311W        W44736   1.267  24.624  11.889
72312W        W44737  22.135  24.127   4.733
72313W        W44738   5.832   6.328  13.539
72314W        W44739  28.169  13.270   3.349
72315W        W44740  23.022   7.195  10.563
72316W        W44741  34.437  15.652   4.831
72317W        W44742   5.824  16.600  14.305
72318W        W44743  37.854  16.160  14.897
72319W        W44744  24.478  17.285   2.681
72320W        W44745  37.397  44.408  14.453
72321W        W44746  15.135  39.420  11.374
72322W        W44747  13.743   0.347  11.470
72323W        W44748  25.628  14.634   0.282
72324W        W44749  44.466  20.525  11.877
72325W        W44750  29.469  32.086   4.805
72326W        W44751  17.663  29.012  11.018
72327W        W44752   0.419  11.640  14.032
72328W        W44753  38.861  31.418  10.474
72329W        W44754  44.846  34.006   0.757
72330W        W44755   6.302  31.024  14.000
72331W        W44756  31.962  34.973  11.536
72332W        W44757  36.089  21.234   5.142
72333W        W44758  33.902  30.422  14.386
72334W        W44759  13.221  11.823   4.335
72335W        W44760  33.991   6.892  14.943
72336W        W44761  35.384  33.085  10.618
72337W        W44762  38.417   1.961   2.231
72338W        W44763   3.363  24.217  12.049
72339W        W44764  20.268  40.460   4.788
72340W        W44765  15.712  34.602  14.945
72341W        W44766  23.195  33.551   3.863
72342W        W44767  14.792   6.818   2.686
72343W        W44768  15.618  27.662   0.860
72344W        W44769  44.362  15.664   1.388
72345W        W44770  30.093  24.684  14.000
72346W        W44771   4.886  18.105   2.207
72347W        W44772  13.705  20.250   1.299
72348W        W44773  30.991  20.122  13.971
72349W        W44774  28.661  39.026   3.762
72350W        W44775  13.131  33.405   1.808
72351W        W44776   5.268  14.291   1.424
72352W        W44777  26.191  27.991  14.933
72353W        W44778   2.369  33.394   0.903
72354W        W44779  39.906  36.458   1.698
72355W        W44780  18.060  38.386  12.850
72356W        W44781  32.579  25.119  12.458
72357W        W44782   3.216   3.917  13.543
72358W        W44783  38.401  17.765  12.036
72359W        W44784  27.035  36.573  11.045
72360W        W44785   9.370  34.913   3.146
72361W        W44786  27.135  34.083  12.412
72362W        W44787  35.950  43.510   0.482
72363W        W44788  30.552   1.750   1.704
72364W        W44789  22.601   1.450  10.642
72365W        W44790  44.370  19.647  10.500
72366W        W44791  13.729  29.025  12.986
72367W        W44792  20.142  43.011   4.782
72368W        W44793   7.852  40.448   4.783
72369W        W44794   8.664   3.264   0.412
72370W        W44795   4.425  13.172   4.664
72371W        W44796  28.053  13.698  14.457
72372W        W44797  16.745  30.537  13.404
72373W        W44798  29.664  17.607   2.872
72374W        W44799  19.233  33.530  13.447
72375W        W44800  27.599   9.680  13.475
72376W        W44801  15.309  14.136   3.303
72377W        W44802  27.504   3.427  12.876
72378W        W44803  29.080  17.732   0.357
72379W        W44804  26.178  33.042  13.414
72380W        W44805  42.382   5.362   4.347
72381W        W44806  35.901  32.500   1.369
72382W        W44807  39.393  11.684   1.923
72383W        W44808   7.901  16.670  14.792
72384W        W44809  24.043  17.150   1.316
72385W        W44810  34.593   5.919   0.874
72386W        W44811  37.953   4.209   1.425
72387W        W44812  24.679  10.185  14.920
72388W        W44813  11.697   4.824  12.931
72389W        W44814   1.776   2.252  11.523
72390W        W44815  34.491   7.793   0.267
72391W        W44816  20.153   7.196   2.398
72392W        W44817  20.194  13.622   4.217
72393W        W44818  10.874   7.191   1.216
72394W        W44819  25.152  30.626  10.959
72395W        W44820  15.712  19.679   1.241
72396W        W44821   6.259  17.280  13.998
72397W        W44822  15.119  13.124  11.972
72398W        W44823  31.456  19.585  10.481
72399W        W44824  11.778  17.745  13.381
72400W        W44825  36.975  40.463  12.026
72401W        W44826   4.912  23.533   2.763
72402W        W44827   2.955  37.878  11.082
72403W        W44828  29.106   7.782   0.755
72404W        W44829  21.207  23.525   4.222
72405W        W44830  15.602  16.612   1.765
72406W        W44831  35.563   0.982  10.516
72407W        W44832  31.901  44.983  11.524
72408W        W44833  29.027   2.960  12.555
72409W        W44834  37.984  15.726   0.307
72410W        W44835  34.611   3.872  11.473
72411W        W44836  29.479   7.315   2.186
72412W        W44837  22.688  37.871  12.921
72413W        W44838  10.310  42.866   3.689
72414W        W44839  20.195  11.736   1.448
72415W        W44840  36.880  24.155   4.690
72416W        W44841   3.869  12.172   4.277
72417W        W44842  17.696  32.096  14.318
72418W        W44843   6.243  31.417  13.913
72419W        W44844  12.282  41.472   3.157
72420W        W44845  42.305   0.787  11.918
72421W        W44846  32.998  44.275  11.081
72422W        W44847  21.181  30.916   3.267
72423W        W44848  38.567  23.537   4.602
72424W        W44849   5.695  26.038  13.542
72425W        W44850   0.771  13.778   1.296
72426W        W44851  39.432  26.655  10.642
72427W        W44852  15.665  26.966  13.418
72428W        W44853  44.325  44.470   2.890
72429W        W44854  16.802  40.312  10.435
72430W        W44855   4.838  11.340   0.941
72431W        W44856  15.800   3.265  12.951
72432W        W44857  41.314  12.249  13.055
72433W        W44858  17.291  33.923   3.824
72434W        W44859  30.114  40.045  11.546
72435W        W44860  13.156  28.935   3.816
72436W        W44861  18.682  30.570   1.408
72437W        W44862  30.644  13.840  14.381
72438W        W44863  22.712  28.035  10.513
72439W        W44864   4.847   9.772  12.500
72440W        W44865  35.023   1.413  11.594
72441W        W44866  17.703  28.677   1.748
72442W        W44867  12.645  42.819   0.877
72443W        W44868  40.985  15.092   0.318
72444W        W44869   8.669  10.205  14.021
72445W        W44870  31.461  14.718  14.291
72446W        W44871  16.251  44.305   3.804
72447W        W44872  22.643  32.595  12.449
72448W        W44873  35.437  27.990  12.393
72449W        W44874   9.308  25.035   1.377
72450W        W44875  26.008  13.700   3.732
72451W        W44876  43.370  39.997   3.773
72452W        W44877   8.308  35.104  11.505
72453W        W44878  14.184   6.199   1.215
72454W        W44879  39.392  33.012  13.444
72455W        W44880   7.347  22.208  13.506
72456W        W44881  25.107   1.435   2.667
72457W        W44882   2.947  27.542  12.901
72458W        W44883  28.637  16.698   2.903
72459W        W44884  22.644  16.292  11.434
72460W        W44885   0.294   1.323  13.022
72461W        W44886  42.952  24.557   1.369
72462W        W44887  23.125  26.593   4.818
72463W        W44888  12.819  18.185  12.825
72464W        W44889  43.459  38.847   0.733
72465W        W44890   4.717   8.173  12.573
72466W        W44891  24.185  39.429   0.848
72467W        W44892   3.804  43.773   1.705
72468W        W44893  40.526  36.923   1.378
72469W        W44894  40.054  17.644   3.736
72470W        W44895  27.996  26.058  14.784
72471W        W44896  28.009  30.560   2.415
72472W        W44897  11.342  25.045   4.278
72473W        W44898  12.231  12.175   3.731
72474W        W44899  25.207   1.366   3.788
72475W        W44900   8.319   5.896  12.504
72476W        W44901  30.597  21.743   0.764
72477W        W44902  22.615  30.507  12.490
72478W        W44903  39.436  31.561   3.815
72479W        W44904  24.129   2.404  10.927
72480W        W44905  19.757  33.048  13.015
72481W        W44906  16.745  20.723   3.386
72482W        W44907  21.617  37.475  14.455
72483W        W44908   7.698  28.637   4.790
72484W        W44909  11.803  28.063  10.037
72485W        W44910  39.880   4.914  13.901
72486W        W44911  20.223  28.954   4.175
72487W        W44912  19.046  43.963   3.853
72488W        W44913  37.087  42.876   2.888
72489W        W44914  34.071  25.033  13.321
72490W        W44915  11.821  24.049   1.839
72491W        W44916   5.286  41.371   2.677
72492W        W44917   8.401   4.263  11.572
72493W        W44918   2.965  31.640   3.633
72494W        W44919  39.880  17.101  13.872
72495W        W44920  30.505   0.308  10.609
72496W        W44921  39.991  28.484   2.179
72497W        W44922  14.250  12.674  11.469
72498W        W44923  35.866  29.546   2.371
72499W        W44924  27.645  10.270  11.102
72500W        W44925  39.988  19.282   2.834
72501W        W44926  37.453  22.147   4.832
72502W        W44927  40.519  29.057   3.245
72503W        W44928  39.947  16.617   4.116
72504W        W44929  38.381  29.922  14.933
72505W        W44930  41.507   5.246  10.892
72506W        W44931   7.761   4.848   3.168
72507W        W44932  16.133  43.848  14.372
72508W        W44933  10.705  24.103   0.892
72509W        W44934  22.214  36.539  12.921
72510W        W44935  11.158   2.359   4.127
72511W        W44936   4.442  17.204   4.631
72512W        W44937  27.014  15.631   2.195
72513W        W44938  33.962  21.219  13.451
72514W        W44939  33.990  40.027   3.727
72515W        W44940  10.275   4.204   2.787
72516W        W44941   4.226  33.417   1.847
72517W        W44942  15.172  36.405   0.354
72518W        W44943  18.666   5.742   0.401
72519W        W44944  25.122  21.526  14.417
72520W        W44945  25.664  33.538  10.625
72521W        W44946   7.702   8.172   5.181
72522W        W44947  34.065  20.654   0.411
72523W        W44948  26.965   0.825  11.509
72524W        W44949  38.539  13.779  11.540
72525W        W44950  18.655   6.247   1.699
72526W        W44951  41.957  10.831   3.734
72527W        W44952   1.938   8.767  11.461
72528W        W44953  10.862  19.044  12.426
72529W        W44954  34.049  19.149  12.010
72530W        W44955  36.456  39.982  14.776
72531W        W44956  38.038  24.043   4.607
72532W        W44957  22.086  14.732  12.471
72533W        W44958  28.604  16.729   0.397
72534W        W44959  43.285   7.383   3.694
72535W        W44960   1.970   2.723   2.394
72536W        W44961  40.313  41.316   1.787
72537W        W44962  28.669  21.511   1.851
72538W        W44963   0.418  39.846  14.367
72539W        W44964  33.488  36.954   2.188
72540W        W44965  42.390  17.676   0.349
72541W        W44966   4.309   8.165  14.852
72542W        W44967  37.338  34.408   0.389
72543W        W44968  39.002  41.358  10.438
72544W        W44969  36.083  38.070  11.931
72545W        W44970  27.643  43.943   1.920
72546W        W44971   5.892  17.738   2.208
72547W        W44972   7.684  14.157   1.393
72548W        W44973  43.310  12.797  13.452
72549W        W44974   5.743  28.554  10.532
72550W        W44975  23.603   2.826   2.836
72551W        W44976   7.344  38.384   9.933
72552W        W44977  21.624  34.455   3.750
72553W        W44978  28.538  40.994  10.480
72554W        W44979   1.380  39.390  11.922
72555W        W44980  44.814   3.850   0.940
72556W        W44981  41.878  11.168  13.349
72557W        W44982   9.792  38.863  14.851
72558W        W44983  22.600  19.262   0.907
72559W        W44984  23.111  14.254   2.747
72560W        W44985   5.357  13.277   0.447
72561W        W44986  27.951  31.468   1.766
72562W        W44987  26.131  20.722   0.965
72563W        W44988   3.735  18.269  14.976
72564W        W44989  21.078  35.585   2.354
72565W        W44990  36.088  44.497   4.658
72566W        W44991  10.247   7.395  11.077
72567W        W44992  42.013  44.817   0.860
72568W        W44993  43.352  16.591   3.714
72569W        W44994  25.195  10.364   4.351
72570W        W44995  17.791   6.833   3.645
72571W        W44996  25.707  20.089   3.860
72572W        W44997  17.728   4.395   4.166
72573W        W44998   4.828   4.278   3.782
72574W        W44999  15.639   2.320  10.071
72575W        W45000   8.397  27.162   2.806
72576W        W45001  10.282  33.425   5.120
72577W        W45002  36.071   7.186  11.992
72578W        W45003  31.018  22.224   1.791
72579W        W45004  30.585  20.527   2.207
72580W        W45005  40.857  44.899   9.998
72581W        W45006   1.894  17.667  11.097
72582W        W45007  42.907  20.623  11.446
72583W        W45008  17.697  25.092  14.428
72584W        W45009   9.691  18.546   1.804
72585W        W45010  11.624   5.791   0.841
72586W        W45011  16.250   3.397  10.484
72587W        W45012   3.862  28.644  13.344
72588W        W45013   4.825  23.687  14.323
72589W        W45014  21.673  22.675   0.330
72590W        W45015  39.844  35.991  12.346
72591W        W45016  19.195  29.170   4.701
72592W        W45017  40.399  29.058   1.850
72593W        W45018  43.782  27.978  11.522
72594W        W45019  28.575  12.361   4.601
72595W        W45020   3.770  18.235   2.676
72596W        W45021  28.615  39.833  13.372
72597W        W45022  41.332  41.998  12.387
72598W        W45023  11.637  10.744   3.176
72599W        W45024  19.753  38.483   2.190
72600W        W45025   6.882  44.821  14.912
72601W        W45026   9.867  21.589  10.491
72602W        W45027   8.380  36.030  11.931
72603W        W45028  23.225  30.569  14.971
72604W        W45029   0.971   5.203  13.966
72605W        W45030   7.698  25.205  10.562
72606W        W45031  37.858  34.035  13.009
72607W        W45032  11.719  35.092  13.374
72608W        W45033  16.186  16.190   1.212
72609W        W45034  37.064  18.630  11.058
72610W        W45035  24.062   7.236   2.772
72611W        W45036  32.569  19.652  10.972
72612W        W45037  22.191   2.757  10.467
72613W        W45038   8.355  11.756  11.026
72614W        W45039  25.149  26.003  11.112
72615W        W45040   5.398  26.010  13.416
72616W        W45041  39.822  27.591  11.544
72617W        W45042  22.227  33.388  14.866
72618W        W45043  32.614  10.287  13.850
72619W        W45044   3.839  19.603  13.837
72620W        W45045  12.659   2.444   4.817
72621W        W45046  23.118  13.273  12.367
72622W        W45047  25.468  35.096  11.001
72623W        W45048  41.995  14.592   3.799
72624W        W45049  28.152  39.534  14.978
72625W        W45050  26.020  14.790   1.859
72626W        W45051   5.802  24.131   2.850
72627W        W45052  32.519  25.156   1.921
72628W        W45053  23.539  42.011  12.433
72629W        W45054  29.659  25.578  11.119
72630W        W45055   5.419  32.443   0.832
72631W        W45056  38.832  17.674   3.263
72632W        W45057  43.940  27.025  13.421
72633W        W45058   6.391  25.657   0.338
72634W        W45059  19.258  18.594   0.256
72635W        W45060   2.432  44.823  10.912
72636W        W45061  35.524  37.960   1.309
72637W        W45062  21.567  14.150   2.199
72638W        W45063  39.355  42.936   2.302
72639W        W45064   9.709  35.033   2.247
72640W        W45065  15.726  33.884   1.743
72641W        W45066  43.310  34.040  14.989
72642W        W45067  12.686  31.483   1.759
72643W        W45068  25.086  40.817  11.563
72644W        W45069  32.610  17.124   5.105
72645W        W45070  41.908  21.260  11.415
72646W        W45071  23.504   3.291   4.705
72647W        W45072  42.467  25.511   0.849
72648W        W45073  28.152  19.763   4.779
72649W        W45074  18.062  41.296  11.549
72650W        W45075  22.202  39.530   3.276
72651W        W45076  39.981  16.273  13.482
72652W        W45077  10.201  10.324   0.892
72653W        W45078  24.671  28.468   3.823
72654W        W45079   2.319  19.188   4.194
72655W        W45080   8.687  31.086  11.491
72656W        W45081  27.575  16.765  14.032
72657W        W45082  41.519  38.974  11.883
72658W        W45083   2.443  14.783   0.435
72659W        W45084  15.700  25.521  14.504
72660W        W45085   7.735  23.134  11.013
72661W        W45086  41.319  41.486   4.666
72662W        W45087  33.967  27.153  14.959
72663W        W45088  11.167  14.157  12.847
72664W        W45089  39.867  29.611   2.349
72665W        W45090   9.657  43.445  14.417
72666W        W45091  24.583  39.995  10.605
72667W        W45092  42.847  16.697   3.197
72668W        W45093  39.043   2.820  10.475
72669W        W45094  20.680  24.081  12.016
72670W        W45095  36.412  44.835   4.193
72671W        W45096   6.190  38.927  10.511
72672W        W45097  33.618  22.522  10.118
72673W        W45098   2.336  35.390   4.812
72674W        W45099  42.344  39.383   4.190
72675W        W45100   5.252   6.773  13.973
72676W        W45101  19.644  41.855  13.346
72677W        W45102  17.258   2.767  14.482
72678W        W45103   5.711  30.656  14.836
72679W        W45104  11.859  41.865  14.295
72680W        W45105  23.240  34.872  13.933
72681W        W45106   8.874   1.399  10.549
72682W        W45107  37.990   7.284  13.808
72683W        W45108   2.250  30.084  13.512
72684W        W45109  31.518   2.831   3.375
72685W        W45110   5.921  27.035   1.773
72686W        W45111  31.957  21.595   4.608
72687W        W45112  42.797  37.573  12.837
72688NA+    NA+45113  32.542  21.228  12.365
72689NA+    NA+45114  11.641  28.981  11.109
72690NA+    NA+45115  25.111  37.049  14.965
72691NA+    NA+45116  18.226  17.770   3.685
72692NA+    NA+45117  29.500  29.589   2.784
72693NA+    NA+45118  41.032  24.181  13.807
72694NA+    NA+45119  10.352  26.523   2.723
72695NA+    NA+45120  34.528  34.068   0.390
72696NA+    NA+45121  24.588   5.293  11.595
72697NA+    NA+45122  28.568  11.280   2.756
72698NA+    NA+45123  42.449  25.161   4.779
72699NA+    NA+45124  16.663  32.429   2.741
72700NA+    NA+45125  19.116  24.067   2.303
72701NA+    NA+45126  23.717  39.055   4.749
72702NA+    NA+45127  25.675  37.420   4.658
72703NA+    NA+45128  35.528  14.720   2.801
72704NA+    NA+45129  26.550  19.663   1.697
72705NA+    NA+45130  19.064   8.336  10.611
72706NA+    NA+45131  40.038  33.562   4.653
72707NA+    NA+45132  15.750  33.403  12.941
72708NA+    NA+45133  14.601  24.567   5.713
72709NA+    NA+45134   1.355   9.791   4.745
72710NA+    NA+45135  16.684  17.592   2.326
72711NA+    NA+45136  13.345   1.250   1.760
72712NA+    NA+45137  20.551  26.075   2.281
72713NA+    NA+45138  31.422  11.135   2.358
72714NA+    NA+45139  25.214  24.987   0.470
72715NA+    NA+45140  11.235  43.958  14.847
72716NA+    NA+45141  41.337  41.899  12.848
72717NA+    NA+45142   1.296   7.777   2.760
72718NA+    NA+45143  34.910  30.019   4.148
72719NA+    NA+45144  32.462  31.429   1.351
72720NA+    NA+45145  36.470  32.036   1.861
72721NA+    NA+45146  17.734   5.246  13.439
72722NA+    NA+45147  22.040  38.884  13.460
72723NA+    NA+45148  22.555  31.936   1.826
72724NA+    NA+45149  31.045  39.810  13.389
72725NA+    NA+45150  13.279  17.062   4.204
72726NA+    NA+45151  31.622   2.783   2.323
72727NA+    NA+45152  43.981  35.425   1.826
72728NA+    NA+45153  38.487  36.473  14.932
72729NA+    NA+45154  36.351  41.466  13.404
72730NA+    NA+45155  10.736  12.333  12.572
72731NA+    NA+45156   0.957  33.516   4.652
72732NA+    NA+45157  27.614   9.240   2.887
72733NA+    NA+45158  19.779  19.270   1.820
72734NA+    NA+45159  30.652  20.055  11.871
72735NA+    NA+45160  37.562  26.131   0.470
72736NA+    NA+45161  31.417  11.628   2.812
72737NA+    NA+45162  16.643  19.277   0.889
72738NA+    NA+45163   3.784  30.162  10.420
72739NA+    NA+45164  34.596  34.379  10.572
72740NA+    NA+45165  30.109  23.656  11.525
72741NA+    NA+45166  16.202  20.736   2.878
72742NA+    NA+45167  15.629  24.126   5.181
72743NA+    NA+45168  29.136   5.781  12.977
72744NA+    NA+45169  13.820  37.874   2.848
72745NA+    NA+45170  37.351  11.789   0.358
72746NA+    NA+45171  15.086  43.487  12.019
72747NA+    NA+45172  11.272  32.118   3.147
72748NA+    NA+45173  10.252  24.713   4.757
72749NA+    NA+45174  21.623  24.130   2.709
72750NA+    NA+45175  28.998   9.302  10.610
72751NA+    NA+45176  21.136  24.065  10.620
72752NA+    NA+45177   1.383  17.598   4.322
72753NA+    NA+45178  25.052  10.776   1.286
72754NA+    NA+45179  28.971   3.758   2.682
72755NA+    NA+45180  16.635  15.641   3.148
72756NA+    NA+45181   4.724  44.892   0.772
72757NA+    NA+45182   0.757  30.532   9.933
72758NA+    NA+45183  22.152  10.783   5.748
72759NA+    NA+45184  19.102  37.046  11.478
72760NA+    NA+45185   4.929  37.922  12.519
72761NA+    NA+45186  25.598  21.039  13.848
72762NA+    NA+45187  20.094  17.306  11.477
72763NA+    NA+45188  19.285  15.139   2.879
72764NA+    NA+45189  17.263  41.436  11.927
72765NA+    NA+45190  35.560  35.913   2.377
72766NA+    NA+45191   1.817  17.274   3.665
72767NA+    NA+45192   8.362  27.169   4.750
72768NA+    NA+45193   0.833  26.490   1.328
72769NA+    NA+45194  18.593  43.482  11.007
72770NA+    NA+45195  23.651  37.889   1.736
72771NA+    NA+45196  12.853  38.347  13.498
72772NA+    NA+45197   0.287  27.123  11.393
72773NA+    NA+45198  10.641  14.784  13.011
72774NA+    NA+45199  34.091   2.288   4.645
72775NA+    NA+45200  35.079  16.297   4.314
72776NA+    NA+45201  39.812  15.194   1.366
72777NA+    NA+45202  37.402   1.320   0.417
72778NA+    NA+45203  41.330   4.394   2.844
72779NA+    NA+45204   9.732  43.403  12.429
72780NA+    NA+45205  10.277  44.981  10.621
72781NA+    NA+45206   1.446  17.245  11.414
72782NA+    NA+45207  36.843  18.206  14.795
72783NA+    NA+45208  20.069  10.700  13.824
72784NA+    NA+45209   8.846  12.164  10.630
72785NA+    NA+45210  43.876   6.214  11.423
72786NA+    NA+45211  36.092   6.852   2.810
72787NA+    NA+45212  13.259   4.822  12.360
72788NA+    NA+45213  30.531   0.313  13.318
72789NA+    NA+45214  23.636   2.825  10.504
72790NA+    NA+45215  23.684   9.759   4.155
72791NA+    NA+45216  26.695   6.855   3.663
72792NA+    NA+45217  22.123  25.577  12.048
72793NA+    NA+45218   1.815  37.507  11.980
72794NA+    NA+45219  30.520  10.667  10.487
72795NA+    NA+45220  36.961   6.808  12.990
72796NA+    NA+45221  35.983   4.386   4.306
72797NA+    NA+45222   0.787   6.820   2.673
72798NA+    NA+45223  39.405   7.293   1.235
72799NA+    NA+45224  41.874  33.457  14.338
72800NA+    NA+45225  31.596  33.005   1.904
72801NA+    NA+45226  21.079  33.449   3.859
72802NA+    NA+45227  38.568  31.599  14.905
72803NA+    NA+45228   6.803   0.860  10.529
72804NA+    NA+45229  28.966  31.616  14.343
72805NA+    NA+45230  34.107   4.812   0.950
72806NA+    NA+45231  25.569  19.577  12.380
72807NA+    NA+45232  33.129  30.583   1.762
72808NA+    NA+45233  43.484   0.893   0.837
72809NA+    NA+45234  43.392   1.343  11.042
72810NA+    NA+45235   3.235   4.925  13.333
72811NA+    NA+45236  12.830   4.903   1.230
72812NA+    NA+45237   4.922  25.552   3.635
72813NA+    NA+45238   0.836  32.484  13.414
72814NA+    NA+45239  42.854   1.297  11.949
72815NA+    NA+45240  25.595  27.509   2.664
72816NA+    NA+45241  41.424  15.649  11.473
72817NA+    NA+45242  34.601  44.355   4.615
72818NA+    NA+45243  18.651   3.750   1.739
72819NA+    NA+45244   2.907  44.444   4.761
72820NA+    NA+45245  24.179   3.249   3.769
72821NA+    NA+45246  10.701  37.839  10.508
72822NA+    NA+45247  29.529  23.728  14.439
72823NA+    NA+45248   3.821  26.640   3.279
72824NA+    NA+45249  40.405   7.882  12.989
72825NA+    NA+45250   7.242  41.502  14.402
72826NA+    NA+45251   7.787  21.231  14.958
72827NA+    NA+45252  44.349  20.535   3.293
72828NA+    NA+45253  37.962  33.019   2.846
72829NA+    NA+45254   9.700  28.598   3.632
72830NA+    NA+45255   6.269  19.578  14.296
72831NA+    NA+45256  17.770  36.463   2.777
72832NA+    NA+45257  31.976  33.070  10.525
72833NA+    NA+45258  19.270  36.972   0.832
72834NA+    NA+45259  14.201  41.349  13.324
72835NA+    NA+45260  44.289  33.945  14.838
72836NA+    NA+45261  40.519  10.257  10.122
72837NA+    NA+45262  37.013  30.115   4.722
72838NA+    NA+45263  24.189   1.248  14.901
72839NA+    NA+45264  12.317   1.422   3.176
72840NA+    NA+45265   2.332  41.797   3.723
72841NA+    NA+45266  40.913  25.008  11.439
72842NA+    NA+45267  17.560   2.919   0.799
72843NA+    NA+45268  32.986  30.056   2.730
72844NA+    NA+45269   1.479   3.389   3.802
72845NA+    NA+45270  20.741   5.822  10.912
72846NA+    NA+45271  29.954  33.598  11.535
72847NA+    NA+45272  32.990  19.120  12.946
72848NA+    NA+45273  10.655  41.946   2.330
72849NA+    NA+45274  43.825  14.724  12.414
72850NA+    NA+45275  27.032  26.700  14.885
72851NA+    NA+45276  24.998  28.613  14.022
72852NA+    NA+45277  12.651  21.157  11.104
72853NA+    NA+45278  27.073  15.713   3.753
72854NA+    NA+45279  25.125  20.172   1.934
72855NA+    NA+45280   6.891  41.017  13.975
72856NA+    NA+45281  23.489  17.176  11.054
72857NA+    NA+45282  24.170  26.692   3.659
72858NA+    NA+45283  21.583  34.595  11.954
72859NA+    NA+45284  31.976   0.326   0.365
72860NA+    NA+45285  31.063  33.999  13.818
72861NA+    NA+45286   8.666  37.830  12.436
72862NA+    NA+45287  20.141  15.284   2.375
72863NA+    NA+45288   8.862  23.504   4.659
72864NA+    NA+45289  11.258  22.161   3.694
72865NA+    NA+45290  37.503   6.302   2.245
72866NA+    NA+45291  25.213   2.743  10.512
72867NA+    NA+45292   2.956  19.551   3.365
72868NA+    NA+45293   3.925   5.315  11.907
72869NA+    NA+45294  38.424  26.962   3.823
72870NA+    NA+45295   6.891  44.910   4.319
72871NA+    NA+45296   4.842   6.693  14.350
72872NA+    NA+45297  25.083  23.593  14.884
72873NA+    NA+45298  10.337  12.312   2.852
72874NA+    NA+45299  14.720  40.928   2.738
72875NA+    NA+45300  13.784  24.707   5.629
72876NA+    NA+45301  38.022  28.173   3.822
72877NA+    NA+45302  11.810  20.110  11.443
72878NA+    NA+45303  35.381  22.578   2.673
72879NA+    NA+45304   4.205  13.326  14.836
72880NA+    NA+45305   2.892  37.940  14.844
72881NA+    NA+45306  22.742  30.477   3.195
72882NA+    NA+45307  20.086  30.952  14.421
72883NA+    NA+45308  34.472  34.065  12.897
72884NA+    NA+45309  17.151  19.572   5.243
72885NA+    NA+45310  21.671  11.727  11.581
72886NA+    NA+45311  14.320  21.202   2.862
72887NA+    NA+45312  14.318   4.844   3.795
72888NA+    NA+45313  24.164  44.348   0.455
72889NA+    NA+45314  37.933  15.706   4.169
72890NA+    NA+45315   4.758  16.223   2.317
72891NA+    NA+45316  29.443   3.257   9.975
72892NA+    NA+45317  37.033  38.502  13.396
72893NA+    NA+45318  39.937   2.880   0.912
72894NA+    NA+45319  40.999  12.634   0.300
72895NA+    NA+45320   6.394  40.457   2.687
72896NA+    NA+45321  23.041   7.325  14.511
72897NA+    NA+45322  34.020  17.242   2.859
72898NA+    NA+45323   8.287   3.933   4.793
72899NA+    NA+45324  34.021  11.267  14.850
72900NA+    NA+45325  36.437  24.665   4.781
72901NA+    NA+45326  39.494  23.105  14.775
72902NA+    NA+45327  10.379   4.904  13.492
72903NA+    NA+45328  12.332   9.821  10.997
72904NA+    NA+45329  16.102  19.203  12.435
72905NA+    NA+45330   6.415  14.288  13.861
72906NA+    NA+45331   3.946  39.849   4.199
72907NA+    NA+45332  14.771  31.615   4.778
72908NA+    NA+45333  31.985   9.319  11.594
72909NA+    NA+45334  42.515  42.476   3.779
72910NA+    NA+45335   9.184   8.663  11.085
72911NA+    NA+45336   1.886  12.642  14.840
72912NA+    NA+45337   4.799  35.866   5.201
72913NA+    NA+45338   3.824  10.147   1.310
72914NA+    NA+45339  30.447  25.548  13.403
72915NA+    NA+45340   1.332   0.410   0.310
72916NA+    NA+45341  42.859  36.359  13.365
72917NA+    NA+45342  25.162  10.295   2.713
72918NA+    NA+45343  12.622  17.080   3.819
72919NA+    NA+45344  33.620  27.676   4.118
72920NA+    NA+45345  25.200   7.353  11.954
72921NA+    NA+45346  29.165  34.099   4.740
72922NA+    NA+45347  21.692  40.423  13.903
72923NA+    NA+45348  40.900  21.053   2.838
72924NA+    NA+45349   7.715   4.724   1.782
72925NA+    NA+45350   5.341  39.946  14.809
72926NA+    NA+45351  29.432  36.011   4.157
72927NA+    NA+45352  28.981  44.409  12.999
72928NA+    NA+45353  33.035   4.743  14.359
72929NA+    NA+45354  37.346  26.665  11.080
72930NA+    NA+45355  30.617  19.082   2.355
72931NA+    NA+45356  36.475   2.235   2.245
72932NA+    NA+45357  28.011  31.520  12.431
72933NA+    NA+45358  29.116   4.325   0.377
72934NA+    NA+45359  28.093  43.293   0.889
72935NA+    NA+45360  28.137   3.354   0.376
72936NA+    NA+45361  31.472  21.709   4.278
72937NA+    NA+45362  38.072  35.524   4.737
72938NA+    NA+45363  40.953  32.439   2.700
72939NA+    NA+45364  31.981  39.929   1.309
72940NA+    NA+45365   1.412  34.419   1.440
72941NA+    NA+45366  24.488  15.692  11.918
72942NA+    NA+45367   0.298  43.872  12.476
72943NA+    NA+45368  35.375  25.130  13.903
72944NA+    NA+45369  27.192  40.452  11.442
72945NA+    NA+45370  41.456   5.830   4.314
72946NA+    NA+45371  15.799  43.969  11.059
72947NA+    NA+45372  21.600  34.462  12.559
72948NA+    NA+45373  24.099  31.483   2.327
72949NA+    NA+45374  14.601   6.353  11.428
72950NA+    NA+45375  32.941  34.895   1.848
72951NA+    NA+45376   1.927  21.196  12.834
72952NA+    NA+45377  12.769   1.816  12.059
72953NA+    NA+45378  26.967  14.179   3.236
72954NA+    NA+45379  22.741   9.315  12.570
72955NA+    NA+45380  41.860  39.546  12.061
72956NA+    NA+45381  42.510  38.325   0.853
72957NA+    NA+45382  12.689  36.887   1.357
72958NA+    NA+45383  11.215  39.988   1.337
72959NA+    NA+45384  17.187  40.886  13.498
72960NA+    NA+45385  17.077  23.149  11.058
72961NA+    NA+45386  32.429  11.778   3.687
72962NA+    NA+45387  22.014  35.489   0.930
72963NA+    NA+45388   7.302  18.781  13.929
72964NA+    NA+45389   4.799  18.781   4.187
72965NA+    NA+45390  42.949   7.270   2.412
72966NA+    NA+45391  28.668  37.508   2.241
72967NA+    NA+45392   8.733  41.829   3.218
72968NA+    NA+45393  17.749   9.817   3.337
72969NA+    NA+45394   4.754  18.573  13.528
72970NA+    NA+45395  11.335  42.990  10.526
72971NA+    NA+45396   8.790  32.608  12.081
72972NA+    NA+45397  13.160   2.416  10.945
72973NA+    NA+45398  39.917  27.103  14.935
72974NA+    NA+45399  35.547  10.777   0.374
72975NA+    NA+45400  12.789  11.338  14.981
72976NA+    NA+45401  42.907  12.717  12.871
72977NA+    NA+45402  22.083  42.873   1.216
72978NA+    NA+45403  19.223  10.815  11.024
72979NA+    NA+45404  15.643  42.015  13.405
72980NA+    NA+45405  32.415  38.941   2.767
72981NA+    NA+45406  39.833   8.780  13.417
72982NA+    NA+45407  44.446  12.318   5.081
72983NA+    NA+45408  26.486   6.779   5.162
72984NA+    NA+45409   7.851  11.270   1.227
72985NA+    NA+45410   0.932  27.666  11.856
72986NA+    NA+45411  40.926  25.139  11.947
72987NA+    NA+45412  25.156   3.282   2.252
72988NA+    NA+45413  20.670  19.199  11.998
72989NA+    NA+45414   9.317  28.945  12.379
72990NA+    NA+45415  28.669  27.052  13.993
72991NA+    NA+45416  32.926  31.908  13.799
72992NA+    NA+45417  33.037  40.471  14.865
72993NA+    NA+45418   7.386  24.581   2.834
72994NA+    NA+45419   8.810  17.717  11.081
72995NA+    NA+45420  15.588  15.140  11.916
72996NA+    NA+45421  25.560  31.588  12.580
72997NA+    NA+45422  12.644   7.904  14.948
72998NA+    NA+45423  31.055  24.558  12.387
72999NA+    NA+45424  21.574  23.516   1.280
73000NA+    NA+45425  37.544  27.182  14.791
73001NA+    NA+45426  40.538  41.920   3.728
73002NA+    NA+45427  12.785  40.374   3.852
73003NA+    NA+45428  18.711  42.361  14.515
73004NA+    NA+45429  17.204   8.687  12.572
73005NA+    NA+45430  15.817  22.240  14.304
73006NA+    NA+45431  30.118  29.426  14.484
73007NA+    NA+45432  26.493  15.675   3.678
73008NA+    NA+45433  15.589  33.508   0.746
73009NA+    NA+45434   6.343  12.166   2.328
73010NA+    NA+45435  27.014  34.585  10.958
73011NA+    NA+45436  25.967  43.764   4.615
73012NA+    NA+45437  17.691  20.647   4.307
73013NA+    NA+45438  14.722  15.803   2.675
73014NA+    NA+45439  17.110  22.556  14.803
73015NA+    NA+45440   3.389  33.941  11.873
73016NA+    NA+45441  35.896  13.291  11.442
73017NA+    NA+45442   1.826  33.459   2.344
73018NA+    NA+45443  39.420  20.563   1.824
73019NA+    NA+45444  34.441  38.357  14.372
73020NA+    NA+45445  14.793  31.106  10.507
73021NA+    NA+45446  28.485  37.953  13.976
73022NA+    NA+45447  29.063  20.062  10.443
73023NA+    NA+45448  44.820  29.610  14.030
73024NA+    NA+45449   8.742  29.496  12.033
73025NA+    NA+45450  30.982  11.227  11.904
73026NA+    NA+45451   5.910  32.552  14.366
73027NA+    NA+45452  13.789  21.176   1.735
73028NA+    NA+45453  36.378  19.699  10.611
73029NA+    NA+45454  35.395  18.151   0.295
73030NA+    NA+45455  42.856   2.814  10.908
73031NA+    NA+45456   3.393   0.964  11.030
73032NA+    NA+45457  35.374  33.586   0.357
73033NA+    NA+45458   7.382  19.084   2.719
73034NA+    NA+45459   9.649  17.646  11.610
73035NA+    NA+45460  33.975  10.748   4.751
73036NA+    NA+45461  43.924  41.296  10.997
73037NA+    NA+45462  40.454  25.487  13.307
73038NA+    NA+45463  43.304  15.207   2.766
73039NA+    NA+45464  17.147   3.939   0.423
73040NA+    NA+45465  38.525  43.292   3.213
73041NA+    NA+45466  41.336  15.139  12.064
73042NA+    NA+45467   8.726  44.407   2.245
73043NA+    NA+45468  25.494   9.688   4.256
73044NA+    NA+45469  13.146  30.929  14.410
73045NA+    NA+45470  38.963  17.093  10.139
73046NA+    NA+45471  20.699  15.819   4.322
73047NA+    NA+45472  15.610  43.903  12.487
73048NA+    NA+45473  28.640  36.994   1.758
73049NA+    NA+45474  14.268  41.301   2.186
73050NA+    NA+45475   5.333  16.153  14.999
73051NA+    NA+45476   4.402   9.316  10.486
73052NA+    NA+45477  35.871   8.663   2.666
73053NA+    NA+45478  11.203  31.126  13.545
73054NA+    NA+45479  18.756   2.416   0.318
73055NA+    NA+45480  41.954  25.127  13.061
73056NA+    NA+45481  41.041  16.621  11.128
73057NA+    NA+45482  28.145   2.798   0.292
73058NA+    NA+45483  35.865   4.810   4.739
73059NA+    NA+45484  20.213   3.461  11.045
73060NA+    NA+45485  36.966   4.709   1.736
73061NA+    NA+45486  44.759  39.521  14.833
73062NA+    NA+45487  44.860   1.361   1.764
73063NA+    NA+45488  26.985  12.723   1.761
73064NA+    NA+45489  26.618  27.066  14.485
73065NA+    NA+45490   2.400   5.764  11.578
73066NA+    NA+45491   0.906   3.826  12.375
73067NA+    NA+45492  14.205  28.669   4.813
73068NA+    NA+45493   0.814   6.416   2.370
73069NA+    NA+45494  41.026  40.018   2.248
73070NA+    NA+45495   0.926  13.602   3.738
73071NA+    NA+45496  15.796   7.781  10.934
73072NA+    NA+45497  35.604  33.580   1.851
73073NA+    NA+45498   4.723  40.804   3.356
73074NA+    NA+45499  22.649  25.714   3.794
73075NA+    NA+45500   7.367   7.767  14.901
73076NA+    NA+45501  44.422  34.544   5.284
73077NA+    NA+45502  10.678  38.966  11.418
73078NA+    NA+45503  12.774   1.315  10.481
73079NA+    NA+45504  36.427  41.480  11.954
73080NA+    NA+45505  22.655  38.000  13.352
73081NA+    NA+45506  22.523  18.052   3.230
73082NA+    NA+45507  28.638  14.690   4.636
73083NA+    NA+45508  32.977  30.983  13.056
73084NA+    NA+45509  17.100  40.483   4.750
73085NA+    NA+45510  31.131   5.415  12.918
73086NA+    NA+45511  12.664  26.533  12.401
73087NA+    NA+45512  37.923  14.819   1.405
73088NA+    NA+45513  36.525  12.805  14.375
73089NA+    NA+45514   5.713   4.392  14.469
73090NA+    NA+45515  30.996   1.902  11.523
73091NA+    NA+45516  41.432  38.476  10.933
73092NA+    NA+45517  12.243  18.611  14.760
73093NA+    NA+45518  20.191  14.275  10.436
73094NA+    NA+45519   2.317  25.527   4.839
73095NA+    NA+45520  17.122  20.644   1.773
73096NA+    NA+45521  40.968  42.921  11.607
73097NA+    NA+45522  22.603  13.689  13.429
73098NA+    NA+45523  16.661  16.253   0.293
73099NA+    NA+45524  15.238  38.036  13.936
73100NA+    NA+45525   5.221   1.939  12.939
73101NA+    NA+45526   9.805   8.783  14.478
73102NA+    NA+45527  28.111  14.162  11.401
73103NA+    NA+45528   4.406  35.052  13.375
73104NA+    NA+45529  41.450  37.570  10.468
73105NA+    NA+45530   7.722   0.331  14.898
73106NA+    NA+45531   8.396   0.915   2.379
73107NA+    NA+45532  43.975  14.663  11.602
73108NA+    NA+45533  37.859  44.862   0.751
73109NA+    NA+45534  12.221  14.790  12.978
73110NA+    NA+45535  26.649  20.619  13.368
73111NA+    NA+45536  18.217  11.817   3.354
73112NA+    NA+45537  16.585  42.018  11.109
73113NA+    NA+45538  21.082  33.416   0.938
73114NA+    NA+45539   8.174  35.580   1.769
73115NA+    NA+45540  36.982  38.366   1.223
73116NA+    NA+45541  36.845   5.824   1.219
73117NA+    NA+45542  10.172  44.260   4.243
73118NA+    NA+45543  11.127  42.807  13.417
73119NA+    NA+45544  27.076  19.079  11.082
73120NA+    NA+45545  28.597  21.534  14.761
73121NA+    NA+45546  13.775  33.546   2.843
73122NA+    NA+45547  12.826  28.453  10.527
73123NA+    NA+45548  23.656  24.518  13.436
73124NA+    NA+45549  42.458  28.131  12.964
73125NA+    NA+45550  21.703  26.593   3.238
73126NA+    NA+45551  44.003  43.334   0.442
73127NA+    NA+45552  13.621  26.671  12.908
73128NA+    NA+45553  32.518   8.711   0.457
73129NA+    NA+45554  38.327  43.479  12.344
73130NA+    NA+45555  13.749   9.816   1.908
73131NA+    NA+45556  31.440   3.331  13.040
73132NA+    NA+45557  25.140   1.760  11.435
73133NA+    NA+45558  20.051  14.665   4.187
73134NA+    NA+45559  44.922  26.593  11.993
73135NA+    NA+45560   5.363  19.706  14.885
73136NA+    NA+45561  21.648  44.358  13.939
73137NA+    NA+45562   8.703  22.714   1.348
73138NA+    NA+45563   7.744  37.402  10.614
73139NA+    NA+45564  35.993  26.567   0.469
73140NA+    NA+45565  11.651   2.353  12.834
73141NA+    NA+45566  20.632  26.166   4.709
73142NA+    NA+45567  21.248  31.117  11.972
73143NA+    NA+45568  36.863  21.144  11.409
73144NA+    NA+45569  18.761   2.802  10.499
73145NA+    NA+45570  36.549  24.692   1.384
73146NA+    NA+45571  28.107   3.356  14.884
73147NA+    NA+45572  13.125  39.396   0.291
73148NA+    NA+45573   5.770  35.600  10.949
73149NA+    NA+45574  38.040  24.571  12.491
73150NA+    NA+45575   2.900   3.328   0.380
73151NA+    NA+45576  24.586   1.250   2.278
73152NA+    NA+45577  21.676  41.910   0.309
73153NA+    NA+45578  34.106   3.920   4.627
73154NA+    NA+45579   5.843  29.437   4.612
73155NA+    NA+45580  17.731  30.496  14.332
73156NA+    NA+45581  21.230  23.560  12.963
73157NA+    NA+45582  11.342  27.963   2.801
73158NA+    NA+45583  13.665  14.131  10.640
73159NA+    NA+45584  17.097  27.991   2.829
73160NA+    NA+45585   1.969   6.812   0.941
73161NA+    NA+45586  19.160   8.883   0.370
73162NA+    NA+45587   9.878  28.480  12.883
73163NA+    NA+45588  14.184  21.045  10.920
73164NA+    NA+45589  32.903  14.181  14.030
73165NA+    NA+45590  42.963  39.035  14.352
73166NA+    NA+45591   4.915  24.623   2.872
73167NA+    NA+45592  16.669  11.148  12.985
73168NA+    NA+45593  39.939  23.239   4.163
73169NA+    NA+45594  31.609   8.777   0.900
73170NA+    NA+45595   8.807   1.805   2.803
73171NA+    NA+45596   0.903  36.515  11.552
73172NA+    NA+45597   2.328  22.236  13.490
73173NA+    NA+45598  29.552  35.584   1.228
73174NA+    NA+45599  43.424  42.509   0.768
73175NA+    NA+45600  19.597  22.740   2.348
73176NA+    NA+45601   5.238   6.292   4.693
73177NA+    NA+45602  24.645  13.650   0.386
73178NA+    NA+45603  39.429  13.244  10.433
73179NA+    NA+45604   2.910  27.580   1.233
73180NA+    NA+45605  34.594  13.772  11.589
73181NA+    NA+45606  19.223  29.526  10.540
73182NA+    NA+45607  27.565  21.144  14.389
73183NA+    NA+45608   9.712  14.234  11.436
73184NA+    NA+45609  37.837   7.174   1.755
73185NA+    NA+45610  28.080   7.402  10.610
73186NA+    NA+45611  28.536  35.023  12.061
73187NA+    NA+45612   9.814  40.369  13.463
73188NA+    NA+45613  29.080  13.690  14.391
73189NA+    NA+45614  22.505   5.381   2.394
73190NA+    NA+45615  19.682  10.280  12.531
73191NA+    NA+45616  43.868  39.536   0.290
73192NA+    NA+45617  36.364  10.787   0.728
73193NA+    NA+45618  35.942  17.579  12.076
73194NA+    NA+45619  33.498  11.631  12.014
73195NA+    NA+45620  32.124  30.020   1.829
73196NA+    NA+45621  26.509  38.494  13.849
73197NA+    NA+45622  15.603  14.257  12.036
73198NA+    NA+45623  35.993  39.025   0.338
73199NA+    NA+45624   5.727  32.126  14.806
73200NA+    NA+45625  24.170  17.599   2.755
73201NA+    NA+45626   4.936  42.947  14.862
73202NA+    NA+45627  27.084  35.014   3.702
73203NA+    NA+45628  28.088  28.534   2.376
73204NA+    NA+45629   4.785  28.478   2.396
73205NA+    NA+45630  39.407  21.570   1.720
73206NA+    NA+45631  13.221  12.121   1.809
73207NA+    NA+45632  36.493  19.244   4.672
73208NA+    NA+45633  24.721  21.698  13.449
73209NA+    NA+45634  35.926   9.780   4.135
73210NA+    NA+45635  27.043   9.304   1.722
73211NA+    NA+45636  13.258  16.076  10.991
73212NA+    NA+45637  20.621  35.580  14.311
73213NA+    NA+45638   6.823  26.696   2.801
73214NA+    NA+45639  21.253   6.234   3.273
73215NA+    NA+45640  14.638   8.344   1.234
73216NA+    NA+45641  43.778  27.991  12.411
73217NA+    NA+45642  43.010  43.781  10.474
73218NA+    NA+45643  38.860  12.686   0.455
73219NA+    NA+45644  11.317  19.615   3.285
73220NA+    NA+45645  17.595  12.818   2.772
73221NA+    NA+45646   4.777  14.261  10.477
73222NA+    NA+45647  39.548  14.310  13.865
73223NA+    NA+45648  15.183  23.054  13.054
73224NA+    NA+45649  37.530  28.628  13.060
73225NA+    NA+45650   9.736   7.201  12.372
73226NA+    NA+45651  35.859  17.087   4.291
73227NA+    NA+45652  35.521   9.727  14.404
73228NA+    NA+45653   5.249  44.285  11.870
73229NA+    NA+45654   8.841  42.281  14.329
73230NA+    NA+45655   0.905  22.572  14.281
73231NA+    NA+45656   8.671  17.241   3.317
73232NA+    NA+45657  41.042  18.593   3.734
73233NA+    NA+45658  28.557  15.792  10.504
73234NA+    NA+45659   2.454  25.987  12.576
73235NA+    NA+45660  43.020   8.779  14.505
73236NA+    NA+45661  11.171  11.155  14.025
73237NA+    NA+45662   0.825  40.988   1.283
73238NA+    NA+45663   6.887  42.779   3.784
73239NA+    NA+45664   0.960  13.128   2.714
73240NA+    NA+45665  30.428  23.073   0.768
73241NA+    NA+45666  36.578  23.629   1.356
73242NA+    NA+45667   1.861  33.912   4.235
73243NA+    NA+45668   4.398  31.487   3.727
73244NA+    NA+45669  13.834  25.103  13.983
73245NA+    NA+45670  39.896  32.136  11.984
73246NA+    NA+45671  17.070   4.323   4.781
73247NA+    NA+45672  24.129  31.483  11.925
73248NA+    NA+45673  21.619  33.942  13.947
73249NA+    NA+45674   8.271  12.723  11.576
73250NA+    NA+45675  18.768  20.256   1.842
73251NA+    NA+45676  21.634  12.256   4.672
73252NA+    NA+45677  41.945  42.461   0.914
73253NA+    NA+45678  24.608  40.828  14.989
73254NA+    NA+45679  33.985  28.563  13.910
73255NA+    NA+45680  41.930  37.372  14.458
73256NA+    NA+45681  23.012   5.200   0.299
73257NA+    NA+45682  17.678  33.585   1.321
73258NA+    NA+45683  29.499   9.246   3.336
73259NA+    NA+45684   4.732  23.522  11.114
73260NA+    NA+45685  30.092   4.334   0.422
73261NA+    NA+45686   5.371  32.042  14.317
73262NA+    NA+45687  17.620  36.884  14.917
73263NA+    NA+45688  20.048  37.918   2.298
73264NA+    NA+45689  43.779  28.639   1.796
73265NA+    NA+45690  15.806  19.770  12.444
73266NA+    NA+45691  44.474   3.770   0.868
73267NA+    NA+45692  13.666  34.413  10.631
73268NA+    NA+45693  15.627  24.650  11.486
73269NA+    NA+45694  16.242  21.253  11.399
73270NA+    NA+45695   3.807  24.722   2.211
73271NA+    NA+45696  36.040   7.906  11.872
73272NA+    NA+45697   6.232  22.231   1.911
73273NA+    NA+45698   7.214  42.507  13.484
73274NA+    NA+45699  11.793  19.637  13.519
73275NA+    NA+45700   7.735  42.497   0.848
73276NA+    NA+45701  30.555  14.193  11.039
73277NA+    NA+45702  11.736   0.463  11.876
73278NA+    NA+45703  10.205  35.364  14.884
73279NA+    NA+45704  25.161  39.894   0.255
73280NA+    NA+45705  41.499  33.977   0.440
73281NA+    NA+45706   6.386   0.918  12.488
73282NA+    NA+45707   9.681  15.648  11.896
73283NA+    NA+45708  24.102  23.665  10.618
73284NA+    NA+45709   9.738  33.549   0.328
73285NA+    NA+45710  33.009  35.006  14.506
73286NA+    NA+45711  44.431  21.206  10.937
73287NA+    NA+45712  28.461  14.108  14.372
73288NA+    NA+45713  38.515   6.760   3.762
73289NA+    NA+45714  31.638  24.185   0.908
73290NA+    NA+45715  23.645  19.072   4.694
73291NA+    NA+45716   0.959  30.113   0.764
73292NA+    NA+45717   6.315  34.406  14.762
73293NA+    NA+45718  10.248  36.896  12.996
73294NA+    NA+45719  32.506  24.663   4.206
73295NA+    NA+45720  38.940   7.222  10.429
73296NA+    NA+45721  14.151  28.557   0.903
73297NA+    NA+45722   0.747  38.826   2.759
73298NA+    NA+45723   6.761  29.991   2.728
73299NA+    NA+45724  10.750  34.999  14.877
73300NA+    NA+45725  43.932  13.842   2.400
73301NA+    NA+45726  24.173  15.267   4.632
73302NA+    NA+45727  11.305  30.600  13.880
73303NA+    NA+45728  32.069  40.367  14.413
73304NA+    NA+45729  43.309  25.505   4.754
73305NA+    NA+45730  36.379  25.974  12.372
73306NA+    NA+45731  32.930  21.572  14.491
73307NA+    NA+45732  41.491   1.428   4.743
73308NA+    NA+45733  38.530  25.140   1.443
73309NA+    NA+45734  40.371  33.900  13.346
73310NA+    NA+45735  10.324  25.529  13.546
73311NA+    NA+45736  39.966  14.290   1.242
73312NA+    NA+45737  12.183  39.414  12.824
73313NA+    NA+45738  33.456  28.086   3.364
73314NA+    NA+45739   1.364  44.428  11.468
73315NA+    NA+45740  21.644   0.903  10.969
73316NA+    NA+45741  32.623  39.992   0.434
73317NA+    NA+45742   9.784  25.516  12.422
73318NA+    NA+45743  19.219  17.078   1.413
73319NA+    NA+45744  38.348  11.291  12.518
73320NA+    NA+45745  13.222  28.018   0.838
73321NA+    NA+45746  41.510  30.462  12.428
73322NA+    NA+45747  36.357  36.498   3.861
73323NA+    NA+45748  37.860  30.058  12.982
73324NA+    NA+45749   6.883  15.113   4.268
73325NA+    NA+45750  14.803  31.035  13.002
73326NA+    NA+45751  14.311  11.674  11.106
73327NA+    NA+45752  23.011  30.931   3.860
73328NA+    NA+45753   8.287   5.891  10.502
73329NA+    NA+45754  20.605  15.640  14.353
73330NA+    NA+45755  21.202  16.680  12.435
73331NA+    NA+45756  30.569  15.623  11.860
73332NA+    NA+45757  39.525  35.019  12.531
73333NA+    NA+45758   8.812   0.801   4.219
73334NA+    NA+45759  11.828  12.214  11.423
73335NA+    NA+45760  12.294  22.086   5.748
73336NA+    NA+45761  33.562   9.645  11.095
73337NA+    NA+45762  37.004  20.266  14.887
73338NA+    NA+45763  33.449  26.530   2.788
73339NA+    NA+45764  33.509  39.338  11.555
73340NA+    NA+45765  13.190  38.871  11.089
73341NA+    NA+45766  19.212  22.613  12.446
73342NA+    NA+45767   5.388  36.400   1.835
73343NA+    NA+45768  44.413   4.833  12.054
73344NA+    NA+45769  38.853   6.231   3.820
73345NA+    NA+45770  42.929  38.912   4.680
73346NA+    NA+45771  26.111  38.500   1.255
73347NA+    NA+45772  15.304  14.305   4.268
73348NA+    NA+45773  42.805   1.872  11.080
73349NA+    NA+45774  22.500   5.378   4.313
73350NA+    NA+45775   7.846  34.423   9.972
73351NA+    NA+45776  15.303   1.404   3.650
73352NA+    NA+45777  28.134  16.608   2.290
73353NA+    NA+45778  40.879  10.253   2.203
73354NA+    NA+45779  26.020   6.225   0.949
73355NA+    NA+45780  17.187  12.648  14.994
73356NA+    NA+45781  30.489  34.575   1.357
73357NA+    NA+45782   0.357  10.302  12.016
73358NA+    NA+45783  44.960  25.517   4.607
73359NA+    NA+45784  30.917   2.283  14.277
73360NA+    NA+45785  32.029   2.329  12.557
73361NA+    NA+45786  42.029  40.980   4.135
73362NA+    NA+45787  34.039   5.194  15.000
73363NA+    NA+45788   7.344  11.232   0.732
73364NA+    NA+45789   1.848  11.257  14.395
73365NA+    NA+45790  42.336   1.468  10.548
73366NA+    NA+45791  16.640  37.463  10.493
73367NA+    NA+45792   6.855  37.414   3.340
73368NA+    NA+45793  28.975  21.556  10.451
73369NA+    NA+45794   3.939  43.942  10.505
73370NA+    NA+45795  15.229   6.890  14.381
73371NA+    NA+45796  22.048  23.619   0.788
73372NA+    NA+45797  38.025  34.985   0.381
73373NA+    NA+45798  37.391  15.590   4.821
73374NA+    NA+45799  19.728  32.420   0.323
73375NA+    NA+45800   3.807  38.341  11.922
73376NA+    NA+45801   6.240  33.917  13.358
73377NA+    NA+45802  10.265   6.295  14.985
73378NA+    NA+45803  30.585  33.540   1.705
73379NA+    NA+45804  24.021  18.201   1.246
73380NA+    NA+45805   5.274  15.216   1.319
73381NA+    NA+45806  26.172  30.637   2.765
73382NA+    NA+45807  24.069   8.254  10.908
73383NA+    NA+45808  42.329  26.006   3.844
73384NA+    NA+45809  22.062  19.162   2.354
73385NA+    NA+45810  34.956  28.626  14.764
73386NA+    NA+45811  25.026  15.156  14.779
73387NA+    NA+45812   7.173  42.383  11.480
73388NA+    NA+45813  29.050  39.016  14.801
73389NA+    NA+45814  42.965  23.729   2.788
73390NA+    NA+45815  16.742  23.716  13.918
73391NA+    NA+45816  41.789   6.882  11.939
73392NA+    NA+45817  11.831   3.747   1.786
73393NA+    NA+45818   4.353  22.570  11.858
73394NA+    NA+45819  35.466   0.938   0.409
73395NA+    NA+45820  20.238  37.357  11.550
73396NA+    NA+45821  23.204  37.537  11.425
73397NA+    NA+45822  28.181  26.111  11.976
73398NA+    NA+45823  43.902  19.661  12.969
73399NA+    NA+45824  44.919  35.499   3.630
73400NA+    NA+45825   2.745  30.945   2.411
73401NA+    NA+45826  39.883  20.558   3.324
73402NA+    NA+45827  26.595  34.387   3.856
73403NA+    NA+45828  38.077  32.108  11.569
73404NA+    NA+45829   9.785  31.532   2.820
73405NA+    NA+45830  42.953  31.476  11.584
73406NA+    NA+45831  23.142  42.441  12.921
73407NA+    NA+45832  20.204   5.836   2.228
73408NA+    NA+45833   3.942  13.780  12.915
73409NA+    NA+45834  37.427   1.370   1.923
73410NA+    NA+45835  43.323   2.749   0.835
73411NA+    NA+45836  40.011  30.004  14.400
73412NA+    NA+45837  29.008   0.313   2.306
73413NA+    NA+45838  17.072  18.141   1.765
73414NA+    NA+45839   2.919  23.606  12.911
73415NA+    NA+45840  43.325   2.799  13.386
73416NA+    NA+45841   6.808  30.642  12.045
73417NA+    NA+45842  18.751  28.442   3.671
73418NA+    NA+45843  15.165  12.141   2.718
73419NA+    NA+45844  25.487  10.215  14.363
73420NA+    NA+45845   2.240  19.590  11.979
73421NA+    NA+45846  27.152  37.516   3.287
73422NA+    NA+45847  41.791  32.559   2.766
73423NA+    NA+45848  44.941  31.408  12.404
73424NA+    NA+45849   2.403  23.003   2.327
73425NA+    NA+45850  26.632  13.181   0.402
73426NA+    NA+45851  26.504   6.181   0.311
73427NA+    NA+45852  41.950  41.923   1.744
73428NA+    NA+45853   9.203  16.176   4.332
73429NA+    NA+45854  15.672  10.371   1.854
73430NA+    NA+45855   9.736  13.114  12.027
73431NA+    NA+45856   8.344  29.497  11.873
73432NA+    NA+45857  33.974  24.095  10.449
73433NA+    NA+45858  27.960   3.887  14.436
73434NA+    NA+45859  31.466  37.011  10.903
73435NA+    NA+45860  28.117  16.636   9.958
73436NA+    NA+45861  44.371  25.112   2.183
73437NA+    NA+45862  21.604  29.161   3.161
73438NA+    NA+45863  29.080   4.276  10.412
73439NA+    NA+45864  38.917  41.330  11.092
73440NA+    NA+45865  15.787  14.710  11.885
73441NA+    NA+45866  44.008  33.393  11.462
73442NA+    NA+45867   7.688  36.558   5.252
73443NA+    NA+45868   3.370  44.429   3.290
73444NA+    NA+45869  42.374  22.620   1.845
73445NA+    NA+45870  23.687  27.603  13.352
73446NA+    NA+45871  40.367  38.475   1.780
73447NA+    NA+45872   3.410  15.188  11.932
73448NA+    NA+45873  26.611   9.340  14.825
73449NA+    NA+45874  39.439  43.406  14.971
73450NA+    NA+45875   8.214  26.103   3.801
73451NA+    NA+45876  38.834  24.223  10.538
73452NA+    NA+45877  25.212  35.983   4.158
73453NA+    NA+45878  21.701  12.855  14.016
73454NA+    NA+45879  38.475  19.603   1.935
73455NA+    NA+45880  17.558   0.946  13.993
73456NA+    NA+45881  17.072  40.353   5.084
73457NA+    NA+45882  39.434  36.578   0.282
73458NA+    NA+45883  15.782  19.237   3.257
73459NA+    NA+45884  11.127  18.649  11.001
73460NA+    NA+45885  15.770  17.298  12.955
73461NA+    NA+45886  24.583   3.361  13.981
73462NA+    NA+45887  15.322  34.017   3.708
73463NA+    NA+45888  43.814  18.296  14.442
73464NA+    NA+45889  14.674  38.842  11.565
73465NA+    NA+45890   2.745  17.661   1.398
73466NA+    NA+45891  23.102  12.305   9.565
73467NA+    NA+45892  19.257   7.405   3.805
73468NA+    NA+45893  37.085   1.972   3.811
73469NA+    NA+45894  19.773  31.057   3.300
73470NA+    NA+45895  23.141   9.387  13.832
73471NA+    NA+45896   7.771  18.212   2.264
73472NA+    NA+45897  11.245  20.259  11.565
73473NA+    NA+45898   3.781  35.494   0.788
73474NA+    NA+45899   1.349   2.734   1.219
73475NA+    NA+45900  21.077   3.430  11.019
73476NA+    NA+45901  28.489  11.173  11.957
73477NA+    NA+45902  29.925   9.866   0.400
73478NA+    NA+45903  37.835  12.853  13.457
73479NA+    NA+45904  19.171  10.647  14.780
73480NA+    NA+45905  24.989   2.799   3.810
73481NA+    NA+45906  15.296   1.289   1.832
73482NA+    NA+45907  34.958  43.445  13.972
73483NA+    NA+45908   1.359  13.708  10.436
73484NA+    NA+45909  34.589  11.827  11.428
73485NA+    NA+45910  30.519  39.332   4.824
73486NA+    NA+45911   4.328  11.191   3.300
73487NA+    NA+45912  27.638  40.993   1.725
73488NA+    NA+45913  39.012   0.779  12.082
73489NA+    NA+45914  15.177  32.025   1.819
73490NA+    NA+45915  36.037  17.598   1.274
73491NA+    NA+45916  17.712  40.837   3.744
73492NA+    NA+45917  41.368  22.706   5.120
73493NA+    NA+45918  12.746   8.242   1.406
73494NA+    NA+45919  32.521  43.378  12.892
73495NA+    NA+45920   0.298  30.570  14.821
73496NA+    NA+45921  29.000  43.955   2.359
73497NA+    NA+45922  14.707  14.676   3.771
73498NA+    NA+45923   9.248  13.346  14.771
73499NA+    NA+45924  33.889  27.513  11.128
73500NA+    NA+45925  33.465  19.070   0.965
73501NA+    NA+45926   8.663   4.880   5.223
73502NA+    NA+45927   1.447  25.073  14.907
73503NA+    NA+45928  43.900  12.339   2.324
73504NA+    NA+45929  35.892  38.971   4.152
73505NA+    NA+45930  30.158  20.698   0.842
73506NA+    NA+45931   8.823  37.398  11.005
73507NA+    NA+45932   5.930  36.565  14.879
73508NA+    NA+45933  25.506  11.283   4.791
73509NA+    NA+45934  22.242  32.108  14.816
73510NA+    NA+45935  40.512  40.367   3.365
73511NA+    NA+45936  31.953  22.611  11.983
73512NA+    NA+45937  24.046  11.828   0.406
73513NA+    NA+45938  44.947  40.989  12.886
73514NA+    NA+45939  22.667  44.332  13.036
73515NA+    NA+45940  25.579  43.380  13.414
73516NA+    NA+45941  13.180   3.374  11.930
73517NA+    NA+45942  12.704  24.004   2.231
73518NA+    NA+45943  29.053  20.266   1.335
73519NA+    NA+45944  37.530   0.836  11.085
73520NA+    NA+45945  42.296   0.861   4.208
73521NA+    NA+45946  19.156  14.758  13.020
73522NA+    NA+45947  19.201  21.085   3.700
73523NA+    NA+45948  12.817  33.926  13.434
73524NA+    NA+45949  11.131  39.915   1.815
73525NA+    NA+45950  36.915   2.772   3.709
73526NA+    NA+45951  42.867  31.612   0.260
73527NA+    NA+45952  41.303  36.885  14.761
73528NA+    NA+45953  43.005  42.445   0.952
73529NA+    NA+45954  11.662  21.094   4.147
73530NA+    NA+45955  43.402   3.366   3.311
73531NA+    NA+45956  18.666  13.790   2.358
73532NA+    NA+45957  44.967   4.276   3.250
73533NA+    NA+45958  15.185  35.529  11.567
73534NA+    NA+45959  14.234  42.511  13.451
73535NA+    NA+45960  30.442  39.346   0.459
73536NA+    NA+45961  16.210  24.647  14.407
73537NA+    NA+45962  37.478  24.070  12.840
73538NA+    NA+45963  19.625  20.214  12.468
73539NA+    NA+45964  44.328  24.079  10.562
73540NA+    NA+45965   3.939  14.242   4.298
73541NA+    NA+45966  44.884  39.982   4.222
73542NA+    NA+45967  12.717  30.145  13.817
73543NA+    NA+45968  38.830  14.177   3.746
73544NA+    NA+45969  29.544  40.349  12.392
73545NA+    NA+45970  41.436   2.814  10.941
73546NA+    NA+45971   2.341  40.986  13.532
73547NA+    NA+45972  23.590   9.814   1.280
73548NA+    NA+45973  39.970  40.378  12.482
73549NA+    NA+45974  29.031  13.627  11.072
73550NA+    NA+45975  15.680  39.356   3.789
73551NA+    NA+45976  17.095   5.724   3.849
73552NA+    NA+45977   5.200   6.776  12.033
73553NA+    NA+45978  15.282   7.282  14.279
73554NA+    NA+45979   4.700  31.590  11.977
73555NA+    NA+45980  11.752  22.171   2.326
73556NA+    NA+45981  39.323  40.446   0.828
73557NA+    NA+45982  31.105  23.095   4.213
73558NA+    NA+45983  23.167  11.134  10.929
73559NA+    NA+45984  27.174   4.930   0.948
73560NA+    NA+45985  31.472  30.426   3.669
73561NA+    NA+45986  10.270  41.532  10.573
73562NA+    NA+45987  13.759  23.595   1.430
73563NA+    NA+45988   3.458  43.376  12.871
73564NA+    NA+45989  22.665  41.358   3.681
73565NA+    NA+45990   4.935   3.773  13.796
73566NA+    NA+45991  36.030  19.620   2.340
73567NA+    NA+45992  16.217  18.060   0.886
73568NA+    NA+45993  28.057  34.919   2.773
73569NA+    NA+45994  17.791  31.591  13.831
73570NA+    NA+45995  29.507   9.842  11.964
73571NA+    NA+45996  20.669  26.619  11.117
73572NA+    NA+45997  10.334   2.760   0.827
73573NA+    NA+45998  41.816  29.048   3.174
73574NA+    NA+45999  26.599  13.634  12.405
73575NA+    NA+46000  43.361  25.552   3.720
73576NA+    NA+46001   9.274  40.927   1.444
73577NA+    NA+46002  31.913  33.965   0.878
73578NA+    NA+46003  19.251   9.199   4.615
73579NA+    NA+46004  22.131  22.578  12.394
73580NA+    NA+46005  38.992  40.469   1.214
73581NA+    NA+46006  42.936  22.631   1.779
73582NA+    NA+46007   8.744   4.275  12.579
73583NA+    NA+46008  18.121   0.756  14.931
73584NA+    NA+46009  43.414   8.182   2.339
73585NA+    NA+46010   8.339   9.341  14.961
73586NA+    NA+46011  33.935   9.843  13.544
73587NA+    NA+46012   4.414  18.751  14.464
73588NA+    NA+46013  13.265   7.401   4.718
73589NA+    NA+46014   6.730  21.680  14.510
73590NA+    NA+46015  44.958  31.417  12.865
73591NA+    NA+46016  15.815   5.753   4.196
73592NA+    NA+46017  23.232  30.073   3.783
73593NA+    NA+46018   9.828  27.940   3.753
73594NA+    NA+46019  39.419  14.728   1.919
73595NA+    NA+46020  11.143   7.697   9.965
73596NA+    NA+46021  41.374  32.507   4.770
73597NA+    NA+46022  20.177  28.142  12.375
73598NA+    NA+46023  37.453  26.676   2.688
73599NA+    NA+46024  38.819  42.471   2.722
73600NA+    NA+46025  33.493   0.909   2.329
73601NA+    NA+46026  42.909   6.206  14.808
73602NA+    NA+46027   3.933  19.223   1.413
73603NA+    NA+46028  21.254  33.057   0.886
73604NA+    NA+46029   3.946  26.952  14.385
73605NA+    NA+46030  13.323   2.912   2.664
73606NA+    NA+46031   3.437  14.187   3.647
73607NA+    NA+46032  38.453   2.413  10.474
73608NA+    NA+46033  16.229  20.552   4.737
73609NA+    NA+46034  24.668  20.216   2.320
73610NA+    NA+46035  35.035  10.837   3.284
73611NA+    NA+46036   3.337   7.696  14.447
73612NA+    NA+46037   6.273   3.402   0.845
73613NA+    NA+46038  30.648  15.627   0.337
73614NA+    NA+46039   2.378   5.709   3.297
73615NA+    NA+46040  32.453  31.444  13.016
73616NA+    NA+46041  26.573  36.392  11.500
73617NA+    NA+46042  39.540  38.957  11.958
73618NA+    NA+46043  16.768  41.378  14.770
73619NA+    NA+46044   2.962  30.996  13.064
73620NA+    NA+46045  33.090  27.536  13.386
73621NA+    NA+46046  34.600  31.928  13.044
73622NA+    NA+46047  35.853  27.555   1.838
73623NA+    NA+46048  25.056   9.862   3.211
73624NA+    NA+46049  40.318  43.355  10.949
73625NA+    NA+46050  40.515  13.603   4.162
73626NA+    NA+46051  40.337  20.055  12.847
73627NA+    NA+46052   5.209   4.746  13.865
73628NA+    NA+46053  27.097   8.712   4.759
73629NA+    NA+46054   7.239  24.049  11.594
73630NA+    NA+46055  27.978  16.264  13.368
73631NA+    NA+46056  21.665  26.955   4.304
73632NA+    NA+46057  36.582  14.764  12.874
73633NA+    NA+46058  10.223  35.359   0.432
73634NA+    NA+46059   4.339   8.735   3.319
73635NA+    NA+46060  42.852  36.458  12.512
73636NA+    NA+46061  27.567  26.114   1.715
73637NA+    NA+46062  42.444  39.918  11.461
73638NA+    NA+46063  32.897  16.749   5.205
73639NA+    NA+46064  28.624  44.330  12.962
73640NA+    NA+46065   8.340  33.890   0.934
73641NA+    NA+46066  24.170  20.103   4.216
73642NA+    NA+46067   5.689  28.665  11.018
73643NA+    NA+46068  18.588  23.605  11.608
73644NA+    NA+46069  15.662  30.442  13.372
73645NA+    NA+46070   1.831  41.973  13.374
73646NA+    NA+46071  38.522  34.949  12.946
73647NA+    NA+46072  19.669  40.856  12.386
73648NA+    NA+46073  29.480  35.427   1.720
73649NA+    NA+46074  30.078  30.546  13.017
73650NA+    NA+46075  31.925   3.738  12.879
73651NA+    NA+46076  37.032   3.287   5.128
73652NA+    NA+46077  38.071  19.281  11.870
73653NA+    NA+46078  40.428   9.865   2.261
73654NA+    NA+46079  20.145  41.036   4.133
73655NA+    NA+46080  40.359  25.068  11.928
73656NA+    NA+46081  16.303  42.516   1.313
73657NA+    NA+46082  10.296  11.325  14.360
73658NA+    NA+46083  11.351   0.880  14.895
73659NA+    NA+46084  31.643  37.518   4.627
73660NA+    NA+46085  28.179  43.508   3.204
73661NA+    NA+46086  14.096  43.879   0.282
73662NA+    NA+46087   2.248  39.518  12.973
73663NA+    NA+46088   0.367  12.161   4.599
73664NA+    NA+46089  24.001  25.045   1.927
73665NA+    NA+46090   4.330   6.743  11.436
73666NA+    NA+46091  29.435  24.560  12.868
73667NA+    NA+46092   2.921  32.407  14.863
73668NA+    NA+46093  17.196  33.448  12.391
73669NA+    NA+46094   9.327  23.005  11.087
73670NA+    NA+46095  32.117  32.093  13.515
73671NA+    NA+46096  21.047  10.704   4.156
73672NA+    NA+46097  32.914  36.473   0.877
73673NA+    NA+46098  41.359  23.631   3.319
73674NA+    NA+46099  42.857  19.597  12.050
73675NA+    NA+46100  26.121  31.500   5.747
73676NA+    NA+46101  23.073   0.363   2.315
73677NA+    NA+46102   9.771  14.589  12.387
73678NA+    NA+46103  17.140  35.982  13.919
73679NA+    NA+46104  22.653  21.059  11.912
73680NA+    NA+46105  28.591   4.283   4.779
73681NA+    NA+46106   2.799   1.929   3.238
73682NA+    NA+46107  29.431   2.250  12.992
73683NA+    NA+46108  26.694  34.040  13.979
73684NA+    NA+46109  32.943   8.310   0.348
73685NA+    NA+46110  32.003  10.680  14.030
73686NA+    NA+46111   3.294  22.100   3.691
73687NA+    NA+46112   2.780  22.526  11.493
73688NA+    NA+46113   5.228  30.155   2.246
73689NA+    NA+46114  38.898  32.989   2.790
73690NA+    NA+46115  38.358  15.129  13.315
73691NA+    NA+46116  29.003  32.496   2.706
73692NA+    NA+46117   2.340   7.900  11.050
73693NA+    NA+46118  27.134  36.967   2.798
73694NA+    NA+46119  39.468  32.506  13.944
73695NA+    NA+46120  23.698  29.645   4.335
73696NA+    NA+46121   5.298  42.920  12.067
73697NA+    NA+46122  22.537  33.462  14.018
73698NA+    NA+46123  38.523  11.831   3.727
73699NA+    NA+46124  11.211  40.320   3.718
73700NA+    NA+46125  20.093  37.873  10.998
73701NA+    NA+46126  15.627  22.127  12.472
73702NA+    NA+46127  12.123  40.911  12.935
73703NA+    NA+46128  44.332  23.168   2.218
73704NA+    NA+46129  19.238   9.771   0.396
73705NA+    NA+46130  24.541   6.224  13.820
73706NA+    NA+46131  14.335   8.813  11.481
73707NA+    NA+46132  20.546  43.479   1.697
73708NA+    NA+46133  40.406  25.092  11.517
73709NA+    NA+46134  17.099  18.177   0.456
73710NA+    NA+46135   7.275  22.584  12.482
73711NA+    NA+46136  15.170  38.501  11.011
73712NA+    NA+46137  31.896  17.786  14.791
73713NA+    NA+46138  41.317  13.636  13.046
73714NA+    NA+46139  38.565  24.653  11.439
73715NA+    NA+46140   8.725  31.474  12.550
73716NA+    NA+46141  31.419   7.893   0.371
73717NA+    NA+46142  33.070  44.911   4.248
73718NA+    NA+46143  39.442  23.005  12.487
73719NA+    NA+46144  21.675  43.916   0.873
73720NA+    NA+46145   7.345  19.207  10.488
73721NA+    NA+46146  15.784  24.011  10.443
73722NA+    NA+46147  25.546  32.045   5.086
73723NA+    NA+46148  24.085  40.019  11.001
73724NA+    NA+46149   7.336  32.066   2.831
73725NA+    NA+46150  34.589  35.504  11.520
73726NA+    NA+46151  13.709  27.509   0.331
73727NA+    NA+46152  27.674  25.056   1.916
73728NA+    NA+46153   5.209   4.889  10.559
73729NA+    NA+46154  34.900  26.550   0.458
73730NA+    NA+46155  36.399  22.245   1.272
73731NA+    NA+46156  35.386   3.290   1.811
73732NA+    NA+46157  32.028  20.556  11.422
73733NA+    NA+46158  33.481   3.847  11.954
73734NA+    NA+46159  43.288  14.706   0.301
73735NA+    NA+46160  13.610  15.298  12.004
73736NA+    NA+46161  15.683  18.669  14.945
73737NA+    NA+46162   7.318  38.327   1.757
73738NA+    NA+46163  31.507  40.883  10.487
73739NA+    NA+46164   0.476  12.746  14.976
73740NA+    NA+46165  42.309  17.655  12.399
73741NA+    NA+46166  20.591  36.487   4.220
73742NA+    NA+46167  33.547   5.696   3.713
73743NA+    NA+46168  41.317  18.171  11.507
73744NA+    NA+46169   9.818  43.284   2.811
73745NA+    NA+46170  23.678  18.273  11.059
73746NA+    NA+46171   3.315   2.303   3.245
73747NA+    NA+46172  29.975  38.497   4.736
73748NA+    NA+46173   7.298  28.519  10.539
73749NA+    NA+46174   9.888  15.256  12.467
73750NA+    NA+46175  43.373   3.411  14.029
73751NA+    NA+46176  14.695  28.938   0.254
73752NA+    NA+46177  27.128  36.899   1.333
73753NA+    NA+46178  22.640  35.487   3.257
73754NA+    NA+46179  38.359  39.044  14.430
73755NA+    NA+46180  10.716  42.513  13.503
73756NA+    NA+46181  11.329  20.676  11.958
73757NA+    NA+46182  28.982  42.427   3.352
73758NA+    NA+46183  18.678  40.325   2.883
73759NA+    NA+46184  12.260  21.017  12.918
73760NA+    NA+46185  23.015   7.348   0.855
73761NA+    NA+46186   9.705  11.667   1.351
73762NA+    NA+46187  20.067  11.258  10.999
73763NA+    NA+46188  42.920  36.930   0.434
73764NA+    NA+46189  22.610  33.421   2.294
73765NA+    NA+46190  41.973   5.744  14.778
73766NA+    NA+46191  29.478   4.435  12.395
73767NA+    NA+46192  43.782  27.502  10.455
73768NA+    NA+46193   4.845   1.892  13.914
73769NA+    NA+46194  42.325   8.231   1.775
73770NA+    NA+46195  37.575  32.596   3.304
73771NA+    NA+46196  26.183  42.335  11.513
73772NA+    NA+46197  24.192  35.065  13.384
73773NA+    NA+46198  43.300  12.152  11.387
73774NA+    NA+46199  23.515  27.572   2.191
73775NA+    NA+46200  41.352  32.036  12.468
73776NA+    NA+46201  41.437   1.286   2.674
73777NA+    NA+46202   3.327  17.086   5.268
73778NA+    NA+46203  11.711  21.683  14.446
73779NA+    NA+46204  12.233  12.218  12.463
73780NA+    NA+46205  42.375  22.740  10.567
73781NA+    NA+46206   5.331   7.748  14.405
73782NA+    NA+46207  30.960  10.337  10.052
73783NA+    NA+46208  16.307   1.337   0.794
73784NA+    NA+46209  40.920  32.611  13.415
73785NA+    NA+46210  27.190  20.133  12.096
73786NA+    NA+46211  37.966  19.573   4.331
73787NA+    NA+46212  17.576  44.388   1.397
73788NA+    NA+46213  10.857  31.616   1.226
73789NA+    NA+46214  41.889  25.094   4.787
73790NA+    NA+46215  14.111  39.342   2.252
73791NA+    NA+46216  39.855  35.947   4.714
73792NA+    NA+46217  10.287  37.374   1.726
73793NA+    NA+46218  20.709  39.925   1.915
73794NA+    NA+46219  10.249  26.602  10.523
73795NA+    NA+46220  26.644  33.539  10.610
73796NA+    NA+46221  14.121  33.579   2.326
73797NA+    NA+46222  26.074   5.911   1.761
73798NA+    NA+46223  15.606  27.968  14.843
73799NA+    NA+46224  29.132  43.766  12.557
73800NA+    NA+46225  22.174  39.540   3.762
73801NA+    NA+46226   5.761   0.810  14.458
73802NA+    NA+46227  35.577  30.984   4.266
73803NA+    NA+46228  34.555  22.040  12.506
73804NA+    NA+46229  41.796   8.231   1.761
73805NA+    NA+46230  19.104  39.871  14.402
73806NA+    NA+46231  24.014  24.040   0.813
73807NA+    NA+46232  39.413  43.958   4.719
73808NA+    NA+46233   4.808  10.175  13.046
73809NA+    NA+46234  38.455  26.041  12.415
73810NA+    NA+46235  43.793  27.582   4.352
73811NA+    NA+46236  14.283  32.562  14.337
73812NA+    NA+46237   9.794  34.046   1.345
73813NA+    NA+46238  36.948  11.279   1.432
73814NA+    NA+46239  21.610  15.136   3.655
73815NA+    NA+46240  35.912   7.856  12.571
73816NA+    NA+46241  18.255   0.818  10.615
73817NA+    NA+46242   1.735  14.681  11.046
73818NA+    NA+46243  42.030  35.862   1.346
73819NA+    NA+46244  32.090  22.227   3.377
73820NA+    NA+46245  42.318  41.787  12.065
73821NA+    NA+46246   2.459  23.726   4.305
73822NA+    NA+46247  12.759   2.807   3.676
73823NA+    NA+46248  44.436  12.671  10.944
73824NA+    NA+46249   8.756  44.265   1.435
73825NA+    NA+46250  33.404  15.784   1.263
73826NA+    NA+46251  32.116   8.783   3.859
73827NA+    NA+46252   0.895  27.649  11.590
73828NA+    NA+46253  15.600   0.746   2.853
73829NA+    NA+46254  22.531  27.670  13.536
73830NA+    NA+46255  24.687  14.824   0.833
73831NA+    NA+46256  35.482  29.979   0.358
73832NA+    NA+46257  37.474  11.866   4.226
73833NA+    NA+46258  32.437  40.976  12.484
73834NA+    NA+46259  13.252  44.006   3.323
73835NA+    NA+46260  44.438  16.207  13.974
73836NA+    NA+46261  42.356  34.031   1.260
73837NA+    NA+46262  16.075  11.652  14.507
73838NA+    NA+46263   1.286  14.111   4.218
73839NA+    NA+46264  38.546  37.371  12.024
73840NA+    NA+46265  19.740  32.075   0.281
73841NA+    NA+46266   1.877  12.631   0.267
73842NA+    NA+46267   9.207   0.760   0.769
73843NA+    NA+46268  29.630   8.222   1.434
73844NA+    NA+46269  41.301  23.142   0.419
73845NA+    NA+46270  42.794   7.735   5.112
73846NA+    NA+46271   0.749   3.418  12.093
73847NA+    NA+46272   9.376   4.240   4.685
73848NA+    NA+46273  34.499  20.037  11.506
73849NA+    NA+46274  14.139  39.854   3.159
73850NA+    NA+46275  25.965  18.173   1.852
73851NA+    NA+46276  28.672  43.864  12.526
73852NA+    NA+46277   0.461  31.026  10.530
73853NA+    NA+46278  39.446  21.042  12.841
73854NA+    NA+46279  11.193  17.612  12.453
73855NA+    NA+46280  12.247   8.315  10.627
73856NA+    NA+46281  39.890   3.243   3.325
73857NA+    NA+46282  28.662  12.244  10.591
73858NA+    NA+46283  26.143  43.453  11.961
73859NA+    NA+46284   2.735  37.492   2.416
73860NA+    NA+46285   0.927  18.659  13.056
73861NA+    NA+46286  17.115  19.137   3.364
73862NA+    NA+46287  18.598  41.817  12.879
73863NA+    NA+46288  36.484  16.210   4.817
73864NA+    NA+46289  10.158  44.422   2.379
73865NA+    NA+46290  28.183  41.909  11.930
73866NA+    NA+46291  16.793  20.595   3.832
73867NA+    NA+46292  42.439  42.837   4.234
73868NA+    NA+46293  24.597  17.654  12.481
73869NA+    NA+46294  33.035   1.823  12.927
73870NA+    NA+46295  25.201  33.992   2.815
73871NA+    NA+46296  31.587   4.729  12.954
73872NA+    NA+46297   9.886   4.848   0.890
73873NA+    NA+46298   5.918  20.179  11.872
73874NA+    NA+46299  15.315  36.435   1.740
73875NA+    NA+46300  36.916  37.543   0.243
73876NA+    NA+46301  40.839  19.250  10.952
73877NA+    NA+46302  36.483  34.559   1.831
73878NA+    NA+46303  32.025  15.795  14.367
73879NA+    NA+46304  12.232  36.551  11.548
73880NA+    NA+46305  31.589  41.985  14.313
73881NA+    NA+46306  37.397  36.945  13.910
73882NA+    NA+46307  22.584  28.173  13.959
73883NA+    NA+46308  36.926  13.605   4.792
73884NA+    NA+46309  33.932   3.412  14.772
73885NA+    NA+46310   5.247  14.678   3.365
73886NA+    NA+46311  27.578  15.302   2.308
73887NA+    NA+46312  38.456  43.995  12.557
73888NA+    NA+46313  16.608   8.278  11.971
73889NA+    NA+46314   3.270  29.547  11.401
73890NA+    NA+46315  20.241  39.460   1.888
73891NA+    NA+46316  37.364  37.548   0.247
73892NA+    NA+46317  18.198  37.079  13.845
73893NA+    NA+46318  12.706  17.576   4.289
73894NA+    NA+46319  29.086  39.907   2.860
73895NA+    NA+46320  40.979   6.209   2.756
73896NA+    NA+46321   8.801  30.455   3.680
73897NA+    NA+46322  34.465  35.452  13.372
73898NA+    NA+46323  11.241   3.792   0.459
73899NA+    NA+46324  17.092   5.427   0.729
73900NA+    NA+46325  32.986  15.138   3.765
73901NA+    NA+46326  17.097   9.290   3.225
73902NA+    NA+46327   8.846  36.022  13.970
73903NA+    NA+46328   9.330  13.822   2.272
73904NA+    NA+46329   8.659  19.100  13.954
73905NA+    NA+46330  37.382  40.998  11.072
73906NA+    NA+46331  37.980  29.586  11.873
73907NA+    NA+46332   9.862  26.552   2.209
73908NA+    NA+46333  44.957   0.333   2.792
73909NA+    NA+46334  10.856  40.371   0.325
73910NA+    NA+46335   0.852  23.240   4.260
73911NA+    NA+46336  42.498  38.510   4.181
73912NA+    NA+46337  41.911  33.609   3.307
73913NA+    NA+46338  14.683   6.306  14.782
73914NA+    NA+46339  36.573   5.739   2.751
73915NA+    NA+46340  24.590  41.471   1.700
73916NA+    NA+46341  24.223   1.426   2.250
73917NA+    NA+46342  11.334   3.956  13.443
73918NA+    NA+46343  34.060  22.179  14.806
73919NA+    NA+46344  28.488  19.140   1.263
73920NA+    NA+46345  35.497  28.085  11.007
73921NA+    NA+46346  25.675  24.190  12.492
73922NA+    NA+46347  37.946   3.754  13.890
73923NA+    NA+46348  39.343  35.598   3.863
73924NA+    NA+46349  15.237  10.296   3.772
73925NA+    NA+46350  40.977  27.630  14.962
73926NA+    NA+46351  38.351   7.328  14.281
73927NA+    NA+46352   3.436  42.450  11.537
73928NA+    NA+46353  37.378  25.687   0.840
73929NA+    NA+46354   7.703  13.790   0.314
73930NA+    NA+46355  10.308  10.366   1.772
73931NA+    NA+46356   7.667  34.081   1.321
73932NA+    NA+46357  42.483  31.940   3.232
73933NA+    NA+46358  10.308   0.258  10.095
73934NA+    NA+46359  38.511   7.854   1.384
73935NA+    NA+46360  21.129  25.020  11.118
73936NA+    NA+46361  35.037  35.863   1.267
73937NA+    NA+46362  32.016  37.065  13.319
73938NA+    NA+46363  18.653  29.471   0.302
73939NA+    NA+46364  12.346  43.903  12.555
73940NA+    NA+46365  10.767  31.007   3.304
73941NA+    NA+46366  27.990  22.510  11.990
73942NA+    NA+46367  38.030  18.137  10.571
73943NA+    NA+46368  12.761  30.627   3.167
73944NA+    NA+46369   4.267  31.613   1.862
73945NA+    NA+46370  36.849  41.530  12.570
73946NA+    NA+46371  22.621  31.524   2.721
73947NA+    NA+46372   9.731   9.323  11.443
73948NA+    NA+46373  26.462  42.308  12.395
73949NA+    NA+46374  33.893  35.949   4.131
73950NA+    NA+46375   7.364   4.431   2.403
73951NA+    NA+46376  43.387  26.603  14.438
73952NA+    NA+46377  41.916  27.447  10.610
73953NA+    NA+46378  27.668  13.224  11.008
73954NA+    NA+46379  31.125  34.599   1.857
73955NA+    NA+46380  36.403  12.257  13.992
73956NA+    NA+46381  14.288   8.202   3.212
73957NA+    NA+46382  26.555  33.927  13.433
73958NA+    NA+46383  36.442   2.295  10.999
73959NA+    NA+46384  26.516   6.412   2.232
73960NA+    NA+46385  39.368  35.525  13.906
73961NA+    NA+46386  23.025  17.267  13.841
73962NA+    NA+46387  36.426  32.576   0.392
73963NA+    NA+46388  41.803  37.542  13.932
73964NA+    NA+46389  43.974  26.599  11.384
73965NA+    NA+46390  33.604   6.205   5.247
73966NA+    NA+46391   6.257  24.975  13.897
73967NA+    NA+46392   1.920   8.216  14.009
73968NA+    NA+46393  22.028  26.986  10.533
73969NA+    NA+46394  37.968  31.570   4.639
73970NA+    NA+46395  12.323  19.208  12.086
73971NA+    NA+46396   9.771  14.337  13.517
73972NA+    NA+46397   8.225  29.609   3.265
73973NA+    NA+46398  31.100   0.440   3.793
73974NA+    NA+46399   1.321  20.651  13.401
73975NA+    NA+46400   1.783   6.400   2.709
73976NA+    NA+46401  40.546  28.048   1.230
73977NA+    NA+46402   0.776   1.968  11.921
73978NA+    NA+46403  41.949  41.820   2.372
73979NA+    NA+46404  14.129  22.030   9.926
73980NA+    NA+46405  18.100   3.717   0.929
73981NA+    NA+46406  10.856   8.206   2.288
73982NA+    NA+46407   5.336  14.601   1.327
73983NA+    NA+46408  17.685  14.734   0.298
73984NA+    NA+46409  16.763   0.962  10.465
73985NA+    NA+46410   0.398  11.158   1.377
73986NA+    NA+46411  40.541  44.459  10.110
73987NA+    NA+46412  19.252  18.611  14.964
73988NA+    NA+46413  19.777  23.619  14.871
73989NA+    NA+46414   5.925  16.143   2.186
73990NA+    NA+46415  22.594  38.497   3.707
73991NA+    NA+46416   6.913  34.010  10.578
73992NA+    NA+46417  10.223  25.533  14.319
73993NA+    NA+46418  14.229  40.833  13.896
73994NA+    NA+46419  23.996  32.911   4.216
73995NA+    NA+46420  27.026  32.536  10.557
73996NA+    NA+46421  17.242  30.947  10.451
73997NA+    NA+46422  28.149   3.260  10.547
73998NA+    NA+46423   8.373  38.435   3.649
73999NA+    NA+46424  11.272  30.559   2.773
74000NA+    NA+46425  15.711  10.815  13.038
74001NA+    NA+46426  27.126  23.571  10.429
74002NA+    NA+46427  19.087  19.617   0.741
74003NA+    NA+46428  29.612  35.973   1.872
74004NA+    NA+46429  30.054   1.336   2.194
74005NA+    NA+46430  10.266  11.719  14.300
74006NA+    NA+46431  18.154  20.737   1.864
74007NA+    NA+46432  43.880  30.499   4.226
74008NA+    NA+46433  16.718  31.973   0.375
74009NA+    NA+46434  39.388   2.838   0.463
74010NA+    NA+46435  44.449   7.862   4.298
74011NA+    NA+46436  30.559  22.241  12.830
74012NA+    NA+46437  27.573  27.539   2.367
74013NA+    NA+46438   0.437  32.390  11.088
74014NA+    NA+46439  10.160  35.585   0.789
74015NA+    NA+46440   8.382   5.316  14.290
74016NA+    NA+46441  27.172  14.137   0.403
74017NA+    NA+46442  39.817  44.812   0.946
74018NA+    NA+46443  29.956  40.803   0.390
74019NA+    NA+46444  36.873  44.993  11.926
74020NA+    NA+46445  10.798  28.945   0.352
74021NA+    NA+46446  29.128  20.742   1.450
74022NA+    NA+46447  12.793   0.968   0.439
74023NA+    NA+46448  33.114   9.328  10.621
74024NA+    NA+46449  30.498  12.131  14.842
74025NA+    NA+46450  11.218   3.800   1.244
74026NA+    NA+46451   7.225  33.951  11.953
74027NA+    NA+46452   6.769  42.524   3.672
74028NA+    NA+46453  15.219  20.680   2.338
74029NA+    NA+46454  14.239  30.135  11.543
74030NA+    NA+46455   0.972  30.586  12.879
74031NA+    NA+46456  19.262  28.029  12.345
74032NA+    NA+46457  31.120  33.040  14.330
74033NA+    NA+46458  40.368  13.653  14.783
74034NA+    NA+46459   3.730   8.778  13.448
74035NA+    NA+46460  19.109   7.256   4.828
74036NA+    NA+46461  28.532  15.644  12.868
74037NA+    NA+46462  12.713  17.576   3.293
74038NA+    NA+46463  43.886  41.825  11.972
74039NA+    NA+46464  38.376  24.096   3.242
74040NA+    NA+46465  39.880  23.618   3.189
74041NA+    NA+46466   0.747  12.344  11.503
74042NA+    NA+46467  21.221  39.421   2.733
74043NA+    NA+46468  19.239  17.244   4.322
74044NA+    NA+46469  16.139  43.814  14.821
74045NA+    NA+46470   2.436  15.228   4.251
74046NA+    NA+46471  39.895  19.761   1.850
74047NA+    NA+46472  32.535  19.190   4.654
74048NA+    NA+46473  36.066  42.521   2.247
74049NA+    NA+46474  35.568  29.506  10.537
74050NA+    NA+46475   1.249   8.757  10.958
74051NA+    NA+46476  17.097  43.444   3.359
74052NA+    NA+46477  36.933  31.066  12.377
74053NA+    NA+46478  37.431   4.733  10.943
74054NA+    NA+46479  28.514  11.273  11.586
74055NA+    NA+46480   8.888  38.956   3.655
74056NA+    NA+46481  12.635  22.520   0.344
74057NA+    NA+46482  11.828  39.031   0.844
74058NA+    NA+46483  21.728  19.070  14.911
74059NA+    NA+46484  17.095  13.250  13.905
74060NA+    NA+46485  10.197  14.621   3.368
74061NA+    NA+46486  14.603  37.849  13.887
74062NA+    NA+46487  38.840   2.259  12.533
74063NA+    NA+46488  29.126  30.432  12.915
74064NA+    NA+46489  28.620  21.530  13.455
74065NA+    NA+46490  27.517  25.537   4.664
74066NA+    NA+46491   1.900  14.334  11.577
74067NA+    NA+46492   4.916  41.956  11.558
74068NA+    NA+46493  38.362  40.976  12.001
74069NA+    NA+46494  18.585   9.858   4.774
74070NA+    NA+46495  42.503  41.531   4.207
74071NA+    NA+46496  25.560  15.820   2.694
74072NA+    NA+46497   5.870  11.712   0.929
74073NA+    NA+46498   6.878  23.188  13.356
74074NA+    NA+46499   7.814  36.372  11.565
74075NA+    NA+46500  39.333  14.248  11.011
74076NA+    NA+46501  32.464   0.756   1.863
74077NA+    NA+46502  10.770  18.731  11.565
74078NA+    NA+46503  41.516  27.079  13.007
74079NA+    NA+46504  11.308  35.499  13.847
74080NA+    NA+46505  26.176  35.909  12.009
74081NA+    NA+46506  22.031   8.686  14.436
74082NA+    NA+46507   4.424  10.683   0.448
74083NA+    NA+46508  16.579   6.406  13.381
74084NA+    NA+46509  37.019  38.571  13.013
74085NA+    NA+46510  14.268  23.681  10.030
74086NA+    NA+46511  30.136  44.911   1.789
74087NA+    NA+46512  30.594   4.303  12.855
74088NA+    NA+46513   6.804  35.603   1.803
74089NA+    NA+46514  34.526  12.300   1.868
74090NA+    NA+46515   4.300   4.285   4.152
74091NA+    NA+46516   1.369  18.710  10.964
74092NA+    NA+46517   9.726  33.525  11.118
74093NA+    NA+46518  16.229  13.699  11.422
74094NA+    NA+46519  25.102  18.709  12.443
74095NA+    NA+46520   5.388  21.560   2.193
74096NA+    NA+46521  31.619  14.166   2.280
74097NA+    NA+46522   3.421  14.310   0.460
74098NA+    NA+46523   3.755  12.771  12.084
74099NA+    NA+46524  33.423  28.501  11.080
74100NA+    NA+46525  14.100  24.490   3.834
74101NA+    NA+46526  18.613  16.656   0.897
74102NA+    NA+46527  23.519  43.391  13.451
74103NA+    NA+46528  20.719   3.848   1.324
74104NA+    NA+46529  40.827  28.093   4.346
74105NA+    NA+46530  42.835   0.265   2.398
74106NA+    NA+46531   9.814   0.333  10.901
74107NA+    NA+46532  26.134   0.868   1.799
74108NA+    NA+46533  10.193  14.126   3.736
74109NA+    NA+46534  26.516  37.888  12.986
74110NA+    NA+46535  17.761  36.528  10.482
74111NA+    NA+46536  29.039  42.868   2.220
74112NA+    NA+46537  16.661  11.202  13.946
74113NA+    NA+46538  14.299  39.403  11.450
74114NA+    NA+46539  44.461  27.152   2.792
74115NA+    NA+46540  33.071  43.009   0.843
74116NA+    NA+46541   3.817  34.952  13.346
74117NA+    NA+46542  29.004  23.674  10.912
74118NA+    NA+46543  38.535  11.191   2.218
74119NA+    NA+46544  40.512  10.687   2.780
74120NA+    NA+46545  19.200  44.273  10.982
74121NA+    NA+46546  12.644  36.467   4.354
74122NA+    NA+46547   7.198  37.424   9.633
74123NA+    NA+46548  30.458  44.388  10.474
74124NA+    NA+46549  41.020  22.160  12.503
74125NA+    NA+46550  44.485  17.685  10.910
74126NA+    NA+46551   9.792  16.599   0.439
74127NA+    NA+46552  38.562  30.617   1.219
74128NA+    NA+46553  42.382  22.202   4.725
74129NA+    NA+46554  33.905   2.431   1.773
74130NA+    NA+46555  33.563   4.263   4.693
74131NA+    NA+46556  35.541  24.993   3.251
74132NA+    NA+46557  27.082  39.859   3.243
74133NA+    NA+46558  39.321  44.395   4.640
74134NA+    NA+46559  42.454  29.995  11.899
74135NA+    NA+46560  43.415   3.266   4.350
74136NA+    NA+46561  27.996  40.017   0.954
74137NA+    NA+46562  14.299  23.232  11.611
74138NA+    NA+46563  20.676   4.887  14.329
74139NA+    NA+46564  22.603  41.793   2.245
74140NA+    NA+46565  44.333  26.073  10.448
74141NA+    NA+46566  12.159  22.730  12.358
74142NA+    NA+46567  30.535  40.846  11.418
74143NA+    NA+46568  40.924  43.502  14.892
74144NA+    NA+46569  43.813   6.865  11.499
74145NA+    NA+46570  12.655  39.355  14.288
74146NA+    NA+46571  25.988  27.573   2.384
74147NA+    NA+46572  42.975  10.358  13.032
74148NA+    NA+46573  41.450   6.706   4.320
74149NA+    NA+46574  25.653  28.932   5.290
74150NA+    NA+46575  38.039  35.477  13.845
74151NA+    NA+46576  42.291  44.438  14.907
74152NA+    NA+46577  42.317  25.634   2.711
74153NA+    NA+46578  30.907   8.835  10.147
74154NA+    NA+46579  44.890   0.817  12.887
74155NA+    NA+46580  35.088  35.485  13.847
74156NA+    NA+46581  19.677  40.397  10.602
74157NA+    NA+46582  44.289   2.415  10.931
74158NA+    NA+46583  40.411  29.062  14.369
74159NA+    NA+46584  38.003   6.810  10.980
74160NA+    NA+46585   1.976  14.226  14.851
74161NA+    NA+46586   3.435  20.175   4.700
74162NA+    NA+46587   8.690  35.545   9.439
74163NA+    NA+46588   3.449   3.760   0.825
74164NA+    NA+46589  18.586  28.613  14.461
74165NA+    NA+46590   2.926  23.600  11.470
74166NA+    NA+46591   6.905  26.477  12.350
74167NA+    NA+46592  17.732   6.817   4.175
74168NA+    NA+46593  11.705  26.153   4.624
74169NA+    NA+46594  38.048  18.179   0.867
74170NA+    NA+46595  15.663  22.556   3.801
74171NA+    NA+46596  42.332  10.760  10.473
74172NA+    NA+46597  36.361  19.695   4.206
74173NA+    NA+46598  10.258   1.388   4.220
74174NA+    NA+46599  44.881  29.941  13.346
74175NA+    NA+46600  25.022  31.598  12.561
74176NA+    NA+46601  41.884  36.488  14.990
74177NA+    NA+46602   0.264  36.353  13.050
74178NA+    NA+46603   6.812  38.908   4.310
74179NA+    NA+46604   8.362  38.396  14.345
74180NA+    NA+46605  32.054   5.794   4.599
74181NA+    NA+46606  34.929   6.287   5.322
74182NA+    NA+46607   5.401  38.392   2.786
74183NA+    NA+46608  14.714   0.317  12.059
74184NA+    NA+46609  34.904  21.684   4.293
74185NA+    NA+46610  42.378  30.576  13.518
74186NA+    NA+46611  38.971  19.583   5.278
74187NA+    NA+46612  17.120  21.757   2.705
74188NA+    NA+46613  10.649  38.422  11.470
74189NA+    NA+46614   5.329  37.556   3.701
74190NA+    NA+46615  12.809  28.502  14.993
74191NA+    NA+46616  25.995  35.051   0.353
74192NA+    NA+46617  38.505   4.819  12.345
74193NA+    NA+46618   0.958  37.420  14.445
74194NA+    NA+46619  18.782  26.081   2.362
74195NA+    NA+46620  10.739  25.144   4.768
74196NA+    NA+46621  40.454  23.601  14.788
74197NA+    NA+46622  13.222  31.124  13.877
74198NA+    NA+46623   2.935  33.440  13.526
74199NA+    NA+46624  19.573  22.692  12.050
74200NA+    NA+46625  43.912   4.724   4.162
74201NA+    NA+46626  39.394  41.335   4.221
74202NA+    NA+46627  30.073  36.507  13.913
74203NA+    NA+46628  28.468  24.224  11.949
74204NA+    NA+46629  20.711   6.322   1.847
74205NA+    NA+46630  41.976  37.013   4.777
74206NA+    NA+46631  42.386   5.220   4.665
74207NA+    NA+46632  18.132  42.299   1.449
74208NA+    NA+46633  36.566  21.139   9.935
74209NA+    NA+46634   3.738  38.360   4.326
74210NA+    NA+46635  14.637  25.606  12.824
74211NA+    NA+46636  10.651  28.137   4.690
74212NA+    NA+46637  31.544  25.638   0.808
74213NA+    NA+46638  14.730  42.799  13.330
74214NA+    NA+46639  23.663  22.541  13.838
74215NA+    NA+46640   5.373  25.564  11.908
74216NA+    NA+46641  41.031  28.016  13.805
74217NA+    NA+46642  16.131  39.876   0.306
74218NA+    NA+46643  17.287   6.893   3.325
74219NA+    NA+46644  17.169  34.413   1.817
74220NA+    NA+46645  12.739   5.233   1.351
74221NA+    NA+46646   2.373  44.853  13.010
74222NA+    NA+46647  44.376  22.014  11.496
74223NA+    NA+46648  43.924   1.392   4.247
74224NA+    NA+46649  14.191  24.702  11.610
74225NA+    NA+46650  29.990  25.010  14.022
74226NA+    NA+46651  27.554   5.406  13.477
74227NA+    NA+46652  25.143  10.289  12.019
74228NA+    NA+46653  26.634  41.388   2.839
74229NA+    NA+46654  32.022  43.949  12.470
74230NA+    NA+46655  30.570  23.734   4.245
74231NA+    NA+46656   7.366  43.402   0.828
74232NA+    NA+46657   0.909  19.271   1.251
74233NA+    NA+46658  32.470  10.772  13.497
74234NA+    NA+46659   7.850  12.798  14.991
74235NA+    NA+46660  19.221   6.217   3.829
74236NA+    NA+46661  30.092  34.440   1.228
74237NA+    NA+46662  23.624  39.815  14.904
74238NA+    NA+46663  18.125  15.159   4.604
74239NA+    NA+46664  18.071  37.029   4.171
74240NA+    NA+46665  21.062  24.073  12.848
74241NA+    NA+46666  15.227  30.415   4.738
74242NA+    NA+46667  10.251  35.040   3.235
74243NA+    NA+46668   4.777  39.551   4.644
74244NA+    NA+46669  18.186  28.525  11.870
74245NA+    NA+46670  38.429  11.720   4.626
74246NA+    NA+46671  36.464  41.812   3.756
74247NA+    NA+46672  31.124   2.325   0.293
74248NA+    NA+46673  11.203  32.098   3.736
74249NA+    NA+46674  12.169  15.754   1.766
74250NA+    NA+46675   7.720  28.544  11.610
74251NA+    NA+46676  27.026  38.426   1.393
74252NA+    NA+46677  31.609  29.519   0.731
74253NA+    NA+46678  14.618  29.094  14.764
74254NA+    NA+46679   2.277  14.289  10.488
74255NA+    NA+46680  41.516   3.333   4.820
74256NA+    NA+46681  31.512  18.553   1.728
74257NA+    NA+46682  27.544  16.235  11.531
74258NA+    NA+46683  24.565  26.991   1.265
74259NA+    NA+46684  44.286   6.694  10.447
74260NA+    NA+46685  24.049  16.583  13.995
74261NA+    NA+46686  42.017  29.646   2.814
74262NA+    NA+46687  25.556  43.322   0.393
74263NA+    NA+46688  44.796  41.026  14.853
74264NA+    NA+46689  15.594  29.661  11.461
74265NA+    NA+46690   1.329  33.433  10.973
74266NA+    NA+46691  40.015  27.635   0.813
74267NA+    NA+46692  32.972  38.851  12.381
74268NA+    NA+46693  33.118  19.567   1.779
74269NA+    NA+46694  10.190   9.749  11.968
74270NA+    NA+46695   0.400   7.219  14.788
74271NA+    NA+46696  14.738  32.014  10.099
74272NA+    NA+46697   9.879  36.576   1.739
74273NA+    NA+46698  44.846   1.268   2.414
74274NA+    NA+46699  20.230  40.505  12.534
74275NA+    NA+46700  19.222   5.744  11.995
74276NA+    NA+46701   1.388  30.969   3.350
74277NA+    NA+46702  21.739  33.024  13.039
74278NA+    NA+46703   8.857  28.037   4.146
74279NA+    NA+46704  40.877  36.863  14.402
74280NA+    NA+46705   0.775  12.846  10.503
74281NA+    NA+46706  20.662  15.204   2.780
74282NA+    NA+46707  19.647  20.217  11.918
74283NA+    NA+46708  34.581  31.028  11.905
74284NA+    NA+46709  14.222   6.233   3.223
74285NA+    NA+46710  32.568  24.616  13.817
74286NA+    NA+46711  22.716  23.123  11.408
74287NA+    NA+46712  11.812  20.242   3.845
74288NA+    NA+46713  10.678  30.615   1.754
74289NA+    NA+46714  30.156   2.294  11.010
74290NA+    NA+46715   6.407  39.958  12.018
74291NA+    NA+46716   3.308  13.801   3.159
74292NA+    NA+46717  36.032  43.303   3.795
74293NA+    NA+46718   7.736  23.125  14.509
74294NA+    NA+46719  24.539   5.835   4.626
74295NA+    NA+46720  34.567  12.142   3.762
74296NA+    NA+46721  21.204   6.287  13.509
74297NA+    NA+46722   2.332  37.485   1.424
74298NA+    NA+46723  42.963   6.853   0.804
74299NA+    NA+46724  19.102  43.446  12.411
74300NA+    NA+46725  14.819  37.032  10.407
74301NA+    NA+46726  31.944  23.552   2.203
74302NA+    NA+46727  37.537  22.688  14.964
74303NA+    NA+46728  37.887  35.543  14.787
74304NA+    NA+46729  38.032  35.917   4.193
74305NA+    NA+46730  28.511   7.228  11.524
74306NA+    NA+46731   8.189  39.911  11.056
74307NA+    NA+46732   6.867   6.347  10.957
74308NA+    NA+46733   0.759   9.268  14.007
74309NA+    NA+46734  10.312  34.410  12.015
74310NA+    NA+46735  29.175  14.174   0.440
74311NA+    NA+46736  37.405  27.629  10.081
74312NA+    NA+46737  21.173  29.560  12.481
74313NA+    NA+46738  28.123   0.799  12.419
74314NA+    NA+46739  19.607  11.370   0.282
74315NA+    NA+46740  20.613  32.010  13.386
74316NA+    NA+46741   4.391  32.994   0.314
74317NA+    NA+46742  22.511  33.112  14.465
74318NA+    NA+46743  10.750  40.874  10.483
74319NA+    NA+46744   5.299  12.280   0.747
74320NA+    NA+46745   2.963  23.125   1.770
74321NA+    NA+46746  28.149  35.410  11.429
74322NA+    NA+46747   3.952  18.206  13.898
74323NA+    NA+46748  15.621  11.704  10.539
74324NA+    NA+46749   0.915   0.863  12.476
74325NA+    NA+46750  18.177  31.609  11.127
74326NA+    NA+46751  40.323  19.706   2.270
74327NA+    NA+46752  26.000   2.354  11.963
74328NA+    NA+46753  21.592  16.119  12.353
74329NA+    NA+46754  20.725  17.587   1.340
74330NA+    NA+46755  24.076  42.379   4.331
74331NA+    NA+46756  43.370  27.691   2.413
74332NA+    NA+46757  20.082  38.911  10.552
74333NA+    NA+46758   4.237  16.132   3.778
74334NA+    NA+46759  38.426  41.521   4.344
74335NA+    NA+46760  22.578  23.209  12.372
74336NA+    NA+46761  29.572  31.592  13.047
74337NA+    NA+46762  27.662   7.197   2.406
74338NA+    NA+46763  38.380   2.247  13.418
74339NA+    NA+46764  40.884  37.884  11.976
74340NA+    NA+46765  27.508   9.784   3.293
74341NA+    NA+46766  28.550  33.942   0.466
74342NA+    NA+46767  38.513  31.469   2.214
74343NA+    NA+46768  21.564  30.648   3.369
74344NA+    NA+46769  27.522   0.453   0.876
74345NA+    NA+46770   6.350   0.975  10.107
74346NA+    NA+46771  15.710  25.713   3.838
74347NA+    NA+46772  27.601  15.690   2.869
74348NA+    NA+46773   2.377  42.897   2.334
74349NA+    NA+46774  16.078   0.895   4.231
74350NA+    NA+46775  22.544   8.704  11.089
74351NA+    NA+46776  21.521   1.745   0.272
74352NA+    NA+46777  40.396   4.375   3.716
74353NA+    NA+46778  39.832   5.194  12.011
74354NA+    NA+46779  16.684  35.961   1.787
74355NA+    NA+46780   6.846  42.362  14.966
74356NA+    NA+46781   2.400   7.728  12.853
74357NA+    NA+46782  30.037  33.421   3.857
74358NA+    NA+46783  24.612  25.611  11.470
74359NA+    NA+46784   8.294  43.955   4.723
74360NA+    NA+46785  21.601  41.031  11.117
74361NA+    NA+46786  34.917   2.880  14.877
74362NA+    NA+46787  17.586  28.505   3.810
74363NA+    NA+46788   4.394  44.905   1.789
74364NA+    NA+46789  43.976  17.217  12.434
74365NA+    NA+46790   7.775  27.993   2.296
74366NA+    NA+46791  24.645  16.799  12.069
74367NA+    NA+46792   4.227  23.054   2.298
74368NA+    NA+46793  25.070  19.183  12.421
74369NA+    NA+46794   9.840  26.634  14.939
74370NA+    NA+46795  28.100  28.090   2.212
74371NA+    NA+46796  16.167  37.859   1.429
74372NA+    NA+46797  12.642  19.101  11.546
74373NA+    NA+46798   1.933  20.221  13.797
74374NA+    NA+46799  28.054  43.322   3.771
74375NA+    NA+46800   8.701  38.455  12.365
74376NA+    NA+46801   8.159  12.206   0.854
74377NA+    NA+46802   1.973  25.477   4.317
74378NA+    NA+46803   9.679  10.309  13.476
74379NA+    NA+46804  32.101  14.336  11.401
74380NA+    NA+46805  13.292   6.679   2.691
74381NA+    NA+46806  30.441  38.329   1.345
74382NA+    NA+46807  43.966  41.391  14.383
74383NA+    NA+46808  30.455   9.763   2.187
74384NA+    NA+46809  40.853   0.872  12.489
74385NA+    NA+46810  11.628  23.065  10.631
74386NA+    NA+46811  24.123  11.317   2.239
74387NA+    NA+46812  29.583  13.807   2.749
74388NA+    NA+46813  26.117   5.393  11.971
74389NA+    NA+46814  16.076  25.582  12.077
74390NA+    NA+46815   7.726   9.243  12.059
74391NA+    NA+46816  40.832  14.148   1.821
74392NA+    NA+46817  36.084  34.968   0.370
74393NA+    NA+46818   4.833  35.924   0.874
74394NA+    NA+46819  37.878  15.184  14.379
74395NA+    NA+46820  39.925  10.725  14.434
74396NA+    NA+46821  35.954  12.303  12.829
74397NA+    NA+46822   0.253  27.554   4.188
74398NA+    NA+46823  44.310  31.497  11.454
74399NA+    NA+46824  23.002  14.691  13.809
74400NA+    NA+46825  39.833  33.040  12.489
74401NA+    NA+46826  39.559   0.874  11.577
74402NA+    NA+46827   8.342  35.363  11.428
74403NA+    NA+46828  32.635  42.855   4.787
74404NA+    NA+46829   3.908  15.156   2.364
74405NA+    NA+46830   6.411  30.516  10.153
74406NA+    NA+46831   6.298  14.285   2.665
74407NA+    NA+46832  32.572  31.420   0.475
74408NA+    NA+46833  26.555   4.884   4.798
74409NA+    NA+46834  41.435  11.649  14.343
74410NA+    NA+46835   6.371   3.913   4.184
74411NA+    NA+46836   6.681  20.168   2.386
74412NA+    NA+46837   9.315  26.570   2.725
74413NA+    NA+46838   5.300  42.826   4.152
74414NA+    NA+46839  17.759  14.115  11.463
74415NA+    NA+46840  16.655  26.684   2.278
74416NA+    NA+46841  25.676   4.880   0.816
74417NA+    NA+46842  20.590  16.185   4.119
74418NA+    NA+46843  24.056  18.599  10.538
74419NA+    NA+46844  29.546  36.506  12.031
74420NA+    NA+46845   8.224  13.741   2.179
74421NA+    NA+46846  22.188  25.693   4.168
74422NA+    NA+46847   0.965  35.559   4.785
74423NA+    NA+46848  31.025  32.130   4.345
74424NA+    NA+46849  12.838  16.637  10.465
74425NA+    NA+46850  40.465   4.399  14.438
74426NA+    NA+46851  21.070  21.741   4.758
74427NA+    NA+46852   3.864  16.241  14.998
74428NA+    NA+46853  39.989  14.193   0.330
74429NA+    NA+46854  36.987  30.113   2.808
74430NA+    NA+46855  44.485  35.875   2.393
74431NA+    NA+46856   2.846  15.139  12.845
74432NA+    NA+46857  35.492  24.533  11.515
74433NA+    NA+46858  30.525   2.463   2.374
74434NA+    NA+46859  24.708  34.455  14.848
74435NA+    NA+46860  42.975  29.430  14.812
74436NA+    NA+46861  31.407  31.078  11.011
74437NA+    NA+46862  13.215  17.653  13.354
74438NA+    NA+46863  37.414  38.332  14.346
74439NA+    NA+46864  38.396   1.333   0.343
74440NA+    NA+46865   4.412  37.907   0.951
74441NA+    NA+46866   6.351   3.241   0.247
74442NA+    NA+46867  19.215  21.648  13.903
74443NA+    NA+46868   4.255   6.869   0.843
74444NA+    NA+46869  19.684  34.428   3.263
74445NA+    NA+46870  31.443  36.948   3.259
74446NA+    NA+46871  40.537  17.087   4.232
74447NA+    NA+46872   9.246  12.294   0.360
74448NA+    NA+46873  28.541   9.826  13.393
74449NA+    NA+46874  17.225  40.398  12.490
74450NA+    NA+46875  18.151  17.789   4.646
74451NA+    NA+46876  40.382  20.750   4.831
74452NA+    NA+46877   0.346  41.509  10.530
74453NA+    NA+46878  20.090  37.832  12.851
74454NA+    NA+46879  14.665  19.677   3.675
74455NA+    NA+46880  28.486  36.985   3.235
74456NA+    NA+46881  32.417  33.056  14.995
74457NA+    NA+46882   1.298  34.519   3.340
74458NA+    NA+46883  19.243  30.623   1.284
74459NA+    NA+46884  23.503  36.368  13.428
74460NA+    NA+46885  12.298  28.182  13.464
74461NA+    NA+46886  13.708   2.325   1.793
74462NA+    NA+46887  18.155  12.628  14.451
74463NA+    NA+46888  27.628  36.971  11.862
74464NA+    NA+46889  20.234   4.223   3.800
74465NA+    NA+46890  40.039  13.786  11.068
74466NA+    NA+46891  22.646   3.426  10.927
74467NA+    NA+46892  13.318  23.171  14.310
74468NA+    NA+46893   9.746  27.665  12.368
74469NA+    NA+46894  39.417  21.221   2.182
74470NA+    NA+46895   9.266   4.887   0.900
74471NA+    NA+46896  29.004  31.577   3.722
74472NA+    NA+46897  40.467  29.098  13.851
74473NA+    NA+46898  40.421   3.900  10.945
74474NA+    NA+46899  33.480  37.087  12.885
74475NA+    NA+46900   2.869  26.530   4.610
74476NA+    NA+46901  23.587  17.206  14.440
74477NA+    NA+46902  23.213  14.338  11.561
74478NA+    NA+46903  36.956   2.415  12.043
74479NA+    NA+46904   6.285  15.640   2.803
74480NA+    NA+46905  36.912   8.740   0.954
74481NA+    NA+46906  30.424  15.159  13.816
74482NA+    NA+46907   5.267  36.556  12.400
74483NA+    NA+46908  24.135   8.326  14.386
74484NA+    NA+46909  20.240  37.879  14.501
74485NA+    NA+46910  16.262  32.586  10.968
74486NA+    NA+46911  19.071  34.911  12.538
74487NA+    NA+46912  35.873   8.357  13.967
74488NA+    NA+46913  34.103  19.574   1.717
74489NA+    NA+46914  17.288  19.066  13.354
74490NA+    NA+46915  27.552  28.551  11.898
74491NA+    NA+46916   4.836  26.175   2.804
74492NA+    NA+46917  32.530  34.497  14.295
74493NA+    NA+46918  36.354   9.843  11.906
74494NA+    NA+46919  24.643  27.053   2.382
74495NA+    NA+46920  19.731  39.925  13.019
74496NA+    NA+46921  24.101  38.550   1.830
74497NA+    NA+46922  37.889  31.029  13.517
74498NA+    NA+46923  20.651  21.055  14.953
74499NA+    NA+46924  11.217  41.855  14.364
74500NA+    NA+46925  31.429  43.494  13.375
74501NA+    NA+46926  12.283  23.704  14.347
74502NA+    NA+46927  42.817  13.196  14.359
74503NA+    NA+46928   9.361  24.581  10.950
74504NA+    NA+46929  25.468   0.970  11.043
74505NA+    NA+46930  29.061  28.117   0.427
74506NA+    NA+46931   7.409  15.278   3.720
74507NA+    NA+46932  42.348  39.906  13.424
74508NA+    NA+46933  10.169  12.672  10.640
74509NA+    NA+46934   4.837   8.850   0.416
74510NA+    NA+46935  42.385   5.783  13.398
74511NA+    NA+46936  43.486   4.299   3.192
74512NA+    NA+46937  43.512  41.399  13.443
74513NA+    NA+46938  44.005  36.970   1.419
74514NA+    NA+46939  13.297  35.864   4.144
74515NA+    NA+46940  21.219  17.686  13.025
74516NA+    NA+46941  14.826  42.364   4.669
74517NA+    NA+46942  38.437  10.668  10.459
74518NA+    NA+46943  13.197  29.133  10.155
74519NA+    NA+46944  28.609   9.827   0.315
74520CL-    CL-46945  22.097  15.246   2.767
74521CL-    CL-46946   7.733  20.585   3.305
74522CL-    CL-46947  13.603  20.124   2.736
74523CL-    CL-46948  43.855  14.598  13.042
74524CL-    CL-46949   0.362  29.969   1.336
74525CL-    CL-46950  38.029  32.607   1.307
74526CL-    CL-46951  22.133  31.425  12.840
74527CL-    CL-46952  15.316   5.921   4.759
74528CL-    CL-46953  26.461  10.169  10.100
74529CL-    CL-46954  41.410   3.421  12.348
74530CL-    CL-46955  28.447  24.111   2.199
74531CL-    CL-46956  19.697  12.305   1.825
74532CL-    CL-46957  10.685  26.177   3.751
74533CL-    CL-46958  24.545  22.588   4.810
74534CL-    CL-46959  16.096  17.153   1.420
74535CL-    CL-46960   9.229  37.955   4.622
74536CL-    CL-46961  13.630  12.651  12.904
74537CL-    CL-46962  19.211  13.785   1.767
74538CL-    CL-46963   9.252  35.934  13.371
74539CL-    CL-46964  20.684  34.478  10.924
74540CL-    CL-46965  10.286  12.357  14.433
74541CL-    CL-46966  40.974   2.920  14.299
74542CL-    CL-46967  30.622  11.216   1.313
74543CL-    CL-46968  12.847  22.622   5.263
74544CL-    CL-46969   6.251  42.937  13.546
74545CL-    CL-46970  18.649   0.464   3.652
74546CL-    CL-46971  24.982  12.233   4.622
74547CL-    CL-46972  44.948  10.875  12.079
74548CL-    CL-46973   2.231   9.830   0.831
74549CL-    CL-46974  30.648  10.223  13.938
74550CL-    CL-46975  25.217  21.722  13.027
74551CL-    CL-46976  39.010  41.374   9.997
74552CL-    CL-46977  41.338  10.346   3.255
74553CL-    CL-46978  28.448  10.340   3.653
74554CL-    CL-46979  27.674   1.917   0.355
74555CL-    CL-46980  27.647  15.618   1.217
74556CL-    CL-46981  11.345  31.954  12.547
74557CL-    CL-46982  27.960  27.117   2.267
74558CL-    CL-46983  12.349  19.130  14.307
74559CL-    CL-46984  25.709  21.736  12.084
74560CL-    CL-46985  42.787  44.875   2.794
74561CL-    CL-46986  32.557  16.132  12.019
74562CL-    CL-46987  27.500  10.231  11.514
74563CL-    CL-46988  20.656  31.619  12.841
74564CL-    CL-46989  23.039  41.831  13.896
74565CL-    CL-46990  44.939  34.459   4.667
74566CL-    CL-46991  35.888   8.239   3.375
74567CL-    CL-46992  16.100  18.129  13.359
74568CL-    CL-46993  38.551   0.817  13.376
74569CL-    CL-46994  26.128  14.283   1.826
74570CL-    CL-46995  44.950  24.493  12.453
74571CL-    CL-46996  40.814  18.270  11.123
74572CL-    CL-46997   6.824   0.929   1.313
74573CL-    CL-46998  30.523  21.120  11.508
74574CL-    CL-46999  22.709  31.438   1.429
74575CL-    CL-47000  43.363  17.746  11.885
74576CL-    CL-47001  36.508  19.753   2.830
74577CL-    CL-47002   1.889  25.492   0.332
74578CL-    CL-47003  26.679   4.831   0.951
74579CL-    CL-47004  40.873  37.413   3.645
74580CL-    CL-47005  18.752  12.734  10.108
74581CL-    CL-47006   7.734  12.708  10.411
74582CL-    CL-47007  16.207  34.867   0.868
74583CL-    CL-47008   4.356  32.446   3.309
74584CL-    CL-47009   6.351  23.601   0.953
74585CL-    CL-47010  32.108  31.942  14.347
74586CL-    CL-47011  39.476   3.898   2.269
74587CL-    CL-47012  31.897  39.054  14.879
74588CL-    CL-47013  10.763  22.544   0.855
74589CL-    CL-47014  26.032  14.813   1.371
74590CL-    CL-47015  43.890  17.614  14.976
74591CL-    CL-47016  12.659  34.499   3.832
74592CL-    CL-47017   9.719  37.454   4.254
74593CL-    CL-47018   4.878  13.204  11.873
74594CL-    CL-47019  23.109  35.569   4.127
74595CL-    CL-47020  14.672  35.359  11.567
74596CL-    CL-47021   0.418  18.181   2.416
74597CL-    CL-47022  13.188  22.238  14.794
74598CL-    CL-47023  40.837   5.222   2.675
74599CL-    CL-47024  11.179  30.552   3.293
74600CL-    CL-47025  17.214  35.571   3.185
74601CL-    CL-47026   0.853  26.676   0.426
74602CL-    CL-47027   3.431  14.588  10.590
74603CL-    CL-47028  34.537  19.728   2.687
74604CL-    CL-47029  19.725  31.951   4.805
74605CL-    CL-47030  35.586  15.676  13.949
74606CL-    CL-47031  37.482   9.314   1.387
74607CL-    CL-47032  26.014  18.139   0.412
74608CL-    CL-47033   5.231  43.282  14.899
74609CL-    CL-47034  23.511  32.026  14.935
74610CL-    CL-47035  12.127   4.782   0.300
74611CL-    CL-47036  44.295  43.302   1.254
74612CL-    CL-47037   8.335   1.742   1.900
74613CL-    CL-47038  39.394  35.372  14.829
74614CL-    CL-47039  41.478  38.950  13.419
74615CL-    CL-47040  27.192  19.274   1.863
74616CL-    CL-47041   3.784  19.708  14.476
74617CL-    CL-47042  23.533  12.159  12.374
74618CL-    CL-47043  13.735  10.688  11.005
74619CL-    CL-47044  36.067   7.208  11.454
74620CL-    CL-47045  40.839   8.171  10.552
74621CL-    CL-47046   8.716  43.410  12.390
74622CL-    CL-47047  41.465  11.156  12.340
74623CL-    CL-47048   4.734   5.791  14.779
74624CL-    CL-47049   8.237  28.580   1.231
74625CL-    CL-47050   9.820  39.999   0.940
74626CL-    CL-47051  27.076   4.281  14.345
74627CL-    CL-47052  34.959  34.534   1.402
74628CL-    CL-47053  39.876  21.680   3.307
74629CL-    CL-47054  35.034  20.761  14.313
74630CL-    CL-47055  12.696  17.734  13.042
74631CL-    CL-47056   7.824  24.005  12.950
74632CL-    CL-47057  20.687  36.479   4.820
74633CL-    CL-47058  44.000  35.423   4.183
74634CL-    CL-47059   2.807   9.688   4.272
74635CL-    CL-47060  14.239  35.068  13.919
74636CL-    CL-47061  31.940   8.369   0.799
74637CL-    CL-47062  26.173  34.377   0.448
74638CL-    CL-47063  25.141  12.842   3.696
74639CL-    CL-47064   0.438  22.035  13.504
74640CL-    CL-47065  40.049   8.845   4.662
74641CL-    CL-47066  44.419  22.724  13.468
74642CL-    CL-47067  42.325  21.109  10.556
74643CL-    CL-47068  18.248  43.856  11.584
74644CL-    CL-47069  11.678  18.737   1.796
74645CL-    CL-47070   2.768   2.772   0.859
74646CL-    CL-47071  27.042  25.978   3.773
74647CL-    CL-47072  44.336  23.224   2.745
74648CL-    CL-47073   1.447  44.950   1.769
74649CL-    CL-47074  24.186   5.434   2.697
74650CL-    CL-47075  31.636  25.497  10.455
74651CL-    CL-47076  10.209   4.212  11.932
74652CL-    CL-47077   2.848  17.064   4.322
74653CL-    CL-47078  27.626  13.676   0.818
74654CL-    CL-47079  22.720  23.543  13.034
74655CL-    CL-47080   6.867   9.799   2.291
74656CL-    CL-47081  42.435  41.399   4.750
74657CL-    CL-47082  17.182  13.770   4.352
74658CL-    CL-47083  44.938  20.107  10.435
74659CL-    CL-47084  19.644   4.207  12.859
74660CL-    CL-47085   0.825  15.630   3.696
74661CL-    CL-47086  18.161  14.606   3.238
74662CL-    CL-47087  17.556  19.265   1.900
74663CL-    CL-47088  38.995  23.110   3.864
74664CL-    CL-47089  25.150  20.086   4.745
74665CL-    CL-47090   2.319   3.773   4.345
74666CL-    CL-47091  13.125  23.120  13.469
74667CL-    CL-47092  13.773  18.790  10.943
74668CL-    CL-47093   8.765  25.594  11.030
74669CL-    CL-47094   0.973  23.027  12.966
74670CL-    CL-47095  42.328  10.304   1.275
74671CL-    CL-47096   8.251  38.971   2.771
74672CL-    CL-47097  27.565  33.440  10.072
74673CL-    CL-47098   3.923  14.734  12.970
74674CL-    CL-47099  10.291  39.958   0.336
74675CL-    CL-47100  17.662  42.331  13.846
74676CL-    CL-47101  18.676  17.184  12.998
74677CL-    CL-47102  42.282  28.003  12.534
74678CL-    CL-47103  42.906  20.570   3.657
74679CL-    CL-47104  43.963   4.329   1.763
74680CL-    CL-47105  44.804  17.134  11.422
74681CL-    CL-47106  34.401  39.010   3.315
74682CL-    CL-47107  15.276  24.021   3.151
74683CL-    CL-47108   5.433  25.044  10.568
74684CL-    CL-47109  19.672  39.937  13.875
74685CL-    CL-47110  13.841  20.579  11.042
74686CL-    CL-47111  35.489   7.692   2.332
74687CL-    CL-47112  20.109  27.590  11.390
74688CL-    CL-47113  17.206   4.735   2.812
74689CL-    CL-47114   3.251  35.037  11.408
74690CL-    CL-47115  24.499  42.316  14.956
74691CL-    CL-47116  19.636   0.402  14.279
74692CL-    CL-47117  15.766  28.049   5.181
74693CL-    CL-47118  35.399  21.537  13.992
74694CL-    CL-47119  33.043  21.705   2.788
74695CL-    CL-47120  17.705  38.407  12.537
74696CL-    CL-47121  35.922  15.807  13.363
74697CL-    CL-47122  10.288   8.667  10.060
74698CL-    CL-47123  41.973  28.173   1.839
74699CL-    CL-47124  33.934  21.161   3.302
74700CL-    CL-47125  37.363  30.579   0.810
74701CL-    CL-47126  43.288  26.151   3.272
74702CL-    CL-47127  13.342   7.214  13.411
74703CL-    CL-47128  29.939  27.530  11.449
74704CL-    CL-47129   7.257  39.930  13.969
74705CL-    CL-47130   7.680   0.327  10.604
74706CL-    CL-47131  38.569  23.570   9.469
74707CL-    CL-47132   1.796   5.350  12.036
74708CL-    CL-47133  34.922  37.571   2.844
74709CL-    CL-47134  38.997  28.666   1.717
74710CL-    CL-47135  17.696   5.854  13.535
74711CL-    CL-47136  22.123  41.369  11.583
74712CL-    CL-47137  41.353  27.483  12.472
74713CL-    CL-47138  44.979  21.116   2.874
74714CL-    CL-47139  20.761  40.461   1.362
74715CL-    CL-47140  44.789   3.423  11.546
74716CL-    CL-47141  24.136  18.148  14.420
74717CL-    CL-47142  24.089  39.834   1.256
74718CL-    CL-47143  29.667  19.595  13.336
74719CL-    CL-47144  44.909  38.930   2.408
74720CL-    CL-47145  11.174  27.049  14.356
74721CL-    CL-47146  41.508  13.619   3.737
74722CL-    CL-47147  24.004  25.015  13.384
74723CL-    CL-47148  11.319  39.060  11.609
74724CL-    CL-47149  21.533  27.686   0.375
74725CL-    CL-47150  26.104  30.631   3.165
74726CL-    CL-47151   0.789  44.398  12.545
74727CL-    CL-47152   0.884  43.276  10.526
74728CL-    CL-47153  44.939  41.008  12.038
74729CL-    CL-47154  30.545  39.317   1.783
74730CL-    CL-47155  30.455   5.805  11.991
74731CL-    CL-47156  24.001  25.170  11.947
74732CL-    CL-47157  22.134  24.211   1.820
74733CL-    CL-47158  23.100   3.352  13.409
74734CL-    CL-47159  22.725  11.809  13.875
74735CL-    CL-47160  27.481  14.193   1.864
74736CL-    CL-47161  38.510  38.953  11.582
74737CL-    CL-47162  33.033   6.741  11.545
74738CL-    CL-47163  37.344  10.727  11.104
74739CL-    CL-47164  20.033  18.615  11.128
74740CL-    CL-47165  41.422  33.956   1.935
74741CL-    CL-47166  14.739   7.254   0.828
74742CL-    CL-47167   1.468   2.898   4.251
74743CL-    CL-47168  26.486  32.109   2.853
74744CL-    CL-47169  42.936   6.254  14.320
74745CL-    CL-47170  11.719  14.204  14.859
74746CL-    CL-47171  32.629  32.419   0.893
74747CL-    CL-47172  20.711  26.020  12.490
74748CL-    CL-47173  23.122   5.274  10.495
74749CL-    CL-47174  41.804   7.682  13.901
74750CL-    CL-47175  39.049  28.971   4.294
74751CL-    CL-47176  22.646  28.036   4.309
74752CL-    CL-47177  18.660  12.638   4.153
74753CL-    CL-47178   5.830  43.012  11.961
74754CL-    CL-47179   8.783   2.409   3.855
74755CL-    CL-47180  24.204  25.681  14.797
74756CL-    CL-47181  18.157  43.307  12.919
74757CL-    CL-47182  23.096  30.931   2.377
74758CL-    CL-47183   3.761   9.772  14.791
74759CL-    CL-47184  32.084  11.847   3.776
74760CL-    CL-47185  29.964  41.357  10.568
74761CL-    CL-47186  42.004  13.782  12.491
74762CL-    CL-47187  10.648  34.601   0.750
74763CL-    CL-47188   6.260   0.931  11.926
74764CL-    CL-47189  35.411  24.152   2.259
74765CL-    CL-47190  29.574  14.261  14.446
74766CL-    CL-47191   2.770  26.160   3.263
74767CL-    CL-47192   5.360  40.464  12.959
74768CL-    CL-47193  35.578  42.962   1.731
74769CL-    CL-47194  12.304  19.084   4.710
74770CL-    CL-47195  33.114  41.342   0.892
74771CL-    CL-47196  24.704  10.288   2.853
74772CL-    CL-47197  16.116  27.520  14.006
74773CL-    CL-47198  40.844  16.247   0.448
74774CL-    CL-47199  28.549  41.891  10.922
74775CL-    CL-47200   8.308  17.562  13.840
74776CL-    CL-47201  24.026  42.834  13.804
74777CL-    CL-47202  25.634  30.139  13.400
74778CL-    CL-47203  17.673   1.962  14.376
74779CL-    CL-47204  41.355  35.022  13.309
74780CL-    CL-47205  13.195  25.191   9.958
74781CL-    CL-47206  17.304  21.513  14.893
74782CL-    CL-47207  40.471  43.959  10.481
74783CL-    CL-47208  21.553  21.054  12.850
74784CL-    CL-47209   1.834  35.982   3.220
74785CL-    CL-47210  21.051  12.264   2.293
74786CL-    CL-47211  35.557  21.052   2.318
74787CL-    CL-47212  23.525  11.174  11.594
74788CL-    CL-47213  41.005  43.334   5.147
74789CL-    CL-47214  12.618  20.151  13.906
74790CL-    CL-47215   5.333  28.558   2.269
74791CL-    CL-47216  27.945  14.700  14.894
74792CL-    CL-47217  19.561  36.854  11.377
74793CL-    CL-47218  12.231  43.278   2.311
74794CL-    CL-47219   7.226  43.907   2.884
74795CL-    CL-47220  24.204  17.212   2.191
74796CL-    CL-47221  11.829  33.971  10.494
74797CL-    CL-47222  27.659  42.506   0.859
74798CL-    CL-47223  23.009  28.608   1.794
74799CL-    CL-47224   6.681  15.104   1.917
74800CL-    CL-47225  19.550  12.153   2.719
74801CL-    CL-47226  17.070  35.939   4.267
74802CL-    CL-47227  34.387   5.909  10.618
74803CL-    CL-47228   8.721  11.706  12.383
74804CL-    CL-47229   4.349  26.974   0.853
74805CL-    CL-47230  37.364  39.987   2.662
74806CL-    CL-47231  29.141   0.419  14.943
74807CL-    CL-47232  10.282   7.882   9.935
74808CL-    CL-47233  31.607  22.619  10.596
74809CL-    CL-47234   0.309  14.211  11.500
74810CL-    CL-47235  25.481   1.290   1.322
74811CL-    CL-47236  43.927  12.228   1.234
74812CL-    CL-47237  12.817  27.091  12.410
74813CL-    CL-47238  26.157  21.227  13.407
74814CL-    CL-47239  43.766  34.869  12.846
74815CL-    CL-47240  25.550  20.119  14.326
74816CL-    CL-47241  36.572  22.631  10.540
74817CL-    CL-47242  28.649  30.988   1.351
74818CL-    CL-47243  35.962  42.289   4.771
74819CL-    CL-47244  36.424  31.545   2.183
74820CL-    CL-47245  32.104  27.603   3.253
74821CL-    CL-47246  41.341   6.690   3.823
74822CL-    CL-47247   0.397  25.541   0.341
74823CL-    CL-47248  25.043  26.208   2.371
74824CL-    CL-47249  31.462  25.036   4.721
74825CL-    CL-47250  33.489  10.271  14.778
74826CL-    CL-47251  37.543  16.284   0.923
74827CL-    CL-47252  19.069  14.228  12.827
74828CL-    CL-47253  22.746  25.206  10.431
74829CL-    CL-47254  15.262  28.110   0.915
74830CL-    CL-47255  42.873  29.436   0.465
74831CL-    CL-47256  20.634  23.691  13.351
74832CL-    CL-47257   4.710  16.650   4.230
74833CL-    CL-47258  22.174  16.753   2.361
74834CL-    CL-47259  20.712  39.047   0.300
74835CL-    CL-47260  44.411  19.712   3.247
74836CL-    CL-47261   9.280  42.926  13.318
74837CL-    CL-47262  35.476  14.628   1.813
74838CL-    CL-47263  15.267  23.993   0.742
74839CL-    CL-47264   1.239   9.292  10.478
74840CL-    CL-47265  36.929  22.605  10.598
74841CL-    CL-47266  34.439  25.111   1.934
74842CL-    CL-47267  42.516  31.452   4.335
74843CL-    CL-47268  21.195  34.522  14.489
74844CL-    CL-47269  22.638  44.799  12.453
74845CL-    CL-47270  22.148   8.404  14.385
74846CL-    CL-47271  23.629  33.505   1.821
74847CL-    CL-47272  36.988  16.757   2.812
74848CL-    CL-47273  34.981  12.316  12.437
74849CL-    CL-47274  34.532  39.054   1.254
74850CL-    CL-47275   2.908  43.982  11.886
74851CL-    CL-47276  39.326  26.186   3.813
74852CL-    CL-47277   5.900   5.354   3.667
74853CL-    CL-47278  16.624  21.541  11.497
74854CL-    CL-47279  39.446  42.285  10.441
74855CL-    CL-47280   1.364  42.461   0.926
74856CL-    CL-47281  32.019  10.871   1.715
74857CL-    CL-47282  14.144  18.207   1.216
74858CL-    CL-47283   1.381  22.554   3.330
74859CL-    CL-47284  30.630  35.880  12.942
74860CL-    CL-47285  20.240  23.500   4.114
74861CL-    CL-47286   8.887   8.332  14.468
74862CL-    CL-47287  36.908  32.489  10.618
74863CL-    CL-47288   8.885  34.058   2.763
74864CL-    CL-47289  13.113   9.202  11.526
74865CL-    CL-47290  16.213  22.648  11.024
74866CL-    CL-47291   2.938  29.514  11.445
74867CL-    CL-47292   0.907  18.092   5.267
74868CL-    CL-47293   3.282  43.423   1.263
74869CL-    CL-47294  11.129  10.207  12.557
74870CL-    CL-47295  39.876  31.145  10.498
74871CL-    CL-47296   1.964  44.829  12.895
74872CL-    CL-47297  33.494  41.433   4.196
74873CL-    CL-47298   4.798  26.152   4.347
74874CL-    CL-47299   6.299  16.721  14.492
74875CL-    CL-47300  27.944  32.088   1.429
74876CL-    CL-47301  34.975  36.441   2.734
74877CL-    CL-47302   3.427   3.424  11.899
74878CL-    CL-47303  13.175  41.881   4.149
74879CL-    CL-47304  32.516  15.309  10.965
74880CL-    CL-47305  28.131  37.395   2.209
74881CL-    CL-47306  25.027   5.216   1.775
74882CL-    CL-47307  14.264   0.977   1.927
74883CL-    CL-47308  11.298  44.467   1.342
74884CL-    CL-47309   0.468   1.973   0.924
74885CL-    CL-47310  19.639  44.968  12.414
74886CL-    CL-47311  36.566  43.875  12.433
74887CL-    CL-47312  19.630  14.749  10.897
74888CL-    CL-47313  42.991  37.581  14.851
74889CL-    CL-47314  39.828  16.317  12.923
74890CL-    CL-47315  37.363   0.383   2.362
74891CL-    CL-47316   5.419   8.759  14.335
74892CL-    CL-47317  27.525  44.927   4.828
74893CL-    CL-47318  44.296  25.037  12.433
74894CL-    CL-47319  37.006  24.540  12.937
74895CL-    CL-47320  24.693  15.106   0.380
74896CL-    CL-47321  27.689  29.061  10.912
74897CL-    CL-47322  38.843  18.068  13.952
74898CL-    CL-47323   7.850  20.041   1.422
74899CL-    CL-47324  42.524  17.068   2.373
74900CL-    CL-47325  17.259  44.835   3.220
74901CL-    CL-47326  38.487  23.124   0.842
74902CL-    CL-47327  14.752  28.180  13.507
74903CL-    CL-47328  43.978  18.723   2.364
74904CL-    CL-47329  39.815   0.837   1.713
74905CL-    CL-47330   0.826  39.025   3.661
74906CL-    CL-47331  12.203  25.494   0.729
74907CL-    CL-47332   9.787  40.441   4.159
74908CL-    CL-47333  10.232  39.972   5.290
74909CL-    CL-47334  26.551  21.628  11.964
74910CL-    CL-47335  16.257  41.482   4.121
74911CL-    CL-47336  36.952  12.821  11.946
74912CL-    CL-47337  43.442  42.421   4.235
74913CL-    CL-47338  32.083  19.252   0.428
74914CL-    CL-47339  17.139  10.284  12.885
74915CL-    CL-47340  14.706  17.702  11.869
74916CL-    CL-47341   9.319  25.979   0.296
74917CL-    CL-47342  18.599   1.800   4.233
74918CL-    CL-47343  36.881  12.316   2.185
74919CL-    CL-47344  33.885   6.414   0.437
74920CL-    CL-47345  39.459  14.297   2.192
74921CL-    CL-47346  38.464   7.194   3.154
74922CL-    CL-47347  33.124   4.753   1.747
74923CL-    CL-47348  19.675  44.969  13.988
74924CL-    CL-47349  12.761  28.979   1.736
74925CL-    CL-47350   9.726  32.003  13.427
74926CL-    CL-47351  12.741   5.711   3.375
74927CL-    CL-47352  41.869  32.129  11.923
74928CL-    CL-47353  41.868  38.388   1.354
74929CL-    CL-47354  31.949  30.501   2.778
74930CL-    CL-47355  28.011  22.203  11.985
74931CL-    CL-47356   9.725  38.023  11.993
74932CL-    CL-47357  35.403   0.844  14.879
74933CL-    CL-47358  28.075   0.869  14.799
74934CL-    CL-47359  25.066  40.000   4.605
74935CL-    CL-47360  20.149  36.930   0.747
74936CL-    CL-47361   1.471  18.276  13.469
74937CL-    CL-47362  42.928  28.086  11.436
74938CL-    CL-47363   1.860  29.087   4.611
74939CL-    CL-47364  36.072  18.093  13.344
74940CL-    CL-47365  15.595  25.649  13.998
74941CL-    CL-47366  30.934  44.403   0.288
74942CL-    CL-47367   6.269  17.244   2.289
74943CL-    CL-47368  11.273  21.719   3.635
74944CL-    CL-47369  14.808  36.929   3.365
74945CL-    CL-47370  30.434  38.490  14.285
74946CL-    CL-47371  37.577  16.785  12.962
74947CL-    CL-47372   1.333  39.938  12.829
74948CL-    CL-47373  43.339  43.007   4.201
74949CL-    CL-47374  28.504   1.860   2.896
74950CL-    CL-47375  26.056  31.020  11.441
74951CL-    CL-47376  42.520  12.718  11.917
74952CL-    CL-47377  35.981   8.771   1.354
74953CL-    CL-47378   1.749  13.349   0.867
74954CL-    CL-47379  25.602  32.587   4.113
74955CL-    CL-47380  36.089  16.689  11.526
74956CL-    CL-47381   3.355   3.824  12.827
74957CL-    CL-47382  34.603   2.772   2.329
74958CL-    CL-47383  36.990   2.728   4.826
74959CL-    CL-47384  27.554  31.477   3.756
74960CL-    CL-47385  28.978  30.935   4.838
74961CL-    CL-47386  33.541  42.498   0.858
74962CL-    CL-47387   9.819  21.560  14.886
74963CL-    CL-47388  31.437  33.468  12.965
74964CL-    CL-47389  18.654  41.967   1.861
74965CL-    CL-47390   3.954  37.559   0.851
74966CL-    CL-47391  27.523  30.614  14.342
74967CL-    CL-47392  42.985  40.982  14.029
74968CL-    CL-47393  44.485  10.156   3.282
74969CL-    CL-47394  23.120  24.643  12.924
74970CL-    CL-47395  27.557  20.144  14.913
74971CL-    CL-47396   5.915   4.743  14.369
74972CL-    CL-47397   1.807  14.661   4.646
74973CL-    CL-47398  38.013  25.022  13.808
74974CL-    CL-47399   9.395   7.325   3.747
74975CL-    CL-47400  24.220  35.549   0.836
74976CL-    CL-47401   1.883  15.196  10.627
74977CL-    CL-47402   6.847  39.443   0.265
74978CL-    CL-47403  19.779  30.618   3.676
74979CL-    CL-47404  15.823  42.790  10.997
74980CL-    CL-47405   0.350  37.434  14.761
74981CL-    CL-47406   5.412   3.428  13.843
74982CL-    CL-47407  17.771   4.277   2.348
74983CL-    CL-47408  40.008  17.680  14.918
74984CL-    CL-47409  23.531  44.265   1.848
74985CL-    CL-47410  39.415  42.986  13.488
74986CL-    CL-47411  43.827  42.854  12.085
74987CL-    CL-47412  17.285  39.512  13.824
74988CL-    CL-47413  44.433  17.562  12.420
74989CL-    CL-47414  35.999  28.497   1.352
74990CL-    CL-47415  11.850  40.492   3.282
74991CL-    CL-47416   8.356   1.408   4.131
74992CL-    CL-47417  25.003  23.679   4.801
74993CL-    CL-47418  38.568   9.825   1.860
74994CL-    CL-47419  23.062  12.322  14.365
74995CL-    CL-47420  24.223  39.324   0.291
74996CL-    CL-47421  22.008  25.615   0.882
74997CL-    CL-47422  18.614  35.373   3.806
74998CL-    CL-47423   2.960  16.259   0.278
74999CL-    CL-47424   3.871  23.019   2.783
75000CL-    CL-47425  13.188  22.731   5.217
75001CL-    CL-47426   3.458   8.819   1.333
75002CL-    CL-47427   2.241  15.198  12.575
75003CL-    CL-47428  13.718  33.456   1.747
75004CL-    CL-47429   3.903  21.543  14.322
75005CL-    CL-47430  25.648   7.876   1.264
75006CL-    CL-47431  33.007  39.317  12.901
75007CL-    CL-47432  19.199   8.336  14.828
75008CL-    CL-47433  25.969  17.065   3.669
75009CL-    CL-47434  30.918  10.848   0.789
75010CL-    CL-47435   2.837  20.690  12.539
75011CL-    CL-47436  21.083  40.424   1.922
75012CL-    CL-47437  17.751  41.314   1.418
75013CL-    CL-47438  23.073  25.571   1.753
75014CL-    CL-47439  39.354   3.873   4.326
75015CL-    CL-47440  17.228   2.843   5.236
75016CL-    CL-47441  35.066  13.806   3.815
75017CL-    CL-47442  15.671  15.294   2.865
75018CL-    CL-47443  20.073  40.908  12.946
75019CL-    CL-47444   1.271  22.733  12.362
75020CL-    CL-47445   3.850   8.735  13.988
75021CL-    CL-47446  12.282   7.750   4.300
75022CL-    CL-47447  25.554  34.588  14.772
75023CL-    CL-47448  14.680  31.604  10.917
75024CL-    CL-47449   4.399  16.620   4.753
75025CL-    CL-47450  33.991  31.474   1.845
75026CL-    CL-47451  18.722  27.152   3.328
75027CL-    CL-47452  10.785  35.524   4.801
75028CL-    CL-47453  18.649  23.736   2.707
75029CL-    CL-47454  42.302  43.007  14.917
75030CL-    CL-47455  22.551  14.656   1.856
75031CL-    CL-47456  22.063  32.451   3.757
75032CL-    CL-47457  28.043  12.658  14.490
75033CL-    CL-47458  12.349  42.831  13.874
75034CL-    CL-47459  42.505  27.085  13.326
75035CL-    CL-47460  38.906  33.047   0.893
75036CL-    CL-47461  12.669   2.812   1.435
75037CL-    CL-47462   1.306  20.048  11.994
75038CL-    CL-47463   9.751  36.089  11.444
75039CL-    CL-47464  15.196  34.387  10.606
75040CL-    CL-47465  34.569  13.349   3.715
75041CL-    CL-47466  31.565  41.880  13.377
75042CL-    CL-47467  40.996   8.348   3.372
75043CL-    CL-47468  30.579   8.818  11.481
75044CL-    CL-47469  43.913  34.383  13.476
75045CL-    CL-47470  32.449   6.204  11.599
75046CL-    CL-47471  21.239   7.706  14.935
75047CL-    CL-47472   4.442  42.352   3.371
75048CL-    CL-47473  41.843  26.676   2.746
75049CL-    CL-47474  36.459  39.895   4.618
75050CL-    CL-47475  27.151   5.687  10.917
75051CL-    CL-47476  16.615  12.684  12.353
75052CL-    CL-47477  23.518   8.769   5.717
75053CL-    CL-47478   4.877  22.671   1.246
75054CL-    CL-47479  17.616  26.573   1.909
75055CL-    CL-47480  22.072   4.942  11.513
75056CL-    CL-47481  10.815  33.070   0.455
75057CL-    CL-47482  15.173  37.930   4.609
75058CL-    CL-47483   3.406  41.451  14.450
75059CL-    CL-47484  13.262  37.548  12.948
75060CL-    CL-47485  43.324  10.709   0.302
75061CL-    CL-47486  12.660   4.395  11.921
75062CL-    CL-47487  39.465  34.898  14.961
75063CL-    CL-47488  13.202  20.564  14.786
75064CL-    CL-47489  22.689  23.656   2.325
75065CL-    CL-47490   2.349  28.158   1.300
75066CL-    CL-47491   4.918  12.789   0.856
75067CL-    CL-47492  33.887  16.156   1.364
75068CL-    CL-47493  12.823  11.706  10.519
75069CL-    CL-47494  28.679  39.030  12.472
75070CL-    CL-47495   2.323  10.152   1.791
75071CL-    CL-47496  33.527  26.635   4.346
75072CL-    CL-47497  23.598   7.402   1.814
75073CL-    CL-47498  33.501   7.781   1.450
75074CL-    CL-47499   7.840  34.372  12.994
75075CL-    CL-47500   4.792  22.091  13.873
75076CL-    CL-47501  14.164  34.404   3.854
75077CL-    CL-47502  36.939  33.390  12.997
75078CL-    CL-47503  16.106   9.248  11.520
75079CL-    CL-47504  18.611   1.330   4.707
75080CL-    CL-47505  37.499   5.763  11.016
75081CL-    CL-47506   1.752  21.560  11.403
75082CL-    CL-47507  29.075  40.314  14.931
75083CL-    CL-47508  43.775  10.871   1.249
75084CL-    CL-47509  35.989  30.416   1.434
75085CL-    CL-47510  23.006  33.064   4.750
75086CL-    CL-47511  17.289  17.573  12.876
75087CL-    CL-47512   4.823   3.349   3.266
75088CL-    CL-47513  44.444  23.727  14.013
75089CL-    CL-47514   7.331  26.520  13.516
75090CL-    CL-47515  28.543  11.713   3.351
75091CL-    CL-47516  37.423   0.866   1.855
75092CL-    CL-47517   4.316  44.948  14.803
75093CL-    CL-47518  27.571  18.593  13.508
75094CL-    CL-47519  44.437  10.877  13.517
75095CL-    CL-47520  32.466   1.935   2.883
75096CL-    CL-47521   4.731  13.130  11.455
75097CL-    CL-47522  43.868  23.572  13.323
75098CL-    CL-47523   9.169  16.206   2.777
75099CL-    CL-47524  36.557  31.486  12.977
75100CL-    CL-47525  17.716  33.466  12.826
75101CL-    CL-47526   4.282  25.589   4.123
75102CL-    CL-47527  11.668   1.428   3.767
75103CL-    CL-47528  14.134  25.029   1.722
75104CL-    CL-47529  41.335  11.185   0.325
75105CL-    CL-47530  17.070  33.424   5.275
75106CL-    CL-47531  26.478  33.010  12.455
75107CL-    CL-47532  31.006   5.357   1.769
75108CL-    CL-47533  22.088  17.122  14.820
75109CL-    CL-47534  26.502  38.061  12.071
75110CL-    CL-47535  34.961  32.502  12.875
75111CL-    CL-47536  44.297  44.355  13.936
75112CL-    CL-47537  11.628  32.962  14.990
75113CL-    CL-47538  27.094  25.200  13.059
75114CL-    CL-47539  41.792  24.212   2.187
75115CL-    CL-47540  26.981   5.863   3.835
75116CL-    CL-47541  26.620  38.065  14.780
75117CL-    CL-47542   7.899   4.260   3.356
75118CL-    CL-47543  20.125   6.279  11.879
75119CL-    CL-47544   4.221  27.446   1.838
75120CL-    CL-47545  42.500  38.527  11.979
75121CL-    CL-47546  15.736   7.717  13.990
75122CL-    CL-47547  24.710   8.193   3.329
75123CL-    CL-47548  25.572   4.762   0.402
75124CL-    CL-47549   3.317  35.084   5.232
75125CL-    CL-47550  26.658  20.204  13.449
75126CL-    CL-47551  37.440  26.127   2.239
75127CL-    CL-47552  18.757  26.180   0.365
75128CL-    CL-47553   3.735  39.909   2.258
75129CL-    CL-47554  23.063  44.003  11.882
75130CL-    CL-47555  41.961  42.352  12.455
75131CL-    CL-47556   4.393  36.841  12.490
75132CL-    CL-47557  35.950  26.951  11.462
75133CL-    CL-47558  35.991  27.578   2.364
75134CL-    CL-47559  34.013  32.404   2.269
75135CL-    CL-47560  18.099  16.214  13.873
75136CL-    CL-47561  11.138  24.222  10.914
75137CL-    CL-47562  42.019  14.301  10.585
75138CL-    CL-47563  27.579  16.692  13.526
75139CL-    CL-47564  19.709  10.342  11.116
75140CL-    CL-47565  23.645  23.092   0.872
75141CL-    CL-47566  14.749  18.547  12.026
75142CL-    CL-47567  44.390   2.961  11.591
75143CL-    CL-47568   1.879  37.466  11.604
75144CL-    CL-47569  43.418  37.431   2.817
75145CL-    CL-47570  18.659   0.262  12.342
75146CL-    CL-47571  27.548  38.501  12.386
75147CL-    CL-47572  33.517  42.404  12.034
75148CL-    CL-47573  32.031  21.143  13.335
75149CL-    CL-47574   9.325   1.813   4.599
75150CL-    CL-47575  21.248  25.688  10.936
75151CL-    CL-47576  44.387  38.494  12.504
75152CL-    CL-47577   3.765  34.052  14.839
75153CL-    CL-47578  14.263  32.563  12.073
75154CL-    CL-47579  38.392  41.824  12.020
75155CL-    CL-47580   1.350  24.159   4.763
75156CL-    CL-47581  23.672  38.490  13.870
75157CL-    CL-47582  43.962  30.571   1.286
75158CL-    CL-47583  41.916  33.991  13.028
75159CL-    CL-47584   3.454   5.210   2.333
75160CL-    CL-47585  13.125  42.884  12.472
75161CL-    CL-47586  22.170  15.219  10.938
75162CL-    CL-47587  10.749  19.609  12.071
75163CL-    CL-47588  26.462  20.539  14.932
75164CL-    CL-47589  30.946  43.370   4.635
75165CL-    CL-47590  23.657  21.661  13.517
75166CL-    CL-47591  21.182  14.270  13.797
75167CL-    CL-47592  25.001  19.263  12.045
75168CL-    CL-47593  15.587   1.971   2.292
75169CL-    CL-47594  11.848  40.860   3.280
75170CL-    CL-47595  42.490  26.139  11.979
75171CL-    CL-47596  30.130   8.380  12.569
75172CL-    CL-47597   5.247  44.472   1.269
75173CL-    CL-47598  41.453  26.187   2.869
75174CL-    CL-47599  16.271   8.899  11.505
75175CL-    CL-47600   3.242  39.337   0.899
75176CL-    CL-47601  30.524  22.156  10.576
75177CL-    CL-47602  44.793  16.582   3.757
75178CL-    CL-47603   2.342  38.467  12.074
75179CL-    CL-47604  44.380  21.620   4.715
75180CL-    CL-47605  42.021  32.901   0.813
75181CL-    CL-47606  40.383   0.744   4.243
75182CL-    CL-47607  42.989  44.292   2.742
75183CL-    CL-47608  13.701  27.487  13.444
75184CL-    CL-47609   5.207  34.068   1.334
75185CL-    CL-47610  28.013  30.639   5.119
75186CL-    CL-47611  11.763  26.686   2.756
75187CL-    CL-47612  21.138  35.539   1.785
75188CL-    CL-47613  34.611  24.056  10.414
75189CL-    CL-47614  43.823  43.786  11.931
75190CL-    CL-47615  30.055  43.916  12.425
75191CL-    CL-47616  17.559  16.205  13.322
75192CL-    CL-47617   9.206  43.019  11.106
75193CL-    CL-47618  18.642  16.728  10.894
75194CL-    CL-47619  35.879  30.119   1.346
75195CL-    CL-47620  44.389   1.467  11.960
75196CL-    CL-47621  12.633  18.209   4.119
75197CL-    CL-47622  35.484   8.880   3.297
75198CL-    CL-47623  15.669  24.672   2.365
75199CL-    CL-47624   1.471  24.061   2.394
75200CL-    CL-47625  36.544  34.482   2.409
75201CL-    CL-47626   8.228  42.818   2.856
75202CL-    CL-47627  44.836  14.307  14.393
75203CL-    CL-47628  44.839  31.401   2.842
75204CL-    CL-47629   0.812  20.090  13.793
75205CL-    CL-47630   2.744  39.325  11.934
75206CL-    CL-47631  18.683  29.506   3.321
75207CL-    CL-47632  31.132  30.462  12.073
75208CL-    CL-47633  11.327   1.361  13.996
75209CL-    CL-47634  19.198  42.884  13.339
75210CL-    CL-47635   3.807  25.026   0.902
75211CL-    CL-47636  40.425  34.098  13.995
75212CL-    CL-47637  32.623   3.369   0.814
75213CL-    CL-47638  25.968  12.260  12.463
75214CL-    CL-47639  11.306   1.875  13.435
75215CL-    CL-47640  14.279   4.265   1.238
75216CL-    CL-47641   9.681  21.734  11.118
75217CL-    CL-47642  28.504  37.338  13.346
75218CL-    CL-47643  39.485  34.024   4.716
75219CL-    CL-47644  33.501   0.264  13.382
75220CL-    CL-47645  17.070  40.464  14.345
75221CL-    CL-47646  33.048  21.163  12.829
75222CL-    CL-47647  25.219  25.583   3.282
75223CL-    CL-47648  10.868  18.774   1.337
75224CL-    CL-47649  11.738  24.556  12.428
75225CL-    CL-47650   3.824  39.019  14.016
75226CL-    CL-47651  25.518  26.056   2.416
75227CL-    CL-47652   9.289  42.877   0.919
75228CL-    CL-47653  21.743  30.043   1.226
75229CL-    CL-47654  34.552  44.306   0.292
75230CL-    CL-47655  33.495  23.149  11.857
75231CL-    CL-47656  42.948  20.149  11.860
75232CL-    CL-47657   2.296  40.471  12.525
75233CL-    CL-47658  20.153  43.479   1.440
75234CL-    CL-47659  32.601  28.549   1.931
75235CL-    CL-47660  15.680  18.273  10.128
75236CL-    CL-47661  28.064   0.965   5.100
75237CL-    CL-47662  23.539  15.293  10.445
75238CL-    CL-47663  43.381  39.399   1.847
75239CL-    CL-47664   0.405   3.270  10.555
75240CL-    CL-47665  29.117  32.034  12.451
75241CL-    CL-47666  21.737  21.160  12.368
75242CL-    CL-47667   0.348  38.892   4.125
75243CL-    CL-47668  40.511   2.335   4.727
75244CL-    CL-47669  39.025  26.981  12.940
75245CL-    CL-47670   7.844   5.308   2.398
75246CL-    CL-47671  26.147  19.171   1.751
75247CL-    CL-47672  44.277  33.927  11.502
75248CL-    CL-47673  36.365  38.562   2.327
75249CL-    CL-47674   8.360  33.934   1.894
75250CL-    CL-47675  14.103  22.706  10.520
75251CL-    CL-47676  36.857  17.660  12.977
75252CL-    CL-47677  38.548  28.673  10.413
75253CL-    CL-47678  30.525   6.402   2.727
75254CL-    CL-47679  27.170   8.675  11.572
75255CL-    CL-47680   5.702   0.934   1.283
75256CL-    CL-47681  13.348  15.263  12.427
75257CL-    CL-47682  24.720   0.370   2.403
75258CL-    CL-47683  36.544  14.155  14.460
75259CL-    CL-47684  14.604  37.884  11.460
75260CL-    CL-47685  15.228  30.416   1.928
75261CL-    CL-47686  33.058  43.960  10.428
75262CL-    CL-47687  30.516  38.378   3.720
75263CL-    CL-47688   3.244  25.653   4.623
75264CL-    CL-47689   7.731  26.042  12.346
75265CL-    CL-47690  12.139  23.512   0.853
75266CL-    CL-47691   1.843   4.324  10.597
75267CL-    CL-47692  27.678  16.232   3.232
75268CL-    CL-47693  15.167  24.108  11.004
75269CL-    CL-47694   2.442  34.889   2.233
75270CL-    CL-47695  34.369  35.462  14.854
75271CL-    CL-47696  21.127  16.789   0.932
75272CL-    CL-47697  20.222  28.173   0.891
75273CL-    CL-47698  29.954  23.643  10.608
75274CL-    CL-47699  29.640  30.028   3.847
75275CL-    CL-47700  13.726   9.742   3.807
75276CL-    CL-47701  34.414  19.584   1.779
75277CL-    CL-47702  15.580   8.668  13.954
75278CL-    CL-47703  42.782  29.136   4.804
75279CL-    CL-47704  30.627  14.773   3.661
75280CL-    CL-47705  10.812  37.360  12.989
75281CL-    CL-47706  34.953   3.789   4.707
75282CL-    CL-47707  41.822   5.249   1.698
75283CL-    CL-47708  31.996  38.325  14.401
75284CL-    CL-47709  38.944   7.390  12.355
75285CL-    CL-47710   1.936  18.641  14.868
75286CL-    CL-47711  40.417  20.734  14.454
75287CL-    CL-47712  15.703   5.834   3.263
75288CL-    CL-47713  14.329  20.613  10.974
75289CL-    CL-47714  20.531  33.935  11.067
75290CL-    CL-47715  37.017  28.604  14.999
75291CL-    CL-47716   5.772  31.114   1.412
75292CL-    CL-47717  16.149   2.753   1.259
75293CL-    CL-47718  27.010  38.528  10.472
75294CL-    CL-47719  37.530  23.711   4.315
75295CL-    CL-47720   2.739   9.827   3.691
75296CL-    CL-47721  20.264  38.011  11.585
75297CL-    CL-47722   3.289  24.167   2.360
75298CL-    CL-47723  32.944  23.550   1.813
75299CL-    CL-47724  31.593  44.280   4.634
75300CL-    CL-47725  38.341   9.698  13.984
75301CL-    CL-47726  20.082   8.819   0.330
75302CL-    CL-47727   7.171   5.314  10.633
75303CL-    CL-47728  40.403   9.748   3.202
75304CL-    CL-47729  18.253  10.851  12.578
75305CL-    CL-47730  38.884  32.038  13.320
75306CL-    CL-47731  15.284  22.216  14.427
75307CL-    CL-47732  27.154  37.001   0.797
75308CL-    CL-47733  44.387  33.921  13.975
75309CL-    CL-47734   3.388  15.296  14.422
75310CL-    CL-47735  27.471  33.601   3.783
75311CL-    CL-47736   5.395   1.367   1.934
75312CL-    CL-47737   9.231  13.725   0.950
75313CL-    CL-47738  13.312  11.807  10.425
75314CL-    CL-47739  27.478   2.780   1.721
75315CL-    CL-47740  33.407   2.349   5.291
75316CL-    CL-47741  20.265  21.119   3.154
75317CL-    CL-47742  29.541   9.776   2.753
75318CL-    CL-47743  20.227  38.056   3.266
75319CL-    CL-47744  32.918   3.907  10.932
75320CL-    CL-47745  24.546   6.898  13.853
75321CL-    CL-47746   1.425  13.666   0.890
75322CL-    CL-47747  12.780  10.644  14.330
75323CL-    CL-47748  16.578  17.119  13.476
75324CL-    CL-47749  44.931  31.503  14.797
75325CL-    CL-47750  40.808  27.501   2.216
75326CL-    CL-47751  38.900  12.308   1.759
75327CL-    CL-47752  40.329  40.449   0.322
75328CL-    CL-47753  27.448  33.517   2.851
75329CL-    CL-47754  22.586  17.304  10.073
75330CL-    CL-47755  28.475  12.831   1.234
75331CL-    CL-47756   8.226   3.289  12.540
75332CL-    CL-47757  44.989  42.958  10.534
75333CL-    CL-47758  41.896   6.294   4.165
75334CL-    CL-47759  17.164  29.517  11.390
75335CL-    CL-47760   9.346  21.574  11.954
75336CL-    CL-47761  25.978  24.193  13.014
75337CL-    CL-47762   0.494  24.535  10.543
75338CL-    CL-47763  34.054  40.807   2.837
75339CL-    CL-47764  17.307  28.506   4.609
75340CL-    CL-47765  24.590   5.800  13.454
75341CL-    CL-47766   0.367  38.523  13.962
75342CL-    CL-47767   7.192  37.468  12.508
75343CL-    CL-47768  18.613  32.405  12.542
75344CL-    CL-47769  12.668  16.296  12.961
75345CL-    CL-47770  13.315   9.165   0.453
75346CL-    CL-47771  37.379   5.788   3.230
75347CL-    CL-47772  24.229  31.082  13.964
75348CL-    CL-47773  14.236   8.306  12.823
75349CL-    CL-47774  28.054  22.612   1.902
75350CL-    CL-47775  17.203  24.059   4.257
75351CL-    CL-47776  35.365   2.752   2.342
75352CL-    CL-47777  37.546  24.620   0.280
75353CL-    CL-47778  44.797  15.633  11.483
75354CL-    CL-47779  29.083  21.199   3.199
75355CL-    CL-47780   6.356  28.502  13.537
75356CL-    CL-47781  27.575  25.053   1.214
75357CL-    CL-47782  10.363  34.044  11.506
75358CL-    CL-47783  17.232  38.329   3.147
75359CL-    CL-47784  40.004  29.011   0.802
75360CL-    CL-47785  14.779  26.123  14.020
75361CL-    CL-47786  16.764  29.668  11.432
75362CL-    CL-47787  42.462  24.186  10.628
75363CL-    CL-47788   2.748  27.196   1.751
75364CL-    CL-47789  42.970  28.671   1.738
75365CL-    CL-47790  40.338  43.469   1.772
75366CL-    CL-47791  30.073  21.133   3.634
75367CL-    CL-47792   9.723  24.723   1.862
75368CL-    CL-47793  15.604   6.761  14.379
75369CL-    CL-47794  41.395   4.353   3.827
75370CL-    CL-47795  40.890  14.220   1.449
75371CL-    CL-47796  32.921  33.414   3.788
75372CL-    CL-47797  39.847  19.165   0.955
75373CL-    CL-47798  16.276   1.784   1.356
75374CL-    CL-47799  15.134  21.261  13.955
75375CL-    CL-47800  36.408  17.205   1.424
75376CL-    CL-47801  28.118   2.776   3.702
75377CL-    CL-47802  14.331  32.566   4.259
75378CL-    CL-47803  37.471  28.067  11.423
75379CL-    CL-47804  16.221  29.559  12.001
75380CL-    CL-47805  41.805  13.246   0.803
75381CL-    CL-47806  11.703  30.009   4.167
75382CL-    CL-47807  17.195  10.200   3.680
75383CL-    CL-47808   1.863   9.234   1.419
75384CL-    CL-47809   3.767  30.932   2.674
75385CL-    CL-47810  44.855  32.135  13.797
75386CL-    CL-47811  29.445  13.732   3.764
75387CL-    CL-47812  35.911  25.165   5.168
75388CL-    CL-47813  29.919  31.949  10.639
75389CL-    CL-47814  34.885  31.464   1.751
75390CL-    CL-47815  17.292  41.375  12.920
75391CL-    CL-47816  20.535   1.971  14.000
75392CL-    CL-47817   2.431  35.574   0.909
75393CL-    CL-47818  28.935  11.838   0.283
75394CL-    CL-47819  41.819  11.839  14.475
75395CL-    CL-47820   7.774  33.514  10.935
75396CL-    CL-47821  16.639  17.607  14.759
75397CL-    CL-47822  33.072   6.210   4.831
75398CL-    CL-47823  40.313  42.357   4.230
75399CL-    CL-47824   0.364  19.081  13.395
75400CL-    CL-47825  38.484   7.407  12.002
75401CL-    CL-47826   1.789  35.507  10.995
75402CL-    CL-47827   9.671  21.055   0.462
75403CL-    CL-47828  20.546  24.667  11.923
75404CL-    CL-47829   8.869  23.059   1.334
75405CL-    CL-47830  12.322  31.968   3.343
75406CL-    CL-47831  27.680  28.971   4.172
75407CL-    CL-47832   8.365  20.191   2.204
75408CL-    CL-47833  22.172  31.610  11.588
75409CL-    CL-47834   7.669   8.319   1.292
75410CL-    CL-47835  13.288  13.275  10.991
75411CL-    CL-47836   2.276  40.890   1.359
75412CL-    CL-47837  31.467  34.446   0.444
75413CL-    CL-47838  41.842  11.625  13.372
75414CL-    CL-47839  26.178  10.360   4.823
75415CL-    CL-47840   3.937  38.446  11.443
75416CL-    CL-47841  13.157   0.335  11.015
75417CL-    CL-47842   9.746  19.658   4.797
75418CL-    CL-47843   0.321   1.251  11.459
75419CL-    CL-47844   2.964  44.989  14.800
75420CL-    CL-47845  31.982  16.642  10.551
75421CL-    CL-47846  25.147  17.245  13.063
75422CL-    CL-47847  36.589  31.410  14.362
75423CL-    CL-47848  27.539  14.305  13.897
75424CL-    CL-47849   7.356  40.342  10.474
75425CL-    CL-47850  32.044  31.003   2.394
75426CL-    CL-47851  16.149   8.219  13.905
75427CL-    CL-47852  40.484   0.930  10.160
75428CL-    CL-47853  28.622  19.137  10.550
75429CL-    CL-47854  44.908  17.578   3.772
75430CL-    CL-47855   0.812  30.997   4.677
75431CL-    CL-47856  26.065   3.780   3.207
75432CL-    CL-47857   8.284  22.532  14.765
75433CL-    CL-47858  21.052  38.562   4.353
75434CL-    CL-47859  41.982  26.645   4.352
75435CL-    CL-47860  17.256   7.863  13.873
75436CL-    CL-47861  27.040  18.227   4.347
75437CL-    CL-47862  32.050  14.198   4.261
75438CL-    CL-47863  24.506  16.812   2.322
75439CL-    CL-47864  24.067  30.162  10.621
75440CL-    CL-47865  36.580  22.580   0.424
75441CL-    CL-47866  34.037  34.467   4.706
75442CL-    CL-47867   6.717  15.624  11.972
75443CL-    CL-47868  32.408  15.268  13.862
75444CL-    CL-47869  43.941  24.542  12.550
75445CL-    CL-47870  43.437   9.767  14.903
75446CL-    CL-47871  26.188   5.315   1.726
75447CL-    CL-47872  28.107  18.134   0.474
75448CL-    CL-47873  27.142  43.356  14.376
75449CL-    CL-47874  21.695  14.172  11.995
75450CL-    CL-47875  34.606  18.088   0.912
75451CL-    CL-47876  19.179  11.260  13.325
75452CL-    CL-47877  32.019  27.624   4.626
75453CL-    CL-47878  38.969  26.952   0.903
75454CL-    CL-47879   9.323   6.327  11.045
75455CL-    CL-47880  20.057   7.763  11.959
75456CL-    CL-47881   0.773  12.625   1.429
75457CL-    CL-47882  18.113  12.340  10.891
75458CL-    CL-47883  20.649  21.209  11.908
75459CL-    CL-47884  35.899  31.457   2.182
75460CL-    CL-47885  31.968  33.052  11.381
75461CL-    CL-47886   3.286  10.143  12.520
75462CL-    CL-47887  44.823   0.302  12.839
75463CL-    CL-47888  29.460  43.486   3.834
75464CL-    CL-47889  35.581  10.652  11.869
75465CL-    CL-47890   1.734  12.856   3.823
75466CL-    CL-47891  14.151   3.454  14.391
75467CL-    CL-47892  25.545  26.131   4.305
75468CL-    CL-47893  35.866  10.349  14.466
75469CL-    CL-47894  26.177  32.608  10.959
75470CL-    CL-47895  14.648  16.313   4.597
75471CL-    CL-47896  27.995  35.918  13.309
75472CL-    CL-47897  16.284  15.298  12.016
75473CL-    CL-47898  24.518   1.483   1.329
75474CL-    CL-47899  18.549  34.948  10.641
75475CL-    CL-47900  36.944  25.622   5.751
75476CL-    CL-47901  29.470  43.891   2.751
75477CL-    CL-47902  43.768  12.288  14.516
75478CL-    CL-47903   8.323  34.920   5.741
75479CL-    CL-47904  19.771  32.046   0.950
75480CL-    CL-47905  32.539   2.372   2.813
75481CL-    CL-47906  30.444  42.862  12.351
75482CL-    CL-47907  17.170  41.535   2.699
75483CL-    CL-47908  37.842  21.630  13.809
75484CL-    CL-47909  15.624  26.032   3.825
75485CL-    CL-47910  31.147   6.744   2.186
75486CL-    CL-47911  19.750  25.697   0.916
75487CL-    CL-47912   4.319  28.485   3.253
75488CL-    CL-47913  27.606  35.951   0.411
75489CL-    CL-47914  11.651  25.476  12.054
75490CL-    CL-47915  37.560   6.853  14.284
75491CL-    CL-47916   3.287  39.972  10.534
75492CL-    CL-47917  25.549  24.203   0.915
75493CL-    CL-47918  39.937  31.079   0.482
75494CL-    CL-47919  20.724  17.583   2.278
75495CL-    CL-47920  27.030  18.110  12.056
75496CL-    CL-47921  15.244  30.440   1.347
75497CL-    CL-47922  21.140  40.810  13.328
75498CL-    CL-47923   9.296  21.229   1.784
75499CL-    CL-47924  24.085  20.156  13.910
75500CL-    CL-47925  25.652  22.031  11.442
75501CL-    CL-47926   4.328  16.314  12.971
75502CL-    CL-47927  13.684  43.457  13.848
75503CL-    CL-47928  35.076  27.533   1.260
75504CL-    CL-47929  23.082  22.051  13.920
75505CL-    CL-47930  11.137  12.312   0.947
75506CL-    CL-47931  24.686  32.577   0.249
75507CL-    CL-47932  27.194  35.498  14.800
75508CL-    CL-47933  28.514  11.761  14.302
75509CL-    CL-47934   4.846  14.297  12.354
75510CL-    CL-47935  12.308  17.135  14.771
75511CL-    CL-47936  41.014   4.280   4.174
75512CL-    CL-47937  40.920   7.808  13.452
75513CL-    CL-47938  21.712  43.915  11.589
75514CL-    CL-47939   5.301  38.474   3.210
75515CL-    CL-47940   9.176  30.585   2.807
75516CL-    CL-47941  11.188  34.436   3.680
75517CL-    CL-47942  10.208   0.870  14.391
75518CL-    CL-47943  26.471  14.320  12.429
75519CL-    CL-47944  26.182  22.686  13.525
75520CL-    CL-47945   4.448  14.329  10.599
75521CL-    CL-47946  30.453  29.640  12.562
75522CL-    CL-47947  41.425  23.702  13.391
75523CL-    CL-47948  12.162  32.004  13.951
75524CL-    CL-47949  33.590  33.037   3.242
75525CL-    CL-47950   3.789  44.352  13.407
75526CL-    CL-47951   6.716  36.402  13.026
75527CL-    CL-47952  44.916  42.031  14.907
75528CL-    CL-47953  42.411   1.847  10.902
75529CL-    CL-47954  29.544  36.911  12.829
75530CL-    CL-47955  23.193  29.125   3.695
75531CL-    CL-47956  10.777   2.853  12.569
75532CL-    CL-47957   8.328  20.049  11.933
75533CL-    CL-47958  19.249  38.414  14.325
75534CL-    CL-47959  38.329  39.923  11.576
75535CL-    CL-47960  34.372   5.306  14.763
75536CL-    CL-47961  10.689  31.626   4.321
75537CL-    CL-47962  28.111  44.368   2.800
75538CL-    CL-47963  16.301  40.398  12.914
75539CL-    CL-47964  23.063  26.611   5.244
75540CL-    CL-47965  36.910  32.637   1.311
75541CL-    CL-47966  13.682   6.326  14.352
75542CL-    CL-47967  26.569  21.144   4.210
75543CL-    CL-47968   4.709  37.532   4.822
75544CL-    CL-47969  25.673  28.939   0.411
75545CL-    CL-47970  19.282  25.529   3.718
75546CL-    CL-47971  19.584   3.771   3.648
75547CL-    CL-47972  12.226  38.541  12.980
75548CL-    CL-47973  28.472  33.102   1.805
75549CL-    CL-47974  40.798  28.037   0.746
75550CL-    CL-47975  31.957   4.317  12.383
75551CL-    CL-47976  33.943  16.114  12.911
75552CL-    CL-47977  31.965  15.302  12.066
75553CL-    CL-47978   4.801   2.957   1.829
75554CL-    CL-47979  41.863  43.474   0.817
75555CL-    CL-47980  29.142  24.005  13.011
75556CL-    CL-47981  15.793  44.498  10.910
75557CL-    CL-47982  31.615  30.960   0.914
75558CL-    CL-47983  25.652  10.823   1.848
75559CL-    CL-47984  18.149  32.415   2.802
75560CL-    CL-47985   9.392  12.297   3.786
75561CL-    CL-47986  17.206  19.755  11.943
75562CL-    CL-47987  14.689  35.105  13.315
75563CL-    CL-47988   6.900  40.952  10.903
75564CL-    CL-47989  19.759  28.470  10.896
75565CL-    CL-47990  16.232   1.732  13.881
75566CL-    CL-47991  18.544  41.305  12.375
75567CL-    CL-47992  31.102  44.904  11.102
75568CL-    CL-47993  44.823   2.743   4.148
75569CL-    CL-47994  12.128  23.726   4.676
75570CL-    CL-47995   8.807  30.026   2.304
75571CL-    CL-47996  20.206  25.621  14.019
75572CL-    CL-47997  40.998  19.201   3.187
75573CL-    CL-47998  13.218  34.409  10.033
75574CL-    CL-47999  29.944   6.882  12.551
75575CL-    CL-48000   3.881  41.787   1.779
75576CL-    CL-48001  29.661   3.294  12.970
75577CL-    CL-48002   3.850  18.062   4.674
75578CL-    CL-48003  23.523  12.160   2.368
75579CL-    CL-48004  32.611  20.675   2.757
75580CL-    CL-48005   4.943  39.425   0.373
75581CL-    CL-48006   4.418   0.419   4.602
75582CL-    CL-48007   1.239  13.626  11.603
75583CL-    CL-48008   0.291  18.707  11.589
75584CL-    CL-48009  35.566  10.842   2.267
75585CL-    CL-48010  21.095  30.469   4.187
75586CL-    CL-48011  28.151  30.983  14.486
75587CL-    CL-48012  19.161  17.559  11.000
75588CL-    CL-48013  14.771  18.282  12.366
75589CL-    CL-48014   5.256   6.732   2.716
75590CL-    CL-48015  11.656  14.657  13.421
75591CL-    CL-48016  19.629  17.190  14.476
75592CL-    CL-48017  22.131  14.285  13.030
75593CL-    CL-48018  40.461  10.871  14.300
75594CL-    CL-48019   5.919   7.701   1.225
75595CL-    CL-48020  27.955   6.733   2.698
75596CL-    CL-48021   4.365  17.592  11.519
75597CL-    CL-48022  33.035  24.569  13.025
75598CL-    CL-48023  12.196  13.242  11.444
75599CL-    CL-48024  42.920  19.153  13.478
75600CL-    CL-48025  33.060  26.676   3.351
75601CL-    CL-48026   8.723  12.257   3.384
75602CL-    CL-48027  42.779  23.083  11.515
75603CL-    CL-48028  21.682  22.121   2.374
75604CL-    CL-48029  16.785  22.104   2.838
75605CL-    CL-48030  17.174  31.514  13.030
75606CL-    CL-48031  42.475   1.877  14.393
75607CL-    CL-48032  33.619   9.889  11.414
75608CL-    CL-48033  19.103  31.975  11.595
75609CL-    CL-48034   1.805  14.705  12.546
75610CL-    CL-48035  38.553  41.443  11.601
75611CL-    CL-48036   5.908  22.151   1.305
75612CL-    CL-48037  44.394  30.598  11.077
75613CL-    CL-48038  23.170  15.592  10.959
75614CL-    CL-48039  24.713  44.979  14.453
75615CL-    CL-48040   4.828  23.553  13.033
75616CL-    CL-48041  33.511  21.736  11.986
75617CL-    CL-48042  31.116  11.148   0.856
75618CL-    CL-48043   8.279   8.848   1.848
75619CL-    CL-48044  37.919  42.525  14.775
75620CL-    CL-48045  12.239  39.044  14.788
75621CL-    CL-48046  32.555   0.823  14.940
75622CL-    CL-48047  38.997  37.413  12.501
75623CL-    CL-48048   7.197  25.704  11.545
75624CL-    CL-48049   2.240   7.368  10.916
75625CL-    CL-48050  31.062  43.936   0.762
75626CL-    CL-48051  17.613  38.482  10.436
75627CL-    CL-48052  18.081   4.867  13.358
75628CL-    CL-48053  38.825  25.710  11.106
75629CL-    CL-48054   9.229  42.872   5.296
75630CL-    CL-48055  25.659  36.432  13.544
75631CL-    CL-48056  36.448  26.568  11.405
75632CL-    CL-48057  41.362  32.905  12.426
75633CL-    CL-48058  18.149  43.892   2.824
75634CL-    CL-48059   7.735  40.389   0.892
75635CL-    CL-48060  16.273  22.085   3.742
75636CL-    CL-48061   2.229  26.618  14.773
75637CL-    CL-48062  30.926  12.120  13.534
75638CL-    CL-48063  17.277  32.534   4.598
75639CL-    CL-48064   9.211  40.360  13.547
75640CL-    CL-48065  36.022  11.787   4.796
75641CL-    CL-48066  20.672  32.988   1.872
75642CL-    CL-48067  42.972  10.283   1.810
75643CL-    CL-48068  44.354  44.397   0.280
75644CL-    CL-48069  16.761  29.633  14.881
75645CL-    CL-48070   0.483  23.709  14.957
75646CL-    CL-48071  11.172  35.504   1.418
75647CL-    CL-48072  21.690  31.601  11.374
75648CL-    CL-48073  11.726   1.790   3.382
75649CL-    CL-48074   9.857   8.822  12.925
75650CL-    CL-48075  33.035  18.587  11.407
75651CL-    CL-48076   5.742  17.714  14.300
75652CL-    CL-48077  36.029  21.735   0.750
75653CL-    CL-48078  30.974  15.605  12.840
75654CL-    CL-48079  23.598  39.984   1.371
75655CL-    CL-48080  41.904  37.482   4.704
75656CL-    CL-48081  22.996  41.823   4.601
75657CL-    CL-48082   6.804  17.137  13.814
75658CL-    CL-48083  13.311   9.872   2.699
75659CL-    CL-48084  32.119  35.893  12.447
75660CL-    CL-48085   7.183  23.590   4.207
75661CL-    CL-48086  44.963  28.180  14.970
75662CL-    CL-48087  11.645  18.671  13.802
75663CL-    CL-48088  21.586  17.257  12.382
75664CL-    CL-48089  39.343  12.285   1.308
75665CL-    CL-48090  28.175  22.998  14.913
75666CL-    CL-48091  34.414  13.117   2.856
75667CL-    CL-48092  21.580  14.641  14.882
75668CL-    CL-48093  17.140  42.369   2.387
75669CL-    CL-48094  13.843  44.300  12.468
75670CL-    CL-48095  12.314  37.341  11.042
75671CL-    CL-48096   9.695  33.537   4.713
75672CL-    CL-48097  17.656  44.997  13.825
75673CL-    CL-48098  14.277  34.529   4.303
75674CL-    CL-48099  24.481  35.886  11.384
75675CL-    CL-48100  15.240  26.087   2.305
75676CL-    CL-48101   6.910  41.304   0.906
75677CL-    CL-48102  16.271   0.822   2.221
75678CL-    CL-48103  11.263  22.530   1.314
75679CL-    CL-48104   5.218  17.206   2.845
75680CL-    CL-48105  14.621  24.568  11.374
75681CL-    CL-48106  31.151  41.899  11.602
75682CL-    CL-48107   9.169  28.969   0.356
75683CL-    CL-48108  39.925  24.588  13.941
75684CL-    CL-48109   6.696   2.786   2.825
75685CL-    CL-48110  39.386  39.882  12.345
75686CL-    CL-48111   6.285  17.220   4.339
75687CL-    CL-48112  21.675  25.039   1.296
75688CL-    CL-48113  33.982   1.867  10.610
75689CL-    CL-48114  29.926  19.706   3.859
75690CL-    CL-48115  32.136  35.474   0.824
75691CL-    CL-48116  17.226   7.341  14.442
75692CL-    CL-48117   4.815  22.149   2.179
75693CL-    CL-48118  11.712  42.447  13.955
75694CL-    CL-48119  39.469  30.443   0.308
75695CL-    CL-48120   5.853  44.473   1.223
75696CL-    CL-48121  33.569  12.813  12.951
75697CL-    CL-48122  19.241  24.220  13.375
75698CL-    CL-48123  43.769  30.049  10.932
75699CL-    CL-48124  21.071  17.136  14.278
75700CL-    CL-48125   0.325   8.326  11.955
75701CL-    CL-48126   0.917  42.942  11.111
75702CL-    CL-48127   9.678   8.705   0.289
75703CL-    CL-48128  28.028  39.413  12.984
75704CL-    CL-48129   8.289  11.142  12.067
75705CL-    CL-48130  25.504  17.145  14.846
75706CL-    CL-48131   9.808  30.476  11.560
75707CL-    CL-48132  21.232  15.583   3.788
75708CL-    CL-48133   4.749  29.102  12.379
75709CL-    CL-48134  17.269   6.893   3.810
75710CL-    CL-48135  37.451  33.968   4.613
75711CL-    CL-48136   2.383  43.349  14.299
75712CL-    CL-48137   8.751  31.608  11.481
75713CL-    CL-48138  44.473  13.126  11.610
75714CL-    CL-48139  29.098  32.551  10.889
75715CL-    CL-48140  28.965  42.472  13.031
75716CL-    CL-48141   0.892  19.093  14.025
75717CL-    CL-48142  34.102   1.818   4.729
75718CL-    CL-48143   4.815   1.333  11.589
75719CL-    CL-48144   6.863  31.559   2.825
75720CL-    CL-48145  33.585  27.165   4.712
75721CL-    CL-48146  30.949  37.470   1.886
75722CL-    CL-48147  20.061  11.256  12.363
75723CL-    CL-48148   6.354  33.622   5.160
75724CL-    CL-48149   9.819  25.094  13.971
75725CL-    CL-48150  35.396  21.575  13.329
75726CL-    CL-48151  24.572  32.967  14.888
75727CL-    CL-48152  30.592  36.901   1.911
75728CL-    CL-48153  14.832  43.496  10.453
75729CL-    CL-48154  17.570  34.546  14.342
75730CL-    CL-48155  13.258  13.304  12.503
75731CL-    CL-48156  41.919  25.508  11.539
75732CL-    CL-48157   1.843   0.871  14.964
75733CL-    CL-48158  24.624   6.836   3.256
75734CL-    CL-48159  27.580  24.993   2.791
75735CL-    CL-48160  34.067   1.953   0.885
75736CL-    CL-48161  26.977  33.437  14.882
75737CL-    CL-48162   1.277  37.956  12.359
75738CL-    CL-48163  22.661  19.580   4.247
75739CL-    CL-48164   2.419  34.455  10.940
75740CL-    CL-48165  43.449  21.578  14.918
75741CL-    CL-48166  16.599  39.824  11.899
75742CL-    CL-48167  24.619  26.028  11.546
75743CL-    CL-48168  36.863  24.595   9.442
75744CL-    CL-48169  25.594   6.374  10.543
75745CL-    CL-48170  28.673  37.356   3.351
75746CL-    CL-48171  29.545   0.815   3.816
75747CL-    CL-48172  14.270  12.700  11.961
75748CL-    CL-48173   3.730  16.240   3.159
75749CL-    CL-48174  42.286  35.596   3.293
75750CL-    CL-48175  37.841  11.656  10.931
75751CL-    CL-48176  28.537   4.431   2.772
75752CL-    CL-48177   3.387   7.728   2.679
75753CL-    CL-48178  44.463  40.888   2.848
75754CL-    CL-48179  29.927  42.494  14.500
75755CL-    CL-48180   7.728  14.802   4.193
75756CL-    CL-48181  44.942  21.022  13.941
75757CL-    CL-48182   2.272  33.438  10.636
75758CL-    CL-48183  25.175  44.384  11.981
75759CL-    CL-48184   2.896  33.549   1.760
75760CL-    CL-48185  10.210   8.292   3.631
75761CL-    CL-48186   5.847  10.745  14.888
75762CL-    CL-48187  25.075  22.566   0.337
75763CL-    CL-48188  16.807  38.338   2.240
75764CL-    CL-48189   8.363  36.534  12.905
75765CL-    CL-48190  27.550  24.550  12.392
75766CL-    CL-48191   3.899  22.053   3.630
75767CL-    CL-48192  34.991   8.171  10.448
75768CL-    CL-48193  26.595   0.414  11.552
75769CL-    CL-48194  32.971  11.639  14.846
75770CL-    CL-48195  14.788  32.529   2.760
75771CL-    CL-48196  33.076  20.242   2.685
75772CL-    CL-48197  28.971  15.207  14.795
75773CL-    CL-48198   6.302   6.214   3.169
75774CL-    CL-48199  18.572  17.618  11.006
75775CL-    CL-48200  41.851  40.430   1.418
75776CL-    CL-48201  17.301  30.998   1.410
75777CL-    CL-48202  38.906  34.063   2.295
75778CL-    CL-48203   5.687   4.769   0.823
75779CL-    CL-48204  31.913  10.217   2.750
75780CL-    CL-48205  18.709   3.825  12.356
75781CL-    CL-48206  10.243   7.702   4.746
75782CL-    CL-48207   1.253  16.211   3.827
75783CL-    CL-48208  20.081   2.877   4.830
75784CL-    CL-48209  15.638  40.429  11.041
75785CL-    CL-48210  42.409   2.826   0.360
75786CL-    CL-48211  32.048  33.560   1.701
75787CL-    CL-48212  29.933  44.984  13.979
75788CL-    CL-48213  42.457   9.732   2.281
75789CL-    CL-48214  38.066  41.875  11.991
75790CL-    CL-48215  39.512   1.875   1.214
75791CL-    CL-48216  28.558  27.481   1.439
75792CL-    CL-48217  16.634  44.849   9.533
75793CL-    CL-48218   3.825  44.903  11.379
75794CL-    CL-48219  32.916  38.554   0.824
75795CL-    CL-48220  11.777  18.240  12.982
75796CL-    CL-48221  34.423  23.595   3.681
75797CL-    CL-48222  16.800  16.309  13.045
75798CL-    CL-48223  32.064  10.307   1.261
75799CL-    CL-48224  35.097  21.157  12.011
75800CL-    CL-48225  42.383  18.283  13.997
75801CL-    CL-48226  14.685   5.427   4.201
75802CL-    CL-48227   7.398  23.236   2.842
75803CL-    CL-48228  37.831  17.090   4.157
75804CL-    CL-48229   9.740   7.777   0.398
75805CL-    CL-48230  20.736  33.052  12.503
75806CL-    CL-48231  38.904  34.583   3.839
75807CL-    CL-48232  15.279  24.531  14.992
75808CL-    CL-48233   1.950   2.358  14.872
75809CL-    CL-48234  25.982  17.579  10.515
75810CL-    CL-48235  15.618  10.333   3.857
75811CL-    CL-48236  16.276  27.675   4.838
75812CL-    CL-48237  37.062   6.886  11.888
75813CL-    CL-48238   5.731  35.109   4.315
75814CL-    CL-48239  20.041   0.755   2.386
75815CL-    CL-48240  36.865  27.000   4.255
75816CL-    CL-48241   9.667  15.147   4.778
75817CL-    CL-48242  16.641  23.074   1.280
75818CL-    CL-48243   9.238  22.556  10.511
75819CL-    CL-48244  15.793   1.310   5.691
75820CL-    CL-48245  30.536  32.013  13.512
75821CL-    CL-48246  19.556  38.854  12.006
75822CL-    CL-48247   4.848  13.298   5.170
75823CL-    CL-48248  15.769  16.218   2.727
75824CL-    CL-48249  22.746  41.043  11.399
75825CL-    CL-48250   8.743  34.882   2.205
75826CL-    CL-48251  23.159  44.868  11.599
75827CL-    CL-48252  15.752   2.469  11.942
75828CL-    CL-48253  21.147   7.346  13.358
75829CL-    CL-48254  39.517  20.045  11.869
75830CL-    CL-48255  30.576  17.634  12.348
75831CL-    CL-48256  21.728  28.143   0.380
75832CL-    CL-48257  29.077   5.341   0.772
75833CL-    CL-48258  23.039  22.617  10.926
75834CL-    CL-48259  41.389  17.683  11.971
75835CL-    CL-48260  31.414  42.780   3.750
75836CL-    CL-48261  28.519  16.246   4.249
75837CL-    CL-48262  34.554  34.867   1.419
75838CL-    CL-48263  38.910  41.302   5.189
75839CL-    CL-48264  24.982  42.506   0.885
75840CL-    CL-48265  30.618   6.862   1.742
75841CL-    CL-48266   4.343  31.912   1.919
75842CL-    CL-48267  12.221  25.145   0.433
75843CL-    CL-48268   4.376  36.420  11.525
75844CL-    CL-48269  30.615  30.949  14.026
75845CL-    CL-48270  41.017  27.661   0.248
75846CL-    CL-48271  20.694  15.229   0.388
75847CL-    CL-48272  10.320  13.213  12.512
75848CL-    CL-48273  20.632  20.231   1.228
75849CL-    CL-48274  21.543  12.315  12.426
75850CL-    CL-48275  38.555  14.650   3.266
75851CL-    CL-48276  19.538  32.084  11.569
75852CL-    CL-48277  20.761   1.279   1.700
75853CL-    CL-48278  11.325  18.760  14.347
75854CL-    CL-48279  17.789  11.809   2.693
75855CL-    CL-48280  11.841  24.670  11.006
75856CL-    CL-48281  28.529  30.463   4.643
75857CL-    CL-48282   0.765  24.986  12.982
75858CL-    CL-48283  10.178  18.157  13.350
75859CL-    CL-48284  12.191  32.580   2.226
75860CL-    CL-48285  43.765  44.436  10.918
75861CL-    CL-48286  36.048  18.554  10.601
75862CL-    CL-48287  33.515  22.252   2.203
75863CL-    CL-48288  23.156   9.832  12.419
75864CL-    CL-48289  41.533  29.058   3.668
75865CL-    CL-48290  41.808  36.859   2.215
75866CL-    CL-48291  41.979  44.333  10.561
75867CL-    CL-48292  23.160  14.685  10.509
75868CL-    CL-48293  26.982  19.082  12.483
75869CL-    CL-48294  17.627  31.983   3.375
75870CL-    CL-48295  17.198   1.918  14.783
75871CL-    CL-48296   3.748  17.222   0.289
75872CL-    CL-48297  35.961   5.399   4.240
75873CL-    CL-48298  37.883  32.902  14.403
75874CL-    CL-48299  20.171  19.656  14.914
75875CL-    CL-48300  23.549  32.915   3.789
75876CL-    CL-48301  31.902  39.514  13.378
75877CL-    CL-48302  10.341   0.477   1.771
75878CL-    CL-48303  40.882  36.080  13.946
75879CL-    CL-48304  31.034  16.721   0.328
75880CL-    CL-48305  39.529  30.913   3.737
75881CL-    CL-48306  10.646  40.943   3.719
75882CL-    CL-48307  44.343  19.125   3.354
75883CL-    CL-48308   6.393  20.087   4.758
75884CL-    CL-48309  16.786  11.168  11.981
75885CL-    CL-48310  43.993  25.546   2.212
75886CL-    CL-48311  33.995  26.637   0.389
75887CL-    CL-48312   7.226  23.054  14.951
75888CL-    CL-48313  35.105  36.846  14.278
75889CL-    CL-48314  32.437  22.168  13.424
75890CL-    CL-48315  27.653  42.941  13.940
75891CL-    CL-48316  43.462  43.442   1.272
75892CL-    CL-48317   9.831  39.397  13.791
75893CL-    CL-48318  26.579  39.005  11.860
75894CL-    CL-48319  44.386   2.963   2.899
75895CL-    CL-48320  11.751  38.537  14.764
75896CL-    CL-48321  21.754  31.986  10.593
75897CL-    CL-48322  44.308   7.191   0.444
75898CL-    CL-48323  27.665  34.913  13.443
75899CL-    CL-48324  38.882  17.695  14.470
75900CL-    CL-48325  12.285  36.481  10.410
75901CL-    CL-48326  30.484   2.938   4.647
75902CL-    CL-48327  33.479  23.704  12.424
75903CL-    CL-48328   7.863  35.058   2.230
75904CL-    CL-48329  44.931  29.996  12.415
75905CL-    CL-48330   4.409  23.111  13.475
75906CL-    CL-48331  33.011  39.033   1.867
75907CL-    CL-48332  39.050  12.773   5.200
75908CL-    CL-48333  32.523  32.421   3.821
75909CL-    CL-48334  13.650  25.644  13.017
75910CL-    CL-48335  26.953  44.491  14.388
75911CL-    CL-48336   2.748  22.662   0.745
75912CL-    CL-48337   3.939  40.981   0.426
75913CL-    CL-48338  19.226  29.605  13.409
75914CL-    CL-48339  12.296  35.946  10.404
75915CL-    CL-48340  42.488  12.644   4.199
75916CL-    CL-48341  40.387  32.031  10.074
75917CL-    CL-48342   9.799   9.325   1.280
75918CL-    CL-48343  26.490  36.066   4.247
75919CL-    CL-48344   6.364  14.727  11.457
75920CL-    CL-48345  40.313  43.389   2.883
75921CL-    CL-48346  11.844  34.915   2.226
75922CL-    CL-48347   5.806   2.793  14.914
75923CL-    CL-48348  27.532   2.885  14.916
75924CL-    CL-48349   7.321  25.086   4.737
75925CL-    CL-48350  18.182   3.388   2.209
75926CL-    CL-48351  14.802  37.999   2.857
75927CL-    CL-48352  17.285   4.840   2.203
75928CL-    CL-48353  12.262  35.576   3.302
75929CL-    CL-48354   6.900  20.049  10.963
75930CL-    CL-48355   8.736  31.106   4.193
75931CL-    CL-48356  14.139   1.860   2.717
75932CL-    CL-48357   2.351  30.100   4.651
75933CL-    CL-48358   9.380  22.071   4.346
75934CL-    CL-48359  27.184  15.296  11.394
75935CL-    CL-48360   7.179  16.579  14.980
75936CL-    CL-48361  39.877  27.544  13.419
75937CL-    CL-48362  37.387  33.882   4.264
75938CL-    CL-48363   0.834  25.695   2.267
75939CL-    CL-48364  44.944  11.741  13.378
75940CL-    CL-48365  14.222  16.080   3.255
75941CL-    CL-48366  11.321  12.208  11.913
75942CL-    CL-48367   4.426   4.248  12.025
75943CL-    CL-48368  36.053  36.453  12.477
75944CL-    CL-48369  24.647   9.719   1.775
75945CL-    CL-48370  32.106  43.019   0.439
75946CL-    CL-48371   2.941  44.271   4.197
75947CL-    CL-48372  31.635  37.023   2.241
75948CL-    CL-48373  15.257  16.673   1.746
75949CL-    CL-48374  39.940  39.329  10.926
75950CL-    CL-48375   5.254  21.059  10.412
75951CL-    CL-48376  40.493   7.824   1.823
75952CL-    CL-48377  24.565  13.143   2.228
75953CL-    CL-48378  27.631  37.505   0.861
75954CL-    CL-48379  16.292  25.200   0.444
75955CL-    CL-48380  30.949  37.920   2.402
75956CL-    CL-48381   6.791  43.376   4.243
75957CL-    CL-48382  37.980  43.271   9.469
75958CL-    CL-48383  21.723   0.907  13.804
75959CL-    CL-48384  27.987  42.860  12.486
75960CL-    CL-48385  38.534   4.253   2.369
75961CL-    CL-48386  11.138  35.570   0.294
75962CL-    CL-48387  26.013   9.860   4.677
75963CL-    CL-48388  28.950  29.037  14.339
75964CL-    CL-48389  32.989   7.176   0.277
75965CL-    CL-48390  21.077  43.875   1.882
75966CL-    CL-48391  32.055  17.303   2.727
75967CL-    CL-48392  32.414  20.124  11.377
75968CL-    CL-48393  31.031   1.802   2.696
75969CL-    CL-48394   6.911  42.343  11.386
75970CL-    CL-48395  25.649  33.573  11.962
75971CL-    CL-48396  18.261  44.417  10.478
75972CL-    CL-48397   8.764  13.265  11.937
75973CL-    CL-48398  15.660  41.006   0.826
75974CL-    CL-48399  43.334  38.954   1.756
75975CL-    CL-48400  13.644  37.891   0.449
75976CL-    CL-48401   1.342  31.524  10.472
75977CL-    CL-48402  34.007  21.144  12.825
75978CL-    CL-48403  20.108   1.298   3.308
75979CL-    CL-48404  42.834  28.647   4.120
75980CL-    CL-48405  21.728  23.525  13.879
75981CL-    CL-48406  26.473   8.708  14.783
75982CL-    CL-48407  14.617  12.297   1.831
75983CL-    CL-48408  19.131   6.426  13.887
75984CL-    CL-48409  37.531  39.969  13.813
75985CL-    CL-48410   3.219  42.486   1.913
75986CL-    CL-48411  24.202  19.562  12.929
75987CL-    CL-48412   5.300  35.005   1.894
75988CL-    CL-48413  21.643  23.225  10.424
75989CL-    CL-48414   8.658  22.718  12.850
75990CL-    CL-48415  15.590  40.018  13.860
75991CL-    CL-48416  15.802  35.538   0.910
75992CL-    CL-48417  23.156  14.123   0.309
75993CL-    CL-48418  11.699   3.405   5.198
75994CL-    CL-48419  41.304  23.167  13.056
75995CL-    CL-48420   3.814  31.586   1.742
75996CL-    CL-48421  19.550  30.018   0.263
75997CL-    CL-48422  15.578  17.646   3.161
75998CL-    CL-48423  25.179  44.838  11.414
75999CL-    CL-48424  13.112  21.550  11.528
76000CL-    CL-48425  13.290   5.356  11.451
76001CL-    CL-48426  35.537  26.117  11.048
76002CL-    CL-48427  18.198  14.808  14.301
76003CL-    CL-48428  23.012  12.243  13.797
76004CL-    CL-48429  34.001  18.762  12.922
76005CL-    CL-48430  11.734  24.490  11.429
76006CL-    CL-48431  30.001  23.230  14.774
76007CL-    CL-48432  35.481  12.744  11.489
76008CL-    CL-48433  40.324   0.431   3.195
76009CL-    CL-48434  25.630  30.089   0.345
76010CL-    CL-48435  35.864   0.867  12.855
76011CL-    CL-48436   8.804  24.124   2.829
76012CL-    CL-48437  35.370  15.105   2.286
76013CL-    CL-48438  11.775  25.208  13.794
76014CL-    CL-48439  23.628  44.990   2.859
76015CL-    CL-48440   4.223  36.582   2.407
76016CL-    CL-48441  19.641  30.536   4.209
76017CL-    CL-48442  21.099   8.265  10.516
76018CL-    CL-48443  13.752  32.469   2.798
76019CL-    CL-48444  15.299   8.386   3.272
76020CL-    CL-48445  38.901  37.412  13.502
76021CL-    CL-48446  41.374  28.657   0.479
76022CL-    CL-48447   8.724  22.684  13.394
76023CL-    CL-48448  20.103  33.613  11.872
76024CL-    CL-48449  31.459   7.364   0.368
76025CL-    CL-48450  20.744   9.645   3.767
76026CL-    CL-48451  23.223  42.299  13.324
76027CL-    CL-48452   2.424   4.258   4.191
76028CL-    CL-48453  31.630  22.743   2.199
76029CL-    CL-48454  20.565  31.118   4.665
76030CL-    CL-48455  11.317  23.551  11.903
76031CL-    CL-48456   8.388  12.836  14.945
76032CL-    CL-48457  40.811   9.180  10.478
76033CL-    CL-48458  30.161  30.524   0.879
76034CL-    CL-48459   2.910  26.050   4.342
76035CL-    CL-48460   4.793  19.091  14.978
76036CL-    CL-48461  13.240  17.275  13.330
76037CL-    CL-48462  39.057  42.832   4.611
76038CL-    CL-48463  26.130   7.390  10.533
76039CL-    CL-48464  16.738  14.125   1.744
76040CL-    CL-48465  42.846  31.088  14.959
76041CL-    CL-48466  43.424  44.489  13.355
76042CL-    CL-48467  12.640  42.362   2.225
76043CL-    CL-48468  26.653   5.892   1.269
76044CL-    CL-48469  19.654  24.211  11.384
76045CL-    CL-48470  27.662  31.413  12.885
76046CL-    CL-48471  30.031  43.336  11.904
76047CL-    CL-48472  19.637   3.828   1.874
76048CL-    CL-48473  27.099  43.021  14.880
76049CL-    CL-48474  41.304   7.188   2.854
76050CL-    CL-48475  36.069  12.291   0.900
76051CL-    CL-48476  35.967  26.197   3.295
76052CL-    CL-48477  13.120  32.943   1.840
76053CL-    CL-48478  22.663  17.064  13.000
76054CL-    CL-48479  38.571   4.837   0.825
76055CL-    CL-48480  42.985  44.000   4.630
76056CL-    CL-48481  15.097  30.652  10.922
76057CL-    CL-48482  27.075  38.445   3.798
76058CL-    CL-48483  28.079  33.118   3.854
76059CL-    CL-48484  28.959   4.313   0.915
76060CL-    CL-48485  32.446  28.444  11.028
76061CL-    CL-48486  37.032  41.892   3.680
76062CL-    CL-48487  43.933  27.611  13.806
76063CL-    CL-48488  30.480  30.589  11.439
76064CL-    CL-48489  30.057  35.862  11.496
76065CL-    CL-48490  19.043   3.235  11.970
76066CL-    CL-48491  23.646  16.725   0.453
76067CL-    CL-48492  10.855  31.043  10.585
76068CL-    CL-48493  30.126  24.722   0.927
76069CL-    CL-48494   7.181   3.328   2.297
76070CL-    CL-48495  10.241  13.123   2.835
76071CL-    CL-48496   0.486  15.711   4.150
76072CL-    CL-48497   2.426  43.978  12.992
76073CL-    CL-48498  19.641  14.632   3.250
76074CL-    CL-48499  28.543   2.467  11.871
76075CL-    CL-48500  15.175  25.979   0.873
76076CL-    CL-48501   3.899  25.536   0.328
76077CL-    CL-48502  33.055  27.070  10.482
76078CL-    CL-48503  32.429   2.799  11.407
76079CL-    CL-48504  15.119  27.146  12.541
76080CL-    CL-48505   6.853  22.210  13.383
76081CL-    CL-48506  26.514  43.994  10.957
76082CL-    CL-48507  36.351   7.811  12.537
76083CL-    CL-48508  34.485  44.405   2.288
76084CL-    CL-48509  10.690  19.285   2.381
76085CL-    CL-48510   0.765   4.434  12.345
76086CL-    CL-48511   5.260  11.212  11.033
76087CL-    CL-48512  33.528  40.813   4.176
76088CL-    CL-48513  27.557  34.487   2.682
76089CL-    CL-48514  31.109  38.416   1.392
76090CL-    CL-48515  18.617   5.327  13.857
76091CL-    CL-48516  37.944  36.406   2.787
76092CL-    CL-48517  37.529   2.281   4.124
76093CL-    CL-48518  18.551  36.016   4.156
76094CL-    CL-48519  28.061  41.979   1.325
76095CL-    CL-48520   9.768  19.694  10.478
76096CL-    CL-48521   2.321  25.536  10.643
76097CL-    CL-48522  41.372  26.496   2.792
76098CL-    CL-48523  44.502  19.768   4.793
76099CL-    CL-48524  27.952  17.769  11.596
76100CL-    CL-48525   0.934   5.867   1.366
76101CL-    CL-48526  28.069  10.776   1.309
76102CL-    CL-48527  26.047  33.042   3.793
76103CL-    CL-48528  13.130  42.389  14.447
76104CL-    CL-48529  33.382  17.103   3.860
76105CL-    CL-48530  20.547  18.545   1.714
76106CL-    CL-48531  32.044  15.736   3.827
76107CL-    CL-48532  27.643   1.312   4.164
76108CL-    CL-48533  21.553  13.270  10.504
76109CL-    CL-48534  33.047   8.346  13.547
76110CL-    CL-48535   8.339  38.019   3.782
76111CL-    CL-48536  32.930  12.774  14.961
76112CL-    CL-48537   4.736  35.444   0.424
76113CL-    CL-48538  18.740   5.423  14.302
76114CL-    CL-48539  21.248  30.510  12.525
76115CL-    CL-48540  14.198  32.477  14.863
76116CL-    CL-48541  32.910  24.983  11.033
76117CL-    CL-48542   9.336  16.638   0.841
76118CL-    CL-48543  20.746  16.300  10.567
76119CL-    CL-48544   5.767  44.489   4.796
76120CL-    CL-48545   1.315   6.421   1.404
76121CL-    CL-48546  23.120   6.262   4.208
76122CL-    CL-48547  19.095  38.966   2.757
76123CL-    CL-48548  16.794  14.808   1.342
76124CL-    CL-48549  40.817  18.586  14.778
76125CL-    CL-48550   3.349  17.693   0.753
76126CL-    CL-48551  11.640  33.957   3.261
76127CL-    CL-48552  20.062   5.328  12.918
76128CL-    CL-48553  24.161  44.899  13.435
76129CL-    CL-48554   8.339   7.264  13.056
76130CL-    CL-48555   3.374  33.002   0.481
76131CL-    CL-48556   5.273  27.528  12.936
76132CL-    CL-48557   0.921   7.205  11.612
76133CL-    CL-48558  29.515  42.997   0.305
76134CL-    CL-48559  20.581  34.927  12.345
76135CL-    CL-48560  38.880  14.155  14.801
76136CL-    CL-48561   8.689  35.940  14.274
76137CL-    CL-48562   1.968  38.858   0.890
76138CL-    CL-48563  41.920  41.993   3.713
76139CL-    CL-48564   8.661  30.925  10.631
76140CL-    CL-48565  26.481   8.184  12.955
76141CL-    CL-48566  14.635  13.157  13.352
76142CL-    CL-48567  35.361   1.875   1.228
76143CL-    CL-48568  27.585  33.083   2.290
76144CL-    CL-48569  28.634  14.794  13.328
76145CL-    CL-48570  15.184  33.993  14.984
76146CL-    CL-48571  33.061  39.932   0.250
76147CL-    CL-48572  18.558  34.924   0.921
76148CL-    CL-48573  10.723  34.525  12.527
76149CL-    CL-48574  13.219  38.858   2.902
76150CL-    CL-48575   9.820   6.832  11.474
76151CL-    CL-48576  37.907  34.963  14.335
76152CL-    CL-48577  21.099   8.300   3.258
76153CL-    CL-48578  11.762  30.611   9.924
76154CL-    CL-48579  42.872   9.165  13.964
76155CL-    CL-48580  33.430  25.136   4.826
76156CL-    CL-48581   2.373  44.428  12.451
76157CL-    CL-48582  39.504  41.510  13.953
76158CL-    CL-48583   2.272  12.320  11.496
76159CL-    CL-48584  12.177  32.597  11.937
76160CL-    CL-48585  31.131  23.648  13.358
76161CL-    CL-48586  16.718  23.693  13.441
76162CL-    CL-48587   1.909  36.857   4.747
76163CL-    CL-48588  40.826  41.446  13.809
76164CL-    CL-48589  40.029  14.111  12.926
76165CL-    CL-48590   4.832  23.599   0.390
76166CL-    CL-48591  14.203  42.457  14.342
76167CL-    CL-48592  44.354   6.215  13.515
76168CL-    CL-48593  39.871  22.129   0.869
76169CL-    CL-48594   0.856   7.364   4.291
76170CL-    CL-48595  40.854  38.942   1.849
76171CL-    CL-48596  16.794  18.165  11.094
76172CL-    CL-48597   9.181  13.193  13.492
76173CL-    CL-48598  36.885  29.572   1.876
76174CL-    CL-48599   4.416  12.214  12.877
76175CL-    CL-48600  17.174  39.046   4.152
76176CL-    CL-48601  34.403  43.425   0.734
76177CL-    CL-48602  19.618  17.122  10.504
76178CL-    CL-48603  23.999   7.325   1.832
76179CL-    CL-48604   0.799  23.588   0.911
76180CL-    CL-48605  22.193  43.824  12.541
76181CL-    CL-48606  21.020  11.328  10.982
76182CL-    CL-48607  40.020  43.804   0.364
76183CL-    CL-48608  42.298  34.864   2.707
76184CL-    CL-48609   3.288  18.768  12.926
76185CL-    CL-48610  43.930  37.997  10.525
76186CL-    CL-48611  22.999  15.658  11.596
76187CL-    CL-48612  39.913  18.265  12.560
76188CL-    CL-48613  42.316  30.542   3.341
76189CL-    CL-48614   7.325  14.141  14.933
76190CL-    CL-48615  34.876  43.989  11.053
76191CL-    CL-48616  17.754  18.206   2.284
76192CL-    CL-48617  37.578  40.459  10.404
76193CL-    CL-48618  36.048  32.556   4.201
76194CL-    CL-48619  16.727  20.559  10.495
76195CL-    CL-48620  27.114   9.327   4.695
76196CL-    CL-48621  10.766   6.810  12.065
76197CL-    CL-48622  19.725  31.005  13.919
76198CL-    CL-48623  37.841  18.720   2.771
76199CL-    CL-48624  33.589  15.782   2.365
76200CL-    CL-48625  13.119  21.647   4.164
76201CL-    CL-48626  13.253  21.034   5.244
76202CL-    CL-48627  40.545  21.566  12.532
76203CL-    CL-48628   0.372  37.411   0.798
76204CL-    CL-48629  40.003  43.948   9.542
76205CL-    CL-48630  29.634   4.738  12.442
76206CL-    CL-48631  27.036  40.364   1.264
76207CL-    CL-48632   0.481  33.609  11.584
76208CL-    CL-48633   0.433   9.269   2.784
76209CL-    CL-48634   9.753  32.111   3.751
76210CL-    CL-48635  39.448  15.589   2.719
76211CL-    CL-48636  40.815  38.046   1.420
76212CL-    CL-48637  19.231  22.707   3.857
76213CL-    CL-48638  19.134  21.659   2.182
76214CL-    CL-48639  19.050  30.471  13.496
76215CL-    CL-48640  14.791  15.111   2.322
76216CL-    CL-48641   8.277  26.568  12.070
76217CL-    CL-48642  34.384  12.670  13.472
76218CL-    CL-48643  18.089   2.965  13.836
76219CL-    CL-48644  11.330   5.283   0.298
76220CL-    CL-48645  30.005  40.019   0.929
76221CL-    CL-48646  37.874  36.540  13.883
76222CL-    CL-48647  20.741  25.114   0.741
76223CL-    CL-48648  15.277   4.917   0.349
76224CL-    CL-48649  26.676  26.548   9.977
76225CL-    CL-48650  17.567   9.201  11.601
76226CL-    CL-48651  18.581  25.615   0.930
76227CL-    CL-48652  11.645  31.620   2.344
76228CL-    CL-48653  10.234   7.229   3.635
76229CL-    CL-48654  18.280  14.617  14.875
76230CL-    CL-48655  24.636  35.521   4.802
76231CL-    CL-48656   1.768  28.680  14.355
76232CL-    CL-48657   5.325  11.663  10.933
76233CL-    CL-48658  26.161  23.526   0.764
76234CL-    CL-48659   1.875  10.191  11.551
76235CL-    CL-48660   1.853  16.206   2.747
76236CL-    CL-48661   4.762  13.211   4.794
76237CL-    CL-48662  21.689  17.575   1.408
76238CL-    CL-48663  13.728  31.614   3.638
76239CL-    CL-48664  13.300   1.290  12.048
76240CL-    CL-48665  20.061  11.692  10.596
76241CL-    CL-48666  33.602  40.046  12.837
76242CL-    CL-48667  24.082  14.589   3.838
76243CL-    CL-48668  11.815  33.447  10.051
76244CL-    CL-48669  35.926  33.455  12.019
76245CL-    CL-48670  31.148  37.087  12.053
76246CL-    CL-48671   6.809  11.372  11.392
76247CL-    CL-48672  31.579  12.310   1.758
76248CL-    CL-48673  34.087   7.841  11.037
76249CL-    CL-48674  41.515  40.439   0.828
76250CL-    CL-48675  32.535  13.270  12.911
76251CL-    CL-48676  32.046  21.545  11.897
76252CL-    CL-48677  34.864  14.821   0.418
76253CL-    CL-48678  14.772  14.292  10.468
76254CL-    CL-48679   4.288   2.247  10.459
76255CL-    CL-48680   6.290   1.281   3.384
76256CL-    CL-48681  12.234  38.376   0.780
76257CL-    CL-48682  19.559  31.578   3.210
76258CL-    CL-48683  30.569  25.964   2.792
76259CL-    CL-48684  37.030  44.357  12.398
76260CL-    CL-48685   0.430   4.227   0.384
76261CL-    CL-48686  26.558  14.223   4.641
76262CL-    CL-48687  21.148  35.551  12.837
76263CL-    CL-48688   4.766  31.956  14.461
76264CL-    CL-48689  21.041   5.839  13.859
76265CL-    CL-48690  34.536  12.251  11.107
76266CL-    CL-48691  36.091   1.471  14.298
76267CL-    CL-48692  13.275   5.439  14.426
76268CL-    CL-48693  32.997  21.228  14.308
76269CL-    CL-48694  33.127  31.436   1.826
76270CL-    CL-48695  38.349  33.406   4.687
76271CL-    CL-48696  34.368  22.127  14.289
76272CL-    CL-48697  42.513   6.767  11.383
76273CL-    CL-48698  15.595  26.104  12.898
76274CL-    CL-48699  24.598  43.867  11.075
76275CL-    CL-48700   6.695  36.084   2.804
76276CL-    CL-48701  27.563   8.900   1.907
76277CL-    CL-48702  23.558  28.957   0.455
76278CL-    CL-48703  24.150  44.306  12.472
76279CL-    CL-48704  33.978   6.707  11.043
76280CL-    CL-48705   3.892  21.519   0.893
76281CL-    CL-48706   0.267  15.782  11.573
76282CL-    CL-48707   1.734  40.945  13.521
76283CL-    CL-48708  22.512  10.690   5.134
76284CL-    CL-48709  29.118   1.962  11.559
76285CL-    CL-48710  34.493   4.800  11.977
76286CL-    CL-48711  38.533  39.963   2.376
76287CL-    CL-48712   2.450  33.925   0.293
76288CL-    CL-48713  30.991   8.805   0.946
76289CL-    CL-48714   8.175   2.814   0.397
76290CL-    CL-48715  38.872   5.728  14.397
76291CL-    CL-48716  33.002  34.898  12.930
76292CL-    CL-48717  19.123  38.891  11.522
76293CL-    CL-48718  41.444   2.469  13.966
76294CL-    CL-48719  23.240  11.829  13.021
76295CL-    CL-48720   5.276  30.520   3.301
76296CL-    CL-48721  18.203  40.348   0.912
76297CL-    CL-48722  43.885  19.119   1.724
76298CL-    CL-48723   5.356  42.008  12.879
76299CL-    CL-48724   8.329  41.973  12.068
76300CL-    CL-48725  18.761  24.626   0.459
76301CL-    CL-48726  23.558   3.400   0.430
76302CL-    CL-48727  31.936  12.748  13.997
76303CL-    CL-48728  25.546  26.203   0.295
76304CL-    CL-48729  21.527   8.171  10.014
76305CL-    CL-48730   9.767  42.428  10.484
76306CL-    CL-48731  32.023   9.212  14.877
76307CL-    CL-48732  31.428  13.845   1.809
76308CL-    CL-48733  42.965  38.546   0.273
76309CL-    CL-48734  37.975  22.735   4.294
76310CL-    CL-48735  29.612  34.390   1.217
76311CL-    CL-48736  12.294  27.036  10.990
76312CL-    CL-48737  33.445  21.157   3.747
76313CL-    CL-48738  11.803  41.305  11.479
76314CL-    CL-48739   7.369  21.050   2.202
76315CL-    CL-48740  17.726  43.374   1.336
76316CL-    CL-48741  36.559  19.132   4.340
76317CL-    CL-48742   0.390  36.973   0.459
76318CL-    CL-48743  17.212  43.888   2.326
76319CL-    CL-48744   4.345   4.412  13.413
76320CL-    CL-48745  13.255  12.790  10.989
76321CL-    CL-48746  14.100  18.774   3.262
76322CL-    CL-48747  19.569  24.543  11.923
76323CL-    CL-48748  32.514  19.594  11.464
76324CL-    CL-48749  25.157  16.655  11.481
76325CL-    CL-48750   1.458   3.730   2.806
76326CL-    CL-48751  44.781  28.133   1.702
76327CL-    CL-48752  28.461  40.833   3.152
76328CL-    CL-48753  43.807  27.962   3.222
76329CL-    CL-48754  41.306  25.107  14.455
76330CL-    CL-48755  30.626  24.205  10.562
76331CL-    CL-48756  19.543  38.057  13.034
76332CL-    CL-48757  24.039   4.411  10.412
76333CL-    CL-48758  23.046  22.031   2.805
76334CL-    CL-48759  36.422  35.428   4.609
76335CL-    CL-48760  42.982  17.253   1.335
76336CL-    CL-48761  11.248  27.082  13.902
76337CL-    CL-48762  36.031  23.690  13.478
76338CL-    CL-48763  23.665  42.852   3.760
76339CL-    CL-48764  35.973   1.344  13.013
76340CL-    CL-48765  24.193  41.990   2.324
76341CL-    CL-48766  31.040  38.833  13.793
76342CL-    CL-48767  16.319  25.209   1.787
76343CL-    CL-48768  19.167  17.088  12.407
76344CL-    CL-48769  15.108  12.119  11.519
76345CL-    CL-48770  35.452  39.518   0.248
76346CL-    CL-48771  27.038  37.835   2.876
76347CL-    CL-48772  32.142  12.210  13.470
76348CL-    CL-48773   9.372  29.611   3.676
76349CL-    CL-48774  43.973  24.032  14.945
76350CL-    CL-48775   7.283   6.856  11.028
76351CL-    CL-48776  44.431   1.413   3.805
  45.00000  45.00000  15.00000   0.00000   0.00000   0.00000   0.00000   0.00000   0.00000

